Protein in INSANE! Membrane UpperLeaflet>POPC=1.0 LowerLeaflet>POPC=1.0
12676
    1AU     AUC    1  10.060   7.789   7.092 -0.0460  0.0266  0.0076
    1AU     AUC    2  10.012   7.493   7.142  0.1531  0.0476  0.0401
    1AU     AUC    3   9.981   7.704   7.373  0.0328  0.0900 -0.0667
    1AU     AUC    4  10.112   7.875   6.793 -0.0157 -0.0707  0.0519
    1AU     AUC    5  10.112   8.090   7.042  0.0205 -0.0427 -0.1158
    1AU     AUC    6  10.326   7.877   7.032 -0.1430  0.0356  0.0604
    1AU     AUC    7  10.273   7.628   7.218  0.0250  0.0142 -0.0107
    1AU     AUC    8   9.821   7.927   6.964  0.1398  0.0405 -0.0422
    1AU     AUC    9   9.759   7.725   7.149 -0.0753 -0.0858  0.0502
    1AU     AUC   10   9.900   7.983   7.275  0.0301  0.0576  0.0951
    1AU     AUC   11  10.202   7.919   7.306 -0.0136 -0.0368 -0.0682
    1AU     AUC   12   9.906   7.676   6.867  0.0881  0.0516 -0.0223
    1AU     AUC   13  10.213   7.599   6.915  0.0397  0.0154  0.0026
    1AU     AUC   14   9.985   7.201   7.184 -0.0490 -0.0678  0.0307
    1AU     AUC   15   9.950   7.404   7.419 -0.0463 -0.0350  0.0254
    1AU     AUC   16   9.926   7.597   7.657  0.0586  0.0485  0.0774
    1AU     AUC   17  10.151   7.996   6.530 -0.0505  0.0708 -0.0068
    1AU     AUC   18  10.120   8.194   6.769 -0.1493  0.0316  0.0674
    1AU     AUC   19  10.136   8.371   7.027 -0.0361  0.0517 -0.0288
    1AU     AUC   20  10.608   7.984   6.976  0.0413  0.0367 -0.0715
    1AU     AUC   21  10.556   7.742   7.184  0.0011  0.0789  0.1806
    1AU     AUC   22  10.491   7.468   7.371  0.2044  0.1327 -0.0434
    1AU     AUC   23   9.615   8.108   6.840 -0.0383  0.0968 -0.0567
    1AU     AUC   24   9.542   7.867   7.017 -0.0602  0.0959  0.0130
    1AU     AUC   25   9.483   7.653   7.232  0.0571  0.0206  0.0134
    1AU     AUC   26   9.757   8.173   7.452  0.0010 -0.0201 -0.0118
    1AU     AUC   27  10.055   8.141   7.502  0.0238 -0.0864 -0.0603
    1AU     AUC   28  10.343   8.053   7.533  0.0738 -0.0680  0.0606
    1AU     AUC   29   9.754   7.535   6.636 -0.0268 -0.0502  0.0834
    1AU     AUC   30  10.078   7.492   6.660  0.0294 -0.0571 -0.1467
    1AU     AUC   31  10.373   7.438   6.735  0.0357  0.0349  0.0165
    1AU     AUC   32   9.858   7.882   7.576  0.0615  0.0966  0.0355
    1AU     AUC   33  10.134   7.854   7.606  0.0435  0.0313 -0.0167
    1AU     AUC   34   9.865   7.357   6.920 -0.0090  0.1042 -0.0196
    1AU     AUC   35  10.158   7.298   6.957  0.0408  0.0414  0.0543
    1AU     AUC   36   9.947   8.284   7.235 -0.0425  0.0053  0.0308
    1AU     AUC   37  10.263   8.237   7.260  0.0175 -0.1161  0.0049
    1AU     AUC   38   9.950   7.732   6.574 -0.0691  0.0100 -0.1142
    1AU     AUC   39  10.307   7.716   6.624  0.0618  0.0832  0.0197
    1AU     AUC   40  10.239   7.337   7.233 -0.0691 -0.0486  0.0022
    1AU     AUC   41  10.197   7.528   7.502 -0.0283  0.0200  0.0221
    1AU     AUC   42  10.373   8.006   6.755  0.0292 -0.0273  0.0220
    1AU     AUC   43  10.404   8.174   6.976  0.0317 -0.0232  0.0074
    1AU     AUC   44   9.728   7.409   7.212  0.0575  0.0295 -0.0307
    1AU     AUC   45   9.698   7.618   7.449  0.0267 -0.0085 -0.0504
    1AU     AUC   46   9.877   8.050   6.676 -0.0093 -0.0478  0.0031
    1AU     AUC   47   9.865   8.256   6.945 -0.0684  0.0179 -0.0680
    1AU     AUC   48  10.496   8.029   7.252  0.0604  0.0222 -0.0465
    1AU     AUC   49  10.416   7.746   7.450  0.0512 -0.0658  0.0635
    1AU     AUC   50   9.648   8.127   7.138 -0.0253  0.0158  0.0209
    1AU     AUC   51   9.617   7.928   7.356 -0.0103  0.0583  0.0039
    1AU     AUC   52  10.503   7.683   6.859 -0.1636 -0.0890 -0.0432
    1AU     AUC   53  10.435   7.452   7.041 -0.0647 -0.0273  0.1068
    1AU     AUC   54   9.681   7.801   6.739 -0.0190  0.0532  0.0784
    1AU     AUC   55   9.620   7.576   6.943  0.0152  0.1199  0.0314
    1AU    AUSL   56   9.931   7.909   7.774  0.0188  0.0298 -0.0177
    1AU    AUSL   57   9.548   8.049   7.734 -0.0785  0.0255 -0.0284
    1AU     AUL   58   9.583   8.024   8.092  0.0358  0.0317  0.0246
    1AU       S   59   9.203   7.838   7.883 -0.0805  0.3356  0.1621
    1AU     LIG   60   9.122   8.196   8.128 -0.0242 -0.1034  0.0298
    1AU     LIG   61   8.974   8.659   8.015  0.1827 -0.2381 -0.0381
    1AU     LIG   62   8.703   8.980   8.085 -0.2909  0.0973  0.1762
    1AU     LIG   63   8.333   9.292   7.820 -0.2620  0.2959 -0.0435
    1AU     LIG   64   8.166   9.768   7.802  0.2502  0.1609  0.2020
    1AU     LIG   65   8.285  10.180   7.943 -0.1487  0.0131  0.0041
    1AU       S   66   9.975   8.267   8.257 -0.0391 -0.1015  0.0579
    1AU     LIG   67  10.306   8.448   8.487  0.2845  0.1405  0.1049
    1AU     LIG   68  10.558   8.712   8.317 -0.1690  0.1563 -0.0205
    1AU     LIG   69  10.687   8.888   8.042 -0.2308 -0.0304  0.2607
    1AU     LIG   70  10.832   8.947   7.694 -0.0169  0.1059 -0.3349
    1AU     LIG   71  11.236   8.959   7.617 -0.4512  0.2524 -0.2496
    1AU     LIG   72  11.714   8.864   7.465  0.1110 -0.0373 -0.1218
    1AU    AUSL   73   9.870   8.319   7.780  0.0421  0.0155 -0.0102
    1AU    AUSL   74  10.277   8.420   7.653  0.1156 -0.0715 -0.0698
    1AU     AUL   75  10.245   8.554   8.005  0.0702  0.1066  0.0912
    1AU       S   76   9.838   8.361   7.935  0.0846 -0.2132  0.2877
    1AU     LIG   77   9.493   8.564   7.973 -0.0492 -0.1680  0.4880
    1AU     LIG   78   9.172   8.665   7.571  0.2042 -0.1141 -0.2473
    1AU     LIG   79   8.727   8.705   7.595  0.2490  0.0691 -0.0151
    1AU     LIG   80   8.271   8.517   7.680  0.1871  0.1833  0.4124
    1AU     LIG   81   7.829   8.605   7.798  0.1965  0.1561 -0.0699
    1AU     LIG   82   7.599   8.769   8.099  0.0226 -0.1064 -0.1700
    1AU       S   83  10.233   8.931   7.745 -0.1920 -0.1083  0.4333
    1AU     LIG   84  10.451   9.363   7.870  0.1781  0.3303  0.4444
    1AU     LIG   85  10.690   9.693   7.960  0.1510  0.3658  0.3025
    1AU     LIG   86  10.968  10.013   7.834 -0.3653 -0.0322 -0.0788
    1AU     LIG   87  11.061  10.243   7.457 -0.0756  0.1517 -0.2028
    1AU     LIG   88  10.798  10.286   7.055 -0.0894 -0.0210  0.3357
    1AU     LIG   89  10.594  10.606   7.080 -0.1114  0.2204  0.1972
    1AU    AUSL   90  10.275   8.091   7.887 -0.0790  0.0019 -0.1121
    1AU    AUSL   91  10.110   7.573   7.936 -0.0587 -0.0411  0.0400
    1AU     AUL   92  10.004   7.836   8.088  0.0750 -0.0841 -0.0834
    1AU       S   93  10.362   8.118   8.122  0.2002 -0.2942 -0.1785
    1AU     LIG   94  10.720   8.292   8.024 -0.3147 -0.0522 -0.2017
    1AU     LIG   95  11.119   8.513   7.790 -0.3610 -0.0959 -0.1000
    1AU     LIG   96  11.338   8.522   7.407 -0.0539 -0.2255 -0.3142
    1AU     LIG   97  11.663   8.464   7.135  0.2731  0.4343  0.1049
    1AU     LIG   98  12.073   8.404   7.122 -0.1530 -0.0151  0.2404
    1AU     LIG   99  12.419   8.155   7.005 -0.0341  0.1784 -0.0219
    1AU       S  100  10.259   7.472   8.246 -0.4675 -0.2145 -0.0101
    1AU     LIG  101   9.841   7.433   8.335  0.3448  0.1249 -0.3150
    1AU     LIG  102   9.574   7.704   8.433  0.0731  0.0928  0.0953
    1AU     LIG  103   9.114   7.805   8.415  0.1253  0.0193 -0.0411
    1AU     LIG  104   8.783   8.161   8.472 -0.2785 -0.1411 -0.5084
    1AU     LIG  105   8.531   8.470   8.240 -0.0812  0.0180  0.0119
    1AU     LIG  106   8.185   8.291   8.081  0.1682 -0.0215  0.2137
    1AU    AUSL  107   9.947   6.996   6.862 -0.1181  0.0426  0.0513
    1AU    AUSL  108  10.402   7.057   6.788  0.0112  0.0005 -0.1094
    1AU     AUL  109  10.143   6.769   6.675 -0.0572 -0.0004  0.0536
    1AU       S  110   9.724   6.721   6.375 -0.4044  0.1631  0.1647
    1AU     LIG  111   9.879   6.343   6.393 -0.0842  0.5219 -0.0938
    1AU     LIG  112   9.829   5.875   6.626  0.2947 -0.0844 -0.1374
    1AU     LIG  113   9.665   5.623   6.902 -0.0171  0.4917 -0.3755
    1AU     LIG  114   9.726   5.310   7.078 -0.0713 -0.1914  0.1740
    1AU     LIG  115   9.963   5.077   7.372  0.3946 -0.2153 -0.2320
    1AU     LIG  116  10.049   4.878   7.702 -0.3958  0.1975  0.0719
    1AU       S  117  10.525   6.651   6.940  0.5247  0.0318  0.1570
    1AU     LIG  118  10.697   6.318   6.939 -0.1881 -0.2364  0.1213
    1AU     LIG  119  10.644   5.997   7.085 -0.1896 -0.2232 -0.1731
    1AU     LIG  120  10.781   5.625   7.090  0.2329  0.1995  0.0374
    1AU     LIG  121  11.028   5.174   7.204 -0.1404  0.0114  0.3338
    1AU     LIG  122  10.955   4.873   7.512  0.1098  0.1187  0.0900
    1AU     LIG  123  11.020   4.439   7.779 -0.0169 -0.0027  0.1824
    1AU    AUSL  124   9.775   7.194   6.534 -0.0359 -0.1324  0.0351
    1AU    AUSL  125   9.653   6.998   7.133 -0.0274 -0.0805 -0.0097
    1AU     AUL  126   9.685   6.908   6.759 -0.0276 -0.0194 -0.0973
    1AU       S  127   9.328   6.778   7.027  0.1094  0.1411  0.1036
    1AU     LIG  128   9.558   6.440   6.759  0.4252  0.4660  0.0967
    1AU     LIG  129   9.314   5.964   6.673  0.0984  0.2263 -0.1634
    1AU     LIG  130   9.181   5.564   6.716  0.2204 -0.1087 -0.0108
    1AU     LIG  131   9.294   5.152   6.778  0.5018 -0.0753 -0.0433
    1AU     LIG  132   9.091   4.963   7.062 -0.1879  0.4428 -0.1504
    1AU     LIG  133   8.719   4.660   7.226  0.0103  0.3636 -0.1372
    1AU       S  134   9.564   7.028   6.338 -0.2050  0.1166 -0.2140
    1AU     LIG  135   9.188   6.850   6.468  0.0995  0.1579 -0.1127
    1AU     LIG  136   8.688   6.803   6.404 -0.1895 -0.5076  0.3364
    1AU     LIG  137   8.241   6.839   6.506 -0.0571 -0.1390 -0.1851
    1AU     LIG  138   7.956   6.590   6.779  0.0895 -0.2919  0.4695
    1AU     LIG  139   7.414   6.411   6.729  0.2241 -0.1278 -0.2694
    1AU     LIG  140   7.284   6.221   7.159 -0.0853 -0.3479  0.0513
    1AU    AUSL  141  10.129   7.335   6.741  0.0607 -0.0649 -0.0308
    1AU    AUSL  142   9.975   7.505   6.382 -0.0785 -0.1109  0.1262
    1AU     AUL  143  10.057   7.094   6.362  0.0474 -0.0215  0.0706
    1AU       S  144  10.258   7.319   6.001 -0.0210  0.1301 -0.1354
    1AU     LIG  145  10.346   6.803   6.117 -0.2989  0.0590  0.2782
    1AU     LIG  146  10.494   6.497   6.458  0.3870  0.0278 -0.0029
    1AU     LIG  147  10.207   6.255   6.759 -0.1708  0.0470 -0.0696
    1AU     LIG  148  10.057   5.929   7.089  0.1137 -0.1112  0.3032
    1AU     LIG  149  10.344   5.477   7.282  0.2730  0.3236 -0.0629
    1AU     LIG  150  10.555   5.190   6.931  0.1558  0.0435  0.5452
    1AU       S  151   9.625   7.203   6.333 -0.0427  0.7639 -0.0110
    1AU     LIG  152   9.243   7.369   6.216 -0.1383 -0.0123  0.2236
    1AU     LIG  153   9.044   7.691   5.999  0.0301 -0.2648 -0.1720
    1AU     LIG  154   9.051   8.110   6.140  0.3309 -0.3112 -0.0714
    1AU     LIG  155   9.129   8.466   6.399 -0.1126  0.1864  0.2049
    1AU     LIG  156   9.110   8.790   6.773  0.0798 -0.1673 -0.0280
    1AU     LIG  157   8.940   8.742   7.135  0.0087 -0.2841  0.2105
    1AU    AUSL  158  10.130   8.590   7.323 -0.0589 -0.0229  0.0183
    1AU    AUSL  159  10.446   8.235   7.338  0.0535  0.0770 -0.0351
    1AU     AUL  160  10.441   8.580   7.508 -0.0245 -0.0099  0.0172
    1AU       S  161  10.048   8.884   7.660 -0.1501  0.2237 -0.0285
    1AU     LIG  162   9.943   9.322   7.954  0.2443  0.0044  0.1543
    1AU     LIG  163  10.176   9.586   8.205  0.2124  0.0817 -0.0119
    1AU     LIG  164  10.571   9.806   8.465  0.1735  0.2372 -0.0788
    1AU     LIG  165  11.008   9.791   8.523 -0.0132  0.0421 -0.0380
    1AU     LIG  166  11.214   9.704   8.104  0.2822  0.3386  0.0497
    1AU     LIG  167  11.494   9.301   7.887  0.0429 -0.2558  0.1729
    1AU       S  168  10.836   8.697   7.283 -0.3129  0.4144  0.2845
    1AU     LIG  169  11.273   8.926   7.123  0.1310  0.2062  0.1975
    1AU     LIG  170  11.681   9.014   6.999  0.0270  0.2895  0.2258
    1AU     LIG  171  11.987   8.875   6.974  0.2000  0.3558  0.3191
    1AU     LIG  172  12.294   9.062   6.835  0.2476  0.0563  0.2654
    1AU     LIG  173  12.277   9.479   6.911  0.4479 -0.1292 -0.3954
    1AU     LIG  174  12.303   9.887   7.101  0.0676 -0.1752  0.0407
    1AU    AUSL  175   9.937   8.241   7.393 -0.0040  0.1371  0.0099
    1AU    AUSL  176   9.918   8.659   6.989  0.1102  0.0721  0.0455
    1AU     AUL  177  10.051   8.788   7.203 -0.1100  0.0643  0.0168
    1AU       S  178   9.645   8.976   7.145  0.1696  0.2826 -0.0031
    1AU     LIG  179   9.870   9.286   7.415  0.4368 -0.1408 -0.0262
    1AU     LIG  180   9.733   9.677   7.491  0.1356  0.0223 -0.2948
    1AU     LIG  181   9.876  10.042   7.544 -0.1053 -0.3192 -0.2111
    1AU     LIG  182  10.116  10.394   7.848  0.2522 -0.1742  0.2210
    1AU     LIG  183  10.011  10.822   7.924  0.0470 -0.3506  0.0908
    1AU     LIG  184  10.120  11.048   8.260 -0.1519 -0.0417  0.3135
    1AU       S  185   9.961   8.786   7.723  0.1926  0.1007  0.0726
    1AU     LIG  186   9.853   8.827   8.240 -0.5589  0.0462  0.4499
    1AU     LIG  187   9.778   9.255   8.417  0.0084 -0.2711  0.1979
    1AU     LIG  188   9.571   9.578   8.147 -0.1829  0.0233  0.0682
    1AU     LIG  189   9.306   9.642   7.798  0.3438  0.3091  0.2753
    1AU     LIG  190   9.221   9.540   7.500  0.0755  0.4797 -0.2296
    1AU     LIG  191   8.952   9.685   7.302 -0.2873  0.1054 -0.1312
    1AU    AUSL  192  10.251   7.753   6.225 -0.1021 -0.0034 -0.0156
    1AU    AUSL  193   9.632   7.725   6.362 -0.0467  0.0284 -0.0619
    1AU     AUL  194   9.881   7.565   6.148  0.1512  0.0347 -0.0434
    1AU       S  195  10.312   7.466   5.919  0.0143  0.2308 -0.0372
    1AU     LIG  196  10.044   7.746   5.705 -0.0083  0.3172 -0.4607
    1AU     LIG  197   9.779   8.078   5.523  0.4247 -0.3512  0.0836
    1AU     LIG  198   9.806   8.497   5.633 -0.2744  0.0921  0.1470
    1AU     LIG  199   9.752   8.835   5.914  0.1779 -0.0549 -0.3058
    1AU     LIG  200  10.162   9.008   5.980  0.0793  0.1979 -0.0827
    1AU     LIG  201  10.569   9.080   5.998  0.1162 -0.3564  0.2469
    1AU       S  202   9.579   7.881   5.977  0.2955 -0.0960  0.1871
    1AU     LIG  203   9.547   7.567   5.757  0.1454 -0.3104 -0.2116
    1AU     LIG  204   9.379   7.255   5.746 -0.2577 -0.1289 -0.2139
    1AU     LIG  205   8.983   7.031   5.969  0.4625  0.2605  0.1529
    1AU     LIG  206   8.764   7.279   6.289 -0.0146  0.0800 -0.1033
    1AU     LIG  207   8.438   7.417   6.633 -0.0610  0.2425  0.1706
    1AU     LIG  208   7.954   7.594   6.507  0.0096 -0.2668 -0.3137
    1AU    AUSL  209  10.381   7.412   6.435 -0.0225  0.0651 -0.0646
    1AU    AUSL  210  10.349   7.866   6.593  0.0256 -0.0221  0.0904
    1AU     AUL  211  10.470   7.806   6.162 -0.0929  0.0095 -0.0789
    1AU       S  212  10.934   7.901   6.223  0.0183  0.2221  0.1018
    1AU     LIG  213  11.156   8.020   5.937  0.0306  0.0109 -0.3334
    1AU     LIG  214  11.345   8.429   5.863  0.0286  0.0865  0.0145
    1AU     LIG  215  11.466   8.710   6.156 -0.0994 -0.0080 -0.0858
    1AU     LIG  216  11.423   9.054   6.549 -0.0592 -0.0930 -0.1458
    1AU     LIG  217  11.127   9.388   6.887 -0.0683  0.0517  0.2239
    1AU     LIG  218  10.929   9.250   7.205  0.1936 -0.0601 -0.2103
    1AU       S  219  10.461   7.329   6.237 -0.0855 -0.2600 -0.0076
    1AU     LIG  220  10.723   7.036   6.416 -0.3228  0.4193  0.0796
    1AU     LIG  221  10.956   6.776   6.609  0.0000  0.2096  0.0895
    1AU     LIG  222  11.166   6.428   6.581  0.0460 -0.1244 -0.1668
    1AU     LIG  223  11.548   6.217   6.673  0.2078 -0.4569  0.1246
    1AU     LIG  224  11.694   5.940   7.073 -0.1295 -0.2840 -0.0780
    1AU     LIG  225  11.843   5.525   6.945  0.0604  0.1793 -0.1229
    1AU    AUSL  226  10.433   7.141   7.517  0.0059 -0.0701 -0.0179
    1AU    AUSL  227  10.243   6.988   7.152 -0.0319  0.0426  0.0375
    1AU     AUL  228  10.676   6.992   7.416  0.0488 -0.0419 -0.0616
    1AU       S  229  10.344   6.659   7.149  0.0967 -0.9085  0.2124
    1AU     LIG  230   9.912   6.551   7.046  0.0505 -0.2563  0.1776
    1AU     LIG  231   9.643   6.236   7.167  0.1404 -0.2535 -0.1854
    1AU     LIG  232   9.481   5.810   7.318 -0.0774  0.0321  0.0680
    1AU     LIG  233   9.377   5.413   7.360  0.2482  0.2102  0.3725
    1AU     LIG  234   9.461   4.970   7.373 -0.2835 -0.0283 -0.4077
    1AU     LIG  235   9.748   4.554   7.394  0.0696  0.2490  0.0257
    1AU       S  236  10.342   6.784   7.673 -0.0743 -0.4609  0.3562
    1AU     LIG  237  10.721   7.002   7.956 -0.0018 -0.1853  0.2153
    1AU     LIG  238  11.180   6.914   8.134  0.0216  0.0865 -0.1649
    1AU     LIG  239  11.619   6.668   8.204  0.1184  0.1392  0.1702
    1AU     LIG  240  12.039   6.448   8.074  0.1989  0.1931  0.3195
    1AU     LIG  241  12.420   6.225   7.788 -0.2022  0.1444 -0.2655
    1AU     LIG  242  12.693   6.023   7.437  0.2134  0.0284 -0.0007
    1AU    AUSL  243   9.989   7.007   7.460  0.0836  0.0461 -0.0281
    1AU    AUSL  244   9.762   7.283   7.745 -0.0153  0.0760 -0.0721
    1AU     AUL  245   9.791   6.947   7.816  0.0236 -0.0286 -0.0044
    1AU       S  246  10.089   6.695   7.532  0.0123 -0.3554  0.0274
    1AU     LIG  247   9.707   6.547   7.588 -0.0832  0.1260 -0.0900
    1AU     LIG  248   9.416   6.234   7.840  0.0454  0.3226  0.2161
    1AU     LIG  249   9.106   6.215   7.912  0.0772  0.0103 -0.2720
    1AU     LIG  250   8.678   6.225   8.039 -0.1850 -0.1388 -0.3067
    1AU     LIG  251   8.312   6.476   8.068  0.1579  0.0530  0.2570
    1AU     LIG  252   8.102   6.644   8.427  0.1048  0.2191 -0.3479
    1AU       S  253   9.328   7.049   7.801 -0.0104 -0.5674 -0.0891
    1AU     LIG  254   9.227   6.652   7.570  0.1316 -0.0073 -0.1904
    1AU     LIG  255   9.134   6.290   7.372 -0.0595  0.3947 -0.2066
    1AU     LIG  256   8.956   5.964   7.085  0.3324  0.0398  0.2009
    1AU     LIG  257   8.933   5.496   7.176  0.2785 -0.1264  0.3205
    1AU     LIG  258   8.798   5.200   7.457  0.1580  0.0044 -0.2633
    1AU     LIG  259   8.440   5.448   7.727  0.0225 -0.3843  0.1290
    1AU    AUSL  260  10.106   7.401   7.569  0.0189  0.0294 -0.1199
    1AU    AUSL  261  10.486   7.459   7.768 -0.0179  0.0656  0.0549
    1AU     AUL  262  10.214   7.207   7.861  0.0018 -0.0647  0.0505
    1AU       S  263  10.491   7.421   8.143  0.6092  0.1737 -0.0373
    1AU     LIG  264  10.830   7.389   8.359  0.0778 -0.0770  0.4410
    1AU     LIG  265  11.082   7.723   8.224 -0.0836  0.1164  0.2431
    1AU     LIG  266  11.187   8.124   8.080 -0.1506  0.3100  0.1044
    1AU     LIG  267  11.718   8.178   8.113 -0.0605  0.3179 -0.2774
    1AU     LIG  268  12.110   8.080   7.949 -0.0899 -0.1506  0.2612
    1AU     LIG  269  12.616   8.258   8.147 -0.1820  0.1464 -0.0220
    1AU       S  270  10.236   6.754   7.737 -0.1216 -0.0484  0.1117
    1AU     LIG  271   9.968   6.519   8.046  0.2882  0.0801 -0.1800
    1AU     LIG  272   9.736   6.252   8.247  0.1880  0.1054 -0.0531
    1AU     LIG  273   9.405   5.887   8.299  0.1399 -0.1629  0.0351
    1AU     LIG  274   8.986   5.897   8.350 -0.2295  0.1775  0.1188
    1AU     LIG  275   8.631   5.797   8.536  0.0935 -0.1780 -0.1161
    1AU     LIG  276   8.167   5.678   8.619 -0.2618 -0.3915  0.0177
    1AU    AUSL  277  10.501   8.211   6.784 -0.0129 -0.0123  0.0064
    1AU    AUSL  278  10.442   8.528   7.058  0.0318 -0.0546 -0.0526
    1AU     AUL  279  10.735   8.507   6.722 -0.0698 -0.0237  0.0727
    1AU       S  280  10.596   8.721   7.094 -0.2853  0.2514  0.3941
    1AU     LIG  281  10.462   9.088   7.296 -0.1633 -0.2095  0.0864
    1AU     LIG  282  10.407   9.528   7.384  0.3395 -0.0100  0.0518
    1AU     LIG  283  10.643   9.851   7.476  0.3812  0.5085  0.1401
    1AU     LIG  284  10.948   9.823   7.182 -0.0927  0.2055  0.2561
    1AU     LIG  285  11.384   9.696   7.158 -0.0157 -0.0040 -0.0401
    1AU     LIG  286  11.820   9.860   6.979 -0.2515 -0.1249 -0.4181
    1AU       S  287  10.556   8.706   6.347  0.0766 -0.1086  0.2918
    1AU     LIG  288  10.706   9.026   6.672  0.0679 -0.1530 -0.1560
    1AU     LIG  289  10.584   9.399   6.846 -0.2081 -0.2699 -0.1172
    1AU     LIG  290  10.503   9.896   6.994  0.0924 -0.0384 -0.3631
    1AU     LIG  291  10.359  10.122   7.146  0.0686 -0.0986 -0.2315
    1AU     LIG  292  10.460  10.386   7.532  0.1310  0.4518  0.2091
    1AU     LIG  293  10.710  10.442   7.836 -0.0221 -0.0159  0.0966
    1AU    AUSL  294  10.329   8.227   6.400 -0.0044  0.0243 -0.0310
    1AU    AUSL  295  10.820   7.983   6.743  0.0336 -0.0318  0.0741
    1AU     AUL  296  10.639   8.141   6.432 -0.0265  0.0187  0.0400
    1AU       S  297  10.603   8.564   6.200  0.1880 -0.1362 -0.0736
    1AU     LIG  298  11.086   8.401   6.280  0.1569 -0.3111  0.1181
    1AU     LIG  299  11.475   8.133   6.326  0.2412 -0.5066  0.3236
    1AU     LIG  300  11.773   8.046   6.514  0.0711  0.2195  0.0330
    1AU     LIG  301  12.166   8.321   6.557  0.1843  0.3004 -0.0911
    1AU     LIG  302  12.505   8.588   6.718  0.1829  0.0120 -0.2475
    1AU     LIG  303  12.537   8.692   7.126  0.0804 -0.2279  0.0671
    1AU       S  304  11.034   8.034   6.583 -0.4814 -0.0115  0.1494
    1AU     LIG  305  11.361   7.760   6.621 -0.2052 -0.0078  0.3415
    1AU     LIG  306  11.580   7.411   6.883 -0.1095  0.2629 -0.0027
    1AU     LIG  307  11.937   7.270   6.960  0.1328 -0.1406 -0.0658
    1AU     LIG  308  12.338   7.000   7.118 -0.1471  0.4868  0.2288
    1AU     LIG  309  12.728   7.140   6.895  0.1236  0.1668 -0.3880
    1AU     LIG  310  12.762   7.597   6.730  0.4550 -0.1032 -0.5179
    1AU    AUSL  311  10.264   8.544   6.694 -0.0315  0.0141 -0.0143
    1AU    AUSL  312   9.945   8.360   6.481  0.0480 -0.0784  0.0141
    1AU     AUL  313  10.157   8.431   6.233  0.0418  0.0837 -0.0106
    1AU       S  314   9.956   8.841   6.394 -0.1925 -0.0108  0.0483
    1AU     LIG  315  10.174   9.231   6.393  0.0062 -0.3294  0.1071
    1AU     LIG  316  10.589   9.412   6.374 -0.0865  0.0949  0.3751
    1AU     LIG  317  10.856   9.716   6.579 -0.0725 -0.1694  0.0189
    1AU     LIG  318  11.049  10.046   6.714 -0.0654 -0.2882  0.1026
    1AU     LIG  319  11.007  10.562   6.640  0.1120 -0.3153  0.2750
    1AU     LIG  320  10.770  10.865   6.460 -0.1132 -0.1323  0.0140
    1AU       S  321  10.345   8.694   6.584 -0.3884  0.1612  0.3924
    1AU     LIG  322  10.268   9.024   6.855 -0.1259 -0.1808  0.0616
    1AU     LIG  323  10.088   9.343   6.979 -0.2002 -0.1302 -0.0745
    1AU     LIG  324  10.022   9.738   7.024  0.1223 -0.5905 -0.0939
    1AU     LIG  325   9.871  10.168   7.047  0.3563  0.0317 -0.2115
    1AU     LIG  326   9.562  10.374   7.261  0.0813 -0.0551 -0.5440
    1AU     LIG  327   9.192  10.700   7.273  0.0797  0.0147  0.1106
    1AU    AUSL  328   9.424   7.411   7.514 -0.0998 -0.0159 -0.0208
    1AU    AUSL  329   9.632   7.647   7.801  0.0063 -0.0444 -0.0099
    1AU     AUL  330   9.590   7.413   7.974 -0.0118 -0.0970 -0.0326
    1AU       S  331   9.174   7.244   7.637  0.1242 -0.3311  0.1940
    1AU     LIG  332   8.822   7.078   7.763  0.1615 -0.2531  0.2285
    1AU     LIG  333   8.504   7.149   8.148  0.0695  0.0435  0.0354
    1AU     LIG  334   8.049   7.100   8.283 -0.2838  0.0722 -0.2521
    1AU     LIG  335   7.636   7.051   8.427 -0.2945 -0.0471 -0.2875
    1AU     LIG  336   7.292   7.058   8.256  0.0258  0.0292  0.1920
    1AU     LIG  337   7.030   6.979   7.830  0.1953 -0.2398 -0.0110
    1AU       S  338   9.317   7.759   7.809  0.1600  0.1113  0.2978
    1AU     LIG  339   9.144   7.420   8.128 -0.3158  0.2950  0.2091
    1AU     LIG  340   9.009   7.017   8.261 -0.2424  0.0110 -0.3749
    1AU     LIG  341   8.803   6.694   8.098 -0.2883 -0.3277  0.0914
    1AU     LIG  342   8.582   6.574   7.686  0.0021 -0.2299  0.1821
    1AU     LIG  343   8.364   6.822   7.364  0.1281  0.5446 -0.4626
    1AU     LIG  344   8.022   6.943   7.170 -0.0210 -0.0490  0.0280
    1AU    AUSL  345   9.774   7.331   7.325  0.0597  0.0481  0.0597
    1AU    AUSL  346   9.351   7.324   7.120  0.1504 -0.0892 -0.0282
    1AU     AUL  347   9.520   7.035   7.398  0.0033  0.0033  0.0488
    1AU       S  348   9.272   7.335   7.609 -0.1348  0.1314  0.0708
    1AU     LIG  349   8.824   7.476   7.344  0.1420 -0.1717  0.3157
    1AU     LIG  350   8.476   7.470   7.146  0.1968 -0.1471 -0.1956
    1AU     LIG  351   8.088   7.434   6.953 -0.5359 -0.1578 -0.1012
    1AU     LIG  352   7.878   7.163   6.739  0.1550  0.1413 -0.3680
    1AU     LIG  353   7.458   6.925   6.866  0.3342 -0.0339 -0.2381
    1AU     LIG  354   7.391   6.693   7.236  0.0620 -0.2111 -0.0997
    1AU       S  355   9.138   7.057   7.173  0.5051 -0.0812  0.6871
    1AU     LIG  356   8.850   6.638   7.252  0.1370 -0.4449  0.1180
    1AU     LIG  357   8.648   6.199   7.365 -0.1658  0.2477 -0.1703
    1AU     LIG  358   8.771   5.895   7.656  0.3157 -0.1781 -0.2039
    1AU     LIG  359   9.039   5.647   7.826 -0.0201 -0.3993  0.1957
    1AU     LIG  360   9.406   5.642   7.847  0.5086  0.0722 -0.1942
    1AU     LIG  361   9.710   5.366   7.835 -0.0272 -0.3166 -0.2242
    1AU    AUSL  362   9.554   8.360   6.631 -0.0511  0.0121 -0.0126
    1AU    AUSL  363   9.941   7.989   6.325 -0.0816 -0.0450  0.0243
    1AU     AUL  364   9.619   8.303   6.310  0.0890 -0.0880  0.0960
    1AU       S  365   9.853   8.071   6.020 -0.2243  0.5428 -0.0800
    1AU     LIG  366  10.208   8.194   5.827  0.2131  0.5029  0.2703
    1AU     LIG  367  10.671   8.215   5.884  0.2388 -0.0410 -0.0295
    1AU     LIG  368  10.841   8.588   5.691 -0.1817 -0.2393  0.3745
    1AU     LIG  369  10.994   8.887   5.852 -0.6094 -0.1702  0.3368
    1AU     LIG  370  10.995   8.940   6.274  0.1400  0.0614 -0.4423
    1AU     LIG  371  11.219   8.623   6.708 -0.1087 -0.1085 -0.0836
    1AU       S  372   9.828   8.711   6.441  0.0641 -0.0041 -0.0838
    1AU     LIG  373   9.403   8.910   6.374  0.2346  0.1435  0.1355
    1AU     LIG  374   9.266   9.226   6.514  0.2185  0.0102 -0.0479
    1AU     LIG  375   9.110   9.519   6.811 -0.3147  0.0193 -0.0569
    1AU     LIG  376   8.844  10.028   6.953  0.1498  0.1029 -0.3072
    1AU     LIG  377   8.787  10.546   6.858 -0.2197  0.3214  0.4238
    1AU     LIG  378   8.494  10.660   7.085 -0.1745 -0.0128 -0.3729
    1AU    AUSL  379  10.021   8.286   6.897 -0.0903 -0.0521 -0.0115
    1AU    AUSL  380   9.635   8.383   7.035  0.0537 -0.0966 -0.0246
    1AU     AUL  381   9.631   8.611   6.831  0.1469 -0.0088 -0.0339
    1AU       S  382   9.429   8.884   7.152 -0.2840 -0.7867 -0.1482
    1AU     LIG  383   9.168   9.188   7.175  0.4009  0.2287 -0.0123
    1AU     LIG  384   8.772   9.252   7.013  0.1009  0.1985  0.0820
    1AU     LIG  385   8.295   9.188   7.019  0.3153  0.0686  0.0874
    1AU     LIG  386   7.858   9.322   6.838 -0.1448  0.6068 -0.1260
    1AU     LIG  387   7.393   9.296   6.703  0.2863 -0.1726  0.0884
    1AU     LIG  388   7.020   9.392   6.499 -0.2513 -0.1597 -0.1782
    1AU       S  389   9.887   8.734   6.508 -0.1801 -0.0421 -0.2455
    1AU     LIG  390   9.705   9.133   6.695  0.3599 -0.4723  0.1288
    1AU     LIG  391   9.614   9.463   7.044  0.2990 -0.1058 -0.0123
    1AU     LIG  392   9.333   9.955   7.205 -0.0068 -0.0598  0.0092
    1AU     LIG  393   8.985  10.256   7.385  0.0861 -0.1208  0.4518
    1AU     LIG  394   8.613  10.059   7.417 -0.0615  0.1136  0.1343
    1AU     LIG  395   8.214   9.997   7.316 -0.0241 -0.0076  0.1036
    1AU    AUSL  396  10.665   8.035   7.610  0.0184 -0.0435 -0.0212
    1AU    AUSL  397  10.770   8.263   7.097 -0.0788 -0.0278  0.0423
    1AU     AUL  398  10.803   8.286   7.523  0.0049 -0.0052 -0.0258
    1AU       S  399  10.930   8.478   7.158 -0.0151 -0.5617 -0.2885
    1AU     LIG  400  11.274   8.195   6.976 -0.1899 -0.0407 -0.2126
    1AU     LIG  401  11.655   7.957   6.999 -0.4339 -0.3059  0.0989
    1AU     LIG  402  11.996   7.846   6.907  0.3135  0.2426  0.0120
    1AU     LIG  403  12.361   7.604   7.048 -0.0130 -0.0966  0.0012
    1AU     LIG  404  12.723   7.822   7.207 -0.1006  0.0386  0.1982
    1AU     LIG  405  13.034   7.696   7.164 -0.6644  0.1041 -0.2345
    1AU       S  406  11.052   7.969   7.700  0.1183 -0.0071  0.2592
    1AU     LIG  407  11.483   7.741   7.824  0.4690 -0.3613 -0.2625
    1AU     LIG  408  11.941   7.663   7.838 -0.1875 -0.0389  0.1981
    1AU     LIG  409  12.347   7.283   7.979  0.1199 -0.3713  0.1888
    1AU     LIG  410  12.726   7.027   7.852 -0.0448  0.1145 -0.2336
    1AU     LIG  411  13.063   7.013   7.596 -0.4846  0.0841  0.2273
    1AU     LIG  412  13.448   6.833   7.369 -0.1981  0.2193 -0.0677
    1AU    AUSL  413  10.875   7.901   7.230 -0.1486  0.0413 -0.0049
    1AU    AUSL  414  10.861   7.428   7.185  0.0823  0.0204  0.0133
    1AU     AUL  415  11.176   7.719   7.112 -0.0434  0.0353  0.1022
    1AU       S  416  11.130   7.980   7.507 -0.1982  0.2104  0.5534
    1AU     LIG  417  11.547   8.073   7.451 -0.1175 -0.0601 -0.2827
    1AU     LIG  418  11.794   8.350   7.648  0.2813 -0.1186 -0.0366
    1AU     LIG  419  12.139   8.595   7.665 -0.0651 -0.2133 -0.2007
    1AU     LIG  420  12.283   8.962   7.457  0.2344  0.2359  0.0812
    1AU     LIG  421  12.002   9.281   7.259  0.2702  0.0258 -0.1174
    1AU     LIG  422  11.706   9.428   7.423 -0.0662  0.2321  0.1535
    1AU       S  423  11.140   7.245   7.175 -0.0817  0.3696 -0.1571
    1AU     LIG  424  11.413   7.423   7.427 -0.0473  0.0170 -0.1583
    1AU     LIG  425  11.780   7.635   7.325  0.2288  0.2337  0.3474
    1AU     LIG  426  12.106   7.869   7.420  0.0243  0.2629  0.1356
    1AU     LIG  427  12.440   8.162   7.495 -0.1377  0.0542 -0.3326
    1AU     LIG  428  12.783   8.274   7.396  0.4267  0.1752  0.0246
    1AU     LIG  429  13.009   8.607   7.262 -0.2716  0.4092 -0.2577
    1AU    AUSL  430  10.664   7.641   7.455  0.0646  0.0553 -0.0442
    1AU    AUSL  431  10.315   7.799   7.623  0.0044  0.0228  0.1085
    1AU     AUL  432  10.646   7.757   7.832  0.0675 -0.0461  0.0912
    1AU       S  433  10.383   7.616   8.176 -0.5369  0.2342 -0.2398
    1AU     LIG  434  10.629   7.856   8.458 -0.1890 -0.0960 -0.0936
    1AU     LIG  435  10.975   7.686   8.789  0.2497  0.1702  0.0465
    1AU     LIG  436  11.279   7.550   8.685  0.1779 -0.0379 -0.3495
    1AU     LIG  437  11.223   7.231   8.560 -0.0778  0.1585  0.1908
    1AU     LIG  438  10.831   6.877   8.459 -0.0909 -0.0729 -0.0989
    1AU     LIG  439  10.436   6.690   8.268 -0.0474  0.1936  0.3281
    1AU       S  440  11.037   7.713   7.616  0.0134 -0.2950  0.1525
    1AU     LIG  441  11.030   7.404   7.821 -0.0722 -0.0278  0.2431
    1AU     LIG  442  11.118   7.055   7.662 -0.2760 -0.3702 -0.2126
    1AU     LIG  443  11.449   6.873   7.502 -0.0826  0.1555  0.0947
    1AU     LIG  444  11.726   6.584   7.726 -0.2089 -0.0558 -0.2632
    1AU     LIG  445  11.945   6.157   7.602 -0.2956  0.0802  0.0077
    1AU     LIG  446  12.200   5.769   7.741 -0.1081 -0.3556 -0.0528
    1AU    AUSL  447   9.451   8.192   7.365 -0.0121  0.1427 -0.0370
    1AU    AUSL  448   9.545   7.782   7.418  0.0239 -0.0059 -0.0790
    1AU     AUL  449   9.343   8.219   7.636  0.0571 -0.0546  0.0070
    1AU       S  450   8.958   8.254   7.380 -0.0755  0.0198  0.1676
    1AU     LIG  451   8.796   8.194   7.729 -0.0559  0.0065 -0.2432
    1AU     LIG  452   8.614   7.984   8.039 -0.0346 -0.1866  0.1245
    1AU     LIG  453   8.307   7.748   8.090 -0.0914  0.4109 -0.0651
    1AU     LIG  454   7.967   7.630   7.985 -0.0225 -0.0785 -0.0091
    1AU     LIG  455   7.650   7.388   8.060  0.0923  0.1785 -0.2036
    1AU     LIG  456   7.508   7.028   7.684 -0.1245  0.0629  0.0615
    1AU       S  457   9.137   7.822   7.704 -0.1783  0.0614  0.0858
    1AU     LIG  458   8.769   7.590   7.848 -0.0278 -0.4026 -0.4045
    1AU     LIG  459   8.372   7.401   7.656 -0.2950  0.2051 -0.4659
    1AU     LIG  460   7.892   7.296   7.538  0.1563  0.1557  0.0203
    1AU     LIG  461   7.701   7.272   7.260 -0.3395 -0.3475  0.0979
    1AU     LIG  462   7.366   7.425   6.986 -0.0194 -0.2730 -0.1133
    1AU     LIG  463   7.057   7.557   6.763 -0.0192  0.0583  0.0924
    1AU    AUSL  464   9.320   8.137   6.986  0.0671  0.1080 -0.0581
    1AU    AUSL  465   9.669   8.539   7.404 -0.0492  0.0486  0.0097
    1AU     AUL  466   9.334   8.462   7.185  0.0026 -0.0091  0.0974
    1AU       S  467   8.936   8.222   7.196  0.3310  0.1255 -0.1786
    1AU     LIG  468   8.503   8.331   7.210  0.1875  0.1883 -0.3814
    1AU     LIG  469   8.347   8.691   7.194  0.0173 -0.1719 -0.1904
    1AU     LIG  470   7.900   8.868   7.117 -0.0751  0.3851 -0.5487
    1AU     LIG  471   7.386   8.876   7.025  0.1633 -0.0944 -0.3505
    1AU     LIG  472   7.017   8.752   7.261  0.0328  0.0533 -0.2121
    1AU     LIG  473   6.864   8.417   7.391 -0.2571  0.0681  0.0807
    1AU       S  474   9.627   8.748   7.398  0.0216 -0.1034  0.2847
    1AU     LIG  475   9.476   9.125   7.695 -0.1726  0.1176  0.6786
    1AU     LIG  476   9.019   9.099   7.710  0.0835  0.1242  0.2919
    1AU     LIG  477   8.615   9.122   7.406  0.1137 -0.2807 -0.0680
    1AU     LIG  478   8.391   9.521   7.352  0.1432 -0.1074  0.1311
    1AU     LIG  479   7.958   9.575   7.281  0.1526 -0.0306 -0.0247
    1AU     LIG  480   7.518   9.401   7.247 -0.1985 -0.1939 -0.0504
    1AU    AUSL  481   9.185   7.834   7.240 -0.0885 -0.0385 -0.1208
    1AU    AUSL  482   9.320   7.910   6.650  0.0316  0.0681 -0.0826
    1AU     AUL  483   9.102   8.091   6.811 -0.0316 -0.0226  0.0180
    1AU       S  484   8.977   7.698   6.529 -0.0730  0.0840 -0.0202
    1AU     LIG  485   8.690   8.136   6.465  0.3776  0.0365  0.2930
    1AU     LIG  486   8.736   8.417   6.767 -0.2047  0.2355 -0.0085
    1AU     LIG  487   8.546   8.809   6.784  0.4473  0.5249 -0.1036
    1AU     LIG  488   8.106   8.897   6.680 -0.1341  0.2036 -0.2968
    1AU     LIG  489   7.679   8.900   6.588  0.1260  0.4475 -0.4279
    1AU     LIG  490   7.247   8.825   6.459  0.0781  0.0076 -0.5602
    1AU       S  491   9.004   7.913   7.259  0.3203 -0.0548 -0.1372
    1AU     LIG  492   8.493   7.882   7.445 -0.2293 -0.0981  0.0005
    1AU     LIG  493   8.149   8.013   7.636  0.1980 -0.0595 -0.0122
    1AU     LIG  494   7.904   8.326   7.381  0.3414  0.0117 -0.0422
    1AU     LIG  495   7.677   8.375   7.001  0.1779  0.3418  0.0264
    1AU     LIG  496   7.371   8.379   6.630  0.4060 -0.1379  0.1159
    1AU     LIG  497   7.407   8.419   6.242 -0.0528 -0.2482  0.1588
    1AU    AUSL  498  10.686   7.347   6.788  0.0258  0.0466  0.0438
    1AU    AUSL  499  10.473   7.316   7.165  0.0144  0.0332 -0.0427
    1AU     AUL  500  10.699   7.083   6.932 -0.0350 -0.0021  0.0593
    1AU       S  501  11.138   7.228   6.837  0.2569  0.1564 -0.2439
    1AU     LIG  502  11.433   6.881   6.782  0.0695 -0.1267  0.3183
    1AU     LIG  503  11.871   6.659   6.853  0.3117 -0.2463 -0.1224
    1AU     LIG  504  12.171   6.458   7.126 -0.1483 -0.0351  0.0120
    1AU     LIG  505  12.208   5.986   7.255 -0.0931  0.0416 -0.0355
    1AU     LIG  506  12.388   5.516   7.231  0.1540  0.0392 -0.0323
    1AU     LIG  507  12.481   5.073   7.461 -0.1366 -0.3562 -0.4589
    1AU       S  508  10.375   6.795   7.152  0.1068 -0.1696  0.1247
    1AU     LIG  509  10.689   6.479   7.428 -0.0027  0.1141  0.0787
    1AU     LIG  510  10.971   6.092   7.519 -0.1147  0.0974  0.0529
    1AU     LIG  511  11.398   6.135   7.499  0.1029 -0.3308 -0.1751
    1AU     LIG  512  11.639   6.419   7.240 -0.0435 -0.0854  0.1151
    1AU     LIG  513  11.906   6.846   7.296 -0.0921 -0.1384 -0.1571
    1AU     LIG  514  12.110   7.303   7.441  0.0010  0.1110  0.1528
    1AU    AUSL  515  10.626   7.706   6.983  0.0018 -0.0064 -0.0147
    1AU    AUSL  516  10.689   7.654   6.528  0.1026 -0.1428 -0.0332
    1AU     AUL  517  10.937   7.598   6.758 -0.0062  0.0073 -0.0052
    1AU       S  518  10.977   7.303   7.192 -0.2468 -0.2233  0.0475
    1AU     LIG  519  10.971   6.754   7.092  0.4487 -0.1076 -0.1115
    1AU     LIG  520  11.205   6.286   7.113  0.3181  0.0125 -0.1228
    1AU     LIG  521  11.188   5.934   6.994 -0.0102 -0.3994 -0.1487
    1AU     LIG  522  10.884   5.971   6.637 -0.1110  0.2043  0.0025
    1AU     LIG  523  10.518   5.951   6.328  0.1903  0.2447  0.2726
    1AU     LIG  524  10.362   6.157   5.883  0.0104  0.1784  0.0090
    1AU       S  525  10.943   7.710   6.321 -0.4432  0.3670  0.3951
    1AU     LIG  526  11.081   7.299   6.236 -0.2052  0.2314 -0.1818
    1AU     LIG  527  11.407   7.265   6.440 -0.0413 -0.3422  0.2857
    1AU     LIG  528  11.812   7.070   6.469 -0.4880 -0.0138 -0.3329
    1AU     LIG  529  12.266   7.055   6.631  0.1174  0.1517 -0.0950
    1AU     LIG  530  12.473   6.631   6.765 -0.3119 -0.0400  0.1141
    1AU     LIG  531  12.561   6.223   6.870 -0.1433 -0.4617 -0.0228
    1AU    AUSL  532   9.413   7.498   6.619  0.0449  0.0805  0.0727
    1AU    AUSL  533   9.723   7.990   6.656 -0.1494 -0.0065  0.1056
    1AU     AUL  534   9.387   7.896   6.384 -0.0818  0.0412 -0.0584
    1AU       S  535   9.588   7.998   5.985 -0.2218  0.4494  0.3963
    1AU     LIG  536   9.278   7.965   5.614  0.2308  0.0413  0.0882
    1AU     LIG  537   9.425   7.818   5.268  0.2992 -0.1250 -0.0895
    1AU     LIG  538   9.759   8.077   4.987  0.1113 -0.3112 -0.0086
    1AU     LIG  539   9.936   8.494   4.840  0.1496  0.1546 -0.0255
    1AU     LIG  540  10.311   8.598   4.744  0.0481 -0.0394 -0.3785
    1AU     LIG  541  10.587   8.844   4.511  0.2451 -0.0727  0.1794
    1AU       S  542   9.063   7.620   6.624 -0.2242 -0.4166 -0.0130
    1AU     LIG  543   8.802   7.181   6.774  0.1981 -0.1334 -0.2736
    1AU     LIG  544   8.542   6.826   6.890 -0.3025  0.2347 -0.0371
    1AU     LIG  545   8.467   6.404   6.842 -0.3938  0.1983  0.0914
    1AU     LIG  546   8.334   6.030   6.900 -0.1571 -0.2595  0.3588
    1AU     LIG  547   8.100   5.716   6.650  0.1821  0.2364  0.4990
    1AU     LIG  548   8.158   5.277   6.543  0.1134  0.0436  0.1081
    1AU    AUSL  549   9.452   7.688   6.976 -0.0593  0.0162 -0.0519
    1AU    AUSL  550   9.693   7.355   6.886 -0.0225 -0.0407  0.0349
    1AU     AUL  551   9.340   7.270   6.766  0.0436  0.0168  0.0260
    1AU       S  552   8.984   7.608   6.832 -0.0836  0.1537 -0.1983
    1AU     LIG  553   8.612   7.915   6.889 -0.1291 -0.0661  0.2507
    1AU     LIG  554   8.197   7.999   7.036 -0.2441 -0.1596  0.2919
    1AU     LIG  555   7.869   7.737   7.286 -0.0629  0.4079 -0.0692
    1AU     LIG  556   7.490   7.592   7.528  0.0425  0.3179 -0.1501
    1AU     LIG  557   7.261   7.584   7.847  0.3569  0.1794  0.1789
    1AU     LIG  558   7.035   7.623   8.098 -0.0827  0.2944  0.0161
    1AU       S  559   9.240   6.886   6.944 -0.0846  0.1821 -0.3105
    1AU     LIG  560   9.002   6.474   6.792 -0.2508 -0.1722 -0.3120
    1AU     LIG  561   8.759   6.017   6.584 -0.2548  0.5230 -0.0279
    1AU     LIG  562   8.640   5.643   6.774 -0.1537  0.6555  0.0196
    1AU     LIG  563   8.329   5.551   7.073  0.0768  0.2832 -0.0796
    1AU     LIG  564   8.226   5.861   7.455 -0.1400  0.1043  0.1933
    1AU     LIG  565   8.275   6.085   7.744 -0.3972 -0.3869 -0.1139
    2POPC   NC3  566   1.960   5.009   9.507  0.0489 -0.0293 -0.0947
    2POPC   PO4  567   1.991   5.488   9.441  0.1173 -0.3032  0.1740
    2POPC   GL1  568   2.124   5.321   9.025 -0.1096  0.0395  0.1029
    2POPC   GL2  569   2.388   5.414   8.900 -0.0686 -0.0233  0.0436
    2POPC   C1A  570   1.847   5.565   8.840  0.1788  0.0643 -0.1295
    2POPC   D2A  571   1.343   5.772   8.819 -0.1476  0.0690  0.1374
    2POPC   C3A  572   1.002   5.599   8.589  0.0028 -0.1296  0.1157
    2POPC   C4A  573   0.850   5.517   8.195 -0.0019 -0.0037 -0.1949
    2POPC   C1B  574   2.292   5.704   8.569  0.0775  0.3208 -0.2601
    2POPC   C2B  575   2.382   5.707   8.068 -0.0040  0.0988  0.2903
    2POPC   C3B  576   2.558   5.483   7.631  0.0740  0.0797  0.0778
    2POPC   C4B  577   2.637   5.346   7.145  0.0218  0.2200  0.0570
    3POPC   NC3  578   3.626   0.885   8.855  0.1054 -0.1378 -0.0133
    3POPC   PO4  579   3.485   1.239   9.000 -0.3245  0.0492  0.3826
    3POPC   GL1  580   3.595   1.194   8.457  0.0439 -0.1331  0.0156
    3POPC   GL2  581   3.241   1.335   8.270 -0.2990  0.0635 -0.2093
    3POPC   C1A  582   3.831   1.221   8.141 -0.1889 -0.0877 -0.3837
    3POPC   D2A  583   3.887   0.923   7.793  0.0903  0.0615 -0.0224
    3POPC   C3A  584   4.041   1.003   7.462  0.2529 -0.0430 -0.2076
    3POPC   C4A  585   4.421   1.021   7.233 -0.3221 -0.1558 -0.1007
    3POPC   C1B  586   3.033   1.170   7.975  0.0525 -0.1321 -0.1813
    3POPC   C2B  587   2.958   1.197   7.591 -0.1381 -0.4398  0.1912
    3POPC   C3B  588   2.757   1.134   7.270 -0.0104 -0.1326 -0.0443
    3POPC   C4B  589   2.730   0.786   6.954 -0.5980  0.1253  0.1341
    4POPC   NC3  590  10.013   2.252   8.831 -0.0326 -0.1425 -0.0232
    4POPC   PO4  591  10.461   2.265   8.597  0.0816  0.2015 -0.0540
    4POPC   GL1  592  10.166   2.418   8.409  0.1030  0.1977 -0.1359
    4POPC   GL2  593   9.927   2.205   8.360 -0.0132  0.1090  0.1334
    4POPC   C1A  594  10.284   2.474   7.973  0.0477  0.0457 -0.1365
    4POPC   D2A  595  10.113   2.461   7.589  0.3165  0.3886  0.6253
    4POPC   C3A  596   9.732   2.783   7.476  0.0533  0.0263  0.0557
    4POPC   C4A  597   9.901   3.093   7.340  0.2484 -0.1667 -0.1708
    4POPC   C1B  598   9.960   2.086   7.878 -0.0247  0.1677  0.0081
    4POPC   C2B  599   9.642   2.144   7.565  0.1604  0.0896  0.0408
    4POPC   C3B  600   9.370   2.253   7.222  0.2499  0.1180  0.0116
    4POPC   C4B  601   9.078   2.432   6.799 -0.0939  0.0888 -0.2511
    5POPC   NC3  602   4.650   3.353   8.961 -0.1884  0.0705  0.1954
    5POPC   PO4  603   4.529   3.845   8.873  0.1362 -0.0750  0.1810
    5POPC   GL1  604   4.639   3.792   8.482  0.0447 -0.0084  0.1729
    5POPC   GL2  605   4.332   3.916   8.294  0.1897  0.0263  0.0033
    5POPC   C1A  606   4.855   3.997   8.148  0.0460  0.2581  0.1160
    5POPC   D2A  607   5.280   3.847   7.905  0.2511 -0.1427 -0.0435
    5POPC   C3A  608   5.302   3.783   7.474  0.2223 -0.1114  0.0650
    5POPC   C4A  609   5.151   3.702   7.073 -0.3672 -0.1192 -0.2757
    5POPC   C1B  610   4.358   4.121   7.864  0.1361 -0.1940 -0.0904
    5POPC   C2B  611   4.584   4.415   7.601  0.1162 -0.5038 -0.0640
    5POPC   C3B  612   4.551   4.721   7.269  0.2101 -0.1564 -0.2305
    5POPC   C4B  613   4.438   4.983   7.203  0.0954  0.1559  0.3335
    6POPC   NC3  614   4.633   6.988   9.498 -0.1060 -0.0739 -0.1112
    6POPC   PO4  615   4.440   6.689   9.261 -0.1000  0.0796 -0.1254
    6POPC   GL1  616   4.329   6.832   8.843 -0.1075  0.0116 -0.0659
    6POPC   GL2  617   3.971   6.920   8.863 -0.1660  0.3101  0.2978
    6POPC   C1A  618   4.235   6.868   8.444 -0.3459  0.0317 -0.1945
    6POPC   D2A  619   4.081   7.012   7.971 -0.2724  0.1201 -0.1263
    6POPC   C3A  620   3.915   7.122   7.546 -0.0327 -0.0413  0.1012
    6POPC   C4A  621   3.451   7.257   7.487 -0.2211  0.0717 -0.0206
    6POPC   C1B  622   3.869   7.214   8.505 -0.2099  0.0377  0.1835
    6POPC   C2B  623   3.853   7.436   8.085 -0.0292 -0.0560  0.1070
    6POPC   C3B  624   3.944   7.744   7.850  0.4948 -0.2434  0.1747
    6POPC   C4B  625   4.057   8.114   7.585 -0.0330 -0.1395  0.0431
    7POPC   NC3  626   3.658   9.548   9.196 -0.2618 -0.1058 -0.1588
    7POPC   PO4  627   3.452   9.363   8.854 -0.2614 -0.0729 -0.0965
    7POPC   GL1  628   3.303   9.398   8.490  0.2389  0.1723 -0.1637
    7POPC   GL2  629   2.996   9.374   8.499 -0.0059  0.3021  0.1581
    7POPC   C1A  630   3.266   9.406   8.070 -0.1520 -0.0535  0.2611
    7POPC   D2A  631   2.899   9.412   7.676 -0.1821 -0.1391  0.2017
    7POPC   C3A  632   3.142   9.611   7.285 -0.0326  0.0221  0.0309
    7POPC   C4A  633   3.341   9.730   6.873  0.2870 -0.0591 -0.1660
    7POPC   C1B  634   2.794   9.678   8.360  0.0952 -0.0689 -0.3364
    7POPC   C2B  635   2.735   9.851   7.969 -0.1058  0.1127 -0.0598
    7POPC   C3B  636   2.645   9.869   7.503 -0.2488  0.0690  0.2876
    7POPC   C4B  637   2.632   9.673   7.082 -0.2717 -0.2348 -0.1057
    8POPC   NC3  638   9.512   3.967   9.577  0.0853 -0.0377 -0.1459
    8POPC   PO4  639   9.878   3.907   9.343 -0.0980  0.0653 -0.2488
    8POPC   GL1  640   9.923   3.752   8.928 -0.1865 -0.1022  0.2108
    8POPC   GL2  641   9.666   3.743   8.830  0.0532  0.0782  0.2314
    8POPC   C1A  642  10.036   3.908   8.480 -0.3371 -0.2191 -0.0653
    8POPC   D2A  643   9.906   4.290   8.263  0.1464 -0.0996  0.3612
    8POPC   C3A  644  10.086   4.631   8.158  0.1576  0.0817 -0.2082
    8POPC   C4A  645  10.313   4.873   8.280 -0.1007  0.3196  0.0357
    8POPC   C1B  646   9.437   4.130   8.635  0.3269  0.0731  0.1966
    8POPC   C2B  647   9.388   4.475   8.359 -0.2035  0.0513 -0.4637
    8POPC   C3B  648   9.071   4.643   8.074  0.1258  0.0487  0.0426
    8POPC   C4B  649   9.052   4.685   7.598  0.1127 -0.1287 -0.4662
    9POPC   NC3  650   5.265  10.196   8.930 -0.3306 -0.0926 -0.2342
    9POPC   PO4  651   5.016   9.850   9.053 -0.1331  0.1840 -0.1812
    9POPC   GL1  652   5.086   9.901   8.559  0.0835  0.2518 -0.0798
    9POPC   GL2  653   5.380  10.166   8.457  0.1430 -0.3084  0.2486
    9POPC   C1A  654   5.168   9.788   8.201 -0.1270 -0.0345  0.2092
    9POPC   D2A  655   5.243   9.901   7.909 -0.2628  0.0125 -0.2941
    9POPC   C3A  656   4.876  10.060   7.600  0.2592 -0.0457 -0.0558
    9POPC   C4A  657   4.496  10.271   7.454  0.0833 -0.0403 -0.1294
    9POPC   C1B  658   5.762  10.238   8.220  0.1460  0.1015  0.1882
    9POPC   C2B  659   5.770  10.221   7.787  0.1957  0.1687  0.1349
    9POPC   C3B  660   5.952  10.156   7.519  0.0243  0.1169 -0.0786
    9POPC   C4B  661   6.337   9.993   7.215 -0.0032  0.1650 -0.1300
   10POPC   NC3  662   7.837   9.161   9.724  0.1220  0.0554  0.0625
   10POPC   PO4  663   7.625   9.404   9.485  0.0445 -0.2044 -0.1810
   10POPC   GL1  664   7.595   9.065   9.169 -0.2879  0.2810 -0.1657
   10POPC   GL2  665   7.383   9.168   8.880  0.1277 -0.1772 -0.0933
   10POPC   C1A  666   7.379   8.699   9.014  0.1998  0.3200  0.1845
   10POPC   D2A  667   7.034   8.802   8.661 -0.1223 -0.0692 -0.5470
   10POPC   C3A  668   7.137   8.740   8.246  0.0485  0.2096  0.0819
   10POPC   C4A  669   7.008   8.722   7.840 -0.0234  0.2532  0.0797
   10POPC   C1B  670   7.552   8.784   8.591 -0.1663 -0.0180  0.3124
   10POPC   C2B  671   7.512   8.371   8.392 -0.0916  0.0836  0.3905
   10POPC   C3B  672   7.400   8.297   7.968 -0.0421  0.2610 -0.1547
   10POPC   C4B  673   7.561   8.039   7.807  0.4527 -0.0200 -0.1862
   11POPC   NC3  674   2.033   3.728   8.947 -0.2561 -0.1297  0.2524
   11POPC   PO4  675   1.796   3.519   8.825 -0.1666  0.3941 -0.1225
   11POPC   GL1  676   1.691   3.720   8.494 -0.3310  0.1358  0.1238
   11POPC   GL2  677   1.651   4.013   8.624  0.0946 -0.1434  0.1519
   11POPC   C1A  678   1.526   3.789   8.075 -0.1636  0.3242 -0.4150
   11POPC   D2A  679   1.570   3.553   7.718  0.2076  0.3347  0.0976
   11POPC   C3A  680   1.380   3.313   7.394 -0.0176 -0.2215 -0.0933
   11POPC   C4A  681   1.348   3.473   7.008 -0.0194  0.2004  0.1627
   11POPC   C1B  682   1.619   4.329   8.319  0.0731 -0.0203 -0.0114
   11POPC   C2B  683   1.648   4.442   7.887 -0.3230 -0.0181 -0.1195
   11POPC   C3B  684   1.648   4.275   7.423  0.0227  0.1357 -0.4169
   11POPC   C4B  685   1.657   3.835   7.299  0.2548  0.2182 -0.2959
   12POPC   NC3  686   5.045   2.782   9.213 -0.0784  0.0604 -0.1188
   12POPC   PO4  687   5.371   3.058   9.138  0.2969 -0.0237  0.1053
   12POPC   GL1  688   5.378   2.923   8.691  0.3125  0.0059 -0.1259
   12POPC   GL2  689   5.076   3.104   8.650 -0.0387 -0.0791  0.2679
   12POPC   C1A  690   5.487   3.017   8.308 -0.1260  0.0358 -0.1331
   12POPC   D2A  691   5.542   3.352   8.002  0.2234 -0.0341 -0.2398
   12POPC   C3A  692   5.549   3.390   7.558  0.0549 -0.1981  0.0129
   12POPC   C4A  693   5.429   3.279   7.159  0.0933  0.0949 -0.1413
   12POPC   C1B  694   4.944   2.709   8.423 -0.1358 -0.0838 -0.1165
   12POPC   C2B  695   4.796   2.750   7.920  0.2020 -0.0333 -0.2554
   12POPC   C3B  696   4.965   3.030   7.596  0.0368  0.0154  0.1179
   12POPC   C4B  697   4.931   3.456   7.433  0.0404  0.4284 -0.1357
   13POPC   NC3  698   0.425   9.340  10.391  0.0645  0.0727  0.1539
   13POPC   PO4  699   0.240   9.363  10.015  0.3087  0.2061  0.0306
   13POPC   GL1  700   0.397   9.170   9.713  0.1747 -0.1314  0.0002
   13POPC   GL2  701   0.212   8.967   9.685  0.1030 -0.2428 -0.4594
   13POPC   C1A  702   0.743   9.130   9.439  0.0318  0.1716 -0.0128
   13POPC   D2A  703   1.012   9.137   9.058 -0.0258 -0.0020 -0.2908
   13POPC   C3A  704   1.406   9.458   8.957 -0.2257  0.2727 -0.0821
   13POPC   C4A  705   1.868   9.434   8.816  0.1813  0.0760 -0.0667
   13POPC   C1B  706   0.141   8.751   9.364 -0.0910 -0.1996 -0.3749
   13POPC   C2B  707  -0.144   8.573   9.006 -0.2753 -0.0261 -0.1080
   13POPC   C3B  708  -0.373   8.358   8.734 -0.3365  0.3003  0.0535
   13POPC   C4B  709  -0.769   8.228   8.571 -0.0612 -0.0947 -0.1776
   14POPC   NC3  710   5.454   3.625   9.236  0.1870  0.0810  0.2631
   14POPC   PO4  711   5.759   3.832   9.001  0.1304  0.0314 -0.0397
   14POPC   GL1  712   5.650   3.648   8.634  0.1166 -0.0047 -0.0715
   14POPC   GL2  713   5.867   3.300   8.538  0.0351  0.1755  0.5584
   14POPC   C1A  714   5.327   3.561   8.350  0.2062  0.1113  0.0117
   14POPC   D2A  715   4.971   3.190   8.177 -0.0833 -0.2438 -0.1225
   14POPC   C3A  716   4.767   3.471   7.918 -0.1795  0.0169 -0.3195
   14POPC   C4A  717   4.804   3.866   7.663 -0.3717  0.4845 -0.0198
   14POPC   C1B  718   5.970   3.188   8.179  0.1147 -0.2685  0.0180
   14POPC   C2B  719   6.113   3.324   7.853 -0.1882  0.1734 -0.0724
   14POPC   C3B  720   6.245   3.453   7.509 -0.1150  0.0536  0.0719
   14POPC   C4B  721   6.437   3.219   7.115 -0.0654 -0.1023 -0.1837
   15POPC   NC3  722   0.228   7.387  10.389 -0.1083 -0.2146  0.2632
   15POPC   PO4  723  -0.060   7.739  10.277  0.0561 -0.2074  0.0605
   15POPC   GL1  724  -0.218   7.919  10.009  0.2047  0.0097  0.3236
   15POPC   GL2  725   0.037   8.018   9.831 -0.0120 -0.0752 -0.2742
   15POPC   C1A  726  -0.392   7.802   9.613 -0.0128  0.4033  0.1858
   15POPC   D2A  727  -0.799   7.732   9.346  0.1020 -0.0399 -0.1128
   15POPC   C3A  728  -1.041   7.383   9.424 -0.2175  0.2083  0.2557
   15POPC   C4A  729  -1.194   7.234   9.183 -0.1015 -0.0460  0.1632
   15POPC   C1B  730  -0.097   8.291   9.604 -0.0241 -0.0545 -0.0722
   15POPC   C2B  731   0.149   8.211   9.243 -0.0891 -0.1296 -0.2660
   15POPC   C3B  732   0.199   8.205   8.905 -0.0065  0.1542  0.3217
   15POPC   C4B  733   0.565   8.237   8.773 -0.0284 -0.0501  0.2202
   16POPC   NC3  734   6.752   6.858   9.343 -0.2224 -0.0083  0.0791
   16POPC   PO4  735   6.343   6.812   9.030 -0.0236 -0.1977  0.2688
   16POPC   GL1  736   6.600   6.843   8.635  0.3242  0.0553  0.0205
   16POPC   GL2  737   6.855   6.841   8.811 -0.1773  0.0511 -0.2139
   16POPC   C1A  738   6.565   6.822   8.172  0.2615  0.0008 -0.4507
   16POPC   D2A  739   6.464   6.763   7.785  0.1055 -0.0741  0.0549
   16POPC   C3A  740   6.699   7.083   7.476  0.3866 -0.0885  0.0782
   16POPC   C4A  741   7.169   7.176   7.347  0.2967 -0.0360  0.0225
   16POPC   C1B  742   7.212   6.795   8.700  0.1443  0.1617 -0.0683
   16POPC   C2B  743   7.566   6.608   8.370  0.1060 -0.0198  0.0820
   16POPC   C3B  744   7.804   6.706   7.986  0.0684 -0.0680 -0.5018
   16POPC   C4B  745   8.161   6.945   7.825 -0.0287 -0.0090 -0.0693
   17POPC   NC3  746   1.548   3.852   9.084 -0.0395  0.1128 -0.1915
   17POPC   PO4  747   1.682   4.280   9.031  0.0765  0.0191 -0.1554
   17POPC   GL1  748   1.394   4.526   8.760 -0.0876 -0.3633 -0.0990
   17POPC   GL2  749   1.078   4.602   8.715  0.1221  0.0463 -0.4207
   17POPC   C1A  750   1.349   4.771   8.386  0.3657  0.0961 -0.1528
   17POPC   D2A  751   1.255   4.723   7.897  0.0581 -0.0709  0.2174
   17POPC   C3A  752   1.587   4.903   7.586  0.0152 -0.1854 -0.4928
   17POPC   C4A  753   1.811   5.284   7.532 -0.2818 -0.0400  0.0363
   17POPC   C1B  754   0.851   4.584   8.334  0.2590 -0.1579 -0.2701
   17POPC   C2B  755   0.654   4.937   8.206  0.1083  0.0067  0.0970
   17POPC   C3B  756   0.642   5.163   7.831  0.2000  0.2054  0.0774
   17POPC   C4B  757   0.571   5.505   7.670  0.1108  0.0307 -0.1650
   18POPC   NC3  758   7.103  10.161   9.214 -0.3536  0.3557 -0.0258
   18POPC   PO4  759   6.821  10.500   9.030  0.0324  0.0171  0.0849
   18POPC   GL1  760   7.043  10.177   8.682 -0.1408 -0.1584  0.1665
   18POPC   GL2  761   7.396  10.220   8.535  0.1974 -0.1412  0.1449
   18POPC   C1A  762   6.934   9.780   8.486  0.1267  0.0778  0.0855
   18POPC   D2A  763   7.017   9.645   8.074 -0.0393 -0.2615 -0.2682
   18POPC   C3A  764   7.162   9.549   7.661 -0.0907  0.1150  0.0837
   18POPC   C4A  765   7.017   9.221   7.366 -0.2588 -0.0680 -0.0793
   18POPC   C1B  766   7.603  10.321   8.160  0.2146 -0.3498  0.0256
   18POPC   C2B  767   7.830  10.554   7.821  0.1334  0.2093  0.0605
   18POPC   C3B  768   7.765  10.477   7.333 -0.0692  0.2501 -0.1646
   18POPC   C4B  769   7.693  10.079   7.115 -0.0611  0.1364 -0.2639
   19POPC   NC3  770   5.865   2.137   9.260 -0.1067 -0.1358  0.0665
   19POPC   PO4  771   5.722   1.748   9.043 -0.2109 -0.0685  0.0687
   19POPC   GL1  772   5.708   1.491   8.614  0.0017 -0.1172  0.0439
   19POPC   GL2  773   5.483   1.701   8.418  0.1605  0.0816 -0.3772
   19POPC   C1A  774   5.882   1.563   8.085 -0.2217  0.1316  0.1019
   19POPC   D2A  775   5.770   1.845   7.784  0.0754 -0.0060 -0.0982
   19POPC   C3A  776   6.008   1.908   7.425  0.0881 -0.2211 -0.4972
   19POPC   C4A  777   6.183   1.512   7.299  0.0157 -0.3567  0.0448
   19POPC   C1B  778   5.361   2.025   8.207  0.0878 -0.3436  0.0327
   19POPC   C2B  779   5.426   2.218   7.747 -0.0600  0.0154  0.1113
   19POPC   C3B  780   5.471   2.224   7.318  0.2092  0.3446 -0.1199
   19POPC   C4B  781   5.220   2.345   7.003  0.3498 -0.2594 -0.0929
   20POPC   NC3  782   0.336   9.976   9.823 -0.1873  0.1337  0.0868
   20POPC   PO4  783   0.101  10.143   9.638  0.2512  0.0426  0.1913
   20POPC   GL1  784  -0.083   9.703   9.678  0.1420 -0.1301 -0.1132
   20POPC   GL2  785  -0.372   9.702   9.508  0.2395 -0.2188  0.4286
   20POPC   C1A  786  -0.073   9.352   9.421  0.1099  0.1426  0.1247
   20POPC   D2A  787   0.206   9.190   9.075  0.0065  0.2161 -0.3553
   20POPC   C3A  788   0.198   9.214   8.658  0.1956 -0.1328 -0.1136
   20POPC   C4A  789   0.091   9.115   8.327 -0.0270 -0.0815 -0.1185
   20POPC   C1B  790  -0.359   9.874   9.166 -0.0353 -0.2012 -0.3055
   20POPC   C2B  791  -0.612   9.720   8.785 -0.1571  0.0870 -0.2716
   20POPC   C3B  792  -0.910   9.486   8.566 -0.1727 -0.0073 -0.1205
   20POPC   C4B  793  -1.139   9.471   8.229 -0.1544 -0.0828  0.2280
   21POPC   NC3  794   0.530   4.026   9.236  0.2901  0.4759 -0.0148
   21POPC   PO4  795   1.054   3.977   9.312  0.2272  0.2786  0.3004
   21POPC   GL1  796   0.941   4.163   8.947 -0.0545 -0.2369 -0.0969
   21POPC   GL2  797   1.162   4.020   8.814 -0.2025 -0.1431  0.0246
   21POPC   C1A  798   0.726   4.028   8.554 -0.1217  0.1846  0.0581
   21POPC   D2A  799   0.841   3.944   8.118  0.3171  0.0716  0.2782
   21POPC   C3A  800   0.421   4.123   7.825 -0.0019 -0.1604 -0.3736
   21POPC   C4A  801   0.002   4.173   7.689 -0.2582 -0.3054 -0.2211
   21POPC   C1B  802   1.157   4.230   8.414  0.2505 -0.1186  0.0264
   21POPC   C2B  803   1.222   4.180   7.845 -0.2331  0.2307  0.1379
   21POPC   C3B  804   1.145   4.298   7.438  0.2040 -0.2282 -0.1173
   21POPC   C4B  805   1.087   4.638   7.231  0.0642  0.0950 -0.0030
   22POPC   NC3  806   8.682   0.482   9.216 -0.0643 -0.0296 -0.3236
   22POPC   PO4  807   8.979   0.298   9.043 -0.0621  0.2377 -0.0972
   22POPC   GL1  808   9.146   0.343   8.704 -0.1041 -0.1064  0.1400
   22POPC   GL2  809   9.325   0.669   8.653  0.0028  0.0184 -0.1071
   22POPC   C1A  810   9.238   0.240   8.349  0.0269 -0.1214  0.0031
   22POPC   D2A  811   9.210   0.424   7.902  0.1429  0.1164 -0.0752
   22POPC   C3A  812   8.647   0.481   7.829  0.1270  0.1037 -0.0077
   22POPC   C4A  813   8.275   0.275   7.541 -0.0523 -0.0591  0.1193
   22POPC   C1B  814   9.560   0.760   8.231 -0.1120  0.0937  0.4058
   22POPC   C2B  815   9.507   0.797   7.756 -0.0242 -0.3019  0.1795
   22POPC   C3B  816   9.659   0.728   7.357 -0.1570 -0.0547  0.2624
   22POPC   C4B  817   9.728   0.659   6.967  0.1736 -0.0630 -0.1326
   23POPC   NC3  818   3.209   9.126   9.790 -0.0779 -0.1654 -0.0932
   23POPC   PO4  819   3.062   8.917   9.414 -0.2906  0.2200  0.1249
   23POPC   GL1  820   3.016   8.961   9.023 -0.4899  0.0754 -0.0682
   23POPC   GL2  821   2.762   8.848   8.897 -0.0096 -0.0845  0.0271
   23POPC   C1A  822   3.175   8.830   8.576 -0.2423  0.2784 -0.2401
   23POPC   D2A  823   2.995   9.024   8.162  0.0736 -0.0865  0.2580
   23POPC   C3A  824   2.852   8.896   7.751 -0.0770  0.0020 -0.0608
   23POPC   C4A  825   2.447   8.693   7.690  0.0855 -0.1270  0.0915
   23POPC   C1B  826   2.359   8.695   8.752 -0.4073  0.0427  0.2141
   23POPC   C2B  827   2.026   8.428   8.470  0.0142  0.2377  0.0793
   23POPC   C3B  828   1.806   8.009   8.450 -0.2701 -0.2834 -0.1539
   23POPC   C4B  829   1.897   7.652   8.370  0.2167 -0.2248 -0.3268
   24POPC   NC3  830   5.498   4.571   9.101  0.3927 -0.3232  0.0041
   24POPC   PO4  831   5.096   4.556   8.908  0.2226 -0.0436  0.1634
   24POPC   GL1  832   5.281   4.397   8.548 -0.1756  0.0935 -0.0548
   24POPC   GL2  833   5.311   4.695   8.369 -0.0325 -0.0364  0.0468
   24POPC   C1A  834   5.372   4.211   8.202  0.0397  0.3921 -0.1034
   24POPC   D2A  835   5.588   4.236   7.746  0.1127  0.1936 -0.1303
   24POPC   C3A  836   5.454   4.422   7.398  0.3323  0.1915 -0.1801
   24POPC   C4A  837   5.194   4.490   7.027 -0.1261  0.1613  0.0397
   24POPC   C1B  838   4.901   4.461   8.227  0.0986 -0.2920 -0.1487
   24POPC   C2B  839   4.479   4.434   8.257  0.1284 -0.1301  0.3399
   24POPC   C3B  840   4.115   4.422   8.288 -0.0548 -0.1146  0.2530
   24POPC   C4B  841   3.780   4.319   8.274  0.3231 -0.1341  0.0506
   25POPC   NC3  842   6.956   5.153   9.554  0.2862 -0.2384 -0.4386
   25POPC   PO4  843   7.352   5.154   9.413 -0.0002 -0.0013  0.4713
   25POPC   GL1  844   7.443   5.079   9.013  0.2618  0.1887  0.1069
   25POPC   GL2  845   7.218   5.034   8.703 -0.0003 -0.3593 -0.1016
   25POPC   C1A  846   7.818   4.919   8.819 -0.1181  0.3913  0.0468
   25POPC   D2A  847   8.069   5.079   8.589 -0.1752 -0.0304 -0.0364
   25POPC   C3A  848   8.250   4.851   8.214 -0.2921 -0.2384  0.0548
   25POPC   C4A  849   8.611   4.778   7.896 -0.1330  0.1962 -0.1568
   25POPC   C1B  850   7.266   5.222   8.280 -0.0161 -0.0273  0.0407
   25POPC   C2B  851   7.308   5.058   7.924  0.3700 -0.0187  0.1338
   25POPC   C3B  852   7.170   5.046   7.456  0.0592  0.0849  0.2065
   25POPC   C4B  853   7.368   5.180   7.078 -0.2464  0.0032  0.0094
   26POPC   NC3  854   2.160   6.956   9.720 -0.3449 -0.2988  0.2513
   26POPC   PO4  855   2.294   6.548   9.698  0.1601 -0.0946  0.1382
   26POPC   GL1  856   2.345   6.737   9.256  0.1597 -0.2910 -0.0748
   26POPC   GL2  857   2.443   6.560   8.963 -0.1074  0.2441  0.1750
   26POPC   C1A  858   2.233   7.003   8.853  0.0950 -0.1746  0.0638
   26POPC   D2A  859   2.024   7.228   8.491 -0.0625  0.0717 -0.1087
   26POPC   C3A  860   1.683   7.124   8.143 -0.1045 -0.0068  0.3715
   26POPC   C4A  861   1.367   7.242   7.873  0.2253  0.1000 -0.0964
   26POPC   C1B  862   2.603   6.591   8.564 -0.3641  0.1163 -0.1115
   26POPC   C2B  863   2.462   6.595   8.071 -0.0975  0.0946 -0.0539
   26POPC   C3B  864   2.548   6.530   7.650  0.1759  0.3222  0.2512
   26POPC   C4B  865   2.501   6.671   7.227  0.1292  0.0317  0.3535
   27POPC   NC3  866   5.276   9.499   9.294 -0.0289  0.1713  0.0622
   27POPC   PO4  867   5.526   9.225   9.086 -0.0840  0.2438 -0.3289
   27POPC   GL1  868   5.636   9.308   8.714 -0.1278  0.0771  0.2743
   27POPC   GL2  869   5.567   9.772   8.743  0.1122  0.0741 -0.0594
   27POPC   C1A  870   6.078   9.503   8.508  0.4923 -0.0896 -0.2869
   27POPC   D2A  871   6.487   9.624   8.302 -0.2871  0.1866 -0.0126
   27POPC   C3A  872   6.552   9.689   7.920  0.4560  0.1108 -0.2607
   27POPC   C4A  873   6.608   9.594   7.591  0.2147 -0.4504 -0.0092
   27POPC   C1B  874   5.603   9.692   8.341 -0.1798  0.4209  0.2717
   27POPC   C2B  875   5.668   9.672   7.934  0.0386  0.0613 -0.0508
   27POPC   C3B  876   5.544   9.838   7.488 -0.0559  0.0615 -0.1889
   27POPC   C4B  877   5.341  10.220   7.502  0.3968 -0.1542 -0.1305
   28POPC   NC3  878   1.293   8.895   9.987  0.0246 -0.2177 -0.1015
   28POPC   PO4  879   1.653   9.142   9.908 -0.0835 -0.0219  0.2735
   28POPC   GL1  880   1.587   8.936   9.481 -0.2289 -0.3848  0.0605
   28POPC   GL2  881   1.786   8.725   9.492 -0.0094  0.0018 -0.1444
   28POPC   C1A  882   1.496   8.995   9.063  0.1226  0.0773 -0.1091
   28POPC   D2A  883   1.352   8.955   8.696  0.1358  0.5349  0.1293
   28POPC   C3A  884   1.094   9.312   8.559 -0.2138  0.1938  0.1054
   28POPC   C4A  885   0.755   9.296   8.187  0.0946  0.1846  0.2507
   28POPC   C1B  886   1.856   8.651   9.024 -0.0692 -0.2338  0.3478
   28POPC   C2B  887   1.805   8.900   8.619 -0.2812  0.0097  0.0247
   28POPC   C3B  888   1.924   8.803   8.149  0.2061  0.1955 -0.0524
   28POPC   C4B  889   2.404   8.737   8.177  0.2439  0.0268 -0.0824
   29POPC   NC3  890   3.837   7.997   9.983  0.1402  0.2877  0.1920
   29POPC   PO4  891   3.836   7.963   9.490  0.1718  0.0212 -0.0711
   29POPC   GL1  892   3.703   7.845   9.054  0.0025 -0.0463  0.2628
   29POPC   GL2  893   3.629   7.499   8.940 -0.0018  0.0253  0.1772
   29POPC   C1A  894   3.427   7.937   8.750 -0.1372  0.1502  0.0315
   29POPC   D2A  895   3.225   7.811   8.365  0.0315  0.0149  0.0614
   29POPC   C3A  896   2.933   7.910   8.156 -0.0304  0.0755 -0.3434
   29POPC   C4A  897   2.691   7.974   7.794  0.0662  0.4820  0.1548
   29POPC   C1B  898   3.389   7.432   8.614 -0.0183  0.1744 -0.1781
   29POPC   C2B  899   3.323   7.265   8.194 -0.1419 -0.3644 -0.2206
   29POPC   C3B  900   3.387   7.506   7.894 -0.0182 -0.0313  0.0817
   29POPC   C4B  901   3.060   7.686   7.621  0.1618 -0.3798 -0.0823
   30POPC   NC3  902   1.256   0.025   9.255  0.0073 -0.0359 -0.1466
   30POPC   PO4  903   1.321   0.525   9.091 -0.0598 -0.3300  0.0346
   30POPC   GL1  904   0.984   0.456   8.815 -0.0316 -0.1858 -0.0759
   30POPC   GL2  905   0.947   0.060   8.672  0.0946 -0.0144  0.3999
   30POPC   C1A  906   0.805   0.593   8.475  0.0920 -0.0334 -0.0841
   30POPC   D2A  907   0.853   0.810   8.192  0.3759 -0.0416  0.0463
   30POPC   C3A  908   1.197   0.806   8.044  0.1223  0.0469 -0.2882
   30POPC   C4A  909   1.380   0.436   8.098 -0.1338 -0.0898 -0.1191
   30POPC   C1B  910   1.039   0.125   8.169  0.0967 -0.0500 -0.1825
   30POPC   C2B  911   0.907   0.440   7.863 -0.1686 -0.1279  0.0310
   30POPC   C3B  912   0.650   0.542   7.453 -0.0529 -0.0524 -0.2616
   30POPC   C4B  913   0.870   0.508   7.113 -0.0812 -0.0912  0.0374
   31POPC   NC3  914   6.249   1.551   8.895  0.3828 -0.0438 -0.0696
   31POPC   PO4  915   6.591   1.704   9.247  0.4279 -0.2879  0.3077
   31POPC   GL1  916   6.714   1.678   8.723 -0.0173 -0.0764 -0.0852
   31POPC   GL2  917   6.751   1.985   8.530  0.1629  0.2394 -0.1843
   31POPC   C1A  918   6.937   1.365   8.513  0.2264  0.2732 -0.0357
   31POPC   D2A  919   7.070   1.281   8.076  0.1056 -0.0366 -0.2855
   31POPC   C3A  920   7.393   1.255   7.880  0.0107  0.2225 -0.1882
   31POPC   C4A  921   7.398   0.899   7.728 -0.1660 -0.1391 -0.0321
   31POPC   C1B  922   6.659   1.713   8.158  0.0241  0.0009  0.2484
   31POPC   C2B  923   6.783   1.782   7.742  0.4249 -0.2514 -0.0682
   31POPC   C3B  924   6.508   2.021   7.380  0.0098 -0.2922  0.0818
   31POPC   C4B  925   6.419   2.319   6.998  0.3389  0.3216  0.1284
   32POPC   NC3  926   6.914   0.796   8.868  0.1601 -0.1685 -0.0298
   32POPC   PO4  927   7.221   0.461   8.820  0.0302 -0.1275 -0.2808
   32POPC   GL1  928   7.143   0.467   8.388 -0.0213  0.1588  0.0100
   32POPC   GL2  929   6.886   0.705   8.300  0.0109  0.0847  0.1323
   32POPC   C1A  930   7.252   0.389   7.976 -0.1547 -0.0248  0.5877
   32POPC   D2A  931   7.383   0.362   7.600 -0.1694  0.0507 -0.0287
   32POPC   C3A  932   7.209   0.198   7.260 -0.0160  0.1206 -0.2664
   32POPC   C4A  933   7.331   0.099   6.853  0.2961 -0.2095 -0.3305
   32POPC   C1B  934   6.913   0.787   7.813 -0.0650  0.3301 -0.0761
   32POPC   C2B  935   7.017   0.685   7.388  0.0259  0.2380 -0.1708
   32POPC   C3B  936   7.086   0.657   6.959 -0.1330 -0.2850 -0.4973
   32POPC   C4B  937   6.890   0.339   6.847 -0.2994  0.0471  0.2438
   33POPC   NC3  938   7.095   9.436   9.653 -0.2990  0.0616  0.3180
   33POPC   PO4  939   7.270   9.795   9.626  0.0858  0.2737 -0.1753
   33POPC   GL1  940   7.378   9.752   9.241 -0.0140 -0.5035  0.0456
   33POPC   GL2  941   7.317   9.707   8.861  0.1475  0.0195 -0.2026
   33POPC   C1A  942   7.780   9.524   8.937  0.1076 -0.0919  0.3592
   33POPC   D2A  943   8.138   9.518   8.693 -0.2510  0.1387  0.2213
   33POPC   C3A  944   8.318   9.147   8.430  0.4520  0.0102 -0.0284
   33POPC   C4A  945   8.209   8.880   8.090 -0.1342 -0.1393  0.0154
   33POPC   C1B  946   7.366   9.413   8.383  0.1599 -0.2089 -0.1619
   33POPC   C2B  947   7.341   9.146   7.967 -0.1844 -0.1038 -0.3271
   33POPC   C3B  948   7.383   8.993   7.603 -0.1403 -0.1007  0.2665
   33POPC   C4B  949   7.471   8.599   7.445 -0.1641 -0.1975 -0.0126
   34POPC   NC3  950   7.033   7.297  10.067  0.2451  0.0418  0.1195
   34POPC   PO4  951   7.023   7.197   9.635  0.1372 -0.0947  0.2395
   34POPC   GL1  952   6.910   7.261   9.053  0.0408 -0.1630 -0.2613
   34POPC   GL2  953   6.552   7.285   8.917 -0.1356 -0.2575  0.0526
   34POPC   C1A  954   7.090   7.349   8.612  0.0775  0.0430  0.5089
   34POPC   D2A  955   6.711   7.311   8.361 -0.3645  0.0416  0.0251
   34POPC   C3A  956   6.620   7.341   7.964 -0.0940  0.2984  0.0424
   34POPC   C4A  957   6.746   7.655   7.672 -0.0853  0.3231 -0.0114
   34POPC   C1B  958   6.716   7.622   8.810 -0.2237 -0.3112  0.1173
   34POPC   C2B  959   6.625   7.971   8.602  0.0212  0.1036 -0.0554
   34POPC   C3B  960   6.364   8.252   8.318 -0.3752 -0.0069  0.3052
   34POPC   C4B  961   6.112   8.548   8.319 -0.1333  0.2969 -0.0894
   35POPC   NC3  962   6.680   3.727   9.544 -0.3605 -0.2656  0.0964
   35POPC   PO4  963   7.060   3.662   9.295  0.3522  0.1251 -0.0743
   35POPC   GL1  964   7.097   3.737   8.789 -0.0489 -0.1080  0.1416
   35POPC   GL2  965   7.079   3.380   8.640  0.1310 -0.2303  0.0220
   35POPC   C1A  966   7.284   3.782   8.348 -0.0163  0.0868  0.3618
   35POPC   D2A  967   7.247   3.605   7.935 -0.2634 -0.1557 -0.0335
   35POPC   C3A  968   7.228   3.294   7.563 -0.2837 -0.0053  0.0369
   35POPC   C4A  969   7.284   2.879   7.492 -0.1219  0.0064 -0.1694
   35POPC   C1B  970   7.507   3.379   8.597  0.0994 -0.0135  0.1504
   35POPC   C2B  971   7.970   3.213   8.360 -0.0921  0.0222 -0.3014
   35POPC   C3B  972   8.079   2.932   8.073  0.0810  0.4295  0.0928
   35POPC   C4B  973   8.207   2.707   7.688 -0.0350  0.0150  0.0372
   36POPC   NC3  974   8.681   7.126  10.228  0.0808  0.3134  0.2808
   36POPC   PO4  975   8.372   6.866   9.976 -0.1490 -0.0687  0.1165
   36POPC   GL1  976   8.383   7.155   9.627  0.1174 -0.1451 -0.1614
   36POPC   GL2  977   8.466   7.082   9.349  0.0750  0.0627  0.0348
   36POPC   C1A  978   8.664   7.493   9.508 -0.2405 -0.1040 -0.0705
   36POPC   D2A  979   8.813   7.817   9.280  0.1538  0.1518 -0.1621
   36POPC   C3A  980   8.605   7.799   8.871 -0.1226  0.0483 -0.0596
   36POPC   C4A  981   8.297   7.897   8.574 -0.1847  0.0422 -0.1205
   36POPC   C1B  982   8.473   7.276   8.951 -0.2613  0.1251  0.0626
   36POPC   C2B  983   8.266   7.443   8.689 -0.3216 -0.0836  0.0254
   36POPC   C3B  984   7.907   7.522   8.517 -0.1439 -0.0009 -0.1130
   36POPC   C4B  985   7.543   7.549   8.687 -0.1170 -0.0313 -0.3131
   37POPC   NC3  986   2.491   2.932   8.545 -0.0694 -0.0306  0.0382
   37POPC   PO4  987   2.749   2.780   8.488  0.1690  0.0354 -0.0590
   37POPC   GL1  988   2.891   2.944   8.149  0.0867  0.1459  0.4392
   37POPC   GL2  989   3.151   3.023   8.343  0.3879 -0.0469 -0.1204
   37POPC   C1A  990   3.107   2.843   7.796  0.1339 -0.0519  0.0680
   37POPC   D2A  991   3.430   2.749   7.528 -0.1357  0.0124  0.0857
   37POPC   C3A  992   3.621   2.711   7.174 -0.0528 -0.0814  0.0105
   37POPC   C4A  993   3.672   2.557   6.763 -0.0538  0.0165  0.1773
   37POPC   C1B  994   3.387   2.776   8.142  0.1774  0.0847  0.2801
   37POPC   C2B  995   3.764   2.878   7.885 -0.0283  0.0718  0.1153
   37POPC   C3B  996   3.980   3.246   7.984  0.0474  0.0396 -0.1111
   37POPC   C4B  997   4.295   3.618   7.922 -0.1493 -0.0342  0.1084
   38POPC   NC3  998   7.452   4.003   9.440 -0.2234  0.2823 -0.1127
   38POPC   PO4  999   7.656   4.229   9.157  0.1938 -0.1960  0.2188
   38POPC   GL1 1000   7.445   4.507   8.821  0.0570 -0.2155 -0.0942
   38POPC   GL2 1001   7.034   4.574   8.795  0.0345 -0.0386 -0.0020
   38POPC   C1A 1002   7.629   4.661   8.435 -0.2990  0.1239 -0.0955
   38POPC   D2A 1003   7.832   4.605   8.043 -0.3738  0.1206 -0.0597
   38POPC   C3A 1004   7.833   4.236   7.758  0.1141 -0.3758 -0.0607
   38POPC   C4A 1005   7.613   3.831   7.638 -0.0524 -0.1052 -0.3186
   38POPC   C1B 1006   7.188   4.297   8.434 -0.2001  0.0845  0.0769
   38POPC   C2B 1007   7.485   4.179   8.056 -0.0860 -0.2295 -0.3263
   38POPC   C3B 1008   7.472   4.537   7.712 -0.1903 -0.2130  0.0718
   38POPC   C4B 1009   7.674   4.915   7.661  0.0734 -0.0604  0.1190
   39POPC   NC3 1010   8.529   8.430  10.336 -0.1201  0.0220  0.2248
   39POPC   PO4 1011   8.368   7.995  10.219 -0.1550  0.2454  0.3137
   39POPC   GL1 1012   8.221   8.232   9.918 -0.0921 -0.1052  0.2509
   39POPC   GL2 1013   7.934   8.214   9.723  0.1096 -0.1753 -0.1450
   39POPC   C1A 1014   8.462   8.384   9.644 -0.1255  0.0701 -0.1524
   39POPC   D2A 1015   8.955   8.513   9.604  0.2214  0.3584 -0.0641
   39POPC   C3A 1016   9.234   8.227   9.369 -0.0728  0.0293 -0.0729
   39POPC   C4A 1017   9.664   8.258   9.205 -0.5502 -0.1173 -0.0972
   39POPC   C1B 1018   7.723   8.059   9.409  0.1033  0.0100 -0.2219
   39POPC   C2B 1019   7.563   7.727   9.172 -0.2771 -0.1988  0.1946
   39POPC   C3B 1020   7.359   7.277   9.064 -0.0244 -0.4586  0.1266
   39POPC   C4B 1021   7.577   6.935   9.021 -0.1245  0.0836 -0.1722
   40POPC   NC3 1022   9.979   7.295  10.110  0.1478 -0.0927  0.1162
   40POPC   PO4 1023   9.935   6.943  10.245 -0.3181  0.2482 -0.2182
   40POPC   GL1 1024   9.874   6.944   9.748 -0.0738  0.2105 -0.3187
   40POPC   GL2 1025   9.772   7.226   9.648 -0.0544  0.0158  0.0047
   40POPC   C1A 1026   9.397   6.869   9.527 -0.1888 -0.0070 -0.2061
   40POPC   D2A 1027   8.953   6.846   9.454 -0.0060  0.2592  0.3309
   40POPC   C3A 1028   8.901   6.748   8.969 -0.0350  0.0756 -0.1996
   40POPC   C4A 1029   8.803   6.524   8.572  0.3566 -0.0913  0.1998
   40POPC   C1B 1030   9.651   7.219   9.187 -0.0343  0.0815 -0.2183
   40POPC   C2B 1031   9.415   7.394   8.845  0.0765  0.0168  0.0235
   40POPC   C3B 1032   9.004   7.405   8.693 -0.1161 -0.2827  0.0597
   40POPC   C4B 1033   8.682   7.581   8.377 -0.0105 -0.0422 -0.3679
   41POPC   NC3 1034   6.783   9.000   9.608  0.0305 -0.1395 -0.0874
   41POPC   PO4 1035   6.924   9.172   9.195 -0.1601  0.5130  0.2491
   41POPC   GL1 1036   6.946   9.328   8.825  0.1508 -0.1209 -0.0913
   41POPC   GL2 1037   6.562   9.516   8.880 -0.2626 -0.0221  0.0864
   41POPC   C1A 1038   6.877   9.175   8.358 -0.5806 -0.2747  0.0394
   41POPC   D2A 1039   6.821   9.262   7.883  0.2703  0.0438  0.0570
   41POPC   C3A 1040   6.655   8.955   7.550 -0.2188  0.1710 -0.0061
   41POPC   C4A 1041   6.542   8.709   7.130 -0.1977 -0.2262  0.0008
   41POPC   C1B 1042   6.455   9.277   8.618 -0.3272  0.0584 -0.2249
   41POPC   C2B 1043   6.446   9.139   8.155  0.2080  0.2002  0.2993
   41POPC   C3B 1044   6.184   8.776   7.919 -0.1177 -0.0085  0.1691
   41POPC   C4B 1045   5.881   8.317   7.833  0.0291 -0.1994  0.1469
   42POPC   NC3 1046   2.741   1.424   9.062 -0.0645  0.1029  0.2291
   42POPC   PO4 1047   3.057   1.010   9.023 -0.2916  0.0245 -0.4403
   42POPC   GL1 1048   3.210   0.893   8.585  0.0301 -0.2262 -0.2819
   42POPC   GL2 1049   3.326   0.601   8.492 -0.0850 -0.0373 -0.0435
   42POPC   C1A 1050   3.432   0.877   8.124  0.0136  0.1268 -0.1183
   42POPC   D2A 1051   3.410   0.842   7.648  0.2184 -0.1783 -0.2085
   42POPC   C3A 1052   3.204   0.805   7.338 -0.0809 -0.5126  0.3312
   42POPC   C4A 1053   3.195   0.884   6.894 -0.0559 -0.0547 -0.2684
   42POPC   C1B 1054   3.230   0.287   8.179  0.1261 -0.1715  0.0246
   42POPC   C2B 1055   3.239   0.397   7.735 -0.0509  0.1726 -0.2057
   42POPC   C3B 1056   3.047   0.361   7.458 -0.0388 -0.0492  0.3697
   42POPC   C4B 1057   3.092   0.381   7.028 -0.2889  0.2062 -0.1159
   43POPC   NC3 1058   5.422   8.351   9.400 -0.0203 -0.1589 -0.0385
   43POPC   PO4 1059   5.610   8.244   9.079  0.0765 -0.0932 -0.0376
   43POPC   GL1 1060   5.467   7.968   8.748 -0.2308  0.0063  0.0698
   43POPC   GL2 1061   5.673   7.670   8.852  0.0333 -0.2272 -0.1635
   43POPC   C1A 1062   5.383   7.800   8.361 -0.0731 -0.0319  0.1647
   43POPC   D2A 1063   5.520   7.914   7.906  0.1420 -0.1794 -0.4570
   43POPC   C3A 1064   5.210   7.993   7.566  0.1159 -0.0558 -0.5327
   43POPC   C4A 1065   4.893   7.753   7.269  0.0954  0.3604 -0.3815
   43POPC   C1B 1066   5.668   7.401   8.543  0.1512 -0.3167 -0.1873
   43POPC   C2B 1067   5.824   7.552   8.207  0.1998 -0.1503  0.2228
   43POPC   C3B 1068   5.729   7.497   7.676 -0.0211  0.2677  0.0579
   43POPC   C4B 1069   5.968   7.496   7.333 -0.0799 -0.0791 -0.0422
   44POPC   NC3 1070   3.353   5.764   9.274 -0.4693  0.2809  0.2165
   44POPC   PO4 1071   3.404   6.074   8.948  0.0984 -0.0504 -0.1433
   44POPC   GL1 1072   3.509   6.105   8.551 -0.0690  0.1144 -0.0919
   44POPC   GL2 1073   3.413   5.785   8.361 -0.2131  0.1384 -0.1366
   44POPC   C1A 1074   3.475   6.307   8.103  0.2394 -0.0475 -0.0333
   44POPC   D2A 1075   3.319   6.699   7.981  0.1746 -0.2304  0.1605
   44POPC   C3A 1076   2.945   6.897   8.182 -0.3450  0.0526 -0.2658
   44POPC   C4A 1077   2.654   7.058   8.438 -0.0050  0.0321  0.0212
   44POPC   C1B 1078   3.333   5.808   7.976 -0.2188  0.0630 -0.0479
   44POPC   C2B 1079   3.548   5.873   7.527 -0.1258  0.1095  0.0023
   44POPC   C3B 1080   3.758   5.873   7.149 -0.1928 -0.2479  0.1097
   44POPC   C4B 1081   3.769   5.644   6.862 -0.0059  0.0364 -0.2126
   45POPC   NC3 1082   8.999   9.346  10.438 -0.3134 -0.2344  0.2126
   45POPC   PO4 1083   9.214   8.957  10.268  0.4386 -0.2817  0.2207
   45POPC   GL1 1084   9.247   8.853   9.799 -0.0939  0.0603 -0.2774
   45POPC   GL2 1085   9.518   9.088   9.738  0.1859  0.0957 -0.2860
   45POPC   C1A 1086   9.257   8.748   9.326 -0.1766 -0.0496  0.0513
   45POPC   D2A 1087   9.306   8.538   8.988  0.2678 -0.2524 -0.1114
   45POPC   C3A 1088   9.483   8.752   8.530  0.2322 -0.0701  0.0553
   45POPC   C4A 1089   9.382   9.051   8.234 -0.2861  0.0789  0.1402
   45POPC   C1B 1090   9.743   8.999   9.463 -0.2228 -0.2473  0.2426
   45POPC   C2B 1091   9.657   8.851   9.071 -0.1210  0.1229  0.1657
   45POPC   C3B 1092   9.289   9.102   8.857 -0.0519  0.1219  0.3359
   45POPC   C4B 1093   8.958   9.159   8.573 -0.3004  0.3397 -0.4208
   46POPC   NC3 1094   1.264   3.185   9.462  0.0837  0.0991 -0.5319
   46POPC   PO4 1095   1.260   3.501   9.059 -0.1939 -0.0355  0.0381
   46POPC   GL1 1096   1.274   3.330   8.649  0.2870  0.2591 -0.0910
   46POPC   GL2 1097   1.137   3.610   8.430 -0.0101  0.1060 -0.0762
   46POPC   C1A 1098   1.181   3.014   8.374  0.0144 -0.0740 -0.4002
   46POPC   D2A 1099   0.967   2.887   8.048 -0.0314  0.2096  0.0141
   46POPC   C3A 1100   1.170   2.515   7.835  0.2617  0.0164 -0.3376
   46POPC   C4A 1101   1.313   2.080   7.622 -0.1888 -0.0890 -0.0981
   46POPC   C1B 1102   1.110   3.449   8.081  0.1277 -0.0491  0.0824
   46POPC   C2B 1103   1.113   3.618   7.652  0.0396 -0.3311  0.2233
   46POPC   C3B 1104   1.106   3.840   7.247 -0.0213 -0.0940  0.0767
   46POPC   C4B 1105   0.925   4.200   6.991 -0.5331  0.1405 -0.1349
   47POPC   NC3 1106   6.175   4.606   8.826  0.0069  0.0045  0.0042
   47POPC   PO4 1107   5.750   4.781   8.716 -0.2773  0.4377 -0.1168
   47POPC   GL1 1108   5.826   4.781   8.310 -0.2957  0.1339 -0.0322
   47POPC   GL2 1109   6.072   4.552   8.366 -0.0906  0.0573  0.3132
   47POPC   C1A 1110   5.632   4.713   7.838 -0.0846 -0.1216 -0.6143
   47POPC   D2A 1111   5.597   4.924   7.571 -0.1241  0.1826  0.2608
   47POPC   C3A 1112   5.591   4.856   7.093 -0.0885 -0.2662 -0.3841
   47POPC   C4A 1113   5.749   4.516   6.853  0.0635  0.0251  0.1389
   47POPC   C1B 1114   5.889   4.162   8.311  0.0650  0.1005 -0.0549
   47POPC   C2B 1115   5.793   3.857   8.116  0.0076 -0.3696 -0.1940
   47POPC   C3B 1116   5.826   3.817   7.657 -0.2795 -0.2428 -0.0532
   47POPC   C4B 1117   5.816   4.008   7.216  0.0714  0.0724 -0.3331
   48POPC   NC3 1118   6.098   5.562   9.345 -0.0760 -0.1089 -0.1826
   48POPC   PO4 1119   6.228   5.437   9.075  0.0081 -0.5479  0.0415
   48POPC   GL1 1120   6.514   5.499   8.764 -0.1475 -0.1955  0.1239
   48POPC   GL2 1121   6.477   5.845   8.712 -0.0804 -0.0431 -0.2691
   48POPC   C1A 1122   6.749   5.416   8.443  0.1859  0.4373  0.0540
   48POPC   D2A 1123   6.832   5.192   8.087  0.2436  0.2347  0.1657
   48POPC   C3A 1124   6.491   5.106   7.693  0.0659 -0.2432  0.1234
   48POPC   C4A 1125   6.027   5.148   7.497  0.2609  0.0252  0.1141
   48POPC   C1B 1126   6.795   5.927   8.429 -0.1641  0.0466  0.1021
   48POPC   C2B 1127   6.931   6.028   7.979 -0.0606 -0.0714  0.0508
   48POPC   C3B 1128   7.094   5.957   7.567  0.2776 -0.0523  0.0896
   48POPC   C4B 1129   6.797   6.067   7.239 -0.0265 -0.1504  0.0955
   49POPC   NC3 1130   5.816   2.902   8.906 -0.1092  0.0271  0.0792
   49POPC   PO4 1131   6.097   2.578   9.074  0.0371 -0.0130  0.3949
   49POPC   GL1 1132   6.244   2.654   8.631 -0.1330 -0.0412 -0.0517
   49POPC   GL2 1133   6.009   2.734   8.400 -0.4867  0.1636  0.0826
   49POPC   C1A 1134   6.496   2.380   8.294  0.3626  0.4498 -0.2993
   49POPC   D2A 1135   6.615   2.219   7.908  0.1698  0.1324  0.0782
   49POPC   C3A 1136   6.406   2.441   7.605 -0.1516 -0.1448 -0.2647
   49POPC   C4A 1137   5.991   2.391   7.327  0.0614  0.0041 -0.0681
   49POPC   C1B 1138   5.713   2.777   7.957 -0.0088  0.2232 -0.0023
   49POPC   C2B 1139   5.939   2.902   7.545 -0.1403 -0.0737 -0.1402
   49POPC   C3B 1140   5.912   3.184   7.176  0.0119 -0.1466  0.0988
   49POPC   C4B 1141   5.722   3.046   6.742  0.0338  0.1335  0.1461
   50POPC   NC3 1142   6.495   2.146   9.042 -0.0520  0.2465  0.0668
   50POPC   PO4 1143   6.131   2.080   8.812 -0.0730  0.0373 -0.0156
   50POPC   GL1 1144   6.260   1.863   8.519  0.1048 -0.0788  0.4911
   50POPC   GL2 1145   6.250   1.499   8.405 -0.1780  0.0512 -0.0762
   50POPC   C1A 1146   6.223   1.941   8.115 -0.1686 -0.0528 -0.0011
   50POPC   D2A 1147   6.293   1.652   7.809 -0.0505 -0.2024  0.3618
   50POPC   C3A 1148   6.170   1.240   7.848  0.1104  0.3146 -0.1050
   50POPC   C4A 1149   6.025   1.015   7.489 -0.1181  0.0031 -0.1748
   50POPC   C1B 1150   6.539   1.210   8.221 -0.0532  0.3250  0.0677
   50POPC   C2B 1151   6.650   1.217   7.767 -0.0778  0.0655  0.0642
   50POPC   C3B 1152   6.606   1.198   7.411 -0.0674  0.0007  0.0691
   50POPC   C4B 1153   6.557   0.989   7.063  0.3021  0.1347  0.2949
   51POPC   NC3 1154   2.063   6.694  10.306 -0.0684 -0.0749 -0.1903
   51POPC   PO4 1155   1.868   7.166  10.172 -0.1734  0.0030 -0.1266
   51POPC   GL1 1156   1.543   7.224   9.727 -0.1025  0.3995 -0.1161
   51POPC   GL2 1157   1.592   6.959   9.639  0.3067 -0.3227 -0.0870
   51POPC   C1A 1158   1.237   7.430   9.510 -0.0771  0.1589  0.2267
   51POPC   D2A 1159   1.411   7.836   9.310 -0.0131  0.0025 -0.1543
   51POPC   C3A 1160   1.782   7.646   9.316 -0.1243 -0.0581 -0.0029
   51POPC   C4A 1161   1.972   7.513   8.952 -0.0409  0.0269 -0.1973
   51POPC   C1B 1162   1.219   6.904   9.453  0.1406 -0.1262 -0.4272
   51POPC   C2B 1163   0.894   6.513   9.337  0.2623 -0.2742 -0.0068
   51POPC   C3B 1164   0.812   6.533   8.865  0.1946  0.1528  0.1192
   51POPC   C4B 1165   1.036   6.551   8.478 -0.0948  0.0232 -0.2614
   52POPC   NC3 1166   3.030   7.071   9.293  0.0706  0.0225  0.3117
   52POPC   PO4 1167   3.485   7.068   9.190 -0.3467 -0.1485  0.3108
   52POPC   GL1 1168   3.431   6.868   8.809 -0.0543  0.1922  0.2792
   52POPC   GL2 1169   3.208   6.883   8.657 -0.1953  0.1685 -0.1072
   52POPC   C1A 1170   3.647   6.609   8.510 -0.0843  0.1942 -0.0041
   52POPC   D2A 1171   3.951   6.551   8.166  0.1218  0.0896 -0.0321
   52POPC   C3A 1172   3.832   6.586   7.729 -0.1113 -0.2257  0.0034
   52POPC   C4A 1173   3.503   6.403   7.576  0.3939  0.2494  0.0522
   52POPC   C1B 1174   3.142   6.495   8.431  0.0267  0.1009  0.0484
   52POPC   C2B 1175   2.943   6.427   7.980  0.0259  0.3562 -0.0442
   52POPC   C3B 1176   3.024   6.363   7.487 -0.2179  0.2094 -0.2976
   52POPC   C4B 1177   3.352   6.331   7.095 -0.2193 -0.3497 -0.1546
   53POPC   NC3 1178   4.535   4.519   8.991  0.1396  0.1262  0.0382
   53POPC   PO4 1179   4.652   4.932   8.967 -0.0580 -0.1823  0.1455
   53POPC   GL1 1180   4.803   4.873   8.580  0.1837  0.2361  0.0194
   53POPC   GL2 1181   4.415   4.887   8.523  0.0919  0.0477  0.0942
   53POPC   C1A 1182   4.749   5.017   8.145  0.0704 -0.0992  0.0730
   53POPC   D2A 1183   4.481   4.860   7.778 -0.1442 -0.1141 -0.0163
   53POPC   C3A 1184   4.209   5.112   7.619 -0.1953  0.1807 -0.0762
   53POPC   C4A 1185   4.459   5.451   7.339  0.0318 -0.0686  0.0732
   53POPC   C1B 1186   4.208   4.950   8.160  0.2014  0.4015  0.0744
   53POPC   C2B 1187   4.055   4.594   7.801  0.4531 -0.0446  0.0754
   53POPC   C3B 1188   3.998   4.313   7.551 -0.0325  0.1357 -0.1270
   53POPC   C4B 1189   4.236   3.901   7.338  0.0033  0.0430 -0.0611
   54POPC   NC3 1190   2.640   7.715   9.848  0.0221 -0.0438  0.0908
   54POPC   PO4 1191   3.010   7.880   9.571 -0.0694  0.4383 -0.0325
   54POPC   GL1 1192   2.968   7.819   9.036 -0.2288 -0.1627  0.0114
   54POPC   GL2 1193   3.006   7.441   8.899 -0.1463 -0.1166 -0.0709
   54POPC   C1A 1194   2.769   7.931   8.669 -0.0620  0.0496  0.2330
   54POPC   D2A 1195   2.327   7.956   8.576 -0.0813  0.0602 -0.0293
   54POPC   C3A 1196   1.990   8.046   8.911  0.0439 -0.3252  0.2107
   54POPC   C4A 1197   2.044   8.161   9.257  0.1945  0.1412  0.1339
   54POPC   C1B 1198   2.911   7.484   8.494  0.3559  0.2175  0.1385
   54POPC   C2B 1199   2.874   7.381   8.026  0.2858 -0.1200 -0.1223
   54POPC   C3B 1200   2.666   7.474   7.741 -0.0618 -0.1724  0.1468
   54POPC   C4B 1201   2.412   7.300   7.340  0.0429  0.2067 -0.2533
   55POPC   NC3 1202   0.460   1.526   9.328 -0.0317 -0.0676 -0.1524
   55POPC   PO4 1203   0.397   1.113   9.321  0.1355  0.0380 -0.1086
   55POPC   GL1 1204   0.236   0.679   9.105  0.1624 -0.0423 -0.0169
   55POPC   GL2 1205  -0.074   0.864   8.938 -0.2170  0.1017 -0.0083
   55POPC   C1A 1206   0.268   0.571   8.629 -0.5017  0.3004 -0.0144
   55POPC   D2A 1207   0.387   0.561   8.147 -0.0517 -0.0626 -0.0837
   55POPC   C3A 1208   0.245   0.627   7.685  0.2495 -0.1413 -0.3364
   55POPC   C4A 1209   0.246   0.850   7.417  0.0798  0.4065 -0.0705
   55POPC   C1B 1210  -0.403   1.013   8.652  0.0109 -0.0718  0.1832
   55POPC   C2B 1211  -0.439   1.217   8.298  0.2270  0.1527 -0.1567
   55POPC   C3B 1212  -0.413   1.148   7.968  0.2035  0.0232 -0.2874
   55POPC   C4B 1213  -0.192   1.178   7.521  0.1382  0.0159 -0.2257
   56POPC   NC3 1214  10.120   2.839   9.868  0.0591 -0.3748  0.1677
   56POPC   PO4 1215  10.015   2.698   9.444 -0.2826  0.1133  0.0811
   56POPC   GL1 1216   9.967   2.737   9.011 -0.0104  0.0970  0.0854
   56POPC   GL2 1217  10.096   2.910   8.772  0.0185 -0.1617 -0.2536
   56POPC   C1A 1218   9.630   2.760   8.705  0.0109 -0.0789 -0.1011
   56POPC   D2A 1219   9.267   2.627   8.395  0.1747 -0.0913 -0.3315
   56POPC   C3A 1220   8.866   2.559   8.598 -0.1319 -0.1414  0.2985
   56POPC   C4A 1221   8.591   2.208   8.456 -0.1559 -0.2116 -0.0656
   56POPC   C1B 1222  10.020   2.823   8.277 -0.0493 -0.1864  0.1797
   56POPC   C2B 1223  10.007   3.051   7.863  0.1777 -0.1465  0.1589
   56POPC   C3B 1224  10.347   3.414   7.757  0.1627  0.1716  0.1673
   56POPC   C4B 1225  10.329   3.706   7.439  0.0671 -0.0507 -0.3117
   57POPC   NC3 1226   6.494   1.260   9.422  0.1611 -0.0864 -0.0263
   57POPC   PO4 1227   6.320   0.956   9.200 -0.2169  0.1396  0.0245
   57POPC   GL1 1228   6.215   1.103   8.733 -0.0960  0.2647 -0.0220
   57POPC   GL2 1229   6.371   0.886   8.531 -0.1156  0.0112 -0.0617
   57POPC   C1A 1230   6.002   1.070   8.279  0.2571 -0.0691 -0.0827
   57POPC   D2A 1231   5.656   0.997   7.958 -0.2668 -0.1726 -0.0660
   57POPC   C3A 1232   5.673   1.309   7.594  0.1066  0.0147  0.2465
   57POPC   C4A 1233   5.498   1.651   7.239  0.3178 -0.2215  0.2835
   57POPC   C1B 1234   6.435   0.763   8.077  0.3028 -0.0994  0.2347
   57POPC   C2B 1235   6.657   0.381   7.991 -0.3128  0.2074  0.0427
   57POPC   C3B 1236   6.845   0.294   7.748  0.0236  0.1255 -0.0655
   57POPC   C4B 1237   6.712   0.266   7.326  0.0718 -0.0487  0.1696
   58POPC   NC3 1238   1.642   2.484   9.083 -0.0673  0.0439 -0.2293
   58POPC   PO4 1239   1.934   2.765   8.834  0.2750  0.0641  0.2325
   58POPC   GL1 1240   1.760   3.074   8.597  0.1305 -0.0122  0.0918
   58POPC   GL2 1241   2.010   3.225   8.451  0.2465  0.1093  0.0793
   58POPC   C1A 1242   1.625   3.205   8.128 -0.3795  0.0866  0.1128
   58POPC   D2A 1243   1.353   3.088   7.841  0.1164  0.0327  0.0156
   58POPC   C3A 1244   0.946   3.134   7.643  0.2229  0.1023  0.2598
   58POPC   C4A 1245   0.578   3.140   7.551 -0.1108  0.1495 -0.0295
   58POPC   C1B 1246   2.011   3.597   8.165  0.1609 -0.0553  0.1452
   58POPC   C2B 1247   1.960   4.077   8.050  0.0740 -0.0584 -0.0813
   58POPC   C3B 1248   2.141   4.356   7.799 -0.2097  0.1179  0.0738
   58POPC   C4B 1249   2.435   4.593   7.689  0.1029  0.0280  0.0672
   59POPC   NC3 1250   5.770   2.769   9.450  0.1557 -0.0542 -0.1548
   59POPC   PO4 1251   5.588   2.495   9.116 -0.1562 -0.1025  0.1564
   59POPC   GL1 1252   5.649   2.468   8.682 -0.2922  0.1772 -0.4640
   59POPC   GL2 1253   5.616   2.074   8.697  0.1705  0.1153  0.1247
   59POPC   C1A 1254   5.523   2.476   8.345  0.0252  0.2617 -0.2105
   59POPC   D2A 1255   5.257   2.660   7.988  0.3730  0.1241  0.2416
   59POPC   C3A 1256   5.419   2.813   7.556  0.0885  0.0983  0.0881
   59POPC   C4A 1257   5.603   2.695   7.148  0.0315  0.2390  0.2152
   59POPC   C1B 1258   5.804   2.092   8.249 -0.0397 -0.0987  0.0173
   59POPC   C2B 1259   5.994   2.364   7.925 -0.2050 -0.2869 -0.1982
   59POPC   C3B 1260   6.271   2.735   7.968  0.1817  0.1533  0.0408
   59POPC   C4B 1261   6.408   2.996   7.670 -0.0562  0.0858 -0.1033
   60POPC   NC3 1262   0.297   5.470   9.215 -0.2082  0.3684 -0.4512
   60POPC   PO4 1263  -0.077   5.499   9.427 -0.2551  0.0346  0.2048
   60POPC   GL1 1264  -0.255   5.892   9.314 -0.1602  0.1402  0.0865
   60POPC   GL2 1265  -0.068   6.180   9.198 -0.0483 -0.0935 -0.1475
   60POPC   C1A 1266  -0.479   6.036   8.955  0.2952 -0.4258  0.0693
   60POPC   D2A 1267  -0.714   5.640   8.704  0.1601 -0.1757 -0.1968
   60POPC   C3A 1268  -0.470   5.503   8.363 -0.0536 -0.3943  0.2689
   60POPC   C4A 1269  -0.256   5.215   8.258 -0.0758 -0.2431  0.2987
   60POPC   C1B 1270   0.074   6.084   8.795 -0.1956  0.0790 -0.3212
   60POPC   C2B 1271  -0.143   5.840   8.558  0.5622  0.0596 -0.0316
   60POPC   C3B 1272  -0.149   5.781   8.052 -0.2615  0.2146 -0.0818
   60POPC   C4B 1273  -0.374   6.080   7.742 -0.0977  0.3601 -0.0464
   61POPC   NC3 1274   4.735   9.562   9.334  0.1071  0.0267 -0.1499
   61POPC   PO4 1275   4.900   9.153   9.188  0.4822 -0.2764 -0.2171
   61POPC   GL1 1276   5.071   8.919   8.844 -0.0274  0.0916  0.0715
   61POPC   GL2 1277   5.161   8.639   8.936 -0.2341  0.1744 -0.0280
   61POPC   C1A 1278   5.151   8.965   8.385 -0.0038 -0.1608  0.2561
   61POPC   D2A 1279   5.282   8.884   7.899 -0.0202 -0.1382 -0.1825
   61POPC   C3A 1280   5.664   8.971   7.757 -0.5485 -0.2519 -0.1311
   61POPC   C4A 1281   5.788   9.299   7.536 -0.0174  0.0086  0.2236
   61POPC   C1B 1282   5.212   8.416   8.502  0.2372  0.0406  0.0856
   61POPC   C2B 1283   5.296   8.391   8.015  0.0961 -0.2134  0.1595
   61POPC   C3B 1284   5.414   8.461   7.610  0.1221 -0.1855 -0.0565
   61POPC   C4B 1285   5.797   8.472   7.401 -0.0775  0.0260 -0.1913
   62POPC   NC3 1286   0.183   5.881   9.592  0.1411 -0.1632 -0.0873
   62POPC   PO4 1287  -0.129   6.204   9.664  0.1657 -0.0176 -0.0074
   62POPC   GL1 1288  -0.450   6.376   9.489 -0.0029  0.1964 -0.3100
   62POPC   GL2 1289  -0.849   6.244   9.479 -0.0915 -0.0846  0.3981
   62POPC   C1A 1290  -0.297   6.648   9.220  0.1906 -0.0232 -0.0669
   62POPC   D2A 1291  -0.384   6.911   8.797 -0.1324 -0.2098 -0.0047
   62POPC   C3A 1292  -0.262   7.358   8.809 -0.2406  0.0455 -0.1889
   62POPC   C4A 1293  -0.173   7.828   8.596  0.1159  0.3386 -0.0680
   62POPC   C1B 1294  -0.787   6.592   9.090  0.0315 -0.0605 -0.1911
   62POPC   C2B 1295  -0.856   6.893   8.747 -0.2128 -0.0268 -0.2020
   62POPC   C3B 1296  -0.739   7.062   8.404 -0.0348 -0.0356 -0.0386
   62POPC   C4B 1297  -0.303   6.921   8.282  0.0994 -0.0585 -0.1921
   63POPC   NC3 1298   8.523   4.445   9.970  0.5673 -0.0469  0.1360
   63POPC   PO4 1299   8.507   4.255   9.573  0.1060 -0.1605  0.0930
   63POPC   GL1 1300   8.278   4.292   9.101 -0.1561  0.1203 -0.0651
   63POPC   GL2 1301   8.102   4.128   8.915 -0.0650 -0.0349 -0.2965
   63POPC   C1A 1302   8.520   4.290   8.711 -0.0061  0.0533  0.0604
   63POPC   D2A 1303   8.800   4.482   8.483  0.1566 -0.2517  0.4887
   63POPC   C3A 1304   8.660   4.347   8.092 -0.1052 -0.3570 -0.4553
   63POPC   C4A 1305   8.717   4.266   7.657 -0.0884 -0.1263 -0.3319
   63POPC   C1B 1306   8.131   4.569   8.726 -0.0660 -0.2630  0.4203
   63POPC   C2B 1307   8.501   4.852   8.620  0.0938  0.0499  0.0740
   63POPC   C3B 1308   8.689   5.072   8.290 -0.5720 -0.1841  0.2582
   63POPC   C4B 1309   8.844   5.207   7.970 -0.2999  0.1961 -0.0983
   64POPC   NC3 1310   6.169   3.641   8.746 -0.1874  0.1039  0.3675
   64POPC   PO4 1311   6.279   3.125   8.802 -0.2328  0.1580  0.4923
   64POPC   GL1 1312   6.671   2.988   8.665 -0.1390 -0.1353 -0.0313
   64POPC   GL2 1313   6.927   2.670   8.668 -0.0380  0.0625  0.0944
   64POPC   C1A 1314   6.673   2.812   8.269  0.0909  0.2759 -0.1931
   64POPC   D2A 1315   6.849   3.023   7.950 -0.0484 -0.4201 -0.1544
   64POPC   C3A 1316   6.854   2.667   7.756  0.0949 -0.0187 -0.1895
   64POPC   C4A 1317   7.044   2.274   7.528 -0.2449 -0.0143  0.0912
   64POPC   C1B 1318   7.164   2.901   8.477  0.2080  0.2518  0.1249
   64POPC   C2B 1319   7.340   3.105   8.068  0.1200  0.0299  0.2394
   64POPC   C3B 1320   7.666   2.897   7.816 -0.3267  0.1811  0.0447
   64POPC   C4B 1321   7.856   3.103   7.420 -0.0792  0.1800  0.1055
   65POPC   NC3 1322   4.957   7.225   9.106 -0.1184 -0.2347 -0.3396
   65POPC   PO4 1323   4.864   6.864   8.902  0.2614  0.3150 -0.1805
   65POPC   GL1 1324   4.683   6.738   8.529  0.0118 -0.1809  0.0998
   65POPC   GL2 1325   4.679   6.430   8.343  0.0907  0.3505 -0.0747
   65POPC   C1A 1326   4.697   7.041   8.119  0.1008 -0.1085  0.0616
   65POPC   D2A 1327   4.921   7.188   7.886 -0.0245 -0.0679 -0.1624
   65POPC   C3A 1328   4.805   7.202   7.411  0.0101  0.0666 -0.3290
   65POPC   C4A 1329   4.778   7.304   7.057  0.1720 -0.1647  0.0910
   65POPC   C1B 1330   4.438   6.359   8.072  0.0963  0.1990 -0.0492
   65POPC   C2B 1331   4.302   6.520   7.614  0.2485  0.1211  0.1060
   65POPC   C3B 1332   4.138   6.808   7.225 -0.0002  0.3285  0.3498
   65POPC   C4B 1333   3.993   7.024   6.882  0.2048  0.3545  0.0755
   66POPC   NC3 1334   5.420   0.372   9.301 -0.0287  0.0348 -0.1319
   66POPC   PO4 1335   4.926   0.190   9.349 -0.1562  0.1612  0.1586
   66POPC   GL1 1336   4.826   0.082   8.903  0.0285  0.1456 -0.3048
   66POPC   GL2 1337   4.549  -0.135   8.822  0.0977 -0.3081  0.1140
   66POPC   C1A 1338   4.779   0.074   8.410 -0.1704 -0.1874 -0.2221
   66POPC   D2A 1339   5.074   0.119   8.002 -0.2666 -0.1330 -0.1771
   66POPC   C3A 1340   5.115   0.418   7.632  0.0425 -0.0328  0.1817
   66POPC   C4A 1341   4.935   0.258   7.218 -0.2847  0.1278 -0.0798
   66POPC   C1B 1342   4.662  -0.426   8.348 -0.1673 -0.0368 -0.3530
   66POPC   C2B 1343   4.660  -0.407   7.956 -0.1224  0.0700 -0.0455
   66POPC   C3B 1344   4.965  -0.710   7.766 -0.0126 -0.0970  0.4192
   66POPC   C4B 1345   5.317  -0.804   7.627  0.1415  0.1256  0.0341
   67POPC   NC3 1346   7.884   0.484   9.940  0.1283 -0.0806 -0.1510
   67POPC   PO4 1347   8.032   0.318   9.557 -0.2043 -0.1539  0.1887
   67POPC   GL1 1348   7.981   0.065   9.068  0.2759 -0.1140  0.1021
   67POPC   GL2 1349   7.728  -0.089   9.013  0.2216  0.1955  0.2340
   67POPC   C1A 1350   8.198  -0.205   8.764 -0.0840  0.2486 -0.1004
   67POPC   D2A 1351   8.186  -0.360   8.297  0.0558  0.2086 -0.1566
   67POPC   C3A 1352   8.539  -0.474   8.109 -0.3380 -0.3433 -0.1711
   67POPC   C4A 1353   8.746  -0.528   7.795 -0.1837 -0.0972 -0.1722
   67POPC   C1B 1354   7.716  -0.356   8.592  0.0827  0.1230  0.2815
   67POPC   C2B 1355   7.546  -0.401   8.130  0.3084 -0.3973 -0.3672
   67POPC   C3B 1356   7.610  -0.609   7.691  0.2450 -0.1809 -0.0296
   67POPC   C4B 1357   7.814  -1.004   7.650 -0.2865  0.2898 -0.0498
   68POPC   NC3 1358   6.705   4.016   9.101  0.0583 -0.0329  0.0404
   68POPC   PO4 1359   6.242   4.115   8.821 -0.1288  0.0304  0.0314
   68POPC   GL1 1360   6.372   4.059   8.413  0.0395 -0.3069  0.2261
   68POPC   GL2 1361   6.285   3.766   8.226  0.1074 -0.2866  0.0320
   68POPC   C1A 1362   6.166   4.242   7.954 -0.0545 -0.2207 -0.0031
   68POPC   D2A 1363   6.064   4.426   7.677  0.2130 -0.0727 -0.0528
   68POPC   C3A 1364   6.148   4.790   7.881 -0.1788 -0.0366 -0.0417
   68POPC   C4A 1365   6.409   4.901   8.154  0.0943  0.1174  0.1128
   68POPC   C1B 1366   6.284   3.799   7.847 -0.0187  0.3375 -0.1808
   68POPC   C2B 1367   6.319   4.089   7.513 -0.2376  0.3278  0.3111
   68POPC   C3B 1368   6.381   3.878   7.183 -0.1306 -0.0757  0.1400
   68POPC   C4B 1369   6.545   4.026   6.868 -0.1335 -0.2872 -0.2091
   69POPC   NC3 1370   2.507   2.105   8.869 -0.2396 -0.4649 -0.1482
   69POPC   PO4 1371   2.348   2.445   8.621 -0.0983 -0.0850 -0.0092
   69POPC   GL1 1372   2.437   2.445   8.195 -0.0241  0.0434  0.1232
   69POPC   GL2 1373   2.330   2.263   7.923 -0.0328  0.4940 -0.2689
   69POPC   C1A 1374   2.517   2.744   7.818  0.0169  0.0519 -0.2883
   69POPC   D2A 1375   2.535   3.118   7.627 -0.1332  0.0802  0.2736
   69POPC   C3A 1376   2.353   3.080   7.364  0.0933  0.1843  0.0692
   69POPC   C4A 1377   2.189   3.008   6.979 -0.0724  0.0929  0.1215
   69POPC   C1B 1378   2.404   2.083   7.562 -0.2503  0.0956  0.0479
   69POPC   C2B 1379   2.400   1.976   7.157  0.0907 -0.2844  0.1899
   69POPC   C3B 1380   2.286   1.586   6.903  0.0830  0.0592 -0.0533
   69POPC   C4B 1381   1.892   1.309   6.963 -0.1973 -0.1581  0.2669
   70POPC   NC3 1382  10.200   2.270   9.281 -0.1767  0.0607 -0.3807
   70POPC   PO4 1383   9.678   2.287   9.209  0.0100 -0.0491 -0.1542
   70POPC   GL1 1384   9.496   2.090   8.831  0.0217 -0.0358  0.4837
   70POPC   GL2 1385   9.056   2.059   8.640  0.1157 -0.0408  0.4089
   70POPC   C1A 1386   9.452   2.203   8.401  0.2020 -0.5254 -0.1132
   70POPC   D2A 1387   9.453   1.968   7.971  0.4226 -0.0563  0.1151
   70POPC   C3A 1388   9.065   1.948   7.643  0.0700  0.1627  0.1794
   70POPC   C4A 1389   8.766   1.971   7.259  0.3108  0.0877 -0.0287
   70POPC   C1B 1390   8.966   2.057   8.223 -0.0811  0.0524  0.2134
   70POPC   C2B 1391   9.065   2.310   7.955  0.2690 -0.1902 -0.2948
   70POPC   C3B 1392   9.053   2.404   7.527  0.1231  0.2903 -0.2317
   70POPC   C4B 1393   9.092   2.733   7.208 -0.1226  0.0082  0.0379
   71POPC   NC3 1394   6.987   8.054   9.673 -0.2388 -0.1302 -0.0525
   71POPC   PO4 1395   6.770   7.625   9.711  0.2252 -0.3212  0.3316
   71POPC   GL1 1396   6.893   7.730   9.311  0.1580  0.1749  0.0888
   71POPC   GL2 1397   6.635   7.907   9.258  0.2517  0.0854 -0.0334
   71POPC   C1A 1398   7.175   7.701   8.974 -0.0907 -0.2071 -0.0865
   71POPC   D2A 1399   7.105   7.831   8.547 -0.0804  0.1286 -0.0986
   71POPC   C3A 1400   7.417   7.864   8.364 -0.0955  0.3257  0.2676
   71POPC   C4A 1401   7.834   7.962   8.366 -0.0636 -0.3832  0.1297
   71POPC   C1B 1402   6.838   8.162   8.985 -0.1903  0.0539 -0.2265
   71POPC   C2B 1403   7.067   8.325   8.687 -0.2537  0.0806 -0.4049
   71POPC   C3B 1404   6.918   8.165   8.224  0.2822  0.0542  0.0439
   71POPC   C4B 1405   7.050   8.068   7.701 -0.1603  0.0115 -0.2707
   72POPC   NC3 1406   9.080   1.343   9.393 -0.0904  0.0648 -0.1630
   72POPC   PO4 1407   8.649   1.456   9.311 -0.2411  0.0911 -0.4320
   72POPC   GL1 1408   8.550   1.472   8.831  0.2639 -0.2769  0.0351
   72POPC   GL2 1409   8.762   1.227   8.791  0.1307  0.2558 -0.1411
   72POPC   C1A 1410   8.738   1.687   8.493  0.0807 -0.0090 -0.2290
   72POPC   D2A 1411   8.574   1.793   8.049 -0.1281 -0.2278 -0.3867
   72POPC   C3A 1412   8.296   1.425   7.802 -0.1967 -0.2935  0.0086
   72POPC   C4A 1413   7.849   1.517   7.603 -0.0262 -0.0582 -0.1210
   72POPC   C1B 1414   8.766   1.010   8.406  0.1374  0.2919 -0.1427
   72POPC   C2B 1415   8.947   0.813   8.120 -0.0894  0.0619  0.1466
   72POPC   C3B 1416   9.017   0.859   7.674  0.0587  0.0053 -0.1121
   72POPC   C4B 1417   8.691   1.017   7.398 -0.0112 -0.2659  0.2335
   73POPC   NC3 1418   1.001   3.072   9.021  0.2114 -0.1878 -0.2503
   73POPC   PO4 1419   0.733   2.688   9.009 -0.1682  0.2699 -0.0546
   73POPC   GL1 1420   0.399   2.794   8.665  0.0851 -0.0877 -0.0097
   73POPC   GL2 1421   0.561   2.751   8.336  0.1841 -0.1785 -0.2238
   73POPC   C1A 1422   0.200   3.120   8.471  0.1632 -0.2572 -0.2128
   73POPC   D2A 1423  -0.110   3.441   8.216  0.0720 -0.3005  0.0608
   73POPC   C3A 1424  -0.127   3.861   8.021  0.0990  0.0877 -0.4281
   73POPC   C4A 1425  -0.470   4.134   7.744 -0.0751 -0.0501  0.1252
   73POPC   C1B 1426   0.272   2.999   7.985 -0.0310 -0.1064 -0.2080
   73POPC   C2B 1427   0.157   2.909   7.571  0.1459 -0.2648 -0.0968
   73POPC   C3B 1428   0.076   2.797   7.209 -0.4121 -0.1639  0.2221
   73POPC   C4B 1429  -0.219   2.553   7.003 -0.0376  0.0827 -0.1369
   74POPC   NC3 1430   0.738   0.884   8.990 -0.0770 -0.2218 -0.2682
   74POPC   PO4 1431   0.954   1.307   8.921  0.3795  0.1411 -0.0716
   74POPC   GL1 1432   0.534   1.295   8.839  0.1691  0.0804 -0.2930
   74POPC   GL2 1433   0.246   1.302   8.886  0.0486 -0.2508  0.1902
   74POPC   C1A 1434   0.440   1.080   8.370  0.0215 -0.3206  0.2265
   74POPC   D2A 1435   0.389   1.009   7.941 -0.0489  0.2118  0.1986
   74POPC   C3A 1436   0.448   1.261   7.525 -0.0903  0.0465 -0.0352
   74POPC   C4A 1437   0.406   1.385   7.054 -0.0134  0.1109  0.2321
   74POPC   C1B 1438   0.020   1.326   8.578 -0.0143 -0.0225  0.0713
   74POPC   C2B 1439   0.147   1.431   8.192 -0.1165 -0.1680  0.2304
   74POPC   C3B 1440  -0.000   1.670   7.765 -0.1000 -0.1028  0.0395
   74POPC   C4B 1441   0.040   1.556   7.342 -0.0413 -0.1886 -0.2114
   75POPC   NC3 1442   7.718   7.555  10.652 -0.0601 -0.1227 -0.0073
   75POPC   PO4 1443   7.884   7.759  10.189 -0.0569 -0.0040 -0.0666
   75POPC   GL1 1444   7.819   7.674   9.747 -0.2665 -0.3357  0.1079
   75POPC   GL2 1445   8.083   7.567   9.751 -0.2211 -0.3336 -0.1636
   75POPC   C1A 1446   7.912   7.268   9.451  0.2009 -0.3006  0.1695
   75POPC   D2A 1447   7.871   7.310   8.991 -0.5100  0.0172  0.1625
   75POPC   C3A 1448   8.022   6.983   8.777 -0.4516  0.0180 -0.0636
   75POPC   C4A 1449   8.426   6.657   8.822 -0.1931  0.2223  0.1861
   75POPC   C1B 1450   8.387   7.899   9.538  0.3524  0.0527 -0.0567
   75POPC   C2B 1451   8.427   8.226   9.051  0.1944  0.2224  0.0340
   75POPC   C3B 1452   8.246   8.362   8.727 -0.0006 -0.0491  0.0503
   75POPC   C4B 1453   7.984   8.516   8.433 -0.0598 -0.1508  0.1088
   76POPC   NC3 1454   1.700   9.521   9.579  0.1947 -0.2281  0.1241
   76POPC   PO4 1455   1.701   9.981   9.472  0.0832  0.2272 -0.1205
   76POPC   GL1 1456   1.748   9.924   9.021  0.1412 -0.0307  0.3247
   76POPC   GL2 1457   1.545  10.177   8.807 -0.0441 -0.0345  0.3816
   76POPC   C1A 1458   1.877   9.882   8.534 -0.2194 -0.2094  0.0973
   76POPC   D2A 1459   1.926   9.945   8.074 -0.0932 -0.2404  0.3316
   76POPC   C3A 1460   2.232   9.676   7.914 -0.0033 -0.1743 -0.2810
   76POPC   C4A 1461   2.283   9.520   7.497 -0.0828  0.0428  0.3076
   76POPC   C1B 1462   1.551  10.196   8.291 -0.1669 -0.1776  0.0493
   76POPC   C2B 1463   1.457  10.099   7.872 -0.0560  0.0968  0.0189
   76POPC   C3B 1464   1.285   9.814   7.640 -0.0717 -0.3994 -0.1917
   76POPC   C4B 1465   0.865   9.566   7.672  0.0255  0.2548 -0.1715
   77POPC   NC3 1466   5.270   8.888   9.342  0.2521 -0.0602 -0.1535
   77POPC   PO4 1467   5.644   8.763   9.484  0.0527 -0.1193  0.0074
   77POPC   GL1 1468   5.738   8.785   9.042 -0.2214  0.1780 -0.1382
   77POPC   GL2 1469   6.050   8.686   8.923  0.4224  0.1294  0.1196
   77POPC   C1A 1470   5.613   8.741   8.636  0.1759 -0.0403  0.3152
   77POPC   D2A 1471   5.629   8.667   8.242  0.0413  0.2476  0.0668
   77POPC   C3A 1472   5.658   8.234   8.325 -0.1139  0.0369  0.0207
   77POPC   C4A 1473   5.952   8.003   8.501  0.2123 -0.2788  0.0695
   77POPC   C1B 1474   6.080   8.950   8.578 -0.0767  0.2242  0.1192
   77POPC   C2B 1475   5.830   9.082   8.241 -0.2952  0.4451 -0.0712
   77POPC   C3B 1476   6.001   9.362   8.037 -0.3195  0.1302  0.0008
   77POPC   C4B 1477   6.290   9.255   7.699  0.0680  0.0379 -0.3769
   78POPC   NC3 1478   8.096   9.688  10.435  0.0225 -0.0416  0.1065
   78POPC   PO4 1479   8.057   9.273  10.224  0.1539 -0.3638 -0.0616
   78POPC   GL1 1480   8.362   9.238   9.823  0.0592 -0.3522  0.0005
   78POPC   GL2 1481   8.610   8.814   9.814  0.2403 -0.3113 -0.3150
   78POPC   C1A 1482   8.455   9.141   9.395 -0.1226 -0.1021  0.2010
   78POPC   D2A 1483   8.586   8.763   9.233 -0.2139 -0.3103 -0.1091
   78POPC   C3A 1484   8.881   8.744   9.006 -0.1227 -0.1958 -0.2649
   78POPC   C4A 1485   8.976   8.623   8.510  0.2046  0.0017 -0.0043
   78POPC   C1B 1486   8.914   9.048   9.513  0.2016  0.2432 -0.0051
   78POPC   C2B 1487   8.945   9.288   9.196  0.1701  0.0177  0.1784
   78POPC   C3B 1488   9.050   9.595   8.979  0.0181  0.2779 -0.0905
   78POPC   C4B 1489   9.131   9.989   8.682  0.1425  0.3479  0.1102
   79POPC   NC3 1490   5.140   8.110   9.044 -0.1150 -0.1625 -0.0858
   79POPC   PO4 1491   5.114   7.723   9.095  0.0315  0.2018 -0.4274
   79POPC   GL1 1492   5.056   7.674   8.685 -0.0460  0.0817 -0.1496
   79POPC   GL2 1493   4.903   8.000   8.578  0.2174  0.2308  0.0282
   79POPC   C1A 1494   4.920   7.623   8.190  0.4056  0.1802 -0.1860
   79POPC   D2A 1495   4.816   7.634   7.712  0.2625 -0.0105  0.0983
   79POPC   C3A 1496   4.435   7.557   7.357  0.3143  0.0801 -0.4863
   79POPC   C4A 1497   4.337   7.267   7.272  0.3212 -0.0521  0.1494
   79POPC   C1B 1498   4.918   8.096   8.062 -0.0230  0.2980  0.1629
   79POPC   C2B 1499   4.911   8.351   7.598 -0.0643 -0.3218 -0.3185
   79POPC   C3B 1500   4.933   8.774   7.555 -0.2243 -0.1149  0.2746
   79POPC   C4B 1501   4.909   9.159   7.389 -0.2491 -0.2851 -0.2238
   80POPC   NC3 1502   3.168   0.482   8.952 -0.3177  0.0113 -0.4038
   80POPC   PO4 1503   3.117   0.089   9.074 -0.1194 -0.4793 -0.2167
   80POPC   GL1 1504   2.790   0.178   8.727  0.1493 -0.0332  0.0944
   80POPC   GL2 1505   2.873  -0.151   8.719  0.1253 -0.0608 -0.0293
   80POPC   C1A 1506   2.742   0.240   8.236  0.1397 -0.0411  0.2541
   80POPC   D2A 1507   2.848   0.118   7.860  0.0263  0.0223 -0.0093
   80POPC   C3A 1508   2.634   0.133   7.447  0.2941  0.2145  0.1440
   80POPC   C4A 1509   2.473   0.067   7.075  0.1902  0.1905 -0.0598
   80POPC   C1B 1510   3.090  -0.161   8.291 -0.0282 -0.0366 -0.2004
   80POPC   C2B 1511   3.223  -0.249   7.889  0.2455 -0.0081  0.2632
   80POPC   C3B 1512   3.268  -0.112   7.435 -0.2030  0.1613  0.0917
   80POPC   C4B 1513   3.497   0.059   7.052  0.0581  0.0941  0.2224
   81POPC   NC3 1514   8.313   3.821   9.338 -0.0857  0.1996 -0.0424
   81POPC   PO4 1515   7.890   3.769   9.213 -0.5003 -0.0339  0.2788
   81POPC   GL1 1516   7.673   3.814   8.867  0.3651 -0.1683 -0.1220
   81POPC   GL2 1517   7.521   4.025   8.691  0.0748 -0.0609  0.0664
   81POPC   C1A 1518   7.842   3.722   8.437 -0.2238  0.2975 -0.0035
   81POPC   D2A 1519   7.827   3.818   8.083 -0.2691 -0.2296 -0.0730
   81POPC   C3A 1520   8.149   3.850   7.819 -0.0245 -0.1025  0.0636
   81POPC   C4A 1521   8.463   3.676   7.535 -0.1350 -0.0932  0.0328
   81POPC   C1B 1522   7.907   4.182   8.479  0.2211 -0.3170  0.5195
   81POPC   C2B 1523   8.216   4.292   8.265  0.0630 -0.0781  0.5730
   81POPC   C3B 1524   8.247   4.454   7.815 -0.2266  0.0342  0.1241
   81POPC   C4B 1525   8.130   4.677   7.486 -0.4609  0.0650  0.0203
   82POPC   NC3 1526  10.173   3.339   9.042  0.2749  0.0652 -0.0695
   82POPC   PO4 1527  10.437   3.649   9.185  0.1469  0.4629 -0.1808
   82POPC   GL1 1528  10.465   3.660   8.625  0.1363  0.0423  0.0187
   82POPC   GL2 1529  10.485   3.991   8.727 -0.1229  0.0509 -0.0059
   82POPC   C1A 1530  10.628   3.502   8.237  0.0076 -0.1952 -0.0929
   82POPC   D2A 1531  10.805   3.631   7.755 -0.0510  0.3321 -0.3468
   82POPC   C3A 1532  10.813   3.953   7.401  0.0615  0.2369  0.0376
   82POPC   C4A 1533  10.659   4.473   7.386  0.2170  0.4546  0.2064
   82POPC   C1B 1534  10.513   4.042   8.313  0.0237 -0.0122 -0.1046
   82POPC   C2B 1535  10.554   4.431   8.153  0.0175 -0.0667  0.1701
   82POPC   C3B 1536  10.495   4.730   7.796  0.1023  0.0341 -0.0304
   82POPC   C4B 1537  10.506   4.970   7.404 -0.1770  0.0627  0.0960
   83POPC   NC3 1538   7.674   6.022   9.418 -0.0169  0.0731 -0.1390
   83POPC   PO4 1539   7.256   6.143   9.318  0.4452 -0.2667  0.2541
   83POPC   GL1 1540   7.243   6.299   8.878  0.3225  0.1245 -0.0854
   83POPC   GL2 1541   7.546   6.392   8.817 -0.3584  0.1280  0.0503
   83POPC   C1A 1542   7.262   6.129   8.457 -0.0800  0.2558 -0.1760
   83POPC   D2A 1543   7.423   6.150   8.061  0.0908 -0.3995 -0.2135
   83POPC   C3A 1544   7.569   5.880   7.779  0.0130  0.0275 -0.0880
   83POPC   C4A 1545   7.746   5.946   7.339  0.1633  0.1144 -0.1484
   83POPC   C1B 1546   7.771   6.076   8.600  0.1189  0.2920 -0.0813
   83POPC   C2B 1547   7.728   5.721   8.320  0.4106 -0.0822  0.1170
   83POPC   C3B 1548   8.035   5.776   8.053 -0.0049 -0.2200 -0.4032
   83POPC   C4B 1549   8.576   5.748   8.062  0.0030 -0.0186 -0.0427
   84POPC   NC3 1550   3.784   2.471   9.577  0.0312  0.1746  0.2683
   84POPC   PO4 1551   3.794   2.195   9.225 -0.0493  0.0088 -0.0138
   84POPC   GL1 1552   3.813   2.185   8.761  0.1001  0.5716  0.0955
   84POPC   GL2 1553   3.822   2.445   8.675 -0.2524  0.0637  0.2510
   84POPC   C1A 1554   4.140   2.173   8.433 -0.0039  0.4122  0.3910
   84POPC   D2A 1555   4.479   1.852   8.324 -0.3572 -0.2075  0.0595
   84POPC   C3A 1556   4.600   1.744   7.947 -0.1073  0.0665  0.2410
   84POPC   C4A 1557   4.778   1.286   8.022  0.0068 -0.1891 -0.0618
   84POPC   C1B 1558   3.850   2.806   8.356 -0.1177  0.1540  0.0179
   84POPC   C2B 1559   4.195   2.678   8.070 -0.0723 -0.1582  0.0505
   84POPC   C3B 1560   4.482   2.529   8.175  0.0316 -0.1115  0.0037
   84POPC   C4B 1561   4.635   2.345   8.394 -0.1636  0.1228  0.0793
   85POPC   NC3 1562   1.372   7.942   9.851 -0.0895 -0.1303  0.1289
   85POPC   PO4 1563   1.376   8.359  10.071 -0.4106 -0.1217 -0.1030
   85POPC   GL1 1564   1.321   8.462   9.641 -0.0831 -0.0481 -0.1520
   85POPC   GL2 1565   1.133   8.218   9.474  0.0295 -0.1819 -0.0101
   85POPC   C1A 1566   1.076   8.760   9.393  0.3512  0.0718 -0.3679
   85POPC   D2A 1567   1.058   8.620   8.972 -0.0299  0.1057  0.3705
   85POPC   C3A 1568   1.043   8.243   8.940  0.1074 -0.0700 -0.0535
   85POPC   C4A 1569   1.067   8.052   8.560  0.2105 -0.0804 -0.2362
   85POPC   C1B 1570   1.518   8.317   9.208 -0.1769  0.1583 -0.2378
   85POPC   C2B 1571   1.495   8.410   8.784  0.1595  0.1847 -0.2001
   85POPC   C3B 1572   1.347   8.506   8.399  0.1216  0.2078 -0.2906
   85POPC   C4B 1573   1.425   8.687   7.928 -0.3713 -0.1284 -0.1801
   86POPC   NC3 1574   0.814   6.813  10.249  0.1579  0.1037  0.3748
   86POPC   PO4 1575   0.498   6.604  10.043 -0.0197 -0.3321 -0.2552
   86POPC   GL1 1576   0.529   6.692   9.611  0.0448 -0.0214 -0.1570
   86POPC   GL2 1577   0.227   6.621   9.535  0.1347 -0.2760  0.1647
   86POPC   C1A 1578   0.694   6.954   9.262 -0.0712 -0.0050  0.0219
   86POPC   D2A 1579   0.893   7.331   9.166  0.3068 -0.1652 -0.3124
   86POPC   C3A 1580   0.923   7.728   9.277  0.2024 -0.0179  0.0129
   86POPC   C4A 1581   0.682   8.146   9.300  0.1512 -0.2016 -0.2920
   86POPC   C1B 1582   0.300   6.527   9.063 -0.0083  0.1295  0.1869
   86POPC   C2B 1583   0.455   6.418   8.568  0.0494 -0.1022  0.0356
   86POPC   C3B 1584   0.620   6.456   8.130 -0.4412  0.2595  0.1621
   86POPC   C4B 1585   0.942   6.532   7.797 -0.1306 -0.1869  0.0312
   87POPC   NC3 1586   2.555   8.286  10.001  0.5819 -0.1553  0.0814
   87POPC   PO4 1587   2.202   8.009   9.873 -0.1593 -0.0187 -0.1512
   87POPC   GL1 1588   2.406   7.945   9.459  0.0710 -0.0643  0.2360
   87POPC   GL2 1589   2.603   8.160   9.393  0.1817 -0.0827  0.2921
   87POPC   C1A 1590   2.459   7.766   9.043 -0.0844 -0.2039 -0.0708
   87POPC   D2A 1591   2.407   7.453   8.714  0.1039  0.0240 -0.1122
   87POPC   C3A 1592   2.463   7.528   8.278  0.1812 -0.0698  0.2921
   87POPC   C4A 1593   2.294   7.736   7.946 -0.2171 -0.3521 -0.2422
   87POPC   C1B 1594   2.611   8.285   9.003  0.0975 -0.0787 -0.0168
   87POPC   C2B 1595   2.766   8.441   8.581  0.0009  0.0858 -0.0178
   87POPC   C3B 1596   2.942   8.456   8.104 -0.0998 -0.2928 -0.2452
   87POPC   C4B 1597   3.054   8.339   7.659  0.1925  0.3750 -0.1184
   88POPC   NC3 1598   0.949   9.942  10.348 -0.1127  0.0856  0.2378
   88POPC   PO4 1599   0.666   9.742  10.125 -0.1651 -0.0074 -0.0270
   88POPC   GL1 1600   0.696   9.675   9.681  0.0172 -0.0558  0.0165
   88POPC   GL2 1601   0.390   9.607   9.428  0.4772 -0.1109 -0.1760
   88POPC   C1A 1602   0.886   9.628   9.176  0.0680 -0.2150  0.0413
   88POPC   D2A 1603   1.159   9.851   8.986  0.1362 -0.1849  0.0645
   88POPC   C3A 1604   1.320   9.792   8.600  0.0515 -0.0513  0.0399
   88POPC   C4A 1605   1.517   9.683   8.140  0.2875  0.1337 -0.0452
   88POPC   C1B 1606   0.436   9.745   8.977 -0.3082  0.1324  0.4100
   88POPC   C2B 1607   0.639   9.401   8.738  0.3584 -0.0845 -0.1916
   88POPC   C3B 1608   0.704   8.966   8.648  0.2552 -0.0281 -0.2639
   88POPC   C4B 1609   0.786   8.557   8.472 -0.1001 -0.1677  0.0435
   89POPC   NC3 1610   3.980   7.294   9.206  0.1450 -0.0406  0.0601
   89POPC   PO4 1611   4.418   7.273   9.080  0.2264 -0.5523 -0.0745
   89POPC   GL1 1612   4.203   7.409   8.737 -0.1727 -0.2464 -0.0764
   89POPC   GL2 1613   4.070   7.659   8.724  0.2540 -0.3007  0.1276
   89POPC   C1A 1614   4.353   7.379   8.360  0.4253 -0.1245  0.1269
   89POPC   D2A 1615   4.368   7.368   7.804  0.0231 -0.0252 -0.2623
   89POPC   C3A 1616   4.449   6.980   7.639  0.0000  0.5294  0.0983
   89POPC   C4A 1617   4.687   6.673   7.334 -0.0876  0.0716  0.4410
   89POPC   C1B 1618   3.714   7.826   8.363 -0.0607 -0.0788  0.0569
   89POPC   C2B 1619   3.875   8.181   8.041  0.0835  0.0195 -0.2981
   89POPC   C3B 1620   3.953   8.534   7.959  0.1316  0.1051 -0.0718
   89POPC   C4B 1621   4.089   8.903   7.866 -0.1623  0.1027 -0.1371
   90POPC   NC3 1622   3.837   4.156   8.911 -0.0916  0.0578  0.1142
   90POPC   PO4 1623   3.553   4.527   8.910 -0.0246 -0.1708 -0.2631
   90POPC   GL1 1624   3.459   4.686   8.513  0.2031 -0.1286 -0.1305
   90POPC   GL2 1625   3.314   5.001   8.574 -0.0793  0.1345 -0.0184
   90POPC   C1A 1626   3.740   4.804   8.152 -0.0552 -0.0106 -0.4137
   90POPC   D2A 1627   3.748   5.014   7.793  0.0065  0.4370 -0.0045
   90POPC   C3A 1628   3.817   4.940   7.451  0.1530 -0.1361  0.0906
   90POPC   C4A 1629   4.038   4.662   7.180 -0.3359 -0.1484 -0.1103
   90POPC   C1B 1630   3.404   5.221   8.138  0.1649  0.0005 -0.1019
   90POPC   C2B 1631   3.455   5.394   7.726  0.4910  0.4747  0.2130
   90POPC   C3B 1632   3.036   5.238   7.393 -0.2813  0.1120  0.2879
   90POPC   C4B 1633   3.110   5.202   6.986 -0.1033  0.0159 -0.3972
   91POPC   NC3 1634   7.835   3.153   9.212  0.3255  0.2592  0.0101
   91POPC   PO4 1635   8.196   3.336   9.056 -0.4747  0.5033 -0.2987
   91POPC   GL1 1636   8.276   3.545   8.613 -0.2280  0.1085  0.1868
   91POPC   GL2 1637   8.344   3.875   8.448 -0.1609  0.0423  0.0224
   91POPC   C1A 1638   8.294   3.475   8.096  0.0489  0.0188  0.0219
   91POPC   D2A 1639   7.910   3.357   7.841 -0.1438  0.0178  0.1013
   91POPC   C3A 1640   7.976   3.574   7.440 -0.3625  0.1571  0.2168
   91POPC   C4A 1641   7.973   3.573   7.029  0.1973  0.0549 -0.0984
   91POPC   C1B 1642   8.645   3.826   8.010  0.4388 -0.2669 -0.0966
   91POPC   C2B 1643   8.950   3.758   7.642 -0.0529 -0.2537  0.2208
   91POPC   C3B 1644   9.380   3.737   7.667 -0.0570 -0.1970 -0.0337
   91POPC   C4B 1645   9.696   3.433   7.783 -0.0500  0.2841  0.3452
   92POPC   NC3 1646   8.593   2.700   9.241 -0.3643 -0.2535 -0.1920
   92POPC   PO4 1647   8.877   2.891   9.551  0.1168 -0.1630 -0.0659
   92POPC   GL1 1648   9.084   3.088   9.283 -0.3668 -0.2485  0.2390
   92POPC   GL2 1649   8.808   3.234   9.171  0.2038  0.1089 -0.2074
   92POPC   C1A 1650   9.418   3.252   8.940 -0.0518 -0.2674 -0.0343
   92POPC   D2A 1651   9.800   3.253   8.677  0.1834  0.0519  0.2112
   92POPC   C3A 1652   9.657   3.581   8.372  0.0941 -0.1508 -0.0475
   92POPC   C4A 1653   9.601   3.871   8.108 -0.0309  0.0723  0.0004
   92POPC   C1B 1654   8.959   3.149   8.797 -0.0176  0.2262 -0.0450
   92POPC   C2B 1655   9.259   3.125   8.458  0.0765 -0.1322 -0.1613
   92POPC   C3B 1656   9.645   3.078   8.215 -0.1250  0.1170 -0.3307
   92POPC   C4B 1657   9.655   2.584   8.023 -0.2069  0.1364 -0.2721
   93POPC   NC3 1658   1.534   5.265   9.548 -0.1166 -0.0977  0.2744
   93POPC   PO4 1659   1.559   5.748   9.634  0.1682  0.1683  0.1104
   93POPC   GL1 1660   1.674   5.903   9.272  0.1597  0.1154 -0.2195
   93POPC   GL2 1661   2.056   5.915   9.149  0.1812  0.1153  0.2134
   93POPC   C1A 1662   1.699   6.150   8.863  0.1003 -0.3425 -0.2843
   93POPC   D2A 1663   1.771   6.146   8.459  0.3103  0.2109  0.3909
   93POPC   C3A 1664   2.320   6.152   8.332  0.1933 -0.1040  0.2224
   93POPC   C4A 1665   2.684   6.162   8.367 -0.2624  0.3301  0.5262
   93POPC   C1B 1666   2.159   6.199   8.792  0.1596 -0.1574  0.2155
   93POPC   C2B 1667   2.087   6.629   8.508  0.0448 -0.4525  0.1601
   93POPC   C3B 1668   2.096   6.857   8.178  0.0080  0.2277  0.0362
   93POPC   C4B 1669   2.022   6.850   7.822 -0.0063 -0.1530  0.0221
   94POPC   NC3 1670   2.559   0.973   9.039 -0.4201 -0.0080  0.3546
   94POPC   PO4 1671   2.146   1.066   8.908 -0.0790  0.0153  0.0661
   94POPC   GL1 1672   2.174   1.014   8.507 -0.1688 -0.0755  0.0968
   94POPC   GL2 1673   2.464   0.914   8.314  0.1333 -0.4159  0.1664
   94POPC   C1A 1674   2.144   1.107   7.943  0.1218  0.1020 -0.0076
   94POPC   D2A 1675   2.425   1.005   7.627 -0.0488  0.0467  0.2216
   94POPC   C3A 1676   2.688   0.748   7.770  0.0170 -0.0966  0.0078
   94POPC   C4A 1677   2.995   0.695   8.049  0.1303 -0.4027 -0.2625
   94POPC   C1B 1678   2.593   1.292   8.127  0.0313 -0.0135  0.0979
   94POPC   C2B 1679   2.603   1.507   7.720 -0.0301 -0.0071 -0.0240
   94POPC   C3B 1680   2.353   1.502   7.392 -0.0364  0.2683  0.1871
   94POPC   C4B 1681   1.975   1.260   7.538  0.0183  0.4777  0.4069
   95POPC   NC3 1682   5.800   5.614   8.864  0.0208  0.2818  0.0424
   95POPC   PO4 1683   5.686   5.260   8.726  0.0145  0.0163  0.0285
   95POPC   GL1 1684   5.764   5.293   8.359  0.0151 -0.0417  0.3998
   95POPC   GL2 1685   5.880   5.613   8.377  0.3684 -0.1720  0.2619
   95POPC   C1A 1686   5.936   5.216   7.988  0.1633 -0.1744 -0.0975
   95POPC   D2A 1687   5.680   5.448   7.701  0.1265 -0.3044 -0.0711
   95POPC   C3A 1688   5.418   5.302   7.339 -0.1381 -0.2243  0.1167
   95POPC   C4A 1689   5.247   5.310   6.938 -0.0491 -0.1360 -0.0682
   95POPC   C1B 1690   6.258   5.558   8.192 -0.0355  0.0762 -0.2469
   95POPC   C2B 1691   6.626   5.570   7.915 -0.0278  0.1228  0.2001
   95POPC   C3B 1692   6.709   5.655   7.482  0.1516 -0.0650  0.0068
   95POPC   C4B 1693   6.903   5.398   7.224  0.0965  0.0651  0.1911
   96POPC   NC3 1694   6.321   3.162   9.290 -0.1873 -0.0223  0.2059
   96POPC   PO4 1695   6.584   3.485   9.034  0.3044  0.1443  0.0478
   96POPC   GL1 1696   6.633   3.575   8.618 -0.2710  0.1467 -0.1676
   96POPC   GL2 1697   6.451   3.299   8.344  0.0443 -0.3516 -0.2127
   96POPC   C1A 1698   6.790   3.750   8.303  0.1676 -0.1194  0.3963
   96POPC   D2A 1699   6.970   4.056   8.064  0.1714 -0.2331 -0.1344
   96POPC   C3A 1700   7.120   4.170   7.603  0.0847 -0.0546 -0.2388
   96POPC   C4A 1701   7.298   4.201   7.277 -0.0603  0.0682 -0.4833
   96POPC   C1B 1702   6.604   3.441   7.924 -0.0661  0.3369  0.1592
   96POPC   C2B 1703   6.747   3.852   7.575 -0.2696  0.0443 -0.3931
   96POPC   C3B 1704   6.997   3.787   7.187  0.2224  0.0861 -0.2988
   96POPC   C4B 1705   7.416   3.794   7.067 -0.1229  0.0499 -0.0104
   97POPC   NC3 1706   2.873   5.409   9.107  0.1112  0.0415  0.1942
   97POPC   PO4 1707   2.554   5.120   9.257  0.0223  0.1866 -0.0160
   97POPC   GL1 1708   2.641   4.926   8.921 -0.0085  0.0499 -0.1417
   97POPC   GL2 1709   2.859   5.073   8.735  0.1182 -0.1733  0.0723
   97POPC   C1A 1710   2.391   4.867   8.545 -0.2126 -0.1107 -0.0399
   97POPC   D2A 1711   2.379   5.075   8.072  0.1617 -0.2412 -0.1002
   97POPC   C3A 1712   2.063   5.283   7.942  0.1741  0.0783  0.0553
   97POPC   C4A 1713   1.671   5.065   8.119 -0.0376 -0.1576  0.1761
   97POPC   C1B 1714   2.662   5.319   8.418  0.0238  0.0723 -0.0911
   97POPC   C2B 1715   2.793   5.701   8.335 -0.0399  0.0842  0.0507
   97POPC   C3B 1716   2.831   5.896   7.921  0.1741  0.4023  0.2030
   97POPC   C4B 1717   3.100   5.658   7.534  0.1149  0.1918 -0.0921
   98POPC   NC3 1718   3.290   1.586   8.699 -0.2320  0.0822 -0.1782
   98POPC   PO4 1719   2.755   1.739   8.703 -0.2190  0.0393  0.1340
   98POPC   GL1 1720   2.922   1.719   8.347 -0.2709  0.3078 -0.1526
   98POPC   GL2 1721   2.770   1.825   8.102 -0.0873 -0.3223  0.0043
   98POPC   C1A 1722   3.112   1.619   7.877  0.0070  0.0363 -0.0896
   98POPC   D2A 1723   3.431   1.304   7.822 -0.1207 -0.1068  0.2558
   98POPC   C3A 1724   3.628   1.224   7.324  0.0365 -0.2063 -0.0776
   98POPC   C4A 1725   3.590   1.239   6.908 -0.2073 -0.1795  0.1586
   98POPC   C1B 1726   2.968   2.012   7.640  0.1187  0.2713 -0.0747
   98POPC   C2B 1727   2.818   1.714   7.309  0.0474 -0.1091 -0.2885
   98POPC   C3B 1728   2.750   1.774   6.770  0.0886  0.3096  0.1385
   98POPC   C4B 1729   2.509   2.187   6.677  0.1808  0.1324  0.1795
   99POPC   NC3 1730   8.182   1.492   9.373 -0.1579  0.0203 -0.1358
   99POPC   PO4 1731   8.125   1.093   9.384  0.3452 -0.1248 -0.1860
   99POPC   GL1 1732   8.285   1.047   8.917 -0.3941  0.4288 -0.2363
   99POPC   GL2 1733   8.105   1.200   8.662 -0.0180 -0.2684 -0.4390
   99POPC   C1A 1734   8.393   0.731   8.562  0.2143  0.0044  0.1558
   99POPC   D2A 1735   8.722   0.411   8.373 -0.1868 -0.0761 -0.2427
   99POPC   C3A 1736   8.710  -0.029   8.527  0.2208  0.1052 -0.2395
   99POPC   C4A 1737   8.675  -0.453   8.654  0.0957 -0.1702 -0.3317
   99POPC   C1B 1738   8.273   1.127   8.272  0.1630 -0.3023  0.3933
   99POPC   C2B 1739   8.493   0.940   7.989  0.1696 -0.4484  0.0568
   99POPC   C3B 1740   8.237   0.756   7.729  0.2420 -0.0848 -0.1337
   99POPC   C4B 1741   8.091   0.650   7.276  0.3707 -0.2784  0.0332
  100POPC   NC3 1742   5.947   0.639   9.099 -0.1949 -0.2833  0.2528
  100POPC   PO4 1743   5.520   0.823   9.047 -0.1544  0.0159 -0.1959
  100POPC   GL1 1744   5.665   0.856   8.621 -0.0015 -0.0636  0.1783
  100POPC   GL2 1745   5.452   1.021   8.492  0.0835  0.3377 -0.0573
  100POPC   C1A 1746   5.769   0.578   8.268 -0.1526 -0.3008  0.0029
  100POPC   D2A 1747   5.582   0.486   7.932 -0.3554  0.0351 -0.2020
  100POPC   C3A 1748   6.112   0.453   7.662  0.2044  0.4509 -0.1234
  100POPC   C4A 1749   6.443   0.616   7.579 -0.3184 -0.0830 -0.2654
  100POPC   C1B 1750   5.275   1.177   8.134 -0.1281  0.0989 -0.4127
  100POPC   C2B 1751   5.211   1.048   7.764  0.0935  0.1720  0.0445
  100POPC   C3B 1752   5.472   0.899   7.461 -0.2674  0.1476  0.1724
  100POPC   C4B 1753   5.636   0.474   7.449 -0.0549  0.2484  0.4581
  101POPC   NC3 1754   7.003   6.432   9.713  0.2892  0.2360 -0.3372
  101POPC   PO4 1755   6.805   6.371   9.236 -0.1086 -0.3953 -0.0581
  101POPC   GL1 1756   6.708   6.373   8.840  0.0861  0.0955  0.0709
  101POPC   GL2 1757   6.419   6.354   8.743  0.0776 -0.0567 -0.2364
  101POPC   C1A 1758   6.782   6.387   8.406  0.3375 -0.0930  0.0928
  101POPC   D2A 1759   7.061   6.573   8.186  0.1744 -0.1368  0.1302
  101POPC   C3A 1760   7.197   6.476   7.713  0.4954 -0.0352  0.0495
  101POPC   C4A 1761   6.910   6.635   7.313 -0.0284  0.0505 -0.1306
  101POPC   C1B 1762   6.177   6.533   8.322  0.0817  0.1081  0.1100
  101POPC   C2B 1763   6.019   6.535   7.913  0.1185 -0.1590 -0.2770
  101POPC   C3B 1764   6.020   6.386   7.506 -0.1107  0.2357 -0.0362
  101POPC   C4B 1765   6.022   6.578   7.162 -0.0203 -0.0845 -0.1472
  102POPC   NC3 1766   4.578  10.070   9.305  0.1253  0.1732 -0.1789
  102POPC   PO4 1767   4.253   9.764   9.147 -0.0607 -0.5149  0.0315
  102POPC   GL1 1768   4.157   9.717   8.704  0.0565  0.2318  0.0843
  102POPC   GL2 1769   3.810   9.643   8.695 -0.3355  0.3076 -0.1428
  102POPC   C1A 1770   4.270   9.424   8.315  0.1553  0.1951 -0.0900
  102POPC   D2A 1771   4.555   9.292   7.939 -0.3851 -0.3109  0.0950
  102POPC   C3A 1772   4.763   8.884   8.046 -0.2480  0.2360 -0.0214
  102POPC   C4A 1773   4.769   8.634   8.512 -0.1770  0.0868 -0.0453
  102POPC   C1B 1774   3.786   9.567   8.300 -0.0091  0.1182  0.2592
  102POPC   C2B 1775   3.663   9.726   7.917  0.0263  0.1626 -0.2577
  102POPC   C3B 1776   3.617   9.503   7.606  0.0421 -0.0753  0.1836
  102POPC   C4B 1777   3.979   9.302   7.453  0.1546  0.0943 -0.2441
  103POPC   NC3 1778   6.206   9.873   9.467  0.4616  0.0066  0.1170
  103POPC   PO4 1779   6.550   9.963   9.145  0.0741 -0.0408  0.0048
  103POPC   GL1 1780   6.432  10.101   8.748  0.4289 -0.4343 -0.0226
  103POPC   GL2 1781   6.101  10.034   8.543 -0.1039  0.1317  0.0500
  103POPC   C1A 1782   6.552  10.105   8.299  0.1271  0.0546  0.1532
  103POPC   D2A 1783   6.972  10.165   8.161 -0.2164 -0.3298 -0.0814
  103POPC   C3A 1784   7.295  10.052   7.796 -0.1891  0.0010  0.0140
  103POPC   C4A 1785   7.750  10.071   7.659  0.3834 -0.0766 -0.0117
  103POPC   C1B 1786   6.112   9.903   8.151  0.3017  0.1390 -0.0171
  103POPC   C2B 1787   6.087   9.756   7.762 -0.2084 -0.3484 -0.3102
  103POPC   C3B 1788   6.008   9.667   7.322  0.2987  0.2798 -0.0717
  103POPC   C4B 1789   6.188   9.346   7.178 -0.3450  0.0239 -0.0466
  104POPC   NC3 1790   1.583   6.207   9.848 -0.1751  0.1036 -0.1569
  104POPC   PO4 1791   1.781   6.595   9.947  0.3547 -0.2451  0.2652
  104POPC   GL1 1792   1.561   6.485   9.449  0.0407  0.0418 -0.3861
  104POPC   GL2 1793   1.906   6.497   9.380  0.0662 -0.0866  0.1287
  104POPC   C1A 1794   1.338   6.519   9.046  0.1679  0.2584 -0.0730
  104POPC   D2A 1795   1.151   6.958   8.939 -0.0818 -0.1508  0.0007
  104POPC   C3A 1796   1.375   7.414   8.997 -0.1682 -0.0858  0.0838
  104POPC   C4A 1797   1.523   7.814   8.814 -0.0816  0.1825 -0.2941
  104POPC   C1B 1798   1.963   6.625   8.974 -0.0224 -0.1462 -0.0508
  104POPC   C2B 1799   1.664   6.937   8.821 -0.5307 -0.0473 -0.0118
  104POPC   C3B 1800   1.495   7.300   8.555  0.1686  0.0740  0.2459
  104POPC   C4B 1801   1.424   7.617   8.276  0.0081  0.2152 -0.0452
  105POPC   NC3 1802   9.693   0.671   9.483  0.1375 -0.0575 -0.1693
  105POPC   PO4 1803   9.641   1.138   9.423 -0.2631  0.0544  0.2073
  105POPC   GL1 1804   9.500   1.200   9.015  0.1924  0.0148 -0.1061
  105POPC   GL2 1805   9.213   1.129   8.954 -0.0980 -0.0028 -0.0397
  105POPC   C1A 1806   9.523   1.535   8.681  0.1646 -0.3923  0.1358
  105POPC   D2A 1807   9.369   1.709   8.352 -0.0420 -0.1085 -0.2586
  105POPC   C3A 1808   9.025   1.609   8.076  0.2218  0.2709 -0.2197
  105POPC   C4A 1809   8.722   1.328   8.025  0.2156 -0.1703 -0.0761
  105POPC   C1B 1810   9.251   1.124   8.530  0.0587  0.0407  0.0695
  105POPC   C2B 1811   9.279   1.160   8.068  0.0271  0.0246 -0.2037
  105POPC   C3B 1812   9.354   1.314   7.666  0.1614  0.1158  0.0552
  105POPC   C4B 1813   9.229   1.032   7.270  0.0274  0.2444  0.0471
  106POPC   NC3 1814   9.843   0.227   9.907 -0.0291  0.1259  0.1658
  106POPC   PO4 1815  10.166   0.378   9.506 -0.4738  0.0617 -0.0432
  106POPC   GL1 1816  10.451   0.191   9.254  0.1937  0.0498 -0.1556
  106POPC   GL2 1817  10.340  -0.114   9.143 -0.0824 -0.1716  0.2911
  106POPC   C1A 1818  10.655   0.077   8.792 -0.0429  0.1972 -0.0139
  106POPC   D2A 1819  10.762   0.126   8.353 -0.3069  0.1745  0.1311
  106POPC   C3A 1820  10.480  -0.104   8.082  0.0612 -0.0104  0.2794
  106POPC   C4A 1821  10.269  -0.328   7.757  0.1048  0.0768  0.2879
  106POPC   C1B 1822  10.168  -0.061   8.738  0.1388  0.0939 -0.0542
  106POPC   C2B 1823  10.072   0.073   8.347  0.1581  0.0146  0.0297
  106POPC   C3B 1824   9.883  -0.183   8.071  0.2848 -0.0245  0.2083
  106POPC   C4B 1825   9.444  -0.090   7.839  0.0540  0.2582  0.0561
  107POPC   NC3 1826   6.114   6.421   9.140  0.0340  0.1945  0.2824
  107POPC   PO4 1827   6.004   6.089   8.853 -0.2177 -0.1817 -0.0753
  107POPC   GL1 1828   6.142   6.094   8.450  0.1019  0.1360 -0.0192
  107POPC   GL2 1829   5.902   6.049   8.187  0.1832 -0.5019  0.0680
  107POPC   C1A 1830   6.399   6.209   8.016 -0.1471  0.2658  0.1255
  107POPC   D2A 1831   6.676   6.322   7.617  0.1665 -0.2349 -0.1394
  107POPC   C3A 1832   6.459   6.456   7.263 -0.0542  0.2130 -0.1334
  107POPC   C4A 1833   6.435   6.785   7.028  0.2526  0.3021  0.2759
  107POPC   C1B 1834   5.995   5.924   7.808  0.5094  0.0711  0.1994
  107POPC   C2B 1835   6.230   5.606   7.603  0.1011 -0.0482 -0.1746
  107POPC   C3B 1836   6.128   5.493   7.215  0.0710  0.2625 -0.0517
  107POPC   C4B 1837   5.754   5.352   6.968  0.1352 -0.0884  0.1743
  108POPC   NC3 1838   4.657   8.104   9.382 -0.0141  0.1580 -0.1696
  108POPC   PO4 1839   4.673   8.316   9.030  0.3746  0.0681 -0.0258
  108POPC   GL1 1840   4.469   8.287   8.565 -0.0865  0.0721  0.1447
  108POPC   GL2 1841   4.379   7.978   8.492  0.0360  0.2370  0.0560
  108POPC   C1A 1842   4.458   8.363   8.126  0.1926 -0.5617  0.0163
  108POPC   D2A 1843   4.458   8.567   7.726  0.1116  0.0384 -0.1039
  108POPC   C3A 1844   4.373   8.558   7.340  0.1745  0.0331 -0.1173
  108POPC   C4A 1845   4.526   8.837   6.948  0.2765  0.1996  0.0324
  108POPC   C1B 1846   4.430   7.870   8.038  0.4092  0.0617 -0.1132
  108POPC   C2B 1847   4.549   8.001   7.613 -0.1366  0.2010 -0.0205
  108POPC   C3B 1848   4.358   8.001   7.223  0.2825  0.1212  0.2783
  108POPC   C4B 1849   4.034   8.248   7.056 -0.0404  0.2696  0.0142
  109POPC   NC3 1850   1.303   1.566   8.730  0.0422 -0.0483 -0.1101
  109POPC   PO4 1851   0.987   1.920   8.553  0.1398  0.3744  0.0988
  109POPC   GL1 1852   0.867   1.458   8.357 -0.4997 -0.0695  0.1168
  109POPC   GL2 1853   1.201   1.280   8.315 -0.2559  0.0674  0.1176
  109POPC   C1A 1854   0.827   1.288   7.939 -0.0476  0.0723 -0.3350
  109POPC   D2A 1855   0.827   0.962   7.673  0.1969  0.7218  0.2046
  109POPC   C3A 1856   0.793   1.047   7.281 -0.3642  0.2009  0.1495
  109POPC   C4A 1857   0.917   0.910   6.857  0.2478 -0.0758  0.1913
  109POPC   C1B 1858   1.206   1.672   7.972 -0.0497 -0.1173 -0.0242
  109POPC   C2B 1859   1.577   1.900   7.967 -0.0554 -0.1429  0.1416
  109POPC   C3B 1860   1.867   2.125   7.617 -0.0472  0.1068  0.2330
  109POPC   C4B 1861   1.944   2.282   7.172 -0.1805  0.0785 -0.0843
  110POPC   NC3 1862   5.192   1.633   9.307 -0.3264 -0.1647  0.1973
  110POPC   PO4 1863   4.689   1.780   9.198 -0.4334  0.2718  0.0769
  110POPC   GL1 1864   4.944   1.732   8.761 -0.0961 -0.2100  0.1207
  110POPC   GL2 1865   5.035   2.088   8.529 -0.0481  0.1601 -0.0116
  110POPC   C1A 1866   5.031   1.625   8.262 -0.1000 -0.0271  0.2699
  110POPC   D2A 1867   5.273   1.577   7.791  0.5132  0.0265  0.0694
  110POPC   C3A 1868   4.968   1.451   7.503  0.1326 -0.0688  0.3122
  110POPC   C4A 1869   4.782   1.389   7.098 -0.2089  0.4620 -0.5197
  110POPC   C1B 1870   4.943   2.161   8.046 -0.0620 -0.0904  0.2136
  110POPC   C2B 1871   4.978   2.012   7.696  0.1371  0.1580 -0.2575
  110POPC   C3B 1872   5.011   1.907   7.294  0.1118  0.0132 -0.3038
  110POPC   C4B 1873   5.045   1.709   6.838 -0.0613  0.0828 -0.2020
  111POPC   NC3 1874   8.905   0.025   9.563 -0.0036  0.2918 -0.1053
  111POPC   PO4 1875   9.308   0.284   9.438 -0.1823  0.0900  0.3521
  111POPC   GL1 1876   9.552   0.406   9.079  0.0905  0.0578  0.0037
  111POPC   GL2 1877   9.882   0.448   9.024 -0.0608 -0.1957 -0.0943
  111POPC   C1A 1878   9.563   0.057   8.808 -0.2561 -0.0076  0.0135
  111POPC   D2A 1879   9.538  -0.198   8.374 -0.1647 -0.0956 -0.0541
  111POPC   C3A 1880   9.164  -0.246   8.187  0.0483  0.1051 -0.3842
  111POPC   C4A 1881   8.904  -0.014   7.908 -0.1209  0.1923 -0.3116
  111POPC   C1B 1882   9.816   0.403   8.546  0.3020  0.0390  0.0582
  111POPC   C2B 1883   9.676   0.308   8.156 -0.0760 -0.0363  0.1248
  111POPC   C3B 1884   9.703   0.348   7.713  0.0326 -0.2821 -0.0200
  111POPC   C4B 1885  10.005   0.358   7.426 -0.1920  0.2785 -0.0602
  112POPC   NC3 1886   3.041   2.964   8.817  0.2412  0.3404  0.0517
  112POPC   PO4 1887   3.109   3.392   8.729  0.0456 -0.1449  0.0274
  112POPC   GL1 1888   2.873   3.398   8.355 -0.0205 -0.2761  0.2292
  112POPC   GL2 1889   2.536   3.405   8.480 -0.1840 -0.0786 -0.0032
  112POPC   C1A 1890   2.910   3.344   7.891  0.0251  0.0429 -0.5029
  112POPC   D2A 1891   3.105   3.192   7.371  0.2139  0.2344 -0.0996
  112POPC   C3A 1892   2.975   2.780   7.242  0.2467 -0.1287  0.0445
  112POPC   C4A 1893   2.767   2.465   7.484 -0.1716 -0.0756  0.0715
  112POPC   C1B 1894   2.528   3.576   8.080  0.0957 -0.1873  0.0035
  112POPC   C2B 1895   2.461   3.824   7.769  0.3902  0.0999 -0.1249
  112POPC   C3B 1896   2.195   4.003   7.383 -0.1931 -0.0693  0.2334
  112POPC   C4B 1897   2.329   3.952   6.943 -0.2897 -0.0905  0.0427
  113POPC   NC3 1898   9.033   5.573  10.191 -0.0884  0.0587  0.0227
  113POPC   PO4 1899   9.148   5.769   9.769  0.2845 -0.0479  0.2808
  113POPC   GL1 1900   9.030   5.889   9.331 -0.4291  0.1606  0.0955
  113POPC   GL2 1901   8.672   5.715   9.226 -0.0487  0.0067 -0.2488
  113POPC   C1A 1902   9.036   5.823   8.875  0.0552  0.2166 -0.2788
  113POPC   D2A 1903   8.961   5.445   8.666  0.1377  0.4322 -0.3054
  113POPC   C3A 1904   9.298   5.387   8.272  0.1511 -0.0074  0.1100
  113POPC   C4A 1905   9.254   5.196   7.777 -0.0244  0.1346 -0.0151
  113POPC   C1B 1906   8.912   5.350   9.198  0.2277 -0.0434 -0.1165
  113POPC   C2B 1907   9.448   5.292   9.057  0.0031  0.0440 -0.0932
  113POPC   C3B 1908   9.724   5.208   8.772 -0.3186 -0.0805  0.3706
  113POPC   C4B 1909  10.182   5.157   8.728  0.2049  0.4137 -0.1734
  114POPC   NC3 1910   1.622   1.284   9.066 -0.1918  0.4158  0.2504
  114POPC   PO4 1911   1.838   1.609   8.811 -0.1066  0.2618  0.0086
  114POPC   GL1 1912   1.910   1.449   8.361  0.2096  0.0159  0.2746
  114POPC   GL2 1913   2.133   1.580   8.151  0.2211  0.4578  0.3200
  114POPC   C1A 1914   1.691   1.421   7.997 -0.0275  0.0344  0.0483
  114POPC   D2A 1915   1.263   1.176   7.757 -0.0326 -0.0492 -0.0596
  114POPC   C3A 1916   1.271   0.839   7.515 -0.2223  0.2480  0.1551
  114POPC   C4A 1917   1.305   0.376   7.596  0.2393 -0.0592 -0.0374
  114POPC   C1B 1918   2.024   1.649   7.787 -0.2192 -0.1390  0.1182
  114POPC   C2B 1919   1.840   1.686   7.371 -0.1719  0.1091  0.0604
  114POPC   C3B 1920   1.607   1.931   7.152  0.0183 -0.2085 -0.1991
  114POPC   C4B 1921   1.413   2.226   7.187 -0.1338  0.0213  0.0773
  115POPC   NC3 1922   4.849   5.631   8.954 -0.4422 -0.2339 -0.0779
  115POPC   PO4 1923   4.996   6.049   8.858  0.2024 -0.0366 -0.4692
  115POPC   GL1 1924   4.856   5.934   8.429  0.0822 -0.3210  0.1453
  115POPC   GL2 1925   5.051   6.003   8.129 -0.0303 -0.1144  0.0058
  115POPC   C1A 1926   4.849   5.543   8.186  0.5652 -0.0978  0.2762
  115POPC   D2A 1927   5.101   5.525   7.782 -0.0336 -0.1739 -0.1246
  115POPC   C3A 1928   5.110   5.741   7.321 -0.2298 -0.2894  0.3785
  115POPC   C4A 1929   4.738   5.689   6.977  0.0884  0.0622  0.0479
  115POPC   C1B 1930   5.386   6.334   7.983 -0.1712 -0.2211 -0.0489
  115POPC   C2B 1931   5.569   6.514   7.648 -0.1213 -0.1099 -0.2522
  115POPC   C3B 1932   5.816   6.907   7.621 -0.0930 -0.0521  0.0267
  115POPC   C4B 1933   6.173   7.074   7.430 -0.0790  0.2128  0.1422
  116POPC   NC3 1934   2.385   4.229   9.649  0.0216  0.3643  0.1096
  116POPC   PO4 1935   2.690   4.083   9.274 -0.2559  0.1033  0.2672
  116POPC   GL1 1936   2.737   4.307   8.907  0.1627  0.0631 -0.0727
  116POPC   GL2 1937   3.043   4.491   8.707 -0.1647  0.0857 -0.3689
  116POPC   C1A 1938   2.417   4.356   8.682 -0.1030  0.2287  0.2156
  116POPC   D2A 1939   1.993   4.373   8.601 -0.0252  0.3046 -0.0810
  116POPC   C3A 1940   2.046   4.642   8.190  0.1154 -0.1145 -0.0675
  116POPC   C4A 1941   1.966   4.803   7.836  0.1718 -0.0383  0.2617
  116POPC   C1B 1942   3.042   4.418   8.231  0.3030 -0.0736 -0.3700
  116POPC   C2B 1943   2.908   4.381   7.811  0.2794  0.5316 -0.0433
  116POPC   C3B 1944   2.897   4.567   7.477 -0.0712 -0.1750 -0.2958
  116POPC   C4B 1945   2.859   4.849   7.189  0.1631  0.5131  0.1139
  117POPC   NC3 1946   6.420   8.044   9.664 -0.4299 -0.0481  0.1951
  117POPC   PO4 1947   6.584   8.539   9.573 -0.0365  0.0989  0.0595
  117POPC   GL1 1948   6.413   8.446   9.186 -0.3065  0.0065 -0.0170
  117POPC   GL2 1949   6.198   8.188   9.038 -0.2799 -0.3581 -0.0159
  117POPC   C1A 1950   6.535   8.521   8.750  0.0252 -0.0627 -0.2343
  117POPC   D2A 1951   6.556   8.783   8.446 -0.1845  0.1567 -0.0832
  117POPC   C3A 1952   6.605   8.601   8.030  0.0483  0.1868 -0.2140
  117POPC   C4A 1953   6.418   8.431   7.621 -0.1138  0.0892 -0.1743
  117POPC   C1B 1954   6.238   7.766   8.935  0.0520  0.5818 -0.1872
  117POPC   C2B 1955   6.236   7.538   8.459  0.0862  0.1099  0.0521
  117POPC   C3B 1956   6.541   7.758   8.179 -0.1812  0.1357 -0.2230
  117POPC   C4B 1957   6.574   8.057   7.884 -0.0220  0.1004  0.0205
  118POPC   NC3 1958   5.252   4.987   8.878 -0.1041  0.0998 -0.2506
  118POPC   PO4 1959   5.167   5.298   9.169  0.0328  0.0774  0.1647
  118POPC   GL1 1960   5.220   5.446   8.722 -0.0731  0.2759  0.2961
  118POPC   GL2 1961   5.329   5.668   8.424  0.1118 -0.1188 -0.3726
  118POPC   C1A 1962   5.243   5.204   8.239  0.0678  0.0549 -0.2394
  118POPC   D2A 1963   5.222   5.000   7.903  0.4007  0.1389 -0.2740
  118POPC   C3A 1964   5.078   4.630   7.684  0.0221 -0.0217 -0.0685
  118POPC   C4A 1965   5.105   4.259   7.778  0.1112 -0.0074  0.1935
  118POPC   C1B 1966   5.481   5.818   8.035 -0.0541 -0.0460  0.1422
  118POPC   C2B 1967   5.484   5.926   7.671  0.0501  0.3914  0.1980
  118POPC   C3B 1968   5.713   5.925   7.265 -0.0988 -0.2154  0.2234
  118POPC   C4B 1969   5.765   5.994   6.800  0.0037  0.3291 -0.1694
  119POPC   NC3 1970   7.212   8.339  10.150 -0.2069 -0.1394 -0.1759
  119POPC   PO4 1971   7.095   8.547   9.763  0.0207  0.2569 -0.1623
  119POPC   GL1 1972   7.269   8.391   9.440  0.1831 -0.0633 -0.0729
  119POPC   GL2 1973   7.579   8.558   9.439  0.1483  0.1344  0.0084
  119POPC   C1A 1974   7.361   8.197   9.084 -0.2418 -0.1697 -0.0133
  119POPC   D2A 1975   7.685   8.134   8.785  0.1082 -0.0242 -0.1866
  119POPC   C3A 1976   7.982   7.837   8.937 -0.0206  0.4347 -0.0826
  119POPC   C4A 1977   8.254   7.593   9.220  0.1500 -0.0288 -0.0261
  119POPC   C1B 1978   7.841   8.539   9.111 -0.2914  0.1835  0.0789
  119POPC   C2B 1979   7.933   8.955   8.859 -0.0172  0.4382  0.1388
  119POPC   C3B 1980   7.789   9.210   8.506  0.0184  0.2038  0.0372
  119POPC   C4B 1981   7.898   9.334   8.151 -0.2747 -0.0041  0.4165
  120POPC   NC3 1982   3.890   5.937   8.849  0.3181  0.0097 -0.2219
  120POPC   PO4 1983   3.540   5.564   8.852 -0.1503 -0.1048 -0.0642
  120POPC   GL1 1984   3.788   5.486   8.535 -0.0867  0.0031 -0.1602
  120POPC   GL2 1985   4.116   5.385   8.534  0.1513 -0.4329 -0.1118
  120POPC   C1A 1986   3.842   5.390   8.057  0.4245  0.0680 -0.3419
  120POPC   D2A 1987   4.056   5.606   7.696  0.0567  0.2665  0.1882
  120POPC   C3A 1988   3.916   5.396   7.376  0.5129 -0.1910 -0.1193
  120POPC   C4A 1989   3.525   5.406   7.262 -0.2761 -0.1568 -0.4638
  120POPC   C1B 1990   4.357   5.443   8.150 -0.0616 -0.2162 -0.1075
  120POPC   C2B 1991   4.595   5.346   7.818  0.3452 -0.1598 -0.2022
  120POPC   C3B 1992   4.874   5.171   7.517  0.2428  0.1343  0.0574
  120POPC   C4B 1993   5.052   4.895   7.228  0.0126 -0.3536 -0.1846
  121POPC   NC3 1994   6.242   0.117   9.125 -0.0381  0.0832  0.0312
  121POPC   PO4 1995   5.814   0.039   9.116  0.1006 -0.1126 -0.0888
  121POPC   GL1 1996   5.667   0.323   8.795 -0.0849  0.0918 -0.0456
  121POPC   GL2 1997   5.968   0.325   8.690  0.1449 -0.0399  0.0189
  121POPC   C1A 1998   5.318   0.470   8.466 -0.3240  0.1452  0.0809
  121POPC   D2A 1999   5.028   0.711   8.102  0.2249  0.0307  0.0824
  121POPC   C3A 2000   4.719   0.442   8.033  0.0165 -0.2046  0.3456
  121POPC   C4A 2001   4.428   0.048   7.918 -0.2155 -0.0470 -0.2731
  121POPC   C1B 2002   6.198   0.401   8.435  0.0634  0.0748  0.3613
  121POPC   C2B 2003   6.186   0.197   8.056 -0.2255 -0.0886  0.0739
  121POPC   C3B 2004   6.459  -0.027   7.767 -0.2306  0.2602 -0.1318
  121POPC   C4B 2005   6.850  -0.144   7.550  0.1405 -0.3443 -0.0657
  122POPC   NC3 2006   4.960   0.717   9.359 -0.1005 -0.2975  0.0090
  122POPC   PO4 2007   4.563   0.453   9.199  0.0102  0.1471  0.1510
  122POPC   GL1 2008   4.489   0.484   8.729  0.1854 -0.0695 -0.1530
  122POPC   GL2 2009   4.746   0.537   8.536  0.2399 -0.1720 -0.2261
  122POPC   C1A 2010   4.336   0.371   8.335 -0.0380 -0.2605  0.2576
  122POPC   D2A 2011   3.945   0.232   8.121  0.0714 -0.1602  0.0046
  122POPC   C3A 2012   3.708   0.455   7.878 -0.0721 -0.0205 -0.2959
  122POPC   C4A 2013   3.704   0.527   7.477 -0.2538  0.2800  0.0661
  122POPC   C1B 2014   4.546   0.893   8.205 -0.4308 -0.2902  0.0923
  122POPC   C2B 2015   4.513   0.954   7.796 -0.0926  0.0547  0.0080
  122POPC   C3B 2016   4.414   1.318   7.604 -0.3233 -0.1584 -0.1253
  122POPC   C4B 2017   4.532   1.796   7.440  0.1619  0.1114 -0.1049
  123POPC   NC3 2018   0.168   8.226  10.293  0.3171  0.3558  0.2981
  123POPC   PO4 2019   0.089   8.576  10.327 -0.2525  0.1060 -0.0564
  123POPC   GL1 2020   0.288   8.501   9.892  0.4127 -0.3225  0.1205
  123POPC   GL2 2021   0.517   8.250   9.955 -0.0519 -0.2161 -0.0337
  123POPC   C1A 2022   0.517   8.552   9.583  0.0600 -0.1371  0.0686
  123POPC   D2A 2023   0.595   8.708   9.184  0.0241  0.0451  0.3205
  123POPC   C3A 2024   0.311   8.733   8.840 -0.3051  0.2655 -0.4336
  123POPC   C4A 2025  -0.131   8.868   8.678  0.1711  0.0298  0.0105
  123POPC   C1B 2026   0.514   7.989   9.725 -0.2360 -0.0618  0.0583
  123POPC   C2B 2027   0.368   7.767   9.322  0.1042 -0.2021  0.1083
  123POPC   C3B 2028   0.214   7.655   8.924  0.0307  0.1568  0.5633
  123POPC   C4B 2029   0.343   7.275   8.773 -0.3026 -0.1642 -0.0225
  124POPC   NC3 2030   6.924   5.910   9.052  0.2791 -0.1072  0.0144
  124POPC   PO4 2031   7.048   5.412   9.072 -0.0523  0.3298  0.3150
  124POPC   GL1 2032   7.185   5.602   8.661  0.3732  0.0735  0.0837
  124POPC   GL2 2033   7.375   5.810   8.827  0.0432  0.1015  0.0696
  124POPC   C1A 2034   7.231   5.679   8.167 -0.2454 -0.0951 -0.1219
  124POPC   D2A 2035   7.164   5.497   7.796  0.1054  0.1029 -0.2481
  124POPC   C3A 2036   7.417   5.584   7.372 -0.1078  0.1244  0.0841
  124POPC   C4A 2037   7.221   5.706   6.967  0.0813 -0.3746  0.0654
  124POPC   C1B 2038   7.701   5.403   8.752 -0.0004  0.1625  0.4139
  124POPC   C2B 2039   7.755   5.189   8.242 -0.0560 -0.1351  0.1308
  124POPC   C3B 2040   7.682   5.370   7.897  0.0450  0.0171 -0.1506
  124POPC   C4B 2041   7.908   5.505   7.563 -0.2187  0.1059 -0.1615
  125POPC   NC3 2042   4.522   0.998   8.868  0.3011 -0.2550  0.0656
  125POPC   PO4 2043   4.095   0.706   8.966  0.0473 -0.2457  0.0490
  125POPC   GL1 2044   4.067   0.880   8.584 -0.0806  0.1450  0.0260
  125POPC   GL2 2045   4.200   1.216   8.509  0.4089 -0.1140 -0.1114
  125POPC   C1A 2046   4.101   0.779   8.196 -0.0998  0.1607 -0.0264
  125POPC   D2A 2047   4.235   0.530   7.849  0.4905 -0.0849 -0.1686
  125POPC   C3A 2048   4.616   0.530   7.511  0.0258 -0.0910 -0.2953
  125POPC   C4A 2049   4.896   0.788   7.423 -0.0418 -0.2773 -0.1454
  125POPC   C1B 2050   4.310   1.379   8.163 -0.2584 -0.3143 -0.1393
  125POPC   C2B 2051   3.981   1.538   7.755  0.3873 -0.0532 -0.2154
  125POPC   C3B 2052   3.979   1.787   7.395 -0.1457 -0.0264  0.0413
  125POPC   C4B 2053   4.195   2.054   7.258  0.0438 -0.0257 -0.0256
  126POPC   NC3 2054   0.864   2.386   8.574  0.1268 -0.3304  0.1851
  126POPC   PO4 2055   1.232   2.341   8.406 -0.0935  0.3502  0.0586
  126POPC   GL1 2056   1.026   2.081   8.049 -0.2546 -0.2397  0.0828
  126POPC   GL2 2057   0.688   2.054   8.143 -0.0731 -0.0405 -0.1604
  126POPC   C1A 2058   0.769   2.129   7.659  0.0938 -0.2282  0.1959
  126POPC   D2A 2059   0.310   2.142   7.611 -0.0694 -0.2153 -0.1547
  126POPC   C3A 2060   0.345   2.391   7.244 -0.2580  0.0091  0.2908
  126POPC   C4A 2061   0.297   2.524   6.789 -0.2918 -0.0630  0.1815
  126POPC   C1B 2062   0.540   2.533   7.858 -0.2796 -0.0726 -0.2082
  126POPC   C2B 2063   0.720   2.675   7.530 -0.0314  0.0191 -0.3257
  126POPC   C3B 2064   0.864   2.478   7.188 -0.4297  0.0505 -0.3143
  126POPC   C4B 2065   0.937   2.011   7.217 -0.2612  0.1867 -0.3141
  127POPC   NC3 2066   1.195   4.456   9.242 -0.0357  0.2519 -0.0154
  127POPC   PO4 2067   1.495   4.721   9.410  0.1579 -0.1853 -0.1938
  127POPC   GL1 2068   1.692   4.831   9.083 -0.0371 -0.0785 -0.3432
  127POPC   GL2 2069   1.722   5.104   9.112 -0.0836 -0.2540 -0.0647
  127POPC   C1A 2070   1.830   4.979   8.637 -0.0936 -0.3139  0.0915
  127POPC   D2A 2071   2.094   5.256   8.491 -0.0657 -0.1360  0.1916
  127POPC   C3A 2072   1.920   5.698   8.214  0.2113  0.2276  0.0907
  127POPC   C4A 2073   1.561   5.920   8.079  0.1112 -0.0172 -0.3386
  127POPC   C1B 2074   1.432   5.234   8.748  0.1496 -0.1217 -0.0958
  127POPC   C2B 2075   1.505   5.464   8.369  0.2101  0.3451  0.1138
  127POPC   C3B 2076   1.541   5.455   7.911  0.1436 -0.2422  0.2971
  127POPC   C4B 2077   1.479   5.700   7.545 -0.1633 -0.2718  0.3979
  128POPC   NC3 2078   2.850   2.180   8.484 -0.0028 -0.0222  0.3250
  128POPC   PO4 2079   3.233   2.047   8.620 -0.0212  0.2060 -0.1018
  128POPC   GL1 2080   3.451   2.075   8.342 -0.1652  0.0905  0.1743
  128POPC   GL2 2081   3.234   2.163   8.129  0.2803 -0.0355  0.0641
  128POPC   C1A 2082   3.716   2.323   8.145  0.0466  0.0243 -0.0029
  128POPC   D2A 2083   3.870   2.236   7.634 -0.3826  0.0840 -0.0219
  128POPC   C3A 2084   4.067   2.624   7.588  0.0119 -0.2523  0.3777
  128POPC   C4A 2085   4.076   3.039   7.495 -0.2154  0.0207 -0.0498
  128POPC   C1B 2086   3.371   2.320   7.731  0.1772 -0.0360  0.1432
  128POPC   C2B 2087   3.229   2.262   7.280 -0.0385  0.4580  0.2279
  128POPC   C3B 2088   3.248   2.501   6.929 -0.2002  0.0346  0.0241
  128POPC   C4B 2089   3.152   2.855   6.616  0.2277 -0.0135  0.0861
  129POPC   NC3 2090   5.253   6.547   8.876 -0.1205  0.3949  0.3152
  129POPC   PO4 2091   5.397   6.930   9.110 -0.1037  0.0715 -0.0134
  129POPC   GL1 2092   5.327   7.133   8.758  0.0032 -0.0814 -0.2715
  129POPC   GL2 2093   5.418   6.886   8.584 -0.0382  0.0815 -0.0407
  129POPC   C1A 2094   5.148   7.212   8.337 -0.0032  0.3841  0.1051
  129POPC   D2A 2095   5.351   7.429   7.978 -0.1735  0.1613 -0.0898
  129POPC   C3A 2096   5.278   7.393   7.581  0.0300 -0.2580  0.3155
  129POPC   C4A 2097   5.372   7.641   7.217 -0.2577 -0.0307  0.2116
  129POPC   C1B 2098   5.154   6.715   8.221 -0.0852 -0.0392  0.3055
  129POPC   C2B 2099   4.922   6.644   7.833 -0.0485  0.2928  0.2927
  129POPC   C3B 2100   5.049   6.273   7.548 -0.1499 -0.1320 -0.0184
  129POPC   C4B 2101   5.355   6.263   7.264  0.3572 -0.1132 -0.1111
  130POPC   NC3 2102   4.654   6.423   8.899 -0.2140 -0.0022 -0.3417
  130POPC   PO4 2103   4.453   5.945   8.712 -0.2990  0.0455  0.0223
  130POPC   GL1 2104   4.392   5.876   8.314 -0.1406 -0.0309 -0.1990
  130POPC   GL2 2105   3.916   5.877   8.314 -0.2355  0.0718 -0.2583
  130POPC   C1A 2106   4.587   5.950   7.799  0.2833 -0.0409 -0.0896
  130POPC   D2A 2107   4.605   6.159   7.371  0.0803  0.1909 -0.0115
  130POPC   C3A 2108   4.861   6.147   7.049 -0.3170  0.0122  0.1144
  130POPC   C4A 2109   5.291   5.840   6.888  0.2857  0.0990  0.1416
  130POPC   C1B 2110   4.025   6.062   7.845 -0.1006 -0.1542  0.2915
  130POPC   C2B 2111   4.145   6.043   7.467  0.0269 -0.1287  0.4553
  130POPC   C3B 2112   4.269   5.851   7.091 -0.0444 -0.1178  0.0885
  130POPC   C4B 2113   4.226   5.582   6.634 -0.0261  0.0887 -0.2295
  131POPC   NC3 2114   3.326   8.144   9.313 -0.1159 -0.2852 -0.1442
  131POPC   PO4 2115   3.689   8.396   9.123  0.0164  0.1587  0.2005
  131POPC   GL1 2116   3.646   8.502   8.630  0.1438 -0.0542  0.2016
  131POPC   GL2 2117   3.993   8.512   8.467  0.0407  0.0818  0.0997
  131POPC   C1A 2118   3.364   8.267   8.407  0.0293  0.1907  0.0903
  131POPC   D2A 2119   3.378   8.190   8.035  0.1087 -0.0696  0.0775
  131POPC   C3A 2120   3.482   8.005   7.680  0.0133 -0.3293 -0.1375
  131POPC   C4A 2121   3.715   7.965   7.291 -0.2422  0.0583  0.0121
  131POPC   C1B 2122   4.315   8.811   8.433 -0.1153  0.1418  0.2726
  131POPC   C2B 2123   4.663   9.134   8.502 -0.3109  0.2365  0.1200
  131POPC   C3B 2124   4.946   9.374   8.233 -0.0983 -0.1626  0.0943
  131POPC   C4B 2125   5.371   9.336   8.139  0.1470  0.0018  0.0784
  132POPC   NC3 2126   3.358   9.858   8.865 -0.2024  0.1347 -0.1793
  132POPC   PO4 2127   3.740  10.105   9.091 -0.1725  0.0069 -0.1161
  132POPC   GL1 2128   3.802  10.077   8.572  0.1214 -0.0409 -0.3635
  132POPC   GL2 2129   4.126  10.133   8.483  0.1602  0.0417 -0.3770
  132POPC   C1A 2130   3.604  10.112   8.183  0.0523  0.1075 -0.1409
  132POPC   D2A 2131   3.627  10.246   7.703  0.1925  0.2816  0.0529
  132POPC   C3A 2132   3.968  10.337   7.550 -0.1226 -0.0744 -0.1235
  132POPC   C4A 2133   4.167  10.646   7.252 -0.0159 -0.1841 -0.0282
  132POPC   C1B 2134   4.085   9.954   8.129 -0.1848 -0.1306 -0.0242
  132POPC   C2B 2135   4.196   9.708   7.796  0.1745  0.2552  0.0018
  132POPC   C3B 2136   4.144   9.806   7.385 -0.0384  0.0425 -0.0392
  132POPC   C4B 2137   4.112  10.179   7.083  0.2235  0.0302  0.4113
  133POPC   NC3 2138   1.753   0.269   9.237 -0.1456 -0.1185  0.2434
  133POPC   PO4 2139   2.083   0.061   9.119 -0.0110  0.1097 -0.1798
  133POPC   GL1 2140   2.203   0.074   8.699 -0.4170  0.0516  0.0628
  133POPC   GL2 2141   1.918   0.264   8.650  0.0058 -0.5998 -0.1750
  133POPC   C1A 2142   2.332  -0.154   8.352  0.1379  0.1587  0.1453
  133POPC   D2A 2143   2.308   0.058   7.959  0.1684 -0.1550 -0.1133
  133POPC   C3A 2144   2.129  -0.148   7.606 -0.0123  0.1325  0.1303
  133POPC   C4A 2145   1.809  -0.439   7.582 -0.0165  0.2009  0.1592
  133POPC   C1B 2146   2.325   0.433   8.384  0.4466  0.1944  0.1415
  133POPC   C2B 2147   2.275   0.601   7.979 -0.1482  0.2242  0.1193
  133POPC   C3B 2148   2.154   0.558   7.612 -0.1483 -0.0456  0.0948
  133POPC   C4B 2149   2.423   0.568   7.244 -0.1096  0.1117 -0.0059
  134POPC   NC3 2150   1.679   2.378   8.583 -0.0444  0.1604  0.1625
  134POPC   PO4 2151   1.971   2.231   8.335  0.1473 -0.0027 -0.0335
  134POPC   GL1 2152   1.707   2.384   7.984  0.4262 -0.5829 -0.0836
  134POPC   GL2 2153   1.549   2.731   8.117  0.0495  0.1502 -0.0875
  134POPC   C1A 2154   1.539   2.501   7.575  0.0343 -0.1612 -0.0931
  134POPC   D2A 2155   1.402   2.744   7.276 -0.0465 -0.0037  0.1762
  134POPC   C3A 2156   1.556   2.920   6.910  0.2021 -0.5773  0.0290
  134POPC   C4A 2157   1.841   2.674   6.820  0.1455 -0.2318 -0.0616
  134POPC   C1B 2158   1.839   2.890   7.784 -0.0837  0.0260 -0.0137
  134POPC   C2B 2159   1.806   3.047   7.407  0.0861  0.4353  0.3931
  134POPC   C3B 2160   1.839   3.391   7.128 -0.0045 -0.1731 -0.0432
  134POPC   C4B 2161   1.910   3.659   6.807  0.3108  0.0915  0.1971
  135POPC   NC3 2162   1.219   0.925   8.775  0.0170 -0.1812  0.4096
  135POPC   PO4 2163   1.535   1.084   8.639  0.0531  0.2624 -0.4909
  135POPC   GL1 2164   1.746   0.984   8.241 -0.2313  0.0380  0.0274
  135POPC   GL2 2165   1.868   0.648   8.315 -0.1058 -0.2483  0.0412
  135POPC   C1A 2166   1.672   0.833   7.858  0.1902 -0.1306  0.2865
  135POPC   D2A 2167   1.712   0.663   7.411 -0.0166  0.0737 -0.2059
  135POPC   C3A 2168   1.973   0.842   7.190  0.0421  0.1937 -0.2378
  135POPC   C4A 2169   2.340   1.040   7.070 -0.1668 -0.1511 -0.1216
  135POPC   C1B 2170   1.892   0.291   8.141  0.0108  0.0104 -0.0188
  135POPC   C2B 2171   1.796   0.237   7.746  0.0235  0.3142 -0.2025
  135POPC   C3B 2172   1.944   0.267   7.281 -0.1109  0.1852 -0.1022
  135POPC   C4B 2173   1.713   0.456   6.912 -0.1454 -0.1359 -0.1202
  136POPC   NC3 2174   2.221   3.447   9.388 -0.1859  0.1216 -0.2642
  136POPC   PO4 2175   2.485   3.702   9.153  0.3305  0.2347 -0.1117
  136POPC   GL1 2176   2.499   3.823   8.801 -0.0917  0.0219 -0.1167
  136POPC   GL2 2177   2.255   3.948   8.486 -0.2627 -0.2474 -0.2414
  136POPC   C1A 2178   2.770   3.836   8.422 -0.0233 -0.3103 -0.0271
  136POPC   D2A 2179   2.890   3.917   8.042 -0.0507 -0.3222  0.2760
  136POPC   C3A 2180   3.074   3.803   7.670  0.3622  0.0971 -0.1117
  136POPC   C4A 2181   2.817   3.632   7.354  0.1011  0.4418  0.0966
  136POPC   C1B 2182   2.445   4.164   8.168  0.1161 -0.2961  0.1144
  136POPC   C2B 2183   2.574   4.596   8.151 -0.0579  0.4534 -0.1536
  136POPC   C3B 2184   2.941   4.905   8.205  0.5504 -0.0799 -0.2555
  136POPC   C4B 2185   2.908   5.375   7.964  0.2621 -0.2507  0.0852
  137POPC   NC3 2186   8.953   3.219  10.018  0.5031 -0.0443 -0.2922
  137POPC   PO4 2187   9.194   3.479   9.516 -0.0437  0.1025  0.1286
  137POPC   GL1 2188   9.168   3.682   9.130 -0.0448  0.0096 -0.0550
  137POPC   GL2 2189   9.247   4.016   9.118 -0.0540 -0.0221  0.0861
  137POPC   C1A 2190   9.207   3.641   8.641  0.1398 -0.0730  0.0152
  137POPC   D2A 2191   9.180   3.629   8.132 -0.2438  0.3282  0.1229
  137POPC   C3A 2192   9.176   3.269   7.885  0.0141 -0.1000  0.1159
  137POPC   C4A 2193   9.277   2.822   7.738 -0.2708  0.3250 -0.0577
  137POPC   C1B 2194   8.941   4.040   8.811  0.6345 -0.1693  0.4012
  137POPC   C2B 2195   8.929   4.006   8.384  0.1436  0.0470  0.1543
  137POPC   C3B 2196   9.118   4.115   8.032  0.1066  0.1277  0.2024
  137POPC   C4B 2197   9.229   4.219   7.557 -0.2692 -0.1275  0.0910
  138POPC   NC3 2198   7.570   2.165  10.096  0.3234 -0.1338  0.1203
  138POPC   PO4 2199   7.722   2.215   9.618  0.3989  0.0059  0.0802
  138POPC   GL1 2200   7.349   2.141   9.206 -0.0936  0.0409  0.1659
  138POPC   GL2 2201   7.594   2.103   8.910 -0.3652 -0.3228  0.0822
  138POPC   C1A 2202   7.156   1.816   8.758 -0.0078  0.4526 -0.2927
  138POPC   D2A 2203   7.130   1.836   8.254 -0.2269  0.2575  0.0405
  138POPC   C3A 2204   7.097   2.177   8.080 -0.1043  0.2471  0.2079
  138POPC   C4A 2205   7.342   2.591   8.023 -0.1960 -0.1560  0.1033
  138POPC   C1B 2206   7.921   2.401   8.765 -0.1542  0.3385  0.0384
  138POPC   C2B 2207   8.286   2.668   8.575 -0.0233 -0.0305 -0.0609
  138POPC   C3B 2208   8.567   3.088   8.452 -0.0174 -0.0391 -0.4154
  138POPC   C4B 2209   8.772   3.481   8.363  0.1791  0.1122 -0.2144
  139POPC   NC3 2210   5.807   6.754   9.314  0.0321 -0.0640  0.0305
  139POPC   PO4 2211   5.626   6.384   9.123 -0.3525  0.2055  0.1127
  139POPC   GL1 2212   5.804   6.575   8.712 -0.0607  0.0813 -0.0571
  139POPC   GL2 2213   5.854   6.827   8.800  0.2388  0.1260  0.2852
  139POPC   C1A 2214   5.686   6.522   8.379  0.0726 -0.2622  0.1163
  139POPC   D2A 2215   5.581   7.019   8.155 -0.1612  0.0271 -0.3176
  139POPC   C3A 2216   5.327   6.939   7.749  0.1305  0.3202 -0.1396
  139POPC   C4A 2217   5.163   6.860   7.437 -0.0268  0.3348  0.1750
  139POPC   C1B 2218   6.050   7.028   8.407  0.3267 -0.4666 -0.0499
  139POPC   C2B 2219   6.093   7.208   7.914 -0.2673  0.0069  0.0497
  139POPC   C3B 2220   6.223   7.580   7.760  0.0786 -0.3487 -0.1866
  139POPC   C4B 2221   6.115   7.944   8.036 -0.1260 -0.2483  0.0283
  140POPC   NC3 2222   8.125   5.199   9.928 -0.0970  0.2760 -0.4561
  140POPC   PO4 2223   8.470   5.219   9.586  0.0472  0.1524  0.4746
  140POPC   GL1 2224   8.473   4.977   9.160  0.0412 -0.0955  0.0372
  140POPC   GL2 2225   8.752   4.826   9.120 -0.0122 -0.3043  0.1480
  140POPC   C1A 2226   8.476   5.326   8.809  0.2199 -0.2444 -0.3356
  140POPC   D2A 2227   8.268   5.361   8.259  0.0936  0.2263 -0.0742
  140POPC   C3A 2228   8.134   5.096   7.844  0.2413  0.1144  0.2113
  140POPC   C4A 2229   8.302   5.101   7.385 -0.1347 -0.0630  0.2871
  140POPC   C1B 2230   9.040   4.964   8.832 -0.0629 -0.1212 -0.3443
  140POPC   C2B 2231   9.255   4.930   8.498 -0.0387 -0.0150  0.0544
  140POPC   C3B 2232   9.502   4.927   8.126 -0.0887 -0.0157 -0.3659
  140POPC   C4B 2233   9.522   4.619   7.899  0.1941 -0.2230  0.0253
  141POPC   NC3 2234   4.345   3.582   9.287 -0.3198 -0.1024  0.5735
  141POPC   PO4 2235   4.025   3.230   9.109 -0.2825 -0.3657  0.3399
  141POPC   GL1 2236   3.842   3.213   8.701 -0.0344 -0.0532 -0.0087
  141POPC   GL2 2237   3.537   3.304   8.517 -0.2597 -0.1101  0.0040
  141POPC   C1A 2238   4.199   3.330   8.472  0.0515 -0.0196  0.0999
  141POPC   D2A 2239   4.528   3.061   8.264  0.3161  0.0425  0.0877
  141POPC   C3A 2240   4.481   3.105   7.792 -0.0378 -0.0399 -0.1036
  141POPC   C4A 2241   4.403   3.451   7.483  0.1031 -0.2342  0.0622
  141POPC   C1B 2242   3.422   3.360   8.078 -0.2406 -0.2140 -0.3578
  141POPC   C2B 2243   3.363   3.466   7.720  0.1674  0.0016 -0.1331
  141POPC   C3B 2244   3.359   3.669   7.258  0.0930  0.0174 -0.0699
  141POPC   C4B 2245   3.192   3.789   6.895  0.2578 -0.5223  0.0767
  142POPC   NC3 2246   2.559   9.488   9.516 -0.0019 -0.0654  0.0931
  142POPC   PO4 2247   2.508   9.218   9.201  0.1560 -0.1128  0.2554
  142POPC   GL1 2248   2.506   9.359   8.827  0.2457 -0.1301  0.2348
  142POPC   GL2 2249   2.470   9.774   8.777  0.0812  0.0082  0.0950
  142POPC   C1A 2250   2.585   9.152   8.467  0.2428  0.2107 -0.3183
  142POPC   D2A 2251   2.606   9.352   8.075 -0.0976  0.2020  0.3242
  142POPC   C3A 2252   2.318   9.213   7.971  0.0372  0.0571 -0.2321
  142POPC   C4A 2253   1.931   9.191   7.866 -0.1048  0.0129 -0.2633
  142POPC   C1B 2254   2.228   9.561   8.443 -0.2146 -0.0445 -0.0609
  142POPC   C2B 2255   1.912   9.341   8.344  0.0245  0.1743  0.1472
  142POPC   C3B 2256   1.536   9.145   8.276  0.1156 -0.1985  0.2141
  142POPC   C4B 2257   1.118   8.916   8.237 -0.1712 -0.1906  0.1220
  143POPC   NC3 2258   9.253  10.052  10.661  0.0163  0.1305 -0.3374
  143POPC   PO4 2259   9.168   9.773  10.305 -0.1831 -0.3898  0.1849
  143POPC   GL1 2260   9.122   9.549   9.981 -0.1890  0.0524  0.1031
  143POPC   GL2 2261   8.986   9.275   9.972  0.0433 -0.0611 -0.0291
  143POPC   C1A 2262   9.300   9.530   9.545 -0.0548  0.3818  0.0891
  143POPC   D2A 2263   9.495   9.369   9.208 -0.1171  0.1551  0.0592
  143POPC   C3A 2264   9.882   9.339   8.989  0.1206 -0.1687 -0.0050
  143POPC   C4A 2265  10.134   9.649   8.782  0.2147 -0.0270 -0.0850
  143POPC   C1B 2266   8.714   9.536   9.619 -0.0753 -0.0320 -0.0569
  143POPC   C2B 2267   8.609   9.636   9.194 -0.0768  0.0220 -0.1249
  143POPC   C3B 2268   8.575   9.255   8.861  0.1216  0.0593 -0.3013
  143POPC   C4B 2269   8.514   8.803   8.675 -0.1113  0.0169  0.0687
  144POPC   NC3 2270   8.432   6.521   9.582 -0.1430 -0.0702 -0.1687
  144POPC   PO4 2271   8.123   6.242   9.398  0.3417 -0.3473  0.2001
  144POPC   GL1 2272   8.516   6.268   9.136 -0.0534  0.0085  0.2133
  144POPC   GL2 2273   8.402   6.101   8.869 -0.1558  0.0121 -0.3509
  144POPC   C1A 2274   8.981   6.277   9.072  0.1273  0.1364  0.3766
  144POPC   D2A 2275   9.264   6.238   8.648 -0.1150  0.0749  0.1402
  144POPC   C3A 2276   9.236   6.458   8.366  0.0793 -0.3370  0.3646
  144POPC   C4A 2277   9.419   6.655   8.029  0.0241 -0.1934 -0.0534
  144POPC   C1B 2278   8.258   6.146   8.439  0.0796  0.0691 -0.0599
  144POPC   C2B 2279   7.900   6.220   8.123  0.0456 -0.0576 -0.0200
  144POPC   C3B 2280   7.823   6.301   7.672 -0.1238 -0.0560 -0.1297
  144POPC   C4B 2281   7.824   6.431   7.303 -0.2750 -0.0569  0.2787
  145POPC   NC3 2282   3.521   1.893   9.025  0.3570 -0.1712  0.3084
  145POPC   PO4 2283   3.795   1.583   8.826 -0.1949  0.1680 -0.0563
  145POPC   GL1 2284   3.734   1.716   8.468 -0.0647 -0.0935 -0.2707
  145POPC   GL2 2285   4.057   1.701   8.418  0.1005 -0.0889  0.0367
  145POPC   C1A 2286   3.595   1.672   8.102 -0.1651 -0.0160  0.0046
  145POPC   D2A 2287   3.566   1.807   7.715  0.1577  0.1805 -0.3744
  145POPC   C3A 2288   3.327   1.649   7.323  0.1122  0.0144  0.1967
  145POPC   C4A 2289   3.179   1.862   6.969  0.0672 -0.0611 -0.1793
  145POPC   C1B 2290   4.093   1.896   8.039 -0.0364  0.1270 -0.5058
  145POPC   C2B 2291   4.396   2.186   7.821 -0.1040 -0.0026 -0.3241
  145POPC   C3B 2292   4.623   2.267   7.567  0.1245 -0.2085  0.1982
  145POPC   C4B 2293   5.049   2.455   7.449 -0.0999  0.0129  0.0353
  146POPC   NC3 2294   0.453   4.806   9.570 -0.2594 -0.0031  0.0165
  146POPC   PO4 2295   0.679   5.228   9.430 -0.0845 -0.0296 -0.0142
  146POPC   GL1 2296   0.787   5.274   9.037 -0.0405 -0.0230 -0.0658
  146POPC   GL2 2297   0.662   5.615   8.922  0.0908 -0.2802 -0.0201
  146POPC   C1A 2298   0.949   5.076   8.608 -0.1458 -0.0635 -0.3213
  146POPC   D2A 2299   1.177   5.170   8.177  0.1599  0.1448 -0.1770
  146POPC   C3A 2300   1.164   5.174   7.702  0.0983 -0.0274 -0.0981
  146POPC   C4A 2301   1.355   5.146   7.187  0.0582  0.2004 -0.3371
  146POPC   C1B 2302   0.399   5.778   8.522  0.0070 -0.2119  0.0162
  146POPC   C2B 2303   0.150   6.088   8.285 -0.1117 -0.0837 -0.0129
  146POPC   C3B 2304   0.172   6.282   7.852  0.1324 -0.1394 -0.2351
  146POPC   C4B 2305  -0.031   6.235   7.399 -0.1971  0.1777  0.1392
  147POPC   NC3 2306   6.905   4.946   9.120 -0.1659  0.6121  0.1084
  147POPC   PO4 2307   6.478   4.993   9.032  0.0126  0.2008  0.1141
  147POPC   GL1 2308   6.678   4.929   8.689 -0.2605  0.0418  0.0536
  147POPC   GL2 2309   6.564   4.634   8.522  0.1983 -0.1527  0.2566
  147POPC   C1A 2310   7.005   4.765   8.304 -0.0426 -0.2856 -0.3217
  147POPC   D2A 2311   7.092   4.525   7.977 -0.0619 -0.0852  0.3466
  147POPC   C3A 2312   6.842   4.709   7.647  0.0146  0.1648  0.0127
  147POPC   C4A 2313   6.416   4.696   7.472 -0.1450  0.2916 -0.0064
  147POPC   C1B 2314   6.576   4.423   8.168  0.0680  0.2568 -0.5613
  147POPC   C2B 2315   6.638   4.294   7.779  0.2464 -0.0824 -0.2990
  147POPC   C3B 2316   6.746   4.309   7.278 -0.4118  0.0938  0.1909
  147POPC   C4B 2317   7.027   4.223   6.910 -0.0191  0.2171  0.1326
  148POPC   NC3 2318   0.745   1.802   9.019  0.0897 -0.0880 -0.0217
  148POPC   PO4 2319   0.254   1.836   9.058  0.3945  0.0889  0.1000
  148POPC   GL1 2320  -0.007   1.818   8.625  0.2455  0.0052  0.0032
  148POPC   GL2 2321   0.156   1.952   8.188 -0.1482  0.0197 -0.0376
  148POPC   C1A 2322  -0.309   1.686   8.322 -0.1774 -0.0314 -0.0304
  148POPC   D2A 2323  -0.467   1.623   7.854 -0.1314 -0.0281 -0.0408
  148POPC   C3A 2324  -0.565   1.658   7.441  0.0319 -0.2032 -0.0694
  148POPC   C4A 2325  -0.896   1.667   7.250 -0.4061 -0.1078  0.1449
  148POPC   C1B 2326   0.505   1.724   7.893 -0.0655  0.0212  0.0154
  148POPC   C2B 2327   0.846   1.652   7.560  0.2547 -0.2528  0.1987
  148POPC   C3B 2328   1.220   1.646   7.418 -0.1390 -0.3307  0.3444
  148POPC   C4B 2329   1.503   1.322   7.283  0.1415  0.2984  0.1838
  149POPC   NC3 2330   7.847   1.883   9.280  0.1717 -0.2409 -0.1459
  149POPC   PO4 2331   7.986   1.648   8.918 -0.0600 -0.0083  0.1664
  149POPC   GL1 2332   8.188   1.901   8.667  0.3025  0.1879  0.0918
  149POPC   GL2 2333   8.220   1.607   8.415 -0.2168 -0.2594 -0.1423
  149POPC   C1A 2334   8.090   2.124   8.341 -0.1173  0.0330 -0.2141
  149POPC   D2A 2335   8.228   2.367   8.076  0.0438  0.2334  0.1950
  149POPC   C3A 2336   8.631   2.545   8.041 -0.2417 -0.0004  0.0670
  149POPC   C4A 2337   8.936   2.798   8.130 -0.2033  0.0900  0.0418
  149POPC   C1B 2338   8.019   1.686   8.142 -0.2195  0.1080  0.0608
  149POPC   C2B 2339   8.047   1.944   7.831  0.1054  0.0633  0.0927
  149POPC   C3B 2340   7.742   1.966   7.545  0.3034 -0.0310 -0.1127
  149POPC   C4B 2341   7.729   1.904   7.211  0.0243  0.0046 -0.1737
  150POPC   NC3 2342   1.223   5.590   9.300 -0.0705  0.1110 -0.0579
  150POPC   PO4 2343   0.873   5.778   9.327 -0.1356  0.0321 -0.0198
  150POPC   GL1 2344   0.973   6.073   9.022 -0.1388 -0.1390 -0.4093
  150POPC   GL2 2345   0.843   6.037   8.797 -0.2098 -0.1490  0.1412
  150POPC   C1A 2346   1.274   6.125   8.483  0.1167 -0.2098  0.2005
  150POPC   D2A 2347   1.091   6.083   8.051 -0.3738 -0.0234 -0.2492
  150POPC   C3A 2348   1.073   5.704   7.809 -0.0882 -0.1544  0.1250
  150POPC   C4A 2349   1.043   5.571   7.333  0.1341 -0.0651  0.2105
  150POPC   C1B 2350   0.769   6.027   8.404 -0.2020 -0.2836  0.0999
  150POPC   C2B 2351   0.505   5.861   8.035 -0.0088  0.0597  0.0217
  150POPC   C3B 2352   0.181   5.839   7.674 -0.3373 -0.3248 -0.0658
  150POPC   C4B 2353  -0.307   5.637   7.489 -0.0402  0.0558  0.1926
  151POPC   NC3 2354   7.205   2.444   9.640 -0.3452  0.4276 -0.2094
  151POPC   PO4 2355   7.133   2.651   9.152 -0.0035 -0.0829  0.0153
  151POPC   GL1 2356   7.393   2.583   8.806  0.0479  0.2018 -0.1380
  151POPC   GL2 2357   7.614   2.787   8.671 -0.0214  0.2935 -0.0705
  151POPC   C1A 2358   7.373   2.253   8.471  0.0034 -0.2117 -0.0210
  151POPC   D2A 2359   7.571   2.110   8.149 -0.1692  0.2067 -0.3124
  151POPC   C3A 2360   7.418   1.774   7.901  0.1055  0.0781  0.0613
  151POPC   C4A 2361   7.286   1.836   7.581 -0.0849  0.3407  0.2295
  151POPC   C1B 2362   7.793   2.561   8.298 -0.0893 -0.3197 -0.1967
  151POPC   C2B 2363   7.729   2.405   7.786 -0.1780 -0.3472  0.0330
  151POPC   C3B 2364   7.722   2.556   7.428  0.2124  0.1658 -0.2811
  151POPC   C4B 2365   7.430   2.431   7.260 -0.0024 -0.1550  0.1895
  152POPC   NC3 2366  10.197   6.591   9.975  0.0002  0.0793 -0.0744
  152POPC   PO4 2367  10.386   6.998   9.953 -0.0374  0.0093  0.1758
  152POPC   GL1 2368  10.347   7.169   9.566  0.1580  0.0935 -0.0959
  152POPC   GL2 2369  10.243   7.433   9.413  0.2269  0.0542 -0.0495
  152POPC   C1A 2370  10.209   7.006   9.157 -0.1477 -0.2767 -0.0593
  152POPC   D2A 2371  10.322   6.829   8.752 -0.0573 -0.3452  0.0336
  152POPC   C3A 2372  10.085   6.528   8.538 -0.3889  0.1278 -0.1759
  152POPC   C4A 2373   9.681   6.502   8.673  0.0725  0.0856  0.2205
  152POPC   C1B 2374  10.022   7.818   9.142  0.2290  0.2549  0.0465
  152POPC   C2B 2375   9.577   7.891   8.863  0.1710  0.1466  0.0488
  152POPC   C3B 2376   9.198   7.896   8.945 -0.1484 -0.2251 -0.0071
  152POPC   C4B 2377   8.903   8.264   8.943  0.3782  0.0947 -0.1493
  153POPC   NC3 2378  10.199   4.156   9.062  0.1662  0.2928 -0.2321
  153POPC   PO4 2379  10.541   4.452   9.270 -0.0266  0.1070 -0.0436
  153POPC   GL1 2380  10.575   4.539   8.848 -0.0384  0.1118 -0.0117
  153POPC   GL2 2381  10.222   4.393   8.638  0.0239  0.0450 -0.0037
  153POPC   C1A 2382  10.730   4.819   8.679 -0.3637  0.1003  0.1457
  153POPC   D2A 2383  10.663   5.262   8.533  0.2791 -0.0979 -0.3023
  153POPC   C3A 2384  10.441   5.404   8.117 -0.2089 -0.0485 -0.0142
  153POPC   C4A 2385  10.246   5.340   7.809 -0.0914  0.1805  0.1236
  153POPC   C1B 2386   9.832   4.708   8.550 -0.0189 -0.0471 -0.1183
  153POPC   C2B 2387   9.550   4.757   8.868 -0.2118 -0.0828 -0.0989
  153POPC   C3B 2388   9.254   4.574   9.085  0.1370  0.1469  0.1242
  153POPC   C4B 2389   9.141   4.444   9.503 -0.0354  0.0518  0.2655
  154POPC   NC3 2390   3.107   3.800   9.040  0.0041 -0.2181 -0.1151
  154POPC   PO4 2391   3.364   4.026   8.802  0.1832  0.0326 -0.0894
  154POPC   GL1 2392   3.627   3.806   8.531  0.0321  0.1294  0.3859
  154POPC   GL2 2393   3.299   3.736   8.428 -0.0489  0.3960  0.0005
  154POPC   C1A 2394   3.806   3.662   8.190  0.2404  0.0742 -0.0527
  154POPC   D2A 2395   3.878   3.738   7.715  0.1014  0.1237 -0.0943
  154POPC   C3A 2396   3.614   4.002   7.487 -0.1137 -0.0631  0.1424
  154POPC   C4A 2397   3.205   4.154   7.322  0.0481 -0.1561 -0.0707
  154POPC   C1B 2398   3.388   4.046   8.037 -0.1500 -0.1190  0.2547
  154POPC   C2B 2399   3.409   4.522   7.859 -0.1458 -0.0268  0.3301
  154POPC   C3B 2400   3.159   4.874   7.758 -0.1880 -0.0269 -0.1200
  154POPC   C4B 2401   2.736   5.007   7.680  0.1453 -0.0208  0.2173
  155POPC   NC3 2402   4.354   9.266   9.070 -0.0245  0.1169  0.1059
  155POPC   PO4 2403   4.000   9.203   8.897 -0.1354  0.0637  0.1156
  155POPC   GL1 2404   3.674   8.992   8.563  0.1277 -0.0261  0.0468
  155POPC   GL2 2405   3.919   9.016   8.297 -0.3457 -0.1929  0.3512
  155POPC   C1A 2406   3.533   8.722   8.215 -0.0817  0.0296  0.1918
  155POPC   D2A 2407   3.380   8.644   7.814 -0.1980 -0.3601 -0.0186
  155POPC   C3A 2408   3.690   8.394   7.489  0.1403 -0.0390 -0.0100
  155POPC   C4A 2409   3.888   8.750   7.358  0.0973  0.1070 -0.1804
  155POPC   C1B 2410   3.680   9.166   7.940 -0.1086 -0.0025  0.1590
  155POPC   C2B 2411   3.301   9.096   7.659 -0.2465  0.0875  0.0823
  155POPC   C3B 2412   3.017   9.062   7.281  0.3206  0.3310  0.1228
  155POPC   C4B 2413   2.541   9.143   7.345  0.2983 -0.1414 -0.1291
  156POPC   NC3 2414   7.765   0.966   8.966  0.2265  0.0412  0.0277
  156POPC   PO4 2415   7.303   0.867   9.176 -0.2420  0.0517  0.0980
  156POPC   GL1 2416   7.286   1.129   8.849  0.0646  0.3214  0.1138
  156POPC   GL2 2417   7.520   1.419   8.766  0.0077 -0.1575  0.3181
  156POPC   C1A 2418   7.293   0.957   8.380 -0.0388 -0.0830  0.1400
  156POPC   D2A 2419   7.563   0.688   8.135  0.0703  0.0011 -0.1232
  156POPC   C3A 2420   7.992   0.684   8.179  0.0692  0.0837 -0.0873
  156POPC   C4A 2421   8.171   0.333   8.357 -0.1254 -0.0916  0.0899
  156POPC   C1B 2422   7.667   1.343   8.363  0.0032  0.1172 -0.0671
  156POPC   C2B 2423   7.895   1.112   7.974 -0.1379  0.1856  0.0775
  156POPC   C3B 2424   7.849   1.025   7.587  0.0170 -0.0339  0.2402
  156POPC   C4B 2425   7.924   1.080   7.120  0.2372  0.4389 -0.0661
  157POPC   NC3 2426   4.083   0.648   4.939  0.0806  0.3042 -0.3063
  157POPC   PO4 2427   4.194   0.226   4.902  0.0823  0.0104  0.2194
  157POPC   GL1 2428   4.209   0.415   5.420 -0.0459  0.5743  0.3177
  157POPC   GL2 2429   4.000   0.599   5.424 -0.1870  0.2083 -0.0063
  157POPC   C1A 2430   4.040   0.467   5.997  0.0744 -0.1115  0.0265
  157POPC   D2A 2431   3.998   0.583   6.386 -0.2018  0.0325  0.4415
  157POPC   C3A 2432   4.261   0.513   6.678  0.1428 -0.1413  0.1653
  157POPC   C4A 2433   4.639   0.626   6.987  0.1032  0.1165 -0.1070
  157POPC   C1B 2434   3.884   0.879   5.745 -0.1894  0.0052  0.0794
  157POPC   C2B 2435   3.759   0.944   6.179  0.1054 -0.1830 -0.3206
  157POPC   C3B 2436   3.657   0.874   6.606 -0.3349  0.2562 -0.1152
  157POPC   C4B 2437   3.630   0.720   7.042 -0.3993  0.1401  0.2646
  158POPC   NC3 2438   4.070   2.831   5.254 -0.0091  0.0481  0.0108
  158POPC   PO4 2439   3.758   3.067   5.388 -0.3521 -0.1090 -0.0251
  158POPC   GL1 2440   3.802   3.220   5.789  0.0751  0.0671  0.0398
  158POPC   GL2 2441   3.623   3.067   6.019 -0.1070  0.1886  0.1420
  158POPC   C1A 2442   4.031   3.463   6.080  0.0043 -0.0077  0.0066
  158POPC   D2A 2443   4.353   3.757   6.186 -0.1863  0.1053  0.1399
  158POPC   C3A 2444   4.647   3.568   6.529 -0.2842  0.0752  0.0411
  158POPC   C4A 2445   4.643   3.733   7.073  0.1317  0.0510  0.3678
  158POPC   C1B 2446   3.467   2.707   6.174  0.2057  0.3380  0.0025
  158POPC   C2B 2447   3.330   2.408   6.405 -0.1917 -0.3463  0.0959
  158POPC   C3B 2448   3.068   2.172   6.647  0.0080 -0.2410 -0.2352
  158POPC   C4B 2449   2.859   2.215   7.014 -0.2108 -0.2011  0.0568
  159POPC   NC3 2450   5.531   4.188   4.946 -0.0855  0.0937 -0.2291
  159POPC   PO4 2451   5.952   4.202   5.028 -0.2538 -0.3667  0.3548
  159POPC   GL1 2452   5.833   4.292   5.380  0.0831 -0.0973 -0.0251
  159POPC   GL2 2453   5.573   4.064   5.550  0.0875  0.0654  0.0061
  159POPC   C1A 2454   5.943   4.311   5.806  0.2733  0.0551 -0.1344
  159POPC   D2A 2455   6.120   4.468   6.148  0.0184 -0.0341  0.0192
  159POPC   C3A 2456   6.161   4.761   6.511  0.1287  0.0461  0.0490
  159POPC   C4A 2457   6.185   4.922   7.048  0.4396 -0.1769  0.0749
  159POPC   C1B 2458   5.877   3.833   5.613  0.0376  0.1423 -0.0828
  159POPC   C2B 2459   6.094   3.805   6.032 -0.1149  0.1048 -0.1756
  159POPC   C3B 2460   6.268   3.653   6.416 -0.2888 -0.1202 -0.0024
  159POPC   C4B 2461   6.169   3.569   6.820  0.0020  0.2569  0.0375
  160POPC   NC3 2462   0.594   8.055   3.393 -0.0086 -0.0858  0.0647
  160POPC   PO4 2463   0.693   8.531   3.424  0.0056 -0.3264 -0.1001
  160POPC   GL1 2464   0.823   8.501   3.843  0.1719 -0.2048  0.0007
  160POPC   GL2 2465   0.675   8.217   3.927  0.1126  0.0354 -0.1288
  160POPC   C1A 2466   0.778   8.661   4.234 -0.6513 -0.0097 -0.4083
  160POPC   D2A 2467   0.845   8.461   4.560 -0.1621  0.0081 -0.2097
  160POPC   C3A 2468   0.555   8.619   4.997  0.0185  0.0655 -0.1539
  160POPC   C4A 2469   0.389   8.893   5.276  0.0125  0.0736 -0.1251
  160POPC   C1B 2470   0.382   8.300   4.280  0.1005 -0.1803  0.0554
  160POPC   C2B 2471  -0.048   8.334   4.376 -0.1198 -0.2837 -0.0523
  160POPC   C3B 2472  -0.506   8.266   4.485 -0.1927  0.2005  0.1896
  160POPC   C4B 2473  -0.862   8.076   4.628 -0.1393 -0.0447 -0.2397
  161POPC   NC3 2474   7.533   1.612   5.088  0.4139  0.0269 -0.0205
  161POPC   PO4 2475   7.701   1.815   5.265  0.1461  0.2921 -0.2257
  161POPC   GL1 2476   7.863   1.780   5.679  0.1030 -0.2423 -0.1829
  161POPC   GL2 2477   8.018   1.514   5.742  0.3621  0.1198  0.1399
  161POPC   C1A 2478   7.848   1.906   6.064 -0.2892 -0.0161 -0.1180
  161POPC   D2A 2479   7.598   2.207   6.296  0.3312 -0.1083 -0.1465
  161POPC   C3A 2480   7.531   2.192   6.759  0.0514 -0.1057 -0.1605
  161POPC   C4A 2481   7.335   1.823   6.962 -0.2261 -0.4374  0.1814
  161POPC   C1B 2482   8.249   1.551   6.073  0.0321 -0.1206 -0.3252
  161POPC   C2B 2483   8.449   1.394   6.375  0.0876 -0.1771  0.2598
  161POPC   C3B 2484   8.380   1.239   6.784  0.2672 -0.2423 -0.4522
  161POPC   C4B 2485   8.345   1.377   7.310  0.0449 -0.1655 -0.1640
  162POPC   NC3 2486   9.711   1.043   4.617  0.0585 -0.0983 -0.1293
  162POPC   PO4 2487   9.969   0.607   4.592  0.1220  0.2368 -0.0650
  162POPC   GL1 2488   9.987   0.347   5.061  0.2408 -0.0583 -0.2147
  162POPC   GL2 2489  10.350   0.439   5.152 -0.0089  0.0193 -0.1282
  162POPC   C1A 2490  10.076  -0.048   5.368  0.0983  0.1144  0.1832
  162POPC   D2A 2491   9.773  -0.093   5.668  0.1103 -0.1066  0.3465
  162POPC   C3A 2492   9.809  -0.490   6.079 -0.0840 -0.1366  0.2212
  162POPC   C4A 2493   9.859  -0.599   6.538  0.1152 -0.1129  0.1214
  162POPC   C1B 2494  10.362   0.380   5.519 -0.1848  0.0405  0.1469
  162POPC   C2B 2495  10.387   0.021   5.776 -0.0032 -0.0290  0.1183
  162POPC   C3B 2496  10.228  -0.130   6.107 -0.1627 -0.0158  0.2501
  162POPC   C4B 2497  10.406  -0.354   6.549  0.0819  0.2520  0.0214
  163POPC   NC3 2498   1.481   5.510   4.764 -0.0204  0.1928  0.0037
  163POPC   PO4 2499   1.922   5.769   4.763  0.2766 -0.0847  0.2832
  163POPC   GL1 2500   1.680   5.840   5.044  0.3955  0.0789  0.3165
  163POPC   GL2 2501   1.307   6.042   4.940 -0.2683  0.1549 -0.0709
  163POPC   C1A 2502   1.561   5.872   5.346 -0.0792  0.0770  0.0320
  163POPC   D2A 2503   1.521   6.083   5.764  0.0513 -0.3496  0.1063
  163POPC   C3A 2504   1.638   6.157   6.185 -0.1262 -0.0725  0.3408
  163POPC   C4A 2505   1.547   6.582   6.376 -0.2200 -0.1190 -0.1499
  163POPC   C1B 2506   1.174   6.333   5.279 -0.0729  0.1673 -0.0811
  163POPC   C2B 2507   1.342   6.520   5.555 -0.1670 -0.0816 -0.0771
  163POPC   C3B 2508   1.451   6.809   5.843 -0.1195 -0.4283  0.0641
  163POPC   C4B 2509   1.407   7.170   6.013  0.1925 -0.2470 -0.2684
  164POPC   NC3 2510   2.984   8.042   4.418  0.1083 -0.2201  0.1147
  164POPC   PO4 2511   2.856   7.703   4.532  0.0475 -0.3145 -0.2393
  164POPC   GL1 2512   2.580   7.939   4.880 -0.0955  0.0524  0.1198
  164POPC   GL2 2513   2.743   7.714   5.136  0.1234  0.1539 -0.0313
  164POPC   C1A 2514   2.205   7.767   5.124  0.1483  0.1598 -0.0850
  164POPC   D2A 2515   1.945   7.480   5.335 -0.6070 -0.3242  0.0060
  164POPC   C3A 2516   1.794   7.313   5.725 -0.0531 -0.0439  0.0475
  164POPC   C4A 2517   1.872   7.026   6.055  0.0909  0.0245 -0.1976
  164POPC   C1B 2518   2.593   7.855   5.471  0.3027 -0.4082 -0.0555
  164POPC   C2B 2519   2.181   7.691   5.740 -0.2706  0.0454  0.0481
  164POPC   C3B 2520   1.848   7.665   6.109  0.0579  0.0398 -0.0307
  164POPC   C4B 2521   1.754   7.535   6.468 -0.1532 -0.0488  0.2356
  165POPC   NC3 2522   1.331   3.345   4.302  0.1457 -0.1874 -0.0276
  165POPC   PO4 2523   1.305   3.022   4.742  0.1699 -0.0943  0.2923
  165POPC   GL1 2524   1.402   2.933   5.239  0.1961 -0.2938 -0.1775
  165POPC   GL2 2525   1.302   3.169   5.506 -0.0399 -0.2461 -0.0291
  165POPC   C1A 2526   1.337   2.694   5.587  0.3727  0.1659  0.0965
  165POPC   D2A 2527   1.508   2.469   5.989  0.2095 -0.0403 -0.2519
  165POPC   C3A 2528   1.273   2.121   6.110 -0.1567 -0.0375  0.1713
  165POPC   C4A 2529   1.060   1.830   6.363  0.0934  0.2268  0.0281
  165POPC   C1B 2530   1.634   3.133   5.957 -0.0692 -0.1363  0.4291
  165POPC   C2B 2531   1.853   2.768   6.307  0.2750  0.0104 -0.2598
  165POPC   C3B 2532   1.867   2.364   6.396 -0.2086  0.1116 -0.1064
  165POPC   C4B 2533   2.020   2.080   6.721 -0.3085 -0.1944 -0.0101
  166POPC   NC3 2534   9.476   8.227   3.591 -0.0049 -0.0394  0.2014
  166POPC   PO4 2535   9.112   8.526   3.651  0.1415 -0.0904  0.2412
  166POPC   GL1 2536   9.474   8.468   4.037  0.0098  0.3667  0.0144
  166POPC   GL2 2537   9.214   8.425   4.311 -0.2632 -0.0888 -0.3098
  166POPC   C1A 2538   9.790   8.653   4.232 -0.0429  0.1433 -0.1901
  166POPC   D2A 2539   9.630   8.905   4.597  0.0984 -0.0760 -0.1326
  166POPC   C3A 2540   9.787   8.915   4.996  0.1259 -0.5562  0.3740
  166POPC   C4A 2541  10.110   8.706   5.285 -0.3147 -0.0669  0.1902
  166POPC   C1B 2542   9.325   8.571   4.784  0.2450 -0.0068 -0.1671
  166POPC   C2B 2543   9.505   8.536   5.139 -0.4536 -0.1658 -0.1041
  166POPC   C3B 2544   9.398   8.388   5.441  0.1067 -0.2877 -0.2656
  166POPC   C4B 2545   9.334   8.501   5.932 -0.1106 -0.1865  0.1096
  167POPC   NC3 2546  10.083   5.196   4.398  0.0061  0.2224 -0.2127
  167POPC   PO4 2547   9.755   5.282   4.670  0.2141 -0.2294  0.0397
  167POPC   GL1 2548   9.960   5.152   5.128  0.1430  0.1030 -0.0609
  167POPC   GL2 2549  10.334   5.097   4.980  0.0668 -0.3253  0.0124
  167POPC   C1A 2550  10.155   5.216   5.556 -0.0599  0.3090 -0.2785
  167POPC   D2A 2551  10.369   5.401   5.891  0.0120 -0.1414 -0.0474
  167POPC   C3A 2552  10.087   5.695   6.242  0.3485  0.2766  0.0228
  167POPC   C4A 2553   9.696   5.819   6.131  0.1514 -0.1190  0.6292
  167POPC   C1B 2554  10.598   5.251   5.259 -0.0663 -0.1446  0.1900
  167POPC   C2B 2555  10.801   5.285   5.644  0.0969 -0.2181  0.1125
  167POPC   C3B 2556  11.058   5.163   5.727  0.1545  0.2485 -0.2332
  167POPC   C4B 2557  11.231   5.255   6.151 -0.0205 -0.1270 -0.3045
  168POPC   NC3 2558   1.244   6.343   3.660  0.0320  0.1147 -0.1590
  168POPC   PO4 2559   1.275   6.728   3.787  0.0238  0.0227  0.3109
  168POPC   GL1 2560   0.986   6.831   4.165 -0.0241 -0.3256  0.2009
  168POPC   GL2 2561   0.764   6.673   4.292  0.5395 -0.1583 -0.0762
  168POPC   C1A 2562   0.883   7.236   4.146  0.0458 -0.1148 -0.2455
  168POPC   D2A 2563   0.895   7.680   4.167  0.0956 -0.0335  0.3104
  168POPC   C3A 2564   0.691   7.966   4.522  0.2724 -0.2218 -0.1462
  168POPC   C4A 2565   0.460   8.187   4.778  0.0349 -0.3765 -0.0890
  168POPC   C1B 2566   1.052   6.993   4.586 -0.0008  0.0662  0.3634
  168POPC   C2B 2567   0.980   7.036   5.013 -0.1727  0.0730  0.3912
  168POPC   C3B 2568   0.906   6.745   5.311  0.1135 -0.1417  0.0022
  168POPC   C4B 2569   0.584   6.459   5.558 -0.0376  0.0338 -0.0229
  169POPC   NC3 2570   2.658   2.627   5.630 -0.0063  0.2461  0.1902
  169POPC   PO4 2571   2.578   2.991   5.510 -0.2433 -0.4513 -0.2317
  169POPC   GL1 2572   2.566   2.925   6.023 -0.0029 -0.0645  0.2214
  169POPC   GL2 2573   2.968   2.967   5.945 -0.1020 -0.0968 -0.3462
  169POPC   C1A 2574   2.695   3.112   6.471  0.0140  0.1146  0.3126
  169POPC   D2A 2575   2.700   3.141   6.976 -0.2888  0.1889  0.0616
  169POPC   C3A 2576   2.353   3.530   7.161 -0.1846  0.1445 -0.0797
  169POPC   C4A 2577   2.042   3.498   7.591 -0.2766  0.0672  0.3631
  169POPC   C1B 2578   3.120   3.147   6.246 -0.1801  0.1172 -0.2319
  169POPC   C2B 2579   3.152   3.348   6.634 -0.0667 -0.3110 -0.0557
  169POPC   C3B 2580   3.422   3.137   6.972 -0.0923  0.0251  0.0189
  169POPC   C4B 2581   3.612   3.226   7.370 -0.0191  0.1895 -0.1215
  170POPC   NC3 2582   9.397   9.613   3.794  0.1581 -0.1157 -0.0762
  170POPC   PO4 2583   9.530   9.910   4.146 -0.2691 -0.2368 -0.0422
  170POPC   GL1 2584   9.486   9.721   4.568  0.1500  0.1261 -0.2893
  170POPC   GL2 2585   9.538   9.930   4.848  0.0710 -0.1704 -0.0289
  170POPC   C1A 2586   9.439   9.398   4.770 -0.1268 -0.2788 -0.2470
  170POPC   D2A 2587   9.342   9.096   4.984 -0.0472 -0.0102  0.2792
  170POPC   C3A 2588   9.521   8.952   5.431  0.2471  0.1302 -0.2213
  170POPC   C4A 2589   9.319   9.065   5.880 -0.0594  0.1852  0.0982
  170POPC   C1B 2590   9.983   9.898   4.947 -0.1984  0.2335  0.2843
  170POPC   C2B 2591  10.296   9.651   5.080  0.0057 -0.0633 -0.2823
  170POPC   C3B 2592  10.666   9.432   5.090  0.3149  0.1429 -0.0134
  170POPC   C4B 2593  10.889   9.099   4.908 -0.0264  0.1770  0.0328
  171POPC   NC3 2594   1.724   8.747   4.098  0.0444 -0.2368 -0.2646
  171POPC   PO4 2595   2.098   8.692   4.364 -0.2345 -0.4236 -0.2103
  171POPC   GL1 2596   1.980   8.426   4.620  0.3121  0.1713  0.2014
  171POPC   GL2 2597   2.189   8.297   4.948 -0.3193 -0.3232 -0.2399
  171POPC   C1A 2598   1.657   8.271   4.967 -0.0544  0.0705 -0.0013
  171POPC   D2A 2599   1.437   8.311   5.347  0.0897 -0.4744 -0.0095
  171POPC   C3A 2600   1.151   8.005   5.450  0.0877  0.0836 -0.2107
  171POPC   C4A 2601   0.767   8.090   5.488  0.1493  0.0475  0.2341
  171POPC   C1B 2602   1.977   8.303   5.362  0.3996  0.1607  0.1310
  171POPC   C2B 2603   1.786   7.970   5.646  0.1054  0.2690 -0.3415
  171POPC   C3B 2604   1.436   7.969   5.820  0.2713 -0.0896  0.0201
  171POPC   C4B 2605   1.306   7.696   6.134 -0.2302 -0.3938  0.2153
  172POPC   NC3 2606   7.833   4.923   4.717 -0.2862  0.1351  0.0817
  172POPC   PO4 2607   7.467   4.869   5.054  0.1021  0.0753  0.1491
  172POPC   GL1 2608   7.474   4.659   5.359  0.1283  0.5166  0.0057
  172POPC   GL2 2609   7.710   4.840   5.493 -0.0151 -0.1383  0.0056
  172POPC   C1A 2610   7.460   4.639   5.837 -0.1623 -0.0441 -0.0899
  172POPC   D2A 2611   7.447   4.786   6.263  0.0392 -0.0356  0.0728
  172POPC   C3A 2612   7.268   5.036   6.512 -0.1329 -0.0094 -0.0078
  172POPC   C4A 2613   7.166   5.430   6.360  0.2011 -0.0534 -0.1489
  172POPC   C1B 2614   7.852   5.075   5.884  0.1276 -0.0750  0.3122
  172POPC   C2B 2615   7.703   5.230   6.275  0.1695  0.0621  0.2050
  172POPC   C3B 2616   7.646   5.498   6.646 -0.0520 -0.0406  0.2186
  172POPC   C4B 2617   7.876   5.361   7.063  0.1105 -0.2506  0.2411
  173POPC   NC3 2618   1.482   0.093   5.090  0.0738 -0.0671 -0.1868
  173POPC   PO4 2619   1.490   0.553   5.241  0.0751  0.4546  0.0117
  173POPC   GL1 2620   1.199   0.446   5.435 -0.3241  0.0854  0.0944
  173POPC   GL2 2621   1.355   0.518   5.793 -0.0531 -0.1810  0.1750
  173POPC   C1A 2622   0.848   0.489   5.681  0.3967  0.1288  0.2203
  173POPC   D2A 2623   0.535   0.384   5.984  0.2048 -0.1413  0.0125
  173POPC   C3A 2624   0.231   0.564   6.005  0.1439  0.1106 -0.4163
  173POPC   C4A 2625   0.189   0.934   6.303  0.4700  0.1857  0.1629
  173POPC   C1B 2626   1.387   0.351   6.178  0.0286  0.1306  0.1758
  173POPC   C2B 2627   1.389   0.158   6.629 -0.0223 -0.1208  0.2078
  173POPC   C3B 2628   1.196   0.051   7.023 -0.0616 -0.0715 -0.0029
  173POPC   C4B 2629   1.524   0.023   7.346 -0.0574  0.2286 -0.1179
  174POPC   NC3 2630   4.068   8.088   5.437 -0.0345 -0.1742 -0.3328
  174POPC   PO4 2631   4.459   7.953   5.438  0.0420 -0.1007  0.0360
  174POPC   GL1 2632   4.587   7.867   5.844  0.3027  0.1593  0.0250
  174POPC   GL2 2633   4.612   7.515   5.839 -0.3260  0.0867  0.1295
  174POPC   C1A 2634   4.742   8.148   6.102 -0.1734  0.2522  0.0557
  174POPC   D2A 2635   4.933   8.106   6.461 -0.2509 -0.0045  0.0049
  174POPC   C3A 2636   5.298   8.259   6.667  0.0303 -0.3725  0.0874
  174POPC   C4A 2637   5.488   8.325   7.061 -0.0172  0.0259 -0.0829
  174POPC   C1B 2638   4.391   7.254   6.069  0.1445 -0.2233  0.0739
  174POPC   C2B 2639   4.359   6.888   6.397 -0.1116 -0.1452 -0.0838
  174POPC   C3B 2640   4.150   6.572   6.767  0.1249 -0.0013  0.2676
  174POPC   C4B 2641   4.398   6.382   7.023 -0.0437 -0.0746 -0.0127
  175POPC   NC3 2642   7.131   8.367   5.037  0.1275 -0.2357 -0.1370
  175POPC   PO4 2643   7.495   8.345   4.743 -0.3320  0.3270  0.2233
  175POPC   GL1 2644   7.578   8.070   5.185 -0.0046 -0.0139  0.4731
  175POPC   GL2 2645   7.394   8.215   5.447 -0.0872 -0.4642 -0.0292
  175POPC   C1A 2646   7.705   7.878   5.619 -0.3833  0.0447  0.0215
  175POPC   D2A 2647   7.551   7.531   5.864  0.1069  0.0766 -0.2443
  175POPC   C3A 2648   7.672   7.297   6.242 -0.1219  0.0031  0.0058
  175POPC   C4A 2649   7.675   6.876   6.389  0.1581  0.1373 -0.1859
  175POPC   C1B 2650   7.273   8.487   5.750 -0.0717 -0.1766  0.1595
  175POPC   C2B 2651   6.987   8.596   6.073 -0.1899 -0.1575 -0.3535
  175POPC   C3B 2652   6.834   8.483   6.476  0.1467 -0.0443  0.0409
  175POPC   C4B 2653   6.930   8.486   6.880  0.3891 -0.0695  0.1836
  176POPC   NC3 2654   8.574   6.645   4.296 -0.1905  0.0376  0.1765
  176POPC   PO4 2655   9.079   6.426   4.218  0.0313 -0.3650  0.1989
  176POPC   GL1 2656   8.899   6.357   4.581 -0.0075 -0.0800 -0.3393
  176POPC   GL2 2657   8.703   6.120   4.653 -0.1251  0.1316 -0.1393
  176POPC   C1A 2658   8.909   6.395   5.057  0.0166  0.2753  0.0750
  176POPC   D2A 2659   9.034   6.651   5.446 -0.0919  0.2694  0.1713
  176POPC   C3A 2660   8.922   6.515   5.863  0.1802 -0.0611  0.1045
  176POPC   C4A 2661   8.953   6.313   6.293 -0.1067 -0.0857 -0.0321
  176POPC   C1B 2662   8.493   6.123   5.033 -0.0241 -0.0486  0.0099
  176POPC   C2B 2663   8.526   6.152   5.461  0.4057 -0.1666  0.1865
  176POPC   C3B 2664   8.683   6.082   5.930  0.2135 -0.1992 -0.0380
  176POPC   C4B 2665   8.456   6.342   6.263  0.4064  0.1651 -0.0520
  177POPC   NC3 2666   2.275   5.855   4.440  0.0826  0.1868 -0.2116
  177POPC   PO4 2667   2.337   5.447   4.750 -0.0162 -0.0068 -0.1154
  177POPC   GL1 2668   2.374   5.678   5.071  0.1101 -0.2962  0.0250
  177POPC   GL2 2669   2.120   5.684   5.200 -0.1239  0.0567 -0.3337
  177POPC   C1A 2670   2.565   5.881   5.445 -0.3566 -0.0925 -0.1357
  177POPC   D2A 2671   2.400   6.192   5.793 -0.0765  0.2180 -0.2916
  177POPC   C3A 2672   2.360   6.635   5.765  0.0788 -0.0006  0.1776
  177POPC   C4A 2673   2.314   6.885   5.508  0.0849 -0.1787  0.3394
  177POPC   C1B 2674   2.164   5.675   5.601  0.2315  0.1899 -0.1204
  177POPC   C2B 2675   2.008   5.641   6.045 -0.2667  0.0284  0.0971
  177POPC   C3B 2676   1.750   5.669   6.400  0.0369 -0.1869 -0.0123
  177POPC   C4B 2677   1.310   5.705   6.534 -0.1422 -0.0247  0.0388
  178POPC   NC3 2678   8.902   3.918   5.441 -0.2888 -0.0944 -0.0495
  178POPC   PO4 2679   8.799   3.507   5.571  0.1015 -0.0187  0.0863
  178POPC   GL1 2680   8.627   3.827   5.821  0.0113  0.0352 -0.0031
  178POPC   GL2 2681   8.838   3.838   6.044  0.0374 -0.0619 -0.0148
  178POPC   C1A 2682   8.808   4.316   6.155  0.1972  0.1323  0.0018
  178POPC   D2A 2683   9.073   4.444   6.441  0.1677  0.0814 -0.0765
  178POPC   C3A 2684   8.846   4.770   6.613  0.1401 -0.0223  0.0849
  178POPC   C4A 2685   8.601   5.101   6.851  0.2266  0.0647 -0.0831
  178POPC   C1B 2686   9.012   3.518   6.391  0.3706 -0.0549  0.2214
  178POPC   C2B 2687   9.121   3.277   6.702 -0.3247  0.4080  0.3958
  178POPC   C3B 2688   8.910   3.194   7.032  0.0975 -0.1398 -0.1066
  178POPC   C4B 2689   8.863   3.295   7.462 -0.1758  0.0762 -0.0519
  179POPC   NC3 2690   6.261   0.581   5.480 -0.1111 -0.0350 -0.0829
  179POPC   PO4 2691   5.872   0.911   5.294  0.2306 -0.1786 -0.2758
  179POPC   GL1 2692   5.775   0.726   5.583  0.0240  0.0610  0.1697
  179POPC   GL2 2693   5.845   0.385   5.589  0.0781 -0.2393  0.1962
  179POPC   C1A 2694   5.686   0.947   6.030  0.0795  0.0730 -0.0444
  179POPC   D2A 2695   5.524   1.181   6.341 -0.1041 -0.0946  0.1414
  179POPC   C3A 2696   5.427   0.916   6.643  0.1571 -0.0922  0.0411
  179POPC   C4A 2697   5.516   0.739   6.993 -0.1166  0.0602  0.3199
  179POPC   C1B 2698   5.924   0.173   6.065  0.1913  0.0825  0.1911
  179POPC   C2B 2699   5.802  -0.002   6.476  0.0403  0.1616  0.0388
  179POPC   C3B 2700   5.523   0.228   6.819  0.0674 -0.0592  0.2201
  179POPC   C4B 2701   5.050   0.389   6.794 -0.0501  0.2699 -0.0176
  180POPC   NC3 2702   4.015   7.146   4.808  0.0693  0.0138  0.0530
  180POPC   PO4 2703   4.307   7.297   5.222 -0.0537  0.0365 -0.1324
  180POPC   GL1 2704   4.168   7.533   5.586  0.1449 -0.3636  0.0016
  180POPC   GL2 2705   3.897   7.695   5.670  0.1584 -0.1681  0.0731
  180POPC   C1A 2706   3.928   7.481   6.106  0.5165 -0.1024  0.0338
  180POPC   D2A 2707   3.819   7.324   6.529 -0.3242 -0.1739  0.1454
  180POPC   C3A 2708   3.467   7.406   6.866 -0.3428  0.0237 -0.0191
  180POPC   C4A 2709   3.315   7.700   7.199 -0.1532 -0.1711 -0.2552
  180POPC   C1B 2710   4.196   7.868   6.082 -0.0292  0.4412  0.3141
  180POPC   C2B 2711   4.125   7.968   6.509 -0.2052 -0.0470 -0.2220
  180POPC   C3B 2712   3.958   7.786   6.853  0.3582  0.0038 -0.1156
  180POPC   C4B 2713   3.916   7.486   7.155  0.3382 -0.1343  0.1688
  181POPC   NC3 2714   0.369   2.127   4.886  0.1741 -0.0771  0.0321
  181POPC   PO4 2715   0.647   1.808   5.107  0.1523 -0.2011 -0.0005
  181POPC   GL1 2716   0.920   1.752   5.314 -0.0525  0.1139  0.0053
  181POPC   GL2 2717   1.193   1.905   5.222 -0.3060  0.4738 -0.2156
  181POPC   C1A 2718   0.947   1.754   5.755  0.1047 -0.3228 -0.2881
  181POPC   D2A 2719   1.148   1.429   5.989  0.0734  0.0712 -0.2618
  181POPC   C3A 2720   1.466   1.622   6.222 -0.1379  0.2422 -0.1381
  181POPC   C4A 2721   1.726   1.975   6.080  0.2497 -0.0623  0.0863
  181POPC   C1B 2722   1.114   2.181   5.590  0.0881 -0.2583 -0.2023
  181POPC   C2B 2723   1.011   2.501   5.942  0.0058 -0.0187  0.0558
  181POPC   C3B 2724   0.956   2.432   6.320  0.1323  0.2575 -0.0045
  181POPC   C4B 2725   1.002   2.174   6.743  0.2298 -0.1128  0.0928
  182POPC   NC3 2726   6.425   0.924   4.648  0.0873  0.1664 -0.0740
  182POPC   PO4 2727   6.227   1.196   5.070  0.1355  0.0856 -0.2015
  182POPC   GL1 2728   6.247   1.099   5.600  0.0188  0.0292 -0.2416
  182POPC   GL2 2729   6.483   1.012   5.774 -0.0283  0.2854 -0.0403
  182POPC   C1A 2730   6.166   0.813   6.087 -0.1509 -0.2929  0.2601
  182POPC   D2A 2731   6.210   0.453   6.362  0.1586  0.0101  0.0513
  182POPC   C3A 2732   6.323   0.097   6.311 -0.1462 -0.0539  0.1891
  182POPC   C4A 2733   6.069  -0.319   6.235  0.1739 -0.1361  0.2571
  182POPC   C1B 2734   6.575   1.210   6.195 -0.0889 -0.2926 -0.1229
  182POPC   C2B 2735   6.652   1.379   6.683 -0.0935 -0.0744 -0.0158
  182POPC   C3B 2736   6.657   1.551   7.070  0.0948 -0.1569 -0.1992
  182POPC   C4B 2737   6.953   1.692   7.281  0.2632  0.0373 -0.1954
  183POPC   NC3 2738   0.224   1.857   5.318  0.3440  0.2383 -0.0429
  183POPC   PO4 2739   0.182   2.342   5.389 -0.2152  0.0619 -0.0092
  183POPC   GL1 2740   0.033   2.225   5.903 -0.1385 -0.1150  0.3306
  183POPC   GL2 2741   0.176   1.856   5.807 -0.2043  0.2599  0.1446
  183POPC   C1A 2742   0.195   2.455   6.284  0.0622 -0.3491 -0.1689
  183POPC   D2A 2743   0.596   2.733   6.401  0.0198 -0.0168 -0.1297
  183POPC   C3A 2744   0.924   2.771   6.745 -0.0956 -0.2477  0.3819
  183POPC   C4A 2745   1.001   3.050   7.061  0.0224 -0.0069  0.0310
  183POPC   C1B 2746   0.194   1.857   6.295 -0.0394  0.0900  0.2200
  183POPC   C2B 2747   0.442   1.676   6.554 -0.1940  0.1300 -0.0093
  183POPC   C3B 2748   0.811   1.706   6.812  0.1476  0.0775  0.3418
  183POPC   C4B 2749   0.971   1.428   7.071 -0.0522 -0.2161 -0.2547
  184POPC   NC3 2750   8.109   3.090   5.527  0.0200 -0.0083 -0.0790
  184POPC   PO4 2751   8.316   2.774   5.698 -0.1057 -0.0197  0.0315
  184POPC   GL1 2752   8.015   3.042   6.023  0.0095  0.0158 -0.0039
  184POPC   GL2 2753   8.143   2.921   6.394 -0.1468 -0.0458  0.1331
  184POPC   C1A 2754   7.738   3.216   6.199 -0.0371  0.0863 -0.3363
  184POPC   D2A 2755   7.570   3.509   6.503  0.1083  0.0491  0.0276
  184POPC   C3A 2756   7.180   3.642   6.557  0.0313  0.0467 -0.3238
  184POPC   C4A 2757   6.911   4.004   6.484  0.1532 -0.2480 -0.1633
  184POPC   C1B 2758   8.269   2.991   6.805  0.1528  0.1974  0.1344
  184POPC   C2B 2759   8.378   3.230   7.188  0.1425 -0.0540  0.0096
  184POPC   C3B 2760   8.329   3.165   7.712 -0.1655  0.3894 -0.0823
  184POPC   C4B 2761   8.689   3.249   7.962  0.2493  0.0233 -0.1588
  185POPC   NC3 2762   6.725   5.338   5.026 -0.1378  0.2790  0.1169
  185POPC   PO4 2763   7.149   5.430   5.110  0.2389  0.2661 -0.3124
  185POPC   GL1 2764   7.050   5.331   5.535 -0.0823  0.0592  0.0289
  185POPC   GL2 2765   7.244   5.033   5.616  0.3523  0.2763  0.0032
  185POPC   C1A 2766   6.790   5.371   5.890 -0.1443 -0.2529  0.1442
  185POPC   D2A 2767   6.608   5.419   6.348  0.0446 -0.1136  0.1260
  185POPC   C3A 2768   6.721   5.732   6.539 -0.0087 -0.2009  0.0610
  185POPC   C4A 2769   6.927   6.078   6.741  0.0785 -0.2395  0.0856
  185POPC   C1B 2770   7.331   5.248   5.929 -0.0908 -0.0456 -0.0388
  185POPC   C2B 2771   7.610   5.513   5.808  0.2043 -0.0555  0.3546
  185POPC   C3B 2772   8.053   5.577   5.703 -0.1337  0.0631 -0.0267
  185POPC   C4B 2773   8.360   5.486   5.372 -0.0863 -0.0393  0.1045
  186POPC   NC3 2774   5.172   3.355   5.269 -0.0653 -0.3777 -0.0557
  186POPC   PO4 2775   5.350   2.885   5.222 -0.1385  0.2651 -0.4122
  186POPC   GL1 2776   5.483   2.925   5.590 -0.2431 -0.1966 -0.3395
  186POPC   GL2 2777   5.793   2.822   5.693 -0.0277  0.2012  0.1001
  186POPC   C1A 2778   5.398   2.956   5.995 -0.1812 -0.1270 -0.1777
  186POPC   D2A 2779   5.383   3.179   6.437 -0.0835 -0.1927  0.0916
  186POPC   C3A 2780   4.988   3.212   6.553 -0.1776  0.4046  0.2190
  186POPC   C4A 2781   4.842   3.278   7.009 -0.0987  0.0758  0.1577
  186POPC   C1B 2782   5.967   2.810   5.994  0.3288 -0.2157  0.1312
  186POPC   C2B 2783   5.995   2.738   6.451  0.0133 -0.1125  0.0858
  186POPC   C3B 2784   6.049   2.679   6.883 -0.1593  0.0391  0.1340
  186POPC   C4B 2785   6.296   2.751   7.201  0.3068 -0.0583  0.2459
  187POPC   NC3 2786   0.162   4.222   5.420  0.1210 -0.0306 -0.1417
  187POPC   PO4 2787  -0.200   4.269   5.336  0.2102 -0.2222 -0.2400
  187POPC   GL1 2788  -0.153   4.004   5.733 -0.1196 -0.1283  0.0509
  187POPC   GL2 2789  -0.418   3.978   5.983 -0.0212 -0.0979 -0.2265
  187POPC   C1A 2790   0.176   4.030   6.079  0.4809  0.0166 -0.1045
  187POPC   D2A 2791   0.034   4.025   6.600 -0.0301 -0.2996 -0.1580
  187POPC   C3A 2792   0.314   4.306   6.910 -0.2444  0.0478 -0.0281
  187POPC   C4A 2793   0.589   4.673   6.900 -0.0270  0.2350 -0.3294
  187POPC   C1B 2794  -0.386   3.837   6.410  0.3452 -0.1553  0.0741
  187POPC   C2B 2795  -0.461   3.904   6.878 -0.6071 -0.0204 -0.1125
  187POPC   C3B 2796  -0.836   4.053   6.955  0.3805 -0.1367  0.0442
  187POPC   C4B 2797  -1.079   4.463   6.907 -0.0216 -0.0993  0.0294
  188POPC   NC3 2798   4.714   2.108   5.322 -0.2458 -0.0022  0.0122
  188POPC   PO4 2799   4.446   2.036   5.029 -0.1657 -0.1202 -0.1554
  188POPC   GL1 2800   4.329   1.816   5.381 -0.0255  0.3232  0.1450
  188POPC   GL2 2801   4.462   1.831   5.667  0.2193  0.2946 -0.0306
  188POPC   C1A 2802   4.123   1.361   5.617  0.3272 -0.0247 -0.2464
  188POPC   D2A 2803   4.085   1.243   6.058  0.0044  0.2401  0.0392
  188POPC   C3A 2804   4.443   1.086   6.331  0.0471  0.1113  0.0681
  188POPC   C4A 2805   4.514   1.314   6.719 -0.0682  0.1394  0.3271
  188POPC   C1B 2806   4.508   1.536   6.085 -0.2056  0.1380  0.0270
  188POPC   C2B 2807   4.780   1.561   6.409 -0.1181 -0.3384  0.0083
  188POPC   C3B 2808   5.053   1.320   6.488  0.2255 -0.1390 -0.0996
  188POPC   C4B 2809   5.162   1.069   6.038 -0.0750 -0.1467  0.1138
  189POPC   NC3 2810   3.784   0.186   5.143 -0.0859 -0.3297  0.1776
  189POPC   PO4 2811   3.888  -0.077   5.194 -0.4860 -0.1224 -0.3621
  189POPC   GL1 2812   3.742  -0.121   5.628 -0.0683 -0.0784  0.1013
  189POPC   GL2 2813   3.970   0.065   5.721  0.2041  0.0281 -0.1275
  189POPC   C1A 2814   3.744  -0.478   5.913 -0.1289 -0.0146 -0.2308
  189POPC   D2A 2815   3.606  -0.488   6.349  0.1464  0.2578  0.3136
  189POPC   C3A 2816   3.724  -0.230   6.644 -0.1763 -0.0215  0.1695
  189POPC   C4A 2817   3.841   0.164   6.627  0.1848 -0.2582 -0.1967
  189POPC   C1B 2818   3.733   0.090   6.111 -0.2571  0.3224 -0.2236
  189POPC   C2B 2819   3.373  -0.011   6.424 -0.1249  0.0671  0.3600
  189POPC   C3B 2820   3.097  -0.030   6.739 -0.1675 -0.4829 -0.0393
  189POPC   C4B 2821   2.892  -0.156   7.076 -0.0305 -0.1207  0.0693
  190POPC   NC3 2822  10.125   0.860   4.982 -0.2977 -0.1253  0.1392
  190POPC   PO4 2823   9.939   1.279   5.024 -0.2460 -0.2065  0.1986
  190POPC   GL1 2824   9.781   0.928   5.310  0.5200  0.1747  0.1483
  190POPC   GL2 2825   9.589   1.191   5.440  0.0278 -0.0668 -0.2289
  190POPC   C1A 2826   9.622   0.787   5.714  0.4676 -0.0376 -0.2442
  190POPC   D2A 2827   9.502   0.519   6.082 -0.0725 -0.0165 -0.2049
  190POPC   C3A 2828   9.557   0.477   6.512 -0.0197  0.0542 -0.1601
  190POPC   C4A 2829   9.396   0.181   6.809 -0.0674 -0.2393 -0.2543
  190POPC   C1B 2830   9.193   1.327   5.640 -0.0789 -0.0799  0.2801
  190POPC   C2B 2831   9.331   1.684   5.913  0.2496  0.0408 -0.0080
  190POPC   C3B 2832   9.278   1.881   6.368  0.0490 -0.0890  0.0135
  190POPC   C4B 2833   9.144   1.894   6.865  0.0820  0.1192  0.0507
  191POPC   NC3 2834   6.206   2.099   5.050 -0.2135 -0.0450  0.0769
  191POPC   PO4 2835   5.850   1.981   5.279 -0.0682 -0.2218  0.0750
  191POPC   GL1 2836   5.813   1.921   5.670 -0.1451  0.0356  0.0686
  191POPC   GL2 2837   5.834   1.606   5.720 -0.0524 -0.0291 -0.2651
  191POPC   C1A 2838   5.800   1.820   6.178  0.0435 -0.3469 -0.0857
  191POPC   D2A 2839   5.738   1.653   6.484 -0.0268 -0.0848  0.5021
  191POPC   C3A 2840   5.535   1.466   6.756  0.2926  0.0806  0.0931
  191POPC   C4A 2841   5.704   1.219   7.107  0.1726  0.2198  0.1329
  191POPC   C1B 2842   5.981   1.338   5.960  0.2418 -0.1936 -0.1965
  191POPC   C2B 2843   5.964   1.147   6.370 -0.3640  0.2246 -0.5203
  191POPC   C3B 2844   6.333   0.905   6.593 -0.1624 -0.2045 -0.1552
  191POPC   C4B 2845   6.453   0.540   6.840  0.0512 -0.2333  0.0251
  192POPC   NC3 2846   1.139   0.691   4.303  0.0554  0.1125  0.0635
  192POPC   PO4 2847   0.782   0.687   4.726  0.3578  0.2478 -0.0069
  192POPC   GL1 2848   0.608   0.517   5.187  0.0509 -0.1292 -0.0590
  192POPC   GL2 2849   0.529   0.731   5.409 -0.3003 -0.0036 -0.1315
  192POPC   C1A 2850   0.648   0.110   5.438  0.1635 -0.1057 -0.0016
  192POPC   D2A 2851   0.697  -0.172   5.747 -0.2763 -0.0663 -0.0084
  192POPC   C3A 2852   0.381  -0.417   5.960 -0.1374 -0.1867  0.1728
  192POPC   C4A 2853   0.030  -0.705   6.028  0.3239  0.0251  0.1696
  192POPC   C1B 2854   0.548   0.924   5.760 -0.1249  0.0916 -0.1687
  192POPC   C2B 2855   0.709   0.987   6.069  0.2067 -0.2483  0.0845
  192POPC   C3B 2856   0.995   1.104   6.347  0.1469 -0.1095  0.1200
  192POPC   C4B 2857   1.111   1.313   6.529  0.0944 -0.2749  0.1945
  193POPC   NC3 2858   1.885   1.295   4.771  0.0988 -0.1561  0.1666
  193POPC   PO4 2859   2.120   1.287   5.139 -0.2781 -0.0014  0.1746
  193POPC   GL1 2860   2.244   1.309   5.533  0.2619  0.2631  0.4087
  193POPC   GL2 2861   2.513   1.432   5.655 -0.0816  0.0800 -0.4585
  193POPC   C1A 2862   1.951   1.568   5.781  0.2196  0.4576 -0.1187
  193POPC   D2A 2863   1.951   1.511   6.115  0.2734 -0.2108 -0.0324
  193POPC   C3A 2864   2.165   1.285   6.496 -0.2572 -0.0713  0.1310
  193POPC   C4A 2865   1.945   0.920   6.720  0.0650  0.0638 -0.0629
  193POPC   C1B 2866   2.432   1.312   6.054 -0.1684  0.0411 -0.4087
  193POPC   C2B 2867   2.158   0.876   6.179  0.1438 -0.2294  0.1509
  193POPC   C3B 2868   2.085   0.520   6.438  0.0854 -0.3114 -0.1659
  193POPC   C4B 2869   2.061   0.128   6.738  0.1800  0.2737 -0.0123
  194POPC   NC3 2870   3.480   9.789   5.165  0.0352 -0.3539 -0.0790
  194POPC   PO4 2871   3.042   9.906   5.100  0.0215  0.1916  0.0676
  194POPC   GL1 2872   3.273  10.186   5.390 -0.4071  0.2693  0.1649
  194POPC   GL2 2873   3.479  10.503   5.505 -0.1069 -0.1693  0.0069
  194POPC   C1A 2874   3.152  10.353   5.845 -0.2544  0.0442  0.0861
  194POPC   D2A 2875   3.034  10.695   6.040  0.0718  0.0440 -0.4516
  194POPC   C3A 2876   2.694  10.841   6.180 -0.1555  0.0388 -0.1041
  194POPC   C4A 2877   2.431  11.042   6.616 -0.1251  0.1208 -0.0748
  194POPC   C1B 2878   3.549  10.696   5.798  0.2023 -0.1335 -0.1030
  194POPC   C2B 2879   3.511  10.698   6.264 -0.0253 -0.0990 -0.2697
  194POPC   C3B 2880   3.382  10.660   6.629 -0.0131  0.4590 -0.1161
  194POPC   C4B 2881   2.925  10.733   6.583  0.1874 -0.2553  0.1796
  195POPC   NC3 2882   6.820   7.905   4.251  0.2577 -0.1865 -0.1563
  195POPC   PO4 2883   6.828   7.638   4.789  0.0009  0.3750  0.0105
  195POPC   GL1 2884   7.078   7.749   5.101  0.1836  0.1251  0.0616
  195POPC   GL2 2885   6.957   7.947   5.334 -0.0705 -0.1149  0.0213
  195POPC   C1A 2886   7.433   7.612   5.332  0.0975  0.1808 -0.0652
  195POPC   D2A 2887   7.801   7.360   5.385  0.0970  0.0436 -0.0282
  195POPC   C3A 2888   8.073   7.363   5.858  0.1774 -0.0573  0.2169
  195POPC   C4A 2889   8.187   7.187   6.155 -0.1191  0.1133  0.1362
  195POPC   C1B 2890   7.167   7.876   5.742  0.1797  0.0481  0.0970
  195POPC   C2B 2891   7.530   8.022   6.029 -0.1937 -0.0364 -0.0296
  195POPC   C3B 2892   7.674   8.029   6.396 -0.1978 -0.0177  0.2489
  195POPC   C4B 2893   7.621   7.828   6.777 -0.2475  0.0880  0.0069
  196POPC   NC3 2894   8.969   3.104   5.381 -0.0609 -0.3828 -0.0851
  196POPC   PO4 2895   8.566   3.136   5.325  0.0393 -0.3061 -0.0372
  196POPC   GL1 2896   8.621   3.146   5.892  0.3905  0.1775 -0.0148
  196POPC   GL2 2897   8.381   3.389   5.928  0.2941  0.0645  0.3503
  196POPC   C1A 2898   8.619   3.165   6.361 -0.0525 -0.2894  0.0897
  196POPC   D2A 2899   8.498   3.420   6.707  0.2314 -0.1596  0.3484
  196POPC   C3A 2900   8.630   3.609   6.981 -0.2053  0.1244  0.1458
  196POPC   C4A 2901   9.117   3.652   7.144  0.0109 -0.0568  0.1480
  196POPC   C1B 2902   8.382   3.633   6.174  0.1549  0.4773  0.2148
  196POPC   C2B 2903   8.582   3.991   6.447  0.1486 -0.0339  0.2042
  196POPC   C3B 2904   8.882   3.909   6.636 -0.1329  0.0322 -0.1391
  196POPC   C4B 2905   9.399   3.705   6.654 -0.1766 -0.0561  0.0699
  197POPC   NC3 2906   9.339   6.037   4.070 -0.1090 -0.0729 -0.0206
  197POPC   PO4 2907   8.971   5.826   4.094 -0.5063 -0.2105 -0.1517
  197POPC   GL1 2908   9.114   5.844   4.454 -0.2292 -0.3113  0.0825
  197POPC   GL2 2909   8.991   5.603   4.701  0.3486 -0.0612  0.0936
  197POPC   C1A 2910   9.385   5.902   4.755 -0.1531  0.0948 -0.0342
  197POPC   D2A 2911   9.565   5.777   5.194 -0.1890  0.1754 -0.3675
  197POPC   C3A 2912   9.987   5.762   5.201  0.3769 -0.0780 -0.1548
  197POPC   C4A 2913  10.270   5.702   5.486 -0.0722  0.0502  0.1260
  197POPC   C1B 2914   8.985   5.924   5.020 -0.2963  0.0630 -0.2031
  197POPC   C2B 2915   9.047   6.113   5.550  0.0920  0.1064  0.0901
  197POPC   C3B 2916   9.364   6.237   5.834 -0.0225 -0.1349 -0.4820
  197POPC   C4B 2917   9.444   6.326   6.216  0.0541  0.2366 -0.0094
  198POPC   NC3 2918   9.951   5.700   4.352  0.2477  0.1266 -0.0005
  198POPC   PO4 2919   9.848   5.950   3.997 -0.2588 -0.2036 -0.0147
  198POPC   GL1 2920   9.799   6.200   4.366  0.0325 -0.1735 -0.1734
  198POPC   GL2 2921   9.531   6.283   4.488  0.2184  0.0508  0.0718
  198POPC   C1A 2922   9.832   6.163   4.900 -0.3207 -0.0342 -0.1280
  198POPC   D2A 2923   9.569   6.266   5.333  0.0538  0.0280 -0.0910
  198POPC   C3A 2924   9.806   6.049   5.649 -0.0478 -0.0622 -0.1136
  198POPC   C4A 2925   9.918   5.593   5.770  0.1386 -0.1814  0.0739
  198POPC   C1B 2926   9.376   6.405   4.864 -0.1217  0.0270 -0.3053
  198POPC   C2B 2927   9.486   6.729   5.185  0.0035 -0.0014  0.0982
  198POPC   C3B 2928   9.671   6.764   5.547  0.1450  0.0153  0.1482
  198POPC   C4B 2929   9.416   6.754   5.904 -0.0325 -0.0842 -0.1566
  199POPC   NC3 2930   0.935   2.752   4.995  0.0346 -0.1409  0.1129
  199POPC   PO4 2931   0.492   2.727   5.237 -0.2175 -0.0976 -0.0892
  199POPC   GL1 2932   0.594   2.441   5.638  0.0860 -0.2393 -0.3911
  199POPC   GL2 2933   0.620   2.057   5.557 -0.0873 -0.0234 -0.0306
  199POPC   C1A 2934   0.567   2.691   5.918  0.4830  0.1037 -0.0930
  199POPC   D2A 2935   0.614   3.111   5.954 -0.3219  0.0260  0.4072
  199POPC   C3A 2936   0.864   3.182   6.342  0.0246 -0.1190  0.0700
  199POPC   C4A 2937   1.182   3.283   6.601 -0.2302 -0.3955  0.0799
  199POPC   C1B 2938   0.638   2.058   6.023 -0.3025  0.4299  0.1063
  199POPC   C2B 2939   0.573   2.183   6.471  0.0870 -0.0698 -0.0733
  199POPC   C3B 2940   0.539   2.113   6.901 -0.0895 -0.0741 -0.0211
  199POPC   C4B 2941   0.445   1.892   7.234 -0.2321 -0.0867  0.1632
  200POPC   NC3 2942   3.319   1.058   4.954  0.0186  0.2545 -0.0267
  200POPC   PO4 2943   3.608   0.702   5.112 -0.1257  0.1052  0.0409
  200POPC   GL1 2944   3.474   0.874   5.490  0.0629 -0.0185  0.3483
  200POPC   GL2 2945   3.156   0.893   5.409 -0.2302 -0.0219 -0.2194
  200POPC   C1A 2946   3.264   0.946   5.886 -0.0988  0.0269 -0.1220
  200POPC   D2A 2947   3.231   0.874   6.323 -0.0088  0.0240 -0.0006
  200POPC   C3A 2948   2.942   1.032   6.440  0.2103  0.1194  0.2804
  200POPC   C4A 2949   2.636   1.269   6.663 -0.1423 -0.0883  0.1542
  200POPC   C1B 2950   3.087   0.533   5.579  0.0246  0.4081 -0.0292
  200POPC   C2B 2951   2.690   0.314   5.714  0.0981 -0.3070 -0.0208
  200POPC   C3B 2952   2.310   0.344   6.061 -0.1166  0.0402  0.1146
  200POPC   C4B 2953   1.869   0.104   6.276 -0.1754  0.2570  0.0331
  201POPC   NC3 2954   4.770   4.247   5.001 -0.1280 -0.1481 -0.1420
  201POPC   PO4 2955   4.398   4.121   5.193 -0.0308 -0.2378  0.0250
  201POPC   GL1 2956   4.121   4.052   5.594 -0.0841 -0.2880 -0.0902
  201POPC   GL2 2957   4.314   3.801   5.583  0.0180 -0.1542 -0.0290
  201POPC   C1A 2958   4.001   4.135   6.032 -0.0169  0.0357 -0.3587
  201POPC   D2A 2959   3.890   3.857   6.404  0.2185 -0.2231  0.1230
  201POPC   C3A 2960   3.777   3.647   6.854  0.1206 -0.2105  0.0226
  201POPC   C4A 2961   4.011   3.484   7.125 -0.1832 -0.1294 -0.0901
  201POPC   C1B 2962   4.406   3.388   5.800 -0.0178  0.1469 -0.1157
  201POPC   C2B 2963   4.513   3.186   6.151 -0.1359 -0.2881 -0.0426
  201POPC   C3B 2964   4.535   3.066   6.634 -0.1181  0.1040  0.0883
  201POPC   C4B 2965   4.349   3.125   7.078  0.2054 -0.1504 -0.0847
  202POPC   NC3 2966   1.689   2.735   4.798 -0.1417 -0.0202 -0.1407
  202POPC   PO4 2967   1.924   2.420   4.902 -0.3874  0.0901 -0.0862
  202POPC   GL1 2968   1.825   2.472   5.302  0.0660 -0.1623  0.1589
  202POPC   GL2 2969   1.871   2.766   5.374  0.3013 -0.0802 -0.3037
  202POPC   C1A 2970   1.637   2.126   5.586  0.2644  0.0517 -0.2177
  202POPC   D2A 2971   1.424   1.802   5.686 -0.0733 -0.0688  0.2290
  202POPC   C3A 2972   1.592   1.275   5.676 -0.2040 -0.1312 -0.2690
  202POPC   C4A 2973   1.924   1.086   5.787  0.1129 -0.0120  0.3089
  202POPC   C1B 2974   2.008   2.897   5.812 -0.4558 -0.0231  0.0614
  202POPC   C2B 2975   2.229   3.198   6.146  0.0014  0.4146  0.1805
  202POPC   C3B 2976   2.585   3.549   6.166 -0.0109 -0.1541  0.1108
  202POPC   C4B 2977   2.570   3.901   6.503 -0.1646  0.0147  0.1731
  203POPC   NC3 2978   9.239   4.360   4.553 -0.0953  0.1209  0.3852
  203POPC   PO4 2979   8.971   4.690   4.666  0.1181  0.0949  0.1302
  203POPC   GL1 2980   8.988   4.739   5.146  0.0515  0.3024 -0.0842
  203POPC   GL2 2981   8.996   4.429   5.406  0.1673  0.0565  0.1088
  203POPC   C1A 2982   9.067   5.008   5.543  0.0371 -0.0709  0.1127
  203POPC   D2A 2983   9.250   5.200   5.876 -0.3516  0.2637  0.0617
  203POPC   C3A 2984   9.293   5.656   5.820 -0.2167  0.2814  0.0839
  203POPC   C4A 2985   9.182   5.896   6.178 -0.2208  0.0955  0.1359
  203POPC   C1B 2986   8.632   4.801   5.577 -0.0960  0.4830  0.2333
  203POPC   C2B 2987   8.392   4.674   5.944 -0.1015  0.0306  0.2205
  203POPC   C3B 2988   8.040   4.836   6.275 -0.1144  0.3657  0.2603
  203POPC   C4B 2989   7.740   4.914   6.676 -0.2865  0.0442  0.4871
  204POPC   NC3 2990   3.300   5.040   5.186 -0.2274 -0.0217  0.2583
  204POPC   PO4 2991   3.399   5.508   5.107  0.0942  0.3100  0.0899
  204POPC   GL1 2992   3.318   5.602   5.595 -0.0466 -0.0438 -0.0591
  204POPC   GL2 2993   3.232   5.315   5.647  0.0073  0.1942  0.0771
  204POPC   C1A 2994   3.006   5.680   5.931 -0.0686 -0.2126 -0.1956
  204POPC   D2A 2995   3.022   5.758   6.315  0.2125 -0.0502  0.0534
  204POPC   C3A 2996   2.771   6.007   6.603 -0.2223  0.0030 -0.0724
  204POPC   C4A 2997   2.813   6.240   7.021 -0.2170  0.0633 -0.4759
  204POPC   C1B 2998   3.034   5.073   6.006 -0.0327 -0.1484  0.1257
  204POPC   C2B 2999   2.988   5.312   6.385 -0.2360  0.0121 -0.1881
  204POPC   C3B 3000   2.675   5.443   6.694 -0.0680 -0.1726 -0.2157
  204POPC   C4B 3001   2.530   5.794   6.989  0.0090 -0.0526 -0.2680
  205POPC   NC3 3002   0.997   3.827   5.014  0.2599  0.1512 -0.5001
  205POPC   PO4 3003   1.451   3.929   5.119  0.1081 -0.1506  0.1466
  205POPC   GL1 3004   1.520   3.975   5.539  0.0645  0.3584  0.0281
  205POPC   GL2 3005   1.678   4.249   5.682  0.4037 -0.3603  0.4089
  205POPC   C1A 3006   1.235   4.158   5.782 -0.3364 -0.0838  0.2993
  205POPC   D2A 3007   1.026   4.192   6.187  0.0539  0.1504 -0.1248
  205POPC   C3A 3008   0.841   4.571   6.459  0.1227  0.0427  0.1848
  205POPC   C4A 3009   0.839   5.007   6.535  0.0198  0.0874 -0.1722
  205POPC   C1B 3010   1.550   4.455   6.120 -0.3696 -0.0210  0.0269
  205POPC   C2B 3011   1.284   4.793   6.381 -0.1418 -0.0057  0.1414
  205POPC   C3B 3012   1.293   4.852   6.797 -0.0504  0.6015 -0.0500
  205POPC   C4B 3013   1.583   4.630   7.086  0.1369 -0.0165 -0.1648
  206POPC   NC3 3014   7.247   1.965   5.385 -0.0683 -0.0850  0.0038
  206POPC   PO4 3015   6.682   1.909   5.398  0.1048 -0.1540 -0.0260
  206POPC   GL1 3016   6.875   2.212   5.560  0.2947 -0.2048 -0.1899
  206POPC   GL2 3017   6.759   2.427   5.740 -0.0708  0.0518 -0.0029
  206POPC   C1A 3018   7.147   2.037   5.992 -0.1934 -0.1696 -0.0340
  206POPC   D2A 3019   7.230   1.933   6.460  0.0727  0.0970 -0.0139
  206POPC   C3A 3020   7.616   1.751   6.507  0.2402 -0.0491 -0.0292
  206POPC   C4A 3021   7.968   2.041   6.563  0.1367  0.2221 -0.0244
  206POPC   C1B 3022   6.683   2.075   6.067 -0.3225  0.0019  0.0617
  206POPC   C2B 3023   6.610   1.896   6.522 -0.1090 -0.2716 -0.1100
  206POPC   C3B 3024   6.876   1.953   6.885 -0.0525  0.0434 -0.0885
  206POPC   C4B 3025   6.952   2.299   7.049  0.2145  0.0730 -0.2750
  207POPC   NC3 3026   2.000   5.048   4.572 -0.1174  0.1305 -0.0912
  207POPC   PO4 3027   1.742   4.781   4.853 -0.0249  0.0902  0.2802
  207POPC   GL1 3028   1.489   5.018   5.117  0.0630 -0.0727 -0.3906
  207POPC   GL2 3029   1.762   4.931   5.333  0.0793 -0.1344 -0.2169
  207POPC   C1A 3030   1.575   5.371   5.377 -0.0561  0.0575 -0.1641
  207POPC   D2A 3031   1.622   5.514   5.784  0.2333 -0.0053 -0.0384
  207POPC   C3A 3032   1.392   5.674   6.002 -0.0007 -0.0967 -0.0179
  207POPC   C4A 3033   1.098   5.916   6.203  0.0319  0.0509 -0.0752
  207POPC   C1B 3034   2.063   5.250   5.465  0.2931  0.2493  0.0149
  207POPC   C2B 3035   2.157   5.192   5.890  0.1396 -0.0304 -0.1509
  207POPC   C3B 3036   2.291   5.263   6.273 -0.3086 -0.0929 -0.1503
  207POPC   C4B 3037   2.151   5.308   6.725  0.2268 -0.1386  0.0151
  208POPC   NC3 3038   1.877   7.587   4.142  0.1876 -0.0399 -0.0358
  208POPC   PO4 3039   2.093   7.848   4.579 -0.2457  0.0005  0.2437
  208POPC   GL1 3040   1.771   7.763   4.731 -0.6011  0.1220  0.0673
  208POPC   GL2 3041   1.805   7.417   4.762 -0.4745 -0.4480 -0.1497
  208POPC   C1A 3042   1.631   7.826   5.169  0.1145  0.2098  0.0833
  208POPC   D2A 3043   1.475   7.586   5.488 -0.0317  0.0700 -0.1892
  208POPC   C3A 3044   1.066   7.555   5.689 -0.0554  0.0513  0.1255
  208POPC   C4A 3045   0.666   7.549   5.857 -0.0699  0.1610  0.0105
  208POPC   C1B 3046   1.512   7.318   5.047  0.2096  0.0556 -0.2476
  208POPC   C2B 3047   1.283   7.103   5.416  0.1972 -0.4756  0.1182
  208POPC   C3B 3048   1.037   7.059   5.736 -0.3246  0.1761  0.2344
  208POPC   C4B 3049   0.548   7.019   5.912  0.0547  0.0172  0.1010
  209POPC   NC3 3050   9.255   0.023   4.622  0.0919  0.0825 -0.1412
  209POPC   PO4 3051   8.919   0.224   4.854  0.2434  0.2919  0.1923
  209POPC   GL1 3052   9.230   0.048   5.137  0.1691 -0.1146  0.0560
  209POPC   GL2 3053   9.589   0.088   5.161 -0.1712  0.2188  0.2785
  209POPC   C1A 3054   9.235  -0.185   5.557  0.1088  0.1096  0.1218
  209POPC   D2A 3055   9.436  -0.462   5.840  0.0164 -0.0140  0.4281
  209POPC   C3A 3056   9.360  -0.440   6.270  0.0190 -0.1962 -0.5034
  209POPC   C4A 3057   9.499  -0.276   6.679 -0.1647 -0.0555  0.3167
  209POPC   C1B 3058   9.861   0.370   5.527 -0.1561  0.1529  0.1198
  209POPC   C2B 3059   9.946   0.323   5.971  0.0069 -0.6024 -0.2206
  209POPC   C3B 3060  10.117   0.378   6.368  0.1607 -0.0358 -0.4179
  209POPC   C4B 3061  10.280   0.670   6.735  0.1121  0.0641 -0.1840
  210POPC   NC3 3062   6.089   5.648   5.427 -0.2563  0.0730 -0.0746
  210POPC   PO4 3063   6.380   6.039   5.288  0.1563 -0.1943 -0.2694
  210POPC   GL1 3064   6.685   6.115   5.530  0.0983  0.1098 -0.0367
  210POPC   GL2 3065   6.943   6.073   5.414 -0.0519  0.0459 -0.0567
  210POPC   C1A 3066   6.913   6.254   5.838  0.0820 -0.0791 -0.0666
  210POPC   D2A 3067   7.294   6.303   5.797  0.0954 -0.0318  0.1065
  210POPC   C3A 3068   7.662   6.108   5.820 -0.1410 -0.1223  0.1283
  210POPC   C4A 3069   7.878   5.768   6.196 -0.4601 -0.0857  0.0659
  210POPC   C1B 3070   7.166   5.787   5.748  0.1993  0.0879  0.1082
  210POPC   C2B 3071   7.146   5.896   6.163 -0.1303  0.0238 -0.1826
  210POPC   C3B 3072   7.410   5.902   6.543 -0.1679 -0.1046  0.0284
  210POPC   C4B 3073   7.728   6.003   6.828  0.2112 -0.1403  0.4824
  211POPC   NC3 3074   3.691   8.843   5.124 -0.0605  0.0113 -0.1110
  211POPC   PO4 3075   3.588   9.157   5.129  0.1341  0.1863  0.2557
  211POPC   GL1 3076   3.540   9.382   5.469 -0.2168  0.1199  0.0633
  211POPC   GL2 3077   3.248   9.653   5.620 -0.0919 -0.4157 -0.0132
  211POPC   C1A 3078   3.464   9.333   5.905 -0.1375  0.0890  0.1715
  211POPC   D2A 3079   3.387   9.240   6.262  0.5747 -0.0018  0.2543
  211POPC   C3A 3080   3.264   9.307   6.628 -0.1383 -0.0151  0.3795
  211POPC   C4A 3081   2.953   9.359   6.849 -0.1769 -0.1828 -0.2213
  211POPC   C1B 3082   3.310   9.891   5.986 -0.0855 -0.0933  0.1445
  211POPC   C2B 3083   3.151   9.748   6.281  0.1292 -0.1412 -0.0771
  211POPC   C3B 3084   2.773   9.792   6.629 -0.0746  0.1365  0.0261
  211POPC   C4B 3085   2.379   9.857   6.571 -0.1153  0.5530  0.1150
  212POPC   NC3 3086   2.877   4.029   5.027 -0.2001 -0.0944  0.0563
  212POPC   PO4 3087   2.991   3.829   5.425 -0.2472  0.1656  0.0529
  212POPC   GL1 3088   2.947   3.799   5.832 -0.3282 -0.2406  0.1158
  212POPC   GL2 3089   3.139   3.639   5.992 -0.0764  0.1134 -0.0687
  212POPC   C1A 3090   2.526   4.066   6.064 -0.3942  0.0934  0.1294
  212POPC   D2A 3091   2.424   4.495   6.230  0.2031  0.1859  0.0150
  212POPC   C3A 3092   2.536   4.451   6.684  0.4202  0.0842  0.1506
  212POPC   C4A 3093   2.536   4.471   7.207 -0.0536  0.2830  0.1393
  212POPC   C1B 3094   2.986   3.833   6.318 -0.2360  0.5096  0.2383
  212POPC   C2B 3095   2.975   4.213   6.506 -0.1499  0.3371 -0.1344
  212POPC   C3B 3096   2.776   4.084   6.982  0.0548  0.0481  0.3553
  212POPC   C4B 3097   2.717   4.102   7.457  0.2645 -0.3060  0.2441
  213POPC   NC3 3098   4.390  10.181   5.333 -0.1908  0.0055  0.0927
  213POPC   PO4 3099   4.864  10.064   5.388 -0.1976 -0.1131  0.0204
  213POPC   GL1 3100   4.785   9.975   5.867  0.1742 -0.1037  0.0432
  213POPC   GL2 3101   4.434   9.912   5.814  0.2148 -0.3462  0.0113
  213POPC   C1A 3102   4.732  10.101   6.276 -0.0649 -0.0537  0.2472
  213POPC   D2A 3103   4.643  10.524   6.433 -0.2106  0.0665  0.1146
  213POPC   C3A 3104   4.551  10.810   6.124 -0.1212  0.3533 -0.1597
  213POPC   C4A 3105   4.430  10.932   5.757  0.2198 -0.0030  0.1484
  213POPC   C1B 3106   4.518   9.609   6.037 -0.0876 -0.0727 -0.2396
  213POPC   C2B 3107   4.532   9.463   6.406 -0.0781  0.4657  0.1215
  213POPC   C3B 3108   4.273   9.204   6.657 -0.1912 -0.0538  0.1764
  213POPC   C4B 3109   4.167   9.139   7.018  0.0046 -0.1141 -0.1384
  214POPC   NC3 3110   2.881   5.378   5.122 -0.1869  0.4051  0.0903
  214POPC   PO4 3111   2.788   4.918   5.015 -0.2745  0.2037 -0.1666
  214POPC   GL1 3112   2.676   5.027   5.434  0.2260 -0.0420 -0.0247
  214POPC   GL2 3113   2.599   4.782   5.580  0.0433 -0.3023 -0.1019
  214POPC   C1A 3114   2.543   5.376   5.681 -0.2564  0.2014  0.3887
  214POPC   D2A 3115   2.507   5.725   6.007 -0.1799 -0.1939 -0.0648
  214POPC   C3A 3116   2.286   5.792   6.439 -0.0889 -0.4481  0.2738
  214POPC   C4A 3117   2.012   5.820   6.787 -0.1096 -0.2584  0.1704
  214POPC   C1B 3118   2.558   4.982   6.013 -0.2782  0.1602  0.0135
  214POPC   C2B 3119   2.664   4.910   6.468  0.2300  0.0188 -0.1407
  214POPC   C3B 3120   3.042   4.783   6.643  0.0514 -0.1969 -0.0079
  214POPC   C4B 3121   3.070   4.440   6.981 -0.1264  0.0309  0.0057
  215POPC   NC3 3122   4.063   8.614   5.414  0.0344 -0.0386 -0.3737
  215POPC   PO4 3123   4.470   8.461   5.478 -0.1717  0.3232 -0.0014
  215POPC   GL1 3124   4.384   8.432   5.839  0.1130  0.3154  0.1147
  215POPC   GL2 3125   3.932   8.351   5.907 -0.1005 -0.3296 -0.3117
  215POPC   C1A 3126   4.402   8.424   6.310 -0.0825  0.0091 -0.0621
  215POPC   D2A 3127   4.503   8.399   6.699  0.0549  0.1989 -0.1594
  215POPC   C3A 3128   4.666   7.960   6.843  0.3764 -0.3223  0.1163
  215POPC   C4A 3129   4.972   7.624   6.770 -0.0977  0.1060  0.0156
  215POPC   C1B 3130   3.814   8.362   6.380  0.4328 -0.1587  0.0821
  215POPC   C2B 3131   3.724   8.331   6.683 -0.2514  0.2282  0.0130
  215POPC   C3B 3132   3.472   8.174   6.907  0.1187  0.4460 -0.2395
  215POPC   C4B 3133   3.233   8.168   7.190 -0.0026 -0.2092 -0.1407
  216POPC   NC3 3134   8.541   1.477   5.461  0.3000 -0.1941 -0.0217
  216POPC   PO4 3135   8.278   1.924   5.422  0.1364 -0.0289  0.1948
  216POPC   GL1 3136   8.514   1.872   5.791  0.2013  0.1157  0.0138
  216POPC   GL2 3137   8.300   2.005   6.015 -0.0685  0.0128  0.1800
  216POPC   C1A 3138   8.812   1.660   6.078  0.0769  0.2673 -0.0355
  216POPC   D2A 3139   8.910   1.263   6.259 -0.1975 -0.0606  0.0558
  216POPC   C3A 3140   8.924   1.186   6.635 -0.0192 -0.1576 -0.2968
  216POPC   C4A 3141   8.796   0.926   6.871  0.1840  0.2759 -0.0283
  216POPC   C1B 3142   8.495   1.923   6.333 -0.2304 -0.0964 -0.1337
  216POPC   C2B 3143   8.753   1.636   6.727  0.0580 -0.1031  0.0550
  216POPC   C3B 3144   8.813   1.386   7.095  0.2810 -0.0939  0.1058
  216POPC   C4B 3145   8.766   1.574   7.588 -0.1350  0.0130  0.0476
  217POPC   NC3 3146   6.698   4.338   4.735  0.1945  0.2329  0.1850
  217POPC   PO4 3147   6.450   4.143   5.065 -0.2484 -0.0512 -0.2999
  217POPC   GL1 3148   6.532   4.200   5.529 -0.1011  0.2848 -0.4595
  217POPC   GL2 3149   6.352   4.406   5.579  0.0454  0.0727  0.0179
  217POPC   C1A 3150   6.700   4.158   5.972  0.1898  0.1905  0.2561
  217POPC   D2A 3151   6.555   4.406   6.374 -0.0601  0.0918  0.0594
  217POPC   C3A 3152   6.503   4.550   6.865 -0.2278  0.0894 -0.1457
  217POPC   C4A 3153   6.172   4.398   7.089 -0.1366 -0.0951 -0.0905
  217POPC   C1B 3154   6.522   4.698   5.924  0.0072 -0.2983 -0.1613
  217POPC   C2B 3155   6.619   4.883   6.273  0.3072 -0.2117 -0.2220
  217POPC   C3B 3156   6.690   5.005   6.757 -0.3207  0.0746 -0.0897
  217POPC   C4B 3157   6.778   4.901   7.202 -0.2895  0.2488 -0.1791
  218POPC   NC3 3158   8.638   9.254   4.603  0.1728  0.0103  0.1108
  218POPC   PO4 3159   8.449   9.704   4.688 -0.0357 -0.2656  0.1520
  218POPC   GL1 3160   8.551   9.471   5.076 -0.0539 -0.1097 -0.0221
  218POPC   GL2 3161   8.869   9.343   5.023 -0.2191  0.0920 -0.1631
  218POPC   C1A 3162   8.380   9.336   5.417  0.3861  0.0835 -0.1155
  218POPC   D2A 3163   8.440   9.164   5.781  0.1359  0.0627  0.0879
  218POPC   C3A 3164   8.781   8.863   5.804  0.1659 -0.3332  0.3038
  218POPC   C4A 3165   8.781   8.501   6.045  0.0681 -0.2626  0.0228
  218POPC   C1B 3166   8.805   9.507   5.532 -0.0724  0.2117 -0.3912
  218POPC   C2B 3167   8.985   9.701   5.842 -0.0682 -0.1360  0.0275
  218POPC   C3B 3168   8.950   9.953   6.032 -0.1912 -0.0119  0.1362
  218POPC   C4B 3169   8.912   9.858   6.521 -0.1425  0.0605 -0.1005
  219POPC   NC3 3170   1.307   5.891   4.392  0.0326  0.1832  0.1539
  219POPC   PO4 3171   0.973   6.154   4.310  0.0670  0.3508  0.0818
  219POPC   GL1 3172   0.823   6.292   4.700  0.2392 -0.3141 -0.0216
  219POPC   GL2 3173   0.963   6.541   4.800 -0.2143  0.1493 -0.0673
  219POPC   C1A 3174   0.528   6.236   5.051 -0.1315 -0.0830  0.1192
  219POPC   D2A 3175   0.153   6.184   5.238  0.3282  0.1285  0.1217
  219POPC   C3A 3176  -0.085   6.503   5.557 -0.1990 -0.2385 -0.2655
  219POPC   C4A 3177  -0.318   6.483   5.926 -0.0083  0.2216  0.1431
  219POPC   C1B 3178   1.392   6.656   4.964  0.1406  0.0260  0.2600
  219POPC   C2B 3179   1.738   6.428   5.241  0.0635 -0.2514 -0.6572
  219POPC   C3B 3180   1.977   6.176   5.523  0.1112  0.0608  0.3421
  219POPC   C4B 3181   2.356   6.386   5.367 -0.0610  0.2214 -0.1413
  220POPC   NC3 3182   6.906   0.027   5.467 -0.1263 -0.0019 -0.0873
  220POPC   PO4 3183   6.489   0.208   5.227  0.0057  0.0870  0.2037
  220POPC   GL1 3184   6.745   0.457   5.621 -0.1276 -0.0801  0.0324
  220POPC   GL2 3185   6.561   0.519   5.902  0.0713  0.0678  0.1724
  220POPC   C1A 3186   6.959   0.767   5.825 -0.0337  0.1729 -0.0181
  220POPC   D2A 3187   7.065   0.815   6.122  0.0025 -0.0779 -0.1038
  220POPC   C3A 3188   7.468   0.881   6.058 -0.0257 -0.2729  0.0113
  220POPC   C4A 3189   7.833   1.040   5.798 -0.3298  0.0775 -0.2832
  220POPC   C1B 3190   6.591   0.715   6.272 -0.0661 -0.3072  0.2802
  220POPC   C2B 3191   6.850   0.932   6.638 -0.1230  0.0737  0.1550
  220POPC   C3B 3192   7.043   1.206   7.049 -0.0846  0.2307 -0.1878
  220POPC   C4B 3193   7.086   1.235   7.500 -0.2032  0.1071  0.0154
  221POPC   NC3 3194   6.872   6.518   4.240 -0.0671 -0.0463 -0.0104
  221POPC   PO4 3195   6.930   6.591   4.754  0.0692  0.2512 -0.1842
  221POPC   GL1 3196   7.046   6.923   5.106 -0.3752 -0.0094  0.2120
  221POPC   GL2 3197   7.368   6.831   5.223 -0.0729  0.1328 -0.0839
  221POPC   C1A 3198   6.835   7.024   5.490 -0.3135 -0.3966 -0.0193
  221POPC   D2A 3199   6.477   7.138   5.672  0.1156  0.2981 -0.1433
  221POPC   C3A 3200   6.524   7.129   6.095 -0.3226  0.1546  0.3304
  221POPC   C4A 3201   6.711   6.894   6.351  0.3496  0.1649 -0.0083
  221POPC   C1B 3202   7.415   7.105   5.385  0.0977  0.1683 -0.0133
  221POPC   C2B 3203   7.143   7.358   5.600 -0.2069 -0.0699 -0.1257
  221POPC   C3B 3204   6.974   7.295   6.003 -0.0583  0.1802 -0.1845
  221POPC   C4B 3205   7.208   7.662   6.290 -0.1193  0.1644 -0.0191
  222POPC   NC3 3206   4.939   6.663   5.002 -0.2087 -0.4089 -0.4242
  222POPC   PO4 3207   4.590   6.880   5.278 -0.1689 -0.3153  0.0337
  222POPC   GL1 3208   4.491   6.935   5.668 -0.1144  0.3738 -0.0300
  222POPC   GL2 3209   4.734   7.000   5.778 -0.1089  0.3082 -0.0592
  222POPC   C1A 3210   4.519   6.557   5.967 -0.1632 -0.1096 -0.1105
  222POPC   D2A 3211   4.519   6.451   6.332 -0.0238  0.0731  0.1074
  222POPC   C3A 3212   4.788   6.550   6.680 -0.0181  0.1888  0.1416
  222POPC   C4A 3213   5.042   6.624   6.988 -0.3053  0.2491  0.0930
  222POPC   C1B 3214   4.905   7.141   6.228  0.1072 -0.4109 -0.1156
  222POPC   C2B 3215   4.924   7.047   6.683 -0.1601  0.0514  0.2888
  222POPC   C3B 3216   5.215   7.217   7.000  0.0350  0.0171  0.2113
  222POPC   C4B 3217   5.639   7.169   7.141 -0.2649  0.0335 -0.0264
  223POPC   NC3 3218   7.967   9.099   4.524  0.2484  0.1104  0.1012
  223POPC   PO4 3219   7.893   8.915   4.839  0.0425 -0.0108  0.1406
  223POPC   GL1 3220   7.988   8.756   5.268  0.1167  0.0894  0.2830
  223POPC   GL2 3221   7.781   8.507   5.306  0.0088  0.0200  0.1369
  223POPC   C1A 3222   7.987   8.961   5.581  0.3888  0.1524 -0.1179
  223POPC   D2A 3223   8.206   8.726   5.890 -0.2867 -0.0564 -0.0035
  223POPC   C3A 3224   8.364   8.472   6.247  0.1910  0.2718  0.1051
  223POPC   C4A 3225   8.194   8.084   6.502  0.1090 -0.2596 -0.0067
  223POPC   C1B 3226   7.775   8.390   5.755  0.1320  0.0305 -0.1468
  223POPC   C2B 3227   7.903   8.369   6.123 -0.0721 -0.0503  0.1311
  223POPC   C3B 3228   7.892   8.488   6.483 -0.0697  0.2988  0.0381
  223POPC   C4B 3229   8.119   8.424   6.850 -0.0698 -0.1475 -0.0516
  224POPC   NC3 3230   0.869   5.191   4.458  0.1357  0.0898 -0.2119
  224POPC   PO4 3231   1.011   5.183   4.942  0.2154 -0.1706  0.0454
  224POPC   GL1 3232   1.058   5.239   5.266  0.0980 -0.0149  0.1828
  224POPC   GL2 3233   1.208   5.588   5.167  0.1962 -0.0881 -0.1185
  224POPC   C1A 3234   1.062   5.577   5.668  0.0947 -0.1152 -0.0070
  224POPC   D2A 3235   0.732   5.636   6.049 -0.1027 -0.2831  0.1470
  224POPC   C3A 3236   0.842   5.510   6.528 -0.1083  0.1595  0.1603
  224POPC   C4A 3237   1.178   5.344   6.816 -0.0512 -0.1354 -0.1604
  224POPC   C1B 3238   0.868   5.893   5.328  0.2602  0.2642  0.0583
  224POPC   C2B 3239   1.023   6.157   5.747  0.1403  0.0994 -0.0474
  224POPC   C3B 3240   1.109   6.410   6.042 -0.6187  0.1618  0.0060
  224POPC   C4B 3241   1.085   6.836   6.203 -0.1809  0.1988 -0.0666
  225POPC   NC3 3242   8.142   0.721   5.143  0.4642  0.0653  0.0558
  225POPC   PO4 3243   7.752   0.569   5.359 -0.0967  0.2719  0.3972
  225POPC   GL1 3244   7.862   0.530   5.746 -0.0519 -0.1694 -0.0303
  225POPC   GL2 3245   7.959   0.182   5.795 -0.0875  0.1003 -0.1102
  225POPC   C1A 3246   7.863   0.596   6.169 -0.1073 -0.3834 -0.0030
  225POPC   D2A 3247   7.707   0.479   6.584  0.1151 -0.1562  0.2525
  225POPC   C3A 3248   7.744   0.599   6.953  0.0466 -0.2456  0.1484
  225POPC   C4A 3249   7.556   0.790   7.261 -0.1138 -0.1717  0.2500
  225POPC   C1B 3250   7.890   0.119   6.255 -0.0258 -0.1013 -0.0290
  225POPC   C2B 3251   7.835  -0.105   6.617 -0.1602 -0.0619  0.1298
  225POPC   C3B 3252   7.985  -0.435   6.734  0.0380  0.4463  0.1824
  225POPC   C4B 3253   8.303  -0.529   6.911  0.3951 -0.1235 -0.3796
  226POPC   NC3 3254   8.907   6.829   3.538 -0.3103 -0.1843  0.0368
  226POPC   PO4 3255   8.920   6.861   4.000 -0.3114 -0.2172 -0.0009
  226POPC   GL1 3256   8.990   6.978   4.435 -0.0957 -0.1400  0.0105
  226POPC   GL2 3257   9.102   6.818   4.692 -0.4092  0.1694  0.1955
  226POPC   C1A 3258   8.766   7.320   4.706  0.2816 -0.3128  0.2360
  226POPC   D2A 3259   8.543   7.490   5.068  0.1031 -0.0255 -0.0903
  226POPC   C3A 3260   8.376   7.389   5.441  0.1519 -0.3538 -0.0742
  226POPC   C4A 3261   8.556   7.310   5.755 -0.1730  0.0730  0.0757
  226POPC   C1B 3262   9.187   7.242   4.962  0.1184  0.0854  0.2587
  226POPC   C2B 3263   9.409   7.361   5.266  0.1931  0.1037  0.3682
  226POPC   C3B 3264   9.825   7.227   5.502 -0.1980 -0.3200  0.1677
  226POPC   C4B 3265   9.858   7.030   5.935  0.0647  0.0979 -0.3522
  227POPC   NC3 3266   5.134   0.291   5.262 -0.2029 -0.0582 -0.0299
  227POPC   PO4 3267   4.700   0.361   5.350 -0.0048  0.4740  0.0385
  227POPC   GL1 3268   4.488   0.203   5.767 -0.0649  0.0820  0.4254
  227POPC   GL2 3269   4.862   0.291   5.911  0.2348  0.2790  0.0119
  227POPC   C1A 3270   4.282   0.093   6.104 -0.0510 -0.1455  0.1034
  227POPC   D2A 3271   4.068  -0.237   6.223  0.0485  0.1340 -0.1123
  227POPC   C3A 3272   4.103  -0.487   6.548 -0.1995  0.1593  0.2111
  227POPC   C4A 3273   4.372  -0.450   6.896  0.3474  0.1965  0.0376
  227POPC   C1B 3274   5.055   0.542   6.294  0.1625  0.0010  0.1234
  227POPC   C2B 3275   4.842   0.827   6.469 -0.1734 -0.0752 -0.2308
  227POPC   C3B 3276   4.986   0.994   6.831 -0.0273 -0.0681  0.0950
  227POPC   C4B 3277   5.221   1.275   7.112 -0.2441  0.1649  0.2515
  228POPC   NC3 3278   8.814   7.796   4.288 -0.2284 -0.0265 -0.0996
  228POPC   PO4 3279   9.289   7.863   4.038 -0.2492 -0.2162  0.0167
  228POPC   GL1 3280   9.533   7.701   4.319 -0.0979 -0.2370 -0.2861
  228POPC   GL2 3281   9.869   7.584   4.219  0.1320 -0.2129 -0.1268
  228POPC   C1A 3282   9.498   7.642   4.808 -0.2663  0.2637  0.2421
  228POPC   D2A 3283   9.079   7.714   4.892 -0.2086  0.0420 -0.1286
  228POPC   C3A 3284   8.982   8.078   5.204 -0.0349 -0.0859  0.1198
  228POPC   C4A 3285   8.920   8.409   5.543 -0.0803  0.0256 -0.3685
  228POPC   C1B 3286  10.000   7.320   4.515  0.0314 -0.1310  0.1151
  228POPC   C2B 3287  10.245   7.098   4.794 -0.0013  0.1432 -0.3807
  228POPC   C3B 3288  10.217   7.048   5.151  0.2160  0.3207  0.2009
  228POPC   C4B 3289  10.349   6.995   5.614  0.0858  0.1287  0.3079
  229POPC   NC3 3290   0.339   5.082   3.799  0.0592  0.2087  0.0259
  229POPC   PO4 3291   0.344   5.361   4.196  0.0715 -0.4014 -0.0083
  229POPC   GL1 3292   0.157   5.507   4.640  0.0733  0.4500 -0.1873
  229POPC   GL2 3293   0.522   5.401   4.733  0.1906 -0.1296 -0.4641
  229POPC   C1A 3294   0.126   6.003   4.784 -0.0551 -0.1431 -0.0468
  229POPC   D2A 3295   0.132   6.452   4.746 -0.0886  0.0650 -0.3336
  229POPC   C3A 3296   0.432   6.777   4.732  0.3008  0.0943 -0.1031
  229POPC   C4A 3297   0.537   7.081   4.473 -0.0034  0.2036 -0.0021
  229POPC   C1B 3298   0.484   5.661   5.046  0.0136  0.0015 -0.0701
  229POPC   C2B 3299   0.494   5.804   5.609  0.1463 -0.0433 -0.2059
  229POPC   C3B 3300   0.626   6.164   5.996 -0.0242 -0.2360  0.1294
  229POPC   C4B 3301   0.587   6.552   6.093 -0.1098  0.3018 -0.0150
  230POPC   NC3 3302   0.678   4.413   5.025  0.0012 -0.1017  0.2291
  230POPC   PO4 3303   0.179   4.622   5.092  0.2326  0.1373 -0.0275
  230POPC   GL1 3304  -0.060   4.719   5.474 -0.0150  0.1072  0.0025
  230POPC   GL2 3305  -0.387   4.818   5.532 -0.1140 -0.0572 -0.0338
  230POPC   C1A 3306   0.142   4.837   5.902 -0.1376  0.3995  0.0124
  230POPC   D2A 3307  -0.008   5.026   6.302 -0.0851 -0.2338  0.1268
  230POPC   C3A 3308  -0.324   5.241   6.423 -0.1818  0.0455  0.1045
  230POPC   C4A 3309  -0.761   5.436   6.340 -0.2038 -0.0385 -0.4950
  230POPC   C1B 3310  -0.233   4.518   5.919 -0.0461  0.0505 -0.0810
  230POPC   C2B 3311  -0.213   4.353   6.339 -0.2339  0.2283  0.2071
  230POPC   C3B 3312  -0.273   4.424   6.777  0.1781  0.0685 -0.3560
  230POPC   C4B 3313  -0.450   4.797   6.945 -0.1419  0.4829  0.1344
  231POPC   NC3 3314   0.421   1.042   5.036  0.3547  0.0064  0.1039
  231POPC   PO4 3315   0.236   1.441   5.074 -0.0251  0.0646 -0.2238
  231POPC   GL1 3316   0.081   1.209   5.372  0.0563 -0.3386 -0.0165
  231POPC   GL2 3317  -0.030   1.407   5.508 -0.0231  0.3558  0.1507
  231POPC   C1A 3318  -0.074   0.848   5.668 -0.1930 -0.1648 -0.2857
  231POPC   D2A 3319  -0.223   0.898   5.997 -0.1075  0.1548 -0.1225
  231POPC   C3A 3320  -0.391   0.824   6.246  0.2817  0.2617  0.1122
  231POPC   C4A 3321  -0.484   1.025   6.652 -0.2983 -0.0473 -0.5170
  231POPC   C1B 3322   0.061   1.385   5.966 -0.1647  0.2318 -0.3309
  231POPC   C2B 3323  -0.154   1.411   6.361  0.0687  0.1789  0.3586
  231POPC   C3B 3324  -0.006   1.220   6.704 -0.3680  0.0640 -0.0699
  231POPC   C4B 3325  -0.053   1.055   7.045  0.0169 -0.0687 -0.0939
  232POPC   NC3 3326   1.402   0.269   4.650  0.1749  0.0521  0.0898
  232POPC   PO4 3327   1.867   0.215   4.812  0.1068  0.3332 -0.1570
  232POPC   GL1 3328   1.882   0.239   5.277 -0.1974  0.0293  0.1672
  232POPC   GL2 3329   1.774   0.043   5.496  0.1049 -0.1561 -0.1379
  232POPC   C1A 3330   2.017   0.642   5.537 -0.0112 -0.3060  0.2462
  232POPC   D2A 3331   2.287   0.749   5.722  0.1082  0.1985 -0.0113
  232POPC   C3A 3332   2.629   0.924   5.775 -0.0311 -0.0073 -0.1908
  232POPC   C4A 3333   2.862   1.168   5.882  0.0905 -0.2525  0.1797
  232POPC   C1B 3334   1.829   0.257   5.843  0.2883  0.2755 -0.0827
  232POPC   C2B 3335   1.799   0.594   6.041  0.0243 -0.2764 -0.1109
  232POPC   C3B 3336   1.566   0.986   6.080  0.3414 -0.0315  0.2157
  232POPC   C4B 3337   1.583   1.132   6.431  0.0412  0.0778  0.3751
  233POPC   NC3 3338   6.835   2.845   5.450  0.2017 -0.1875 -0.1588
  233POPC   PO4 3339   6.791   3.391   5.366 -0.2593 -0.0296 -0.3384
  233POPC   GL1 3340   6.947   3.287   5.759  0.1718  0.1149 -0.0780
  233POPC   GL2 3341   6.802   3.042   5.921 -0.0191  0.1122 -0.1695
  233POPC   C1A 3342   7.205   3.199   6.171 -0.0704 -0.2213 -0.2449
  233POPC   D2A 3343   7.406   2.987   6.487 -0.1577  0.2311  0.1892
  233POPC   C3A 3344   7.818   3.127   6.667 -0.0085 -0.1168  0.0074
  233POPC   C4A 3345   8.066   3.408   6.466 -0.1364  0.3821 -0.0545
  233POPC   C1B 3346   6.857   2.897   6.368 -0.3304 -0.1450 -0.0243
  233POPC   C2B 3347   6.977   3.121   6.714 -0.2845  0.1968 -0.0455
  233POPC   C3B 3348   6.942   3.320   7.074  0.2644 -0.2299 -0.0326
  233POPC   C4B 3349   6.769   3.375   7.440 -0.0880 -0.1514 -0.1329
  234POPC   NC3 3350   8.677   5.169   4.555 -0.0190 -0.1852  0.0695
  234POPC   PO4 3351   8.206   5.328   4.601  0.1576 -0.3144  0.1727
  234POPC   GL1 3352   8.085   5.310   5.045  0.0218  0.3503  0.0316
  234POPC   GL2 3353   7.912   5.664   5.115  0.0808  0.5044  0.0359
  234POPC   C1A 3354   8.159   5.056   5.477 -0.2417  0.0319  0.1131
  234POPC   D2A 3355   8.349   5.170   5.868  0.3319 -0.2572  0.0059
  234POPC   C3A 3356   8.376   5.419   6.115  0.1528 -0.0324  0.1897
  234POPC   C4A 3357   8.474   5.715   6.309 -0.1334  0.0459  0.0354
  234POPC   C1B 3358   7.973   6.078   5.311  0.0492  0.2315 -0.2456
  234POPC   C2B 3359   7.885   6.423   5.237  0.1163  0.5335 -0.2745
  234POPC   C3B 3360   7.687   6.638   5.593 -0.0695  0.0562  0.0799
  234POPC   C4B 3361   7.667   6.978   5.836 -0.3088 -0.1375 -0.1735
  235POPC   NC3 3362   0.263   3.168   5.343  0.0758 -0.1699  0.2493
  235POPC   PO4 3363   0.639   3.387   5.521  0.2535  0.2532 -0.0357
  235POPC   GL1 3364   0.879   3.476   5.912 -0.3347  0.1878  0.2122
  235POPC   GL2 3365   1.157   3.356   6.012  0.1644  0.1665  0.1473
  235POPC   C1A 3366   1.005   3.659   6.304  0.0886 -0.0504 -0.1898
  235POPC   D2A 3367   1.029   3.827   6.628 -0.0697  0.1779 -0.1850
  235POPC   C3A 3368   1.224   4.298   6.609 -0.4575 -0.3091  0.0241
  235POPC   C4A 3369   1.653   4.535   6.576 -0.0182 -0.0082  0.0963
  235POPC   C1B 3370   1.166   2.977   6.006 -0.1159 -0.0352  0.2157
  235POPC   C2B 3371   1.348   2.746   6.334  0.1062  0.1781  0.0742
  235POPC   C3B 3372   1.352   2.513   6.727  0.0257  0.0685 -0.2393
  235POPC   C4B 3373   1.428   2.110   6.616  0.1139 -0.1461  0.2716
  236POPC   NC3 3374   9.437   1.465   4.899  0.1169 -0.1177  0.1504
  236POPC   PO4 3375   9.405   1.012   4.991 -0.0131  0.3051 -0.1128
  236POPC   GL1 3376   9.346   0.671   5.282  0.0633 -0.0936  0.0674
  236POPC   GL2 3377   9.026   0.505   5.295 -0.2449  0.0337  0.2189
  236POPC   C1A 3378   9.390   0.342   5.581  0.1277 -0.0534  0.1796
  236POPC   D2A 3379   9.398  -0.001   5.995  0.1913  0.1471  0.4006
  236POPC   C3A 3380   9.650   0.020   6.330 -0.2938  0.1567  0.1007
  236POPC   C4A 3381   9.970  -0.082   6.594  0.0116 -0.1501  0.3075
  236POPC   C1B 3382   9.128   0.742   5.673 -0.0199  0.1394  0.1895
  236POPC   C2B 3383   9.195   0.970   6.047  0.0076  0.0277 -0.0747
  236POPC   C3B 3384   9.267   0.885   6.445  0.0154 -0.1306  0.3794
  236POPC   C4B 3385   9.248   0.742   6.831  0.3163 -0.0251  0.0838
  237POPC   NC3 3386   4.015   1.898   4.832  0.1776 -0.1729 -0.0267
  237POPC   PO4 3387   3.959   2.179   5.180  0.1361  0.2475 -0.2063
  237POPC   GL1 3388   4.016   2.164   5.562 -0.4650 -0.0832 -0.2224
  237POPC   GL2 3389   3.926   1.914   5.631 -0.0606  0.1105 -0.0098
  237POPC   C1A 3390   4.371   2.369   5.760 -0.1918  0.2441 -0.2487
  237POPC   D2A 3391   4.558   2.567   6.090 -0.3351 -0.1248 -0.2430
  237POPC   C3A 3392   4.382   2.551   6.564  0.5106 -0.0257 -0.1628
  237POPC   C4A 3393   4.620   2.337   7.092  0.3356 -0.0060  0.3840
  237POPC   C1B 3394   3.962   1.787   6.045 -0.2140  0.0028 -0.1980
  237POPC   C2B 3395   4.214   1.756   6.485  0.1370  0.2801  0.4273
  237POPC   C3B 3396   4.227   1.674   6.785  0.0319  0.0829  0.0724
  237POPC   C4B 3397   4.133   1.425   7.117 -0.3173  0.2685  0.1751
  238POPC   NC3 3398   6.457   6.243   4.830  0.0599 -0.1168  0.1608
  238POPC   PO4 3399   6.471   6.669   4.844 -0.1234 -0.1350 -0.2217
  238POPC   GL1 3400   6.678   6.589   5.224  0.0826  0.2332 -0.0636
  238POPC   GL2 3401   6.405   6.621   5.516 -0.3106 -0.0211  0.0798
  238POPC   C1A 3402   6.989   6.551   5.455 -0.3216  0.1143  0.1863
  238POPC   D2A 3403   7.255   6.779   5.724 -0.1939  0.0341 -0.2001
  238POPC   C3A 3404   7.179   6.867   6.120 -0.3470 -0.0130 -0.2414
  238POPC   C4A 3405   7.181   7.134   6.474  0.0554 -0.1576  0.0819
  238POPC   C1B 3406   6.757   6.744   5.878 -0.1571  0.2004  0.1167
  238POPC   C2B 3407   6.963   6.449   6.309  0.0940 -0.1468  0.1960
  238POPC   C3B 3408   7.439   6.448   6.268  0.0593 -0.1297  0.1420
  238POPC   C4B 3409   7.866   6.266   6.265  0.2988 -0.2356  0.2228
  239POPC   NC3 3410   9.015   5.344   4.263 -0.4706 -0.0862  0.3346
  239POPC   PO4 3411   9.197   5.167   4.545 -0.1285 -0.2014  0.0105
  239POPC   GL1 3412   9.297   5.204   4.957  0.0215  0.0263  0.2673
  239POPC   GL2 3413   9.418   4.948   5.136 -0.2380  0.0219 -0.1597
  239POPC   C1A 3414   9.140   5.492   5.224  0.3376  0.0701  0.0538
  239POPC   D2A 3415   8.830   5.662   5.430  0.2066  0.0525 -0.1160
  239POPC   C3A 3416   8.813   5.497   5.832  0.0474  0.1713 -0.0304
  239POPC   C4A 3417   8.883   5.411   6.260  0.2807  0.3034 -0.3343
  239POPC   C1B 3418   9.391   4.648   5.562  0.2149  0.0826 -0.1753
  239POPC   C2B 3419   9.064   4.632   5.889 -0.4815 -0.0394 -0.1596
  239POPC   C3B 3420   8.850   4.841   6.126 -0.0418 -0.1623  0.0778
  239POPC   C4B 3421   8.522   4.984   6.332 -0.1206  0.1580 -0.0077
  240POPC   NC3 3422   0.178   7.749   3.368 -0.0968  0.0377 -0.1372
  240POPC   PO4 3423   0.476   7.773   3.738 -0.1219 -0.0568  0.3157
  240POPC   GL1 3424   0.390   7.814   4.156 -0.1056 -0.2736 -0.0306
  240POPC   GL2 3425   0.071   7.838   4.274  0.2114  0.2451 -0.3137
  240POPC   C1A 3426   0.374   7.542   4.489  0.0023 -0.0778 -0.0594
  240POPC   D2A 3427   0.280   7.593   4.923  0.0501 -0.0224  0.2206
  240POPC   C3A 3428   0.474   7.682   5.305  0.2473 -0.3350  0.2233
  240POPC   C4A 3429   0.324   7.845   5.608  0.0161  0.0338 -0.2693
  240POPC   C1B 3430  -0.097   7.899   4.676  0.1170 -0.1839 -0.1496
  240POPC   C2B 3431   0.097   8.027   5.162 -0.1533  0.2979  0.0176
  240POPC   C3B 3432   0.256   8.301   5.398  0.0304 -0.0715 -0.1280
  240POPC   C4B 3433   0.128   8.663   5.729  0.0584  0.0555  0.4553
  241POPC   NC3 3434   5.071   5.791   5.127  0.0557 -0.2907 -0.1336
  241POPC   PO4 3435   5.489   5.842   5.379 -0.0167 -0.0821 -0.0031
  241POPC   GL1 3436   5.741   6.157   5.564  0.1472 -0.2097 -0.1525
  241POPC   GL2 3437   6.139   6.058   5.723  0.3202 -0.0351 -0.1259
  241POPC   C1A 3438   5.991   6.576   5.817  0.1173 -0.0340  0.1928
  241POPC   D2A 3439   6.287   6.663   6.109 -0.1493 -0.1310  0.0222
  241POPC   C3A 3440   6.534   6.221   6.205 -0.0944 -0.0429 -0.0319
  241POPC   C4A 3441   6.654   5.890   6.008  0.0992  0.0750  0.3424
  241POPC   C1B 3442   5.962   6.162   6.096  0.0762  0.0443 -0.0074
  241POPC   C2B 3443   6.125   6.427   6.496  0.1900  0.0877 -0.1096
  241POPC   C3B 3444   6.613   6.459   6.727 -0.0458  0.1305  0.1322
  241POPC   C4B 3445   6.989   6.682   6.772 -0.1408 -0.0702  0.2523
  242POPC   NC3 3446   4.641   5.140   4.804  0.0344  0.0431  0.2144
  242POPC   PO4 3447   5.025   4.736   4.886 -0.1238 -0.1365 -0.2019
  242POPC   GL1 3448   4.785   4.670   5.222 -0.0788 -0.2946 -0.0929
  242POPC   GL2 3449   4.566   4.767   5.211  0.0373  0.0518 -0.0634
  242POPC   C1A 3450   4.829   4.586   5.641 -0.0381  0.0980  0.0242
  242POPC   D2A 3451   4.866   4.797   6.062  0.0595 -0.0570  0.1597
  242POPC   C3A 3452   4.666   4.867   6.424 -0.0360 -0.1150 -0.2775
  242POPC   C4A 3453   4.358   5.143   6.515  0.2910 -0.3516  0.2854
  242POPC   C1B 3454   4.583   5.027   5.596 -0.0485  0.0682  0.3290
  242POPC   C2B 3455   4.567   5.361   5.733 -0.0570  0.2149 -0.0011
  242POPC   C3B 3456   4.799   5.748   5.873 -0.0248 -0.1372 -0.0524
  242POPC   C4B 3457   4.877   6.139   6.123 -0.1939  0.0955  0.3278
  243POPC   NC3 3458   4.153   4.962   5.036 -0.0388  0.4049  0.2617
  243POPC   PO4 3459   4.328   5.396   5.092  0.0765 -0.0229 -0.1790
  243POPC   GL1 3460   4.199   5.396   5.435  0.1929  0.0161  0.0528
  243POPC   GL2 3461   3.905   5.628   5.515 -0.3334  0.0340 -0.0212
  243POPC   C1A 3462   4.081   5.103   5.753 -0.0088 -0.0877 -0.0679
  243POPC   D2A 3463   4.320   4.989   6.042 -0.0527  0.4064 -0.1023
  243POPC   C3A 3464   4.167   4.578   6.245  0.1181  0.0941  0.0465
  243POPC   C4A 3465   3.988   4.308   6.583 -0.1486  0.0516  0.2949
  243POPC   C1B 3466   3.736   5.426   5.825  0.2028 -0.0061  0.0812
  243POPC   C2B 3467   3.438   5.482   6.173 -0.1074  0.0379 -0.1635
  243POPC   C3B 3468   3.286   5.554   6.673  0.2377 -0.1747  0.0161
  243POPC   C4B 3469   3.056   5.693   7.035  0.2079 -0.0809 -0.2173
  244POPC   NC3 3470   6.289   4.666   5.138  0.0527  0.2060  0.2682
  244POPC   PO4 3471   6.753   4.510   5.254  0.2101  0.0473  0.1185
  244POPC   GL1 3472   6.987   4.563   5.565  0.0229 -0.0772  0.0082
  244POPC   GL2 3473   7.114   4.289   5.631  0.0104  0.1915  0.0308
  244POPC   C1A 3474   7.024   4.549   6.096 -0.0483  0.0431 -0.1379
  244POPC   D2A 3475   7.029   4.621   6.612 -0.1696 -0.1823  0.0899
  244POPC   C3A 3476   7.335   4.631   7.023 -0.0984 -0.0315  0.2526
  244POPC   C4A 3477   7.742   4.744   7.190 -0.0252  0.0727 -0.1899
  244POPC   C1B 3478   7.296   4.143   6.009 -0.1707 -0.0282 -0.1233
  244POPC   C2B 3479   7.412   4.096   6.371  0.1992 -0.1914  0.1379
  244POPC   C3B 3480   7.501   4.184   6.742 -0.1821  0.2477  0.0228
  244POPC   C4B 3481   7.776   4.266   7.157 -0.1264  0.3404 -0.0856
  245POPC   NC3 3482   6.340   7.474   4.992  0.0316 -0.2749  0.0904
  245POPC   PO4 3483   5.903   7.351   5.266 -0.1803  0.0863 -0.1729
  245POPC   GL1 3484   5.972   7.111   5.643  0.0276 -0.4175  0.0711
  245POPC   GL2 3485   5.687   7.134   5.737  0.0690  0.2622  0.0524
  245POPC   C1A 3486   6.000   7.083   6.128  0.1403 -0.2708  0.0698
  245POPC   D2A 3487   6.327   7.043   6.596 -0.1476 -0.0884  0.0058
  245POPC   C3A 3488   6.319   7.261   6.973  0.2246  0.2959  0.0791
  245POPC   C4A 3489   6.623   7.546   7.192  0.2881 -0.1917 -0.1441
  245POPC   C1B 3490   5.478   7.125   6.186 -0.2127  0.4347  0.1217
  245POPC   C2B 3491   5.694   7.007   6.561  0.1380  0.0439 -0.0053
  245POPC   C3B 3492   5.903   7.403   6.780 -0.0989  0.2003 -0.0927
  245POPC   C4B 3493   6.199   7.732   6.826 -0.0594 -0.1359  0.0274
  246POPC   NC3 3494   8.071   2.368   5.583  0.1879  0.4246 -0.0597
  246POPC   PO4 3495   7.833   2.682   5.601 -0.2271  0.0169 -0.2386
  246POPC   GL1 3496   8.129   2.431   6.117 -0.0532  0.3469 -0.3727
  246POPC   GL2 3497   8.479   2.450   5.988  0.3005  0.2173  0.1232
  246POPC   C1A 3498   8.356   2.435   6.562  0.1807  0.0680  0.0755
  246POPC   D2A 3499   8.105   2.365   6.967 -0.0586  0.1765  0.0093
  246POPC   C3A 3500   8.396   2.359   7.359 -0.0306  0.2471 -0.1774
  246POPC   C4A 3501   8.597   2.163   7.736  0.3099 -0.2095  0.1970
  246POPC   C1B 3502   8.682   2.674   6.303  0.1460  0.1524  0.0849
  246POPC   C2B 3503   8.732   2.770   6.670  0.0934 -0.1279 -0.0157
  246POPC   C3B 3504   8.584   2.805   7.103  0.1007 -0.1501  0.0593
  246POPC   C4B 3505   8.708   2.786   7.548 -0.1873  0.3716  0.0163
  247POPC   NC3 3506   6.699   9.279   5.487  0.0212  0.0636 -0.0071
  247POPC   PO4 3507   6.934   9.690   5.333  0.1073 -0.2658 -0.1773
  247POPC   GL1 3508   6.932   9.536   5.812  0.3069 -0.4692  0.1200
  247POPC   GL2 3509   7.216   9.370   5.767 -0.0617  0.2393 -0.0037
  247POPC   C1A 3510   7.128   9.701   6.152 -0.3272 -0.1209 -0.0249
  247POPC   D2A 3511   7.506   9.817   6.358 -0.2181  0.0582 -0.4002
  247POPC   C3A 3512   7.419   9.749   6.840 -0.1190 -0.2823 -0.0444
  247POPC   C4A 3513   7.273   9.827   7.280  0.2278  0.2418  0.1780
  247POPC   C1B 3514   7.523   9.297   6.189  0.1012 -0.2282  0.1348
  247POPC   C2B 3515   7.852   9.478   6.366 -0.1819  0.0465  0.0760
  247POPC   C3B 3516   8.235   9.409   6.411  0.1694 -0.2556  0.2625
  247POPC   C4B 3517   8.604   9.402   6.605  0.4812  0.2442  0.3466
  248POPC   NC3 3518   9.580   3.159   5.533  0.1756  0.1044 -0.0512
  248POPC   PO4 3519   9.335   3.471   5.347  0.1351  0.2859 -0.0886
  248POPC   GL1 3520   9.283   3.753   5.734  0.3545 -0.0304 -0.0025
  248POPC   GL2 3521   9.239   4.157   5.772  0.0204  0.2819  0.1385
  248POPC   C1A 3522   9.274   3.968   6.215 -0.0207 -0.0170 -0.1238
  248POPC   D2A 3523   9.514   4.260   6.548  0.0675 -0.0553  0.1226
  248POPC   C3A 3524   9.481   4.695   6.575 -0.0562 -0.0083  0.0312
  248POPC   C4A 3525   9.244   4.923   6.324 -0.2921 -0.5212 -0.2570
  248POPC   C1B 3526   9.450   4.366   6.025 -0.1036 -0.1258  0.2282
  248POPC   C2B 3527   9.604   4.746   6.069 -0.0853  0.1632  0.2963
  248POPC   C3B 3528   9.730   5.178   5.920 -0.1653 -0.1038  0.0249
  248POPC   C4B 3529   9.572   5.246   5.452  0.3560  0.1032 -0.0565
  249POPC   NC3 3530   7.854   8.148   4.161  0.1628 -0.1374 -0.0337
  249POPC   PO4 3531   8.052   7.759   4.264 -0.2942  0.1108 -0.1290
  249POPC   GL1 3532   8.236   7.681   4.635  0.0701  0.0387  0.2612
  249POPC   GL2 3533   8.077   7.553   4.927 -0.0652  0.4082 -0.1224
  249POPC   C1A 3534   8.451   7.927   4.872  0.2268  0.1755 -0.2043
  249POPC   D2A 3535   8.839   8.121   4.735 -0.0808  0.0477 -0.1509
  249POPC   C3A 3536   8.852   8.513   5.009 -0.0394 -0.1121 -0.1170
  249POPC   C4A 3537   8.956   8.881   5.258 -0.0709 -0.1402  0.0035
  249POPC   C1B 3538   8.224   7.097   5.116  0.1370  0.2981  0.1993
  249POPC   C2B 3539   8.066   6.914   5.477  0.0658 -0.1648  0.2132
  249POPC   C3B 3540   8.198   6.502   5.653  0.0516  0.0882 -0.0845
  249POPC   C4B 3541   8.160   6.063   5.868  0.1313  0.1992 -0.3380
  250POPC   NC3 3542   2.233   9.636   4.831  0.1160 -0.2469  0.1412
  250POPC   PO4 3543   2.561   9.366   4.590 -0.1559 -0.1387 -0.2555
  250POPC   GL1 3544   2.620   9.291   5.027  0.0641 -0.2520 -0.1106
  250POPC   GL2 3545   2.539   9.671   5.202 -0.2957  0.1698  0.2132
  250POPC   C1A 3546   2.809   9.334   5.511 -0.1867  0.0943  0.2173
  250POPC   D2A 3547   2.979   9.350   5.955  0.2135  0.3083 -0.0940
  250POPC   C3A 3548   2.782   9.107   6.315 -0.1059  0.0316  0.0786
  250POPC   C4A 3549   2.937   8.849   6.633 -0.0415  0.2534  0.1823
  250POPC   C1B 3550   2.368   9.657   5.632  0.2046 -0.1295 -0.3041
  250POPC   C2B 3551   1.992   9.711   5.925 -0.1503  0.1444  0.2802
  250POPC   C3B 3552   1.832   9.738   6.401 -0.0164  0.2572  0.0146
  250POPC   C4B 3553   1.579   9.379   6.741  0.0021 -0.2779 -0.0069
  251POPC   NC3 3554   7.108   9.659   4.845 -0.0703 -0.1537 -0.1484
  251POPC   PO4 3555   7.599   9.659   4.897 -0.0874 -0.0607 -0.2417
  251POPC   GL1 3556   7.876   9.703   5.247 -0.4163  0.0101 -0.0982
  251POPC   GL2 3557   8.211   9.843   5.234  0.3220  0.3071 -0.0661
  251POPC   C1A 3558   7.863   9.552   5.693  0.1373 -0.3025 -0.1829
  251POPC   D2A 3559   8.022   9.397   5.925  0.3365  0.2886  0.1115
  251POPC   C3A 3560   8.453   9.551   6.024  0.1589  0.1325 -0.0168
  251POPC   C4A 3561   8.953   9.362   6.185  0.1499 -0.0436  0.0734
  251POPC   C1B 3562   8.341   9.802   5.659 -0.3104 -0.2803 -0.1491
  251POPC   C2B 3563   8.438  10.124   5.957  0.0477 -0.0195 -0.0482
  251POPC   C3B 3564   8.736  10.268   6.335  0.1189 -0.1337  0.0519
  251POPC   C4B 3565   9.180  10.262   6.418 -0.0102  0.0903  0.0584
  252POPC   NC3 3566   7.819   3.146   5.086 -0.0066  0.2326 -0.0103
  252POPC   PO4 3567   7.697   3.558   5.215  0.1376 -0.2967  0.1273
  252POPC   GL1 3568   7.758   3.689   5.599  0.2294  0.0633  0.0092
  252POPC   GL2 3569   7.937   3.573   5.761 -0.2898  0.4010 -0.0731
  252POPC   C1A 3570   7.492   3.632   6.028  0.0144 -0.1598  0.0274
  252POPC   D2A 3571   7.016   3.719   6.064  0.0695 -0.2272  0.3153
  252POPC   C3A 3572   6.741   3.413   6.290 -0.1097  0.2721  0.3410
  252POPC   C4A 3573   6.729   3.533   6.678  0.0451  0.0565 -0.1630
  252POPC   C1B 3574   7.950   3.815   6.094 -0.0929 -0.1553  0.0611
  252POPC   C2B 3575   8.001   3.899   6.562 -0.2960  0.4145  0.2709
  252POPC   C3B 3576   8.246   4.065   6.880 -0.0218 -0.0837  0.1717
  252POPC   C4B 3577   8.279   4.118   7.333  0.1773  0.1648  0.1224
  253POPC   NC3 3578   2.468   4.558   5.198 -0.0483 -0.0539 -0.3361
  253POPC   PO4 3579   2.907   4.511   5.311 -0.0226 -0.1399 -0.0751
  253POPC   GL1 3580   3.178   4.261   5.608  0.4981  0.0224  0.1475
  253POPC   GL2 3581   2.912   4.369   5.862 -0.3956  0.1253  0.1304
  253POPC   C1A 3582   3.417   4.484   5.903 -0.0915 -0.0989 -0.0710
  253POPC   D2A 3583   3.700   4.554   6.216  0.1830 -0.1375 -0.3488
  253POPC   C3A 3584   3.457   4.582   6.645 -0.4649 -0.0176  0.1661
  253POPC   C4A 3585   3.466   4.674   7.176 -0.0849  0.1186  0.3408
  253POPC   C1B 3586   3.062   4.657   6.200  0.1578  0.2039  0.1956
  253POPC   C2B 3587   3.419   4.987   6.386 -0.3284  0.3699  0.2723
  253POPC   C3B 3588   3.621   5.106   6.833 -0.0773  0.0293  0.0883
  253POPC   C4B 3589   4.071   5.118   6.965  0.2413 -0.0475  0.2003
  254POPC   NC3 3590   6.860   2.492   4.706 -0.1912 -0.1075  0.2145
  254POPC   PO4 3591   6.615   2.388   5.137 -0.1440  0.0463 -0.4871
  254POPC   GL1 3592   6.344   2.227   5.506  0.1002  0.4909 -0.0502
  254POPC   GL2 3593   6.081   2.352   5.638  0.2363  0.0399  0.1072
  254POPC   C1A 3594   6.169   1.951   5.930 -0.1531 -0.1065  0.0610
  254POPC   D2A 3595   6.286   1.702   6.214  0.2292  0.1867  0.2498
  254POPC   C3A 3596   6.222   1.565   6.518 -0.2742  0.3088  0.1089
  254POPC   C4A 3597   6.203   1.326   6.872  0.5030 -0.0200 -0.1335
  254POPC   C1B 3598   5.808   2.336   5.903  0.0130  0.3214  0.0317
  254POPC   C2B 3599   5.656   2.376   6.302  0.2070 -0.2291  0.2644
  254POPC   C3B 3600   5.415   2.667   6.584  0.0975 -0.1175  0.1755
  254POPC   C4B 3601   5.244   2.914   6.884 -0.0506  0.2441  0.1889
  255POPC   NC3 3602   7.263   3.210   5.352 -0.1738  0.0997 -0.0742
  255POPC   PO4 3603   7.374   2.757   5.398  0.2185 -0.2030  0.1437
  255POPC   GL1 3604   7.222   2.605   5.740  0.1322 -0.0023 -0.1936
  255POPC   GL2 3605   7.345   2.807   5.918  0.0995 -0.2765  0.0145
  255POPC   C1A 3606   7.103   2.496   6.187  0.0280  0.4406 -0.0160
  255POPC   D2A 3607   7.226   2.578   6.662 -0.4246  0.0655  0.2607
  255POPC   C3A 3608   7.202   2.738   6.989  0.0084 -0.0598 -0.1417
  255POPC   C4A 3609   6.799   2.819   7.146  0.0365  0.1687 -0.3422
  255POPC   C1B 3610   7.728   2.696   6.239 -0.0354 -0.0722 -0.1763
  255POPC   C2B 3611   7.871   2.587   6.633 -0.3474  0.1268  0.0272
  255POPC   C3B 3612   7.729   2.826   7.029 -0.1208 -0.0877 -0.1516
  255POPC   C4B 3613   7.422   3.212   6.990 -0.0751 -0.1038 -0.1429
  256POPC   NC3 3614   2.295   6.901   4.685 -0.1752 -0.1180  0.0399
  256POPC   PO4 3615   2.617   6.762   4.900 -0.1151  0.1036  0.0635
  256POPC   GL1 3616   2.523   7.145   5.073  0.2009 -0.1065 -0.1325
  256POPC   GL2 3617   2.164   7.215   5.012 -0.0729  0.2515  0.1818
  256POPC   C1A 3618   2.414   7.387   5.405 -0.1137 -0.1821  0.3156
  256POPC   D2A 3619   2.307   7.226   5.858  0.0873  0.0090 -0.0380
  256POPC   C3A 3620   2.299   7.357   6.241  0.1403 -0.4368  0.1207
  256POPC   C4A 3621   2.161   7.820   6.452  0.2345  0.0632  0.0648
  256POPC   C1B 3622   1.860   6.969   5.308  0.2474 -0.2869 -0.3194
  256POPC   C2B 3623   1.876   6.719   5.632 -0.0222 -0.3069  0.1022
  256POPC   C3B 3624   1.919   6.465   5.969 -0.3148  0.0943 -0.1646
  256POPC   C4B 3625   1.985   6.205   6.514  0.0160  0.2127 -0.1318
  257POPC   NC3 3626   8.860   0.821   4.948  0.2088 -0.0813 -0.1523
  257POPC   PO4 3627   8.518   1.094   5.049 -0.1210 -0.0874  0.1164
  257POPC   GL1 3628   8.706   0.913   5.391  0.3537  0.0943  0.2526
  257POPC   GL2 3629   8.791   1.099   5.716 -0.0979  0.0433  0.2382
  257POPC   C1A 3630   8.595   0.650   5.812 -0.1463 -0.0738  0.2447
  257POPC   D2A 3631   8.314   0.402   6.146 -0.1667  0.1562 -0.2219
  257POPC   C3A 3632   8.250   0.354   6.560 -0.1751  0.1218 -0.0756
  257POPC   C4A 3633   8.077   0.221   6.876  0.2495  0.2983 -0.0772
  257POPC   C1B 3634   8.438   1.064   5.985 -0.2325 -0.0340 -0.2286
  257POPC   C2B 3635   8.106   1.022   6.240  0.0010  0.1539  0.0187
  257POPC   C3B 3636   7.714   1.011   6.467  0.0208  0.0267 -0.0223
  257POPC   C4B 3637   7.336   0.838   6.531  0.1129  0.2199  0.0422
  258POPC   NC3 3638   4.208   6.015   5.176  0.4210  0.1058 -0.0068
  258POPC   PO4 3639   4.539   6.159   4.901  0.1930 -0.2067  0.0504
  258POPC   GL1 3640   4.647   6.278   5.340  0.1491  0.1120 -0.0476
  258POPC   GL2 3641   4.418   6.448   5.471 -0.1737  0.0133 -0.1995
  258POPC   C1A 3642   4.904   6.511   5.716  0.1986  0.1071 -0.3243
  258POPC   D2A 3643   4.983   6.656   6.120 -0.3084  0.3419  0.4206
  258POPC   C3A 3644   5.250   6.696   6.468  0.3770 -0.0019  0.0378
  258POPC   C4A 3645   5.584   6.614   6.811  0.2662  0.0585  0.0833
  258POPC   C1B 3646   4.429   6.082   5.804 -0.1962 -0.1426  0.0480
  258POPC   C2B 3647   4.265   5.738   5.800 -0.0240  0.1822  0.0182
  258POPC   C3B 3648   4.130   5.489   6.157  0.5378 -0.1489 -0.0213
  258POPC   C4B 3649   3.792   5.394   6.456 -0.0068  0.2602  0.2503
  259POPC   NC3 3650   1.803   4.292   4.812  0.2044  0.0077  0.0560
  259POPC   PO4 3651   1.903   4.458   5.156  0.0874  0.0499  0.3401
  259POPC   GL1 3652   2.164   4.407   5.555  0.0057 -0.4719  0.0254
  259POPC   GL2 3653   2.156   4.138   5.746 -0.2675  0.0595 -0.0436
  259POPC   C1A 3654   2.155   4.712   5.849 -0.0872 -0.0435 -0.0148
  259POPC   D2A 3655   1.997   4.782   6.242 -0.0386  0.0949 -0.0656
  259POPC   C3A 3656   2.142   4.805   6.627 -0.2557 -0.0999  0.0200
  259POPC   C4A 3657   2.353   4.862   6.970 -0.1156 -0.0652 -0.0259
  259POPC   C1B 3658   1.989   4.154   6.118  0.1178  0.1204  0.0387
  259POPC   C2B 3659   2.088   4.153   6.563 -0.0074  0.0928 -0.0009
  259POPC   C3B 3660   2.097   4.411   6.949 -0.0594  0.1706 -0.1796
  259POPC   C4B 3661   2.041   4.670   7.344  0.1341 -0.1232  0.3590
  260POPC   NC3 3662   3.488   3.794   5.423  0.1926  0.2225  0.1508
  260POPC   PO4 3663   3.825   3.653   5.482 -0.1794  0.0442  0.1579
  260POPC   GL1 3664   3.673   3.733   5.931 -0.0625  0.4019  0.0749
  260POPC   GL2 3665   3.448   4.027   6.022 -0.0443 -0.0201  0.1060
  260POPC   C1A 3666   3.496   3.564   6.336 -0.2232  0.0199  0.1319
  260POPC   D2A 3667   3.679   3.281   6.556 -0.2312  0.0590  0.1902
  260POPC   C3A 3668   4.125   3.407   6.562 -0.1080 -0.3062  0.1385
  260POPC   C4A 3669   4.292   3.858   6.752  0.0178 -0.1248  0.3266
  260POPC   C1B 3670   3.472   4.146   6.399  0.1240  0.0831  0.0489
  260POPC   C2B 3671   3.556   4.110   6.817  0.2880 -0.3314  0.1151
  260POPC   C3B 3672   3.921   4.169   7.062 -0.1149  0.0086 -0.1381
  260POPC   C4B 3673   4.452   4.271   7.078 -0.1649  0.0055  0.2371
  261POPC   NC3 3674   3.328   6.956   4.612 -0.0130  0.2142  0.3109
  261POPC   PO4 3675   3.074   6.636   4.737 -0.1858 -0.1791  0.0115
  261POPC   GL1 3676   2.997   6.557   5.154 -0.0893 -0.0666 -0.2653
  261POPC   GL2 3677   2.791   6.816   5.352  0.2438  0.2827 -0.2775
  261POPC   C1A 3678   2.804   6.330   5.497 -0.3798 -0.0671  0.2315
  261POPC   D2A 3679   2.969   6.185   5.725 -0.1334 -0.0044 -0.0237
  261POPC   C3A 3680   2.880   6.314   6.115  0.0928  0.2567 -0.1126
  261POPC   C4A 3681   2.461   6.373   6.354  0.0503  0.0037 -0.1228
  261POPC   C1B 3682   2.814   6.728   5.796 -0.1279 -0.2147  0.1757
  261POPC   C2B 3683   2.559   6.898   6.185  0.0691  0.0485  0.1200
  261POPC   C3B 3684   2.733   6.808   6.618  0.3563 -0.2264 -0.1927
  261POPC   C4B 3685   2.927   6.773   7.013 -0.3252 -0.2830 -0.3287
  262POPC   NC3 3686   7.716   0.024   5.292  0.3639 -0.0382  0.1724
  262POPC   PO4 3687   8.118   0.159   5.183 -0.1485 -0.1220  0.1582
  262POPC   GL1 3688   8.542  -0.025   5.427  0.1380  0.1222 -0.1211
  262POPC   GL2 3689   8.715  -0.259   5.327 -0.2668 -0.0033 -0.0242
  262POPC   C1A 3690   8.903   0.193   5.680  0.0248 -0.1330 -0.2137
  262POPC   D2A 3691   9.010   0.357   5.994  0.2346  0.1093 -0.1898
  262POPC   C3A 3692   8.900   0.567   6.325 -0.2286  0.0655 -0.1498
  262POPC   C4A 3693   8.562   0.785   6.420 -0.0328  0.0763 -0.3205
  262POPC   C1B 3694   9.111  -0.474   5.233  0.1442 -0.0772 -0.2185
  262POPC   C2B 3695   9.290  -0.804   5.468  0.1665 -0.0980 -0.2405
  262POPC   C3B 3696   9.694  -0.837   5.746 -0.1002 -0.0263 -0.2183
  262POPC   C4B 3697   9.728  -0.954   6.186  0.0355  0.0855 -0.1906
  263POPC   NC3 3698   5.820   2.949   5.192  0.2635  0.0700 -0.2865
  263POPC   PO4 3699   5.630   3.277   5.050 -0.0274 -0.0441 -0.4972
  263POPC   GL1 3700   5.827   3.352   5.439 -0.3148  0.0199 -0.0088
  263POPC   GL2 3701   5.575   3.453   5.545 -0.1040  0.0706 -0.0250
  263POPC   C1A 3702   5.989   3.347   5.895 -0.2326 -0.0907  0.0597
  263POPC   D2A 3703   5.865   3.216   6.271  0.1946 -0.1759 -0.1909
  263POPC   C3A 3704   5.743   3.583   6.558 -0.1199 -0.1311 -0.0833
  263POPC   C4A 3705   5.626   3.555   6.851 -0.3029  0.0053  0.3277
  263POPC   C1B 3706   5.509   3.468   6.008  0.1182 -0.0437  0.0155
  263POPC   C2B 3707   5.462   3.892   6.158  0.2084  0.2302  0.1191
  263POPC   C3B 3708   5.759   4.168   6.296 -0.2156 -0.1397 -0.1612
  263POPC   C4B 3709   5.987   4.093   6.585  0.1666 -0.0726  0.0779
  264POPC   NC3 3710   0.525   0.404   4.318 -0.1092 -0.0951 -0.1098
  264POPC   PO4 3711   0.969   0.185   4.446  0.1978 -0.1263  0.1085
  264POPC   GL1 3712   0.788  -0.196   4.580  0.0898 -0.3330 -0.1727
  264POPC   GL2 3713   0.817  -0.172   4.926  0.1199  0.3289  0.1140
  264POPC   C1A 3714   0.814  -0.663   4.703  0.0668  0.1404 -0.1826
  264POPC   D2A 3715   1.223  -0.739   4.853 -0.3828 -0.1316  0.1242
  264POPC   C3A 3716   1.102  -0.992   5.085  0.1386  0.4053 -0.3527
  264POPC   C4A 3717   0.886  -1.116   5.401 -0.0323 -0.3079  0.0737
  264POPC   C1B 3718   0.756  -0.431   5.247 -0.2974  0.0025  0.4101
  264POPC   C2B 3719   0.770  -0.670   5.558  0.0052 -0.4385 -0.0292
  264POPC   C3B 3720   0.747  -0.760   5.887 -0.1938  0.0665  0.0285
  264POPC   C4B 3721   0.885  -0.818   6.377 -0.1046  0.2570 -0.0498
  265POPC   NC3 3722   3.452   6.451   5.070 -0.0237  0.0326  0.0722
  265POPC   PO4 3723   3.710   6.021   5.175  0.0970 -0.1873 -0.0889
  265POPC   GL1 3724   3.609   6.096   5.484  0.0894 -0.0423  0.1498
  265POPC   GL2 3725   3.953   6.087   5.711 -0.0344  0.2944  0.1036
  265POPC   C1A 3726   3.419   6.129   5.875  0.1804 -0.1566 -0.2149
  265POPC   D2A 3727   3.347   6.147   6.232 -0.1436  0.1851 -0.0712
  265POPC   C3A 3728   3.617   6.384   6.637 -0.2828 -0.0559 -0.0667
  265POPC   C4A 3729   3.758   6.795   6.507  0.0395  0.0170  0.3790
  265POPC   C1B 3730   3.805   5.931   6.096 -0.1811  0.2740 -0.0577
  265POPC   C2B 3731   3.770   5.928   6.444 -0.3048  0.0401  0.1170
  265POPC   C3B 3732   3.981   6.103   6.769 -0.2638 -0.1744 -0.1704
  265POPC   C4B 3733   3.880   6.359   7.152 -0.3049  0.0259 -0.0760
  266POPC   NC3 3734   3.302   2.833   5.562 -0.0180 -0.1248  0.1403
  266POPC   PO4 3735   3.174   2.380   5.413  0.1252  0.0844 -0.1525
  266POPC   GL1 3736   3.594   2.388   5.683 -0.0832  0.2676  0.3146
  266POPC   GL2 3737   3.865   2.726   5.699 -0.1011  0.0680 -0.0671
  266POPC   C1A 3738   3.697   2.251   6.114 -0.3975 -0.0188  0.0250
  266POPC   D2A 3739   4.018   2.245   6.309  0.1909  0.1382 -0.2945
  266POPC   C3A 3740   4.014   2.157   6.787 -0.0860  0.0400  0.3165
  266POPC   C4A 3741   3.727   2.236   7.154 -0.0722  0.0934  0.0523
  266POPC   C1B 3742   4.058   2.768   5.989  0.0101  0.1491 -0.2888
  266POPC   C2B 3743   3.997   2.889   6.377  0.0900 -0.0544  0.1750
  266POPC   C3B 3744   4.017   2.933   6.771  0.1410  0.1833  0.1793
  266POPC   C4B 3745   4.148   2.626   7.091 -0.2572 -0.1014 -0.3138
  267POPC   NC3 3746   2.975   8.990   4.688 -0.1216 -0.0807  0.4909
  267POPC   PO4 3747   3.209   8.769   5.083 -0.1932 -0.3179  0.0857
  267POPC   GL1 3748   3.074   8.730   5.485  0.0633  0.0892 -0.1100
  267POPC   GL2 3749   3.207   9.014   5.593 -0.1262  0.1192  0.1248
  267POPC   C1A 3750   2.703   8.859   5.764  0.0687 -0.0207 -0.0312
  267POPC   D2A 3751   2.310   9.119   5.767 -0.1153  0.0018  0.3759
  267POPC   C3A 3752   2.209   9.290   6.027 -0.0984 -0.1558 -0.1639
  267POPC   C4A 3753   1.858   9.228   6.330  0.1509  0.0775  0.5587
  267POPC   C1B 3754   3.090   8.754   6.019 -0.1549 -0.1159 -0.0465
  267POPC   C2B 3755   2.710   8.570   6.281  0.1861  0.0630 -0.0023
  267POPC   C3B 3756   2.344   8.246   6.170  0.2264 -0.2352  0.2039
  267POPC   C4B 3757   2.198   8.205   5.766 -0.0213  0.3029 -0.2618
  268POPC   NC3 3758   4.686   3.363   4.890  0.1587  0.0908  0.2628
  268POPC   PO4 3759   4.692   3.667   5.238 -0.0433 -0.2927  0.1039
  268POPC   GL1 3760   4.841   3.660   5.701  0.2995  0.1060  0.0421
  268POPC   GL2 3761   5.155   3.761   5.632 -0.1256  0.0236 -0.2925
  268POPC   C1A 3762   4.834   3.914   6.137 -0.0252  0.0281  0.0865
  268POPC   D2A 3763   4.898   4.334   6.285 -0.0081  0.2999  0.2716
  268POPC   C3A 3764   5.304   4.314   6.457 -0.1203  0.1176 -0.2613
  268POPC   C4A 3765   5.534   4.066   6.857  0.1564 -0.1092 -0.2112
  268POPC   C1B 3766   5.132   4.199   5.880 -0.0031  0.1704  0.0673
  268POPC   C2B 3767   5.469   4.477   5.952 -0.5587 -0.5263  0.2393
  268POPC   C3B 3768   5.760   4.887   6.006  0.1792 -0.1570 -0.0162
  268POPC   C4B 3769   5.615   5.312   5.965 -0.0211 -0.1188  0.4842
  269POPC   NC3 3770   0.951   1.695   4.800 -0.1999 -0.1449  0.0087
  269POPC   PO4 3771   0.770   1.331   4.990  0.1416  0.2415 -0.0704
  269POPC   GL1 3772   0.633   1.280   5.386 -0.1371  0.1443  0.3261
  269POPC   GL2 3773   0.945   1.239   5.574  0.0698  0.0510  0.4213
  269POPC   C1A 3774   0.506   1.445   5.833 -0.0841  0.0205 -0.0434
  269POPC   D2A 3775   0.695   1.474   6.172  0.3598 -0.1177 -0.0615
  269POPC   C3A 3776   0.546   1.187   6.508  0.2259  0.0002  0.0331
  269POPC   C4A 3777   0.467   0.928   6.863 -0.0697 -0.2520 -0.0414
  269POPC   C1B 3778   1.101   0.918   5.830  0.2503  0.0492 -0.0938
  269POPC   C2B 3779   0.973   0.617   6.167 -0.0375 -0.0924 -0.3103
  269POPC   C3B 3780   1.184   0.630   6.572  0.0037  0.2789 -0.1756
  269POPC   C4B 3781   1.390   0.973   6.920  0.3036  0.0240  0.2483
  270POPC   NC3 3782   7.448   0.713   4.937 -0.0101 -0.0243 -0.0473
  270POPC   PO4 3783   7.248   0.495   5.214  0.1985 -0.1551 -0.2199
  270POPC   GL1 3784   7.361   0.395   5.584  0.0377  0.3486  0.2239
  270POPC   GL2 3785   7.325   0.050   5.707 -0.0108 -0.0138 -0.1334
  270POPC   C1A 3786   7.438   0.346   6.083  0.2303 -0.2032 -0.0639
  270POPC   D2A 3787   7.431   0.073   6.335 -0.1650 -0.0028 -0.1073
  270POPC   C3A 3788   7.067  -0.232   6.565 -0.2256  0.1060 -0.2214
  270POPC   C4A 3789   6.905  -0.170   7.027  0.2089  0.1276 -0.3590
  270POPC   C1B 3790   7.670  -0.186   5.922  0.1705 -0.0480 -0.0516
  270POPC   C2B 3791   8.045  -0.334   6.129 -0.3594  0.0605 -0.0030
  270POPC   C3B 3792   8.387  -0.369   6.408  0.0721 -0.4125 -0.0735
  270POPC   C4B 3793   8.395  -0.085   6.721 -0.4776 -0.2809 -0.0438
  271POPC   NC3 3794   4.103   7.692   5.079 -0.0351  0.0445 -0.0354
  271POPC   PO4 3795   3.737   7.418   5.155 -0.0647 -0.2490  0.1085
  271POPC   GL1 3796   3.576   7.372   5.539 -0.1962  0.0559  0.0383
  271POPC   GL2 3797   3.836   7.210   5.683  0.0094  0.1124 -0.0220
  271POPC   C1A 3798   3.400   7.517   5.844  0.1312  0.3053  0.0580
  271POPC   D2A 3799   3.167   7.760   6.161  0.1791 -0.0407  0.4762
  271POPC   C3A 3800   2.926   8.101   5.956  0.1637  0.1622  0.3038
  271POPC   C4A 3801   2.729   8.383   5.722  0.2502 -0.0799 -0.0704
  271POPC   C1B 3802   3.627   7.104   5.961  0.0325 -0.0969 -0.1012
  271POPC   C2B 3803   3.376   7.131   6.369  0.0533  0.5471 -0.2189
  271POPC   C3B 3804   3.373   6.893   6.745  0.1099 -0.2220  0.0799
  271POPC   C4B 3805   3.639   6.773   7.059  0.0277  0.0293 -0.2430
  272POPC   NC3 3806   5.968   0.281   5.058  0.2014 -0.1421  0.2209
  272POPC   PO4 3807   6.064   0.009   5.315 -0.0263 -0.1767  0.1950
  272POPC   GL1 3808   5.847  -0.191   5.649 -0.0634 -0.0916  0.1936
  272POPC   GL2 3809   5.991  -0.433   5.709 -0.1045 -0.0648  0.0831
  272POPC   C1A 3810   5.618  -0.337   6.099 -0.0456 -0.0408  0.1629
  272POPC   D2A 3811   5.557  -0.486   6.470 -0.2238 -0.1502 -0.1954
  272POPC   C3A 3812   5.476  -0.371   6.810  0.1283 -0.0405 -0.3487
  272POPC   C4A 3813   5.142  -0.139   7.059 -0.0662  0.0412 -0.1004
  272POPC   C1B 3814   6.449  -0.445   5.900 -0.0029  0.2890  0.1351
  272POPC   C2B 3815   6.795  -0.131   6.087  0.0449 -0.0248 -0.0363
  272POPC   C3B 3816   6.936   0.295   6.138 -0.4029  0.3832 -0.0024
  272POPC   C4B 3817   7.136   0.439   6.447 -0.2226  0.4162  0.1981
  273POPC   NC3 3818   6.535   8.686   5.089 -0.1133  0.0999 -0.1913
  273POPC   PO4 3819   6.666   8.345   5.358  0.3189  0.2623  0.0234
  273POPC   GL1 3820   6.821   8.312   5.682  0.1696 -0.2094  0.2072
  273POPC   GL2 3821   6.480   8.365   5.829 -0.1338 -0.0575 -0.0041
  273POPC   C1A 3822   7.001   8.132   6.108  0.0564 -0.0499 -0.0353
  273POPC   D2A 3823   6.913   7.956   6.563  0.0684 -0.1001 -0.0003
  273POPC   C3A 3824   7.201   8.047   6.903 -0.0732 -0.1033 -0.2467
  273POPC   C4A 3825   7.378   8.095   7.343 -0.1709  0.0018 -0.2196
  273POPC   C1B 3826   6.558   8.725   6.115 -0.0431 -0.2625  0.1800
  273POPC   C2B 3827   6.393   8.695   6.480 -0.0523  0.1220  0.0594
  273POPC   C3B 3828   6.258   9.115   6.772  0.0254 -0.2702  0.2285
  273POPC   C4B 3829   6.540   9.570   6.881 -0.1442 -0.3283 -0.2286
  274POPC   NC3 3830   2.607   1.213   5.237  0.0956  0.1015  0.0967
  274POPC   PO4 3831   2.889   1.394   5.235 -0.1188 -0.1735  0.1372
  274POPC   GL1 3832   3.258   1.341   5.617 -0.1191  0.0685 -0.1587
  274POPC   GL2 3833   3.652   1.310   5.737  0.2168  0.1867  0.1027
  274POPC   C1A 3834   3.352   1.330   6.142  0.3848  0.1195 -0.2213
  274POPC   D2A 3835   3.680   1.517   6.392  0.0594 -0.3079  0.0947
  274POPC   C3A 3836   3.968   1.332   6.540 -0.0508 -0.3535  0.0478
  274POPC   C4A 3837   4.046   1.012   6.888 -0.2368 -0.2396  0.0051
  274POPC   C1B 3838   3.468   1.724   5.866 -0.1885  0.0091  0.0392
  274POPC   C2B 3839   3.325   1.934   6.271 -0.1137 -0.1532 -0.2111
  274POPC   C3B 3840   3.543   1.999   6.649 -0.1434 -0.2268  0.0338
  274POPC   C4B 3841   3.755   1.750   6.917 -0.0247  0.0786  0.0284
  275POPC   NC3 3842   5.621   7.609   5.697 -0.1714  0.2987  0.3519
  275POPC   PO4 3843   5.756   8.045   5.609 -0.0859 -0.1348  0.2765
  275POPC   GL1 3844   5.994   7.992   5.910  0.0745  0.0579 -0.0766
  275POPC   GL2 3845   6.325   7.941   5.981  0.0584  0.0587  0.0776
  275POPC   C1A 3846   6.015   7.957   6.399 -0.0627  0.0890  0.0964
  275POPC   D2A 3847   5.964   8.291   6.670 -0.2721  0.3014  0.0705
  275POPC   C3A 3848   6.123   8.394   7.085 -0.0975  0.2323  0.3335
  275POPC   C4A 3849   6.292   7.954   7.405 -0.0525  0.0377 -0.0522
  275POPC   C1B 3850   6.449   8.177   6.358 -0.0677 -0.0675  0.1527
  275POPC   C2B 3851   6.512   8.221   6.798  0.2648  0.0053 -0.3084
  275POPC   C3B 3852   6.711   8.033   7.098 -0.0849  0.0840  0.0655
  275POPC   C4B 3853   7.081   7.731   7.303  0.0158  0.2065  0.3285
  276POPC   NC3 3854   2.279   2.183   5.128  0.0604  0.0239 -0.3893
  276POPC   PO4 3855   2.311   2.547   5.280  0.4742  0.1653 -0.0382
  276POPC   GL1 3856   2.293   2.329   5.789 -0.1622 -0.1103  0.0707
  276POPC   GL2 3857   2.011   2.420   5.854 -0.0723  0.1643  0.2581
  276POPC   C1A 3858   2.226   2.036   6.062 -0.2984 -0.1083 -0.3458
  276POPC   D2A 3859   2.317   1.789   6.432  0.1081  0.2927  0.0095
  276POPC   C3A 3860   1.846   1.633   6.595  0.1348 -0.1605 -0.1300
  276POPC   C4A 3861   1.375   1.658   6.777  0.0846 -0.5741 -0.0149
  276POPC   C1B 3862   2.354   2.502   6.245 -0.0288  0.2057 -0.0529
  276POPC   C2B 3863   2.302   2.803   6.515 -0.0162  0.2195 -0.0309
  276POPC   C3B 3864   1.940   3.150   6.594  0.1222  0.0429  0.3407
  276POPC   C4B 3865   1.624   3.365   6.372  0.0246 -0.1691 -0.1627
  277POPC   NC3 3866   2.011   9.149   4.172  0.1150 -0.3549 -0.1307
  277POPC   PO4 3867   1.877   9.499   4.422  0.0009  0.0091  0.2982
  277POPC   GL1 3868   1.792   9.514   4.883  0.1464  0.1743  0.0237
  277POPC   GL2 3869   2.122   9.379   5.217 -0.1646 -0.2205  0.0892
  277POPC   C1A 3870   1.566   9.362   5.237 -0.0599  0.0153  0.1179
  277POPC   D2A 3871   1.257   9.413   5.621 -0.0030  0.2791 -0.0102
  277POPC   C3A 3872   1.123   9.793   5.853  0.1862  0.0947 -0.1039
  277POPC   C4A 3873   0.919   9.843   6.158 -0.0149  0.0462  0.0746
  277POPC   C1B 3874   1.952   9.390   5.600  0.3922  0.1744  0.0253
  277POPC   C2B 3875   1.760   9.063   5.876 -0.0275  0.0716  0.0771
  277POPC   C3B 3876   1.764   8.729   6.251  0.1092 -0.1776 -0.3498
  277POPC   C4B 3877   1.571   8.599   6.656 -0.0629 -0.1834  0.1589
  278POPC   NC3 3878   4.112   6.841   5.412 -0.1082 -0.2198 -0.3772
  278POPC   PO4 3879   3.932   6.464   5.310 -0.0437  0.0887 -0.1707
  278POPC   GL1 3880   3.804   6.583   5.776 -0.0832 -0.1836 -0.3465
  278POPC   GL2 3881   4.020   6.809   5.950  0.0060 -0.0804 -0.0236
  278POPC   C1A 3882   3.372   6.654   5.990 -0.2601  0.0814 -0.1397
  278POPC   D2A 3883   3.085   6.704   6.319  0.3196 -0.1195  0.1309
  278POPC   C3A 3884   3.115   6.453   6.691  0.2427 -0.1927 -0.2456
  278POPC   C4A 3885   3.230   6.059   6.711 -0.0926  0.4371  0.2618
  278POPC   C1B 3886   3.980   6.408   6.274 -0.0543 -0.1377  0.0490
  278POPC   C2B 3887   4.258   5.992   6.327  0.0033  0.0306  0.0833
  278POPC   C3B 3888   4.564   5.609   6.289 -0.0778  0.0197  0.0486
  278POPC   C4B 3889   4.868   5.330   6.126  0.3659  0.3137  0.0317
  279POPC   NC3 3890   3.922   9.553   5.074  0.0694  0.1677 -0.2209
  279POPC   PO4 3891   4.079   9.186   5.258 -0.2662 -0.3784  0.0290
  279POPC   GL1 3892   3.983   9.183   5.693  0.1339 -0.0616 -0.3057
  279POPC   GL2 3893   4.100   9.012   5.797  0.1885 -0.1391 -0.0991
  279POPC   C1A 3894   3.900   9.307   6.155 -0.1666 -0.0016 -0.0049
  279POPC   D2A 3895   3.761   9.302   6.619 -0.0411  0.2552  0.1090
  279POPC   C3A 3896   3.839   9.616   6.961  0.0287 -0.0714 -0.0457
  279POPC   C4A 3897   3.688   9.925   7.333  0.0509  0.0806  0.2685
  279POPC   C1B 3898   4.107   8.780   6.263 -0.1964 -0.1156  0.4169
  279POPC   C2B 3899   3.993   8.819   6.670 -0.2371 -0.2495  0.0199
  279POPC   C3B 3900   3.778   8.896   6.892  0.1254 -0.3443 -0.0978
  279POPC   C4B 3901   3.498   9.166   7.145 -0.1049 -0.2628 -0.0218
  280POPC   NC3 3902   1.451   9.568   3.809 -0.2431 -0.2276  0.0250
  280POPC   PO4 3903   1.493   9.243   4.068  0.2764  0.0140  0.1652
  280POPC   GL1 3904   1.656   9.057   4.531 -0.3197  0.3343  0.0755
  280POPC   GL2 3905   1.504   9.081   4.826 -0.0827  0.1281  0.3587
  280POPC   C1A 3906   1.837   8.771   4.965  0.1098  0.1335  0.2607
  280POPC   D2A 3907   1.859   8.828   5.472  0.1645  0.0107 -0.0849
  280POPC   C3A 3908   1.755   8.486   5.781  0.0106 -0.0437  0.2187
  280POPC   C4A 3909   1.771   8.234   6.092 -0.0689 -0.0174 -0.1547
  280POPC   C1B 3910   1.415   8.881   5.189  0.0483 -0.0284  0.0401
  280POPC   C2B 3911   1.403   8.854   5.656  0.1121 -0.0482  0.0558
  280POPC   C3B 3912   1.239   9.169   6.070  0.1512  0.1067  0.0352
  280POPC   C4B 3913   1.534   9.539   6.082  0.1652  0.0875  0.1919
  281POPC   NC3 3914  10.047   9.592   3.932  0.2190  0.3274  0.0343
  281POPC   PO4 3915   9.767   9.223   3.621  0.0600  0.0132 -0.0514
  281POPC   GL1 3916  10.127   8.999   4.010 -0.3105 -0.1209  0.2430
  281POPC   GL2 3917  10.542   9.183   4.158 -0.1862  0.1359  0.0514
  281POPC   C1A 3918  10.062   9.096   4.436 -0.1386 -0.2419  0.2086
  281POPC   D2A 3919   9.933   9.330   4.706 -0.3000  0.0874 -0.1073
  281POPC   C3A 3920   9.744   9.405   5.168 -0.0278  0.1288  0.0817
  281POPC   C4A 3921   9.647   9.762   5.319 -0.3686  0.2675 -0.0124
  281POPC   C1B 3922  10.947   9.211   4.312 -0.0750 -0.1343  0.0848
  281POPC   C2B 3923  11.251   9.107   4.530  0.2809  0.1160 -0.0774
  281POPC   C3B 3924  11.282   8.765   4.837  0.1889 -0.2434 -0.3597
  281POPC   C4B 3925  11.225   8.618   5.310  0.0942  0.2518  0.1987
  282POPC   NC3 3926   0.616   9.129   3.724 -0.0332  0.1355  0.1650
  282POPC   PO4 3927   0.495   9.572   3.898  0.3811 -0.2433  0.0993
  282POPC   GL1 3928   0.463   9.716   4.352 -0.0850  0.1678 -0.0888
  282POPC   GL2 3929   0.099   9.564   4.310  0.4196  0.0793 -0.4798
  282POPC   C1A 3930   0.283   9.882   4.688  0.1310  0.1269  0.1304
  282POPC   D2A 3931   0.325  10.131   5.124 -0.3757  0.3022  0.0735
  282POPC   C3A 3932   0.275   9.831   5.488 -0.6017 -0.2809  0.0246
  282POPC   C4A 3933   0.263   9.402   5.599 -0.1117 -0.1093 -0.0959
  282POPC   C1B 3934   0.249   9.348   4.645  0.1119  0.1932 -0.1213
  282POPC   C2B 3935   0.113   9.081   4.940 -0.0677  0.2500 -0.2624
  282POPC   C3B 3936  -0.042   9.208   5.276 -0.1246 -0.4115  0.1310
  282POPC   C4B 3937  -0.142   9.684   5.522 -0.1400  0.0065  0.0521
  283POPC   NC3 3938  10.074   6.675   3.777  0.1878 -0.3045 -0.1045
  283POPC   PO4 3939   9.840   7.034   3.665  0.0571  0.0440 -0.0520
  283POPC   GL1 3940   9.582   7.140   4.166  0.0423  0.3605 -0.1510
  283POPC   GL2 3941   9.458   6.809   4.253  0.0155  0.4363 -0.0715
  283POPC   C1A 3942   9.512   7.192   4.550 -0.3638  0.0261  0.0278
  283POPC   D2A 3943   9.713   7.195   4.894 -0.0023  0.1983 -0.5039
  283POPC   C3A 3944   9.927   7.565   5.161  0.2310 -0.1607  0.1343
  283POPC   C4A 3945  10.252   7.485   5.388 -0.0743 -0.1502 -0.2236
  283POPC   C1B 3946   9.728   6.730   4.680  0.3065 -0.0429  0.1133
  283POPC   C2B 3947  10.040   6.571   5.113  0.0224 -0.2305  0.1654
  283POPC   C3B 3948  10.519   6.667   5.213 -0.0471 -0.4475  0.3574
  283POPC   C4B 3949  10.755   7.139   5.313 -0.2144  0.0050 -0.1365
  284POPC   NC3 3950   2.545   8.616   4.649  0.0199 -0.0269  0.1955
  284POPC   PO4 3951   2.931   8.472   4.751 -0.2540  0.1870 -0.5164
  284POPC   GL1 3952   2.904   8.399   5.152 -0.1544  0.3064  0.0063
  284POPC   GL2 3953   3.101   8.219   5.303  0.1276 -0.2047 -0.0457
  284POPC   C1A 3954   2.541   8.360   5.294 -0.4954  0.4173  0.1696
  284POPC   D2A 3955   2.327   8.686   5.436 -0.2037 -0.1631  0.1326
  284POPC   C3A 3956   2.191   8.661   5.917 -0.2843 -0.2734  0.1565
  284POPC   C4A 3957   2.244   8.869   6.347 -0.5112  0.2878 -0.0919
  284POPC   C1B 3958   3.209   7.869   5.484  0.2470  0.2664 -0.1195
  284POPC   C2B 3959   3.485   7.954   5.781 -0.0318  0.0205 -0.1696
  284POPC   C3B 3960   3.672   7.917   6.180  0.2577  0.4827  0.3852
  284POPC   C4B 3961   3.560   7.800   6.524  0.2190 -0.1664 -0.1536
  285POPC   NC3 3962   1.470   4.556   5.305 -0.3029 -0.1127  0.1433
  285POPC   PO4 3963   1.096   4.741   5.175  0.0246  0.3345  0.1795
  285POPC   GL1 3964   1.116   4.775   5.527  0.1222  0.2371 -0.0094
  285POPC   GL2 3965   1.176   4.627   5.755  0.2189 -0.2716  0.0179
  285POPC   C1A 3966   1.365   5.092   5.783  0.2597 -0.1101  0.0495
  285POPC   D2A 3967   1.604   5.124   6.154  0.4247  0.0243 -0.2596
  285POPC   C3A 3968   1.678   5.054   6.566  0.3315 -0.2734 -0.0355
  285POPC   C4A 3969   1.834   5.069   7.094 -0.2288 -0.2173  0.5877
  285POPC   C1B 3970   0.860   4.731   5.956  0.3500 -0.0282 -0.2290
  285POPC   C2B 3971   0.517   5.086   6.104 -0.2115 -0.1229 -0.1715
  285POPC   C3B 3972   0.412   5.430   6.354  0.2178 -0.0058  0.2843
  285POPC   C4B 3973   0.092   5.550   6.717 -0.0955  0.0514  0.0875
  286POPC   NC3 3974   2.817   0.114   4.664  0.2035  0.0692  0.0240
  286POPC   PO4 3975   2.515   0.435   4.862 -0.1219  0.2283 -0.1683
  286POPC   GL1 3976   2.426   0.333   5.344 -0.1979  0.1433  0.3862
  286POPC   GL2 3977   2.659  -0.055   5.425  0.3728  0.3103  0.2851
  286POPC   C1A 3978   2.248   0.082   5.598  0.2455 -0.1306 -0.0008
  286POPC   D2A 3979   2.381  -0.177   5.899 -0.1152 -0.2678 -0.3667
  286POPC   C3A 3980   2.724   0.035   6.238  0.0133  0.2772  0.2103
  286POPC   C4A 3981   2.553   0.201   6.545 -0.1215 -0.0714 -0.0697
  286POPC   C1B 3982   2.836  -0.266   5.809  0.2508 -0.0639  0.1224
  286POPC   C2B 3983   2.563  -0.526   6.157  0.1919  0.0143 -0.2313
  286POPC   C3B 3984   2.371  -0.841   6.505 -0.0050  0.0027  0.1095
  286POPC   C4B 3985   2.544  -1.059   6.830 -0.2330  0.1888 -0.2686
  287POPC   NC3 3986   4.910   8.130   5.170 -0.0982 -0.2114 -0.0387
  287POPC   PO4 3987   5.143   7.780   5.317 -0.2786 -0.0785 -0.1888
  287POPC   GL1 3988   5.089   7.836   5.734 -0.1487  0.3264  0.1791
  287POPC   GL2 3989   5.321   8.035   5.888  0.2898 -0.0211  0.1832
  287POPC   C1A 3990   4.970   7.670   6.221  0.1415 -0.3111  0.2082
  287POPC   D2A 3991   4.557   7.689   6.433 -0.0204 -0.3219 -0.0470
  287POPC   C3A 3992   4.447   7.308   6.697 -0.1752  0.1899  0.0010
  287POPC   C4A 3993   4.474   6.889   6.914 -0.0856 -0.1213 -0.0292
  287POPC   C1B 3994   5.375   7.927   6.338  0.1235  0.2469 -0.1274
  287POPC   C2B 3995   5.615   7.879   6.713  0.0045  0.1557 -0.2169
  287POPC   C3B 3996   5.829   7.960   7.116  0.0488 -0.1858 -0.1686
  287POPC   C4B 3997   5.813   7.962   7.504  0.0760 -0.0064 -0.0114
  288POPC   NC3 3998   7.438   8.811   5.049  0.0213 -0.4135 -0.1234
  288POPC   PO4 3999   6.999   8.775   5.267 -0.1653  0.2063 -0.0434
  288POPC   GL1 4000   7.080   8.950   5.645 -0.1391  0.1292  0.1824
  288POPC   GL2 4001   7.413   8.946   5.601 -0.2736 -0.1794 -0.2027
  288POPC   C1A 4002   7.013   9.086   6.098 -0.2564  0.1256  0.1792
  288POPC   D2A 4003   6.718   9.028   6.488 -0.0283  0.1315  0.2355
  288POPC   C3A 4004   6.967   9.122   6.893 -0.1041 -0.2006 -0.3106
  288POPC   C4A 4005   7.024   9.526   7.036 -0.0160 -0.1727  0.2591
  288POPC   C1B 4006   7.657   8.883   5.971  0.5625  0.2551  0.1679
  288POPC   C2B 4007   7.954   8.958   6.199 -0.2210  0.3365 -0.2453
  288POPC   C3B 4008   8.416   8.968   6.253 -0.0106  0.0508 -0.1304
  288POPC   C4B 4009   8.795   8.865   6.382  0.2438 -0.1429 -0.1227
  289POPC   NC3 4010   8.139   6.215   3.932 -0.0467  0.0157  0.1703
  289POPC   PO4 4011   8.140   6.429   4.407 -0.1456  0.1942  0.1646
  289POPC   GL1 4012   8.264   6.718   4.791 -0.0972  0.0872 -0.1142
  289POPC   GL2 4013   8.628   6.726   4.777 -0.2865  0.3867 -0.2324
  289POPC   C1A 4014   8.383   6.584   5.199 -0.1487 -0.0250  0.0620
  289POPC   D2A 4015   8.564   6.844   5.582 -0.1005 -0.2351 -0.1509
  289POPC   C3A 4016   8.486   6.824   5.980  0.0890 -0.0843 -0.0319
  289POPC   C4A 4017   8.021   6.691   6.073  0.1840 -0.0421 -0.0795
  289POPC   C1B 4018   8.754   6.948   5.087 -0.1274 -0.1350 -0.1812
  289POPC   C2B 4019   8.962   7.151   5.475  0.1305 -0.2976 -0.5327
  289POPC   C3B 4020   8.978   7.575   5.443 -0.0654  0.0013 -0.1135
  289POPC   C4B 4021   8.690   7.867   5.570  0.2351  0.1443 -0.0622
  290POPC   NC3 4022   6.125   9.641   5.039  0.4854 -0.2566  0.0337
  290POPC   PO4 4023   6.206   9.368   5.370  0.3948  0.1558  0.2134
  290POPC   GL1 4024   6.262   9.188   5.797 -0.2735 -0.1310  0.0571
  290POPC   GL2 4025   6.487   9.301   5.972  0.0732  0.1058  0.0359
  290POPC   C1A 4026   6.085   9.043   6.262 -0.4109  0.1797 -0.2490
  290POPC   D2A 4027   5.874   8.793   6.513  0.2534 -0.0860 -0.1699
  290POPC   C3A 4028   5.910   8.816   7.032 -0.3017  0.0398  0.0389
  290POPC   C4A 4029   6.142   8.811   7.331 -0.0369  0.2488  0.3218
  290POPC   C1B 4030   6.610   9.483   6.301  0.2198  0.0726  0.0066
  290POPC   C2B 4031   6.566   9.803   6.426  0.2246  0.0512 -0.0095
  290POPC   C3B 4032   6.456  10.156   6.736  0.2562 -0.1032 -0.1807
  290POPC   C4B 4033   6.105  10.398   6.869 -0.1902  0.0343  0.1114
  291POPC   NC3 4034   1.675   8.395   3.356  0.0014  0.1119 -0.1819
  291POPC   PO4 4035   1.486   8.683   3.673  0.0946  0.2584  0.0059
  291POPC   GL1 4036   1.288   8.528   4.017 -0.2033 -0.0355  0.0268
  291POPC   GL2 4037   1.270   8.692   4.338 -0.1657  0.1141 -0.1235
  291POPC   C1A 4038   1.136   8.148   4.106  0.0527  0.1347 -0.0198
  291POPC   D2A 4039   1.216   7.903   4.547 -0.0168 -0.0876 -0.0162
  291POPC   C3A 4040   0.980   7.489   4.626  0.1787  0.1454 -0.2308
  291POPC   C4A 4041   0.684   7.356   4.836 -0.0377 -0.3213  0.1560
  291POPC   C1B 4042   1.347   8.376   4.600 -0.0689  0.1350  0.1110
  291POPC   C2B 4043   1.059   8.180   4.958 -0.0263  0.1573 -0.0715
  291POPC   C3B 4044   0.921   7.862   5.037 -0.3373 -0.1079 -0.0431
  291POPC   C4B 4045   1.058   7.553   5.157  0.1296  0.0111 -0.1282
  292POPC   NC3 4046   3.219   4.559   4.889 -0.0042  0.2812  0.1329
  292POPC   PO4 4047   3.638   4.691   5.051  0.2469 -0.0191  0.0087
  292POPC   GL1 4048   3.527   4.659   5.447  0.0316  0.2149 -0.0934
  292POPC   GL2 4049   3.185   4.820   5.632  0.2758  0.1897 -0.1352
  292POPC   C1A 4050   3.903   4.657   5.780 -0.2642 -0.0995 -0.0435
  292POPC   D2A 4051   4.332   4.554   5.724  0.3433  0.0364 -0.4124
  292POPC   C3A 4052   4.503   4.239   5.923  0.0725  0.0994 -0.2650
  292POPC   C4A 4053   4.406   4.158   6.369 -0.2074  0.1388  0.0889
  292POPC   C1B 4054   3.486   4.978   5.881  0.1856  0.2723  0.0167
  292POPC   C2B 4055   3.792   5.011   6.114  0.0315  0.0213 -0.1488
  292POPC   C3B 4056   3.940   4.936   6.515  0.1116  0.0747 -0.3634
  292POPC   C4B 4057   4.300   4.709   6.708  0.0802  0.1161 -0.1363
  293POPC   NC3 4058   3.035   1.852   5.267 -0.0760 -0.2541 -0.0180
  293POPC   PO4 4059   2.691   2.143   5.509 -0.2565  0.1451 -0.0332
  293POPC   GL1 4060   2.847   2.226   5.885  0.0697  0.0395 -0.1620
  293POPC   GL2 4061   3.112   2.411   5.936  0.0003 -0.0803  0.1905
  293POPC   C1A 4062   2.776   1.966   6.304  0.0834  0.3088  0.1956
  293POPC   D2A 4063   2.818   1.592   6.299 -0.1455 -0.1309  0.5174
  293POPC   C3A 4064   3.111   1.441   6.621  0.0350  0.3610 -0.0918
  293POPC   C4A 4065   3.091   1.362   7.021 -0.0356  0.1380 -0.0433
  293POPC   C1B 4066   2.848   2.574   6.280 -0.1139 -0.0434 -0.2485
  293POPC   C2B 4067   2.741   2.624   6.761  0.2482 -0.0800  0.0982
  293POPC   C3B 4068   2.455   2.548   7.089  0.0825 -0.0050  0.0715
  293POPC   C4B 4069   2.168   2.624   7.431 -0.1178  0.1817 -0.0972
  294POPC   NC3 4070   3.390   8.358   4.933 -0.0198  0.3252 -0.0105
  294POPC   PO4 4071   3.822   8.342   5.065 -0.2341 -0.2370  0.0937
  294POPC   GL1 4072   3.542   8.424   5.412  0.3240 -0.0253 -0.2020
  294POPC   GL2 4073   3.648   8.707   5.606  0.0605 -0.1307  0.0891
  294POPC   C1A 4074   3.274   8.409   5.732  0.0684  0.0219 -0.0845
  294POPC   D2A 4075   3.333   8.246   6.190  0.1067 -0.1501  0.1064
  294POPC   C3A 4076   3.108   8.309   6.563  0.1988 -0.1118  0.0813
  294POPC   C4A 4077   3.095   7.877   6.755 -0.0618  0.4311 -0.4236
  294POPC   C1B 4078   3.593   8.788   6.053  0.4791 -0.0758  0.3801
  294POPC   C2B 4079   3.470   8.737   6.463  0.0913 -0.2081 -0.3542
  294POPC   C3B 4080   3.365   8.660   6.887 -0.1574 -0.2702 -0.0932
  294POPC   C4B 4081   3.267   8.693   7.340 -0.2809  0.0676  0.0395
  295POPC   NC3 4082   5.165   9.486   5.168  0.0152 -0.3022 -0.1616
  295POPC   PO4 4083   5.160   9.168   5.458 -0.3673  0.1336 -0.1021
  295POPC   GL1 4084   5.389   9.303   5.859  0.3777  0.0643 -0.1530
  295POPC   GL2 4085   5.606   9.481   5.740 -0.1270  0.0880 -0.2037
  295POPC   C1A 4086   5.375   9.297   6.326 -0.0114 -0.1778 -0.3926
  295POPC   D2A 4087   5.722   9.236   6.662 -0.1624  0.2431  0.1236
  295POPC   C3A 4088   5.651   9.293   6.995 -0.0336  0.1965 -0.1625
  295POPC   C4A 4089   5.260   9.495   7.126 -0.2757 -0.0076 -0.3434
  295POPC   C1B 4090   5.802   9.434   6.096 -0.3372  0.0734 -0.2889
  295POPC   C2B 4091   6.160   9.498   6.488  0.1144  0.0848 -0.2234
  295POPC   C3B 4092   6.028   9.776   6.857 -0.1479  0.2281  0.2134
  295POPC   C4B 4093   5.794  10.121   7.067 -0.2134 -0.1438  0.0695
  296POPC   NC3 4094   6.035   3.537   4.896  0.1676  0.1486  0.0973
  296POPC   PO4 4095   6.276   3.249   5.234 -0.1080  0.2243  0.0300
  296POPC   GL1 4096   6.407   3.268   5.674 -0.2114 -0.3170  0.0209
  296POPC   GL2 4097   6.361   2.911   5.630 -0.0856  0.0039 -0.1062
  296POPC   C1A 4098   6.356   3.127   6.125 -0.0087  0.0854  0.0061
  296POPC   D2A 4099   6.382   3.091   6.574 -0.1194 -0.2939  0.1096
  296POPC   C3A 4100   6.486   2.761   6.707 -0.3599 -0.0705 -0.0086
  296POPC   C4A 4101   6.715   2.449   6.548  0.0540 -0.1197  0.0383
  296POPC   C1B 4102   6.426   2.622   6.043  0.1026  0.2557 -0.1431
  296POPC   C2B 4103   6.151   2.230   6.299 -0.1246 -0.0002 -0.2615
  296POPC   C3B 4104   6.052   2.082   6.550  0.3984  0.1111  0.0665
  296POPC   C4B 4105   5.802   2.220   6.892  0.0172  0.1026 -0.1020
  297POPC   NC3 4106   5.906   6.915   4.984  0.4221  0.3303 -0.2293
  297POPC   PO4 4107   5.640   6.832   5.336  0.2303  0.0333  0.3154
  297POPC   GL1 4108   5.390   6.735   5.806 -0.0513  0.1695 -0.1706
  297POPC   GL2 4109   5.345   6.392   5.826 -0.1646  0.1655 -0.0766
  297POPC   C1A 4110   5.647   6.610   6.188 -0.1477 -0.0827  0.3380
  297POPC   D2A 4111   5.590   6.247   6.457 -0.0993 -0.0341  0.1332
  297POPC   C3A 4112   5.166   6.164   6.556  0.3003 -0.1164 -0.5327
  297POPC   C4A 4113   4.778   5.969   6.538 -0.4429  0.5739 -0.1899
  297POPC   C1B 4114   5.435   6.103   6.028 -0.0970 -0.0262 -0.0824
  297POPC   C2B 4115   5.719   5.781   6.268 -0.1109  0.2990  0.3333
  297POPC   C3B 4116   5.535   5.439   6.453  0.3354 -0.1005  0.1977
  297POPC   C4B 4117   5.664   4.970   6.564  0.0476  0.0368  0.0537
  298POPC   NC3 4118   9.558   2.289   5.286  0.0308 -0.1016  0.0417
  298POPC   PO4 4119   9.957   2.593   5.385  0.0675  0.1603  0.1835
  298POPC   GL1 4120  10.055   2.771   5.742  0.0057 -0.1434 -0.2256
  298POPC   GL2 4121  10.358   2.734   5.716 -0.4029 -0.0049 -0.0433
  298POPC   C1A 4122  10.018   2.711   6.080 -0.0413  0.1144 -0.1220
  298POPC   D2A 4123   9.953   2.480   6.530  0.3781 -0.2371 -0.0327
  298POPC   C3A 4124  10.234   2.135   6.779 -0.0710  0.1643  0.2988
  298POPC   C4A 4125  10.216   1.719   6.848 -0.0990 -0.2071 -0.0204
  298POPC   C1B 4126  10.441   2.954   6.233 -0.0245 -0.1332  0.4846
  298POPC   C2B 4127  10.168   2.992   6.537 -0.1297  0.5526  0.2636
  298POPC   C3B 4128  10.115   3.123   6.876  0.0435 -0.1038 -0.0365
  298POPC   C4B 4129  10.415   3.273   7.203  0.2083 -0.1442 -0.0492
  299POPC   NC3 4130   9.431   1.789   4.485 -0.0093  0.2782  0.0389
  299POPC   PO4 4131   9.705   1.892   4.874  0.1573  0.0319  0.2468
  299POPC   GL1 4132   9.919   1.756   5.302  0.1275 -0.0389  0.0248
  299POPC   GL2 4133   9.927   1.990   5.523  0.0556 -0.0734  0.0629
  299POPC   C1A 4134   9.837   1.579   5.779  0.0419 -0.1934 -0.1273
  299POPC   D2A 4135   9.608   1.234   6.019  0.1881 -0.1992 -0.2851
  299POPC   C3A 4136   9.451   1.407   6.375  0.0466  0.1581 -0.2647
  299POPC   C4A 4137   9.339   1.411   6.829 -0.1454  0.1537 -0.0052
  299POPC   C1B 4138   9.761   2.075   6.008 -0.2607 -0.0697 -0.0114
  299POPC   C2B 4139   9.918   1.934   6.432  0.3784 -0.0035 -0.0713
  299POPC   C3B 4140   9.760   1.600   6.734  0.1792 -0.1113 -0.1206
  299POPC   C4B 4141   9.691   1.209   7.160 -0.1282 -0.2191  0.0174
  300POPC   NC3 4142   1.391   9.664   4.400 -0.2045  0.1833  0.0788
  300POPC   PO4 4143   1.273   9.945   4.727 -0.1989 -0.1293  0.0487
  300POPC   GL1 4144   1.309   9.785   5.160  0.0652  0.0125  0.0929
  300POPC   GL2 4145   1.183  10.067   5.409 -0.2626  0.0340  0.0919
  300POPC   C1A 4146   1.573   9.768   5.496  0.0380 -0.0831 -0.3253
  300POPC   D2A 4147   1.593  10.042   5.924  0.1841 -0.1632 -0.0528
  300POPC   C3A 4148   1.346   9.982   6.302  0.0026  0.1230  0.1206
  300POPC   C4A 4149   1.205   9.713   6.588 -0.0799 -0.2032  0.2585
  300POPC   C1B 4150   1.150  10.287   5.794 -0.0661 -0.2727 -0.1809
  300POPC   C2B 4151   0.889  10.327   6.208 -0.1124  0.1534  0.0817
  300POPC   C3B 4152   0.528  10.278   6.365  0.3910 -0.1302  0.1434
  300POPC   C4B 4153   0.233  10.350   6.691  0.3119  0.2591  0.3410
  301POPC   NC3 4154   2.221   3.326   5.248 -0.0190 -0.0823  0.0106
  301POPC   PO4 4155   1.731   3.278   5.113  0.1024 -0.2861 -0.0987
  301POPC   GL1 4156   1.693   3.453   5.570  0.3177 -0.0419 -0.1220
  301POPC   GL2 4157   1.875   3.336   5.608 -0.2127 -0.1314 -0.1798
  301POPC   C1A 4158   1.692   3.695   5.895  0.0782 -0.2312  0.0249
  301POPC   D2A 4159   1.478   3.938   6.119 -0.1416 -0.3728 -0.0227
  301POPC   C3A 4160   1.562   3.859   6.513  0.0892  0.0804 -0.3766
  301POPC   C4A 4161   1.560   4.129   6.952  0.0050  0.1364  0.3012
  301POPC   C1B 4162   2.139   3.601   5.940 -0.0246  0.0370 -0.0768
  301POPC   C2B 4163   2.156   3.650   6.382  0.0443  0.0587  0.2703
  301POPC   C3B 4164   2.382   3.465   6.640 -0.1003  0.1026 -0.0782
  301POPC   C4B 4165   2.767   3.606   6.870 -0.3677 -0.1239  0.2292
  302POPC   NC3 4166   8.427   3.769   4.826 -0.1986  0.1745  0.1144
  302POPC   PO4 4167   8.479   3.928   5.275 -0.2039  0.2370  0.1351
  302POPC   GL1 4168   8.191   3.995   5.625  0.2763 -0.0412 -0.2007
  302POPC   GL2 4169   8.093   4.276   5.586  0.2016  0.0625 -0.1195
  302POPC   C1A 4170   8.304   4.164   6.112 -0.1945 -0.1132  0.0144
  302POPC   D2A 4171   8.421   4.502   6.508  0.5384 -0.4038 -0.1623
  302POPC   C3A 4172   8.644   4.341   6.787  0.0210 -0.1032  0.1513
  302POPC   C4A 4173   8.881   4.155   7.189  0.2007  0.4298 -0.3111
  302POPC   C1B 4174   7.880   4.326   5.924 -0.1358 -0.1279  0.0230
  302POPC   C2B 4175   7.857   4.297   6.339 -0.0503 -0.0179 -0.1822
  302POPC   C3B 4176   7.935   4.421   6.694  0.2261  0.2029  0.1191
  302POPC   C4B 4177   8.239   4.620   6.972  0.0871 -0.2683 -0.0007
  303POPC   NC3 4178   5.791   1.477   5.236  0.0041  0.0113  0.0119
  303POPC   PO4 4179   5.283   1.602   5.275 -0.0688  0.1181  0.0239
  303POPC   GL1 4180   5.337   1.717   5.721 -0.2536 -0.0712 -0.0317
  303POPC   GL2 4181   5.443   1.456   5.944  0.0039  0.0595 -0.3203
  303POPC   C1A 4182   5.341   2.006   5.926  0.3146  0.0391 -0.2514
  303POPC   D2A 4183   5.171   2.329   6.194  0.4618 -0.0450 -0.5175
  303POPC   C3A 4184   4.857   2.185   6.495 -0.2061 -0.2627 -0.0089
  303POPC   C4A 4185   4.570   2.030   6.728 -0.3288  0.3719  0.0372
  303POPC   C1B 4186   5.286   1.723   6.311 -0.1618  0.2820  0.2991
  303POPC   C2B 4187   5.472   1.994   6.660  0.1442 -0.0386 -0.0640
  303POPC   C3B 4188   5.953   1.734   6.949  0.1367  0.2865 -0.0310
  303POPC   C4B 4189   6.332   1.875   6.898  0.3128 -0.1028 -0.1031
  304POPC   NC3 4190   6.175   5.101   4.811 -0.2893  0.2886  0.2292
  304POPC   PO4 4191   6.241   5.152   5.263  0.0618  0.1483  0.1947
  304POPC   GL1 4192   6.230   5.311   5.756  0.3606 -0.0173  0.1860
  304POPC   GL2 4193   6.293   5.554   5.930 -0.0111  0.0515  0.0179
  304POPC   C1A 4194   6.184   5.091   6.121 -0.1895  0.3997  0.4161
  304POPC   D2A 4195   6.018   5.323   6.417  0.2545 -0.2877  0.0088
  304POPC   C3A 4196   6.236   5.379   6.684 -0.3103 -0.3132  0.2124
  304POPC   C4A 4197   6.502   5.637   6.973 -0.1142 -0.1471  0.4752
  304POPC   C1B 4198   6.214   5.694   6.151  0.2352 -0.2428  0.1649
  304POPC   C2B 4199   6.186   5.902   6.514 -0.4188 -0.1660  0.0516
  304POPC   C3B 4200   6.230   6.135   6.957  0.1775  0.1356 -0.2785
  304POPC   C4B 4201   6.337   5.982   7.357  0.3628  0.0088  0.0804
  305POPC   NC3 4202   8.650   8.514   4.285 -0.2251 -0.1555 -0.1807
  305POPC   PO4 4203   8.367   8.860   4.380 -0.0646 -0.0828  0.1145
  305POPC   GL1 4204   8.387   8.596   4.733  0.1001  0.0234  0.0422
  305POPC   GL2 4205   8.429   8.820   4.957 -0.4158 -0.0294 -0.0119
  305POPC   C1A 4206   8.189   8.406   5.018  0.4580 -0.0418 -0.0505
  305POPC   D2A 4207   8.105   8.093   5.236 -0.0543  0.4115 -0.0548
  305POPC   C3A 4208   8.217   7.869   5.571 -0.2121  0.2634 -0.1251
  305POPC   C4A 4209   8.017   7.845   6.007  0.0760  0.2643  0.2370
  305POPC   C1B 4210   8.471   8.595   5.355  0.0071 -0.0987  0.1939
  305POPC   C2B 4211   8.425   8.252   5.775 -0.0197  0.0973  0.3611
  305POPC   C3B 4212   8.525   8.037   5.987  0.0622  0.0544  0.0741
  305POPC   C4B 4213   8.578   7.694   6.101  0.0938  0.0186  0.0429
  306POPC   NC3 4214   6.636   1.375   5.394 -0.1856  0.0280  0.0847
  306POPC   PO4 4215   7.062   1.508   5.300  0.0586  0.1934 -0.1483
  306POPC   GL1 4216   6.963   1.688   5.719 -0.1731  0.2491 -0.3369
  306POPC   GL2 4217   6.596   1.537   5.838  0.2882 -0.0587  0.3481
  306POPC   C1A 4218   7.398   1.656   6.025  0.1663  0.1028  0.3469
  306POPC   D2A 4219   7.754   1.403   6.152  0.2397  0.1331  0.0888
  306POPC   C3A 4220   8.053   1.507   6.541  0.3301 -0.0166 -0.2160
  306POPC   C4A 4221   8.012   1.567   6.949 -0.0424  0.0861 -0.0330
  306POPC   C1B 4222   6.931   1.582   6.202  0.0178  0.0484 -0.1395
  306POPC   C2B 4223   7.177   1.363   6.528  0.0637  0.3959 -0.0742
  306POPC   C3B 4224   7.533   1.301   6.823 -0.2569  0.0613 -0.2893
  306POPC   C4B 4225   7.522   1.363   7.265 -0.1369 -0.1697  0.2149
  307POPC   NC3 4226   5.142   5.072   4.484  0.3010 -0.0816 -0.0154
  307POPC   PO4 4227   5.140   5.347   4.827 -0.0906  0.0468  0.0009
  307POPC   GL1 4228   5.261   5.417   5.362 -0.1182  0.1044 -0.2032
  307POPC   GL2 4229   5.120   5.021   5.505 -0.0970 -0.0650  0.2808
  307POPC   C1A 4230   5.166   5.499   5.785  0.2534  0.1224 -0.0328
  307POPC   D2A 4231   5.121   5.686   6.259  0.0782  0.2311  0.1869
  307POPC   C3A 4232   4.975   5.484   6.601  0.2017 -0.0424 -0.0406
  307POPC   C4A 4233   4.749   5.170   6.878 -0.3129 -0.0216 -0.1367
  307POPC   C1B 4234   5.257   5.015   5.882  0.1781 -0.2113  0.0105
  307POPC   C2B 4235   5.231   5.021   6.288 -0.0244  0.2334 -0.0674
  307POPC   C3B 4236   5.143   4.783   6.653  0.0020 -0.3262  0.2754
  307POPC   C4B 4237   4.774   4.580   6.766 -0.0447  0.1574  0.1777
  308POPC   NC3 4238   0.040   4.242   4.845 -0.0054  0.1059 -0.1449
  308POPC   PO4 4239   0.378   3.958   5.067 -0.0897  0.1512  0.1596
  308POPC   GL1 4240   0.687   4.006   5.538 -0.0327 -0.1530  0.0188
  308POPC   GL2 4241   0.729   4.358   5.681  0.0459 -0.2622 -0.2697
  308POPC   C1A 4242   0.636   3.917   5.985  0.2257 -0.3951 -0.0820
  308POPC   D2A 4243   0.627   4.096   6.453  0.2711 -0.0585 -0.0391
  308POPC   C3A 4244   0.564   3.852   6.880  0.3009  0.3589 -0.0690
  308POPC   C4A 4245   0.672   3.478   7.154  0.0640 -0.0631 -0.1835
  308POPC   C1B 4246   0.489   4.462   6.145 -0.2293 -0.2742  0.0956
  308POPC   C2B 4247   0.220   4.613   6.446 -0.0401  0.1806 -0.1292
  308POPC   C3B 4248   0.075   4.814   6.814  0.2087 -0.1267 -0.1001
  308POPC   C4B 4249   0.001   4.590   7.271 -0.0183  0.2683 -0.0359
  309POPC   NC3 4250   5.648   7.763   5.183 -0.0919 -0.0203 -0.1538
  309POPC   PO4 4251   6.024   7.864   4.964  0.0414  0.1351 -0.1964
  309POPC   GL1 4252   6.209   7.741   5.429 -0.0217  0.0725 -0.0856
  309POPC   GL2 4253   6.479   7.911   5.518 -0.2437 -0.0569  0.0630
  309POPC   C1A 4254   6.219   7.498   5.780 -0.0627  0.0004 -0.2784
  309POPC   D2A 4255   6.229   7.504   6.319 -0.0327 -0.0557  0.1040
  309POPC   C3A 4256   5.704   7.523   6.313 -0.0779 -0.0533  0.3204
  309POPC   C4A 4257   5.369   7.458   6.570 -0.0539  0.0093 -0.0174
  309POPC   C1B 4258   6.687   7.643   5.712  0.0176  0.0027  0.1352
  309POPC   C2B 4259   6.715   7.655   6.171 -0.1000  0.0074 -0.2946
  309POPC   C3B 4260   6.640   7.455   6.585  0.0067 -0.0020 -0.2662
  309POPC   C4B 4261   6.893   7.174   6.912  0.3108  0.1182  0.1032
  310POPC   NC3 4262   5.779   9.962   4.967 -0.2429 -0.2278  0.2038
  310POPC   PO4 4263   5.585   9.777   5.323 -0.0283 -0.0997 -0.0073
  310POPC   GL1 4264   5.300   9.935   5.624 -0.0913  0.1822  0.0433
  310POPC   GL2 4265   5.294  10.221   5.885  0.2613  0.1579 -0.1616
  310POPC   C1A 4266   5.186   9.712   5.972 -0.2711  0.0597  0.2566
  310POPC   D2A 4267   4.969   9.646   6.280 -0.0161 -0.0631 -0.4466
  310POPC   C3A 4268   5.006   9.690   6.708  0.0307 -0.2432 -0.2003
  310POPC   C4A 4269   4.814   9.746   7.232 -0.3151  0.0059 -0.1957
  310POPC   C1B 4270   5.289  10.273   6.278  0.4494 -0.1074 -0.1884
  310POPC   C2B 4271   5.149  10.145   6.574 -0.1587 -0.2802  0.3101
  310POPC   C3B 4272   4.705  10.161   6.850 -0.1758  0.2356 -0.1258
  310POPC   C4B 4273   4.338  10.219   6.612  0.2829 -0.1364 -0.0174
  311POPC   NC3 4274   5.459   1.129   5.034  0.1427 -0.0079  0.3407
  311POPC   PO4 4275   5.148   0.858   5.056  0.0252 -0.0036  0.1821
  311POPC   GL1 4276   5.174   0.784   5.505 -0.1452 -0.0829 -0.1841
  311POPC   GL2 4277   4.871   0.751   5.628 -0.0952 -0.2679  0.0119
  311POPC   C1A 4278   5.376   0.513   5.851  0.3028  0.0155  0.3636
  311POPC   D2A 4279   5.569   0.460   6.254  0.3690 -0.2256 -0.3985
  311POPC   C3A 4280   5.828   0.632   6.627 -0.1272  0.0832  0.1634
  311POPC   C4A 4281   6.022   0.830   7.035 -0.2281  0.3295  0.1627
  311POPC   C1B 4282   4.732   1.119   5.880  0.4083 -0.0332  0.0876
  311POPC   C2B 4283   4.911   1.476   5.830 -0.3027  0.1323  0.0974
  311POPC   C3B 4284   4.790   1.960   6.005 -0.0024  0.1204 -0.0920
  311POPC   C4B 4285   4.421   2.108   6.189  0.1328  0.1541  0.2376
  312POPC   NC3 4286   6.165   8.358   5.355  0.2271  0.3361 -0.0296
  312POPC   PO4 4287   6.060   8.865   5.284 -0.0602  0.2320  0.2815
  312POPC   GL1 4288   6.015   8.590   5.733 -0.2162  0.1310 -0.4438
  312POPC   GL2 4289   5.674   8.535   5.796 -0.3204  0.0888  0.2534
  312POPC   C1A 4290   6.105   8.488   6.126  0.1812 -0.1745 -0.1702
  312POPC   D2A 4291   5.685   8.309   6.258 -0.1200 -0.1109  0.0557
  312POPC   C3A 4292   5.253   8.395   6.191  0.0127  0.3302  0.0614
  312POPC   C4A 4293   4.927   8.548   6.268 -0.0669 -0.5037  0.1036
  312POPC   C1B 4294   5.614   8.868   6.115  0.1568 -0.0077 -0.2164
  312POPC   C2B 4295   5.393   8.756   6.518 -0.0060  0.0218  0.1555
  312POPC   C3B 4296   5.340   8.787   6.970  0.0176  0.2079 -0.1792
  312POPC   C4B 4297   5.414   8.935   7.359  0.2586  0.0178  0.0904
  313POPC   NC3 4298   4.671   9.230   5.081 -0.3433 -0.1453  0.0586
  313POPC   PO4 4299   4.493   8.924   5.354  0.2994  0.0136 -0.1335
  313POPC   GL1 4300   4.653   8.882   5.681  0.3759 -0.1431 -0.1386
  313POPC   GL2 4301   4.799   9.139   5.813 -0.1696  0.1187 -0.2208
  313POPC   C1A 4302   4.578   8.841   6.091  0.0511 -0.1934 -0.2511
  313POPC   D2A 4303   4.597   8.861   6.492 -0.0951 -0.1840  0.3592
  313POPC   C3A 4304   4.940   8.639   6.770  0.2625 -0.2366 -0.2171
  313POPC   C4A 4305   4.978   8.252   7.015  0.2754  0.2320 -0.0339
  313POPC   C1B 4306   5.011   9.083   6.094  0.1814  0.3299 -0.3112
  313POPC   C2B 4307   4.983   9.198   6.650 -0.1658  0.2175 -0.1871
  313POPC   C3B 4308   4.699   9.339   6.963 -0.0985 -0.6548 -0.0837
  313POPC   C4B 4309   4.436   9.456   7.370  0.0726  0.0080 -0.3588
  314POPC   NC3 4310   9.591   3.942   5.391 -0.1745 -0.0570 -0.1209
  314POPC   PO4 4311   9.894   3.546   5.416  0.0973 -0.0885  0.2547
  314POPC   GL1 4312  10.052   3.261   5.679  0.1712 -0.1089 -0.0492
  314POPC   GL2 4313  10.328   3.279   5.812 -0.1055 -0.0181 -0.2679
  314POPC   C1A 4314  10.037   3.327   6.207  0.3312  0.2053  0.0912
  314POPC   D2A 4315  10.184   3.524   6.522 -0.0388 -0.0478 -0.2004
  314POPC   C3A 4316  10.168   3.654   6.960  0.0934  0.0361 -0.0026
  314POPC   C4A 4317  10.052   4.079   7.190 -0.2121  0.2451  0.2727
  314POPC   C1B 4318  10.539   3.549   6.089  0.1111  0.5937 -0.0250
  314POPC   C2B 4319  10.754   3.435   6.541  0.1561  0.1034  0.3104
  314POPC   C3B 4320  10.618   3.098   6.741 -0.1238 -0.1360  0.2069
  314POPC   C4B 4321  10.777   2.889   7.088 -0.0291  0.1413  0.1624
  315POPC   NC3 4322   5.198   2.444   4.950 -0.2606  0.2049  0.0808
  315POPC   PO4 4323   4.956   2.575   5.341 -0.0540  0.0115 -0.0046
  315POPC   GL1 4324   4.897   2.858   5.711 -0.0713 -0.0198 -0.1007
  315POPC   GL2 4325   4.986   3.116   5.731 -0.2968 -0.0032  0.3717
  315POPC   C1A 4326   4.919   2.887   6.183 -0.4797 -0.2552  0.0530
  315POPC   D2A 4327   4.888   2.674   6.609  0.1966  0.1419 -0.2797
  315POPC   C3A 4328   4.687   2.782   7.044 -0.0867 -0.3355  0.0686
  315POPC   C4A 4329   4.570   2.710   7.422 -0.2180 -0.3110  0.1409
  315POPC   C1B 4330   4.986   3.388   6.065 -0.1837 -0.0698 -0.3377
  315POPC   C2B 4331   5.105   3.709   6.463  0.0826 -0.1631 -0.2683
  315POPC   C3B 4332   4.941   4.077   6.755  0.0267 -0.0108  0.0391
  315POPC   C4B 4333   4.872   4.214   7.269 -0.2534 -0.2410 -0.0017
  316POPC   NC3 4334   9.618   2.656   4.992  0.0722  0.3261 -0.3553
  316POPC   PO4 4335   9.289   2.751   5.486  0.1352 -0.2002 -0.0355
  316POPC   GL1 4336   9.437   2.732   5.857 -0.0636 -0.5807  0.0843
  316POPC   GL2 4337   9.669   3.069   6.019 -0.0215  0.1285  0.3484
  316POPC   C1A 4338   9.206   2.943   6.254 -0.2800  0.1641 -0.2090
  316POPC   D2A 4339   9.340   2.808   6.633  0.1594  0.0413 -0.0334
  316POPC   C3A 4340   9.537   2.975   6.984 -0.1668  0.0153  0.3440
  316POPC   C4A 4341   9.391   3.203   7.391 -0.0582  0.0939 -0.1107
  316POPC   C1B 4342   9.732   2.946   6.414  0.0892  0.0159 -0.1557
  316POPC   C2B 4343   9.746   3.357   6.708 -0.3185 -0.0795  0.2317
  316POPC   C3B 4344   9.718   3.445   7.039  0.3253  0.1760  0.1336
  316POPC   C4B 4345   9.827   3.660   7.385 -0.2033 -0.1472 -0.1599
  317POPC   NC3 4346   8.744   2.219   5.038  0.1075  0.3734  0.2183
  317POPC   PO4 4347   9.074   2.254   5.377  0.1027  0.1941 -0.1995
  317POPC   GL1 4348   9.198   2.296   5.860 -0.1916 -0.1477  0.2110
  317POPC   GL2 4349   8.862   2.155   5.917 -0.2002 -0.0323  0.0621
  317POPC   C1A 4350   9.423   2.358   6.284 -0.3891  0.1411  0.1477
  317POPC   D2A 4351   9.598   2.199   6.710  0.0727 -0.2006  0.0841
  317POPC   C3A 4352   9.759   1.954   7.092 -0.3332  0.0915 -0.0285
  317POPC   C4A 4353  10.069   2.032   7.332 -0.2357 -0.1563  0.0088
  317POPC   C1B 4354   8.916   2.218   6.421 -0.0740 -0.1542 -0.3968
  317POPC   C2B 4355   8.667   2.150   6.769 -0.0375  0.0666 -0.2167
  317POPC   C3B 4356   8.342   1.920   6.950 -0.0089  0.2464  0.1967
  317POPC   C4B 4357   8.198   1.885   7.361  0.0320 -0.3283  0.1994
  318POPC   NC3 4358   3.208   6.982   5.078  0.0928 -0.2209 -0.0169
  318POPC   PO4 4359   3.640   6.971   5.213  0.1840 -0.0315 -0.0790
  318POPC   GL1 4360   3.211   7.091   5.558  0.0272 -0.2940 -0.0914
  318POPC   GL2 4361   2.944   7.227   5.567  0.0879 -0.4910 -0.1146
  318POPC   C1A 4362   3.089   7.080   5.983 -0.0942 -0.0405  0.2282
  318POPC   D2A 4363   2.913   7.361   6.310 -0.2073  0.3718  0.4854
  318POPC   C3A 4364   3.002   7.227   6.753 -0.2895  0.1220  0.0485
  318POPC   C4A 4365   3.027   7.250   7.176  0.0318 -0.1700 -0.3001
  318POPC   C1B 4366   2.750   7.505   5.839  0.0019 -0.0789  0.2175
  318POPC   C2B 4367   2.643   7.792   6.258 -0.0258 -0.0580 -0.0361
  318POPC   C3B 4368   2.616   8.108   6.552  0.3764 -0.1733  0.1839
  318POPC   C4B 4369   2.748   8.266   6.886  0.1103 -0.0486  0.1215
  319W        W 4370   8.431   7.312   2.403  0.4803 -0.2079  0.0844
  320W        W 4371   2.386   5.566   3.650 -0.1172 -0.1360 -0.0230
  321W        W 4372   6.455   3.083   0.851  0.0596  0.1699 -0.0611
  322W        W 4373   7.068   2.205   2.567 -0.0354 -0.1524 -0.0155
  323W        W 4374   7.644   0.258  13.175  0.0770  0.2254 -0.2390
  324W        W 4375   6.814   5.155   0.606 -0.1450 -0.3287 -0.3137
  325W        W 4376  10.056   6.527   0.298 -0.2834  0.0599 -0.0896
  326W        W 4377   7.953   6.661   9.747  0.3968 -0.0599 -0.1155
  327W        W 4378   6.318   5.839   0.404  0.1424  0.2236  0.0846
  328W        W 4379   3.890   5.538   4.977  0.0486  0.1338  0.1087
  329W        W 4380   3.368   9.144   3.018 -0.0259 -0.2393  0.1680
  330W        W 4381   7.828   9.617   9.997  0.4281  0.0005  0.1077
  331W        W 4382   5.874   4.075   2.347  0.2156 -0.1690 -0.0703
  332W        W 4383   1.883   8.718   9.995 -0.0986 -0.0007  0.1321
  333W        W 4384   6.378   0.899   3.011  0.1349 -0.1701  0.1299
  334W        W 4385   3.649   3.791  11.968 -0.0327  0.0523 -0.1301
  335W        W 4386   5.751   4.573  13.563  0.0035 -0.1672  0.0373
  336W        W 4387   1.681   1.551  10.542 -0.1690  0.0000 -0.0194
  337W        W 4388   1.190   0.902   0.998  0.0324  0.1739 -0.2264
  338W        W 4389   3.797   5.477   9.311 -0.2635 -0.0668 -0.1196
  339W        W 4390   9.570   9.089  13.078  0.4436  0.3514  0.3256
  340W        W 4391   6.157   8.820   1.052 -0.2483  0.2169  0.2830
  341W        W 4392   2.159   4.549  11.086  0.3865 -0.1948 -0.0252
  342W        W 4393   9.990   9.803  10.795 -0.0529 -0.2385  0.1085
  343W        W 4394   3.165  10.151  11.280 -0.1075  0.2476 -0.2807
  344W        W 4395   3.667   4.682  10.863 -0.3947 -0.1558 -0.4278
  345W        W 4396   9.807   6.246   2.170 -0.0804  0.2719  0.0900
  346W        W 4397   9.011   2.105   3.196 -0.2970 -0.0303 -0.0969
  347W        W 4398   5.078   4.146  12.282 -0.0483 -0.1235  0.0905
  348W        W 4399   0.018   6.444  11.004 -0.2824  0.3476  0.0280
  349W        W 4400   0.661   8.985   0.210  0.0225 -0.1117  0.2767
  350W        W 4401   6.939   7.537   0.484  0.1032  0.1688  0.0104
  351W        W 4402   3.182   8.124  12.528 -0.1248 -0.1472 -0.0349
  352W        W 4403   1.811   1.815   0.576  0.0117 -0.2875 -0.1196
  353W        W 4404   9.603   3.604   3.825  0.1521 -0.2026  0.0610
  354W        W 4405   6.115   5.545  13.227  0.0378  0.0698 -0.0924
  355W        W 4406   5.644   4.762   5.457 -0.2496  0.2653  0.0184
  356W        W 4407   5.078   2.952  10.558  0.0735 -0.3096 -0.0440
  357W        W 4408   6.900   6.105   4.644 -0.2031 -0.1364  0.0588
  358W        W 4409   0.908   0.448  13.890  0.0163 -0.1786  0.0443
  359W        W 4410   2.160   1.951   1.379  0.1307 -0.0122  0.0572
  360W        W 4411   9.439   0.946   4.009  0.2030  0.1173  0.1306
  361W        W 4412   1.320   9.733   2.301 -0.0205  0.4196 -0.0151
  362W        W 4413   9.962   8.971  10.984 -0.0575 -0.0070  0.3769
  363W        W 4414   5.069   1.416   4.831  0.1136 -0.3882 -0.3810
  364W        W 4415   6.850   1.249   2.192  0.0081 -0.0306 -0.1525
  365W        W 4416   0.376   2.661   1.312 -0.1117  0.0690 -0.4801
  366W        W 4417   6.748   0.826  11.621  0.1049  0.0870 -0.0536
  367W        W 4418   6.353   0.458   1.267 -0.5538 -0.0353  0.0288
  368W        W 4419   3.222   3.732   2.680 -0.2916  0.1594  0.0053
  369W        W 4420   1.338   8.458   1.985  0.3727  0.2371  0.1098
  370W        W 4421   5.258   2.223  11.637 -0.0144  0.0076 -0.0020
  371W        W 4422   7.773   0.579   0.781 -0.0383 -0.0536 -0.0857
  372W        W 4423   0.384   3.254   1.539  0.0926 -0.0755 -0.1929
  373W        W 4424   6.149   7.550   1.393  0.0164  0.0338  0.2185
  374W        W 4425   4.086   3.328   3.541  0.0795  0.2685 -0.2248
  375W        W 4426   2.071   6.818  13.854  0.0092  0.0928 -0.1908
  376W        W 4427  10.057   9.712   1.857  0.2926  0.3303 -0.2767
  377W        W 4428   1.748   3.436   9.332  0.0497 -0.0480  0.0392
  378W        W 4429   2.275   1.669   9.119  0.1105 -0.1671  0.3095
  379W        W 4430   1.641   3.498   0.381 -0.2728  0.3110 -0.0204
  380W        W 4431   6.493   7.980   1.420  0.1931 -0.0343  0.0813
  381W        W 4432   3.297   3.494   1.742 -0.1451  0.3178 -0.0253
  382W        W 4433   7.405   0.993  13.127 -0.0243  0.0058  0.1061
  383W        W 4434   8.829   8.664  12.227  0.0695  0.6279  0.2236
  384W        W 4435   7.638   0.373   9.056  0.0700 -0.3595 -0.3933
  385W        W 4436   6.392   9.409  12.728  0.0147 -0.0676 -0.0535
  386W        W 4437   9.248   2.964  11.798  0.3305 -0.0338 -0.1464
  387W        W 4438   9.409   1.926   2.197  0.0180  0.0940 -0.1897
  388W        W 4439   6.676   0.027   2.132 -0.1181 -0.2242  0.0347
  389W        W 4440   6.277   2.787  11.649  0.0966 -0.2193  0.1845
  390W        W 4441   4.284   2.352   3.760  0.1644 -0.0302 -0.2306
  391W        W 4442   1.782   3.232   4.619 -0.0343  0.2632  0.1565
  392W        W 4443   2.342   4.943  10.777  0.1121  0.1174 -0.0877
  393W        W 4444   7.360   1.093  10.871  0.1271 -0.0635  0.2405
  394W        W 4445   5.599   7.594  12.260 -0.2138  0.3618  0.0691
  395W        W 4446   5.736   6.225  13.501 -0.0380  0.0086 -0.4291
  396W        W 4447   9.228   4.729   4.205  0.2106 -0.0548 -0.0797
  397W        W 4448   9.630   2.698   0.131  0.1579 -0.1332 -0.4447
  398W        W 4449   3.165   3.989   4.013  0.1578 -0.2398  0.2298
  399W        W 4450   4.105   6.485  11.328  0.2139 -0.0334 -0.3066
  400W        W 4451   0.114   5.520   3.788 -0.2651 -0.4281  0.1571
  401W        W 4452   2.743   1.066   1.493 -0.0593 -0.0150  0.0677
  402W        W 4453   4.649   7.873   2.777  0.1263 -0.0160 -0.0243
  403W        W 4454   0.938   6.086  11.366  0.1563 -0.3094 -0.2275
  404W        W 4455   8.803   7.077   2.159  0.1116 -0.0858  0.2491
  405W        W 4456   8.873   9.441   1.101 -0.1409 -0.1537  0.2425
  406W        W 4457   6.543   8.090   0.683  0.2338  0.5935 -0.0923
  407W        W 4458   1.811   0.541   3.062 -0.0345 -0.3303 -0.0573
  408W        W 4459   8.173   7.976   1.448 -0.4075  0.1102 -0.2552
  409W        W 4460   2.720   9.156   3.520  0.0317  0.1689  0.1140
  410W        W 4461   2.901   6.732  12.465  0.2197 -0.2782  0.0423
  411W        W 4462   5.260   1.867   1.202 -0.0126 -0.0264  0.1522
  412W        W 4463   8.854   9.266   2.902  0.0144 -0.4603  0.0064
  413W        W 4464   4.170   5.291   9.740 -0.1347  0.3728  0.2220
  414W        W 4465   7.807   5.248   1.650  0.1577  0.1364 -0.0817
  415W        W 4466   6.189   5.312   3.281 -0.1075  0.0806 -0.1049
  416W        W 4467   7.002   7.534  12.040  0.1590  0.0070 -0.0228
  417W        W 4468   9.651   2.076  10.524 -0.0679  0.1722 -0.3886
  418W        W 4469   9.976   7.108  12.831  0.0752 -0.0534 -0.1512
  419W        W 4470   6.218   8.503   9.880 -0.3279 -0.2667 -0.0380
  420W        W 4471   2.838   4.630  13.248 -0.3397 -0.1863 -0.1575
  421W        W 4472   3.081   8.315  10.104 -0.1300 -0.1276 -0.1016
  422W        W 4473   5.256   9.289  11.508  0.1759 -0.0375  0.0440
  423W        W 4474   2.945   1.075   2.806  0.3350  0.0619 -0.2340
  424W        W 4475   7.291   7.855   4.648 -0.2134  0.0005 -0.1379
  425W        W 4476   8.856   8.938   3.487 -0.0106  0.1258 -0.0006
  426W        W 4477   1.401   8.528  13.613  0.3700  0.0362  0.0983
  427W        W 4478   9.052   8.188  12.712  0.0396 -0.1140  0.1283
  428W        W 4479   8.324   0.941   2.510 -0.0345 -0.3806 -0.0991
  429W        W 4480   4.629   8.257  12.863  0.1444  0.2861  0.0317
  430W        W 4481   9.634   8.226  12.220 -0.2905 -0.0607 -0.3819
  431W        W 4482   5.657   3.584   2.468  0.1738  0.1590  0.1382
  432W        W 4483   4.730   0.678  12.206  0.1271  0.1760  0.3833
  433W        W 4484   5.446   9.795  12.291  0.1425 -0.0278  0.1092
  434W        W 4485   0.840   6.270  13.358  0.4159 -0.1232  0.0652
  435W        W 4486   5.714   2.677   2.542  0.1243 -0.1212 -0.1036
  436W        W 4487   0.991   5.912   9.894 -0.2109  0.1142 -0.3129
  437W        W 4488   5.760   0.356  11.325  0.0267  0.1454  0.1548
  438W        W 4489   9.037   4.229  10.628 -0.1346  0.0992  0.2621
  439W        W 4490   5.636   1.559   1.321 -0.1591  0.1935 -0.1464
  440W        W 4491   7.395   4.844   1.109 -0.2764  0.0758 -0.0282
  441W        W 4492   2.165   8.285   2.658  0.0914 -0.0205 -0.1989
  442W        W 4493   2.264   7.500   2.344  0.0074  0.0273 -0.0664
  443W        W 4494   8.893   5.359  11.121  0.1027 -0.2200  0.0143
  444W        W 4495   0.203   3.174   3.151  0.0116  0.2095  0.0243
  445W        W 4496   4.576   5.939   9.774 -0.0855  0.1040 -0.0079
  446W        W 4497   3.694   6.534   4.223  0.1836  0.0864  0.2621
  447W        W 4498   6.348   8.151   4.199 -0.0793  0.0940  0.1933
  448W        W 4499   9.094   0.438  11.465  0.3017 -0.2018 -0.0226
  449W        W 4500   1.779   7.637  12.305 -0.4041  0.1613  0.1441
  450W        W 4501   0.329   8.026  12.682  0.0418  0.0494  0.0243
  451W        W 4502   9.073   7.012   2.604 -0.0144 -0.0314  0.3813
  452W        W 4503   4.495   9.675  11.037  0.2311  0.1284  0.2689
  453W        W 4504   2.011   5.676  13.794 -0.0490  0.1699 -0.2479
  454W        W 4505   7.308   2.713   4.029 -0.0189  0.1600 -0.0660
  455W        W 4506   6.864   7.046  12.109 -0.1338  0.1606 -0.1134
  456W        W 4507   9.979   5.659  11.342 -0.1543 -0.1150  0.0678
  457W        W 4508   7.805   7.564  12.214  0.1809  0.2112 -0.0925
  458W        W 4509   3.780   5.742   1.493 -0.0569  0.1525  0.1995
  459W        W 4510   5.183   9.000   4.953  0.0332 -0.3316 -0.2228
  460W        W 4511   6.865   4.867  11.202 -0.0365  0.3853 -0.3021
  461W        W 4512   6.256   1.723   3.463 -0.4383  0.0774 -0.0411
  462W        W 4513   8.964   1.800   5.510 -0.2274 -0.0372 -0.0374
  463W        W 4514   8.459   7.049   3.877 -0.1022  0.1102  0.1723
  464W        W 4515   8.254   4.561  13.007  0.1704 -0.4100 -0.0034
  465W        W 4516   5.252   4.222  12.757 -0.0639  0.3068  0.2131
  466W        W 4517   4.443   1.850   2.422 -0.0337  0.2109 -0.1016
  467W        W 4518   1.839   0.994   1.828  0.0223 -0.2297 -0.0222
  468W        W 4519   8.055   7.998  12.893  0.1158 -0.1201  0.1164
  469W        W 4520   2.355   1.508   8.636  0.3303 -0.0816 -0.4231
  470W        W 4521   8.892   2.710  10.537 -0.4099 -0.3430  0.1751
  471W        W 4522  10.085   3.953  12.882  0.2645 -0.0692 -0.0575
  472W        W 4523  10.013   8.089   0.348  0.1497 -0.0373  0.1367
  473W        W 4524   7.763   8.371   0.158  0.1844 -0.0015  0.3327
  474W        W 4525   6.120   1.736   1.582 -0.1605  0.0714 -0.2033
  475W        W 4526   8.531   6.390   2.740  0.0236  0.0726 -0.0910
  476W        W 4527   6.414   1.250   0.661 -0.1799 -0.0801 -0.2340
  477W        W 4528   7.990   1.369  10.250  0.0702  0.0731  0.0847
  478W        W 4529   7.687   8.632   3.988 -0.0815 -0.2728  0.1871
  479W        W 4530   8.959   2.708  10.013  0.2164 -0.2474  0.1090
  480W        W 4531   3.610   4.168   3.840  0.1998 -0.4579  0.1775
  481W        W 4532   5.213   7.184   1.299 -0.0358  0.0096  0.0352
  482W        W 4533   1.380   9.675   0.571 -0.0835  0.3217 -0.0290
  483W        W 4534   1.614   0.093  11.763 -0.4051 -0.1729 -0.2020
  484W        W 4535   8.203   2.674   5.177 -0.3535 -0.1628  0.0074
  485W        W 4536   2.888   4.421   9.609  0.1225 -0.0042 -0.0257
  486W        W 4537   5.427  10.193   2.627  0.1085  0.0267 -0.2389
  487W        W 4538   2.566   2.991   5.007  0.0601  0.0161  0.1473
  488W        W 4539   0.032   9.147   3.081 -0.1207 -0.3178  0.1111
  489W        W 4540   0.686   2.139   0.934  0.0849  0.2330 -0.0424
  490W        W 4541   2.814   6.057  11.451  0.3765  0.0891  0.0104
  491W        W 4542   0.228  10.101   1.001  0.3720 -0.2413  0.0568
  492W        W 4543   3.467   5.128  10.430  0.0420  0.1712  0.1616
  493W        W 4544   5.855   1.087   0.003 -0.3142 -0.1097  0.0286
  494W        W 4545   5.053   3.667   0.152  0.2831  0.3508  0.1597
  495W        W 4546   8.509   4.312   2.503  0.0436  0.2560  0.1255
  496W        W 4547   9.300   4.211  13.894  0.0658  0.0563  0.1836
  497W        W 4548   0.279   6.859  11.193 -0.0759 -0.1802 -0.2416
  498W        W 4549   6.289   7.798   1.997 -0.2856 -0.2567  0.1462
  499W        W 4550   6.825   5.629   1.132 -0.3518 -0.0474  0.2809
  500W        W 4551   4.199   6.301   9.052 -0.1506 -0.0224 -0.0792
  501W        W 4552   5.864   8.846  10.123  0.1528  0.0363 -0.0889
  502W        W 4553   1.149   0.294  11.931 -0.3990  0.0525 -0.2348
  503W        W 4554   6.488   2.817   0.093  0.1540  0.2280  0.0700
  504W        W 4555   8.310   9.868   0.069  0.0580 -0.0857 -0.0522
  505W        W 4556   7.205   5.544  11.989 -0.1080  0.0789 -0.1301
  506W        W 4557   0.770   5.292   0.939 -0.3072 -0.0126 -0.0006
  507W        W 4558   7.076   1.234  11.682 -0.1038 -0.1496  0.0714
  508W        W 4559   9.256   9.974  12.306  0.0314  0.0855 -0.2027
  509W        W 4560   8.683   0.171   3.151 -0.1887 -0.3758  0.1353
  510W        W 4561   2.652   7.257  13.237  0.0754 -0.1357  0.1636
  511W        W 4562   2.923   4.895  11.628 -0.2049 -0.0510 -0.0603
  512W        W 4563   2.398   1.482   2.193  0.1276 -0.0542 -0.1315
  513W        W 4564   1.455   4.076  10.611 -0.0088  0.0479 -0.0249
  514W        W 4565   5.171   2.994   0.292 -0.1873  0.0245  0.1244
  515W        W 4566   6.876   3.054  13.813  0.0264 -0.3935 -0.1346
  516W        W 4567   5.348   1.982   3.599  0.0465 -0.1319 -0.0728
  517W        W 4568   3.727   1.402   4.834 -0.4621 -0.1801  0.4703
  518W        W 4569   6.703   9.648   3.798 -0.0708  0.3325 -0.0819
  519W        W 4570   2.161  10.148   3.911  0.2985  0.0587 -0.1735
  520W        W 4571   7.282   6.364   4.461 -0.1954 -0.3353  0.1151
  521W        W 4572   4.438   4.463   9.472 -0.0001 -0.0189 -0.0989
  522W        W 4573   7.388   2.272  10.974 -0.2925 -0.1259  0.2059
  523W        W 4574   0.920   7.660   1.147  0.0835 -0.2034  0.0091
  524W        W 4575   3.760   0.976   1.149 -0.0033 -0.4197 -0.1635
  525W        W 4576   3.789   7.838  10.449  0.0742 -0.4835  0.0562
  526W        W 4577   5.971   2.099  12.946  0.1092  0.0971 -0.0418
  527W        W 4578   0.291   2.971  12.344  0.0706  0.2623 -0.0037
  528W        W 4579   9.990   8.818  13.580  0.0460  0.0428  0.0693
  529W        W 4580   2.553   3.402  11.008  0.3499  0.1352 -0.3169
  530W        W 4581   1.189   4.211   2.340 -0.2993 -0.1897  0.0227
  531W        W 4582  10.165   0.643   2.606 -0.3157 -0.0647 -0.0872
  532W        W 4583   7.100   7.674  11.419 -0.1922  0.1031  0.1793
  533W        W 4584  10.105   4.736   4.589 -0.1636 -0.0375  0.3311
  534W        W 4585   3.224   2.177   2.255  0.2547  0.2883  0.0551
  535W        W 4586   3.158   6.576  10.335  0.0912  0.1273  0.2474
  536W        W 4587   9.606   7.072  13.223  0.1953  0.0187  0.0068
  537W        W 4588   4.954   0.238   9.852 -0.1234 -0.2064 -0.1678
  538W        W 4589   7.968   0.073   3.221  0.2037 -0.4201  0.0534
  539W        W 4590   8.611   1.552   1.808  0.1676 -0.3456  0.1461
  540W        W 4591   8.369   3.401  13.347 -0.2568 -0.0949  0.1059
  541W        W 4592   7.515   2.016   0.360 -0.0999 -0.0486  0.0668
  542W        W 4593   4.232   7.997   0.593 -0.1734  0.0978  0.0278
  543W        W 4594   0.486   9.689   0.255 -0.0777 -0.0379  0.0478
  544W        W 4595   3.718  10.003  12.336  0.0038 -0.1224  0.2375
  545W        W 4596   2.927   6.292   3.985 -0.1894 -0.2078  0.1824
  546W        W 4597   0.687   3.895  12.088  0.2491  0.1705  0.3230
  547W        W 4598   0.245   7.827  10.674 -0.1474 -0.2088 -0.1931
  548W        W 4599   7.282   7.496   2.786  0.1091 -0.1733 -0.0198
  549W        W 4600   9.703   0.151   1.494 -0.1576  0.1531  0.2922
  550W        W 4601   4.514   5.683  11.820  0.2715  0.1952 -0.1283
  551W        W 4602   5.397   6.783   1.581  0.0110 -0.1511 -0.1108
  552W        W 4603   4.616   2.470   2.957  0.5503  0.1965  0.1500
  553W        W 4604   5.198   6.061   3.146  0.2541  0.0364 -0.0743
  554W        W 4605   5.099   4.962  12.109  0.3801 -0.0273 -0.0627
  555W        W 4606   8.216   7.736   0.593 -0.3042 -0.4229 -0.2238
  556W        W 4607   6.701   6.057  10.591 -0.2171 -0.3569  0.3557
  557W        W 4608   0.776   3.222   8.542  0.0801  0.2457 -0.1878
  558W        W 4609   4.698   2.675   8.936  0.1778  0.0907  0.0015
  559W        W 4610   2.840   0.275  11.060 -0.2214 -0.0500 -0.2711
  560W        W 4611   5.190   5.587   1.837  0.0381  0.3439 -0.1272
  561W        W 4612   0.867   2.790   4.481 -0.2729 -0.0439  0.0924
  562W        W 4613   8.223   4.420  11.265  0.1040  0.1221  0.0943
  563W        W 4614   4.576   3.989   9.562 -0.3828 -0.0745 -0.1572
  564W        W 4615   6.250   9.046   4.095  0.2015  0.0571 -0.2878
  565W        W 4616   4.620   0.312   2.554 -0.0114 -0.0179 -0.0440
  566W        W 4617   0.989   9.843  11.037  0.0348  0.0482  0.2162
  567W        W 4618   2.677   7.430   4.172  0.0209 -0.1976  0.0398
  568W        W 4619   1.744   1.621   5.229  0.0035  0.0221 -0.1531
  569W        W 4620   0.646   0.149  11.237  0.2425 -0.0231 -0.1249
  570W        W 4621   8.993   1.275   0.841  0.0673  0.1538  0.0218
  571W        W 4622   6.050   1.400   1.071  0.2511 -0.2407  0.3449
  572W        W 4623   0.936   2.508  12.871  0.1069 -0.2018 -0.4564
  573W        W 4624   1.754   4.171   3.602  0.2291  0.0374  0.1525
  574W        W 4625   2.730   1.189   8.600 -0.0582  0.0575 -0.0080
  575W        W 4626   3.175   4.124   4.517  0.1765 -0.1810  0.1575
  576W        W 4627   7.630   0.098  10.889 -0.1631  0.2945  0.4915
  577W        W 4628   3.237   6.029   3.493 -0.1172 -0.1006  0.2162
  578W        W 4629   8.653   2.870  11.046 -0.3081  0.2354  0.2723
  579W        W 4630   5.463   4.775   3.546 -0.2505  0.1683 -0.0749
  580W        W 4631   1.288   3.865   0.198  0.5822 -0.1737 -0.0059
  581W        W 4632   3.087   7.202  12.245 -0.0897 -0.2561  0.0010
  582W        W 4633   4.708   3.445   3.334  0.1264  0.1542  0.4258
  583W        W 4634   9.285   0.334  10.477 -0.0374  0.1853 -0.2559
  584W        W 4635   4.073   4.301   3.842  0.0073  0.1332  0.2478
  585W        W 4636   5.671  10.159  12.509 -0.1072  0.1751  0.2339
  586W        W 4637   1.898   7.929   0.702  0.0659  0.1377  0.2104
  587W        W 4638   6.766   5.447  12.100 -0.0660  0.0271  0.1384
  588W        W 4639   5.588   8.104  11.032  0.0015  0.2370 -0.5188
  589W        W 4640   1.515   4.569  11.339  0.4145  0.3691  0.0662
  590W        W 4641   1.210   6.106   9.470 -0.0208 -0.4421  0.1291
  591W        W 4642   2.878   5.676   4.713 -0.0178 -0.0618 -0.4448
  592W        W 4643   2.281   0.179  13.831 -0.1419  0.0574  0.0484
  593W        W 4644   0.733   2.804  11.147 -0.0814 -0.1162 -0.0553
  594W        W 4645   4.533   6.386   3.847  0.1290 -0.1829  0.0037
  595W        W 4646   3.455   1.389   1.132 -0.3501  0.6544  0.1113
  596W        W 4647   9.752   5.640  10.768  0.0224 -0.0420  0.0709
  597W        W 4648   0.042   4.388  12.110 -0.4358  0.2118  0.2828
  598W        W 4649   5.803   8.457   0.980  0.1561 -0.2959 -0.0465
  599W        W 4650   8.186   1.723  13.813 -0.1292  0.0972 -0.0187
  600W        W 4651   3.189   2.265   4.931  0.2094  0.2169  0.1969
  601W        W 4652   3.297   1.225   3.859  0.0280  0.0161 -0.0314
  602W        W 4653   2.163   8.896  12.763  0.2947  0.1342  0.0507
  603W        W 4654   8.422   1.985   4.749 -0.0508  0.1063  0.0370
  604W        W 4655   6.511   2.727  10.064  0.0937  0.2325  0.0670
  605W        W 4656   1.765   9.885   3.592  0.3812 -0.2525  0.0921
  606W        W 4657   9.369   9.393   2.307 -0.0384  0.2464  0.1660
  607W        W 4658   2.889   0.683  12.977  0.0650  0.3179 -0.1028
  608W        W 4659   5.018   7.313  10.833  0.1380  0.1054  0.2256
  609W        W 4660   4.684   3.542   9.777  0.1872 -0.3184  0.1966
  610W        W 4661   0.573   7.388   9.593 -0.2287 -0.0215  0.0489
  611W        W 4662   5.590   6.981   3.670 -0.1466 -0.2363 -0.0829
  612W        W 4663   3.835   6.752   9.355  0.1320 -0.2444  0.2608
  613W        W 4664   7.155   3.468   1.092 -0.1153 -0.1227  0.1328
  614W        W 4665   7.271   0.875  11.364 -0.0807  0.1791 -0.2507
  615W        W 4666   5.093   8.662  10.477 -0.3070 -0.0040 -0.2307
  616W        W 4667   8.580   7.790   2.318 -0.0939 -0.0889 -0.2169
  617W        W 4668   2.746   5.943   3.563 -0.0729  0.0530 -0.1537
  618W        W 4669   0.487   2.833  13.227 -0.0464  0.2179 -0.2750
  619W        W 4670   4.612   0.578   3.032 -0.0581  0.1364  0.2364
  620W        W 4671   8.748   2.628  13.025 -0.0641 -0.2106 -0.2617
  621W        W 4672   8.834   3.512   5.045 -0.2267 -0.3670 -0.0449
  622W        W 4673   7.339   0.873   5.521  0.0874  0.0436 -0.0422
  623W        W 4674   8.863   0.774   8.788  0.2195 -0.0315 -0.0140
  624W        W 4675   8.145   7.280  13.322  0.0177 -0.1299  0.0575
  625W        W 4676   0.639   8.453  10.384 -0.1256  0.1864  0.1167
  626W        W 4677   1.974   9.462   0.990 -0.3687 -0.4051  0.5000
  627W        W 4678   2.088   9.199  13.190  0.0953  0.3233 -0.2407
  628W        W 4679   2.231   7.733   3.388  0.0316  0.2005  0.2119
  629W        W 4680   0.372   9.053  11.133 -0.0450 -0.0606  0.1737
  630W        W 4681   5.529   5.384   2.230  0.2388  0.1081 -0.1727
  631W        W 4682   6.819   7.563   3.930  0.3307  0.0216  0.1922
  632W        W 4683   8.535   8.957  13.022  0.2696  0.0192  0.0499
  633W        W 4684   9.139   1.859   1.080 -0.0405 -0.0298 -0.2389
  634W        W 4685   6.437   5.017   3.968 -0.2218 -0.0323 -0.0388
  635W        W 4686   7.708   9.742  10.895 -0.0680  0.2352  0.2729
  636W        W 4687   6.364   7.155  11.025  0.4104  0.0798  0.0314
  637W        W 4688   3.656   2.783  10.423 -0.1559  0.2171 -0.4171
  638W        W 4689   9.616   3.703   3.082  0.0485  0.0689 -0.0969
  639W        W 4690   0.623   6.796   0.237  0.1437  0.0198  0.1164
  640W        W 4691   8.481   3.689   3.725  0.0437 -0.1452  0.0280
  641W        W 4692   5.482   9.299  13.692 -0.1307 -0.1476  0.2988
  642W        W 4693   4.568   3.898  11.649 -0.0961  0.1266 -0.2279
  643W        W 4694   8.503   0.348  10.920  0.0178 -0.2825 -0.1880
  644W        W 4695   6.164   5.999  13.412  0.0294 -0.1052 -0.2647
  645W        W 4696   8.800   7.608   3.308 -0.0973 -0.2006 -0.1382
  646W        W 4697   9.060   2.459  13.435 -0.0542  0.0838 -0.3170
  647W        W 4698   5.482   2.792  11.753 -0.0857  0.2120 -0.1964
  648W        W 4699   6.863   1.563   9.660 -0.0894 -0.1760  0.2604
  649W        W 4700   3.711   1.125   2.682  0.2193 -0.3075 -0.0816
  650W        W 4701   1.095   3.880  13.070  0.1103  0.0481 -0.2387
  651W        W 4702   2.065   7.130   4.238  0.0011  0.0743  0.1113
  652W        W 4703   6.800   3.026   2.779 -0.0271 -0.1180 -0.0039
  653W        W 4704   7.593   4.154  10.047 -0.0432 -0.0007  0.0147
  654W        W 4705   3.619   8.384  12.441 -0.0857  0.0422  0.3431
  655W        W 4706   5.754   5.890   1.134  0.2111 -0.2407  0.3470
  656W        W 4707   3.628   4.989   3.311 -0.0291 -0.0938 -0.6280
  657W        W 4708   3.972   0.386  10.370 -0.0844 -0.1955 -0.0746
  658W        W 4709   9.859   6.044  12.612  0.0614 -0.0254 -0.3337
  659W        W 4710   6.496   8.599   2.941  0.1922 -0.2768 -0.2029
  660W        W 4711   6.889   2.010  11.535 -0.3529 -0.1991  0.2661
  661W        W 4712   3.257   0.107   0.604  0.1030 -0.0358 -0.2480
  662W        W 4713   3.580   2.266  12.570 -0.0125 -0.1700  0.0382
  663W        W 4714   2.129   4.694   2.949 -0.1332 -0.0554  0.0256
  664W        W 4715   6.480   1.776   0.344  0.1436  0.0994 -0.1201
  665W        W 4716   4.127   5.699  12.727  0.2949 -0.1379  0.4193
  666W        W 4717   1.781   7.870   3.453 -0.0467  0.6104 -0.1032
  667W        W 4718   0.689   5.722   3.192 -0.1332  0.0631  0.1068
  668W        W 4719   5.581   6.846  13.776 -0.2059 -0.2518  0.0275
  669W        W 4720   9.790   4.415   1.060 -0.1801  0.2571  0.3302
  670W        W 4721   0.649   6.202   9.610 -0.0628  0.0782 -0.0737
  671W        W 4722   4.961   1.840   2.332  0.0643  0.2835  0.2842
  672W        W 4723   8.702   8.303   2.701 -0.0147 -0.0839 -0.1352
  673W        W 4724   8.482   8.959   1.034  0.0424 -0.0918  0.0311
  674W        W 4725   0.503   3.000   9.874 -0.1508 -0.0678 -0.0584
  675W        W 4726   4.951   8.600  12.634  0.1251  0.0922  0.0098
  676W        W 4727  10.117   3.837  11.562  0.0637 -0.3543 -0.0116
  677W        W 4728   7.470   6.682   4.030 -0.0625 -0.2214 -0.0140
  678W        W 4729   5.483   7.222   0.825 -0.3877 -0.2257 -0.1796
  679W        W 4730   7.259   4.490   3.604 -0.2596 -0.0496  0.0426
  680W        W 4731  10.000   2.619   2.957 -0.0939  0.1839  0.2960
  681W        W 4732   2.204   1.897   3.617  0.2300  0.1192  0.2006
  682W        W 4733   0.962   0.956  12.617 -0.1711  0.0319  0.3067
  683W        W 4734   8.276   4.754   3.817  0.0223  0.4918  0.1399
  684W        W 4735   8.514  10.100  13.572  0.1762 -0.0332  0.1127
  685W        W 4736   1.211   0.965   9.767  0.1320 -0.0951  0.6481
  686W        W 4737   4.323   3.282   3.022 -0.3310 -0.0503  0.1006
  687W        W 4738   3.680   7.852   4.814 -0.0771 -0.0163  0.0200
  688W        W 4739   4.776   7.335   1.216 -0.2008 -0.1816 -0.1941
  689W        W 4740  10.002   3.828   2.297  0.2054  0.0572 -0.4443
  690W        W 4741   3.627   4.202  11.673 -0.2521  0.0378 -0.1633
  691W        W 4742  10.097   5.582   8.935  0.1669 -0.1425  0.0277
  692W        W 4743   3.527   1.836  11.838  0.1349  0.0792 -0.2079
  693W        W 4744   4.119   9.661  11.541 -0.0560 -0.1641 -0.0128
  694W        W 4745   4.905   8.802   2.835 -0.0870  0.3722  0.1248
  695W        W 4746   7.227   5.127   2.453 -0.1096 -0.4155 -0.0304
  696W        W 4747   2.260   6.526   2.810  0.1896 -0.2092  0.2599
  697W        W 4748   2.258   7.341  13.543 -0.1713  0.2424  0.2284
  698W        W 4749   7.460   4.758   4.465  0.2373 -0.0572 -0.3250
  699W        W 4750   3.883   2.700   1.609 -0.4916  0.3239 -0.2653
  700W        W 4751   0.298   2.581   3.145  0.1452 -0.0682 -0.1528
  701W        W 4752   6.781   8.441  11.149 -0.4218  0.0098  0.0640
  702W        W 4753   6.811   1.707   2.877  0.2301 -0.0154  0.0012
  703W        W 4754   7.513   3.427   9.576 -0.0067  0.0945  0.2681
  704W        W 4755   4.805   6.621   1.946 -0.0293  0.0329 -0.0070
  705W        W 4756   6.425   7.655  12.880  0.1630 -0.0886 -0.0517
  706W        W 4757   0.609   8.092   2.661  0.0967 -0.0711 -0.0098
  707W        W 4758   4.335   8.194  11.541 -0.3115 -0.1722 -0.2147
  708W        W 4759   1.139   0.165  11.028 -0.1551  0.0282 -0.1009
  709W        W 4760   4.821   9.588   2.959 -0.3530 -0.1648  0.2248
  710W        W 4761   8.225   2.824  12.474 -0.4465 -0.1431  0.4295
  711W        W 4762   7.895   4.762   0.319 -0.1639  0.0814  0.0910
  712W        W 4763   2.539   7.118   3.855 -0.2417  0.1766  0.0595
  713W        W 4764   4.732   3.257  12.841  0.1189 -0.2123  0.1688
  714W        W 4765   1.987   7.934  12.701 -0.3363 -0.3095 -0.2205
  715W        W 4766   3.636   7.872   5.277  0.0111 -0.1475  0.1628
  716W        W 4767   8.695   2.664   0.629  0.1839 -0.1196 -0.1301
  717W        W 4768   8.256   4.900  11.663  0.0490 -0.3176  0.1830
  718W        W 4769   5.721   9.811   2.894 -0.3329 -0.4041 -0.0397
  719W        W 4770   0.091   8.483  12.431  0.0014  0.0960 -0.0010
  720W        W 4771   7.028   0.359   3.680  0.1154  0.2434 -0.0806
  721W        W 4772   5.566   1.860  12.216  0.0802  0.0309  0.4260
  722W        W 4773   2.971   4.114   1.084  0.0871 -0.0650  0.0518
  723W        W 4774   6.198   2.643   5.242  0.1029  0.0561 -0.0246
  724W        W 4775   5.702   3.768   5.178  0.0054  0.0432 -0.0969
  725W        W 4776   3.039   6.824  10.793  0.1306 -0.3136  0.2448
  726W        W 4777   9.174   5.316   3.155 -0.0634  0.1414 -0.0782
  727W        W 4778   4.688   0.209  11.819  0.0351  0.0309 -0.0217
  728W        W 4779   4.189   4.172   4.745 -0.3428  0.0708 -0.3769
  729W        W 4780   6.850   1.137   9.942 -0.2065  0.0167  0.0755
  730W        W 4781   4.170   9.151   1.021 -0.2364 -0.0683  0.1108
  731W        W 4782   5.639   5.247   4.488  0.1157 -0.2377  0.3965
  732W        W 4783   2.880   5.042  13.640 -0.1114 -0.0233  0.2777
  733W        W 4784   0.636   0.200  11.869  0.2039  0.0072 -0.0648
  734W        W 4785   3.684   9.835  11.910 -0.0421  0.2799  0.0352
  735W        W 4786  10.160   9.488  12.809  0.1613 -0.0909  0.0754
  736W        W 4787   9.543   4.758   4.607  0.1678  0.0121 -0.3770
  737W        W 4788   6.312   3.390  13.342  0.1394  0.0466 -0.0379
  738W        W 4789   0.598   8.495   0.002  0.1735 -0.1124 -0.2515
  739W        W 4790   2.431   4.914  13.459 -0.1578 -0.2187  0.0040
  740W        W 4791   5.869   4.213  12.756  0.0185  0.0508 -0.0899
  741W        W 4792   4.126   5.808   9.472  0.1806  0.1207 -0.0606
  742W        W 4793  10.097   1.917  10.854  0.2287 -0.2689  0.4215
  743W        W 4794   8.584   0.245  11.451  0.1286 -0.1486  0.1067
  744W        W 4795   3.176   4.724   0.025 -0.1247  0.3874  0.0956
  745W        W 4796   3.226   4.243  10.024  0.3612  0.0255  0.4360
  746W        W 4797   6.907   0.837   1.944 -0.0612  0.2598 -0.1799
  747W        W 4798   9.306   2.703   1.613 -0.1287  0.1128 -0.0176
  748W        W 4799   7.669   6.426  11.923 -0.1876  0.1730 -0.5116
  749W        W 4800   1.341   2.443   0.087  0.2214 -0.0003  0.2730
  750W        W 4801   1.189   4.337  10.287  0.0477  0.1586 -0.0083
  751W        W 4802   7.036   2.602   1.483  0.2104  0.2184 -0.0081
  752W        W 4803   5.337   1.112   9.428 -0.1215  0.0408 -0.0638
  753W        W 4804   3.931  10.142  13.324  0.1982 -0.0391 -0.2385
  754W        W 4805   3.807   3.108  10.823  0.5663 -0.1535 -0.1396
  755W        W 4806   9.924   7.501   3.357  0.2372  0.2493 -0.1083
  756W        W 4807   5.739   7.120  10.545  0.2423  0.0549 -0.1590
  757W        W 4808   5.144   9.588  10.744  0.0969  0.0911 -0.0124
  758W        W 4809   5.911   9.354  12.929 -0.0913  0.1347  0.1844
  759W        W 4810   4.369   5.343  12.585  0.2121  0.3046  0.0254
  760W        W 4811   2.945   9.061  10.494  0.2050 -0.1656  0.1463
  761W        W 4812   2.194   0.130   1.379  0.2738  0.2682 -0.2493
  762W        W 4813   5.965   5.985  10.957 -0.1870  0.0440  0.2962
  763W        W 4814   6.175   3.389   1.171 -0.1273 -0.3893  0.0110
  764W        W 4815   8.331   1.052   2.013 -0.2720  0.1535 -0.2397
  765W        W 4816   7.861   4.032  11.473  0.1484 -0.2693  0.3301
  766W        W 4817   7.274   3.254   4.098 -0.0075  0.1635  0.5515
  767W        W 4818   7.826   7.052  13.008 -0.1421  0.2612  0.0091
  768W        W 4819   6.424   4.918   2.183 -0.1950 -0.3098 -0.3810
  769W        W 4820   8.013   7.094   2.116 -0.1458  0.0710  0.3164
  770W        W 4821   8.859   6.567   2.340  0.2544 -0.4323  0.2277
  771W        W 4822   8.627   2.465  13.683 -0.0706  0.0948 -0.0216
  772W        W 4823   4.156   6.814   9.700 -0.2674 -0.0187  0.2543
  773W        W 4824   1.823   7.983  11.892 -0.1058  0.0694 -0.1444
  774W        W 4825   0.436   8.022   2.148  0.2415 -0.0855 -0.1144
  775W        W 4826   9.236   5.055   3.864  0.0490  0.1175  0.0205
  776W        W 4827   3.765   8.090   4.190 -0.1370 -0.2508 -0.0281
  777W        W 4828   2.315   8.292  13.864 -0.0224  0.0660 -0.0623
  778W        W 4829   7.998   9.890   0.982 -0.1135  0.0036 -0.1730
  779W        W 4830   3.765   3.885   0.635  0.1055 -0.0038 -0.2585
  780W        W 4831   7.569   4.351  11.177 -0.0446 -0.2118 -0.2794
  781W        W 4832   0.320   9.889  11.840 -0.4656 -0.3337  0.0251
  782W        W 4833   2.975   0.042   3.582  0.3136 -0.0441  0.4114
  783W        W 4834   1.016   3.524  13.868  0.1021  0.2954 -0.1477
  784W        W 4835   8.155   0.899  10.045  0.1108 -0.2274  0.0803
  785W        W 4836   2.473   5.728   9.843  0.2561  0.3002  0.1506
  786W        W 4837   5.707   8.118  11.572 -0.0534  0.2462 -0.0684
  787W        W 4838   4.873  10.196   1.620 -0.0455  0.2832 -0.1439
  788W        W 4839   6.623   9.197   1.805  0.0264 -0.4805 -0.0379
  789W        W 4840   2.927   4.673  12.082  0.0587 -0.0549 -0.1321
  790W        W 4841   1.626   1.406   0.959 -0.4916  0.2033  0.1505
  791W        W 4842   4.157   0.663   9.888  0.0944 -0.2780  0.1668
  792W        W 4843   8.082   0.436   0.114 -0.2382 -0.0592 -0.0067
  793W        W 4844   3.600   2.726   2.867 -0.0733  0.3935  0.0685
  794W        W 4845   5.714   1.556  10.108  0.1341  0.0931  0.1959
  795W        W 4846   2.083   1.374  10.166 -0.2077  0.2918 -0.0529
  796W        W 4847   3.586   1.563   3.620 -0.2640  0.0300  0.1294
  797W        W 4848   3.269   6.614   0.418  0.0742  0.0088  0.0022
  798W        W 4849   5.487   9.380   1.107  0.1731  0.1806  0.1246
  799W        W 4850   5.889   2.486  11.710  0.0605 -0.0148 -0.1404
  800W        W 4851   7.591   0.046   3.791  0.4180  0.1272 -0.1166
  801W        W 4852   7.886   1.301   3.100 -0.0748  0.0715 -0.2753
  802W        W 4853   6.158   7.138   4.141  0.1236 -0.3330 -0.1871
  803W        W 4854   3.324   4.440   4.154 -0.3053 -0.1269  0.4548
  804W        W 4855   9.687   3.554   5.905  0.1611 -0.0158  0.1779
  805W        W 4856   5.408   0.991   3.609  0.0969  0.2159  0.2218
  806W        W 4857   9.963   7.464  13.259  0.2737 -0.0195 -0.2478
  807W        W 4858   5.417   6.569   9.665 -0.1494 -0.2896 -0.1013
  808W        W 4859   7.960   5.718   1.637  0.0776 -0.2118 -0.5860
  809W        W 4860   4.260   2.482  11.547 -0.3129  0.1361 -0.1178
  810W        W 4861   6.268   3.865   9.265 -0.1598 -0.0503  0.2127
  811W        W 4862   3.138   3.096   2.016  0.1761  0.0146 -0.0853
  812W        W 4863   2.031   4.335   9.991 -0.1396  0.0054 -0.1823
  813W        W 4864   7.337   6.605  10.996  0.3329  0.1480 -0.0613
  814W        W 4865   3.634   8.519   0.368 -0.3292  0.0882  0.1020
  815W        W 4866   2.521   9.501  10.553 -0.1315 -0.0504  0.0468
  816W        W 4867   6.628   9.031  12.459 -0.3072 -0.0228 -0.0052
  817W        W 4868   7.349   7.752  13.111  0.0764  0.0242  0.1916
  818W        W 4869   4.305   5.181  10.294 -0.3420  0.2509  0.0090
  819W        W 4870   2.121   4.618   4.261  0.1795  0.3224 -0.0314
  820W        W 4871   8.589   9.395  12.802 -0.1067 -0.1913  0.1011
  821W        W 4872   4.816   0.608   0.460 -0.1096 -0.2137  0.0660
  822W        W 4873   0.285   1.947   1.281  0.2073  0.0293 -0.0348
  823W        W 4874   5.198   8.179  13.041 -0.0225  0.3020  0.0856
  824W        W 4875   2.967   0.694  12.503 -0.0556  0.3838  0.0283
  825W        W 4876   3.125   8.791   1.035 -0.0928  0.1237  0.0088
  826W        W 4877   5.829   3.276   4.523 -0.2273  0.0915 -0.3123
  827W        W 4878  10.179   7.616  12.780 -0.0072 -0.1496  0.1887
  828W        W 4879   2.480   0.351  13.219 -0.1494 -0.0954  0.3131
  829W        W 4880   6.004   5.958   1.523 -0.2248 -0.1653 -0.1704
  830W        W 4881   9.946   5.764   1.389  0.2993 -0.0323 -0.0189
  831W        W 4882   1.262   3.198   2.387 -0.2584  0.0197  0.0240
  832W        W 4883   6.154   7.454  11.391  0.1638 -0.1020 -0.2038
  833W        W 4884   6.191   1.874   2.042  0.3361  0.2749 -0.1539
  834W        W 4885   4.226   5.418   1.770  0.1772 -0.2346  0.1843
  835W        W 4886   5.321   1.745  11.790 -0.2190 -0.0028  0.1760
  836W        W 4887   1.658   7.623  12.932 -0.1380  0.1925  0.3403
  837W        W 4888   2.655   0.517   9.134 -0.2350  0.1565 -0.0881
  838W        W 4889   8.723   3.262  11.842 -0.1199  0.0905  0.2913
  839W        W 4890   2.376   9.683   0.261  0.0087  0.2641  0.0103
  840W        W 4891   7.439  10.176   2.910 -0.4308 -0.2836  0.0065
  841W        W 4892   6.488   6.850   4.338 -0.2079  0.0473 -0.2690
  842W        W 4893   4.471  10.034   0.519  0.1188 -0.0338  0.0229
  843W        W 4894   1.944   4.169  11.396  0.0487 -0.2293 -0.0271
  844W        W 4895   4.431   2.794   3.988 -0.0529 -0.2667 -0.0683
  845W        W 4896   5.522   8.151   1.359  0.1160 -0.0625 -0.1775
  846W        W 4897   8.427   0.585   3.423 -0.1447 -0.1344 -0.1510
  847W        W 4898   4.522  10.091   3.601 -0.0085  0.4645 -0.0563
  848W        W 4899   7.225   5.334   1.333  0.0872  0.1284  0.3667
  849W        W 4900   6.306   2.552  12.820  0.1548  0.2468 -0.0785
  850W        W 4901   4.206   4.095  11.415  0.2757  0.1437  0.0129
  851W        W 4902   4.324   0.149   1.328  0.0134 -0.2893 -0.1325
  852W        W 4903   3.051   6.318  13.203 -0.2359  0.1675  0.0823
  853W        W 4904   6.064   6.757   0.072 -0.1048 -0.0076 -0.1099
  854W        W 4905   9.507   6.130  12.961  0.0681  0.1228  0.1954
  855W        W 4906   1.079   6.275  12.284 -0.4052  0.1546 -0.3015
  856W        W 4907   4.043   9.351   9.413  0.1532 -0.0886 -0.0256
  857W        W 4908   5.448   6.294  12.954 -0.2114 -0.0791 -0.2710
  858W        W 4909   9.504   7.170   3.282 -0.1870  0.0018  0.1669
  859W        W 4910   4.289   7.958  10.717  0.0238 -0.1967 -0.2215
  860W        W 4911  10.172   1.769   4.848  0.3724  0.0725 -0.1949
  861W        W 4912   5.729   5.653   4.056  0.1757  0.0126 -0.0534
  862W        W 4913   7.830   5.234   2.802 -0.1633  0.1475  0.1267
  863W        W 4914   9.916   7.961   3.489 -0.1685  0.4227  0.0130
  864W        W 4915   8.140   0.058  13.211 -0.0307  0.0856  0.0507
  865W        W 4916   7.733   0.574  11.904 -0.1444  0.1679 -0.1653
  866W        W 4917   9.848   8.437   3.281  0.1369 -0.3324  0.2204
  867W        W 4918   6.696   5.674  11.630  0.2115 -0.1325 -0.1902
  868W        W 4919   3.591   9.783  13.474 -0.0744 -0.0984  0.0257
  869W        W 4920   4.220   1.328   4.969  0.1413  0.3698 -0.0941
  870W        W 4921   8.216   6.413  10.647 -0.4444  0.0825  0.0012
  871W        W 4922   2.442   1.810   2.587  0.2127  0.2761  0.1024
  872W        W 4923   2.765   9.803  11.031  0.1191 -0.1887  0.0908
  873W        W 4924   0.800   2.705   0.175  0.1451 -0.0958 -0.1719
  874W        W 4925   8.183   8.835  11.583 -0.0805 -0.1569 -0.2597
  875W        W 4926   7.246   0.040   3.422 -0.1203  0.2729  0.0794
  876W        W 4927   7.672   7.502   4.397 -0.0884 -0.0820  0.0303
  877W        W 4928   3.659   3.804   4.201 -0.2674 -0.0706 -0.0629
  878W        W 4929   4.411   4.396  12.904 -0.2750  0.2042 -0.0814
  879W        W 4930   7.662   5.164   3.313 -0.1402  0.0498  0.0942
  880W        W 4931   8.203   5.677   9.448 -0.2245  0.1904 -0.3437
  881W        W 4932   3.585   7.923   1.701  0.0100 -0.1494  0.0787
  882W        W 4933   5.896   0.238   9.559 -0.2893 -0.3532 -0.0001
  883W        W 4934   3.292   7.655  12.092 -0.2095  0.2406 -0.1337
  884W        W 4935   2.379   3.884   1.802  0.1285  0.0340 -0.0640
  885W        W 4936   7.712   5.184   2.285 -0.0984 -0.2322 -0.0395
  886W        W 4937   5.508   4.934   9.417  0.2611  0.0567 -0.2424
  887W        W 4938   9.470   7.288   1.392 -0.1671  0.0359 -0.0102
  888W        W 4939   8.570   4.271   5.718 -0.1500  0.1417 -0.0133
  889W        W 4940   4.682   8.243  10.540 -0.0192  0.1393 -0.0249
  890W        W 4941   4.622   0.577  13.153  0.6674  0.1359  0.0507
  891W        W 4942   6.643   2.741   1.170 -0.4123  0.1086  0.2766
  892W        W 4943   9.347   8.679  12.871  0.1967  0.0895 -0.0033
  893W        W 4944   8.119   2.734   1.726 -0.0374  0.2333  0.0558
  894W        W 4945   8.322   7.222   0.761  0.0816 -0.0146  0.2524
  895W        W 4946   8.156   2.773   9.103 -0.0194 -0.0275  0.4883
  896W        W 4947   5.969   8.362   9.441 -0.0236  0.0088 -0.2045
  897W        W 4948   4.720  10.158   4.909 -0.0042 -0.0075 -0.2564
  898W        W 4949   0.844  10.179   3.922  0.0343  0.1087 -0.0243
  899W        W 4950   9.649   9.333  13.534 -0.1574 -0.2543 -0.0672
  900W        W 4951   1.024   3.299   5.112 -0.0252  0.1764 -0.0560
  901W        W 4952   8.832   4.341   9.139  0.0770 -0.0512 -0.0641
  902W        W 4953   7.571   3.403   1.377 -0.0280 -0.2938  0.1968
  903W        W 4954  10.028   8.316  11.975 -0.1927 -0.0759  0.2476
  904W        W 4955   5.731   5.952  12.216  0.1150 -0.1393  0.1760
  905W        W 4956   4.025   2.853  11.903 -0.1872  0.0483  0.1448
  906W        W 4957   9.619   0.533  12.381 -0.1251  0.2778  0.0280
  907W        W 4958   5.778   5.869   9.719 -0.2546  0.1972 -0.0442
  908W        W 4959   2.767   8.155   1.600  0.3145  0.1289  0.0697
  909W        W 4960   6.499   7.104   0.013 -0.0692  0.1340  0.3628
  910W        W 4961   2.786   3.723  11.989  0.1410 -0.0697 -0.2764
  911W        W 4962   8.171   0.680   4.246 -0.0751 -0.2496 -0.1504
  912W        W 4963   9.695   9.425   4.278  0.3006  0.0523 -0.2642
  913W        W 4964   6.053   6.577   1.401  0.2065 -0.0238 -0.0218
  914W        W 4965   4.365   0.662   0.170  0.1009  0.2207  0.1710
  915W        W 4966   7.849   1.424   9.722 -0.2444 -0.1053  0.0023
  916W        W 4967   8.609  10.149   3.973 -0.3070  0.1873  0.1781
  917W        W 4968   0.399   8.918   3.298 -0.1637  0.3438 -0.0230
  918W        W 4969   4.658   0.857   3.552 -0.5745  0.2281 -0.3931
  919W        W 4970   4.689   4.651   3.794 -0.2858 -0.2577 -0.3386
  920W        W 4971   2.658   6.447  13.524 -0.1332  0.0213 -0.0159
  921W        W 4972   0.473   7.613   2.966 -0.0745 -0.0387  0.2254
  922W        W 4973   8.157   0.303   0.704  0.3409  0.1409  0.0341
  923W        W 4974   5.366   8.571   0.016  0.3317 -0.2932  0.2909
  924W        W 4975   4.961   4.238  11.690  0.0348 -0.0810 -0.1155
  925W        W 4976   9.964   5.257   3.901 -0.0671 -0.0789  0.2405
  926W        W 4977   1.378   5.843  11.359  0.2439 -0.1360  0.0398
  927W        W 4978   2.467   3.948  12.307  0.0825  0.0700 -0.5506
  928W        W 4979   2.991   4.460   3.219 -0.1591  0.2154 -0.1096
  929W        W 4980   9.013   8.240  11.004  0.1026  0.0431  0.1054
  930W        W 4981   3.488   6.982  12.801  0.0821 -0.0000  0.1400
  931W        W 4982   0.830   4.802  11.793 -0.1692 -0.1086  0.1870
  932W        W 4983   9.935   4.529   0.568  0.1183  0.0344 -0.0135
  933W        W 4984   2.045   4.387   0.659  0.0162 -0.1331 -0.0452
  934W        W 4985   3.786   0.421   2.064  0.0599  0.1637 -0.2157
  935W        W 4986   6.023   5.036  12.545  0.0245  0.2445 -0.0403
  936W        W 4987   3.723   9.548   9.708 -0.0452 -0.0309  0.3556
  937W        W 4988   9.734   3.394   2.723 -0.0776  0.0716 -0.3150
  938W        W 4989   5.071   8.138  11.270  0.2856  0.0235  0.2989
  939W        W 4990   8.798   8.787   2.743 -0.1590 -0.0427  0.0556
  940W        W 4991   5.084   4.883   3.982  0.1876  0.1740 -0.2268
  941W        W 4992   3.527   8.887   1.492 -0.0993  0.1157 -0.2936
  942W        W 4993   2.899   0.353   3.997 -0.1336  0.0633  0.2378
  943W        W 4994   5.516   7.187   1.811  0.4807 -0.1706  0.2744
  944W        W 4995   2.465   5.449   0.566  0.1105  0.1190  0.1508
  945W        W 4996   7.132   2.971  10.572  0.4950 -0.0726  0.2011
  946W        W 4997   5.231   5.584  12.997  0.1274  0.0326  0.1304
  947W        W 4998   5.104   6.922  11.563  0.1440  0.1979  0.3870
  948W        W 4999   0.593   8.723   2.445  0.2189 -0.0230  0.0662
  949W        W 5000   5.940   9.459  13.887 -0.0601  0.2940 -0.0332
  950W        W 5001   0.774   3.149  10.780  0.0405  0.2430  0.2203
  951W        W 5002   8.405   4.490   0.311 -0.0424  0.0745  0.0676
  952W        W 5003   0.360   1.998  12.741  0.1854 -0.0541  0.3478
  953W        W 5004   9.669   2.757  12.824 -0.0119  0.0346 -0.1290
  954W        W 5005   9.604   6.062   1.266 -0.0693 -0.0854 -0.1036
  955W        W 5006   5.567   0.608  10.764  0.3170  0.0513  0.0932
  956W        W 5007   2.699   8.988   2.351  0.1784  0.0456 -0.3395
  957W        W 5008   2.757   7.533  11.984 -0.0558  0.0119 -0.0883
  958W        W 5009   3.362   0.119   8.635 -0.0216 -0.0704 -0.1064
  959W        W 5010   0.647   2.548  10.040  0.2820 -0.0417 -0.0736
  960W        W 5011   0.434   0.498   2.233  0.1381 -0.0501  0.0383
  961W        W 5012   5.889   5.105   1.467 -0.4196 -0.0262 -0.2293
  962W        W 5013   1.606   2.487  11.592 -0.1974  0.0913  0.1229
  963W        W 5014   6.381   4.322   2.183 -0.0956 -0.0194 -0.0823
  964W        W 5015   7.794   8.058   1.865  0.2632  0.1948  0.3828
  965W        W 5016   1.459   6.432  12.578  0.1798 -0.1609  0.1730
  966W        W 5017   9.094   1.607   8.913 -0.2781 -0.1120 -0.2093
  967W        W 5018   0.229   1.145   2.768 -0.0248 -0.1507  0.2824
  968W        W 5019   0.648   7.115  13.737 -0.0282  0.0855 -0.1327
  969W        W 5020   1.701   8.075   4.376  0.1920 -0.0613 -0.0678
  970W        W 5021   8.697   3.661   8.971  0.4109  0.0166 -0.0553
  971W        W 5022   7.841   9.615   4.352  0.0593 -0.3244  0.0174
  972W        W 5023   1.574   6.808   0.680  0.3759 -0.0176 -0.3845
  973W        W 5024   9.383   3.664  13.346  0.0821 -0.0150  0.0212
  974W        W 5025   4.298   0.274   4.020  0.0172 -0.0972 -0.0042
  975W        W 5026   3.031   6.066   4.424 -0.0712  0.0092  0.3099
  976W        W 5027   4.828   9.225   4.609 -0.1533  0.0342  0.0188
  977W        W 5028   1.777   4.585   1.516 -0.4220 -0.2023 -0.3502
  978W        W 5029   2.092   1.116   3.132  0.1660  0.0417  0.0680
  979W        W 5030   3.293   2.196   9.564  0.1760  0.3762 -0.1330
  980W        W 5031   0.281   6.922  12.030 -0.1871 -0.0215  0.3680
  981W        W 5032   9.915   5.320  13.465 -0.1798 -0.2459 -0.2311
  982W        W 5033   2.928   0.680   3.552 -0.0964 -0.0306  0.0854
  983W        W 5034   4.607   2.820  13.299 -0.0163  0.3462  0.3499
  984W        W 5035   1.504   0.454   0.779 -0.2910 -0.1837  0.2034
  985W        W 5036   2.633   8.496  12.994  0.0433 -0.3654 -0.0706
  986W        W 5037   0.355   4.072  13.686  0.1030  0.0668 -0.1375
  987W        W 5038   5.661   3.111   1.152 -0.3896 -0.4206  0.0314
  988W        W 5039   0.136   0.176  11.896  0.2171  0.4584 -0.1802
  989W        W 5040   2.361   0.826   3.571 -0.3606 -0.0694 -0.0485
  990W        W 5041   8.957   1.996  13.695 -0.2055 -0.2496 -0.2523
  991W        W 5042   8.515   7.624  13.194  0.0132 -0.2347 -0.0013
  992W        W 5043   3.292   2.784  10.097 -0.3203  0.1805 -0.0304
  993W        W 5044   8.841   6.148  12.527  0.1533  0.0115  0.0739
  994W        W 5045   4.956   8.376   2.049  0.2163  0.1561  0.2869
  995W        W 5046   1.208   2.635   9.264  0.4151 -0.2869 -0.3173
  996W        W 5047   0.540   6.878   1.073  0.0289  0.0082  0.0837
  997W        W 5048   4.117   7.083  11.168  0.1564 -0.1561 -0.2770
  998W        W 5049   4.919   5.832   4.448 -0.0630  0.3040  0.1153
  999W        W 5050   1.865   4.252  12.973 -0.2196  0.0576 -0.5363
 1000W        W 5051   1.016   3.398  10.347 -0.1610 -0.0782  0.1772
 1001W        W 5052   4.778   0.059   2.165  0.2083  0.1341  0.1388
 1002W        W 5053   3.555   4.759   1.065  0.0089 -0.4289 -0.1062
 1003W        W 5054   4.666   4.210   4.440 -0.0068 -0.0912 -0.2063
 1004W        W 5055   9.552   2.370   9.673 -0.3268  0.0992 -0.2774
 1005W        W 5056   2.074   6.017  12.087  0.0704 -0.0133  0.1176
 1006W        W 5057   1.169   3.264  11.151  0.1366 -0.1397  0.1645
 1007W        W 5058   4.150   5.245   4.624 -0.1712  0.2567 -0.1182
 1008W        W 5059   7.860   0.987   4.020 -0.1492 -0.1405 -0.0292
 1009W        W 5060   6.207   5.068  13.014 -0.0655  0.2527  0.1414
 1010W        W 5061   6.927   2.067   0.371 -0.2698  0.1733  0.0285
 1011W        W 5062   7.245   1.125   5.051 -0.0393 -0.2777 -0.3028
 1012W        W 5063   7.040   0.815   2.444  0.0485 -0.2532 -0.1141
 1013W        W 5064   8.357   4.889  11.156  0.0639 -0.0961 -0.1879
 1014W        W 5065   3.733   2.349   1.948 -0.1605  0.2522  0.2368
 1015W        W 5066   3.300   0.535   2.154  0.1076 -0.0249 -0.0200
 1016W        W 5067   4.321   4.020  12.532  0.0145 -0.2231 -0.0088
 1017W        W 5068   5.027  10.177   3.681 -0.1800 -0.0080 -0.0507
 1018W        W 5069   8.538   4.991   2.350 -0.1664  0.0034  0.1402
 1019W        W 5070   3.218   7.292   0.251  0.1179  0.1663  0.2187
 1020W        W 5071   5.124   3.474   8.938 -0.0003  0.2254 -0.2514
 1021W        W 5072   9.538   4.920  10.721 -0.3014 -0.5819 -0.0422
 1022W        W 5073   2.004   0.118  11.056 -0.1058 -0.2604  0.1177
 1023W        W 5074   7.485   7.115   4.203  0.0867 -0.1696 -0.1619
 1024W        W 5075   8.052   6.027  13.036 -0.2663  0.0583  0.1946
 1025W        W 5076   2.525   6.612   3.741 -0.2445  0.0015  0.1276
 1026W        W 5077   8.527   2.505   9.688  0.2328  0.1207 -0.0713
 1027W        W 5078   5.578   4.997  11.868  0.0534  0.2698 -0.2195
 1028W        W 5079   8.747   5.105   3.291  0.0319 -0.1073  0.1477
 1029W        W 5080   5.476   6.447  12.300  0.0908 -0.0549  0.2843
 1030W        W 5081   6.380   9.742  13.084 -0.1103  0.2067  0.2007
 1031W        W 5082   6.378   4.926   0.422 -0.1002  0.2442 -0.0172
 1032W        W 5083   8.804  10.053  10.027  0.0216  0.0447  0.0137
 1033W        W 5084   7.406   1.260   3.224  0.1032 -0.1547  0.0045
 1034W        W 5085   8.998   8.053   3.067  0.1385 -0.0087  0.1612
 1035W        W 5086   4.793   9.164   3.258  0.0031 -0.0661  0.1095
 1036W        W 5087   9.824   1.855  12.199  0.0343 -0.2628  0.2096
 1037W        W 5088   6.165   9.597   0.640  0.0149 -0.3932  0.0892
 1038W        W 5089   0.457   6.066  13.759 -0.0040 -0.0727  0.2707
 1039W        W 5090   4.390   7.379   2.835 -0.0294 -0.0024 -0.1917
 1040W        W 5091   4.234   9.401   3.878 -0.3070  0.1737  0.0479
 1041W        W 5092   7.283   1.564   0.280 -0.4145 -0.1092 -0.4603
 1042W        W 5093   1.661   2.227  13.546 -0.3741  0.1270 -0.2766
 1043W        W 5094   0.073   0.179   4.647  0.1061  0.1225 -0.0860
 1044W        W 5095   6.366   1.409   9.892  0.4119  0.0957  0.1109
 1045W        W 5096   9.184   4.872   0.488 -0.0667 -0.0028  0.2683
 1046W        W 5097   1.377   2.450   5.130  0.3462  0.1591 -0.0309
 1047W        W 5098   0.442   2.258   9.070 -0.1621 -0.1946 -0.0661
 1048W        W 5099   9.109   1.119  13.240 -0.1912  0.3890  0.3456
 1049W        W 5100   4.762   0.023   4.105 -0.2826 -0.2094 -0.2206
 1050W        W 5101   7.163   4.802   0.649  0.1423 -0.0412  0.5667
 1051W        W 5102   0.168   2.546  10.208 -0.3431  0.4293  0.2063
 1052W        W 5103   9.007   7.509  10.215 -0.1788 -0.0581 -0.0517
 1053W        W 5104   3.432   8.805   4.649  0.2126 -0.0690  0.0171
 1054W        W 5105   6.514   9.804  12.415 -0.0228 -0.1670 -0.2187
 1055W        W 5106   8.736   3.927   2.875  0.5228  0.1924 -0.1891
 1056W        W 5107   9.029   7.388   4.151  0.3270 -0.2199 -0.1919
 1057W        W 5108   4.925   0.110   0.682  0.3215 -0.0602  0.0987
 1058W        W 5109   3.821   8.281   2.963 -0.1220 -0.1166  0.0243
 1059W        W 5110   0.022   2.718   4.907 -0.1054  0.0012  0.1906
 1060W        W 5111   6.050   4.005  13.180  0.0397 -0.1933 -0.1730
 1061W        W 5112   2.079   9.934   1.165 -0.1343  0.2757 -0.0576
 1062W        W 5113   1.457   0.498   8.610  0.0587 -0.1282 -0.1845
 1063W        W 5114   3.090   2.027  12.778  0.0188  0.1938  0.1882
 1064W        W 5115   6.469   1.905   9.717 -0.2175  0.0802  0.1816
 1065W        W 5116   0.141   0.346   9.998 -0.1608 -0.0637 -0.5433
 1066W        W 5117   2.446   4.732  11.993 -0.0390 -0.1020 -0.2672
 1067W        W 5118   8.146   5.875   0.722 -0.2328 -0.3416  0.0660
 1068W        W 5119   7.635   2.656   4.955  0.0007  0.4046  0.1338
 1069W        W 5120   6.318   6.531  11.674 -0.1994 -0.0592 -0.0637
 1070W        W 5121   4.665  10.117  12.782 -0.0832  0.2441 -0.1124
 1071W        W 5122   0.225   6.782   0.659  0.4082  0.3556  0.0428
 1072W        W 5123   1.863   7.291   2.507  0.2752  0.1897  0.2043
 1073W        W 5124   7.559   5.658   2.191  0.2332  0.1269 -0.0733
 1074W        W 5125   7.453   3.002  13.604 -0.3278 -0.4231 -0.3906
 1075W        W 5126   7.076   1.438  11.229 -0.0519  0.2072  0.0415
 1076W        W 5127   9.994   2.767   2.287 -0.1341 -0.1868  0.0620
 1077W        W 5128   4.376   3.531  12.607 -0.3495 -0.0621  0.2887
 1078W        W 5129   4.387   2.883   3.466  0.4532 -0.3766  0.0842
 1079W        W 5130   2.678   1.187   0.555 -0.0440  0.1036 -0.1026
 1080W        W 5131   5.526   4.397  13.126 -0.0236 -0.0693 -0.1535
 1081W        W 5132   5.576   1.439  11.400 -0.2374 -0.1862  0.1342
 1082W        W 5133   6.103   6.934   3.685  0.2054  0.0588  0.0888
 1083W        W 5134   7.633   1.965   4.382 -0.2485 -0.2290 -0.2783
 1084W        W 5135   5.124   8.610  10.996 -0.0020  0.2473  0.0623
 1085W        W 5136   6.849   9.539  13.705  0.1241 -0.0304  0.0813
 1086W        W 5137   3.085   4.346   1.822  0.4482  0.3215 -0.2220
 1087W        W 5138   8.049   7.753  13.379 -0.1039  0.0735  0.2422
 1088W        W 5139   5.446   2.998  12.198  0.2400 -0.0897 -0.1008
 1089W        W 5140   0.539   4.245   0.815 -0.0020 -0.2163  0.1024
 1090W        W 5141   3.901   8.787   9.446 -0.2519 -0.0737 -0.0855
 1091W        W 5142   2.646   7.322   2.717  0.1319  0.2604  0.0152
 1092W        W 5143   3.489   1.924   2.603 -0.0357 -0.2655  0.0562
 1093W        W 5144   7.717   4.675   3.568 -0.1591 -0.1967  0.2258
 1094W        W 5145   0.260   7.796   0.330  0.0944  0.0638  0.1510
 1095W        W 5146   4.266   5.231  13.075  0.1560  0.1145 -0.0883
 1096W        W 5147   8.648   9.153  13.413  0.1380 -0.2143 -0.1250
 1097W        W 5148   0.595   8.337  12.359  0.1324 -0.2859 -0.2526
 1098W        W 5149   4.479   9.957   2.636 -0.1690 -0.0870  0.0947
 1099W        W 5150   6.267   2.688   0.582  0.0401 -0.1597  0.1145
 1100W        W 5151   2.866   4.893   9.797  0.2372  0.1227  0.1630
 1101W        W 5152   5.266   2.656   2.297 -0.1636 -0.0851  0.1041
 1102W        W 5153   4.654   5.767   5.389  0.3046 -0.0724  0.0487
 1103W        W 5154   4.788   3.569  13.239 -0.1242 -0.0095  0.2156
 1104W        W 5155   6.626   2.690   9.081  0.1557 -0.0036  0.0585
 1105W        W 5156   2.128   3.781   2.754  0.1092 -0.1042  0.1974
 1106W        W 5157   4.921   0.810   4.514 -0.0332 -0.1378  0.1417
 1107W        W 5158   2.577   0.255  10.588  0.0024 -0.2238  0.4027
 1108W        W 5159   4.831   9.895   0.259 -0.3048  0.0381  0.1430
 1109W        W 5160   4.165   6.944  10.716  0.0429  0.0394 -0.1023
 1110W        W 5161   3.141   1.124   0.537 -0.0558  0.1915  0.0810
 1111W        W 5162   2.384   2.599  12.864 -0.2735 -0.3327 -0.0345
 1112W        W 5163   0.871   4.101   4.640 -0.0514 -0.1919 -0.4890
 1113W        W 5164   2.980   4.802   9.290 -0.0942  0.2026 -0.0190
 1114W        W 5165   9.820   0.701  13.005  0.1492  0.0633 -0.2026
 1115W        W 5166   6.480   0.054  11.640  0.1566 -0.0752 -0.0037
 1116W        W 5167   5.837   2.075   3.539 -0.0016 -0.0269 -0.0598
 1117W        W 5168   3.996   9.164   2.626 -0.4199 -0.0476 -0.2188
 1118W        W 5169   3.087   2.371  11.531  0.2069 -0.1454  0.2226
 1119W        W 5170   2.064   5.400  10.635 -0.2718  0.2725 -0.1508
 1120W        W 5171   8.665   8.061   1.215 -0.2480 -0.1773  0.0754
 1121W        W 5172   7.566   3.052  12.216  0.0275  0.2017  0.0164
 1122W        W 5173   4.980   4.541  13.079 -0.2136 -0.1708 -0.2725
 1123W        W 5174   1.053   8.244  13.791 -0.3020 -0.0475 -0.1943
 1124W        W 5175   5.353   3.292   0.754  0.2915 -0.1127 -0.2350
 1125W        W 5176   2.261   4.127   4.937 -0.2053 -0.1581 -0.1255
 1126W        W 5177   2.595   0.754  10.785 -0.0769  0.0294 -0.3152
 1127W        W 5178   6.015   0.808  13.026  0.0607  0.0677  0.2085
 1128W        W 5179   0.870   4.313   9.597 -0.0189  0.0680 -0.2825
 1129W        W 5180   8.902   1.848   0.282  0.1965 -0.3021  0.0280
 1130W        W 5181   3.145   1.087   1.901 -0.0878  0.0640  0.0837
 1131W        W 5182   2.227   5.224   1.067 -0.2903 -0.0768  0.3129
 1132W        W 5183   6.634   0.260   3.341 -0.1260  0.0641  0.4823
 1133W        W 5184   4.021   4.580   9.127  0.0119  0.1447  0.5135
 1134W        W 5185   6.428   9.643   1.100 -0.0234 -0.1789 -0.1298
 1135W        W 5186   9.299   0.941   9.680  0.2293  0.0353  0.0086
 1136W        W 5187   6.717   0.322   8.541 -0.3492 -0.1270  0.1077
 1137W        W 5188   7.744   7.877   0.323  0.5501  0.0574  0.0592
 1138W        W 5189   3.133   4.803  10.171 -0.1395  0.2923 -0.3132
 1139W        W 5190   1.740   1.800   9.315  0.1347 -0.0863 -0.1749
 1140W        W 5191   5.316   1.308  12.955  0.1259  0.0374  0.3592
 1141W        W 5192   2.098   6.135  13.333 -0.0826  0.3143 -0.0735
 1142W        W 5193   4.891   1.617   0.939 -0.1555  0.0109 -0.1295
 1143W        W 5194   2.910   6.940   2.517  0.0230 -0.0359  0.0864
 1144W        W 5195   8.685   6.293   1.063 -0.0735 -0.0642 -0.3325
 1145W        W 5196   3.047   0.051   2.979  0.1186 -0.0740 -0.1795
 1146W        W 5197   4.894   4.445  13.577  0.0876 -0.0004 -0.2860
 1147W        W 5198   1.565   6.580  11.755  0.3357  0.1197  0.1123
 1148W        W 5199   0.415   7.490   1.554  0.3198  0.0098 -0.1485
 1149W        W 5200   3.793   6.967  13.437 -0.3154 -0.2087 -0.4200
 1150W        W 5201   0.262   1.444   1.587 -0.2249  0.1223 -0.1842
 1151W        W 5202   8.031   2.841   4.660 -0.4896  0.0860  0.0293
 1152W        W 5203   1.768   4.434  10.894 -0.1707  0.0696 -0.0541
 1153W        W 5204   9.640   8.529   9.775 -0.0516 -0.0056  0.0023
 1154W        W 5205   2.170   3.066   1.101 -0.3979  0.0587 -0.1270
 1155W        W 5206   6.641   6.136  11.925 -0.0941 -0.4702  0.1456
 1156W        W 5207   6.609   4.519   9.134 -0.1327  0.0459  0.2866
 1157W        W 5208   6.698   2.515   3.616  0.0184  0.0533  0.0629
 1158W        W 5209   6.893   3.113   9.100  0.3590 -0.1120 -0.1984
 1159W        W 5210   6.298   1.862   1.021  0.1575  0.1515  0.0228
 1160W        W 5211   3.003   2.769  11.152 -0.3092  0.0962 -0.0443
 1161W        W 5212   2.301   3.094   4.558 -0.3385  0.1531  0.4736
 1162W        W 5213   3.687   4.190   5.627 -0.0812  0.0708  0.2983
 1163W        W 5214   2.786   5.799   1.715 -0.0041 -0.2699  0.1425
 1164W        W 5215   3.075   6.193   0.304 -0.3656  0.3972 -0.3578
 1165W        W 5216   8.498   8.984  12.477  0.0854  0.1770 -0.1389
 1166W        W 5217   4.693   2.419  13.645  0.4599  0.0386  0.0407
 1167W        W 5218   4.019   8.873  10.851  0.2315  0.1430  0.2072
 1168W        W 5219   8.622   5.258  11.537 -0.0076  0.1230  0.1481
 1169W        W 5220   6.327   7.728   3.927  0.0771 -0.0775  0.2543
 1170W        W 5221   5.487   8.960  11.689 -0.3933 -0.0386 -0.3519
 1171W        W 5222   1.280   5.397  11.439 -0.4450 -0.0476  0.0106
 1172W        W 5223   4.280   7.981   9.705  0.1613  0.5731  0.2571
 1173W        W 5224   3.659   5.264   1.525 -0.0384  0.2746  0.7098
 1174W        W 5225   7.477   9.596   2.160  0.1151  0.0927 -0.2816
 1175W        W 5226   1.198   5.018   9.176 -0.0196 -0.2143  0.0549
 1176W        W 5227  10.189   4.527   0.101 -0.0888  0.1306  0.0046
 1177W        W 5228   5.151   1.008  11.213 -0.1179 -0.3975 -0.0119
 1178W        W 5229   9.801   0.476   1.829 -0.3203 -0.0136 -0.0402
 1179W        W 5230   2.773   1.289   4.379  0.0372 -0.1303 -0.0521
 1180W        W 5231   9.938   2.401  11.089  0.0231  0.0607 -0.2103
 1181W        W 5232   6.356   8.487  12.514  0.0513 -0.1071  0.1429
 1182W        W 5233   1.519   2.606  13.181  0.1731  0.1289  0.0444
 1183W        W 5234   5.436   0.130  10.518 -0.2144  0.2620 -0.0567
 1184W        W 5235   2.613   3.807   4.182 -0.2609  0.1049  0.0537
 1185W        W 5236   5.667   1.332   0.750  0.2487  0.0989 -0.0359
 1186W        W 5237   2.825   5.009  11.072  0.1134  0.1240  0.0167
 1187W        W 5238   9.631   3.631  10.672 -0.1609 -0.0490 -0.3908
 1188W        W 5239   9.412   3.561   1.500 -0.1394  0.1171 -0.2414
 1189W        W 5240   9.981   3.771   4.089  0.2870 -0.1205  0.0291
 1190W        W 5241  10.147   2.098  10.262 -0.5007 -0.3523  0.0670
 1191W        W 5242   8.006   1.359   0.157 -0.2603  0.0710 -0.0361
 1192W        W 5243   5.269   8.332   5.417 -0.1623  0.1748 -0.3901
 1193W        W 5244   2.414   8.311   1.258  0.1144  0.0278 -0.3036
 1194W        W 5245   4.139   6.272   8.545  0.0906  0.0850  0.0158
 1195W        W 5246   7.827   1.831  11.507  0.1246  0.0800  0.2624
 1196W        W 5247   4.224   4.524  11.007  0.4296 -0.0570  0.0799
 1197W        W 5248   9.228   4.264   2.065  0.1811 -0.0922  0.0343
 1198W        W 5249   4.423   2.529   5.284 -0.3970  0.0817  0.1662
 1199W        W 5250   8.611   1.094  13.541 -0.0943 -0.1264 -0.0319
 1200W        W 5251   9.336   8.558   3.235 -0.0281 -0.0892  0.3355
 1201W        W 5252   8.268   6.465   3.194  0.2559 -0.1796  0.2043
 1202W        W 5253   0.012   8.315  12.909 -0.0975  0.4933 -0.1318
 1203W        W 5254   2.316   5.409  10.226  0.0105  0.2681 -0.1188
 1204W        W 5255   6.602   0.019  12.119 -0.1323  0.2525 -0.0129
 1205W        W 5256   8.535   0.246   9.773  0.0410 -0.0404 -0.0466
 1206W        W 5257   4.254   8.272   1.057  0.0102  0.2997  0.1642
 1207W        W 5258   0.203  10.145  11.421 -0.0311 -0.1170 -0.2188
 1208W        W 5259   8.043   3.255  10.403  0.2460  0.0080  0.0069
 1209W        W 5260   8.673   0.304   2.643  0.0474  0.1077 -0.0454
 1210W        W 5261   4.144   5.469  13.797  0.0464  0.1207 -0.1890
 1211W        W 5262   2.606   3.264  13.824  0.1196  0.0625 -0.0533
 1212W        W 5263   1.115   0.056   3.183 -0.2104  0.0814 -0.2168
 1213W        W 5264   4.211   4.726   2.897 -0.1289 -0.0186 -0.0040
 1214W        W 5265   1.248   2.155  13.148 -0.0533 -0.0205  0.2094
 1215W        W 5266   8.562   1.388   2.371  0.2904 -0.0745  0.2409
 1216W        W 5267   2.520   8.708   3.423  0.1294  0.6290 -0.0028
 1217W        W 5268   2.253   9.901  10.278  0.1079  0.1987 -0.0007
 1218W        W 5269   6.886   6.247   2.704 -0.0628  0.1493 -0.2910
 1219W        W 5270   2.958   8.401   2.961  0.0870  0.1494 -0.2546
 1220W        W 5271   2.633   0.826   0.254 -0.1130  0.1250 -0.3721
 1221W        W 5272   1.060   3.392  12.513 -0.2262  0.1382 -0.1887
 1222W        W 5273   7.460   7.588   0.921  0.1449 -0.0199  0.0065
 1223W        W 5274   5.892   2.957  11.968 -0.1562 -0.0929 -0.1655
 1224W        W 5275   8.215   2.272   2.562 -0.0624  0.1131 -0.1133
 1225W        W 5276   5.926   9.308   2.366 -0.0156 -0.3525  0.1410
 1226W        W 5277   2.166   7.261   1.941 -0.2722  0.3009 -0.1722
 1227W        W 5278   9.523   6.983   2.813 -0.0422  0.1931 -0.1391
 1228W        W 5279   3.734   6.899  11.475  0.3360 -0.1224 -0.1077
 1229W        W 5280   9.102   3.659   3.661 -0.1047  0.0640  0.1717
 1230W        W 5281   8.622   6.970   0.379  0.1802 -0.0690 -0.1059
 1231W        W 5282   6.892   8.583  10.520 -0.3606  0.1970  0.0588
 1232W        W 5283   2.121   2.199   0.416  0.2111  0.0886  0.1813
 1233W        W 5284   1.996   2.843  11.330 -0.2735 -0.1559 -0.0946
 1234W        W 5285   4.131   7.580  13.241  0.2567  0.1254 -0.1289
 1235W        W 5286   7.998   0.060  12.709  0.1965 -0.1729 -0.0846
 1236W        W 5287   2.533   5.171   1.502 -0.0969 -0.0122  0.0418
 1237W        W 5288   4.834   2.511   0.244  0.2172  0.1453 -0.0246
 1238W        W 5289   1.170   8.950   1.294 -0.0711  0.3196 -0.2681
 1239W        W 5290   5.405   4.563   4.590 -0.1078 -0.1341  0.0348
 1240W        W 5291   0.266   0.931  10.192  0.0207  0.3360  0.3574
 1241W        W 5292   4.666   4.148  12.087 -0.0600  0.1250 -0.0094
 1242W        W 5293   6.529   0.091   4.265  0.0710  0.0811 -0.4283
 1243W        W 5294   7.295   8.616  12.293 -0.2419  0.1256 -0.1240
 1244W        W 5295   2.406   9.025  11.315 -0.6448  0.2456  0.3031
 1245W        W 5296   5.085   2.237   3.184 -0.1616 -0.0203 -0.0216
 1246W        W 5297   2.037   3.632  10.638  0.2188  0.1223  0.0809
 1247W        W 5298   7.990   2.336  11.544  0.1548 -0.1926  0.1144
 1248W        W 5299   8.539   4.025   4.388 -0.2704 -0.0990 -0.0988
 1249W        W 5300   8.988   0.328  10.033  0.0233  0.1341  0.0369
 1250W        W 5301   3.963   3.276  12.700  0.1726  0.0504 -0.1687
 1251W        W 5302   7.202   5.673   9.514 -0.2591 -0.0012  0.2595
 1252W        W 5303   3.740   3.467   1.913 -0.1855  0.1857 -0.3399
 1253W        W 5304   0.865   2.123  12.080  0.0549  0.3327 -0.0377
 1254W        W 5305   5.800   3.085   1.652 -0.1725 -0.1023  0.1822
 1255W        W 5306   2.120   9.931  13.823 -0.1713  0.2617  0.1317
 1256W        W 5307  10.013   6.343   1.255 -0.2740 -0.1921  0.1807
 1257W        W 5308   8.938   6.580  11.768  0.0464 -0.1336  0.3098
 1258W        W 5309   6.125   8.676   3.465 -0.1245 -0.1572 -0.1673
 1259W        W 5310   3.302   4.846  12.297 -0.1471  0.1930  0.4348
 1260W        W 5311   4.740   6.878   3.094  0.0039 -0.0536 -0.1619
 1261W        W 5312   9.277   6.127   0.359  0.1119  0.0723  0.1829
 1262W        W 5313   8.349   8.321   3.064  0.1174  0.1132 -0.1103
 1263W        W 5314   6.049   1.356  11.127  0.0568  0.2541 -0.2124
 1264W        W 5315   4.178   9.158  12.328  0.1327  0.0156 -0.1287
 1265W        W 5316   2.279   4.496  10.451  0.1026  0.3353 -0.2552
 1266W        W 5317   0.892   2.974  12.293 -0.1911  0.2209  0.1688
 1267W        W 5318   4.088   3.672   8.869  0.0686  0.0026 -0.1352
 1268W        W 5319   8.488   4.320  13.391  0.1107 -0.1563 -0.0117
 1269W        W 5320   6.341   4.226  11.601 -0.3724 -0.0424 -0.1053
 1270W        W 5321   1.484   0.767   3.830 -0.0586 -0.1478 -0.1968
 1271W        W 5322   2.268   0.560   8.891  0.1368 -0.0190  0.2726
 1272W        W 5323   9.058   0.774  10.287  0.1652  0.0413 -0.2298
 1273W        W 5324   8.958   4.707  11.983  0.1204  0.0424  0.0458
 1274W        W 5325   1.920   4.229   0.149  0.1480 -0.4633 -0.0494
 1275W        W 5326   2.185   4.509  13.777  0.0240 -0.0255  0.0327
 1276W        W 5327   5.236   6.367   1.872 -0.1310  0.1175 -0.1651
 1277W        W 5328   5.307   1.131  11.667 -0.1285  0.1240 -0.1899
 1278W        W 5329   6.382   8.641  11.356 -0.1291 -0.2211  0.1321
 1279W        W 5330   7.428   4.768  13.534 -0.0725 -0.0100 -0.5082
 1280W        W 5331   8.371   9.680   3.854 -0.1705  0.4076  0.0657
 1281W        W 5332   1.683   1.037   5.253 -0.3288  0.0297  0.1751
 1282W        W 5333   9.494   4.066  10.792 -0.2146 -0.0736 -0.2605
 1283W        W 5334   4.595   2.840  11.424 -0.1373 -0.0915  0.2551
 1284W        W 5335   5.192   0.406   4.221 -0.1927  0.0508  0.0501
 1285W        W 5336   4.616   2.141  12.328  0.4582  0.0982  0.0061
 1286W        W 5337   9.510   7.312  10.537 -0.1214 -0.0912  0.1813
 1287W        W 5338   6.378   6.438   9.525 -0.1824 -0.1579  0.0330
 1288W        W 5339   5.054   0.301  10.807 -0.1286  0.1590  0.1335
 1289W        W 5340   8.432   9.435  12.212 -0.0469  0.2474 -0.2482
 1290W        W 5341   9.656   6.235  13.833  0.3722 -0.1474 -0.3273
 1291W        W 5342   0.748   3.715  11.099  0.0142 -0.0014 -0.2804
 1292W        W 5343   6.498   0.617  12.857  0.0705  0.1788  0.0387
 1293W        W 5344   3.041  10.020   0.972  0.0416  0.3244  0.0322
 1294W        W 5345   8.954   1.645   4.575 -0.0701 -0.1903  0.2034
 1295W        W 5346   3.933   3.941  12.813 -0.2677 -0.0102 -0.0757
 1296W        W 5347   2.895   6.061  10.245  0.0733  0.1644  0.3540
 1297W        W 5348   9.628   8.873   0.858  0.0337  0.1717  0.0368
 1298W        W 5349   2.711   8.030   0.073 -0.0852 -0.0599 -0.0833
 1299W        W 5350   3.974   7.088   1.387 -0.1795  0.0117 -0.1298
 1300W        W 5351   6.301   3.748   5.369  0.2329 -0.1161 -0.0956
 1301W        W 5352   9.372   7.754   1.677  0.1356 -0.1638  0.0683
 1302W        W 5353   3.291   6.014  10.610 -0.3041  0.1858 -0.2165
 1303W        W 5354   4.011   8.431   0.664 -0.1797  0.0427  0.2192
 1304W        W 5355   4.091   8.231   2.489  0.3545  0.1479  0.0228
 1305W        W 5356   7.001   4.619  13.702 -0.1457  0.0725  0.0998
 1306W        W 5357   9.185   6.743   9.988  0.2170 -0.0032  0.3242
 1307W        W 5358   3.285   0.039  11.833 -0.1146  0.0057  0.0306
 1308W        W 5359   2.601   9.531   1.753  0.1737 -0.3731  0.2362
 1309W        W 5360   6.267   0.050   9.898 -0.2849 -0.1554  0.3963
 1310W        W 5361   6.629   2.487  11.430 -0.1859 -0.0407 -0.0366
 1311W        W 5362   2.461   4.371  13.386 -0.1253 -0.0286 -0.0197
 1312W        W 5363   2.631   5.553  13.317 -0.1699  0.0947 -0.0783
 1313W        W 5364   3.686   7.181   9.671 -0.0553 -0.2056  0.2427
 1314W        W 5365   7.959   7.317   3.263 -0.0867 -0.0185  0.2361
 1315W        W 5366   9.888  10.143   0.646  0.3259  0.0089 -0.1457
 1316W        W 5367   5.406   7.587   0.261 -0.0538  0.1172  0.1879
 1317W        W 5368   7.433   2.823   1.183 -0.0093 -0.0929 -0.1098
 1318W        W 5369   3.599   4.764   1.648 -0.0529  0.2091 -0.2186
 1319W        W 5370   0.986   8.924  10.384  0.0881 -0.0369 -0.1260
 1320W        W 5371   8.023   0.378   1.689 -0.1088 -0.0949  0.3057
 1321W        W 5372   1.236  10.063   4.197  0.0733 -0.3407  0.1165
 1322W        W 5373   3.157   2.874   1.193  0.0584 -0.1361  0.0110
 1323W        W 5374   7.669   9.014  11.583  0.0985 -0.1066 -0.0641
 1324W        W 5375   6.291   6.618   2.763 -0.1699  0.1312 -0.1045
 1325W        W 5376   5.844   3.852  12.433 -0.0698  0.3882 -0.0505
 1326W        W 5377   7.807   4.255   0.318  0.0709 -0.0839  0.1959
 1327W        W 5378   2.615   3.010  12.974 -0.1038 -0.2309  0.1398
 1328W        W 5379   3.654   4.235   4.690  0.0626  0.1164  0.1448
 1329W        W 5380   5.842   5.434  10.104 -0.3319 -0.1745 -0.0059
 1330W        W 5381   6.869   9.426  11.061  0.0417  0.1370 -0.0998
 1331W        W 5382   8.988   9.165  12.348 -0.1720  0.0744 -0.0742
 1332W        W 5383   0.729   6.909  13.280  0.0987 -0.0022  0.2220
 1333W        W 5384   9.692   8.994  12.595  0.1154  0.1118 -0.0957
 1334W        W 5385   4.055   9.688   3.502  0.2832 -0.1553 -0.0373
 1335W        W 5386   2.301   5.302   4.148  0.0021  0.2865 -0.2836
 1336W        W 5387   3.490   7.387  12.545  0.4000 -0.2552 -0.1534
 1337W        W 5388   6.268   3.500   9.614 -0.4452 -0.0941  0.1322
 1338W        W 5389   4.763   3.888  10.101 -0.2702  0.1143  0.0470
 1339W        W 5390   4.837   9.878  13.725  0.0733 -0.1357  0.0545
 1340W        W 5391   2.380   4.308   0.287 -0.0226 -0.2164  0.0170
 1341W        W 5392   8.835   1.703  11.124  0.1855  0.0436  0.2557
 1342W        W 5393   5.138   3.933   9.619 -0.2679 -0.2900  0.2461
 1343W        W 5394   5.552   5.149  12.424 -0.1128  0.1006 -0.0905
 1344W        W 5395   9.222   3.170   1.814 -0.0580  0.2357  0.1190
 1345W        W 5396   0.962   3.939  10.164 -0.0180  0.2057 -0.0634
 1346W        W 5397   2.262   0.600  11.146 -0.2677 -0.1315  0.1581
 1347W        W 5398   8.222   2.776  11.617 -0.3639 -0.1612  0.0936
 1348W        W 5399   2.659   2.360  13.518  0.0406  0.0270 -0.0042
 1349W        W 5400   3.388   4.745  12.792 -0.1457 -0.4417  0.1095
 1350W        W 5401   2.289   1.007   9.805  0.0668  0.4128  0.1544
 1351W        W 5402   4.186   3.948   4.322 -0.1604 -0.0755  0.0243
 1352W        W 5403   1.521   5.731   2.436  0.1634  0.3671 -0.1837
 1353W        W 5404   4.948   6.225   9.361 -0.0116  0.0171 -0.2307
 1354W        W 5405   5.025   7.075   9.840  0.1641  0.0431 -0.3061
 1355W        W 5406   5.633   7.043  11.491 -0.3762  0.1620 -0.2015
 1356W        W 5407   4.758   0.894  12.803  0.0968 -0.1400 -0.0975
 1357W        W 5408   9.461   8.086   2.881 -0.0292  0.1344 -0.0706
 1358W        W 5409   6.507   3.304   4.604  0.2625  0.1284  0.4867
 1359W        W 5410   1.991   9.387   0.433 -0.0822 -0.1408  0.0706
 1360W        W 5411   7.722   1.782   8.501  0.0000 -0.2580  0.0035
 1361W        W 5412   7.180   2.431   3.535 -0.2431 -0.2045  0.0442
 1362W        W 5413   1.144   6.207  12.939  0.2495  0.1709  0.1197
 1363W        W 5414   6.978   1.248   9.323  0.0697  0.1751  0.2891
 1364W        W 5415   2.929   6.257   8.797 -0.0137  0.0537  0.0042
 1365W        W 5416   0.556   0.067  10.215  0.0647 -0.2036 -0.2286
 1366W        W 5417   7.236   1.965  13.301 -0.2825 -0.0108 -0.2116
 1367W        W 5418  10.188   2.060  13.656  0.0562 -0.0529 -0.0841
 1368W        W 5419   6.060   4.581  10.835  0.3639 -0.2859 -0.2821
 1369W        W 5420   1.447   2.379  12.744  0.0858  0.0214 -0.0203
 1370W        W 5421   8.083   6.065   2.771  0.1859 -0.0743 -0.1282
 1371W        W 5422   2.238   2.067  11.121 -0.1610  0.0591  0.1226
 1372W        W 5423   0.005   9.995  12.211 -0.0982 -0.2221 -0.0327
 1373W        W 5424   1.326   8.003  10.871  0.0507  0.2503  0.3854
 1374W        W 5425   7.115   4.027  12.252 -0.0907 -0.0956  0.1188
 1375W        W 5426   2.157   8.293   3.284  0.1326 -0.0085  0.0348
 1376W        W 5427   7.618   0.487   8.543  0.1275  0.2101  0.1517
 1377W        W 5428   0.746   4.927   1.374 -0.0344 -0.1906 -0.5134
 1378W        W 5429   2.181   7.881  11.101 -0.3681 -0.2381 -0.0066
 1379W        W 5430   0.561   1.285  10.928  0.1754  0.0812  0.2175
 1380W        W 5431   5.541   6.527  11.495 -0.1940 -0.1655  0.2092
 1381W        W 5432   4.344   6.027   2.616 -0.3092  0.0928  0.0373
 1382W        W 5433   4.291   3.380  10.674  0.0174 -0.1099 -0.1138
 1383W        W 5434   0.938   8.961  12.465  0.0444 -0.1829 -0.2591
 1384W        W 5435   0.276   3.407   3.599  0.0546  0.4421 -0.0640
 1385W        W 5436   6.205   0.658   3.467  0.1654  0.0461 -0.2774
 1386W        W 5437   2.931   3.371  12.843  0.0702 -0.0198 -0.0308
 1387W        W 5438   2.788   6.606   9.425 -0.1849 -0.0342 -0.3441
 1388W        W 5439   4.704   5.664   0.884 -0.2119 -0.0473 -0.2959
 1389W        W 5440   9.056   1.156  13.790 -0.5493 -0.1029 -0.0524
 1390W        W 5441   8.564   4.643   3.328 -0.1448 -0.1830 -0.0942
 1391W        W 5442   9.319   0.545   1.987  0.1917  0.0167 -0.1882
 1392W        W 5443   2.233   2.598   4.229 -0.2783  0.2050  0.0017
 1393W        W 5444   7.023   5.713   1.615  0.1410  0.1004 -0.0583
 1394W        W 5445   3.598   0.666   9.787 -0.2020 -0.1518 -0.2924
 1395W        W 5446  10.059   6.068   1.767 -0.0581  0.0862 -0.2632
 1396W        W 5447   8.366   7.020  13.718 -0.1883 -0.1925  0.1535
 1397W        W 5448   3.756   9.982   4.724  0.1194 -0.0114 -0.1105
 1398W        W 5449   5.919   2.007   4.516 -0.3676 -0.1349 -0.0412
 1399W        W 5450   5.236   5.538   4.154 -0.2240  0.0104 -0.2451
 1400W        W 5451   7.037   3.824   0.736 -0.0628  0.0881 -0.1750
 1401W        W 5452   8.161   2.715  11.104  0.2287 -0.1271  0.1453
 1402W        W 5453   2.793   0.632  10.313  0.1745  0.1825 -0.0326
 1403W        W 5454   2.403   3.596   3.211  0.2982 -0.1126 -0.1170
 1404W        W 5455   1.000   9.966   2.716 -0.0062 -0.0435 -0.1026
 1405W        W 5456   4.589   7.367  13.116 -0.1640 -0.2992  0.0426
 1406W        W 5457   2.203   2.707  10.187 -0.0360 -0.1240  0.1505
 1407W        W 5458   0.605   0.955  11.824 -0.0188 -0.0111  0.0600
 1408W        W 5459   9.063   5.195   2.605  0.2147  0.1212 -0.2255
 1409W        W 5460   8.838   2.257  10.876  0.3032  0.0790 -0.1543
 1410W        W 5461   0.716   3.720   0.429  0.1865  0.3151  0.0750
 1411W        W 5462   6.079   3.078  12.903  0.2014 -0.1030 -0.0893
 1412W        W 5463   4.744   3.954   1.910  0.1189 -0.1537 -0.0427
 1413W        W 5464   4.495   4.933   3.383  0.0720  0.2382  0.0496
 1414W        W 5465   7.821   5.157  10.944  0.1960  0.3262  0.3532
 1415W        W 5466   9.260   1.630  13.921 -0.1139 -0.1071 -0.2391
 1416W        W 5467   5.917   0.853  12.085  0.2125 -0.1206  0.1344
 1417W        W 5468   1.207   6.192  11.748 -0.2385  0.0009  0.1597
 1418W        W 5469   4.044   8.997  13.353 -0.2178 -0.1321  0.0132
 1419W        W 5470   2.079   7.004   0.362  0.0705  0.0019 -0.0802
 1420W        W 5471   7.875   1.174   2.030  0.2481 -0.0154 -0.1091
 1421W        W 5472   8.061   1.541   3.894  0.5108 -0.1001 -0.3377
 1422W        W 5473   4.558   8.886  12.650  0.0194  0.2108  0.0807
 1423W        W 5474   9.633   7.301   2.388 -0.0356  0.1365 -0.2324
 1424W        W 5475   5.451   0.703   2.269 -0.3025 -0.3086 -0.0926
 1425W        W 5476  10.093   2.621   4.006  0.2495 -0.1349 -0.0153
 1426W        W 5477   3.282   7.865  10.229 -0.1919 -0.1967 -0.1521
 1427W        W 5478   4.264   5.605   9.031  0.0352  0.2477 -0.1942
 1428W        W 5479   0.404   3.548   4.093  0.3354 -0.0640  0.1666
 1429W        W 5480   1.301   3.445  13.453 -0.1782 -0.2407  0.2175
 1430W        W 5481   3.955   2.908   3.837  0.1089  0.0145  0.1135
 1431W        W 5482   6.873   7.852  11.060  0.1496  0.2756 -0.1304
 1432W        W 5483   1.001   5.847  12.602 -0.2343 -0.0667 -0.1872
 1433W        W 5484   4.371   7.411  11.508 -0.0650  0.0870  0.0748
 1434W        W 5485   2.453   5.882  13.642  0.1734  0.1765  0.1747
 1435W        W 5486   4.691   6.077   1.158  0.1437  0.1230  0.3076
 1436W        W 5487   3.148   4.606   2.467 -0.1535 -0.0899 -0.2270
 1437W        W 5488   0.846   6.579   3.326  0.1067  0.3037  0.1813
 1438W        W 5489   2.304   7.702   4.025  0.2080  0.3291  0.0112
 1439W        W 5490   5.035   5.992  10.992 -0.0561 -0.0113  0.3133
 1440W        W 5491   4.764   7.274   8.640 -0.2547 -0.0521 -0.0175
 1441W        W 5492   4.735   6.240   2.259  0.0604 -0.1162 -0.0542
 1442W        W 5493   9.973   9.280   9.895  0.1868 -0.0328  0.0859
 1443W        W 5494   0.703   9.540   1.759 -0.0355  0.2255 -0.2041
 1444W        W 5495   2.491   3.727   5.030 -0.1145  0.2238 -0.0053
 1445W        W 5496   0.851   4.876  10.901 -0.1853  0.0139  0.0888
 1446W        W 5497   4.385   6.665   3.403 -0.0437  0.1530 -0.3818
 1447W        W 5498   0.143   4.386  10.433  0.3230  0.1185 -0.0739
 1448W        W 5499   8.111   8.452  10.751  0.0175  0.1253 -0.1910
 1449W        W 5500   2.392   5.645   1.931  0.0859  0.2987 -0.2221
 1450W        W 5501   0.517   6.056   2.618 -0.0299 -0.3218 -0.1187
 1451W        W 5502   6.671  10.118  13.840 -0.1968  0.2120  0.2953
 1452W        W 5503   8.593   0.431   3.895  0.1018  0.0645  0.1105
 1453W        W 5504   1.311   5.339   1.296  0.1599  0.1194  0.0781
 1454W        W 5505   5.412   6.502  10.167 -0.0461  0.0966 -0.2476
 1455W        W 5506   9.510   2.434  13.646  0.2478  0.4400  0.0612
 1456W        W 5507   1.551   7.573   1.407  0.1780  0.0485 -0.1723
 1457W        W 5508   6.920   3.672   3.861 -0.1755  0.2538 -0.2609
 1458W        W 5509   7.842   4.677   9.342  0.1908  0.2726 -0.1452
 1459W        W 5510   5.287   0.228   3.312 -0.0365  0.1747 -0.1255
 1460W        W 5511   6.033   0.634   0.896  0.0641 -0.1121  0.0115
 1461W        W 5512  10.089   5.910  13.521  0.3549  0.0539  0.0591
 1462W        W 5513   6.062   4.053   1.892 -0.3408  0.3381 -0.0625
 1463W        W 5514   6.000   0.105  11.722  0.0260  0.3000 -0.2154
 1464W        W 5515   5.150   5.172  10.129 -0.0463  0.3086  0.0358
 1465W        W 5516   6.374   9.123  13.720  0.0358  0.0878  0.4440
 1466W        W 5517   4.949   0.944  13.269  0.2118  0.2450  0.2314
 1467W        W 5518   8.898   3.189   3.310  0.2111  0.3011 -0.1389
 1468W        W 5519   9.844   2.180   0.101 -0.1353 -0.1004 -0.3328
 1469W        W 5520   5.123   6.928  12.118 -0.0638 -0.1332  0.0650
 1470W        W 5521   8.608   7.485   0.460  0.0872 -0.0664  0.2085
 1471W        W 5522   2.315   1.857  10.252 -0.7412  0.1136 -0.0922
 1472W        W 5523   0.123   9.587  11.253 -0.0421 -0.0833  0.2696
 1473W        W 5524   1.262   1.311   0.637  0.0678 -0.1075 -0.2360
 1474W        W 5525   6.122   1.569   9.371 -0.1716 -0.2864 -0.0508
 1475W        W 5526   4.557   6.343  12.488 -0.0318  0.0328  0.1002
 1476W        W 5527   1.893   8.754  10.880  0.3115 -0.0007 -0.3121
 1477W        W 5528   9.534   5.207   0.767  0.4289 -0.1062 -0.0219
 1478W        W 5529   4.684   1.907  12.745 -0.2390 -0.0521  0.3128
 1479W        W 5530   6.128   2.477  13.747  0.1472 -0.2205 -0.2473
 1480W        W 5531   7.511   4.156   5.316  0.0275  0.1302 -0.1219
 1481W        W 5532   8.476   0.522   4.848  0.0690  0.0362  0.0117
 1482W        W 5533   5.133   3.494   1.893 -0.1380  0.0393 -0.0480
 1483W        W 5534   8.278   1.346   0.663  0.1476 -0.1800 -0.0604
 1484W        W 5535   2.515   8.104   4.444  0.1800  0.1171 -0.2828
 1485W        W 5536   8.278   3.644   4.220 -0.1661  0.0356  0.0256
 1486W        W 5537   0.844   9.240   1.129  0.2842 -0.0788  0.1255
 1487W        W 5538   2.743   0.964  12.150  0.0199  0.0965 -0.2172
 1488W        W 5539   9.825   7.190   1.003 -0.1664 -0.1152 -0.3057
 1489W        W 5540   4.657   7.573   3.663 -0.0973  0.2572 -0.0287
 1490W        W 5541   5.777   7.883   3.556  0.1315 -0.2119  0.0317
 1491W        W 5542   3.833   3.404   9.907  0.3156 -0.1526  0.3920
 1492W        W 5543   6.241   8.036  12.604  0.0236  0.1846 -0.2350
 1493W        W 5544   3.484   2.889   3.859  0.1259 -0.1306  0.2411
 1494W        W 5545   9.371   1.405   9.840  0.0693 -0.1913 -0.0309
 1495W        W 5546   6.672   3.223   1.346 -0.0211 -0.1890 -0.0380
 1496W        W 5547   8.378   6.617   0.084 -0.2631 -0.2663  0.2283
 1497W        W 5548   9.943   4.684  10.518  0.0473  0.1609  0.3428
 1498W        W 5549   8.482   1.451   4.688 -0.0522 -0.1024  0.2046
 1499W        W 5550   6.043   7.593   4.387 -0.4157  0.2476  0.1718
 1500W        W 5551   0.180   3.661  11.085  0.2362  0.1305 -0.1871
 1501W        W 5552   9.576   7.468  11.119  0.0129 -0.0716  0.4172
 1502W        W 5553   1.260   7.179  10.534 -0.0264 -0.0300 -0.1869
 1503W        W 5554   2.403   9.902   1.510 -0.2799  0.2348  0.2404
 1504W        W 5555   2.534   9.624   3.603  0.0473  0.0703 -0.0730
 1505W        W 5556   4.959   1.918   3.970 -0.1392  0.0380 -0.1224
 1506W        W 5557   3.258   3.007  11.507 -0.0413 -0.3909 -0.1255
 1507W        W 5558   8.252   6.350  10.121  0.3288  0.0214  0.2880
 1508W        W 5559   6.710   0.382   0.229  0.0235  0.2341  0.1923
 1509W        W 5560   5.870   1.162   4.742  0.1118 -0.1146  0.1972
 1510W        W 5561   9.961   6.961   3.200  0.3683 -0.0366  0.0779
 1511W        W 5562   5.578   6.735   2.064 -0.1692 -0.0497 -0.0480
 1512W        W 5563   9.676   3.611   1.099  0.1991 -0.0126 -0.0503
 1513W        W 5564   8.799   5.206   0.052 -0.3606  0.0261 -0.0267
 1514W        W 5565   5.707  10.086  11.395 -0.0256  0.3821  0.0499
 1515W        W 5566   4.408   7.178   3.385  0.2838 -0.1565 -0.0419
 1516W        W 5567   1.677   6.788   1.707 -0.0870  0.1272  0.1012
 1517W        W 5568   3.153   4.846   2.005  0.4153  0.1782  0.1250
 1518W        W 5569   5.616  10.166   0.745  0.3010  0.1661 -0.0988
 1519W        W 5570   3.169   2.869  12.829  0.1579  0.3189 -0.2649
 1520W        W 5571   4.508   1.966   1.037 -0.2509 -0.2090 -0.1592
 1521W        W 5572   0.441   1.252   2.021  0.0556  0.2467 -0.2014
 1522W        W 5573   6.380   3.569  10.715 -0.3960 -0.1239  0.1881
 1523W        W 5574   8.080   3.099   2.705 -0.0836  0.0753 -0.0585
 1524W        W 5575   0.326   1.804  11.578  0.1452 -0.0651  0.0630
 1525W        W 5576   3.794   0.136  11.848  0.0550 -0.1624  0.1945
 1526W        W 5577   1.233   0.337   1.778 -0.4077 -0.1479  0.1769
 1527W        W 5578   6.318   0.488   9.455  0.0583  0.0811  0.1916
 1528W        W 5579   6.585   4.540   2.689 -0.1643 -0.0099  0.1574
 1529W        W 5580   7.283   7.857   0.576  0.1495  0.2091 -0.0607
 1530W        W 5581   8.287   9.760  12.995  0.0541 -0.2488  0.0933
 1531W        W 5582   0.712   6.578  13.744 -0.3124  0.2290 -0.3839
 1532W        W 5583   4.732   8.380   4.186  0.0863  0.1162 -0.2271
 1533W        W 5584   0.108   5.793  12.844 -0.0377 -0.2818  0.2918
 1534W        W 5585   3.316   9.668  11.251 -0.2122 -0.1000  0.4620
 1535W        W 5586   0.977   3.912  12.515 -0.1296 -0.0475 -0.3541
 1536W        W 5587   9.145   5.111  11.624 -0.0516  0.0459  0.1608
 1537W        W 5588   3.289   8.721  11.875 -0.0234  0.0920  0.0448
 1538W        W 5589   5.740   8.924  12.196  0.1131 -0.1611  0.2017
 1539W        W 5590   1.906   7.088   1.363  0.0251 -0.0906  0.1930
 1540W        W 5591   2.828   5.612  13.770  0.1336 -0.0551  0.0963
 1541W        W 5592   9.637   9.705   0.544 -0.4206  0.0347  0.1823
 1542W        W 5593   6.805   0.481  12.095  0.2607 -0.0914  0.0729
 1543W        W 5594   2.976   6.052   3.052  0.1306  0.2622 -0.0334
 1544W        W 5595   0.924   0.628   2.148 -0.2441 -0.1149 -0.0395
 1545W        W 5596   8.024   6.378   8.925  0.0681  0.0327 -0.0368
 1546W        W 5597   7.541   8.158   3.607 -0.0104  0.1724 -0.2685
 1547W        W 5598   3.147   9.202  11.171  0.1463 -0.2665 -0.0380
 1548W        W 5599   6.582   5.723  13.166  0.1172 -0.1388  0.2306
 1549W        W 5600   7.643   8.839   0.675 -0.3263  0.2395  0.0689
 1550W        W 5601   8.507   5.629  13.834 -0.0833 -0.1720  0.1546
 1551W        W 5602   3.656   6.505   1.337 -0.1904  0.1199 -0.2344
 1552W        W 5603   1.885   0.550   1.462  0.4169 -0.1618 -0.1007
 1553W        W 5604   3.763   5.915  11.261 -0.1771  0.0585 -0.1584
 1554W        W 5605   5.006   5.090  13.378  0.1109  0.3144  0.0007
 1555W        W 5606   8.680   1.712   0.753 -0.0319  0.1414 -0.0132
 1556W        W 5607   4.498   7.669  13.523  0.0679  0.0877  0.3642
 1557W        W 5608   6.907   5.025   2.103 -0.0802  0.2298  0.1048
 1558W        W 5609   3.341   4.752   2.957 -0.1751 -0.3843 -0.0228
 1559W        W 5610   3.420   7.801   4.415 -0.2920 -0.0933 -0.0198
 1560W        W 5611   1.705   5.546  12.799  0.3920  0.1473 -0.1388
 1561W        W 5612   8.787   8.624  10.714 -0.2191 -0.1395  0.1231
 1562W        W 5613   4.360   7.811  12.880 -0.0883 -0.0170 -0.0328
 1563W        W 5614   9.319   2.846  10.302 -0.1653  0.0880 -0.0108
 1564W        W 5615   7.114   2.497  11.308  0.0383 -0.1873 -0.3365
 1565W        W 5616   1.339   4.553   9.854 -0.0050  0.0183 -0.0250
 1566W        W 5617   4.210   3.309   5.261 -0.0563 -0.2136 -0.0422
 1567W        W 5618   9.265   1.082   1.662  0.0973  0.2928  0.1175
 1568W        W 5619   9.089   5.835   3.266  0.0021  0.0966 -0.0529
 1569W        W 5620   7.586   6.640   2.713 -0.0644 -0.0041  0.0095
 1570W        W 5621   2.616   4.416  10.020 -0.2033  0.3345 -0.2606
 1571W        W 5622   3.514   2.193  11.243 -0.1449 -0.1637  0.0981
 1572W        W 5623   5.798   3.561   1.728 -0.0040  0.0689  0.0321
 1573W        W 5624   0.241   2.141   2.896  0.2576 -0.0849  0.0361
 1574W        W 5625   4.831   9.741   2.267 -0.0740 -0.1318  0.3505
 1575W        W 5626   0.928   3.883   2.019 -0.2597 -0.3760 -0.0489
 1576W        W 5627   3.074   9.288   5.132 -0.3814  0.1415 -0.1019
 1577W        W 5628   7.672   9.239   2.497 -0.0026  0.1882  0.1284
 1578W        W 5629   8.857   4.252   1.203 -0.1275 -0.0472  0.1463
 1579W        W 5630   3.353   2.578   8.600 -0.0441  0.3142 -0.1602
 1580W        W 5631   9.142   2.739  13.885 -0.1550  0.2340 -0.1547
 1581W        W 5632   3.128   4.433  11.698  0.0875 -0.0861  0.0491
 1582W        W 5633   8.609   5.602  12.839 -0.0885 -0.1380  0.0974
 1583W        W 5634   9.093   3.714   3.168  0.0302 -0.1870 -0.1458
 1584W        W 5635   5.853   7.803  12.941 -0.5315  0.1330 -0.1324
 1585W        W 5636   5.549   0.043   0.212  0.0703  0.2120  0.0746
 1586W        W 5637   0.193   7.869   1.234 -0.0428 -0.1612  0.3636
 1587W        W 5638   0.751   2.325   5.154 -0.4896  0.1682 -0.2677
 1588W        W 5639   8.893   9.575   2.184 -0.1314 -0.1782  0.1473
 1589W        W 5640   9.029   0.381  10.964 -0.0367  0.0908 -0.1400
 1590W        W 5641   4.345   1.387  12.061 -0.0476 -0.0614  0.0479
 1591W        W 5642   6.912   8.979   1.136  0.2528  0.1792 -0.1004
 1592W        W 5643   8.276   0.890  10.572  0.1497 -0.0724 -0.1966
 1593W        W 5644   3.119   2.463   3.736 -0.3095 -0.1407 -0.0336
 1594W        W 5645   4.936   7.886   4.061 -0.0410 -0.0158  0.1530
 1595W        W 5646  10.200   8.935  12.607  0.1043  0.1242  0.0449
 1596W        W 5647   6.386   1.396   4.022 -0.1119 -0.1508 -0.1167
 1597W        W 5648   8.243   4.821   1.603  0.0027 -0.0103 -0.2763
 1598W        W 5649   0.518   4.422   2.980 -0.2809 -0.3222 -0.2659
 1599W        W 5650   1.966   0.897   0.297 -0.0101 -0.1208  0.1187
 1600W        W 5651   9.911  10.157   3.261 -0.1360 -0.4779 -0.1524
 1601W        W 5652   7.437   6.553  13.637  0.1317  0.3069 -0.1508
 1602W        W 5653   4.367   0.839  10.274  0.0677 -0.2988 -0.2883
 1603W        W 5654   2.240  10.020   3.409  0.2340  0.1726  0.1702
 1604W        W 5655   3.717   5.683  10.403 -0.1162 -0.2345 -0.1249
 1605W        W 5656   1.682   2.654  10.078  0.0445  0.0826  0.1053
 1606W        W 5657  10.065   3.916  10.674  0.1851 -0.2612 -0.2196
 1607W        W 5658   0.634   2.493  12.396 -0.1209  0.3007 -0.0221
 1608W        W 5659   6.542   0.830  10.268  0.2717  0.1893  0.1469
 1609W        W 5660   9.889   8.501   1.128  0.1439  0.1469  0.3440
 1610W        W 5661   1.760   7.461   0.545 -0.1007  0.0114  0.2192
 1611W        W 5662   1.147   7.905   3.574 -0.0969  0.3467  0.2476
 1612W        W 5663   9.286   6.154   0.900 -0.0870 -0.0771  0.4263
 1613W        W 5664   1.149   5.512   0.707 -0.0835 -0.1798 -0.0488
 1614W        W 5665   8.288   2.009   1.806  0.0584  0.4052 -0.1599
 1615W        W 5666   2.261   1.715  11.475 -0.1486 -0.1286 -0.0395
 1616W        W 5667   9.076   4.523  13.516  0.2391  0.0213  0.0884
 1617W        W 5668   0.339   9.222  13.043 -0.0656  0.0539  0.2551
 1618W        W 5669   5.667   2.182  13.360  0.3169  0.2137  0.3860
 1619W        W 5670   9.393   4.526  10.407  0.3390 -0.1130 -0.0661
 1620W        W 5671   0.889   7.567  11.933 -0.1701 -0.1280  0.1225
 1621W        W 5672  10.054   0.969   4.304 -0.0207 -0.1011  0.2045
 1622W        W 5673   3.088   1.475  11.858  0.3187  0.3936 -0.0201
 1623W        W 5674   8.781   6.920  11.355  0.0482  0.0784 -0.1941
 1624W        W 5675   2.016   2.642  13.439 -0.2366  0.2511  0.3193
 1625W        W 5676   3.850   8.586  11.604 -0.0766 -0.2585 -0.3100
 1626W        W 5677   9.933   1.593  10.338 -0.0214  0.0899  0.3318
 1627W        W 5678   9.023   3.490   0.398  0.1857  0.2482 -0.0511
 1628W        W 5679   6.465   3.195  11.939  0.0364  0.0390  0.2866
 1629W        W 5680   8.253   4.782   0.765  0.0625  0.2246  0.0129
 1630W        W 5681   3.887   7.816   2.136  0.1916 -0.0158 -0.0942
 1631W        W 5682   8.135   1.363  12.865  0.0372 -0.1600 -0.2461
 1632W        W 5683   0.977   7.605   9.893 -0.1409  0.0623  0.1216
 1633W        W 5684   8.471   4.620  10.695 -0.0684  0.3449  0.1545
 1634W        W 5685   1.408  10.185   0.304 -0.1499 -0.1307 -0.0696
 1635W        W 5686   3.154   1.293  12.349 -0.3179  0.3168 -0.0489
 1636W        W 5687   7.025   4.450  11.925  0.0943  0.0543  0.1659
 1637W        W 5688   3.132   8.285  11.265  0.1085 -0.0407 -0.1519
 1638W        W 5689   4.747   9.639  13.254  0.2926 -0.0376 -0.2441
 1639W        W 5690   6.879   4.175   1.834  0.2267 -0.0038 -0.1164
 1640W        W 5691   8.712   0.760   2.990  0.2908 -0.0340  0.1231
 1641W        W 5692   2.657   2.438  10.811  0.1783 -0.0620 -0.2069
 1642W        W 5693   8.627   5.709   9.912 -0.0105  0.1080 -0.1119
 1643W        W 5694   5.917   9.338  10.040 -0.3719  0.0830 -0.2060
 1644W        W 5695   2.813   3.836   3.223 -0.0098 -0.0749 -0.2519
 1645W        W 5696   0.331   8.860  10.705 -0.0650 -0.0448  0.0772
 1646W        W 5697   4.517   3.901  12.960  0.0064  0.1509 -0.1904
 1647W        W 5698   7.051   8.019  13.679  0.0238  0.2587 -0.1356
 1648W        W 5699   9.761   9.433   2.943  0.1674  0.2229  0.0412
 1649W        W 5700   6.047   6.507   4.718  0.2634  0.1156  0.2024
 1650W        W 5701   4.231   6.264  10.895  0.1403 -0.4314  0.2402
 1651W        W 5702   4.980   4.817   3.452 -0.3684 -0.1065 -0.0110
 1652W        W 5703   2.393  10.051  10.751 -0.0683 -0.0545  0.0381
 1653W        W 5704   5.427   7.215  11.909 -0.1504  0.5228  0.0029
 1654W        W 5705   7.720   9.238  13.743  0.2617 -0.1682  0.1571
 1655W        W 5706   7.026   6.951  12.689  0.0992 -0.1705  0.0320
 1656W        W 5707   3.971   3.458  11.184  0.1471  0.1304 -0.0029
 1657W        W 5708   9.445   7.788   3.315 -0.1876 -0.1433 -0.1219
 1658W        W 5709   0.538   1.743  13.280 -0.0536  0.2414 -0.2062
 1659W        W 5710   3.579   5.786   9.707 -0.2910 -0.0670  0.0678
 1660W        W 5711   7.236   6.607   2.367  0.4144 -0.0460  0.3438
 1661W        W 5712   4.046  10.182   3.702  0.0877  0.0189 -0.1766
 1662W        W 5713   7.586   2.935  10.336  0.0092  0.0440  0.2893
 1663W        W 5714   5.816   0.378   2.600  0.0964  0.2138 -0.0907
 1664W        W 5715   8.161   2.326   9.371 -0.1333 -0.3928 -0.0935
 1665W        W 5716   5.549   1.530   4.748 -0.1861 -0.3356  0.2473
 1666W        W 5717   0.343   2.821   2.257 -0.1339  0.1760  0.1343
 1667W        W 5718   8.609   3.344  11.302 -0.0764 -0.0947 -0.1853
 1668W        W 5719   5.593   9.917  10.265  0.2710 -0.0313 -0.2370
 1669W        W 5720   5.098   6.228   0.373 -0.1165 -0.1217 -0.0265
 1670W        W 5721   9.301   9.231   0.860  0.0680  0.1065 -0.4636
 1671W        W 5722   6.582   3.050  13.111 -0.1280 -0.2125 -0.1286
 1672W        W 5723   6.146   1.250   2.727 -0.2407 -0.0931 -0.0665
 1673W        W 5724   8.828   2.354   0.213 -0.1431 -0.0014 -0.0025
 1674W        W 5725   4.746   5.315  12.971  0.1051 -0.1311 -0.1489
 1675W        W 5726   0.922   1.124   1.981 -0.1135 -0.0643  0.0360
 1676W        W 5727   9.457   7.206   9.987 -0.1200 -0.0044  0.2284
 1677W        W 5728   1.365   9.008   2.785  0.1206  0.0082 -0.0710
 1678W        W 5729   4.500   8.878  13.592 -0.0971  0.0526 -0.1050
 1679W        W 5730   8.962   7.694   1.968 -0.1304  0.1437 -0.0033
 1680W        W 5731   9.869   9.416  10.526 -0.2249  0.1664 -0.0704
 1681W        W 5732   9.839   1.166   1.120  0.1325  0.1367 -0.2409
 1682W        W 5733   4.320   8.002   1.987 -0.2902 -0.0451 -0.1181
 1683W        W 5734   1.694   6.480   3.589 -0.1103  0.1165  0.0633
 1684W        W 5735   4.017   6.219   2.242  0.4691  0.0160 -0.0089
 1685W        W 5736   8.988   1.252   5.204 -0.1580  0.0535  0.1034
 1686W        W 5737   3.340   0.843  12.245  0.1518 -0.0211  0.1073
 1687W        W 5738   4.354   2.030   4.265 -0.0947 -0.3016 -0.0108
 1688W        W 5739   1.808   8.233   9.721 -0.0273 -0.1127 -0.1001
 1689W        W 5740   0.253   8.616   0.847 -0.3671  0.1122 -0.1440
 1690W        W 5741   8.644   8.137  13.026 -0.0632  0.0574 -0.0877
 1691W        W 5742   8.161   7.161  12.049  0.0879  0.0123  0.3711
 1692W        W 5743   8.858   3.454  12.512  0.0043  0.2943 -0.0025
 1693W        W 5744   4.144   2.413   4.852 -0.0769  0.0142  0.2984
 1694W        W 5745   5.418   9.372  13.174  0.3742  0.1399  0.2246
 1695W        W 5746   6.501   2.821   3.940 -0.2251 -0.4248 -0.3229
 1696W        W 5747   5.470   3.427  13.297 -0.1748  0.1758 -0.0956
 1697W        W 5748   6.509   8.711   1.376  0.0025 -0.0944 -0.2164
 1698W        W 5749   2.966   1.272   1.022  0.0720 -0.0649 -0.0463
 1699W        W 5750   6.223   1.459  12.108 -0.1740  0.1558  0.2856
 1700W        W 5751   2.056   9.070   9.141  0.2542 -0.2098 -0.0969
 1701W        W 5752   8.831   9.931  12.890  0.2739  0.1652 -0.0201
 1702W        W 5753   2.050   0.352  12.015  0.1553  0.1311 -0.1249
 1703W        W 5754   9.663   1.769   4.086  0.1633 -0.0773 -0.0707
 1704W        W 5755   4.234   2.692   8.763  0.0508  0.1479 -0.1857
 1705W        W 5756   9.018   4.178   2.525 -0.1696 -0.1110 -0.0164
 1706W        W 5757   9.306   8.647  12.358  0.1465 -0.0160  0.1290
 1707W        W 5758   2.224   1.172  10.747 -0.0512 -0.0193  0.1373
 1708W        W 5759   0.664   5.104   9.882 -0.0740 -0.1982 -0.1420
 1709W        W 5760   0.429   4.032  10.779 -0.0447  0.1500 -0.0063
 1710W        W 5761   8.816   2.590   1.644 -0.1918 -0.1752 -0.3168
 1711W        W 5762   0.848   9.706  13.074 -0.3482  0.0268  0.0058
 1712W        W 5763   7.255   6.120  10.765  0.0531  0.0052 -0.2664
 1713W        W 5764   9.405   7.554   2.790  0.0224  0.3263 -0.2183
 1714W        W 5765   0.594   7.600  10.964  0.1413  0.0677  0.0370
 1715W        W 5766   1.980   9.359   2.409 -0.1792 -0.0494 -0.1764
 1716W        W 5767   3.955   1.565   0.367 -0.2966 -0.1237  0.0678
 1717W        W 5768   0.942   9.991  12.642 -0.0040 -0.3267 -0.0879
 1718W        W 5769   2.342   6.496  12.034  0.2838  0.2577 -0.2182
 1719W        W 5770   4.881   3.668   9.301  0.2191 -0.1181 -0.1346
 1720W        W 5771   2.668   0.090   2.609 -0.1663  0.4332  0.0239
 1721W        W 5772   5.824   2.790  12.525 -0.1800  0.0045 -0.1234
 1722W        W 5773   8.368   8.154   4.370 -0.0395 -0.1600 -0.4270
 1723W        W 5774   0.212   3.122   9.420 -0.0712  0.1041  0.2598
 1724W        W 5775   6.237   0.396  13.274  0.1624 -0.1213  0.1857
 1725W        W 5776   7.061   1.232   5.801  0.3709 -0.0597  0.0160
 1726W        W 5777   6.451   0.900   3.887  0.1318  0.0594 -0.0128
 1727W        W 5778   6.382   2.116   3.742  0.2607 -0.3208  0.2677
 1728W        W 5779   6.249   2.593  12.068 -0.1684 -0.0498  0.0956
 1729W        W 5780   7.653   1.814   1.318 -0.0093 -0.1154  0.0017
 1730W        W 5781   3.231   1.781  11.336 -0.3234  0.2995  0.3623
 1731W        W 5782   5.186   4.250  10.061  0.0546  0.0572  0.4116
 1732W        W 5783   4.165   5.044  12.228 -0.1144  0.1458 -0.0194
 1733W        W 5784   9.456   5.716   0.093 -0.1175 -0.0463  0.0746
 1734W        W 5785   3.456   3.852   1.099 -0.0323  0.1161  0.0389
 1735W        W 5786   2.843   3.682  13.678  0.1198 -0.0871  0.0834
 1736W        W 5787   4.930   8.242   4.625  0.1814  0.0466  0.0606
 1737W        W 5788   2.611   1.623   3.409  0.2946 -0.1122 -0.2746
 1738W        W 5789   8.871   9.499   3.809  0.1761 -0.0371  0.3167
 1739W        W 5790   3.798   4.192   0.247 -0.0389 -0.2756 -0.1557
 1740W        W 5791   4.707   8.353   2.539 -0.3165  0.0718 -0.4304
 1741W        W 5792   1.933   5.840  10.465 -0.2282  0.1031  0.0868
 1742W        W 5793   3.750   1.044   4.127  0.1607 -0.1307  0.0084
 1743W        W 5794   3.060   2.807   2.812  0.0503  0.1578  0.0446
 1744W        W 5795   0.287   6.713  12.462  0.0767 -0.0545  0.0151
 1745W        W 5796   5.599   3.260   0.275 -0.3989 -0.2269 -0.2628
 1746W        W 5797   4.338   2.960   5.644  0.1117  0.0819 -0.2311
 1747W        W 5798   7.790   1.005   3.537 -0.2532 -0.0028  0.3129
 1748W        W 5799   5.022  10.175   4.538  0.2796  0.3615 -0.3393
 1749W        W 5800   2.855   8.760   3.836  0.1549 -0.0387  0.1171
 1750W        W 5801   0.528   3.517   1.160 -0.3362 -0.1753 -0.0688
 1751W        W 5802   8.563   2.748  12.094 -0.0810 -0.0845  0.1349
 1752W        W 5803   6.750   3.921  10.974  0.0224 -0.0641 -0.1646
 1753W        W 5804   6.207   8.619  10.394 -0.2769  0.0082  0.1802
 1754W        W 5805   1.282   2.681  11.913 -0.0121  0.1725  0.1773
 1755W        W 5806   1.661   8.793  11.784 -0.1274 -0.1146 -0.0249
 1756W        W 5807   8.164   2.440   3.704 -0.2789  0.2750  0.3389
 1757W        W 5808   6.518   3.883   1.984  0.0307  0.0674  0.0819
 1758W        W 5809   3.724   3.621  12.437  0.2912  0.2240 -0.2062
 1759W        W 5810   1.232   6.201   1.285 -0.1028 -0.0936 -0.2022
 1760W        W 5811   0.881   7.093   2.433  0.1419  0.0026 -0.2284
 1761W        W 5812   3.516   8.641   1.949 -0.3256  0.1954  0.0772
 1762W        W 5813   3.556   9.028  13.244  0.0700 -0.1401 -0.1595
 1763W        W 5814   0.326   4.618   0.470 -0.0229  0.1483 -0.2312
 1764W        W 5815   1.913  10.045  12.072  0.1208  0.0899  0.2779
 1765W        W 5816   9.909   4.197   3.817  0.1012  0.0946 -0.0851
 1766W        W 5817   2.912   4.846  12.642 -0.3215  0.2377  0.1395
 1767W        W 5818   7.764   7.741   3.451 -0.0987  0.0006  0.0911
 1768W        W 5819  10.093   2.357  12.956 -0.2553  0.2587 -0.0189
 1769W        W 5820   4.214   8.721  12.047 -0.2770  0.2992  0.1064
 1770W        W 5821   1.869   9.390  11.346  0.1452 -0.1667 -0.0922
 1771W        W 5822   4.017   7.285   3.102 -0.0281  0.3351  0.1848
 1772W        W 5823   3.644   5.159   4.773 -0.0687  0.0060  0.1444
 1773W        W 5824   7.784   3.031  11.765 -0.0297  0.2144 -0.1013
 1774W        W 5825   5.493   9.111   9.824  0.1989  0.0883  0.6016
 1775W        W 5826   6.579   3.669   4.895  0.0607 -0.0825 -0.0621
 1776W        W 5827   2.807   6.479   2.760  0.3970 -0.2545  0.0692
 1777W        W 5828   2.024   8.324  11.046 -0.1275  0.0783  0.0236
 1778W        W 5829   3.472   1.365  13.212 -0.0176 -0.0410 -0.1071
 1779W        W 5830   8.943   0.649   1.729  0.1492  0.1881  0.2236
 1780W        W 5831   0.950   5.224   3.825 -0.1178 -0.4418  0.1696
 1781W        W 5832   8.089   3.514   1.195 -0.1167  0.3034  0.2857
 1782W        W 5833   6.730   5.354  11.126  0.1295  0.0571 -0.1360
 1783W        W 5834   7.417   8.451   3.006  0.1702 -0.0809  0.1486
 1784W        W 5835   5.645   7.635  11.323 -0.0477  0.1316  0.3043
 1785W        W 5836   7.456   7.426  11.874  0.1723  0.1167  0.1525
 1786W        W 5837   3.833   5.586  11.731  0.4440 -0.2185  0.0332
 1787W        W 5838   0.023   1.585  13.530 -0.1199 -0.2227  0.3380
 1788W        W 5839   9.898  10.076  11.869 -0.1522  0.2080  0.3978
 1789W        W 5840   6.032   7.411   1.863 -0.4340  0.0219 -0.1318
 1790W        W 5841   5.852   6.918   4.462 -0.1100 -0.1292 -0.1267
 1791W        W 5842   7.382   6.490   1.842  0.0316  0.3155 -0.0331
 1792W        W 5843   4.873   2.969   3.571  0.0384 -0.0580  0.0124
 1793W        W 5844   8.951   8.854   4.087 -0.2515 -0.2233  0.1663
 1794W        W 5845   0.608   1.794  10.712  0.0479 -0.4356 -0.2423
 1795W        W 5846   9.333   8.916   2.776  0.1978  0.0813 -0.0728
 1796W        W 5847   0.946   9.473   3.529 -0.3358  0.3160 -0.1921
 1797W        W 5848   9.273   1.648   2.648 -0.2744 -0.3184  0.4004
 1798W        W 5849   6.941   4.669  12.470  0.2514  0.0787  0.3344
 1799W        W 5850   3.901   5.865  13.652 -0.1337 -0.1876  0.1083
 1800W        W 5851   0.172   6.260  12.675 -0.0359  0.1287 -0.1217
 1801W        W 5852   0.438   5.360   0.509 -0.1160 -0.0912  0.4860
 1802W        W 5853   8.532   8.797   1.629  0.3144  0.0679 -0.0750
 1803W        W 5854   0.974   3.937   1.523  0.0304 -0.0365 -0.1858
 1804W        W 5855   1.184   9.256  11.096  0.3195 -0.3255  0.3590
 1805W        W 5856   5.149   4.264   1.830 -0.1862 -0.1882 -0.0059
 1806W        W 5857   3.749   7.125   4.398 -0.2251  0.2720 -0.2615
 1807W        W 5858   8.177   6.428  12.618 -0.0655 -0.0431  0.3467
 1808W        W 5859   2.160   0.640   2.710 -0.1913  0.1254  0.1082
 1809W        W 5860   0.834  10.153   9.831 -0.1321  0.0103 -0.0192
 1810W        W 5861   2.699   2.138  12.282 -0.0944  0.2829 -0.1265
 1811W        W 5862   2.263   1.872   3.132 -0.0477  0.0519  0.1030
 1812W        W 5863   8.135   9.157   0.657  0.1336 -0.1344  0.0694
 1813W        W 5864   8.061   8.042  13.770  0.3074 -0.0571 -0.0819
 1814W        W 5865   5.328  10.152   4.137 -0.0255 -0.0367  0.4523
 1815W        W 5866   3.920   1.489   1.326  0.0003 -0.1922 -0.0966
 1816W        W 5867   1.877   3.706   3.247  0.4058  0.0144 -0.0509
 1817W        W 5868   4.996   5.162   9.663  0.1517  0.0553  0.0209
 1818W        W 5869   1.366   8.944   1.836 -0.3308 -0.3260  0.1849
 1819W        W 5870   4.646   2.138   2.057 -0.2148  0.0323 -0.3236
 1820W        W 5871   0.276   6.398   3.687  0.2038 -0.3281 -0.3427
 1821W        W 5872   1.982   1.892   2.430 -0.0671 -0.0541 -0.2419
 1822W        W 5873  10.042   3.851   4.612  0.2029 -0.0040  0.0539
 1823W        W 5874   4.316   9.174   0.476  0.0699  0.1386  0.2773
 1824W        W 5875   8.950   3.104   0.801 -0.0769 -0.1429  0.0351
 1825W        W 5876   9.650   8.434  13.567  0.0575 -0.2639 -0.0787
 1826W        W 5877   1.618   6.281   2.326 -0.1013  0.1595 -0.2380
 1827W        W 5878   6.240   0.686   1.707 -0.4204  0.0090  0.0766
 1828W        W 5879   0.286   0.568   3.123 -0.2630 -0.0638  0.2000
 1829W        W 5880   2.990   3.057   0.772 -0.0232  0.0426 -0.0786
 1830W        W 5881   2.333   1.278   1.729 -0.1687  0.2492  0.0931
 1831W        W 5882   3.976   0.281   1.029  0.0989  0.0026  0.1827
 1832W        W 5883   3.235   3.992   1.548 -0.0333  0.2332 -0.0214
 1833W        W 5884   4.116   6.541   4.471 -0.2136 -0.0403 -0.0760
 1834W        W 5885   8.500   1.908   2.687 -0.0844  0.2795  0.0286
 1835W        W 5886   1.025   1.025   3.493 -0.1934  0.1789  0.0324
 1836W        W 5887   7.268   5.261   0.824  0.1364 -0.1866  0.3285
 1837W        W 5888   8.839   4.152   5.018  0.3088 -0.1617 -0.0243
 1838W        W 5889   2.527   6.065   1.274 -0.0192 -0.2018 -0.2486
 1839W        W 5890   3.430   1.974   4.017  0.1501 -0.1779  0.2802
 1840W        W 5891   0.666   8.682   1.179 -0.1196  0.1344  0.0100
 1841W        W 5892   4.756   2.944   3.099  0.1370 -0.1636  0.0655
 1842W        W 5893   2.599   4.278  11.849  0.0976  0.0103  0.2459
 1843W        W 5894   1.827   0.922  12.694  0.2657  0.2875 -0.1192
 1844W        W 5895   4.581   5.363   0.058 -0.2836 -0.1092  0.1630
 1845W        W 5896   0.838   8.684  12.925 -0.3878 -0.1144 -0.0993
 1846W        W 5897   8.568   7.594  10.572  0.1594 -0.1191 -0.4014
 1847W        W 5898   8.314   6.015   1.349  0.0184 -0.3639 -0.3434
 1848W        W 5899   3.157   0.504   1.480 -0.0027 -0.1679 -0.1123
 1849W        W 5900   0.686   2.302  13.252  0.1427 -0.2471  0.2519
 1850W        W 5901   8.578   1.183  10.229  0.1738  0.0368 -0.3614
 1851W        W 5902   3.353   0.547   3.895 -0.4384 -0.0033 -0.0929
 1852W        W 5903   9.705   0.671  11.510 -0.0797 -0.2528  0.1808
 1853W        W 5904   5.771   4.773   4.355 -0.0043 -0.0915  0.0665
 1854W        W 5905   1.717   4.740  11.763  0.1169  0.0163 -0.1696
 1855W        W 5906   8.153   2.501  12.055 -0.1279  0.0806  0.1723
 1856W        W 5907   4.345   9.884   4.014 -0.0914  0.0881  0.2789
 1857W        W 5908   0.198   7.549   9.878  0.0864 -0.0918 -0.0228
 1858W        W 5909   1.085   3.381   0.413  0.2347  0.0679 -0.2012
 1859W        W 5910   0.344   3.758   0.742 -0.1232 -0.1465 -0.0295
 1860W        W 5911   6.322   6.771  10.124  0.0118 -0.2469 -0.3808
 1861W        W 5912   4.402   2.581  11.048 -0.1562 -0.0922  0.0157
 1862W        W 5913   8.940   6.392   9.692  0.0606  0.0013  0.2593
 1863W        W 5914   7.032   1.708   1.228  0.0201 -0.1758  0.0261
 1864W        W 5915   2.226   2.195  13.789 -0.0025  0.0432  0.0241
 1865W        W 5916   3.966   7.622   4.346 -0.1088  0.2032  0.0431
 1866W        W 5917   5.126   0.487   8.912 -0.1450  0.0584  0.2620
 1867W        W 5918   9.866   3.123   4.724 -0.0556  0.3354 -0.0675
 1868W        W 5919   5.188   5.243   1.423  0.1395 -0.5401 -0.1545
 1869W        W 5920   0.519   8.525   2.902  0.1903  0.0741  0.2317
 1870W        W 5921   2.463   7.151  11.666  0.0188 -0.0116 -0.1216
 1871W        W 5922   1.566   3.405  11.957 -0.2319 -0.1522  0.3148
 1872W        W 5923   5.495   2.193   2.363 -0.5746  0.2618 -0.0261
 1873W        W 5924   5.514   5.470  11.732 -0.2244 -0.0070 -0.2060
 1874W        W 5925   6.950   7.150   0.186  0.0802 -0.0347  0.2572
 1875W        W 5926   6.049   3.620   3.785 -0.0700  0.1212 -0.2679
 1876W        W 5927   5.599   7.670   2.018 -0.3146 -0.0036  0.2574
 1877W        W 5928   3.702   0.078   2.361 -0.3088  0.5990  0.2574
 1878W        W 5929   6.007   9.261   1.004 -0.0535 -0.1211  0.0280
 1879W        W 5930   6.487   7.398  11.899 -0.0801  0.2216 -0.0550
 1880W        W 5931   2.121   1.931   5.510 -0.2129 -0.0420  0.0381
 1881W        W 5932   2.803   5.299  12.475 -0.0964  0.1725 -0.0023
 1882W        W 5933   4.297   3.115  11.086 -0.0756  0.2073 -0.2061
 1883W        W 5934   8.589   1.746   3.380  0.1534  0.3801 -0.2995
 1884W        W 5935   2.037   6.437   3.936 -0.0239  0.0665  0.2233
 1885W        W 5936   1.492   1.534  13.813  0.0567  0.2001  0.2024
 1886W        W 5937   8.873   5.389   3.764 -0.1366  0.4743 -0.1499
 1887W        W 5938   3.150   9.472  12.167 -0.1366 -0.0650  0.2053
 1888W        W 5939   2.603   2.282   0.268  0.1429 -0.0556 -0.0418
 1889W        W 5940   8.001   1.385   1.092  0.0664 -0.1614 -0.4319
 1890W        W 5941   6.387   4.526   9.931 -0.1894 -0.0652 -0.0923
 1891W        W 5942   3.010   4.570   0.872  0.0333 -0.1327 -0.2141
 1892W        W 5943   3.651   9.487   2.692  0.0518 -0.0578 -0.1475
 1893W        W 5944   8.334   1.993   3.855  0.1305  0.1627 -0.1297
 1894W        W 5945   2.226   6.296   0.943 -0.1076 -0.0436  0.0926
 1895W        W 5946   5.817   5.486  11.164 -0.1086  0.0358  0.0912
 1896W        W 5947   9.511   8.184  12.740 -0.1901  0.0244  0.0740
 1897W        W 5948   8.986   7.683   1.327  0.0928 -0.1631 -0.1793
 1898W        W 5949   5.362   2.428  10.415  0.1054 -0.3490  0.1098
 1899W        W 5950   8.251   1.266   3.500  0.1601  0.0766 -0.0015
 1900W        W 5951   9.395   6.397  11.951 -0.1336  0.1481 -0.2626
 1901W        W 5952   8.968   8.804   0.842 -0.0211 -0.1340 -0.1075
 1902W        W 5953   8.425   0.110   0.093 -0.3046  0.4278  0.1434
 1903W        W 5954   6.273   3.119   1.905  0.2083 -0.4461 -0.3430
 1904W        W 5955   3.342   6.621   2.541 -0.1739 -0.2304  0.3110
 1905W        W 5956   6.165   5.331   2.328  0.1883 -0.2926  0.2523
 1906W        W 5957   2.137   5.915  11.402 -0.0965 -0.2331 -0.2739
 1907W        W 5958   7.682   9.235   5.228  0.0870  0.1686 -0.1165
 1908W        W 5959   6.959   1.976  11.034 -0.0466 -0.3935 -0.0397
 1909W        W 5960   4.154   6.106  10.363 -0.0637 -0.0290  0.2274
 1910W        W 5961   8.117   5.927   9.872  0.0203 -0.1174  0.3352
 1911W        W 5962   1.574   6.129   3.276  0.2591  0.0941  0.0500
 1912W        W 5963   2.012   3.506  10.176 -0.1729 -0.1171  0.0847
 1913W        W 5964   5.920   3.136   2.238  0.0006 -0.1275 -0.1280
 1914W        W 5965   7.501   9.675  13.586 -0.0093  0.1403 -0.1426
 1915W        W 5966   4.715   4.767  11.083 -0.1062 -0.0739 -0.1033
 1916W        W 5967   6.042   3.112   9.944  0.1453 -0.4545 -0.0213
 1917W        W 5968   0.147   8.848   2.627  0.0904 -0.1547  0.0298
 1918W        W 5969   3.520   5.271   1.061  0.1932  0.3572  0.2959
 1919W        W 5970   1.997   7.917   3.013 -0.1567  0.1648 -0.1012
 1920W        W 5971   8.737   4.191   2.070  0.1666  0.2318 -0.1010
 1921W        W 5972   4.505   9.468   4.297 -0.1299  0.1336 -0.0939
 1922W        W 5973   3.113   5.970  12.902 -0.1200  0.1143  0.1543
 1923W        W 5974  10.006   5.712   2.136  0.3129  0.2336 -0.1833
 1924W        W 5975   7.379   0.616  12.294 -0.0162  0.0781  0.1264
 1925W        W 5976   6.094   6.650   4.106  0.0816  0.1122 -0.3742
 1926W        W 5977   8.182   3.738  11.829  0.0092  0.2482 -0.1099
 1927W        W 5978   1.930   8.741  12.290 -0.1960  0.3261 -0.0237
 1928W        W 5979   2.089   9.817  12.631 -0.0790 -0.1819 -0.3403
 1929W        W 5980   1.439   3.189  10.044  0.2581  0.2559 -0.1151
 1930W        W 5981   8.046   8.787  12.530  0.3043 -0.0187  0.1641
 1931W        W 5982   6.314   9.034   9.850 -0.2462  0.0022 -0.4282
 1932W        W 5983   9.005   2.586   4.442  0.1076 -0.2686  0.2085
 1933W        W 5984   2.782   7.512   0.417 -0.1861 -0.0807  0.1029
 1934W        W 5985   1.993   4.069  13.516 -0.2041  0.0134 -0.1862
 1935W        W 5986   5.546   6.995  12.376 -0.4790 -0.1875 -0.3550
 1936W        W 5987   9.323   9.952  12.877 -0.0074  0.1016  0.0144
 1937W        W 5988   1.862   7.424   3.225  0.1550  0.2531  0.0548
 1938W        W 5989   2.943   7.983  12.119 -0.2445  0.3567 -0.2579
 1939W        W 5990   2.124   3.080  13.692 -0.0692  0.1279 -0.0160
 1940W        W 5991   1.616   5.036  12.449  0.0149 -0.2451 -0.0652
 1941W        W 5992   9.082   6.901   0.340  0.1942  0.1574 -0.0937
 1942W        W 5993   8.227   1.082   5.481  0.1440 -0.1713  0.1133
 1943W        W 5994   7.542   8.754   9.990 -0.0698 -0.1364  0.0394
 1944W        W 5995   2.179   7.890   0.273 -0.1007  0.0796 -0.0024
 1945W        W 5996   8.407   6.105  13.913 -0.3313  0.1137  0.0931
 1946W        W 5997   1.944   9.900   5.127 -0.1433 -0.0147  0.0457
 1947W        W 5998   0.026   7.168  13.662 -0.2572 -0.2225  0.0746
 1948W        W 5999   3.004   3.230  11.951 -0.3006  0.3501  0.0316
 1949W        W 6000   4.133   6.756  11.758 -0.0075  0.0948  0.1981
 1950W        W 6001   9.084   6.304   1.404 -0.0283 -0.1591  0.0819
 1951W        W 6002   9.153   7.284   3.629  0.1977  0.0024  0.0098
 1952W        W 6003   7.890   4.641   9.942 -0.0356 -0.0136  0.0841
 1953W        W 6004   0.085   5.674  10.090  0.0882 -0.2884 -0.2279
 1954W        W 6005   2.822   9.451  11.456 -0.2328 -0.1521  0.1992
 1955W        W 6006   1.089   9.742   1.008  0.0784 -0.3938  0.1246
 1956W        W 6007   4.234   7.714   0.035 -0.1838 -0.3327  0.0944
 1957W        W 6008   1.126   8.922  13.263 -0.1796 -0.1495 -0.0280
 1958W        W 6009   6.646   5.580   9.355  0.1566 -0.1311 -0.2103
 1959W        W 6010   7.281   0.003   1.299 -0.3698 -0.0329 -0.1308
 1960W        W 6011   9.835   9.941   3.696 -0.0170  0.3897 -0.0898
 1961W        W 6012   6.531   5.225   4.470 -0.1314 -0.2226 -0.1442
 1962W        W 6013   6.008   8.083  10.787 -0.3031 -0.2047 -0.1696
 1963W        W 6014   7.099   2.938   4.449  0.2692 -0.1103  0.1710
 1964W        W 6015   2.788   3.979   9.980  0.5037  0.1455  0.2523
 1965W        W 6016  10.003   4.703  11.743 -0.1699  0.2151  0.3274
 1966W        W 6017   7.571   4.286  10.618  0.1738 -0.2598 -0.1336
 1967W        W 6018   6.712   9.835   9.643 -0.2721 -0.2191 -0.1098
 1968W        W 6019   4.548   9.955  11.454  0.0510 -0.5021 -0.1667
 1969W        W 6020   1.773   9.972   4.606 -0.4732  0.1050  0.0240
 1970W        W 6021   9.885   3.029   4.146  0.2259  0.2628  0.2628
 1971W        W 6022   7.694   5.562   9.698 -0.1056 -0.2104  0.0047
 1972W        W 6023   8.457   1.745  12.908  0.2275  0.0198  0.0420
 1973W        W 6024   8.045   2.289   0.916 -0.0916 -0.1735 -0.0781
 1974W        W 6025   3.137   2.317   3.239  0.4629  0.0540 -0.1451
 1975W        W 6026   9.205   4.995   9.444 -0.0872  0.6930  0.0203
 1976W        W 6027   0.187   1.318   0.378 -0.0300  0.1570 -0.0443
 1977W        W 6028   7.409   8.782  10.906 -0.0704  0.0272 -0.4479
 1978W        W 6029   5.429  10.139   9.480 -0.0648  0.0542 -0.2281
 1979W        W 6030   8.848   3.296  13.109  0.2750  0.0021 -0.3449
 1980W        W 6031   1.386   7.078   2.422 -0.0689  0.0209 -0.0853
 1981W        W 6032   5.369   2.244   0.963 -0.1689  0.0025  0.3505
 1982W        W 6033   4.639   2.648  12.416  0.0180  0.2390 -0.2620
 1983W        W 6034   6.714   2.460  13.088 -0.0555 -0.5505  0.0555
 1984W        W 6035   9.710   4.877   0.308  0.0485  0.2492  0.1058
 1985W        W 6036   4.111   1.104   0.754 -0.3226 -0.0159 -0.1355
 1986W        W 6037   0.988   3.285   2.915 -0.2844  0.2391  0.0446
 1987W        W 6038   7.951   7.395  11.670  0.2453 -0.0754 -0.0746
 1988W        W 6039   2.023   8.200  12.312 -0.2345 -0.1168  0.0974
 1989W        W 6040   0.391   4.051   0.304 -0.1601  0.0243  0.4063
 1990W        W 6041   1.162   4.992   0.980 -0.1223 -0.2007 -0.1846
 1991W        W 6042   6.028   9.526  10.498 -0.0805  0.2164  0.0603
 1992W        W 6043   5.485   8.169   1.873 -0.0443 -0.2135 -0.2728
 1993W        W 6044   5.413   7.282   5.184  0.0272  0.0009 -0.2252
 1994W        W 6045   0.036   8.195   0.786  0.1199 -0.1710  0.1190
 1995W        W 6046   8.780   3.317   1.877  0.0349 -0.1530  0.0354
 1996W        W 6047   7.145   4.209   9.103  0.0579 -0.0179 -0.1142
 1997W        W 6048   5.620   8.859   1.209 -0.0833  0.0302  0.2514
 1998W        W 6049  10.206   5.815  12.304 -0.0281  0.0976  0.0230
 1999W        W 6050   6.507   1.817  11.249 -0.1564 -0.1241  0.1958
 2000W        W 6051   3.402   6.111   4.090  0.0487  0.0723  0.2449
 2001W        W 6052   1.670   4.902   1.145  0.0984 -0.0996  0.0321
 2002W        W 6053   9.183   3.688   2.616  0.0378  0.1031  0.0962
 2003W        W 6054   8.426   4.064  10.900 -0.1404 -0.0713 -0.0874
 2004W        W 6055   7.145   6.877   1.583 -0.1854 -0.2564  0.1631
 2005W        W 6056   8.443   2.715   3.328  0.1802  0.0211  0.1866
 2006W        W 6057   0.863   2.886   2.193 -0.2594  0.3684 -0.0529
 2007W        W 6058   0.907   4.336   1.258 -0.1784 -0.0525  0.3974
 2008W        W 6059   3.765   9.526  10.193  0.4122 -0.0187  0.0924
 2009W        W 6060   0.753   1.047   0.601 -0.0596  0.1314 -0.4031
 2010W        W 6061   7.094   0.230  13.856 -0.0406  0.3534  0.1373
 2011W        W 6062   8.261   4.008  13.008 -0.0602 -0.0420 -0.1482
 2012W        W 6063   8.644   5.576   3.376 -0.0609  0.0001  0.1777
 2013W        W 6064   0.877   4.334  12.717  0.0133  0.1004  0.1588
 2014W        W 6065   4.581   8.818   8.909 -0.2179  0.3493  0.1724
 2015W        W 6066   4.315   7.433   1.325  0.0025  0.0831  0.0703
 2016W        W 6067   8.613   1.770   4.260 -0.3547 -0.0697  0.1498
 2017W        W 6068   4.474   0.188  11.098 -0.1047  0.2452 -0.0181
 2018W        W 6069   6.818   5.177  10.664  0.3317 -0.1197 -0.1035
 2019W        W 6070   0.302   5.354  11.440 -0.2137 -0.2866  0.1166
 2020W        W 6071   2.065   8.597   3.690  0.0410  0.0016  0.1431
 2021W        W 6072   8.635   3.507   1.271 -0.2846  0.0752  0.0803
 2022W        W 6073   9.891   7.938  11.088  0.0939 -0.0840 -0.3153
 2023W        W 6074   8.500   1.295   2.889 -0.0345  0.0757  0.1830
 2024W        W 6075   2.410   3.054   4.033 -0.3272  0.0844  0.0078
 2025W        W 6076   2.807   1.448  11.438 -0.0186 -0.0816  0.0917
 2026W        W 6077   3.494   5.725  10.944  0.1694  0.0280  0.1027
 2027W        W 6078   1.394   3.892   4.121  0.0609 -0.2299 -0.0846
 2028W        W 6079   2.904   7.336  11.558  0.2260 -0.0678  0.1505
 2029W        W 6080   4.181   4.999   2.495 -0.1146  0.0456 -0.0579
 2030W        W 6081   0.053   9.750   1.405  0.3636  0.0081 -0.0887
 2031W        W 6082   7.154   7.578  13.498 -0.0980 -0.0441  0.0964
 2032W        W 6083   3.956   4.970   4.247  0.0443  0.0502  0.1073
 2033W        W 6084   2.955  10.167  13.485 -0.2616 -0.0286 -0.2277
 2034W        W 6085   7.284   2.967   0.127  0.2077 -0.0389  0.1774
 2035W        W 6086   8.996   4.735  12.570 -0.1486  0.0776 -0.2321
 2036W        W 6087   6.032   1.085  10.076 -0.3637 -0.1651  0.0987
 2037W        W 6088   5.108   6.341  11.387 -0.1184 -0.0114  0.0239
 2038W        W 6089   6.612   4.632  10.383 -0.0433 -0.1323  0.4273
 2039W        W 6090   7.842   3.162   1.752  0.0871  0.5288 -0.1119
 2040W        W 6091   1.299   8.014   1.337 -0.1196  0.0324  0.2883
 2041W        W 6092   9.792   2.645   4.458 -0.0292  0.0831 -0.0695
 2042W        W 6093   7.044   1.537  10.678  0.0452 -0.1782  0.0141
 2043W        W 6094   9.397   3.012   9.775 -0.3244  0.2283 -0.0028
 2044W        W 6095   6.290   9.354  11.574 -0.0095  0.1349 -0.1340
 2045W        W 6096   3.162   1.105   3.404  0.0283  0.0947  0.1918
 2046W        W 6097   2.499   0.582   9.909 -0.0338  0.1044  0.2487
 2047W        W 6098   2.096   0.108   2.919 -0.1882 -0.3056 -0.0506
 2048W        W 6099   2.898   9.515   0.471 -0.1246  0.0538  0.3008
 2049W        W 6100   1.378   7.689   4.125  0.1886 -0.0040 -0.0040
 2050W        W 6101   7.141   8.844   4.185  0.1067  0.0338  0.0129
 2051W        W 6102   6.020   1.937   0.162 -0.1528 -0.1813  0.0153
 2052W        W 6103   9.814   7.801   2.539 -0.4303  0.2416  0.0967
 2053W        W 6104   5.530   1.334   4.008  0.0607  0.0109  0.0063
 2054W        W 6105   5.971   9.190   0.454 -0.3668 -0.0629  0.0819
 2055W        W 6106   0.916   4.685   4.644 -0.0508 -0.1755 -0.0528
 2056W        W 6107   0.330   3.353  12.773 -0.0831  0.2192 -0.2399
 2057W        W 6108  10.134   3.016  13.425  0.0542 -0.0550 -0.3606
 2058W        W 6109   9.733   6.663   2.479 -0.1420 -0.3606  0.3024
 2059W        W 6110   9.274   3.238  12.837  0.2693 -0.1061  0.1783
 2060W        W 6111   7.148   2.906   9.972 -0.0379 -0.0566  0.0637
 2061W        W 6112   6.867   5.572  13.515  0.4381 -0.0296  0.0149
 2062W        W 6113   1.855   3.895  10.969  0.0115  0.1032 -0.1536
 2063W        W 6114   1.392   5.757  13.855  0.0993 -0.1880  0.3476
 2064W        W 6115   9.582   6.392   1.587  0.3766 -0.2487 -0.3221
 2065W        W 6116   8.254   8.476  12.868  0.1765  0.1315 -0.1667
 2066W        W 6117   5.638   1.511   9.540 -0.0612  0.2482  0.1134
 2067W        W 6118   6.057   1.711   3.942  0.2431 -0.4462 -0.2491
 2068W        W 6119   3.872   5.839   2.574  0.1112 -0.0142  0.0618
 2069W        W 6120   4.368   2.351   0.096  0.2300  0.1736  0.2433
 2070W        W 6121   1.950   5.758   2.184  0.1624 -0.1199  0.0500
 2071W        W 6122   9.032   5.597  12.379 -0.1207 -0.0837  0.1013
 2072W        W 6123   7.068   4.649   4.783 -0.2127 -0.2953  0.3127
 2073W        W 6124   9.001   8.652   1.696  0.2004 -0.4631  0.3078
 2074W        W 6125   1.406   2.668   3.673  0.0134  0.2501  0.2054
 2075W        W 6126   4.789   0.402   1.374 -0.3200 -0.1864 -0.0319
 2076W        W 6127   3.550   5.762   4.714 -0.0956  0.0003  0.4032
 2077W        W 6128   3.584   2.611   5.185  0.2176 -0.0164  0.2355
 2078W        W 6129   1.286   7.238  13.825  0.3223  0.4966 -0.0351
 2079W        W 6130   7.448   3.802   2.657 -0.0881  0.1511  0.6120
 2080W        W 6131   9.405   3.335  11.558  0.0239  0.1534 -0.1477
 2081W        W 6132   7.132   4.046   3.001 -0.4268  0.1684 -0.2156
 2082W        W 6133   4.226   9.093  10.290  0.4903 -0.3394 -0.2074
 2083W        W 6134   5.650   4.821  10.597  0.2644  0.2078 -0.1429
 2084W        W 6135   2.708   3.273   0.459 -0.0218 -0.0692 -0.0953
 2085W        W 6136   9.160   7.408  12.522  0.0601 -0.2471 -0.1776
 2086W        W 6137   8.589   9.480  11.220 -0.0331 -0.1355 -0.2049
 2087W        W 6138   7.562   9.165   4.217 -0.0739 -0.1912  0.2544
 2088W        W 6139   0.773   3.548   8.914  0.2479 -0.2220 -0.0635
 2089W        W 6140   9.409   0.938   0.636 -0.1370  0.2198 -0.2217
 2090W        W 6141   8.738   1.220   4.267  0.2492 -0.0087  0.0120
 2091W        W 6142   5.556   2.453   5.424 -0.1521 -0.3990 -0.1694
 2092W        W 6143   8.476   5.655  11.180  0.0087 -0.3802  0.1627
 2093W        W 6144   9.187   5.083  12.239  0.1557  0.1642 -0.0401
 2094W        W 6145   3.517   8.189   2.191  0.0798  0.0721 -0.2050
 2095W        W 6146   4.578   7.806   4.901  0.1254  0.0475 -0.2115
 2096W        W 6147   9.875   3.441   0.158 -0.1944  0.0903  0.2137
 2097W        W 6148   1.155   6.491  10.438  0.0800 -0.0841  0.6236
 2098W        W 6149   2.481   7.780   1.347  0.0841 -0.0894 -0.4581
 2099W        W 6150   9.401   2.943   4.531  0.1285 -0.0753  0.1318
 2100W        W 6151   7.574   9.290   1.713  0.0342  0.2893 -0.0411
 2101W        W 6152   2.375   7.676  10.315  0.0539  0.0225  0.0314
 2102W        W 6153   5.232   9.984   5.000  0.0660  0.1783  0.1923
 2103W        W 6154   7.440   8.342  13.546  0.0758 -0.1853  0.0011
 2104W        W 6155   9.503   7.668  12.853  0.0740  0.1946  0.2007
 2105W        W 6156   1.897   3.294   1.595  0.1002  0.2925 -0.1210
 2106W        W 6157   2.644   2.354   4.446  0.1045  0.0365  0.2959
 2107W        W 6158   4.099   0.169   0.423  0.3478 -0.1286 -0.1365
 2108W        W 6159   0.120   5.963  11.132  0.0239 -0.0479 -0.1707
 2109W        W 6160   9.471   4.496   1.459  0.2292  0.2490  0.2470
 2110W        W 6161  10.116   3.478  13.105 -0.3910 -0.2615  0.0057
 2111W        W 6162   4.354   3.066   1.173 -0.0933 -0.2098 -0.1607
 2112W        W 6163   6.196   7.630   0.930 -0.0571 -0.0342 -0.0980
 2113W        W 6164   6.460   2.047  12.857 -0.3547  0.0458  0.0590
 2114W        W 6165   5.771   2.553   1.342  0.1435 -0.1395  0.2313
 2115W        W 6166   3.625   2.956   2.069 -0.2355  0.2245  0.0852
 2116W        W 6167   9.311   7.882  12.414  0.2427 -0.0565 -0.0299
 2117W        W 6168   2.604   9.222  11.831  0.0132  0.0985  0.0054
 2118W        W 6169   6.454   9.356  10.797 -0.0932  0.2572 -0.0277
 2119W        W 6170   2.228   9.652  13.266  0.0407  0.1510  0.1138
 2120W        W 6171   8.197   1.228   4.295  0.2004 -0.1277 -0.2614
 2121W        W 6172   3.845   2.060  12.197 -0.0294  0.5579 -0.1375
 2122W        W 6173   7.288   9.968  10.924  0.0142 -0.2065  0.0174
 2123W        W 6174   3.364   6.238   9.752  0.2077 -0.0148  0.0493
 2124W        W 6175   2.771   9.481  13.882  0.2075  0.4193 -0.1330
 2125W        W 6176   8.980   3.028  12.265 -0.1663  0.0807 -0.1101
 2126W        W 6177   3.505   6.796  10.555  0.1067  0.0139  0.2511
 2127W        W 6178   5.986   4.660   3.912 -0.0061  0.1614 -0.2558
 2128W        W 6179   5.774   9.167   2.897  0.1243  0.0658  0.3249
 2129W        W 6180   6.723   4.722   9.610 -0.1558 -0.3181 -0.0655
 2130W        W 6181   6.131   7.724   9.377 -0.1126  0.1435 -0.1054
 2131W        W 6182   8.106  10.194   2.489 -0.0286  0.1180  0.0773
 2132W        W 6183   8.778   2.087   9.928 -0.0176  0.1359 -0.3149
 2133W        W 6184   8.164   3.659  11.191  0.1848  0.0803 -0.2190
 2134W        W 6185   6.760   8.148  12.833  0.0595  0.1339  0.0227
 2135W        W 6186   5.196   8.386  11.760  0.3165  0.1247  0.1537
 2136W        W 6187   3.609   2.637  11.610 -0.1058 -0.1659  0.1097
 2137W        W 6188   8.767   0.735  11.234  0.4152 -0.1803  0.1158
 2138W        W 6189   0.952   1.322   1.035 -0.2437 -0.1418 -0.0673
 2139W        W 6190   4.525   7.160   0.290 -0.0219 -0.0607 -0.2612
 2140W        W 6191   1.186   8.363   3.480 -0.2595  0.0040  0.1411
 2141W        W 6192   9.000   9.601  10.902  0.1405  0.0768 -0.1316
 2142W        W 6193   9.385   4.389   0.421 -0.0177  0.2141  0.1431
 2143W        W 6194   1.142   3.678   5.488 -0.0779  0.1967 -0.6126
 2144W        W 6195   1.510   3.597   1.690 -0.0368 -0.0045  0.0336
 2145W        W 6196   3.655   9.715   0.015  0.1583 -0.0298  0.0652
 2146W        W 6197   2.740   7.650   2.276  0.2400  0.0625  0.3819
 2147W        W 6198   1.461   8.833  12.256 -0.1583  0.0320 -0.0995
 2148W        W 6199   4.187  10.184  12.486  0.1750  0.4862 -0.1159
 2149W        W 6200   3.155   8.629   0.520 -0.2119 -0.1415  0.0345
 2150W        W 6201   4.850   1.172   8.492  0.1472 -0.1042 -0.0549
 2151W        W 6202   4.532   2.801  11.915 -0.0165  0.1337  0.2134
 2152W        W 6203   6.410   7.071   1.807  0.2268 -0.0111  0.0480
 2153W        W 6204   8.170   8.460   4.005 -0.3158 -0.1690  0.0934
 2154W        W 6205   0.126   3.055  11.352 -0.1592  0.0777  0.0176
 2155W        W 6206   6.642   2.821  10.632 -0.1357  0.0636  0.1791
 2156W        W 6207   0.329   0.628  13.730 -0.0888  0.2442  0.2261
 2157W        W 6208   3.855   4.474  11.360 -0.0911 -0.1346  0.0466
 2158W        W 6209   8.162   0.541  11.540 -0.5544 -0.2609 -0.1380
 2159W        W 6210   2.829   9.849   3.296  0.0674  0.3022  0.0887
 2160W        W 6211   7.729   0.811   0.275 -0.3856  0.2699  0.3514
 2161W        W 6212   2.166   8.054  11.566 -0.2998 -0.4290  0.0780
 2162W        W 6213   7.937   1.307  13.603  0.0447  0.0594 -0.0056
 2163W        W 6214   4.328   4.876   1.550  0.0064 -0.0400 -0.1267
 2164W        W 6215   5.936   8.088   0.659 -0.0802 -0.1250 -0.1860
 2165W        W 6216   8.477   7.356   1.954  0.2804 -0.0691 -0.0649
 2166W        W 6217   1.870   1.422  11.037  0.0437 -0.0851  0.0464
 2167W        W 6218   3.543   6.932   1.087 -0.0986 -0.1272  0.2029
 2168W        W 6219   1.606   2.009   4.922 -0.1696 -0.2019 -0.0338
 2169W        W 6220   9.255   3.410   4.645 -0.2107 -0.1225  0.0531
 2170W        W 6221   0.172   3.596  10.502  0.1526  0.0899 -0.3473
 2171W        W 6222   1.300   6.420  11.294 -0.0004 -0.1584  0.1104
 2172W        W 6223   4.812   4.439   9.771  0.0890 -0.0859 -0.1752
 2173W        W 6224   5.035   8.730   3.361 -0.2349  0.1924 -0.0882
 2174W        W 6225   7.761   2.293  13.884  0.1520  0.4921  0.0393
 2175W        W 6226   2.207   6.712   3.381 -0.0382  0.0081  0.1403
 2176W        W 6227   4.720   8.750   1.232 -0.0317 -0.1164 -0.1898
 2177W        W 6228   8.243   0.446  13.498  0.2385  0.2014  0.0269
 2178W        W 6229   5.958   0.057  12.954  0.2508 -0.0622  0.0069
 2179W        W 6230   7.080   6.416  12.700 -0.0564  0.6698 -0.0008
 2180W        W 6231   9.268   4.640   2.497 -0.2347  0.2896  0.1153
 2181W        W 6232   3.003   1.991  11.825 -0.1909 -0.0065  0.3057
 2182W        W 6233   7.064   5.974  12.272 -0.1504  0.0577 -0.1793
 2183W        W 6234   9.072   9.164  12.921  0.0994 -0.0370 -0.0091
 2184W        W 6235   8.894   8.337  13.838 -0.1780  0.0515 -0.0350
 2185W        W 6236   7.359   2.814  11.667  0.0074  0.0210  0.2343
 2186W        W 6237   2.746   6.976   8.893  0.0191  0.1066  0.1584
 2187W        W 6238   3.445   2.641  10.930  0.2162  0.0702 -0.0053
 2188W        W 6239   6.627   1.232   8.878 -0.1892  0.1721 -0.2410
 2189W        W 6240   1.230   5.484   2.024  0.0934 -0.1785  0.2698
 2190W        W 6241   9.790   5.660   2.693 -0.2038 -0.2442 -0.1228
 2191W        W 6242   3.005   5.539  11.140 -0.0648  0.0434 -0.3148
 2192W        W 6243   7.183   1.350   3.656  0.1467  0.1272 -0.2630
 2193W        W 6244   3.850  10.163   1.357  0.2042 -0.2720 -0.0978
 2194W        W 6245   8.518   3.459  10.722 -0.2062 -0.1931 -0.1304
 2195W        W 6246  10.168   6.039  10.652 -0.1769 -0.1820  0.1235
 2196W        W 6247   5.199   1.042  10.680 -0.0907 -0.0369  0.2859
 2197W        W 6248   8.094   8.200   0.499 -0.2715 -0.0683  0.0058
 2198W        W 6249   0.426   4.478   2.528  0.0109  0.1411  0.0286
 2199W        W 6250   3.131   9.446   3.389 -0.0092 -0.2786  0.0557
 2200W        W 6251   3.581   7.527   0.724 -0.1173 -0.2283 -0.1672
 2201W        W 6252   6.718   1.998   1.938 -0.0676 -0.2063 -0.0881
 2202W        W 6253   3.314   5.272   9.233  0.1456  0.1792  0.2704
 2203W        W 6254   8.913   3.211  13.886  0.0202  0.1368  0.0293
 2204W        W 6255   8.087   6.577   2.756  0.2598 -0.2855  0.0847
 2205W        W 6256   6.205   4.761  11.297 -0.0119  0.0274 -0.0118
 2206W        W 6257   0.567   3.176  11.926 -0.1459 -0.1772 -0.2964
 2207W        W 6258   6.008   8.735   2.976  0.3482  0.3791 -0.2494
 2208W        W 6259   6.424   9.566   4.260  0.2994 -0.1378  0.0489
 2209W        W 6260   9.823   2.093   4.425  0.1015  0.2317 -0.2926
 2210W        W 6261   5.401   5.588  10.283  0.0035 -0.1085  0.0272
 2211W        W 6262   6.852   4.728   3.759  0.0723  0.2725 -0.0935
 2212W        W 6263   1.974   0.938   4.231  0.0378 -0.0672  0.0102
 2213W        W 6264   8.396   5.903  10.298  0.0673 -0.0660 -0.0069
 2214W        W 6265   4.210   0.459  12.631 -0.1896  0.1384  0.0932
 2215W        W 6266   8.607   3.227   0.414 -0.0039 -0.2350 -0.3759
 2216W        W 6267   6.081   9.212   1.853 -0.0898  0.2129  0.2899
 2217W        W 6268   0.027   1.104  13.810 -0.1078 -0.1754  0.0680
 2218W        W 6269   4.158   6.225   0.130  0.1898  0.0099  0.0423
 2219W        W 6270   6.558   2.254  10.987  0.3428 -0.0697  0.0301
 2220W        W 6271   6.282   0.679   2.598  0.4788 -0.0427 -0.1578
 2221W        W 6272   0.024   4.471   2.957  0.0287 -0.0409 -0.0604
 2222W        W 6273   0.624   4.920   5.012  0.0786  0.0458  0.2969
 2223W        W 6274   3.550   1.976   1.183 -0.3583 -0.1977 -0.1096
 2224W        W 6275   8.100   0.898  13.835 -0.0556  0.0753 -0.1701
 2225W        W 6276   3.193   4.313  13.039 -0.2424  0.2266  0.1721
 2226W        W 6277   4.846   4.046   0.368 -0.1069  0.1758 -0.2405
 2227W        W 6278   4.705   5.714  11.275 -0.2590 -0.1608 -0.0008
 2228W        W 6279   6.016   8.012   1.242 -0.4212 -0.0388 -0.0295
 2229W        W 6280   7.459   8.366   0.612 -0.1916  0.0673 -0.1340
 2230W        W 6281   0.167   4.306  13.134 -0.1096  0.1048  0.0875
 2231W        W 6282   1.688   5.043  11.368  0.0181  0.1832  0.1474
 2232W        W 6283   0.123   7.269   3.106  0.3688 -0.1117  0.2549
 2233W        W 6284   3.426   9.514   2.206 -0.1356  0.1012  0.1872
 2234W        W 6285   4.400   9.743  12.405 -0.1064 -0.3290  0.2360
 2235W        W 6286   2.848   0.884   4.014 -0.1893  0.0985  0.1143
 2236W        W 6287   9.085   1.591   3.463  0.0528 -0.0764 -0.3501
 2237W        W 6288   7.859   6.038   1.987 -0.1595 -0.0816 -0.2823
 2238W        W 6289   0.318   6.769   3.992 -0.0689 -0.0706  0.4145
 2239W        W 6290   5.906   0.205  10.285 -0.3388  0.2601 -0.2583
 2240W        W 6291   8.206   2.507   0.053  0.0212 -0.0683 -0.1392
 2241W        W 6292   6.625   4.095   4.195  0.1927 -0.1984  0.0262
 2242W        W 6293   5.461   2.299   4.556  0.1411 -0.1072  0.0609
 2243W        W 6294   7.883   9.635   0.145 -0.0511 -0.0598  0.2327
 2244W        W 6295   3.153   4.776  10.787 -0.0376 -0.0379  0.1941
 2245W        W 6296   8.229   8.339  11.589 -0.0700  0.0964  0.0196
 2246W        W 6297   8.137   6.942  11.572 -0.1955  0.1316  0.3783
 2247W        W 6298   6.419   1.017  11.265 -0.0589  0.1061  0.1568
 2248W        W 6299   8.537   3.747   1.944 -0.0378 -0.1337  0.1794
 2249W        W 6300   5.986   4.286  11.259  0.3330 -0.0659 -0.1436
 2250W        W 6301   9.058   0.641  12.267 -0.1099 -0.0411 -0.1527
 2251W        W 6302   3.625   0.455   0.602  0.0449 -0.1255 -0.2194
 2252W        W 6303   2.055   5.244   2.813 -0.0329 -0.1890 -0.1631
 2253W        W 6304   3.905   3.078   0.425  0.2695 -0.1153 -0.3467
 2254W        W 6305   3.285   0.936   1.313  0.2921  0.0817  0.0363
 2255W        W 6306   9.976   0.792  11.115 -0.2382 -0.0691 -0.1323
 2256W        W 6307   4.937   5.496  10.865 -0.0801 -0.1134 -0.1310
 2257W        W 6308   7.069   8.216   3.487 -0.2576  0.0014 -0.0096
 2258W        W 6309   3.092   2.281  10.998  0.1809  0.0616 -0.2011
 2259W        W 6310  10.178   5.337  12.450 -0.1724  0.1445  0.0347
 2260W        W 6311   9.340   0.994   3.451  0.1627  0.2714 -0.3020
 2261W        W 6312   9.541   0.120  12.128 -0.2344  0.0217 -0.1696
 2262W        W 6313   6.591   5.611   5.479  0.0608  0.0749  0.2009
 2263W        W 6314  10.097   5.019   2.951  0.0159  0.0602  0.1046
 2264W        W 6315   4.838   2.970  11.025  0.3063 -0.2295  0.0057
 2265W        W 6316   6.898   7.008   2.111  0.0615 -0.0071 -0.4235
 2266W        W 6317   1.953   3.699   1.919  0.1996  0.0480 -0.0168
 2267W        W 6318   8.554   9.604   2.616  0.1492 -0.0148 -0.0737
 2268W        W 6319   0.859   1.996  12.584 -0.5128  0.3385  0.2025
 2269W        W 6320   4.616   7.411  10.002  0.1333 -0.1899  0.3232
 2270W        W 6321   0.919   1.944   9.438 -0.2771 -0.1448  0.1947
 2271W        W 6322   3.925   1.909  12.697  0.0930  0.2688  0.0412
 2272W        W 6323   1.073   6.839   0.135  0.1346 -0.0509  0.0449
 2273W        W 6324   5.181   2.737   3.277  0.0378 -0.3271  0.4999
 2274W        W 6325   3.412   0.429   3.338 -0.3112  0.2961 -0.4916
 2275W        W 6326   8.141   1.453   1.593 -0.2157 -0.1053  0.1316
 2276W        W 6327   5.197   8.770  13.384 -0.0814  0.1497  0.0194
 2277W        W 6328   3.779   7.546   1.169  0.0254  0.1997  0.0789
 2278W        W 6329   3.787   0.785  12.669 -0.2810 -0.2562  0.0265
 2279W        W 6330   5.921   3.398  11.221 -0.0667 -0.1459  0.0274
 2280W        W 6331   4.174   5.740   0.367  0.1997  0.0127  0.0602
 2281W        W 6332   4.931   1.574   0.392  0.0442 -0.0627  0.1825
 2282W        W 6333   2.440   2.333   1.621  0.0787  0.2580  0.0013
 2283W        W 6334   3.994   3.722  10.315  0.1150 -0.1237 -0.1790
 2284W        W 6335   0.740   3.032   1.166 -0.0392 -0.0712  0.1012
 2285W        W 6336   6.231   3.000  12.417 -0.1818  0.1944  0.0155
 2286W        W 6337   6.194   4.262  12.229  0.1877  0.0379  0.0677
 2287W        W 6338   3.174   2.168  12.285  0.0663  0.3685  0.0701
 2288W        W 6339   2.478   4.054  13.803  0.2928  0.1841 -0.1453
 2289W        W 6340   1.605   7.082   0.233  0.0652 -0.2697 -0.0777
 2290W        W 6341   2.979   1.465   3.092 -0.0583 -0.1214 -0.1071
 2291W        W 6342   3.946   7.308   3.910  0.2933  0.2154 -0.1951
 2292W        W 6343   6.314   2.192   3.210  0.1409 -0.1122 -0.1362
 2293W        W 6344   0.700   4.694  13.530 -0.1852  0.2173  0.0478
 2294W        W 6345   5.170   9.039   1.378  0.0294  0.0050  0.2043
 2295W        W 6346   8.727   5.111  10.039  0.0085  0.0311  0.1235
 2296W        W 6347   1.570   5.748   3.960  0.2436  0.0888  0.3261
 2297W        W 6348   6.722   7.093   4.768  0.0592 -0.1726 -0.8620
 2298W        W 6349   5.844   7.276   2.808  0.0040 -0.0863  0.4006
 2299W        W 6350   2.510   1.611   3.949 -0.0375 -0.1676 -0.3716
 2300W        W 6351   4.617   6.195  10.218  0.0673 -0.1333 -0.1395
 2301W        W 6352   8.081  10.139   9.914 -0.2162  0.0192  0.0141
 2302W        W 6353   9.179   7.461  12.010  0.0294  0.0049 -0.5213
 2303W        W 6354   0.556   6.015   3.903  0.1873  0.1647  0.2891
 2304W        W 6355   1.626   7.203  12.757  0.1051  0.1165 -0.3354
 2305W        W 6356   3.641   7.370   3.543  0.1374 -0.1329  0.2591
 2306W        W 6357   8.015   3.246  11.033  0.2337  0.0024  0.0640
 2307W        W 6358   6.841   0.316   1.242  0.2517 -0.0057  0.1549
 2308W        W 6359   3.436   8.189   9.782  0.3526  0.0226  0.0829
 2309W        W 6360   1.837   7.985  10.692 -0.3098 -0.0466 -0.0928
 2310W        W 6361   0.223   0.081   3.299 -0.1118 -0.0844 -0.2179
 2311W        W 6362   7.849   5.133   3.803 -0.0132 -0.2033 -0.3150
 2312W        W 6363   6.037   6.295   1.004 -0.0499 -0.0158  0.2179
 2313W        W 6364   6.067   9.805   8.949 -0.2952  0.0997 -0.1020
 2314W        W 6365   2.156   6.353  10.631 -0.2223 -0.2764  0.1279
 2315W        W 6366   5.807   8.900   4.357  0.0739 -0.0816 -0.0809
 2316W        W 6367   9.917   5.512   9.868 -0.3031 -0.1687  0.0165
 2317W        W 6368   7.437   2.332   1.314 -0.0574  0.0297  0.1997
 2318W        W 6369   6.435   0.755   0.637  0.0834 -0.0675 -0.2422
 2319W        W 6370   1.658   1.952   3.189 -0.1304 -0.0481 -0.0347
 2320W        W 6371   3.346   2.686   9.534 -0.2120 -0.0303  0.3828
 2321W        W 6372   4.555   0.852   0.751  0.0668 -0.1026 -0.2045
 2322W        W 6373   4.345   9.028   4.533 -0.1093  0.4288 -0.0421
 2323W        W 6374   0.192   8.391   3.438 -0.6962 -0.0634  0.3714
 2324W        W 6375   4.962   2.941   4.930  0.1279  0.0492  0.0223
 2325W        W 6376   9.115   0.431   3.243 -0.0089  0.0383 -0.1401
 2326W        W 6377   8.212   7.367  12.531 -0.0826 -0.0331 -0.1527
 2327W        W 6378   1.161   5.478   2.651 -0.2507 -0.0570 -0.1196
 2328W        W 6379   5.157   2.617  12.333  0.0298  0.0288  0.1783
 2329W        W 6380   5.028   6.693  11.004  0.1182 -0.1443 -0.3425
 2330W        W 6381   2.846   2.501   8.919 -0.1577 -0.1043 -0.1580
 2331W        W 6382   3.760   3.470   5.058  0.1855 -0.0007  0.1147
 2332W        W 6383   6.473   5.211  13.463 -0.1087  0.1015  0.1007
 2333W        W 6384   6.333   9.339  12.255 -0.0986 -0.1825  0.1966
 2334W        W 6385   1.887   6.642   1.027  0.1962 -0.2785 -0.3765
 2335W        W 6386   4.925   0.853   1.690 -0.2591 -0.0629  0.1537
 2336W        W 6387   5.654   9.032  12.669 -0.1763 -0.1081 -0.1574
 2337W        W 6388   3.500   7.557   3.096 -0.1564 -0.0120  0.2167
 2338W        W 6389   5.118   8.352   0.518 -0.0837 -0.0950 -0.1966
 2339W        W 6390   4.876   5.668   1.403  0.2959  0.3175  0.1964
 2340W        W 6391   1.418   0.126  13.241  0.2327 -0.0665  0.0799
 2341W        W 6392   7.262   3.458  12.217  0.0986 -0.0598 -0.0409
 2342W        W 6393   5.567   6.336   1.282  0.1104 -0.2401 -0.3601
 2343W        W 6394   4.888   6.004   1.827 -0.1154 -0.1847 -0.4009
 2344W        W 6395   7.491   2.226  11.442 -0.2578 -0.1647  0.3276
 2345W        W 6396   8.477   2.031  13.927 -0.4642 -0.2586 -0.1662
 2346W        W 6397   3.843   9.243   1.646 -0.0386  0.0550  0.2566
 2347W        W 6398   0.188   2.988   4.009  0.2519 -0.0217  0.2674
 2348W        W 6399   4.604   9.432  13.685  0.1027  0.1053  0.1625
 2349W        W 6400   9.031   0.168  12.021  0.1471  0.0857 -0.2747
 2350W        W 6401   3.785   1.714   2.927 -0.2075  0.2652 -0.1550
 2351W        W 6402   7.170   1.669   3.201 -0.1131 -0.2325 -0.2787
 2352W        W 6403   1.950   2.198   1.810 -0.2621 -0.3241 -0.0571
 2353W        W 6404   4.158   3.753   2.032  0.1506 -0.1158 -0.2596
 2354W        W 6405   6.921   2.554   0.021  0.0997 -0.0249  0.0853
 2355W        W 6406   5.066   6.303   1.409  0.0193  0.0409  0.1375
 2356W        W 6407   9.498   1.613   9.360  0.2189  0.3506 -0.3411
 2357W        W 6408   3.112  10.162  10.794 -0.1036  0.3105 -0.0959
 2358W        W 6409   1.569   0.187   3.610  0.0283  0.0955  0.3196
 2359W        W 6410   6.594   9.715  11.914 -0.0593  0.0079 -0.0029
 2360W        W 6411   1.519   5.274  13.410 -0.0249 -0.4480 -0.0575
 2361W        W 6412   7.343   7.371  12.819 -0.0955 -0.1255  0.0421
 2362W        W 6413   1.088   9.650  11.567  0.2237 -0.2540  0.0311
 2363W        W 6414   7.566   5.296   4.819  0.1422  0.3491 -0.2141
 2364W        W 6415   3.994   3.261   4.724 -0.1799  0.0798 -0.4245
 2365W        W 6416   8.357   0.095   3.558 -0.1389  0.0836 -0.0087
 2366W        W 6417   5.448   7.067   9.630 -0.0193  0.1156  0.1544
 2367W        W 6418   9.522   0.411  13.871  0.2127  0.1333  0.1596
 2368W        W 6419   3.677   1.903   2.159 -0.1530  0.5788  0.2758
 2369W        W 6420   9.011   4.224  11.427  0.0342 -0.0602  0.1191
 2370W        W 6421   0.351   1.408  11.929 -0.0801  0.2168 -0.3328
 2371W        W 6422   5.793   9.941   9.802  0.2595 -0.0605  0.0084
 2372W        W 6423   7.545   3.750   2.141  0.1365  0.1325  0.0114
 2373W        W 6424   8.718   6.167  13.451 -0.1591  0.0819 -0.0728
 2374W        W 6425   3.471   3.432  10.352 -0.0659  0.1196  0.0279
 2375W        W 6426   4.223   0.348   3.446 -0.1107  0.0411 -0.1717
 2376W        W 6427   7.406   6.943   0.020 -0.2407  0.2005  0.0102
 2377W        W 6428   8.709   2.295   2.366 -0.2216 -0.2810  0.0192
 2378W        W 6429   1.009   7.111   3.227  0.0160  0.2229 -0.0636
 2379W        W 6430   5.529   9.450   3.258  0.2368 -0.0641  0.2241
 2380W        W 6431   3.614  10.032  10.974  0.3020  0.3079  0.1477
 2381W        W 6432   3.010   3.154  10.303  0.2835  0.1193 -0.1509
 2382W        W 6433   1.971   8.070   1.160 -0.0932  0.0627 -0.1063
 2383W        W 6434   2.206   2.049   0.899 -0.0976  0.1249 -0.0071
 2384W        W 6435   1.980   5.960   1.690 -0.1372  0.1635  0.1808
 2385W        W 6436   1.218  10.117  11.549 -0.1556 -0.0364  0.2657
 2386W        W 6437   2.564   7.054   0.566 -0.2130 -0.0939 -0.1302
 2387W        W 6438  10.050   1.591   0.661 -0.1861 -0.1385  0.2460
 2388W        W 6439   4.773   8.775   1.792  0.2918  0.1489 -0.0640
 2389W        W 6440   4.956   6.803   3.939  0.2020  0.2576 -0.0004
 2390W        W 6441   6.942   1.758   2.395 -0.1002 -0.1267  0.2504
 2391W        W 6442   2.926   2.807   9.327  0.1225  0.0831 -0.2858
 2392W        W 6443   3.294   7.339   4.317 -0.0078 -0.1125  0.1087
 2393W        W 6444   5.107  10.189  13.514  0.1056  0.0219  0.1223
 2394W        W 6445   1.930   5.733   3.405  0.2395  0.0073 -0.2020
 2395W        W 6446   9.080   7.081  10.516 -0.2383  0.2199  0.0020
 2396W        W 6447   4.514   6.300  13.138  0.0621  0.0190 -0.3011
 2397W        W 6448   4.875   8.251   5.677 -0.1087  0.1842  0.1828
 2398W        W 6449   5.516   3.262  11.650  0.1965  0.0154 -0.0671
 2399W        W 6450   3.300   9.418   0.199  0.1116  0.0497 -0.0217
 2400W        W 6451   9.546   8.312   2.448 -0.0620  0.0114  0.2069
 2401W        W 6452   3.252   9.986   4.625 -0.0930  0.0604 -0.0976
 2402W        W 6453   7.126   2.712  12.253 -0.0697 -0.0175  0.2506
 2403W        W 6454   7.361   1.877   2.742  0.0626  0.1064 -0.0828
 2404W        W 6455   3.561   4.022  10.393  0.4927 -0.1465 -0.0935
 2405W        W 6456   2.517   0.330   3.658 -0.1182 -0.0794 -0.3480
 2406W        W 6457   8.870   7.855   0.071  0.3160 -0.2442 -0.0857
 2407W        W 6458   0.193   7.778  11.251  0.1057  0.0933  0.0302
 2408W        W 6459   3.402   6.132   2.641 -0.0688 -0.1163 -0.2979
 2409W        W 6460   6.444   0.337  13.761 -0.0559  0.0499 -0.2345
 2410W        W 6461   9.165   6.394   3.722 -0.2154  0.0192  0.2019
 2411W        W 6462   3.974   7.955  11.416  0.1681 -0.2474 -0.1933
 2412W        W 6463   7.523   3.140  11.273  0.0187  0.1710  0.4250
 2413W        W 6464   6.776   9.492   1.432 -0.0022  0.0765  0.0907
 2414W        W 6465   7.360   2.397  10.497  0.1159  0.1889  0.0850
 2415W        W 6466   9.410   1.337   4.294 -0.2420  0.0975 -0.1478
 2416W        W 6467   7.452   0.338  10.358  0.0721  0.0953  0.1898
 2417W        W 6468   8.668   0.263  13.260  0.3411  0.2648 -0.2503
 2418W        W 6469   3.257   1.537  12.760  0.0333 -0.0536  0.2218
 2419W        W 6470   9.252   3.646  13.801  0.2304 -0.0122  0.1316
 2420W        W 6471   0.183   8.791   2.124  0.1131 -0.0969 -0.1147
 2421W        W 6472   3.305   6.780  13.438  0.3093 -0.3724 -0.1163
 2422W        W 6473   3.926   5.285  10.614 -0.6178  0.0256  0.1984
 2423W        W 6474   3.774   0.584  10.901 -0.0524 -0.0169 -0.3394
 2424W        W 6475   9.059   5.566  13.729 -0.0707  0.0148  0.0973
 2425W        W 6476   4.559   2.116  10.879 -0.0824  0.1999 -0.3569
 2426W        W 6477   3.053   9.514  10.764  0.1570  0.0809 -0.0146
 2427W        W 6478   0.674   5.658  11.192 -0.1223 -0.0888 -0.2403
 2428W        W 6479   1.686   9.698  12.339 -0.0515 -0.2167 -0.2612
 2429W        W 6480   8.012   5.589   3.753  0.1221  0.0235  0.0325
 2430W        W 6481   3.842   0.416   4.147 -0.4657  0.0879 -0.0456
 2431W        W 6482   1.122   2.980  13.699 -0.0264 -0.0789  0.0441
 2432W        W 6483   7.868   6.857   4.482 -0.1365  0.0455 -0.2421
 2433W        W 6484   6.225   2.843   1.512 -0.0331 -0.5058  0.0140
 2434W        W 6485   0.160   8.070  12.203 -0.0598 -0.1211  0.3939
 2435W        W 6486   9.318   1.952   3.661 -0.1777  0.1395 -0.2662
 2436W        W 6487   9.045   6.029  11.901 -0.1861  0.1993  0.0361
 2437W        W 6488   5.139   1.844  13.046 -0.2434  0.0263  0.0911
 2438W        W 6489  10.160   7.348  12.194 -0.3307  0.0892  0.0913
 2439W        W 6490   4.518   9.160   2.764 -0.4753 -0.0577 -0.1904
 2440W        W 6491   0.241   6.163  11.964 -0.1034  0.0668 -0.3081
 2441W        W 6492   8.643   8.180  11.393 -0.0960  0.1693  0.2596
 2442W        W 6493   3.877   2.965   3.288 -0.1851 -0.1848 -0.0350
 2443W        W 6494   6.776   9.919  10.911  0.1317 -0.0077  0.1856
 2444W        W 6495   6.859   2.448   4.125  0.0597 -0.0327  0.0767
 2445W        W 6496   0.394   4.888   2.823  0.0821 -0.0550  0.1730
 2446W        W 6497   8.861   1.648   2.955 -0.0031  0.2272  0.0755
 2447W        W 6498   6.835   7.898  11.730  0.2002 -0.0952 -0.0697
 2448W        W 6499   3.213   9.153   3.834  0.3117  0.2541 -0.3909
 2449W        W 6500   2.234   2.507   1.088  0.2073 -0.0596 -0.4100
 2450W        W 6501   0.358   7.650  12.328 -0.3664  0.3937 -0.0827
 2451W        W 6502   3.653   9.329  12.122 -0.1630  0.0900 -0.0993
 2452W        W 6503   6.511   1.772  11.839 -0.0619  0.0699  0.1507
 2453W        W 6504   5.934   0.219  10.826 -0.0292 -0.2247  0.2393
 2454W        W 6505   5.484   0.776   4.095  0.1772  0.1115  0.1384
 2455W        W 6506   3.412   8.697   9.983  0.0831  0.2835 -0.0680
 2456W        W 6507   3.645   4.320  12.222 -0.0175 -0.2921  0.2661
 2457W        W 6508   3.402   0.854   3.011  0.2454 -0.0113  0.0066
 2458W        W 6509   4.027   9.820   0.399  0.0009  0.0141 -0.2755
 2459W        W 6510   5.957   2.205   4.084 -0.1806 -0.1586 -0.0203
 2460W        W 6511   3.568   3.722  10.760  0.0567  0.1598 -0.0787
 2461W        W 6512   4.676   0.581   4.083 -0.1295  0.1311  0.0742
 2462W        W 6513   8.893   6.389  11.171  0.0214 -0.0850 -0.2315
 2463W        W 6514   9.299   9.164   3.186 -0.0998  0.0116  0.0118
 2464W        W 6515   6.467   6.832   2.226  0.2079 -0.2502 -0.1200
 2465W        W 6516   8.407   1.898  10.887  0.0055  0.0354  0.0540
 2466W        W 6517   0.729   9.554  11.873 -0.3710  0.2132 -0.2813
 2467W        W 6518   2.347   6.665  12.542  0.0278  0.1302 -0.2260
 2468W        W 6519   9.643   6.662   1.143  0.0480 -0.2986 -0.0609
 2469W        W 6520   0.594  10.162   0.096  0.0659 -0.0426  0.3791
 2470W        W 6521   8.822   0.235   2.126  0.3726 -0.3724 -0.2618
 2471W        W 6522   9.106   3.780   1.143 -0.3188  0.0501  0.0151
 2472W        W 6523   4.075   2.475  12.561 -0.2660  0.0616 -0.1393
 2473W        W 6524   0.176   2.223  11.318 -0.0894 -0.4245 -0.0901
 2474W        W 6525   2.984   4.042   0.077 -0.0832 -0.3384 -0.1883
 2475W        W 6526   1.384   3.152   1.493  0.1563 -0.2147 -0.0960
 2476W        W 6527   1.337   1.813  12.760 -0.1443 -0.0890  0.1159
 2477W        W 6528   9.039   1.348  12.722  0.3921  0.0569  0.2448
 2478W        W 6529   7.462   5.074  11.863 -0.0488 -0.2259  0.3406
 2479W        W 6530   2.764   2.510   5.089 -0.0335 -0.1917 -0.1074
 2480W        W 6531   1.442   2.380   4.106  0.0095 -0.0982 -0.1996
 2481W        W 6532   9.295   0.835  12.708  0.2524 -0.1917 -0.2383
 2482W        W 6533   0.460   8.704   1.644  0.3576 -0.0244  0.1015
 2483W        W 6534   6.007   6.326  13.047  0.2112 -0.1285  0.1631
 2484W        W 6535   0.216   8.380   2.452 -0.1120 -0.1110 -0.2986
 2485W        W 6536   7.833   8.559  13.101 -0.3257  0.2566 -0.1011
 2486W        W 6537   1.662   7.938  11.270  0.2626 -0.0236  0.0616
 2487W        W 6538   7.191   0.252   4.119  0.1849  0.5350 -0.0916
 2488W        W 6539   8.462   6.512   3.755  0.0296  0.1963  0.0786
 2489W        W 6540   0.398   2.562   3.664 -0.3635  0.0316  0.0996
 2490W        W 6541   4.620   3.037   9.947  0.0792 -0.1725 -0.1778
 2491W        W 6542   7.976   8.025   2.929  0.0452 -0.2537 -0.2173
 2492W        W 6543   7.426   1.106   4.011  0.0161  0.1369 -0.2564
 2493W        W 6544   7.508   6.286  12.910  0.3709  0.1290  0.1714
 2494W        W 6545   6.076   7.008  13.572  0.1806 -0.4285 -0.0413
 2495W        W 6546   3.204   6.580   4.251  0.0768  0.1158 -0.0358
 2496W        W 6547   5.269   8.524   1.042  0.0416 -0.1479  0.2785
 2497W        W 6548   1.195   2.180   3.722 -0.1428 -0.1596 -0.0252
 2498W        W 6549   5.327   2.628  10.895  0.1587 -0.0530  0.1029
 2499W        W 6550   5.029   1.674  13.859  0.3692 -0.2504 -0.1290
 2500W        W 6551   5.508   5.847   2.653  0.1791 -0.0799  0.3459
 2501W        W 6552   8.667   6.337   1.700  0.1499 -0.0751 -0.4249
 2502W        W 6553   6.176   8.899  12.736 -0.0248 -0.3551 -0.0632
 2503W        W 6554   1.674   6.723  12.972 -0.1621  0.0363  0.0648
 2504W        W 6555   5.179   0.060  12.453 -0.1241 -0.1592 -0.0376
 2505W        W 6556   2.064   7.319   3.723  0.1745  0.0846  0.1734
 2506W        W 6557   0.115   8.090  13.908  0.0713  0.2137 -0.0383
 2507W        W 6558   9.763   4.918   2.109 -0.3867 -0.1208  0.1155
 2508W        W 6559   6.244   0.698   0.175 -0.4249  0.0609 -0.1902
 2509W        W 6560   1.499   7.598  10.600 -0.5415  0.2865 -0.4590
 2510W        W 6561   1.450   3.144   0.714  0.1128 -0.0010 -0.0531
 2511W        W 6562   9.793   3.492  13.573  0.3631 -0.1582  0.0340
 2512W        W 6563   5.996   9.362   4.599 -0.0594 -0.0679  0.4689
 2513W        W 6564   6.574   1.823  10.718 -0.3087 -0.2174  0.2720
 2514W        W 6565   8.100   6.889   1.089  0.3749  0.1267 -0.0221
 2515W        W 6566   5.055   5.805   3.539 -0.0862 -0.2211  0.1470
 2516W        W 6567   4.931   1.964   4.856  0.1137 -0.2168  0.0723
 2517W        W 6568   9.816   4.596   4.132  0.0627  0.0954 -0.1348
 2518W        W 6569   6.593   4.616   1.776  0.6046  0.1126  0.2676
 2519W        W 6570   8.103   9.384   1.617 -0.5134 -0.3168  0.3142
 2520W        W 6571   9.096   3.658  10.700 -0.1692 -0.0676  0.5033
 2521W        W 6572   4.558   4.646   4.691  0.2521 -0.0969 -0.1940
 2522W        W 6573   6.402   0.941  12.121 -0.0086  0.3861 -0.1656
 2523W        W 6574   4.421   3.743   2.677 -0.0309 -0.1761 -0.3010
 2524W        W 6575   7.254   9.342  10.749 -0.1733  0.0917 -0.0465
 2525W        W 6576   9.226   1.114  12.204  0.1379  0.1035  0.1078
 2526W        W 6577   1.743   6.109  13.667 -0.1449  0.0758  0.3162
 2527W        W 6578   5.669   0.447  11.866 -0.1434 -0.0901  0.1185
 2528W        W 6579   1.381   1.513   4.244  0.2351 -0.0990 -0.0591
 2529W        W 6580   5.863   6.575   3.406  0.0146 -0.1232 -0.4373
 2530W        W 6581   5.341   3.734  10.055  0.0729 -0.2092  0.1931
 2531W        W 6582   0.955   1.460   3.160  0.0334  0.2923 -0.1673
 2532W        W 6583   3.568   2.726   0.452 -0.2235 -0.2704  0.2603
 2533W        W 6584   5.148   5.792   0.616  0.0802  0.0629  0.1755
 2534W        W 6585   0.627   1.284   3.779  0.0193  0.1401  0.0465
 2535W        W 6586   8.438   0.152   1.065 -0.0138 -0.1910 -0.3050
 2536W        W 6587   1.481   8.540   2.441 -0.0126  0.2255  0.1652
 2537W        W 6588   6.506   9.126   4.507  0.1311  0.3279 -0.2770
 2538W        W 6589   2.724   0.592   4.429  0.4066 -0.0791 -0.0640
 2539W        W 6590   0.282   1.393  10.173 -0.1563 -0.4277 -0.2666
 2540W        W 6591   4.264   8.735  11.383  0.0159 -0.0665 -0.2035
 2541W        W 6592   3.693   7.851  11.809  0.1796 -0.2253 -0.0480
 2542W        W 6593   4.712   7.489   5.345  0.1244  0.2356  0.1576
 2543W        W 6594   0.254   3.736   5.487  0.0619  0.1462 -0.0990
 2544W        W 6595   8.237   3.181  12.074  0.0851  0.2697  0.0219
 2545W        W 6596   2.403   7.987   0.857 -0.3701  0.0412  0.1320
 2546W        W 6597   3.191   0.175   2.528 -0.4749  0.1157 -0.0955
 2547W        W 6598   3.966   2.883  11.386  0.0004  0.1135 -0.2631
 2548W        W 6599   6.083   2.734  10.368 -0.0184  0.4052 -0.3187
 2549W        W 6600   2.155   1.729   4.908  0.0310 -0.4852  0.2472
 2550W        W 6601   4.317   1.465   9.316  0.3423  0.1829  0.0801
 2551W        W 6602   5.404   3.843   1.591 -0.0739 -0.0316  0.0773
 2552W        W 6603   6.093   2.505   3.605 -0.3575 -0.1474  0.0456
 2553W        W 6604   6.995   9.586   2.430 -0.3572  0.0041  0.1651
 2554W        W 6605   4.573   6.465  11.652 -0.0887  0.1076  0.2885
 2555W        W 6606  10.070   1.613  11.851  0.0892  0.2178  0.2181
 2556W        W 6607   4.423   9.709   9.644  0.2936  0.1136 -0.0161
 2557W        W 6608   8.050   1.831  10.010 -0.0049  0.1308  0.0645
 2558W        W 6609   2.087   4.963  10.263  0.0208 -0.1359  0.1664
 2559W        W 6610   2.611   8.538   2.554 -0.2072  0.2770  0.2516
 2560W        W 6611   9.727   4.932   2.610  0.0153 -0.1767  0.3200
 2561W        W 6612   8.393   9.719   2.083  0.3796  0.1765 -0.4630
 2562W        W 6613   5.424   5.134   1.848 -0.3965 -0.2448  0.1936
 2563W        W 6614   9.488   0.436   4.822 -0.0657  0.3687  0.2025
 2564W        W 6615   1.331   0.932   4.855 -0.1859  0.2221 -0.1189
 2565W        W 6616   2.930   0.180   2.085 -0.1086  0.0476  0.0863
 2566W        W 6617   2.486   5.892  10.422  0.4140 -0.0610  0.3033
 2567W        W 6618   6.847   6.364   3.520 -0.1798  0.0184  0.1335
 2568W        W 6619   4.662   6.183  11.247 -0.2661  0.2798  0.1338
 2569W        W 6620   1.887   6.687   4.438  0.0129  0.1786  0.4885
 2570W        W 6621   9.290   8.019  10.084  0.3772 -0.2779 -0.0740
 2571W        W 6622   5.069   9.030  11.912 -0.0826  0.0720 -0.0181
 2572W        W 6623   4.415   6.129   4.351 -0.2029  0.0315 -0.1673
 2573W        W 6624   5.224   4.701   9.872 -0.0149 -0.1216  0.1553
 2574W        W 6625   5.808   4.169  13.848  0.1955 -0.3614  0.1742
 2575W        W 6626   3.265   7.705   2.368 -0.4281 -0.3961 -0.0648
 2576W        W 6627   6.631   3.569   0.933 -0.0207 -0.0785 -0.0756
 2577W        W 6628   7.937   6.692  10.256 -0.1349  0.1178 -0.1390
 2578W        W 6629   6.469   5.274   1.206 -0.0592  0.2330 -0.0618
 2579W        W 6630   7.040   1.224   1.459  0.2296  0.1345 -0.0058
 2580W        W 6631   0.014   3.524   1.032 -0.2471 -0.1098  0.2159
 2581W        W 6632  10.061   5.214   1.348 -0.3780 -0.0363  0.0709
 2582W        W 6633   5.041   8.185  10.190 -0.1050 -0.2586 -0.0159
 2583W        W 6634   7.858   7.913  11.875 -0.3377 -0.1055  0.1512
 2584W        W 6635   6.564   5.849   2.547 -0.2413 -0.1664  0.0079
 2585W        W 6636   8.537   1.345  12.508  0.1266  0.6232  0.0686
 2586W        W 6637   5.249   8.203   4.281  0.0775  0.1419  0.0712
 2587W        W 6638   2.446   4.338   3.262 -0.0728 -0.0403  0.1906
 2588W        W 6639   9.996   2.398   3.496  0.1994  0.0673  0.2933
 2589W        W 6640   6.426   3.635   4.200 -0.0512  0.0564 -0.1165
 2590W        W 6641   3.763   4.970  11.371 -0.2876  0.1265 -0.0184
 2591W        W 6642   6.481   6.953  12.390  0.1012 -0.2050 -0.0008
 2592W        W 6643   5.333   2.453   0.337 -0.1247  0.1796  0.1150
 2593W        W 6644   6.017   2.629   3.101  0.0654  0.2128  0.2350
 2594W        W 6645   5.302   3.207  13.760  0.0465  0.0065 -0.3561
 2595W        W 6646   4.399   1.774   0.536  0.2656  0.0238  0.1046
 2596W        W 6647   7.247   5.285  10.974 -0.1504  0.0966 -0.0007
 2597W        W 6648   8.850   0.407  12.779  0.4246  0.0926  0.0960
 2598W        W 6649   7.546   6.460  10.512 -0.0067 -0.1759 -0.4374
 2599W        W 6650   3.409   7.400   4.798 -0.2058  0.1279 -0.0733
 2600W        W 6651   9.977   5.117   9.210  0.2218  0.1412  0.1221
 2601W        W 6652   7.470   5.348  10.539  0.0861 -0.0545 -0.2930
 2602W        W 6653   7.327   0.419   9.913 -0.1503 -0.1302  0.3907
 2603W        W 6654   7.178   8.249  10.749 -0.0597 -0.0490 -0.1809
 2604W        W 6655   4.525   5.040  11.746 -0.0472 -0.0215  0.0833
 2605W        W 6656   1.507   8.031   2.267 -0.1949 -0.0252  0.1282
 2606W        W 6657   1.594   0.102   3.080 -0.1103 -0.0493 -0.1803
 2607W        W 6658   4.487   6.964  13.525 -0.0484  0.2632 -0.1386
 2608W        W 6659   1.747   7.438  11.089  0.2284 -0.3428 -0.1640
 2609W        W 6660   3.739   8.431   1.545  0.2259  0.0431  0.0204
 2610W        W 6661   0.065   1.260   4.645 -0.0395 -0.2266  0.0319
 2611W        W 6662   2.388   1.114   4.055 -0.0057 -0.2349 -0.0634
 2612W        W 6663   8.556   1.665  10.199 -0.1000  0.1267  0.2081
 2613W        W 6664  10.152   0.194   2.257 -0.1086  0.0572 -0.0634
 2614W        W 6665   4.646   2.495   3.450 -0.1388 -0.2274 -0.3374
 2615W        W 6666   3.768   5.055  13.668  0.1412  0.1394 -0.0073
 2616W        W 6667   6.497   4.359  11.158 -0.0180 -0.2503  0.2450
 2617W        W 6668   4.382   2.223  10.334 -0.0030  0.3108 -0.4474
 2618W        W 6669   8.596   2.083  13.294  0.0155 -0.0455 -0.0345
 2619W        W 6670   4.087   1.536   9.840 -0.1588  0.1345 -0.0997
 2620W        W 6671   2.819   7.400  13.778 -0.2796  0.0393  0.1368
 2621W        W 6672   3.429   6.785   0.014  0.0664  0.2102  0.2739
 2622W        W 6673   1.855   3.845   2.364 -0.1624 -0.1596 -0.1770
 2623W        W 6674   0.518   0.207  13.546  0.1438 -0.2448  0.1879
 2624W        W 6675   5.999   1.193   1.500  0.0075  0.1387  0.3779
 2625W        W 6676   3.151   4.340   3.693 -0.0453  0.1636  0.1417
 2626W        W 6677   1.576   8.888   0.080 -0.1248 -0.0242  0.1142
 2627W        W 6678   2.130   4.521  11.669 -0.2385 -0.1171  0.1702
 2628W        W 6679   8.282   2.862   3.924  0.0323  0.0055  0.1378
 2629W        W 6680   9.732   4.252   8.974 -0.0029 -0.0038 -0.1667
 2630W        W 6681   1.479   2.653   0.620  0.1779  0.1954 -0.2481
 2631W        W 6682   5.665   7.619   1.520 -0.2188 -0.2931 -0.3356
 2632W        W 6683   4.787   1.344  11.041 -0.1474  0.1825  0.0429
 2633W        W 6684   5.150   5.461   2.551 -0.1040  0.1237  0.0693
 2634W        W 6685   8.763   1.197  10.682 -0.1337 -0.0529 -0.1426
 2635W        W 6686  10.176   1.066   0.784  0.0045 -0.1187 -0.4854
 2636W        W 6687   3.639   1.243  12.510  0.1412 -0.0669 -0.3135
 2637W        W 6688   1.452   9.686  11.240  0.1119 -0.0956 -0.2047
 2638W        W 6689   5.442   7.122  10.129  0.0953  0.1440 -0.0322
 2639W        W 6690   5.987   9.937   1.340 -0.0539 -0.2812  0.0187
 2640W        W 6691   9.717   3.998   0.756 -0.2762  0.0695  0.2190
 2641W        W 6692   1.511   1.363   9.612  0.0579  0.0724  0.0828
 2642W        W 6693   0.881   8.835  11.318  0.0872  0.0885  0.1705
 2643W        W 6694   5.998  10.126   2.665  0.1583 -0.0464 -0.0415
 2644W        W 6695   9.921   1.089   3.698 -0.3455 -0.0223  0.1170
 2645W        W 6696   4.728   2.024   0.141  0.0699  0.2324 -0.1288
 2646W        W 6697   2.400   0.788   0.714  0.0175  0.1944  0.0298
 2647W        W 6698   5.338   3.802   3.169 -0.1752 -0.0316  0.1745
 2648W        W 6699   9.834   6.727  11.876  0.0489  0.3260 -0.3096
 2649W        W 6700   8.442   6.895  12.490  0.2704  0.1922  0.3023
 2650W        W 6701   0.593   5.885   4.563 -0.2192 -0.2289 -0.3238
 2651W        W 6702   2.915   7.263   4.746  0.0434  0.2265 -0.1891
 2652W        W 6703   5.793   3.689   4.219  0.0066 -0.1366 -0.2111
 2653W        W 6704   0.731   9.424  11.299 -0.1463 -0.1680  0.1186
 2654W        W 6705   6.061   4.562   1.640 -0.2194 -0.1537  0.1883
 2655W        W 6706   9.520   9.322  10.163  0.1091 -0.1370  0.4177
 2656W        W 6707   5.955   7.665   0.436 -0.0685  0.2234 -0.2748
 2657W        W 6708   9.976   5.222  11.615  0.0174  0.1000 -0.0193
 2658W        W 6709   6.316   8.327   1.067 -0.3098 -0.0211  0.3783
 2659W        W 6710   0.471   7.801  10.174 -0.3380  0.0018 -0.0281
 2660W        W 6711   3.261   0.873  11.086  0.0786 -0.2176  0.2948
 2661W        W 6712   3.978   2.239   1.483 -0.0635  0.4093  0.2431
 2662W        W 6713   9.642   0.296  13.248 -0.0348  0.3024  0.0913
 2663W        W 6714   5.611   5.103   3.982  0.0351 -0.0295  0.0294
 2664W        W 6715   5.725   1.299  12.440  0.2619  0.1531 -0.1846
 2665W        W 6716   9.554   4.732   0.730 -0.1184  0.2675  0.0609
 2666W        W 6717   9.810   0.928   2.906 -0.2024 -0.3011  0.1517
 2667W        W 6718   9.849   8.802   1.939 -0.0345 -0.0365  0.3618
 2668W        W 6719   9.866   1.204   0.365  0.0916 -0.0209 -0.3175
 2669W        W 6720   2.157   1.792  10.700 -0.0352  0.1744 -0.1693
 2670W        W 6721   3.239   5.804   0.041 -0.0583  0.1965 -0.1586
 2671W        W 6722   8.514   4.809  13.894 -0.5396  0.2083 -0.0989
 2672W        W 6723   4.121   9.282  12.849 -0.0272  0.0358 -0.0873
 2673W        W 6724   5.731   4.618  11.536 -0.0330  0.2080 -0.2615
 2674W        W 6725   4.444   8.448   1.580  0.1553  0.2476  0.0476
 2675W        W 6726   5.962   5.144   9.641  0.1934  0.0983  0.2748
 2676W        W 6727  10.158   0.469  13.359  0.1942  0.0899 -0.0065
 2677W        W 6728   3.465   4.333  13.781  0.1675 -0.0894  0.2647
 2678W        W 6729   5.161   2.092   1.955 -0.0770 -0.0576  0.2553
 2679W        W 6730   3.888   2.014   3.802  0.0971  0.3051 -0.0532
 2680W        W 6731   3.579   5.227  12.183 -0.2931 -0.1112  0.0056
 2681W        W 6732   6.339   6.290   4.343  0.2369  0.1826 -0.4421
 2682W        W 6733   9.885   9.748  13.688  0.1407  0.1049  0.3223
 2683W        W 6734   8.304   0.632  12.034  0.1256 -0.2715 -0.0342
 2684W        W 6735   6.751   3.449   1.842 -0.3791 -0.0202 -0.3592
 2685W        W 6736   9.263   4.246  11.927  0.2166  0.0649 -0.0914
 2686W        W 6737   1.831   5.496   1.271  0.0842 -0.1153 -0.0455
 2687W        W 6738   2.159   6.681   5.058 -0.0025 -0.1967 -0.0054
 2688W        W 6739   2.958   2.099  13.807  0.2220 -0.0765 -0.2288
 2689W        W 6740   4.183   0.686   1.204  0.3705 -0.1894  0.1729
 2690W        W 6741   3.952   3.401   0.852  0.0778 -0.0416 -0.1547
 2691W        W 6742   7.021   9.965   3.925  0.1023  0.4530  0.1070
 2692W        W 6743   5.227   5.071  12.814 -0.3595 -0.2640  0.0718
 2693W        W 6744   6.200   8.695  12.067  0.1127  0.1093  0.1204
 2694W        W 6745   3.158   0.923  11.770  0.1625 -0.0225  0.1518
 2695W        W 6746   4.455  10.068  10.698 -0.4584 -0.2233 -0.1335
 2696W        W 6747   1.077   4.408  13.603  0.0383  0.0007  0.1429
 2697W        W 6748   7.157   4.030   1.248 -0.0419  0.2324  0.0917
 2698W        W 6749   4.293   9.449   1.849 -0.0947 -0.0687  0.1736
 2699W        W 6750   7.042   3.288  13.348  0.1160 -0.0997  0.0064
 2700W        W 6751   8.338   3.851   1.499  0.0187  0.0319  0.0166
 2701W        W 6752   1.775   5.596  12.224 -0.1771  0.3104  0.0806
 2702W        W 6753   5.691   2.763   9.966 -0.1719  0.0504 -0.1959
 2703W        W 6754   3.945   4.630   9.609 -0.1080 -0.2908 -0.1410
 2704W        W 6755   1.796   5.100   4.127 -0.0992 -0.2791  0.0240
 2705W        W 6756   4.010   2.237   0.937 -0.0602 -0.0409 -0.0196
 2706W        W 6757   6.364   8.802   1.941  0.1798  0.1139  0.2061
 2707W        W 6758   8.306   6.771   2.328  0.2033 -0.0103  0.1287
 2708W        W 6759   6.840   1.636  12.419 -0.0143 -0.1708  0.1439
 2709W        W 6760   2.328   3.541   2.190 -0.3390 -0.3877 -0.2520
 2710W        W 6761   3.658   6.895   2.940 -0.1894  0.0318  0.1102
 2711W        W 6762   8.092   3.283  12.548  0.2366 -0.2201  0.2220
 2712W        W 6763   5.941   8.629   2.477 -0.1784 -0.1119 -0.2667
 2713W        W 6764   2.731   0.681   8.652  0.2838  0.2734 -0.0087
 2714W        W 6765   2.974   1.297   0.092  0.2504 -0.3230  0.1749
 2715W        W 6766   8.988   2.702   3.258  0.2891  0.1236 -0.1234
 2716W        W 6767   6.635   4.649  11.564 -0.0706  0.2125 -0.3120
 2717W        W 6768   0.203   6.892   1.466 -0.0752 -0.0491 -0.1226
 2718W        W 6769   0.869   4.588   2.149 -0.1239  0.0858 -0.0175
 2719W        W 6770   0.232   4.700   3.327  0.2747 -0.1391 -0.0706
 2720W        W 6771   2.526   4.333   1.992 -0.1575  0.1025  0.1038
 2721W        W 6772   6.087   5.519   4.547 -0.2468 -0.1909  0.2813
 2722W        W 6773   6.928   2.528  10.205 -0.0068 -0.1419 -0.3488
 2723W        W 6774   1.620   2.953   2.940  0.0677 -0.1798  0.0912
 2724W        W 6775   7.099   7.801  10.094 -0.0473 -0.3615 -0.1374
 2725W        W 6776   2.947   3.223  11.213 -0.0000 -0.2941 -0.1055
 2726W        W 6777   4.001   5.718  10.816 -0.3413 -0.1399  0.0857
 2727W        W 6778   9.858   5.459  12.070 -0.1167  0.3783 -0.0956
 2728W        W 6779   1.845   9.153  12.498 -0.0011  0.0865 -0.0794
 2729W        W 6780   2.838   2.577  13.125 -0.1106 -0.0021 -0.1031
 2730W        W 6781   6.557   2.509  12.424 -0.1394 -0.1065 -0.0454
 2731W        W 6782   7.577   3.247   5.720 -0.0475  0.0972 -0.1425
 2732W        W 6783   2.644   9.981   3.942  0.0883 -0.0524 -0.2136
 2733W        W 6784   7.131   2.367   5.119  0.1740  0.1797  0.1186
 2734W        W 6785   5.486   9.596   9.879 -0.0069 -0.1611  0.1760
 2735W        W 6786   3.481   5.306   0.455  0.1410  0.1332 -0.0014
 2736W        W 6787   0.786   5.179  11.338 -0.2375 -0.0858  0.2032
 2737W        W 6788   9.233   3.855   5.050  0.0952  0.0806  0.0460
 2738W        W 6789   0.096   3.551   2.597 -0.0740 -0.0753 -0.0626
 2739W        W 6790   9.920   3.536  10.237  0.0581 -0.1976  0.1025
 2740W        W 6791   1.796   3.574   3.819 -0.0227  0.0769 -0.1369
 2741W        W 6792   2.024   1.261   1.299 -0.0779  0.0255  0.0364
 2742W        W 6793   7.188   6.702  12.261 -0.0927 -0.0345 -0.0571
 2743W        W 6794   8.038   4.306   2.431  0.2262 -0.0320  0.0308
 2744W        W 6795   1.011   8.069   0.806 -0.1125 -0.1094 -0.0056
 2745W        W 6796   7.370   5.262  13.591  0.0290  0.1679 -0.4688
 2746W        W 6797   9.652   4.544  13.915  0.1418 -0.2254 -0.1206
 2747W        W 6798   3.198   2.946  13.324 -0.3342  0.0081 -0.0101
 2748W        W 6799  10.031   9.774  10.198 -0.1165 -0.1871  0.3616
 2749W        W 6800   2.726   2.519   3.016 -0.2012  0.0425  0.1079
 2750W        W 6801   2.799   1.833  10.212  0.2064  0.3069  0.0117
 2751W        W 6802   3.153   9.136  13.672  0.2809  0.1225  0.1406
 2752W        W 6803   1.048   1.556  13.072 -0.3480 -0.2028 -0.1836
 2753W        W 6804   3.977   3.838   1.137 -0.0806  0.1218 -0.1673
 2754W        W 6805   4.320   2.844  12.863 -0.2155  0.0407 -0.3503
 2755W        W 6806   2.779   3.364   2.020  0.0479 -0.2532  0.1093
 2756W        W 6807   6.254   8.227   2.588  0.0479 -0.1150  0.1116
 2757W        W 6808   1.711   7.118  10.698  0.0308 -0.2670 -0.2384
 2758W        W 6809   3.771   8.064   1.163 -0.1180 -0.1708 -0.0559
 2759W        W 6810   6.644   4.759  12.835  0.1275 -0.0273 -0.2801
 2760W        W 6811   4.961   2.761   4.026  0.1522 -0.1132  0.0688
 2761W        W 6812   1.415   4.640   1.940 -0.1174 -0.0544  0.2435
 2762W        W 6813   5.101   5.100   2.937  0.3812 -0.1356 -0.2839
 2763W        W 6814   2.286   3.113   8.064 -0.1259  0.0577  0.1403
 2764W        W 6815   9.190   4.417   0.881 -0.0768 -0.0284  0.0699
 2765W        W 6816   1.303   9.356  13.025 -0.1604  0.0072  0.2147
 2766W        W 6817   1.722   4.593   3.903 -0.2326 -0.2005  0.1772
 2767W        W 6818   1.725   6.282  10.335  0.1362  0.1843  0.3938
 2768W        W 6819   3.107   0.561   9.940 -0.0305  0.0578 -0.2432
 2769W        W 6820   5.210   6.418  10.619  0.2641  0.0499 -0.0832
 2770W        W 6821   3.767   6.580  12.684  0.0632 -0.3876  0.2235
 2771W        W 6822   4.414   4.782  10.539  0.1455 -0.1581  0.1619
 2772W        W 6823   5.106   7.464   2.067  0.2958  0.2096 -0.0432
 2773W        W 6824   5.572   9.785  12.852  0.2409  0.0301  0.4494
 2774W        W 6825   7.907   6.492   3.605 -0.1998 -0.4347 -0.1891
 2775W        W 6826   3.583   5.677   3.864  0.0518 -0.0955  0.1300
 2776W        W 6827   7.678   3.346   0.848  0.0203  0.0383 -0.1714
 2777W        W 6828   0.712   0.048   2.399 -0.0143 -0.0906 -0.1123
 2778W        W 6829   9.736   4.372   2.270  0.2220 -0.1336 -0.2543
 2779W        W 6830   3.895   8.474   4.558 -0.1122  0.2003  0.1985
 2780W        W 6831   5.325   4.085   2.582  0.1902  0.1566 -0.2424
 2781W        W 6832   9.445   6.811   2.076  0.1986  0.0744 -0.5034
 2782W        W 6833   8.109   7.239  10.799  0.1695  0.1191 -0.3345
 2783W        W 6834   8.689   6.701  13.284 -0.0611 -0.0593 -0.1137
 2784W        W 6835   0.759   6.608  12.511 -0.0943  0.2089 -0.4727
 2785W        W 6836   3.191   1.591   9.260 -0.2040 -0.1157  0.0112
 2786W        W 6837   8.029   9.835  13.554 -0.1516 -0.2371 -0.0118
 2787W        W 6838   3.582   5.221   2.023  0.1065  0.1179 -0.0703
 2788W        W 6839   6.264   4.093   3.803  0.0793  0.3884 -0.0239
 2789W        W 6840   1.951   2.321   3.084  0.2465  0.1593 -0.2969
 2790W        W 6841   1.164   8.389  11.161  0.0064 -0.1988 -0.2637
 2791W        W 6842   3.035   1.619   4.780  0.1367  0.0174  0.3114
 2792W        W 6843   9.400   5.377  13.322 -0.1735  0.0430  0.0610
 2793W        W 6844   7.021   3.369  10.208 -0.0386 -0.0638  0.1762
 2794W        W 6845   2.136   2.423   9.208 -0.0502 -0.0650 -0.3062
 2795W        W 6846   7.848   5.130  13.353 -0.5506  0.1392 -0.3091
 2796W        W 6847   3.966   6.912   3.563 -0.1021 -0.3858 -0.0744
 2797W        W 6848   6.722   0.462   1.685 -0.2505  0.2485 -0.2085
 2798W        W 6849   0.527   2.249  11.649  0.2993  0.1182 -0.1892
 2799W        W 6850   5.803   0.673   1.456 -0.0137  0.3448  0.0915
 2800W        W 6851   5.620   5.446   9.286 -0.1931 -0.0196 -0.0994
 2801W        W 6852   5.267   1.399  12.195 -0.0665 -0.1911 -0.0512
 2802W        W 6853   3.870   0.930  12.047 -0.1887 -0.0675  0.0158
 2803W        W 6854   3.303   3.059  10.719 -0.1800 -0.3970  0.0522
 2804W        W 6855   7.611   7.574   4.888 -0.1701  0.1361 -0.0683
 2805W        W 6856   0.417   8.136   1.633 -0.0580 -0.1908  0.0875
 2806W        W 6857   7.743   8.033  10.890  0.1511 -0.1799 -0.0336
 2807W        W 6858   6.924   9.258   0.459 -0.0641 -0.6046  0.0046
 2808W        W 6859   7.553   3.826   1.075  0.1618  0.1642  0.1983
 2809W        W 6860   4.221   7.142   2.416  0.0804 -0.0015 -0.0250
 2810W        W 6861   5.463   0.164   1.560  0.2370  0.1123 -0.1972
 2811W        W 6862   0.461   2.082  13.686 -0.1362  0.0515  0.0790
 2812W        W 6863   8.034   3.826  12.516 -0.0136  0.2050 -0.1137
 2813W        W 6864   1.225   3.584   3.250 -0.1964 -0.0952 -0.0395
 2814W        W 6865   0.867   0.306   2.828  0.1608 -0.2195  0.1145
 2815W        W 6866   0.441   0.979   0.119 -0.1654  0.2048 -0.0226
 2816W        W 6867   8.690   2.448   4.075 -0.0853  0.2359  0.0407
 2817W        W 6868   6.917   6.247   1.557  0.4257  0.1935 -0.0067
 2818W        W 6869   7.595   3.910  13.077  0.1908 -0.0909 -0.3486
 2819W        W 6870   1.602   3.778  13.110 -0.1825 -0.1807 -0.1566
 2820W        W 6871   1.758   1.958  11.870  0.2240  0.2596 -0.1299
 2821W        W 6872   3.583   8.309  10.273  0.1864  0.2019  0.4781
 2822W        W 6873   2.705   9.219  10.930  0.0490  0.0068  0.1389
 2823W        W 6874   7.679   6.613   1.198 -0.3601 -0.2434 -0.3092
 2824W        W 6875   8.013   1.774  13.161 -0.2327  0.0288 -0.1107
 2825W        W 6876   5.754   1.649  10.930  0.2682  0.1100 -0.1128
 2826W        W 6877   8.095   4.443  13.833  0.0368 -0.3200 -0.0389
 2827W        W 6878   0.347   5.604   0.964 -0.2655 -0.0265  0.1608
 2828W        W 6879   4.360   2.796  13.746  0.1129 -0.0510 -0.0373
 2829W        W 6880   5.715   3.468  12.043 -0.1171  0.1412 -0.1260
 2830W        W 6881   6.039   1.078   9.563 -0.1316  0.1676 -0.4611
 2831W        W 6882   5.537   0.299   3.798  0.0766 -0.0040 -0.3239
 2832W        W 6883   0.767   8.594  10.842  0.2247  0.1177  0.0706
 2833W        W 6884   2.608   8.156  11.189  0.0717 -0.2385  0.1488
 2834W        W 6885   4.929   0.568   0.945 -0.2646  0.0712  0.2183
 2835W        W 6886   3.589   2.626   0.925  0.2862 -0.0546  0.2315
 2836W        W 6887   9.066   0.659   0.135 -0.0500  0.2659 -0.0721
 2837W        W 6888   0.539   2.329   0.459  0.3688 -0.0360 -0.0319
 2838W        W 6889   5.835   4.281  11.887  0.3139  0.2063 -0.1967
 2839W        W 6890   0.648   5.683   2.115 -0.0779 -0.3530  0.2096
 2840W        W 6891   6.120   9.249   9.029  0.0028  0.1817  0.0234
 2841W        W 6892   6.696   0.793   3.392  0.1572  0.2170  0.1696
 2842W        W 6893   4.124   3.438   4.058 -0.1523  0.0808 -0.1786
 2843W        W 6894   5.741   8.387   3.475  0.2491  0.1964  0.0864
 2844W        W 6895   7.607   2.873   2.667 -0.2622  0.0544  0.0424
 2845W        W 6896   0.065   5.114   2.007  0.0770 -0.1085 -0.2689
 2846W        W 6897   6.316   0.016  12.602  0.0041  0.0146  0.3181
 2847W        W 6898   0.905   6.213   2.948  0.0237  0.1013 -0.1057
 2848W        W 6899   6.437   5.192  11.496 -0.0859  0.3808  0.0297
 2849W        W 6900   5.212   4.757  10.332  0.3364 -0.0616 -0.1421
 2850W        W 6901   7.520   1.399   5.568 -0.1017 -0.0131  0.0194
 2851W        W 6902   0.737   2.111  11.184  0.0753 -0.0428 -0.1439
 2852W        W 6903   5.227   2.370   9.931 -0.1606  0.2087 -0.1674
 2853W        W 6904   8.211   7.032   2.922  0.0581 -0.1664 -0.1749
 2854W        W 6905   7.727   1.464   4.291 -0.0488 -0.0719 -0.0343
 2855W        W 6906   5.150   5.279   3.440  0.1102 -0.0357 -0.0101
 2856W        W 6907   8.909   2.160  10.411  0.5015 -0.3165 -0.1884
 2857W        W 6908   4.111   4.840  12.787 -0.0878  0.1175 -0.1056
 2858W        W 6909   4.442   2.985   2.635 -0.2888 -0.2131  0.2955
 2859W        W 6910   1.203   7.027   1.929 -0.0856  0.3957  0.0433
 2860W        W 6911  10.043   6.523  10.466 -0.1448  0.0607 -0.1970
 2861W        W 6912   5.853   6.129   4.038  0.0106 -0.1362  0.0930
 2862W        W 6913   1.983   8.938   0.345  0.0914  0.1606 -0.0562
 2863W        W 6914   5.796   1.727   3.012 -0.2093 -0.0474 -0.0603
 2864W        W 6915   0.505   6.433  11.519 -0.1137 -0.1023 -0.3310
 2865W        W 6916   5.055   8.137   0.087  0.1963 -0.1697  0.4177
 2866W        W 6917   7.668   6.454   4.776 -0.1219 -0.0321  0.0848
 2867W        W 6918   8.838   8.516   3.194 -0.0377 -0.1920 -0.0220
 2868W        W 6919   4.060   4.982  10.957 -0.1379  0.0183  0.2585
 2869W        W 6920   6.680   1.150  12.566  0.0054  0.1519  0.2560
 2870W        W 6921   4.974   3.153  13.393 -0.0164  0.0684 -0.1352
 2871W        W 6922   6.866   4.960   2.834  0.2984 -0.2770  0.3234
 2872W        W 6923   8.118   5.520  13.149 -0.2562 -0.3617 -0.0973
 2873W        W 6924   1.713  10.052   4.085 -0.0747 -0.4333  0.1218
 2874W        W 6925   2.290   2.787   3.280  0.2919 -0.0568 -0.1820
 2875W        W 6926   5.325   7.061  11.073  0.1757  0.0106 -0.5095
 2876W        W 6927   9.722   9.672   2.237 -0.0065  0.1936 -0.4888
 2877W        W 6928   7.369   9.479   0.071 -0.0041  0.2317 -0.1549
 2878W        W 6929   5.596   6.031   8.656  0.0168 -0.0222  0.3868
 2879W        W 6930   3.172   1.995  10.519  0.2178 -0.2854  0.0250
 2880W        W 6931   7.462   7.463  10.047  0.0523 -0.0856  0.1841
 2881W        W 6932   6.064   0.532   2.146  0.1699 -0.0429  0.0842
 2882W        W 6933   8.913   2.636   1.128  0.2637 -0.1179  0.3015
 2883W        W 6934   6.389   9.674   1.720  0.1512 -0.1196  0.0549
 2884W        W 6935   8.196   4.120   1.986  0.1655  0.2407  0.0178
 2885W        W 6936   1.679   4.350   2.289  0.0802 -0.0136 -0.3236
 2886W        W 6937   9.710   1.927   1.230 -0.0033  0.3470  0.1663
 2887W        W 6938   1.324   0.008  10.570 -0.0345  0.3035  0.0433
 2888W        W 6939   3.464   3.374  12.063  0.0034 -0.2694  0.2450
 2889W        W 6940   2.409   6.193  12.447 -0.0653  0.2461  0.0765
 2890W        W 6941   6.344   3.921   2.509 -0.1562  0.1897 -0.1015
 2891W        W 6942   4.254   2.389   9.153 -0.2944 -0.3254  0.0279
 2892W        W 6943   6.464   3.382   0.305  0.1104  0.0030  0.0174
 2893W        W 6944   2.773   7.000  11.231  0.0590  0.1037 -0.5394
 2894W        W 6945   5.567   6.493   3.864  0.2328  0.1780  0.0069
 2895W        W 6946   2.783   1.005   9.969 -0.0813  0.1851 -0.0148
 2896W        W 6947   8.715   1.538  13.772 -0.0756 -0.1002  0.1212
 2897W        W 6948   1.498   1.804   3.774  0.3134  0.1332 -0.1398
 2898W        W 6949   4.576   5.296   2.359  0.1400 -0.3389 -0.0970
 2899W        W 6950   9.163   2.585   4.895  0.1016 -0.1888  0.2139
 2900W        W 6951   0.767   6.382   1.653 -0.1206  0.1056 -0.7212
 2901W        W 6952   3.929   6.065   9.899 -0.0284  0.2961  0.1417
 2902W        W 6953   5.899   9.218  13.444  0.2566  0.0957  0.2054
 2903W        W 6954   6.636   3.632  12.215 -0.2735  0.2016  0.0758
 2904W        W 6955   9.230   6.744  10.818 -0.0182  0.3196 -0.2403
 2905W        W 6956  10.066   4.211  13.629 -0.1748 -0.2148 -0.0009
 2906W        W 6957   4.377   7.482   4.573 -0.0254 -0.2020 -0.1643
 2907W        W 6958   3.071   5.693   8.739 -0.1478 -0.0732  0.1636
 2908W        W 6959   0.916   2.356   4.168  0.0394  0.2883 -0.1512
 2909W        W 6960   5.880   6.323   9.576  0.0625 -0.1634 -0.1778
 2910W        W 6961   7.896   4.711  11.973  0.0079 -0.2119  0.1057
 2911W        W 6962   4.094   9.060  11.770  0.2488  0.0388 -0.1185
 2912W        W 6963   4.858   8.094  12.402 -0.2614  0.0992  0.1542
 2913W        W 6964   2.215   0.060  12.406  0.0521 -0.1544 -0.1609
 2914W        W 6965   4.262   0.109  11.573  0.3231 -0.3217  0.1746
 2915W        W 6966   8.542   5.544  12.325  0.2176 -0.3426 -0.3877
 2916W        W 6967   7.558   9.735  10.391 -0.0056 -0.0992 -0.1180
 2917W        W 6968   1.367   3.692   1.187 -0.1226  0.1632 -0.2998
 2918W        W 6969   7.261   5.864   4.799 -0.1267 -0.0630 -0.0636
 2919W        W 6970   0.515   5.647  12.543  0.2971 -0.1237 -0.1992
 2920W        W 6971   6.925   9.413  12.752  0.3964  0.1634 -0.3009
 2921W        W 6972   8.804   1.164   3.271  0.2190  0.1977 -0.2697
 2922W        W 6973   0.201   0.482  11.093  0.3433 -0.2313 -0.0749
 2923W        W 6974   6.164   7.315  12.474 -0.2677 -0.1171 -0.0782
 2924W        W 6975   1.412   4.655  12.212 -0.1241  0.3139  0.2773
 2925W        W 6976   9.308   9.947   1.303 -0.1072 -0.2126  0.5229
 2926W        W 6977   2.512   5.354   2.927  0.3944 -0.3895 -0.3210
 2927W        W 6978   3.337   3.047   2.490 -0.4363 -0.0192  0.0148
 2928W        W 6979   2.052   9.430   3.456  0.0566  0.2461  0.4603
 2929W        W 6980   4.144   9.098  13.872  0.1773 -0.0085  0.1937
 2930W        W 6981   2.080   5.749   2.790  0.0389 -0.0625  0.1202
 2931W        W 6982   6.972   0.379  10.260  0.2456 -0.0291 -0.2881
 2932W        W 6983   2.152   9.147   4.681  0.0767 -0.0312 -0.0281
 2933W        W 6984   9.273   4.474  11.056  0.0804 -0.4951 -0.0088
 2934W        W 6985   5.359   5.322  11.100 -0.1778 -0.0912  0.0393
 2935W        W 6986   3.074   8.940  13.115  0.1592  0.4719  0.3098
 2936W        W 6987   2.697   6.581   1.435 -0.0149 -0.0820  0.0492
 2937W        W 6988   9.470   2.349   3.351 -0.0509  0.1971 -0.1195
 2938W        W 6989   1.475   5.949  12.551 -0.1759 -0.3842 -0.0025
 2939W        W 6990   6.219   6.171  12.212  0.1636  0.0535  0.2243
 2940W        W 6991   1.061   1.753   2.751  0.1453  0.2112 -0.0659
 2941W        W 6992   8.779   2.308   9.021 -0.2893 -0.3998  0.1018
 2942W        W 6993   8.503   7.073   1.309 -0.0751 -0.1326  0.1717
 2943W        W 6994   6.132   3.452  12.303  0.1313  0.0819  0.1990
 2944W        W 6995   0.641   0.597  10.062 -0.5151 -0.2551  0.0890
 2945W        W 6996   9.160   0.247   4.138 -0.2546  0.1659 -0.1962
 2946W        W 6997   5.204   8.758   5.764  0.2257 -0.1452  0.2948
 2947W        W 6998   7.006   8.766   1.578  0.2071 -0.2256  0.3129
 2948W        W 6999   7.458   6.301  12.427 -0.3713 -0.0610  0.1582
 2949W        W 7000   5.391   7.753  13.268 -0.2813  0.4081 -0.3533
 2950W        W 7001   6.836   6.031   2.034 -0.3082 -0.1416  0.0269
 2951W        W 7002   0.492   0.664   2.693  0.1545  0.1954 -0.2839
 2952W        W 7003   3.095  10.075   0.190 -0.2305 -0.2521 -0.0015
 2953W        W 7004   2.959   2.629   1.590  0.1638  0.1767  0.1956
 2954W        W 7005   5.857   2.950  11.429  0.0016 -0.2660 -0.0079
 2955W        W 7006   0.810   8.633  12.026 -0.1121  0.1168 -0.3740
 2956W        W 7007   4.253   1.935   9.515 -0.1349 -0.0561 -0.1043
 2957W        W 7008   8.126   1.918   1.306  0.0377 -0.0831 -0.1658
 2958W        W 7009   5.490   1.188   5.532 -0.2938  0.0119  0.0468
 2959W        W 7010   9.410   1.434  13.433  0.0424  0.0889 -0.3845
 2960W        W 7011   7.504  10.137  12.752  0.1701  0.0519 -0.1599
 2961W        W 7012   0.953   9.915   0.490 -0.0272  0.3103  0.1192
 2962W        W 7013   3.865   2.032   4.309  0.0242  0.7093  0.5501
 2963W        W 7014   1.969  10.005  11.475  0.3524 -0.2777 -0.2891
 2964W        W 7015   0.512   2.792   1.790  0.1364  0.2044 -0.1703
 2965W        W 7016   6.650   4.875   4.821 -0.2129 -0.1862 -0.0078
 2966W        W 7017   6.456   6.259   1.277  0.2988 -0.0285  0.1672
 2967W        W 7018   8.526   0.594   1.403  0.1992 -0.1564 -0.0377
 2968W        W 7019   1.607   3.231  13.850  0.1149 -0.1156  0.1608
 2969W        W 7020   7.343   1.437  12.160  0.1371 -0.1529 -0.1196
 2970W        W 7021   4.981   4.245   3.611  0.1971 -0.0255 -0.2197
 2971W        W 7022   5.583   6.360   5.035  0.0086  0.0153  0.1455
 2972W        W 7023   8.835   0.879   0.507  0.0087  0.1183 -0.3378
 2973W        W 7024   8.188   7.347  10.304 -0.0943 -0.0392  0.0683
 2974W        W 7025   3.544   1.310  12.016  0.3859  0.0548  0.0488
 2975W        W 7026   2.190   1.938   9.548  0.0860 -0.2249 -0.0765
 2976W        W 7027   2.127   3.194   3.617 -0.2751 -0.1560 -0.0781
 2977W        W 7028   0.648   5.276  11.814 -0.1930 -0.0365  0.3441
 2978W        W 7029   3.864   8.445   9.727  0.0506  0.6938  0.0621
 2979W        W 7030   8.541   2.549   4.745  0.0571  0.0190 -0.2770
 2980W        W 7031   1.740   7.106  12.071  0.2126  0.0669  0.0553
 2981W        W 7032   6.186  10.164  11.222  0.1032  0.0025 -0.0244
 2982W        W 7033   7.113   5.611   2.725 -0.0446  0.0628  0.0638
 2983W        W 7034   5.722   1.988   1.951 -0.3393  0.1073  0.2662
 2984W        W 7035   5.918   3.185   0.714 -0.0553  0.2188  0.2224
 2985W        W 7036   6.278   2.215  10.071  0.1699 -0.1621 -0.0172
 2986W        W 7037   2.119   4.130  12.045 -0.1150  0.1997  0.2104
 2987W        W 7038   6.824   5.742   0.612  0.1362 -0.1823  0.2506
 2988W        W 7039   9.151   3.785   9.872 -0.1676 -0.2115  0.2132
 2989W        W 7040   6.899   1.033  13.018 -0.0171 -0.2012 -0.3007
 2990W        W 7041   5.981   6.316  11.303 -0.1110  0.1746  0.1703
 2991W        W 7042   3.137   2.389   0.249 -0.1200  0.1766 -0.0308
 2992W        W 7043   9.750   0.978  12.558 -0.0599 -0.1009 -0.1670
 2993W        W 7044   9.326   8.054  13.181  0.1683 -0.1720  0.0046
 2994W        W 7045   6.688   3.263   3.198  0.0553 -0.1850  0.0839
 2995W        W 7046   5.061   1.226   3.318  0.2130  0.0663  0.1255
 2996W        W 7047   5.495   9.687  11.643 -0.1575  0.2723 -0.0489
 2997W        W 7048   5.223   1.359   2.475  0.1496 -0.2568  0.1748
 2998W        W 7049   7.419   7.395   3.270  0.3214 -0.1249  0.0882
 2999W        W 7050   0.027   7.207   1.794  0.0216 -0.0806 -0.0123
 3000W        W 7051   9.937   3.973   2.775  0.1237  0.1736 -0.1703
 3001W        W 7052   7.750   6.802   1.710  0.0456  0.0166 -0.0779
 3002W        W 7053   7.101   6.177  13.738  0.2218 -0.0488  0.2687
 3003W        W 7054   9.183   3.392  12.067  0.1857  0.0932  0.1550
 3004W        W 7055   0.293   4.518   3.826  0.0659  0.1079  0.2113
 3005W        W 7056   1.182   9.452  12.048 -0.1084 -0.0645  0.1485
 3006W        W 7057   0.713   2.273   3.338 -0.0617  0.2207  0.2053
 3007W        W 7058   6.140   3.621   0.716 -0.3037 -0.1032 -0.0268
 3008W        W 7059   0.098   0.315  12.908 -0.0968 -0.0795  0.1321
 3009W        W 7060   5.012   7.995  13.464  0.1414  0.0690 -0.1457
 3010W        W 7061   1.071   5.409   9.743 -0.1509 -0.1853 -0.4118
 3011W        W 7062   5.649   1.219   2.723 -0.5645 -0.2191 -0.0518
 3012W        W 7063   5.703   2.645  13.524 -0.0167 -0.0918 -0.0621
 3013W        W 7064   7.090   5.617   2.203 -0.2653  0.5007  0.0684
 3014W        W 7065   4.214   4.799   3.815 -0.0016 -0.1067 -0.1506
 3015W        W 7066   2.107   0.760  13.425 -0.4808 -0.0827  0.0490
 3016W        W 7067   0.707   9.874   3.460 -0.5158 -0.1446  0.0905
 3017W        W 7068   8.539   6.811   1.871  0.3271 -0.1031 -0.2500
 3018W        W 7069   5.325   6.647   0.575 -0.1431  0.2120  0.1301
 3019W        W 7070   4.715   8.844   0.524 -0.1301 -0.1121  0.1299
 3020W        W 7071   3.885  10.065  10.361 -0.1172  0.2731 -0.2740
 3021W        W 7072   2.324   3.200   9.889 -0.3897  0.3215  0.0988
 3022W        W 7073   4.687   0.239  13.758  0.0437 -0.2191 -0.0353
 3023W        W 7074   7.731   0.259   4.857 -0.0555 -0.3265 -0.1461
 3024W        W 7075  10.055   5.300   0.852 -0.0150  0.1740  0.1127
 3025W        W 7076   7.083   6.391  10.372 -0.0406  0.0399 -0.1628
 3026W        W 7077   3.114   5.258  12.101 -0.0932 -0.2570 -0.2512
 3027W        W 7078   5.184   2.848  10.087  0.1642  0.0741  0.2160
 3028W        W 7079   9.642   5.343  11.112  0.0025  0.3646  0.3914
 3029W        W 7080   2.492   6.073   2.790  0.0965 -0.1152  0.1111
 3030W        W 7081   5.797   3.194  13.663 -0.1894 -0.2765  0.0277
 3031W        W 7082   4.964   3.723  12.793  0.0010 -0.2195  0.1110
 3032W        W 7083   1.333   3.722   2.360 -0.0852  0.2465 -0.1556
 3033W        W 7084   1.798   9.615  10.201  0.3133  0.3882 -0.1489
 3034W        W 7085   7.667   9.222  12.596 -0.1493 -0.1316  0.0568
 3035W        W 7086   8.654   5.024   4.088  0.1176  0.2772 -0.0807
 3036W        W 7087   8.533   9.753   1.613 -0.1182 -0.1464 -0.0878
 3037W        W 7088   9.217   3.793  12.853  0.1093  0.0183 -0.0750
 3038W        W 7089   4.983   8.235   3.551 -0.3134 -0.1330  0.1039
 3039W        W 7090   2.156   2.257  13.170  0.0425  0.0498 -0.1078
 3040W        W 7091   4.970   3.255   1.181 -0.1743 -0.0380  0.1655
 3041W        W 7092   0.165   1.218  10.596  0.1224 -0.0276 -0.3767
 3042W        W 7093   9.634   1.883   1.725 -0.3874  0.1059 -0.0634
 3043W        W 7094   1.070   9.001   3.989  0.1881 -0.1028 -0.0240
 3044W        W 7095   4.070   7.472   0.450  0.0592  0.0077 -0.0352
 3045W        W 7096   9.721   5.008  13.112 -0.1317 -0.1056 -0.0857
 3046W        W 7097   3.629   0.183   9.514  0.0460 -0.1673  0.2102
 3047W        W 7098   6.169   6.292  10.563 -0.0590 -0.0370 -0.2057
 3048W        W 7099   7.403   1.086   0.492  0.1778 -0.3158  0.1782
 3049W        W 7100   0.773   5.027  10.422  0.3596  0.1340  0.0827
 3050W        W 7101   5.040   3.531  10.971 -0.1237 -0.0228 -0.1613
 3051W        W 7102   5.914   3.380   9.077  0.0280 -0.0263 -0.0276
 3052W        W 7103   3.215   6.386  11.577  0.1889  0.0972 -0.3027
 3053W        W 7104   7.142   7.496   4.309  0.1540 -0.0157 -0.2592
 3054W        W 7105   4.122   9.576  13.823  0.0415 -0.1089 -0.1163
 3055W        W 7106   4.018   8.727   1.244 -0.1204  0.1741 -0.0278
 3056W        W 7107   0.608  10.170   3.021 -0.2115 -0.0974  0.0551
 3057W        W 7108   7.550   0.451   1.290 -0.0067  0.0174  0.3905
 3058W        W 7109   7.015   8.742   4.690  0.0830 -0.0564 -0.1862
 3059W        W 7110   6.461   3.372  11.192  0.0361 -0.0755 -0.2347
 3060W        W 7111   0.603   7.490   2.472  0.0567 -0.1140  0.2876
 3061W        W 7112   4.698   0.976   1.206 -0.2304  0.0448 -0.2360
 3062W        W 7113   9.198   6.224  11.479 -0.3315  0.1764  0.1657
 3063W        W 7114   9.530   2.761   9.302 -0.0885  0.0849  0.0469
 3064W        W 7115   4.252   0.225  13.543 -0.0324 -0.1286  0.1254
 3065W        W 7116   1.121   1.127   4.006  0.0230 -0.1190  0.1063
 3066W        W 7117   4.254   2.111   2.820  0.4066 -0.0711  0.2213
 3067W        W 7118   8.040   7.591   2.194 -0.0547  0.0731  0.0139
 3068W        W 7119   4.325   8.244   2.951  0.0795  0.2120  0.1762
 3069W        W 7120   2.796   3.672   2.392  0.0398 -0.1831  0.1324
 3070W        W 7121   8.811   3.517  13.558 -0.1380 -0.1670 -0.1228
 3071W        W 7122   6.233   4.585  12.633  0.1012 -0.0521  0.2027
 3072W        W 7123   1.243   6.994  12.546  0.1057  0.2137 -0.2401
 3073W        W 7124   2.585   4.172   5.469 -0.1668  0.2041 -0.0801
 3074W        W 7125   7.174   4.867   9.846 -0.0683 -0.0715  0.2219
 3075W        W 7126   8.630   8.621  11.670 -0.0704 -0.0784  0.2169
 3076W        W 7127   6.419   7.901   4.573  0.3062 -0.1465  0.0240
 3077W        W 7128   1.326   7.518  12.516 -0.2646 -0.0469  0.1344
 3078W        W 7129   1.051   0.740  11.796 -0.1640 -0.0355 -0.0532
 3079W        W 7130   3.725   6.478   8.940 -0.2387  0.1371  0.2310
 3080W        W 7131   8.408   7.679  12.068  0.1761 -0.3411  0.1508
 3081W        W 7132   1.808   2.343   1.341 -0.2218  0.0581 -0.1676
 3082W        W 7133  10.195   7.643   0.757 -0.1099  0.2189 -0.3606
 3083W        W 7134   7.127   6.456  13.294  0.2195  0.0228 -0.2256
 3084W        W 7135   8.130   4.835   2.562  0.2035 -0.0500 -0.0044
 3085W        W 7136   5.911   6.259  12.572  0.0726  0.2682  0.2014
 3086W        W 7137   8.634   8.737   2.203 -0.0113 -0.0075  0.1443
 3087W        W 7138   7.155   6.356  11.882  0.2409 -0.0751  0.0974
 3088W        W 7139   3.261   5.676  10.162  0.1973 -0.0075  0.3030
 3089W        W 7140   9.739   5.999  12.124 -0.3811 -0.0494 -0.4622
 3090W        W 7141   9.107   6.526   2.736  0.0523  0.0888  0.3036
 3091W        W 7142   7.900   9.417   3.870 -0.0953 -0.3953  0.0678
 3092W        W 7143   1.060   4.682  13.109  0.6375  0.0998 -0.0634
 3093W        W 7144  10.135   3.809   5.107 -0.1959  0.2800 -0.1597
 3094W        W 7145   2.999   7.329   3.099 -0.1770  0.0675 -0.1543
 3095W        W 7146   3.714   2.803  12.755 -0.1525  0.0836  0.1115
 3096W        W 7147   8.167   4.375   4.205  0.0260 -0.2045  0.0891
 3097W        W 7148   0.106   1.195  12.618 -0.1593  0.1489 -0.0578
 3098W        W 7149   7.140   2.355  11.827 -0.2827 -0.0240 -0.0640
 3099W        W 7150   5.797   9.031   5.660 -0.0319  0.3137  0.0528
 3100W        W 7151   0.750   8.531  13.410 -0.1740  0.0121 -0.3814
 3101W        W 7152   2.002   9.090  13.813 -0.0446  0.2276  0.1317
 3102W        W 7153   4.987   7.344   0.461  0.1014 -0.1937  0.0837
 3103W        W 7154   2.128   3.604   1.123  0.3723 -0.1130 -0.1881
 3104W        W 7155   8.597   1.480   3.841  0.0221 -0.0828  0.0999
 3105W        W 7156   4.397   0.890   5.281 -0.1937 -0.3210 -0.1131
 3106W        W 7157   1.204   6.180   0.778  0.2160  0.2553 -0.4784
 3107W        W 7158   6.693   2.302   0.757  0.0113  0.1599 -0.0114
 3108W        W 7159   2.798   5.379  10.077 -0.1613  0.5143 -0.0234
 3109W        W 7160   1.714   3.753  13.857 -0.1342 -0.0780  0.0500
 3110W        W 7161   1.896   3.682   4.881  0.1861  0.3062  0.0092
 3111W        W 7162   3.408  10.046   1.996 -0.3921 -0.0507 -0.0300
 3112W        W 7163   3.584   0.739   1.740  0.1478  0.2725 -0.3553
 3113W        W 7164   9.187   1.747  12.341  0.1807  0.2465  0.4005
 3114W        W 7165   3.949   6.532   3.253 -0.0241 -0.1963  0.3813
 3115W        W 7166   8.911   7.185   1.687 -0.0885 -0.0986  0.0399
 3116W        W 7167   5.467   7.864   9.485  0.0961 -0.1170  0.0444
 3117W        W 7168   7.795   2.211   2.797 -0.0335 -0.0816 -0.2703
 3118W        W 7169   9.371   5.070   1.597 -0.1896  0.1840 -0.1071
 3119W        W 7170   8.553   2.370   5.534  0.2135  0.1085 -0.1895
 3120W        W 7171   2.598   1.742  12.614 -0.0289 -0.1366 -0.2294
 3121W        W 7172   1.384   9.270   0.984  0.2426 -0.0449 -0.4076
 3122W        W 7173   7.797   7.254   1.321  0.0324 -0.2329 -0.0462
 3123W        W 7174   0.476   1.362   3.215 -0.1188  0.1338 -0.1450
 3124W        W 7175   0.972   1.924  11.629  0.0387 -0.2382  0.6110
 3125W        W 7176   7.751   4.247   1.982  0.2938  0.3612 -0.2875
 3126W        W 7177   3.526   2.233   0.617  0.2540  0.2460 -0.0087
 3127W        W 7178   3.636   0.941   3.544 -0.4329  0.0821  0.1371
 3128W        W 7179   5.773   7.594  10.772  0.1169  0.0445  0.0098
 3129W        W 7180   2.310   5.064   5.075 -0.2881 -0.3543 -0.0276
 3130W        W 7181   6.802   0.900   0.299  0.1848  0.2808 -0.2495
 3131W        W 7182   0.640   5.442  10.745  0.1266 -0.1666  0.2984
 3132W        W 7183   7.944   3.836   3.372  0.2656 -0.2561 -0.1274
 3133W        W 7184   4.913   2.745   1.357  0.2365 -0.2101 -0.1829
 3134W        W 7185   7.227   6.859  11.794 -0.3277 -0.2026 -0.0980
 3135W        W 7186   5.864   5.351  10.656 -0.0555  0.0132 -0.4247
 3136W        W 7187   7.979   4.075   1.130  0.0444 -0.0117  0.1000
 3137W        W 7188   9.539   6.905  12.351 -0.0431  0.0126  0.1455
 3138W        W 7189   5.136   0.583   3.738  0.0335 -0.0101  0.0471
 3139W        W 7190   2.898   9.730   1.376  0.2009 -0.0813 -0.0074
 3140W        W 7191   7.778   6.352   3.146 -0.1888 -0.3851  0.2582
 3141W        W 7192   2.862   8.324   3.458 -0.0068  0.2805  0.0284
 3142W        W 7193   8.714   3.735   2.426 -0.1531  0.0651  0.1448
 3143W        W 7194   3.869   2.187  11.729 -0.3492 -0.3009 -0.1427
 3144W        W 7195   6.613   8.121  13.851 -0.2404  0.2248  0.1057
 3145W        W 7196  10.083   1.803  11.364 -0.0376  0.0449 -0.0420
 3146W        W 7197   3.272   3.433   9.419 -0.0969 -0.1880 -0.1930
 3147W        W 7198   8.572   6.084  12.941 -0.0115 -0.1367 -0.0027
 3148W        W 7199   5.012   1.013   3.962  0.3112 -0.0441  0.1398
 3149W        W 7200   1.040   3.390   0.945 -0.1101 -0.1124 -0.1121
 3150W        W 7201   5.612   9.119   1.651 -0.0821  0.0129  0.0435
 3151W        W 7202   1.454   9.881  12.816  0.1122 -0.1056  0.1404
 3152W        W 7203   7.576   2.539   0.861 -0.1868  0.1548  0.2365
 3153W        W 7204   0.618  10.039   9.358  0.0523  0.0719 -0.2788
 3154W        W 7205   8.826   0.893  12.703  0.2587  0.2387  0.0831
 3155W        W 7206   4.796   4.679   1.296  0.1498 -0.0131 -0.1051
 3156W        W 7207   2.437   2.949   0.718 -0.3676 -0.1477 -0.1802
 3157W        W 7208   5.612   5.521   0.850  0.0359 -0.0925  0.1864
 3158W        W 7209   8.335   8.892  10.655  0.0117 -0.2727 -0.0375
 3159W        W 7210   3.543   1.435  11.530  0.1165  0.0574  0.1414
 3160W        W 7211   0.930   5.646  12.125 -0.0006 -0.0391 -0.2447
 3161W        W 7212   6.327   4.543   3.149 -0.1477  0.0428  0.0009
 3162W        W 7213   7.611   0.264   0.429  0.2207  0.1914  0.2479
 3163W        W 7214   0.069   9.305  10.816 -0.0110  0.1494  0.1535
 3164W        W 7215   4.453   9.578   0.233 -0.1109  0.2219  0.0393
 3165W        W 7216   6.595   9.073   3.072  0.1622  0.0782  0.0139
 3166W        W 7217   4.522   8.204  13.411  0.0772 -0.0734  0.2093
 3167W        W 7218   7.361   2.997   0.618 -0.0842  0.1634  0.1062
 3168W        W 7219   5.771   9.330  11.430  0.0784 -0.0216  0.0619
 3169W        W 7220   0.619   5.163  13.238  0.0329 -0.2263  0.0551
 3170W        W 7221   5.115   0.686   3.228  0.1771 -0.1526 -0.0063
 3171W        W 7222   7.019   7.388   1.788  0.0374 -0.2248  0.0223
 3172W        W 7223   7.353   5.829   5.308 -0.1945 -0.0671 -0.2614
 3173W        W 7224   3.953   3.001   2.675  0.1733  0.1160  0.1414
 3174W        W 7225   3.152   3.659  12.337 -0.2991 -0.0569 -0.0079
 3175W        W 7226   1.847   1.765   4.502  0.1845 -0.1957  0.0264
 3176W        W 7227   3.277   5.600   4.302 -0.1579  0.0537  0.1351
 3177W        W 7228   8.452   7.835  12.613 -0.0764 -0.0357 -0.3009
 3178W        W 7229   5.639   6.103   3.479 -0.1216 -0.0701  0.1881
 3179W        W 7230   0.406   7.376  11.918 -0.0451  0.2470 -0.1208
 3180W        W 7231   5.711   0.643   0.170  0.1583  0.0238  0.1896
 3181W        W 7232   5.648   2.284  10.832 -0.4635  0.0049  0.0686
 3182W        W 7233   9.477   9.802  11.160  0.0252 -0.0544 -0.1566
 3183W        W 7234   7.795   1.792   2.447 -0.0982  0.0531  0.2775
 3184W        W 7235   0.809   0.628   3.184  0.1495 -0.2252  0.0653
 3185W        W 7236   5.056   4.373  10.779  0.1381 -0.0434  0.0131
 3186W        W 7237   3.731   7.887  13.150 -0.3433 -0.2893  0.0968
 3187W        W 7238   4.931   4.164   0.862 -0.1883 -0.2611 -0.0611
 3188W        W 7239   3.079   4.394  12.479  0.1114  0.0266  0.3029
 3189W        W 7240   8.670   6.548  12.800 -0.2012 -0.4745  0.0759
 3190W        W 7241   2.535   8.148   3.059  0.2446  0.0686  0.3653
 3191W        W 7242   9.946   4.802  13.511 -0.0864 -0.0393 -0.2024
 3192W        W 7243   4.834   7.477   4.384  0.5356 -0.0418 -0.1383
 3193W        W 7244   5.960   0.113   4.607 -0.2901 -0.0561 -0.4340
 3194W        W 7245   4.579   0.642   4.920 -0.2068  0.2995 -0.0525
 3195W        W 7246   0.715   9.529  12.346 -0.1214  0.3503  0.0067
 3196W        W 7247   8.478   0.058  12.831 -0.0848  0.0103  0.0109
 3197W        W 7248   0.528   0.244   4.773 -0.1449  0.0578  0.0502
 3198W        W 7249   4.062   6.645   1.595  0.1147  0.1327  0.0335
 3199W        W 7250   6.308   0.502  11.848  0.3583  0.3149 -0.2060
 3200W        W 7251   6.865   0.299   2.552  0.0335 -0.1367  0.0688
 3201W        W 7252   4.546   7.447  10.955 -0.0629 -0.1070 -0.1726
 3202W        W 7253   6.514   7.940   5.043  0.0530  0.2357  0.0359
 3203W        W 7254   4.104   5.586  12.119 -0.4468  0.1704 -0.1369
 3204W        W 7255   0.192   9.875   3.615  0.0704 -0.0580  0.3975
 3205W        W 7256   9.306  10.018   9.292 -0.3909 -0.0324  0.0735
 3206W        W 7257   5.821   9.888   0.422  0.1081  0.2313  0.3248
 3207W        W 7258   6.129   9.806  11.595  0.2712 -0.0354 -0.3772
 3208W        W 7259   1.450   3.410  12.842  0.0870 -0.1855  0.0751
 3209W        W 7260   9.433   3.190   3.984 -0.0178  0.0250  0.1182
 3210W        W 7261   1.800   1.588  12.697  0.1400 -0.0119 -0.0156
 3211W        W 7262   5.542   6.379   4.497 -0.1328 -0.0304 -0.2218
 3212W        W 7263   7.166   8.986  11.793  0.0115 -0.0847  0.1255
 3213W        W 7264   0.628   1.020   2.422 -0.0592  0.0685 -0.2675
 3214W        W 7265   9.364   4.077   2.948 -0.0656 -0.1179  0.2617
 3215W        W 7266   7.368   6.116   2.930  0.1461 -0.2042  0.0365
 3216W        W 7267   2.869   8.786  10.010 -0.4349 -0.0992  0.2793
 3217W        W 7268   4.082   5.229   3.346 -0.1673 -0.5561  0.0161
 3218W        W 7269   1.234   6.758  10.878  0.1210 -0.0702  0.0515
 3219W        W 7270   3.799   3.886   2.325 -0.1727  0.2702 -0.0591
 3220W        W 7271   5.289   1.233  13.787 -0.1473 -0.2049  0.1938
 3221W        W 7272   6.572   8.394   3.446 -0.1175 -0.1335  0.0575
 3222W        W 7273   5.736   9.441   4.180  0.1320  0.0370 -0.0628
 3223W        W 7274   7.036   4.264   9.572 -0.2554 -0.1994 -0.2960
 3224W        W 7275   1.719   4.531  10.356  0.0006 -0.4993 -0.3753
 3225W        W 7276   9.456   4.621   3.757 -0.3158 -0.3026  0.2595
 3226W        W 7277   8.827   4.674   3.759  0.0855 -0.1180 -0.2110
 3227W        W 7278   0.785   4.811   3.687  0.1130  0.1417 -0.1323
 3228W        W 7279   5.525   7.410   9.298  0.1927  0.0782 -0.0172
 3229W        W 7280   1.353   0.811   1.909 -0.1820  0.1734  0.0169
 3230W        W 7281   3.377   6.749  12.290 -0.1776  0.2918 -0.1093
 3231W        W 7282   0.511   6.443  11.020  0.1085 -0.0945  0.0310
 3232W        W 7283   1.596   3.484  10.996  0.2150  0.0008 -0.0246
 3233W        W 7284   9.305   6.520   0.070  0.2927  0.4594 -0.2124
 3234W        W 7285   4.029   4.239  10.535  0.1122  0.2269 -0.0270
 3235W        W 7286   7.660   4.735   1.628 -0.0167 -0.2728  0.0346
 3236W        W 7287   3.649   7.281   0.065 -0.0015 -0.0534 -0.0917
 3237W        W 7288   8.818   4.664  10.315  0.3675  0.0739  0.2235
 3238W        W 7289   2.529  10.130   1.022  0.3104  0.0619  0.0064
 3239W        W 7290   5.454   1.911  11.198 -0.0782  0.0535 -0.0310
 3240W        W 7291   9.671   8.804  11.333 -0.0051 -0.1951  0.0355
 3241W        W 7292   9.427   2.665  12.211 -0.2539  0.2263  0.0170
 3242W        W 7293   9.037   5.058  13.577 -0.1297 -0.4332  0.0180
 3243W        W 7294   8.212   3.508   5.243 -0.0873  0.1611  0.0567
 3244W        W 7295   3.192   7.458   5.226 -0.0331 -0.1356 -0.0804
 3245W        W 7296   3.177   5.190   4.691  0.4004 -0.1902  0.0186
 3246W        W 7297   8.660   1.004  12.100 -0.1621  0.1528 -0.1759
 3247W        W 7298   5.796   8.836  13.130 -0.2096  0.1754  0.2114
 3248W        W 7299   1.699   3.688   9.805 -0.0635 -0.1275  0.3908
 3249W        W 7300   6.847   0.856   1.182 -0.0487  0.1132  0.1125
 3250W        W 7301   7.699   5.600   0.624 -0.0491  0.0964 -0.1481
 3251W        W 7302   0.711   2.652  11.958  0.0257  0.0023 -0.2978
 3252W        W 7303   5.025   5.673   0.093 -0.1755  0.1698 -0.1067
 3253W        W 7304   8.764   2.871  11.597  0.0288 -0.0739  0.0571
 3254W        W 7305   2.345   7.218   3.283 -0.4163  0.2055  0.0511
 3255W        W 7306  10.208   2.483  10.687 -0.1053  0.2545 -0.1629
 3256W        W 7307   2.729   4.024   0.589  0.0038 -0.2179 -0.0810
 3257W        W 7308   7.977   2.669   2.372  0.0536  0.0712  0.2971
 3258W        W 7309   6.077   2.276   1.728 -0.1494  0.0400  0.4535
 3259W        W 7310   1.290   7.648   0.368  0.2544 -0.1962 -0.1861
 3260W        W 7311   2.899   2.856  13.771 -0.0115  0.0718 -0.4013
 3261W        W 7312   7.526   1.133  11.798 -0.0893 -0.0741 -0.0362
 3262W        W 7313   8.364   5.384  10.381  0.1609 -0.3393  0.0545
 3263W        W 7314   7.316   5.984   0.415  0.0703 -0.0096  0.2410
 3264W        W 7315   0.343   1.768   0.814 -0.0261 -0.0413 -0.0154
 3265W        W 7316   8.239   6.718  12.988  0.3703  0.1145 -0.2024
 3266W        W 7317   5.713   6.884   0.399  0.1046 -0.1708  0.0243
 3267W        W 7318   5.383   5.445   9.768  0.0295 -0.0561 -0.0305
 3268W        W 7319   5.141   9.420   8.725 -0.1051  0.1487 -0.1338
 3269W        W 7320   6.424   6.259   0.706  0.1879  0.3601 -0.2030
 3270W        W 7321   6.074   8.502   4.290  0.2529 -0.2841  0.0587
 3271W        W 7322   8.422   2.905  10.622  0.0258  0.2886 -0.2399
 3272W        W 7323   8.354   1.323  11.938  0.1870 -0.1010  0.4301
 3273W        W 7324   4.873   4.173   1.427 -0.0392  0.0524 -0.0597
 3274W        W 7325   7.363   9.357   0.644 -0.3771  0.0243  0.0592
 3275W        W 7326   3.635   6.047  12.745  0.3677 -0.1179  0.1070
 3276W        W 7327   6.461   5.128   9.520 -0.1832  0.1989 -0.1186
 3277W        W 7328   4.379   1.484   1.081  0.0055 -0.1006  0.0696
 3278W        W 7329   5.799   2.582  12.946 -0.1063  0.1693 -0.1504
 3279W        W 7330   6.120   9.150   3.265  0.3334 -0.0025 -0.0637
 3280W        W 7331   7.204   2.007   1.612  0.1951 -0.3383  0.4181
 3281W        W 7332   5.600   6.274   0.828 -0.1249  0.0084  0.1362
 3282W        W 7333   3.337   8.119   2.824  0.1946  0.0881 -0.0047
 3283W        W 7334   8.554   7.551   1.145 -0.0086  0.0468 -0.1142
 3284W        W 7335   4.717   3.888  10.829 -0.1497 -0.0095  0.2904
 3285W        W 7336   2.771   1.941   2.977  0.2703 -0.2784 -0.0978
 3286W        W 7337   9.582   1.214  11.072 -0.0856  0.0582 -0.1059
 3287W        W 7338   6.534   7.423   4.353 -0.0069 -0.3171 -0.1068
 3288W        W 7339   3.519   8.240  11.534  0.1705  0.2105 -0.1206
 3289W        W 7340   7.421   1.502   2.265  0.1338 -0.2171  0.0576
 3290W        W 7341   1.117   5.038  12.115  0.1022 -0.0492 -0.0360
 3291W        W 7342   4.966   8.735   5.344 -0.1746 -0.0872 -0.0505
 3292W        W 7343   5.927   1.931   9.770 -0.0009  0.0444 -0.0507
 3293W        W 7344   5.161   3.340  12.038  0.0078 -0.0487  0.0369
 3294W        W 7345   7.698   0.772   1.702 -0.2361  0.0049 -0.2757
 3295W        W 7346   5.066   0.477  13.423 -0.0856  0.2141  0.1066
 3296W        W 7347   1.781   4.931  10.836  0.0237  0.0226 -0.1297
 3297W        W 7348   5.200   2.064   5.322 -0.3039 -0.1439  0.1451
 3298W        W 7349   7.207   8.159  12.588  0.3367  0.1394 -0.1945
 3299W        W 7350   1.999   1.242  12.332 -0.1641 -0.0346  0.2882
 3300W        W 7351   6.151   9.090  11.153 -0.2381  0.2832 -0.0441
 3301W        W 7352   5.786   1.510   1.813  0.2060  0.0081 -0.1505
 3302W        W 7353   1.501   4.037   2.707 -0.0542  0.0825  0.1148
 3303W        W 7354   9.706   3.572   4.979  0.1460  0.2381  0.0852
 3304W        W 7355   0.920   9.142  11.716 -0.2464 -0.2932 -0.1345
 3305W        W 7356   5.631   9.358  10.854  0.0865 -0.0804  0.0441
 3306W        W 7357   7.798   0.305   2.828 -0.0127 -0.1318 -0.0005
 3307W        W 7358   1.875   1.546   3.354 -0.1193  0.0537 -0.3954
 3308W        W 7359   9.399   1.690   5.332 -0.2199  0.0197 -0.2680
 3309W        W 7360   7.287   5.414   9.963  0.0417  0.0929  0.0717
 3310W        W 7361   5.911   4.532  10.294 -0.0665 -0.2050 -0.2086
 3311W        W 7362   9.821   5.696  13.046  0.1117  0.2012 -0.3119
 3312W        W 7363   9.267   5.391  10.752 -0.2792  0.0784  0.0047
 3313W        W 7364   5.578   6.415   0.203 -0.0623  0.0899 -0.0889
 3314W        W 7365   9.478   0.529   9.930  0.1077 -0.0837  0.2002
 3315W        W 7366   2.324   9.360  12.744  0.0805 -0.0452  0.1531
 3316W        W 7367   9.542   4.613  13.371 -0.2038 -0.1224 -0.1097
 3317W        W 7368   0.526   3.945   9.764  0.0535 -0.0748  0.0923
 3318W        W 7369   6.976   3.599  11.313  0.1015  0.0737 -0.1556
 3319W        W 7370   4.176   8.762   4.931  0.0293  0.1524  0.0156
 3320W        W 7371   0.084   3.285   0.525 -0.3480 -0.1329 -0.0668
 3321W        W 7372   1.782   1.036  13.169 -0.1505 -0.3181  0.1030
 3322W        W 7373   2.706   7.019   9.790 -0.2688 -0.0109  0.2401
 3323W        W 7374   2.913   2.480  12.610 -0.2829 -0.1267  0.4473
 3324W        W 7375   9.275   3.464   0.791  0.0961  0.1829  0.1915
 3325W        W 7376   3.216   3.389   1.223  0.3196  0.0734  0.4083
 3326W        W 7377  10.145   9.734   0.728  0.0260 -0.0436 -0.0011
 3327W        W 7378   9.445   7.881   1.182  0.0925  0.0885 -0.1265
 3328W        W 7379   9.782   9.089  11.786 -0.1974 -0.2763  0.3364
 3329W        W 7380   2.683   4.565  10.839 -0.3190  0.0766 -0.0525
 3330W        W 7381   5.721   4.867  11.058  0.2294 -0.0875  0.0615
 3331W        W 7382   7.139   4.630   2.592  0.0902  0.2079  0.2093
 3332W        W 7383   3.751   0.823  13.749 -0.3509 -0.2285  0.0326
 3333W        W 7384   8.059   2.628  13.524  0.0394 -0.0188  0.0494
 3334W        W 7385   1.946   9.596  10.645  0.0726 -0.4784  0.2151
 3335W        W 7386  10.004   1.439  10.996  0.2494 -0.1119 -0.1717
 3336W        W 7387   8.999   4.772  10.772  0.2329  0.3034 -0.0070
 3337W        W 7388   9.206   8.071   0.436  0.1678 -0.2828  0.1116
 3338W        W 7389   5.242   2.761  13.289  0.3276 -0.1644  0.1725
 3339W        W 7390   4.427   8.692  10.607  0.1046  0.0274 -0.0823
 3340W        W 7391   4.246   1.038  13.753 -0.1773  0.0931 -0.1210
 3341W        W 7392   2.548   0.509  12.176  0.1562  0.0488  0.2369
 3342W        W 7393   8.851   3.693  10.263 -0.1296  0.0509 -0.1224
 3343W        W 7394   9.021   1.405  10.222  0.2082  0.1583 -0.0157
 3344W        W 7395   7.673   1.699   0.013  0.0437  0.0800  0.0804
 3345W        W 7396   2.863   1.130  10.932 -0.3449 -0.2222 -0.1456
 3346W        W 7397   1.405   7.440  10.142  0.6117  0.0439  0.0976
 3347W        W 7398   8.415   9.084   2.490  0.1054 -0.0942  0.1773
 3348W        W 7399   7.815   4.211  12.734 -0.0490  0.1336 -0.1398
 3349W        W 7400   8.224   8.820  13.380 -0.0106  0.2728 -0.1208
 3350W        W 7401   5.244   6.271   8.456  0.0147 -0.4637 -0.1146
 3351W        W 7402   1.717   2.902  11.800 -0.0192  0.0309 -0.3899
 3352W        W 7403   6.209   7.205   0.409  0.0522 -0.3182  0.0277
 3353W        W 7404   3.193   4.914   0.514 -0.0735  0.1816 -0.0919
 3354W        W 7405   9.540   5.726   3.124 -0.3919  0.0321 -0.2850
 3355W        W 7406   6.910   8.627   9.192  0.2058 -0.0219 -0.0818
 3356W        W 7407   8.081   8.672   9.594  0.0476  0.2298  0.2892
 3357W        W 7408   8.374   2.157   3.146 -0.4408 -0.0068  0.3703
 3358W        W 7409   3.756   5.618   0.163  0.0782 -0.0195  0.2021
 3359W        W 7410   3.151   3.952   9.520 -0.1765  0.2898 -0.1753
 3360W        W 7411   6.408   6.117  11.003  0.1276  0.0191  0.2311
 3361W        W 7412   2.396   0.640   4.067  0.1291  0.1689 -0.2501
 3362W        W 7413   8.089   4.170  10.103  0.3261 -0.3967 -0.1296
 3363W        W 7414   2.332   8.783  13.909  0.1069  0.2473  0.0700
 3364W        W 7415   3.408   0.050   1.143  0.0980 -0.3505 -0.0140
 3365W        W 7416   3.810   5.272  12.617 -0.2331  0.0495  0.0086
 3366W        W 7417  10.021   6.238   3.618 -0.1151  0.2720 -0.2662
 3367W        W 7418   5.058   8.855  11.410 -0.3156  0.3201  0.2411
 3368W        W 7419   2.211   4.606   4.711 -0.3638 -0.1184 -0.1484
 3369W        W 7420   3.330   5.253   9.955 -0.0151 -0.0510 -0.0236
 3370W        W 7421   5.296   9.502   2.825 -0.1444  0.1788 -0.1053
 3371W        W 7422   3.839   9.265  10.587 -0.0505 -0.1570 -0.2300
 3372W        W 7423   9.048   2.683  11.259  0.0698 -0.0680  0.3214
 3373W        W 7424   4.104   6.592   3.919 -0.1103  0.3191  0.1301
 3374W        W 7425   6.898   3.033   3.622  0.0655 -0.2364 -0.2659
 3375W        W 7426   3.287   6.019   2.153  0.2966 -0.0401  0.1861
 3376W        W 7427   8.531   7.241   3.393  0.0044  0.1235  0.1603
 3377W        W 7428   2.568   1.575  10.989  0.0995 -0.0521 -0.0730
 3378W        W 7429   2.376   5.537  12.892 -0.3246 -0.4667 -0.0553
 3379W        W 7430   5.242   3.170  12.897  0.3174 -0.1874  0.1900
 3380W        W 7431   8.063   1.378   2.651  0.1448  0.3009  0.0103
 3381W        W 7432   1.200   2.535   2.283 -0.1497 -0.0224 -0.1747
 3382W        W 7433   8.200   1.019  13.200  0.0687 -0.1275  0.0212
 3383W        W 7434   0.374   2.526   4.189  0.3361  0.0591  0.0774
 3384W        W 7435   3.984   4.978   2.005 -0.2255  0.1091  0.1947
 3385W        W 7436   6.693   5.093  10.014 -0.2594 -0.1834  0.1520
 3386W        W 7437   1.248   1.370   5.271 -0.0717 -0.4464  0.1991
 3387W        W 7438   7.400   6.136   1.342  0.0201 -0.1477  0.1805
 3388W        W 7439   2.926   4.411  10.434  0.2431  0.0134 -0.0701
 3389W        W 7440   1.513   7.681  13.791  0.1660  0.1282  0.0021
 3390W        W 7441   7.994   0.964  11.902 -0.0925  0.1726  0.0856
 3391W        W 7442   7.410   7.150  10.867 -0.2622 -0.0194 -0.1265
 3392W        W 7443   8.074   8.924   1.768 -0.0528  0.0409 -0.3358
 3393W        W 7444   7.717  10.127   1.448 -0.2295  0.1904  0.0698
 3394W        W 7445   0.587   4.736  12.877 -0.1279  0.0292  0.0760
 3395W        W 7446   9.109   7.733   9.749  0.2141 -0.0412 -0.0764
 3396W        W 7447   9.668   6.531  10.046 -0.3657  0.1412  0.1090
 3397W        W 7448   0.951   9.393   0.604  0.1386 -0.0011  0.1315
 3398W        W 7449   6.227   3.474   3.350 -0.0926  0.1561  0.2606
 3399W        W 7450   1.169   9.181   0.141  0.1945  0.0253  0.2214
 3400W        W 7451   5.036   3.169   2.316 -0.0247 -0.1863  0.1476
 3401W        W 7452   3.596   2.112  13.496 -0.0913 -0.3001 -0.2688
 3402W        W 7453   4.408   9.590   0.732  0.3370  0.2518  0.3699
 3403W        W 7454   7.373   0.489   2.654  0.0247  0.2240  0.1017
 3404W        W 7455   3.362   5.265   2.920 -0.2984  0.2665  0.2255
 3405W        W 7456   6.267   1.823   2.784  0.1546 -0.1139 -0.0966
 3406W        W 7457   6.654   4.246  12.641 -0.1113  0.0351 -0.0575
 3407W        W 7458   4.052   2.702   2.299  0.0600 -0.0162  0.0038
 3408W        W 7459   5.460   2.855   4.723  0.1172  0.0858 -0.0003
 3409W        W 7460   4.033   9.755  10.777 -0.0645  0.0773 -0.1242
 3410W        W 7461   4.987   9.477   1.091 -0.0484 -0.2166  0.4522
 3411W        W 7462   6.834   7.972  10.560 -0.4161 -0.0163 -0.3520
 3412W        W 7463   6.808   5.965   9.574 -0.3822  0.1761  0.2251
 3413W        W 7464   4.560   4.330  10.730  0.5766  0.1278 -0.1702
 3414W        W 7465   8.357   6.209  11.107  0.0710 -0.0354  0.1687
 3415W        W 7466   7.294   9.721  13.156 -0.0060  0.2769  0.1534
 3416W        W 7467   5.744   6.726   0.904 -0.0112  0.1450  0.0311
 3417W        W 7468   7.094   8.191  11.431 -0.0508 -0.0538 -0.0068
 3418W        W 7469   4.979   0.865   2.225  0.0335 -0.4112 -0.3697
 3419W        W 7470   2.018   0.290  11.537  0.1382  0.0252 -0.0251
 3420W        W 7471   1.887   9.267   2.936  0.0096 -0.0147 -0.4355
 3421W        W 7472   3.900   8.211  12.050  0.1050  0.0915  0.0640
 3422W        W 7473   6.776   8.321  13.349 -0.0744  0.0042  0.0340
 3423W        W 7474   0.416   0.424   0.978 -0.2329  0.1228 -0.1349
 3424W        W 7475   4.130   6.027  13.227  0.1459  0.1427  0.1781
 3425W        W 7476   9.436   5.538   3.715 -0.2147 -0.0766  0.1560
 3426W        W 7477   6.696   3.042   2.260  0.6652 -0.0815  0.2971
 3427W        W 7478   9.059   3.317   1.295 -0.3750  0.3011 -0.0449
 3428W        W 7479   6.583   3.746   5.786  0.2231  0.0091  0.2987
 3429W        W 7480   8.761   2.796   3.751  0.0412  0.2305  0.0809
 3430W        W 7481   4.676   0.755  13.679 -0.0041 -0.1565 -0.1258
 3431W        W 7482   6.551   6.833  11.348  0.0267 -0.0225  0.1978
 3432W        W 7483   1.610   0.325  10.842 -0.3858  0.1890 -0.2435
 3433W        W 7484   3.520   7.591  10.763  0.3865 -0.0060  0.1757
 3434W        W 7485   4.629   1.618   9.683 -0.3292 -0.2692 -0.3797
 3435W        W 7486   0.127   3.742   3.132 -0.0249 -0.1689 -0.1751
 3436W        W 7487   8.477   7.931   3.928  0.0730 -0.2483  0.1101
 3437W        W 7488   8.183   8.798   3.534 -0.1935 -0.0072 -0.0095
 3438W        W 7489   1.901   3.400  12.435  0.0338  0.4126  0.0164
 3439W        W 7490   0.814   1.397  11.738  0.2183  0.0159  0.0096
 3440W        W 7491   0.615   1.489   2.697 -0.2823 -0.0330 -0.1653
 3441W        W 7492   1.652   2.983  10.950 -0.1098 -0.1246  0.0793
 3442W        W 7493   4.865   7.437   3.069  0.1652 -0.0222  0.0390
 3443W        W 7494   0.343   6.410   1.119  0.0538 -0.0272 -0.0117
 3444W        W 7495   8.112   1.090   4.766  0.5819 -0.2583  0.0301
 3445W        W 7496   3.904   2.993   1.231  0.3605 -0.0405  0.3841
 3446W        W 7497   3.017   6.987   0.637 -0.0888  0.0829  0.2345
 3447W        W 7498   0.883   7.557   0.668 -0.0624  0.0800  0.1863
 3448W        W 7499   1.741   4.749   9.889 -0.1527 -0.1260  0.0690
 3449W        W 7500   3.844   0.405   8.562  0.2649  0.1425 -0.1288
 3450W        W 7501   5.247   8.946   1.924  0.0740 -0.0185  0.3850
 3451W        W 7502   2.795   7.060   1.095  0.1285  0.0923 -0.1762
 3452W        W 7503   1.389   7.970  10.349 -0.2099  0.1553  0.1511
 3453W        W 7504   7.229   8.606   1.975 -0.1746 -0.1548  0.2343
 3454W        W 7505   7.490   2.832   1.663 -0.0311 -0.2515  0.1600
 3455W        W 7506   1.985   3.218   4.148 -0.2030 -0.0400  0.2116
 3456W        W 7507   2.810   8.516   0.036  0.4170  0.1467  0.0383
 3457W        W 7508   4.471   9.198   9.563  0.0229  0.2622  0.0323
 3458W        W 7509   5.389   6.064   9.486  0.1149  0.2799 -0.1777
 3459W        W 7510   2.992   2.056   0.753 -0.0511 -0.2227 -0.2277
 3460W        W 7511   2.672   0.510   1.465 -0.2048 -0.1062  0.1123
 3461W        W 7512   9.959   8.796  12.164  0.1310 -0.1875 -0.0609
 3462W        W 7513   6.212   9.497   3.821  0.0859 -0.0320  0.0981
 3463W        W 7514   2.297   8.685   2.173 -0.0142  0.3180 -0.0167
 3464W        W 7515   8.496   4.189  10.443  0.0496  0.2265  0.0861
 3465W        W 7516   5.438   0.652   1.782  0.2395 -0.0345  0.1481
 3466W        W 7517   0.851   7.914  13.285  0.1382 -0.1929  0.4475
 3467W        W 7518   5.920   4.313   4.568  0.4376  0.0106  0.2042
 3468W        W 7519   5.625   6.301   2.363  0.3224  0.2239  0.0099
 3469W        W 7520   1.216   1.164   1.462 -0.1920  0.0081 -0.1136
 3470W        W 7521   7.332   8.149   2.045  0.1891  0.2646 -0.0613
 3471W        W 7522   7.754   8.278  11.579  0.2563 -0.1000  0.2738
 3472W        W 7523   5.724   1.035   1.151 -0.3694 -0.0229  0.0114
 3473W        W 7524   3.875   0.914  10.249 -0.1461 -0.0038 -0.2181
 3474W        W 7525   7.703   8.088  13.205 -0.0332  0.0345  0.1010
 3475W        W 7526   7.004   5.697  10.738 -0.1493  0.5460  0.3064
 3476W        W 7527   7.492   6.113  13.415  0.2394  0.0315 -0.3911
 3477W        W 7528   7.168   9.411   3.997  0.1208 -0.1210  0.0974
 3478W        W 7529   6.513   9.876   2.463  0.1449  0.1774  0.0793
 3479W        W 7530   5.558   5.020   0.102  0.0481  0.0289 -0.1478
 3480W        W 7531   1.196   3.668   9.739 -0.0743 -0.0640 -0.1606
 3481W        W 7532   5.069   8.997  12.960 -0.0331 -0.1612  0.1011
 3482W        W 7533   6.964   1.843   4.963  0.0705  0.0754 -0.0013
 3483W        W 7534   2.859   6.329  10.662 -0.1257  0.2227 -0.0391
 3484W        W 7535   8.713   7.389  11.828 -0.0563  0.1395  0.2189
 3485W        W 7536   6.898   3.628   0.284  0.0361  0.0567 -0.1800
 3486W        W 7537   7.434   5.827  10.378 -0.0033 -0.1068  0.0286
 3487W        W 7538   8.684   2.492   2.930  0.2978 -0.0736  0.5712
 3488W        W 7539   1.636  10.089   2.122 -0.0331 -0.0102 -0.1186
 3489W        W 7540   0.390   2.227  10.855  0.0576  0.2391 -0.2631
 3490W        W 7541   1.465   4.533   3.376  0.2314 -0.1113 -0.1400
 3491W        W 7542   5.831   1.316  12.909 -0.0560 -0.0454 -0.0288
 3492W        W 7543   5.825   5.650   3.080  0.0920  0.1421  0.0504
 3493W        W 7544   6.335   7.684  10.937  0.1759  0.1112  0.1293
 3494W        W 7545   1.379   1.198  13.475  0.1032  0.0991  0.1060
 3495W        W 7546   0.341   6.908  10.450 -0.2305  0.1818  0.1323
 3496W        W 7547   8.593   7.680   1.617  0.1057  0.1359  0.0059
 3497W        W 7548   5.307   1.864   2.710  0.0801 -0.1838 -0.0742
 3498W        W 7549   9.712   8.613   2.807 -0.1725  0.3764  0.0770
 3499W        W 7550   8.989   6.284  13.053  0.1002  0.3277 -0.1147
 3500W        W 7551   2.639   2.889   1.985  0.0310 -0.2783  0.1286
 3501W        W 7552   3.691   8.277   3.723  0.0551  0.1916 -0.0117
 3502W        W 7553   2.478   4.907  12.499 -0.1541  0.1326 -0.2403
 3503W        W 7554   6.485   0.723   5.068 -0.0434 -0.1424 -0.1819
 3504W        W 7555   8.795   5.770   1.780 -0.0849  0.2003  0.1280
 3505W        W 7556   1.900   2.428  11.098 -0.1363  0.2493  0.0580
 3506W        W 7557   3.992   0.583  11.690  0.1299  0.0033  0.1269
 3507W        W 7558   2.209   6.949  12.167 -0.1975  0.1114  0.0071
 3508W        W 7559   7.373   8.280   1.593 -0.4388 -0.0903 -0.1363
 3509W        W 7560   7.217   6.569   3.074 -0.1716 -0.1782  0.2186
 3510W        W 7561   1.106   9.369   2.029  0.1333 -0.3762 -0.0223
 3511W        W 7562   4.885   1.461   1.408  0.0499  0.2861  0.3791
 3512W        W 7563   3.624   6.205  10.232  0.1691  0.0646  0.0565
 3513W        W 7564   3.288   2.104   1.749 -0.0637 -0.1505  0.0669
 3514W        W 7565   5.452   6.382   2.883  0.0972 -0.0407 -0.0291
 3515W        W 7566   5.324   6.475  13.443 -0.1900 -0.0227 -0.0394
 3516W        W 7567   9.586   4.269  11.442 -0.3764  0.2592  0.0239
 3517W        W 7568   9.149   3.207   5.832 -0.3049  0.0958  0.0333
 3518W        W 7569   3.635   2.625  13.397  0.2578  0.2721  0.0158
 3519W        W 7570   2.063   2.297  11.573 -0.0910  0.2508  0.1360
 3520W        W 7571   2.147   7.565  12.998  0.2400  0.2193 -0.2935
 3521W        W 7572   4.957   1.066   9.749  0.1464 -0.1421 -0.0643
 3522W        W 7573   4.530   5.739  13.115  0.2942  0.0608  0.1022
 3523W        W 7574   6.483   4.243  10.660  0.2888 -0.1994 -0.0868
 3524W        W 7575   6.784  10.003   5.003  0.1431  0.0101  0.0873
 3525W        W 7576   9.381   6.855  11.779  0.1111 -0.0117  0.0737
 3526W        W 7577   5.087   2.600   4.500  0.2323  0.0436 -0.0393
 3527W        W 7578   4.560   1.114   2.035 -0.1986 -0.2651 -0.1502
 3528W        W 7579   8.512   2.915   9.929 -0.1997 -0.0574 -0.2947
 3529W        W 7580   3.660   6.499   3.673 -0.1904 -0.2348 -0.2909
 3530W        W 7581   2.554   2.304  11.706  0.1686  0.2972 -0.2210
 3531W        W 7582   0.030   2.348   0.431  0.0706 -0.1896 -0.0733
 3532W        W 7583   2.139   9.607   1.983  0.3252  0.2543 -0.1049
 3533W        W 7584   0.353   3.478  11.628 -0.0005 -0.0822  0.1047
 3534W        W 7585   8.630   9.059  11.943  0.0863 -0.1837  0.1154
 3535W        W 7586   9.831   3.135   9.523  0.0399  0.0746  0.1814
 3536W        W 7587   9.798   2.128  13.352  0.0529 -0.0424  0.2841
 3537W        W 7588   0.777   0.797   9.490  0.0473 -0.2823  0.0779
 3538W        W 7589   6.091   5.128   4.269  0.0671  0.0326  0.0995
 3539W        W 7590   6.772   7.324   2.613 -0.2314 -0.1165 -0.0487
 3540W        W 7591   3.896   3.589  13.189 -0.0545  0.1319  0.1126
 3541W        W 7592   2.169   8.932   2.567 -0.3973 -0.2053 -0.1778
 3542W        W 7593   4.205   3.861  10.858  0.2245  0.0125 -0.1360
 3543W        W 7594   4.914   2.850   2.670  0.2639 -0.1067  0.3162
 3544W        W 7595   7.495   0.030  13.586  0.4724 -0.3818  0.0611
 3545W        W 7596   2.287   2.200  12.597  0.1391 -0.0783  0.0750
 3546W        W 7597   0.534   7.171   1.962  0.1141  0.0832 -0.1398
 3547W        W 7598   6.232   7.753   3.377  0.0404 -0.1340  0.0295
 3548W        W 7599   7.550   5.599  11.634  0.0036  0.2077 -0.2929
 3549W        W 7600   4.846   7.437   2.557  0.2698 -0.2829  0.2232
 3550W        W 7601   7.854   8.483   1.671  0.0029 -0.3794  0.0641
 3551W        W 7602   2.812   2.011   1.644  0.2848  0.0978  0.1217
 3552W        W 7603   4.823   1.392  12.984 -0.0351  0.3173  0.1649
 3553W        W 7604   8.761   5.170   5.120  0.2386 -0.1226  0.5003
 3554W        W 7605   4.434   5.803  13.593  0.1713 -0.0374 -0.3828
 3555W        W 7606   3.536   7.702   9.763  0.0715 -0.2724 -0.1353
 3556W        W 7607   6.615   8.386   0.337  0.4321  0.2950  0.3412
 3557W        W 7608   1.371   1.264  12.921 -0.2214 -0.0338  0.0106
 3558W        W 7609   9.691   5.605  12.538  0.0888 -0.0339 -0.0803
 3559W        W 7610   5.770   5.462  12.113  0.1084  0.0092 -0.2604
 3560W        W 7611   0.366   2.543   9.623  0.0298  0.2154  0.2271
 3561W        W 7612   3.994   9.579   1.281  0.0551  0.2412 -0.0341
 3562W        W 7613   1.591   7.180   4.424  0.0427  0.1116  0.2055
 3563W        W 7614   6.116   4.852   5.679  0.1957  0.1191 -0.2532
 3564W        W 7615   0.863   9.320  13.428 -0.0584 -0.1905 -0.0203
 3565W        W 7616   6.249   3.121  10.711 -0.3049 -0.1440 -0.0423
 3566W        W 7617   7.314   4.500   0.187  0.0290 -0.2221  0.2590
 3567W        W 7618   1.492   7.105   2.949  0.2448  0.2379 -0.1513
 3568W        W 7619   6.698   4.568  13.319  0.4211  0.0546 -0.2010
 3569W        W 7620   2.424   1.046   4.566 -0.0467 -0.1471 -0.2777
 3570W        W 7621   7.462  10.086   4.705 -0.1090  0.0613 -0.0705
 3571W        W 7622   3.411   3.476  12.765 -0.2862 -0.0966 -0.0370
 3572W        W 7623   3.701   0.901   2.181  0.2921  0.1443  0.2223
 3573W        W 7624   8.385   9.849  11.770 -0.0404 -0.0727 -0.3399
 3574W        W 7625   0.810   6.470   2.460 -0.2061  0.0157 -0.0132
 3575W        W 7626   1.472   6.776   1.206 -0.0186 -0.0031 -0.2502
 3576W        W 7627   3.324   3.549   2.242  0.0140 -0.4136 -0.1755
 3577W        W 7628   2.793   1.538   1.785 -0.0094  0.1918 -0.2020
 3578W        W 7629   3.174   0.020   9.772 -0.2506  0.1431 -0.1156
 3579W        W 7630   6.823   5.904   0.130 -0.1704 -0.0243 -0.1908
 3580W        W 7631   0.820   3.891   0.957 -0.1792  0.0444  0.0938
 3581W        W 7632   2.618   6.560  10.258  0.1599 -0.1931  0.2410
 3582W        W 7633   8.911   6.044  10.203 -0.0031  0.2308  0.0145
 3583W        W 7634   8.552   8.865   0.495  0.0704 -0.2130  0.1679
 3584W        W 7635   3.857   5.459  11.253 -0.1958 -0.0599  0.0691
 3585W        W 7636   5.061   6.357   0.895  0.4603 -0.1887 -0.0189
 3586W        W 7637   8.135   4.252  11.818  0.2808 -0.1235 -0.0962
 3587W        W 7638   5.655   8.933   0.723  0.0687  0.1928 -0.0373
 3588W        W 7639   2.148   8.382  12.848 -0.0546 -0.2454  0.3142
 3589W        W 7640   8.673   5.038   0.508 -0.1673 -0.0575 -0.1580
 3590W        W 7641   4.385   1.717  10.502 -0.4450 -0.1711  0.0182
 3591W        W 7642   1.883   3.881  12.652  0.4097 -0.1540 -0.0561
 3592W        W 7643   0.674   1.666   9.798  0.1771 -0.1796  0.1502
 3593W        W 7644   8.722   4.456  12.891  0.0010 -0.2079 -0.2672
 3594W        W 7645   4.647   7.229  12.237  0.2725  0.1143 -0.0406
 3595W        W 7646   8.510   1.103   0.124  0.0594  0.0490 -0.0520
 3596W        W 7647   0.147   6.598   2.045 -0.0883  0.0150 -0.2044
 3597W        W 7648   3.721   3.276  11.631 -0.0238 -0.5202 -0.3679
 3598W        W 7649   6.514   2.340   0.250  0.0852  0.2355  0.2435
 3599W        W 7650   1.074   2.018   2.326  0.1095  0.1982 -0.0728
 3600W        W 7651   6.063   9.817  12.667 -0.3147 -0.0532  0.3902
 3601W        W 7652   3.497   0.261  10.073 -0.0808  0.3982  0.1428
 3602W        W 7653   6.698  10.101  10.224 -0.0698 -0.0869  0.0438
 3603W        W 7654   0.064   2.312   4.540 -0.0468 -0.3225  0.1163
 3604W        W 7655   2.529   5.041  12.974 -0.2318  0.2524 -0.1239
 3605W        W 7656   1.688   9.804   1.638  0.1317 -0.2501 -0.1431
 3606W        W 7657   4.611   7.755   8.951  0.1984 -0.1508 -0.1460
 3607W        W 7658   6.674   7.404  12.437 -0.0763  0.1125 -0.0137
 3608W        W 7659   2.601   1.324  10.362  0.0036  0.0181 -0.2345
 3609W        W 7660  10.189   9.182  11.413 -0.0707  0.2451  0.0218
 3610W        W 7661   7.796   1.086   5.200  0.3170  0.1908 -0.3374
 3611W        W 7662   3.525   9.045   2.541  0.0635 -0.3583  0.0140
 3612W        W 7663   5.210   4.812  10.924  0.1478  0.0352  0.0234
 3613W        W 7664   2.257   1.356  12.739 -0.0023  0.0672  0.1910
 3614W        W 7665   7.848   0.014  10.392 -0.0306  0.1267 -0.1776
 3615W        W 7666   5.232   1.958  10.597 -0.1603 -0.0356  0.0799
 3616W        W 7667   6.799   8.805   2.118 -0.1781 -0.4282  0.1179
 3617W        W 7668   0.140   2.174   2.209  0.1470 -0.0093 -0.2269
 3618W        W 7669   8.891   3.187  10.575 -0.3018  0.4147 -0.1413
 3619W        W 7670   2.109   5.835   3.974  0.1318 -0.1000 -0.1575
 3620W        W 7671   1.451   9.215  11.558  0.0579 -0.0612  0.0061
 3621W        W 7672   8.769   1.702   5.031 -0.2913  0.1307 -0.3441
 3622W        W 7673   8.811   4.312  12.237  0.2892 -0.1895  0.0766
 3623W        W 7674   3.494   4.760   9.393  0.0998 -0.0712 -0.2090
 3624W        W 7675   5.910   0.913   2.434  0.0499  0.2005  0.1153
 3625W        W 7676   8.378   1.870   9.648 -0.1355  0.1177 -0.2555
 3626W        W 7677   9.448   7.787   2.183  0.1622 -0.1937  0.0973
 3627W        W 7678  10.064   9.715  13.231  0.0201 -0.4585  0.3733
 3628W        W 7679   5.666   8.438   9.846  0.0855 -0.2378 -0.1896
 3629W        W 7680   0.844   4.726  12.366  0.0840  0.1211 -0.1522
 3630W        W 7681   6.945   2.465  10.863 -0.1155  0.1991  0.1614
 3631W        W 7682   7.224   4.631   3.094 -0.0748  0.0771  0.1235
 3632W        W 7683   0.200   4.186   3.368  0.0409  0.0296 -0.0113
 3633W        W 7684   4.300   1.832   1.528 -0.0082  0.1936  0.0640
 3634W        W 7685   9.499   4.002   3.505 -0.2249  0.2222 -0.0444
 3635W        W 7686   1.763   7.678   9.818 -0.1599 -0.1044  0.4129
 3636W        W 7687   9.261   0.062   1.700  0.1167 -0.2144  0.0347
 3637W        W 7688   1.700   6.282   0.739  0.0519  0.0667 -0.0845
 3638W        W 7689   8.071   8.651   0.840 -0.3938 -0.0332 -0.2029
 3639W        W 7690   0.721   8.181   1.234 -0.1067 -0.1619 -0.0205
 3640W        W 7691   2.482   3.699   0.206 -0.4382  0.0296 -0.2433
 3641W        W 7692   0.717  10.086   1.080 -0.1915  0.0708 -0.0782
 3642W        W 7693   1.967   6.351  12.559 -0.1410  0.2884 -0.0386
 3643W        W 7694   9.147   0.104  13.125  0.0589  0.2275 -0.1167
 3644W        W 7695   7.409   2.566   4.514 -0.0739  0.2433 -0.1971
 3645W        W 7696   4.352   5.302  11.322  0.2270 -0.1367 -0.2377
 3646W        W 7697   0.454   3.578  13.890  0.2019 -0.0182  0.0442
 3647W        W 7698   3.391   8.150  12.033 -0.0997 -0.1883  0.0650
 3648W        W 7699   2.442   3.042  12.003  0.1804  0.0897 -0.1049
 3649W        W 7700   8.627   2.774   0.169  0.3207 -0.1270  0.3942
 3650W        W 7701   8.707   0.987   9.265  0.0732  0.1285 -0.0387
 3651W        W 7702   1.676   8.206   2.771  0.2234 -0.0249 -0.1517
 3652W        W 7703   4.941   6.559  12.994  0.0614 -0.0125 -0.4798
 3653W        W 7704   5.011   3.354  10.106  0.3707  0.2000  0.1018
 3654W        W 7705   4.712   1.604   5.161  0.1063 -0.0829  0.1288
 3655W        W 7706   4.513   6.388   1.501 -0.1690 -0.1015  0.2486
 3656W        W 7707   2.506   4.915   3.207 -0.2266 -0.0798 -0.1055
 3657W        W 7708   3.015   9.564   4.715 -0.1183 -0.2213 -0.3828
 3658W        W 7709   4.098   0.451   9.425  0.1151 -0.0476  0.1502
 3659W        W 7710   5.354   8.317  12.561  0.0623 -0.1927 -0.0310
 3660W        W 7711   9.024   2.519  11.982  0.4642 -0.2366 -0.0074
 3661W        W 7712   3.337   3.167   9.830  0.0796  0.3712  0.0567
 3662W        W 7713   6.622   7.593  11.436 -0.2093  0.0037  0.3470
 3663W        W 7714   0.575   3.670   1.720 -0.1653 -0.1354  0.0590
 3664W        W 7715   9.314   9.263  11.138  0.1003  0.0304  0.1651
 3665W        W 7716   8.540   7.142  12.932 -0.3776 -0.3999  0.0231
 3666W        W 7717   3.158   6.623   1.205 -0.1606  0.3591  0.1233
 3667W        W 7718   8.862   7.216   0.765 -0.0263  0.3215  0.3176
 3668W        W 7719   4.900   9.011   9.661  0.1133  0.2616 -0.1307
 3669W        W 7720   7.967   3.102  13.361  0.3255 -0.1143  0.0733
 3670W        W 7721   0.114  10.150  10.927  0.0866  0.0367 -0.2960
 3671W        W 7722   9.773   4.337   4.524  0.2144  0.1765 -0.1218
 3672W        W 7723   3.532   4.704   4.554 -0.1306  0.1088 -0.0735
 3673W        W 7724   2.325   3.010   0.225 -0.2882 -0.1689 -0.0296
 3674W        W 7725   2.765   4.728   1.679  0.0150 -0.0750 -0.2104
 3675W        W 7726   1.478   9.496   2.694  0.0178 -0.2309 -0.3453
 3676W        W 7727   3.327   6.453  10.826 -0.0203  0.0832 -0.0495
 3677W        W 7728   5.661   2.280  13.871 -0.2659 -0.0093  0.1148
 3678W        W 7729   7.739   7.981   0.808 -0.0111 -0.2813 -0.0678
 3679W        W 7730   2.941   4.213  13.561 -0.0849 -0.1164  0.3243
 3680W        W 7731   9.953   6.106   3.117  0.1719  0.1177 -0.3369
 3681W        W 7732   4.636   9.028  11.745 -0.0764 -0.0742  0.0883
 3682W        W 7733   5.914   4.901   2.534 -0.0381  0.0427  0.0306
 3683W        W 7734   5.932   8.037  12.034  0.2984 -0.1247 -0.1523
 3684W        W 7735   7.533   3.846  12.524  0.2556 -0.2010 -0.1766
 3685W        W 7736   2.491   0.952  13.087  0.0047 -0.1243 -0.4573
 3686W        W 7737   3.809   7.999  10.977 -0.2047  0.1151  0.1116
 3687W        W 7738   2.707   1.061  13.730 -0.0867 -0.0007 -0.2776
 3688W        W 7739   8.273   9.336   4.242 -0.1782 -0.2786  0.0977
 3689W        W 7740   5.424   2.916   3.675 -0.2045 -0.3047  0.1649
 3690W        W 7741   0.729   7.052   1.536  0.1683 -0.1559  0.0475
 3691W        W 7742   4.425   8.470   2.147  0.2687 -0.0960 -0.2711
 3692W        W 7743   9.086   6.583   1.891 -0.0401  0.4152  0.0311
 3693W        W 7744   2.215   0.838  12.073  0.2550  0.1381 -0.2360
 3694W        W 7745   0.903   4.077  10.625 -0.0351  0.2589  0.0517
 3695W        W 7746   4.759   8.532  11.609 -0.0564 -0.0363 -0.0207
 3696W        W 7747   3.861   1.716  13.361 -0.3706  0.3008 -0.0211
 3697W        W 7748   2.375   9.126   1.397 -0.0991  0.0305  0.2284
 3698W        W 7749   8.896   9.065  10.846 -0.0418 -0.1582 -0.0795
 3699W        W 7750   7.757   3.430   2.480 -0.0255 -0.1891  0.0993
 3700W        W 7751   5.735   4.296   8.765  0.0171 -0.1620 -0.0184
 3701W        W 7752   3.719   2.296   3.083  0.4375  0.1204 -0.0222
 3702W        W 7753   0.794   4.730   0.932  0.0964 -0.0309 -0.0163
 3703W        W 7754   7.655   2.512  11.882 -0.2324 -0.0401 -0.0031
 3704W        W 7755   0.704   7.225  10.577 -0.1959 -0.2705  0.0169
 3705W        W 7756   1.227   2.378  10.362 -0.3563  0.2493 -0.1670
 3706W        W 7757   4.189   6.184  11.780 -0.1196 -0.0967  0.0708
 3707W        W 7758   4.962   9.262   2.572 -0.1160 -0.1849  0.0648
 3708W        W 7759   4.537   7.029   4.791  0.1285  0.0004  0.0129
 3709W        W 7760   5.794   5.051   0.610  0.1665  0.1407  0.1196
 3710W        W 7761   3.421   9.903   2.615  0.0393 -0.1326 -0.2468
 3711W        W 7762   7.468   7.865   3.049  0.0448 -0.1657 -0.3186
 3712W        W 7763   6.922   0.744   4.029 -0.1850 -0.0504 -0.3730
 3713W        W 7764   3.736   3.056  13.247  0.0505  0.0818  0.5210
 3714W        W 7765   4.580   2.665   0.956 -0.2492 -0.0401 -0.0442
 3715W        W 7766   2.587   8.273  13.479  0.1876 -0.0305  0.1603
 3716W        W 7767   1.466   0.712  10.063  0.0298  0.0019  0.1009
 3717W        W 7768   4.817   0.696  10.651 -0.2153 -0.0858 -0.0119
 3718W        W 7769   7.348   6.872  10.063 -0.0129  0.0057 -0.1922
 3719W        W 7770   3.388   9.786   3.698 -0.2594 -0.0709 -0.3315
 3720W        W 7771   6.040   0.673  13.659  0.3051 -0.2512 -0.1468
 3721W        W 7772   8.647   0.437   4.362  0.0363  0.0275 -0.0385
 3722W        W 7773   4.899   0.162  11.340  0.1553  0.2830 -0.0204
 3723W        W 7774   6.329   5.945   2.068  0.0864  0.3042  0.3904
 3724W        W 7775   0.064   4.342  12.634  0.0429  0.1906 -0.0581
 3725W        W 7776   0.886   4.649  10.060  0.3134 -0.0873 -0.0350
 3726W        W 7777   0.891   7.853  12.433  0.1284  0.0548  0.2512
 3727W        W 7778   9.009   2.835   2.724 -0.0486 -0.0783  0.4529
 3728W        W 7779   0.965   0.707   1.596  0.0204  0.0516  0.1275
 3729W        W 7780   4.629   7.167   2.141 -0.1191  0.0147 -0.1340
 3730W        W 7781   3.111   3.594   9.936  0.0975 -0.1110 -0.0205
 3731W        W 7782   5.470   0.167   9.971 -0.1911  0.0239 -0.3180
 3732W        W 7783   6.640   2.833   1.766  0.0363  0.3410 -0.0804
 3733W        W 7784   6.494   9.856   5.430  0.7393  0.0932 -0.0416
 3734W        W 7785   5.263   6.923   2.746  0.1659  0.2972  0.0441
 3735W        W 7786   8.167   2.308   9.943  0.5882  0.2045  0.0298
 3736W        W 7787   8.486   0.110  11.964 -0.0939  0.2720 -0.0788
 3737W        W 7788   5.595   8.948  11.188 -0.0814 -0.1668  0.0322
 3738W        W 7789   2.080   8.227  13.374  0.1964  0.1986 -0.2461
 3739W        W 7790   9.462   3.127   5.017  0.3354  0.1966  0.0283
 3740W        W 7791   9.212   8.766  11.163  0.3075 -0.1130 -0.1043
 3741W        W 7792   4.827   2.642   9.677  0.1629 -0.0323 -0.1691
 3742W        W 7793   5.442   3.644  12.876  0.1817 -0.0648  0.0730
 3743W        W 7794   4.155   8.395  10.138  0.0812  0.0315  0.0427
 3744W        W 7795   6.400   5.332  10.314  0.2913 -0.4436 -0.1423
 3745W        W 7796   5.321   9.756   2.374  0.1209  0.4997 -0.3369
 3746W        W 7797   2.673   1.812   4.379 -0.0508  0.2335  0.2698
 3747W        W 7798   3.168   9.376  13.283 -0.4077 -0.2689  0.1897
 3748W        W 7799   5.487   4.770   1.442  0.2975 -0.4096 -0.0545
 3749W        W 7800   7.552   4.461   0.717  0.0931  0.1286  0.2001
 3750W        W 7801   6.946   6.320   0.486 -0.0986 -0.3883  0.1703
 3751W        W 7802   4.236   7.030   4.295 -0.1993  0.1532  0.0497
 3752W        W 7803   2.862   2.472   7.976  0.1189  0.1038 -0.1419
 3753W        W 7804   7.306   5.764   0.973  0.0771 -0.0917 -0.1035
 3754W        W 7805   6.014   4.890   3.501  0.2351  0.2183  0.1411
 3755W        W 7806   3.348   8.816  12.364  0.1256  0.0425  0.2196
 3756W        W 7807   8.131   1.742   4.365  0.1664  0.1487  0.1263
 3757W        W 7808   7.048   6.785   3.836  0.1475  0.0570  0.3015
 3758W        W 7809   0.088   1.903  13.147 -0.2738  0.4118  0.1592
 3759W        W 7810   6.363   5.806   1.025  0.1983  0.2499  0.3245
 3760W        W 7811   8.018   1.787   3.433  0.0981 -0.3123  0.1853
 3761W        W 7812   0.322   4.393   9.798  0.0815 -0.0662 -0.0642
 3762W        W 7813   1.404   7.199   3.865  0.0825 -0.2282  0.2785
 3763W        W 7814   3.316   3.980  12.653 -0.1484  0.0934  0.0703
 3764W        W 7815   5.562   9.477   4.851  0.2024 -0.1525 -0.0734
 3765W        W 7816   5.155   1.481  13.386  0.0350  0.0178 -0.3460
 3766W        W 7817   7.398   6.997   1.178  0.1254  0.2089 -0.0924
 3767W        W 7818   2.252   9.811   0.721 -0.2664  0.0825 -0.5859
 3768W        W 7819   5.047   1.504  11.451  0.3101 -0.0455  0.0381
 3769W        W 7820   5.256   9.984   3.087  0.0922  0.0180 -0.1888
 3770W        W 7821   2.662   1.718   0.805  0.1773  0.0565  0.1884
 3771W        W 7822   8.368  10.109   9.374  0.3871 -0.2115  0.1896
 3772W        W 7823   8.406   4.615  12.153  0.0842 -0.0138 -0.1166
 3773W        W 7824   2.468   0.185   4.320 -0.2371 -0.0828  0.0287
 3774W        W 7825   6.360   1.135   3.459 -0.2148  0.1193  0.3372
 3775W        W 7826   8.059   9.006  12.963 -0.0818 -0.2359 -0.0668
 3776W        W 7827   3.051   0.185  13.022  0.2112  0.4801  0.1049
 3777W        W 7828   2.311   0.720   1.753 -0.2070 -0.0779  0.0917
 3778W        W 7829   2.748   8.984  12.620  0.0586  0.0474  0.2124
 3779W        W 7830   1.737   2.270   4.488  0.1899  0.2927  0.2953
 3780W        W 7831   1.393   3.502   4.816 -0.4106 -0.0261 -0.1669
 3781W        W 7832   8.450   0.590   1.956 -0.0430  0.2374 -0.0132
 3782W        W 7833   7.317   4.984   0.112  0.0515  0.1111 -0.1664
 3783W        W 7834   6.098   0.611   9.956  0.0305 -0.4333 -0.2307
 3784W        W 7835   3.344   9.106   0.643  0.2278 -0.1821  0.0953
 3785W        W 7836   1.688   8.141  13.061 -0.1049  0.0125 -0.0010
 3786W        W 7837   2.857   8.037   1.084 -0.0910 -0.1555  0.5814
 3787W        W 7838   6.818   9.363  11.616  0.1660  0.0602 -0.2341
 3788W        W 7839   0.486   8.838  11.698  0.2529 -0.3783  0.1205
 3789W        W 7840   8.915   4.462   0.420 -0.0947 -0.0767 -0.0255
 3790W        W 7841   8.293   4.876   4.370  0.1138 -0.0960 -0.3048
 3791W        W 7842  10.046   6.572  12.703  0.2564  0.2361  0.1590
 3792W        W 7843   5.340   3.692  12.391  0.1858  0.0741 -0.0194
 3793W        W 7844   0.268   4.034   2.786 -0.0946 -0.0930  0.2858
 3794W        W 7845   1.239   6.579   1.711 -0.0821 -0.0602 -0.0375
 3795W        W 7846  10.116   7.327  11.096  0.2203  0.1871  0.1072
 3796W        W 7847   2.341   3.529   3.884 -0.1564  0.2164 -0.2663
 3797W        W 7848   9.111   6.425  10.451 -0.1655  0.1624 -0.2280
 3798W        W 7849   2.064   0.004   2.430 -0.1982  0.0547 -0.0260
 3799W        W 7850  10.186   6.295   4.144 -0.0524 -0.3295  0.3200
 3800W        W 7851   9.272   5.692   2.691  0.1635 -0.0498 -0.2727
 3801W        W 7852   8.008   5.877   9.066 -0.1857 -0.1500  0.1392
 3802W        W 7853   6.941   5.499  10.303 -0.2257  0.0269  0.0914
 3803W        W 7854   2.491   9.538   1.111 -0.1205  0.0932  0.0200
 3804W        W 7855   5.836   9.406  12.442 -0.2383  0.0305  0.2098
 3805W        W 7856   9.008   4.115   3.534 -0.0099  0.1546  0.0490
 3806W        W 7857   3.376   3.470  13.263  0.1233 -0.0600 -0.0869
 3807W        W 7858   3.828   3.609   9.419 -0.0538 -0.2897 -0.2447
 3808W        W 7859   6.648   4.903   5.508  0.0182  0.0909  0.1580
 3809W        W 7860   1.265   5.120  13.015  0.2547  0.1036  0.0258
 3810W        W 7861   4.114   1.178  12.471  0.0255 -0.2087  0.1826
 3811W        W 7862   2.801   9.933  10.448  0.1702 -0.0150 -0.0266
 3812W        W 7863   3.138   7.813   1.517  0.0236 -0.0966  0.1950
 3813W        W 7864   1.164  10.205   2.199  0.0335 -0.0054 -0.1417
 3814W        W 7865   1.581   2.754   9.578  0.1411  0.1752  0.3750
 3815W        W 7866   6.833   1.459   0.417  0.0363  0.3910 -0.1336
 3816W        W 7867   6.683   8.780  10.064 -0.1664  0.2051  0.0278
 3817W        W 7868   9.337   2.285   1.845  0.0771  0.0501  0.4363
 3818W        W 7869   4.292   3.187   9.645  0.3013  0.0485 -0.2876
 3819W        W 7870   9.861   9.306   1.703  0.5748  0.1042  0.2145
 3820W        W 7871   6.785   9.904  13.394  0.0562 -0.4364  0.1941
 3821W        W 7872   1.517   4.028  10.072  0.0869  0.0113  0.0868
 3822W        W 7873   9.306   3.787  11.167  0.0556  0.0446  0.0516
 3823W        W 7874   8.802   4.870  11.386 -0.1028  0.0149  0.2064
 3824W        W 7875   0.460   5.220  12.290 -0.0964  0.4028  0.0284
 3825W        W 7876   4.055   5.675   3.517  0.1391  0.3614 -0.2220
 3826W        W 7877   3.634   7.343  13.158 -0.0403  0.0979 -0.0648
 3827W        W 7878   4.687   0.049  12.280  0.1578  0.0595 -0.0421
 3828W        W 7879   4.747   7.578  12.574 -0.0891 -0.0644 -0.5354
 3829W        W 7880   3.984   5.670   3.055 -0.0637  0.0121  0.2758
 3830W        W 7881   4.408   2.323   0.614  0.0146 -0.1021  0.0800
 3831W        W 7882   8.464   0.907  11.624 -0.2731  0.2041  0.0132
 3832W        W 7883   9.928   2.052   0.735 -0.0372 -0.1407 -0.1456
 3833W        W 7884   6.488   3.917  13.421  0.0600  0.2628 -0.4032
 3834W        W 7885   5.897   0.733   2.920 -0.0517  0.2092 -0.0675
 3835W        W 7886   8.992   4.229   4.065 -0.1012 -0.2086 -0.1299
 3836W        W 7887  10.120   9.905   2.333 -0.2638  0.1782  0.1288
 3837W        W 7888   5.064   6.990   5.431 -0.3126  0.0434 -0.1266
 3838W        W 7889   2.610   4.855   1.160  0.1972 -0.0994 -0.0174
 3839W        W 7890   2.286   4.635   1.674  0.2158 -0.2046  0.1338
 3840W        W 7891   1.394   6.452  13.333  0.0122 -0.0566  0.1161
 3841W        W 7892   6.499   6.349   2.374 -0.0802 -0.2844 -0.0783
 3842W        W 7893   3.115   1.755   1.126 -0.1899 -0.0529  0.1013
 3843W        W 7894   1.198   3.775  10.893 -0.0285  0.1902 -0.0034
 3844W        W 7895   1.209   1.649  11.982  0.1864  0.1718 -0.1164
 3845W        W 7896   5.759   3.313   9.565  0.2155  0.3162  0.0174
 3846W        W 7897   3.878   1.625   5.230  0.2538 -0.1099  0.1014
 3847W        W 7898   9.107   8.837  11.868  0.2590  0.2379 -0.1092
 3848W        W 7899   7.403   2.771  12.650 -0.0051  0.0780 -0.0097
 3849W        W 7900  10.171   1.602   9.451 -0.4192  0.0579  0.1123
 3850W        W 7901   7.270   9.238  11.267  0.1656  0.0561  0.2637
 3851W        W 7902   5.749   1.435  11.951  0.1597 -0.3347  0.2304
 3852W        W 7903   0.017   7.813  13.472  0.0834 -0.0235  0.2974
 3853W        W 7904   8.046   5.612  12.133 -0.0505  0.3474 -0.1706
 3854W        W 7905   1.259   3.920  13.608  0.1228 -0.1235 -0.0499
 3855W        W 7906   4.571   3.522  11.229 -0.2444  0.1075 -0.2937
 3856W        W 7907   4.872   7.144  13.861  0.0801  0.2039  0.0461
 3857W        W 7908   4.109   7.134  12.950  0.1054  0.0078  0.1067
 3858W        W 7909   1.581   5.171  11.920 -0.0926  0.0203  0.2285
 3859W        W 7910   5.371   9.159   4.495 -0.2333 -0.0517  0.0734
 3860W        W 7911   1.010   4.295  12.181  0.0016  0.1190 -0.2350
 3861W        W 7912   0.432   1.679   4.655  0.0663 -0.3332  0.2119
 3862W        W 7913   3.300   3.353   5.107  0.0749  0.2970 -0.3125
 3863W        W 7914   7.329   7.575   9.566  0.1292  0.1968  0.0018
 3864W        W 7915   8.934   6.062   2.767  0.3596  0.3545  0.0088
 3865W        W 7916   8.912   9.979   0.038 -0.1929 -0.0621  0.0352
 3866W        W 7917   2.455   4.797  11.342 -0.0791 -0.0358  0.0454
 3867W        W 7918   2.721   7.464   9.356 -0.0307 -0.4681  0.2551
 3868W        W 7919   1.479   6.204  10.803  0.4730  0.1176 -0.2215
 3869W        W 7920   0.458   3.834   2.303  0.2765  0.3743 -0.1805
 3870W        W 7921   6.784   5.565   9.836  0.0947 -0.3006 -0.0038
 3871W        W 7922   3.514   0.057  13.122 -0.5208 -0.1218  0.1096
 3872W        W 7923   5.894   6.244   3.010  0.1397  0.0396 -0.0622
 3873W        W 7924   4.495   8.718   9.389 -0.3002  0.0268 -0.0523
 3874W        W 7925   2.694   9.790   9.991  0.0111 -0.0356 -0.0557
 3875W        W 7926   7.963   0.087  13.688 -0.0717 -0.3179 -0.2459
 3876W        W 7927   9.648   3.487   9.242 -0.2202 -0.0915  0.0307
 3877W        W 7928   7.342   8.975   9.565 -0.0622 -0.2249  0.3043
 3878W        W 7929   5.989   5.664  12.502 -0.0708  0.3243 -0.2290
 3879W        W 7930   0.743   4.726   9.132 -0.1563  0.3361 -0.0233
 3880W        W 7931   1.194   1.492  11.460  0.0240 -0.3039 -0.1195
 3881W        W 7932   3.729   7.209  10.462 -0.0885  0.2290  0.0925
 3882W        W 7933   7.505   4.407   4.847 -0.2272 -0.2929  0.1217
 3883W        W 7934   3.844   0.495   0.179  0.0562  0.1404  0.0486
 3884W        W 7935   8.002   3.586   2.017 -0.2259 -0.0438 -0.2769
 3885W        W 7936   5.628   6.749  11.893  0.2642  0.0511 -0.4037
 3886W        W 7937   0.586   8.022  13.744  0.0173 -0.0465  0.0692
 3887W        W 7938   4.967   6.042  12.431  0.1631  0.0711 -0.0446
 3888W        W 7939   6.719   7.404   5.259 -0.0639 -0.0059 -0.1825
 3889W        W 7940   6.876   3.795  12.643 -0.0876  0.2115  0.2309
 3890W        W 7941  10.027   1.104  10.156  0.1304 -0.0128 -0.2441
 3891W        W 7942   5.763   9.928  10.729  0.1164  0.0075 -0.2825
 3892W        W 7943   4.077   2.823   0.815 -0.0834  0.1801 -0.0780
 3893W        W 7944   3.310   0.908   2.508  0.1308  0.2971 -0.1273
 3894W        W 7945   2.204   1.782  12.913 -0.2477  0.1041 -0.1848
 3895W        W 7946   9.896   0.136  12.495 -0.0839  0.0355 -0.1684
 3896W        W 7947   7.583   5.201  11.365 -0.4378  0.0910  0.2227
 3897W        W 7948   6.559   3.176   9.835  0.1106 -0.3639 -0.3071
 3898W        W 7949   5.502   8.877   2.612  0.0486  0.0412 -0.3819
 3899W        W 7950   8.606   4.428  11.690  0.2438  0.3380 -0.2800
 3900W        W 7951   5.442   7.093  13.283  0.1967  0.3295 -0.0256
 3901W        W 7952   1.120   8.387  10.527  0.0633  0.0222  0.0542
 3902W        W 7953   4.862   2.382  10.601  0.1457  0.1874 -0.2775
 3903W        W 7954   3.869   5.250  10.118 -0.1032  0.0242  0.1770
 3904W        W 7955  10.131   0.938   9.423 -0.3378  0.2601 -0.0366
 3905W        W 7956   0.072   3.497  13.593 -0.0312 -0.1048  0.0079
 3906W        W 7957   7.676   5.435   0.147  0.0284  0.1265  0.1191
 3907W        W 7958   7.374   7.913   4.086  0.3967 -0.0637 -0.2635
 3908W        W 7959   3.037   5.687   3.807  0.0641  0.1600 -0.2861
 3909W        W 7960   8.170   9.476   9.225  0.0195  0.0481 -0.0591
 3910W        W 7961   8.609   8.281   1.694 -0.1174 -0.0389  0.1480
 3911W        W 7962   1.821   2.323   0.843 -0.0031  0.0335  0.1647
 3912W        W 7963   6.456   1.972  12.314  0.3364  0.3226  0.0205
 3913W        W 7964   4.400   7.554   4.050  0.2589  0.1801 -0.0640
 3914W        W 7965   8.192   0.860   0.423 -0.1303  0.0447 -0.1698
 3915W        W 7966   5.472   0.833   0.640 -0.0009  0.0236  0.2714
 3916W        W 7967   7.745   7.115   3.682  0.1043 -0.0891  0.0734
 3917W        W 7968   0.126   9.356   1.049  0.0686 -0.1265  0.2278
 3918W        W 7969   3.784   9.016  11.347 -0.0234  0.0244 -0.3845
 3919W        W 7970   4.537   0.284   4.463  0.0935  0.1645  0.0574
 3920W        W 7971   8.349   2.656   0.984 -0.0445 -0.0393 -0.1691
 3921W        W 7972   6.365   3.243   2.553 -0.0581 -0.3206  0.1055
 3922W        W 7973   9.061   8.503  13.194  0.3146  0.0053  0.1032
 3923W        W 7974   7.037   7.261   0.913 -0.0166  0.1629 -0.0251
 3924W        W 7975   3.855   4.942   0.699 -0.1222 -0.2150 -0.4190
 3925W        W 7976   2.644   1.961  10.666  0.3128  0.3199  0.1030
 3926W        W 7977   2.585   2.132  13.021 -0.1985 -0.0436  0.0103
 3927W        W 7978   0.091   0.133  13.865 -0.2027 -0.1538  0.0189
 3928W        W 7979   5.901   9.360  11.907  0.0050  0.3800 -0.1234
 3929W        W 7980   4.896   4.788  11.626  0.0867  0.0093  0.1493
 3930W        W 7981   3.247   3.745   3.609 -0.0741  0.0608  0.2641
 3931W        W 7982   7.230   2.040  13.839 -0.2200  0.2554 -0.2255
 3932W        W 7983   8.914   4.417   3.012 -0.2957  0.0712 -0.2102
 3933W        W 7984   8.618   2.420  11.750 -0.0261  0.3611  0.3390
 3934W        W 7985   9.649   4.088  12.713 -0.1958 -0.3816  0.0770
 3935W        W 7986   6.525   6.667   3.821 -0.1151  0.2415 -0.2277
 3936W        W 7987   9.907   0.795  13.673  0.3261  0.2650 -0.2795
 3937W        W 7988   2.370   9.513  11.272 -0.1584 -0.2076 -0.3749
 3938W        W 7989   6.050   6.535   2.164 -0.1585 -0.1089  0.0049
 3939W        W 7990   8.882  10.096   0.821 -0.2602 -0.4586  0.1562
 3940W        W 7991   5.953   5.977   4.525  0.0604  0.0526 -0.1230
 3941W        W 7992   2.440   8.588  10.852  0.1053 -0.1667 -0.1147
 3942W        W 7993   1.688   8.491  12.679  0.0187 -0.2517  0.1367
 3943W        W 7994   6.424   0.234  10.824  0.0163  0.1410  0.1719
 3944W        W 7995   8.265   8.185   2.466 -0.0218  0.0199  0.0066
 3945W        W 7996  10.205   5.405  10.520 -0.2222 -0.0083  0.2220
 3946W        W 7997   0.481   5.078   2.348 -0.2487 -0.2787 -0.2322
 3947W        W 7998   6.794   7.164   1.398 -0.1630  0.0729  0.1248
 3948W        W 7999   2.464   4.272  11.353  0.0937  0.2005 -0.1191
 3949W        W 8000   6.764   7.848  13.335  0.1637 -0.0408  0.1352
 3950W        W 8001   2.415   2.904   1.556  0.1452 -0.4070  0.2995
 3951W        W 8002   0.796   7.418  13.322 -0.1029 -0.0260  0.1327
 3952W        W 8003   4.564   1.229  10.601  0.0813  0.0887 -0.0619
 3953W        W 8004   0.368   6.419   0.396 -0.0027 -0.2574  0.0085
 3954W        W 8005   2.720   4.735   2.229  0.0031  0.0151 -0.0176
 3955W        W 8006   4.162   0.778   3.972 -0.0954  0.0053 -0.0620
 3956W        W 8007   8.239   0.222   4.571  0.5263  0.3253 -0.0442
 3957W        W 8008   7.745   5.927  12.590  0.1482  0.2782 -0.1714
 3958W        W 8009   7.349   1.304   9.861 -0.1665 -0.2380 -0.2752
 3959W        W 8010   3.372   3.616   3.135 -0.3015  0.0991 -0.0208
 3960W        W 8011   7.453   9.071   1.059 -0.0197 -0.1787 -0.0802
 3961W        W 8012   5.168   0.267   2.372 -0.1578 -0.2181  0.0658
 3962W        W 8013   0.324   7.205  10.870  0.0324 -0.0172  0.0404
 3963W        W 8014  10.089   6.137  10.133  0.1705  0.2183  0.1668
 3964W        W 8015   1.523   0.669  11.722  0.1036  0.0633 -0.0141
 3965W        W 8016   4.272   7.402  12.521 -0.1107  0.4381  0.1347
 3966W        W 8017   3.314   5.783   0.576  0.2607  0.2979 -0.1255
 3967W        W 8018   2.748   6.458   4.403  0.2019 -0.0543  0.1497
 3968W        W 8019   1.986   1.466   9.669 -0.0942 -0.0709  0.1368
 3969W        W 8020   2.459   1.409   2.960 -0.0559  0.0939 -0.0687
 3970W        W 8021   7.666   5.630  13.478  0.1710 -0.0414 -0.5419
 3971W        W 8022  10.028   2.061   2.614  0.2420  0.1505 -0.3114
 3972W        W 8023   4.203   9.926   4.869  0.1627  0.0604  0.0732
 3973W        W 8024   0.984   7.456   3.702 -0.1177 -0.0160  0.4100
 3974W        W 8025   5.105   7.523   9.550 -0.1336  0.1051 -0.1357
 3975W        W 8026   3.739   7.346   2.502  0.1476  0.0553 -0.0195
 3976W        W 8027   7.482   2.050   4.866 -0.3225  0.1653 -0.2260
 3977W        W 8028   9.959   3.273   2.306  0.1944 -0.0842 -0.1308
 3978W        W 8029   8.897   8.086  10.504  0.3879  0.2610 -0.2086
 3979W        W 8030   7.271   0.546  13.453 -0.1270 -0.0359  0.0269
 3980W        W 8031   8.159   0.852   1.558 -0.2390 -0.0407 -0.1201
 3981W        W 8032   0.709   0.176  12.487  0.1734  0.1983 -0.3055
 3982W        W 8033   0.517   0.820  10.688  0.0862  0.0266  0.2128
 3983W        W 8034   7.590   6.124  11.507 -0.1932 -0.0997  0.0535
 3984W        W 8035   9.938   0.303   0.267  0.2725  0.3747 -0.4502
 3985W        W 8036   3.422   2.835  13.787  0.1570  0.2566 -0.0795
 3986W        W 8037   1.929   5.749   9.970 -0.2038 -0.1252  0.1113
 3987W        W 8038   6.811   6.007   4.141  0.1367  0.1831 -0.0567
 3988W        W 8039   7.849   7.073   0.270 -0.0393 -0.0179  0.0507
 3989W        W 8040   7.386   5.746  11.101 -0.1626 -0.1462 -0.2742
 3990W        W 8041   8.948   1.107   2.619 -0.0910 -0.0682 -0.0677
 3991W        W 8042   7.573   6.381  10.054  0.2147  0.1187 -0.2420
 3992W        W 8043   6.013   9.675  11.120 -0.0299  0.3224 -0.0017
 3993W        W 8044   4.824   2.313   9.268 -0.0483  0.1828 -0.0263
 3994W        W 8045   2.907   7.709  11.191  0.3838  0.1819  0.4406
 3995W        W 8046   2.919   8.472   9.586 -0.0745 -0.0290  0.0267
 3996W        W 8047   1.551   4.525   2.866 -0.0366 -0.2596  0.1322
 3997W        W 8048   8.053   3.177   4.257 -0.3089  0.2974  0.3085
 3998W        W 8049   7.531   9.239  10.210  0.0801  0.2189 -0.1169
 3999W        W 8050   7.861   1.521  12.028 -0.2652  0.1393  0.1957
 4000W        W 8051   1.548   6.177  12.109  0.3369 -0.1722 -0.0364
 4001W        W 8052   3.433   1.417   9.655  0.2989 -0.0081 -0.2006
 4002W        W 8053   6.077   0.142  12.206  0.0031 -0.2942 -0.1060
 4003W        W 8054   9.123   9.504  12.017  0.0785  0.0095 -0.0984
 4004W        W 8055   2.517   1.373  12.256 -0.0650  0.2062  0.1749
 4005W        W 8056   9.246   2.861  13.158  0.2244 -0.0966 -0.3940
 4006W        W 8057   3.910   8.605   3.339 -0.1909 -0.0174 -0.0356
 4007W        W 8058   5.791   9.736   0.938 -0.1614 -0.0230  0.0825
 4008W        W 8059   9.628   1.560  11.499  0.2173  0.4191  0.0700
 4009W        W 8060   7.074   9.825  11.349  0.2027 -0.0706 -0.0233
 4010W        W 8061   3.719   3.391   1.427 -0.2552  0.0560 -0.0363
 4011W        W 8062   1.071   5.519  13.409 -0.1953  0.0580 -0.1829
 4012W        W 8063   5.835   5.501   0.350 -0.1005  0.0540  0.0632
 4013W        W 8064   7.013   8.522  13.755 -0.1404 -0.1490  0.2206
 4014W        W 8065   6.007   3.010   0.188  0.1816  0.2597  0.4125
 4015W        W 8066   3.039   5.117  13.187  0.0949  0.0152  0.0905
 4016W        W 8067   7.619   1.677  13.491 -0.1075  0.2036  0.0493
 4017W        W 8068   9.621   1.399   1.978 -0.1783 -0.3870  0.0172
 4018W        W 8069   8.111   9.275   3.433  0.0903 -0.0870 -0.1272
 4019W        W 8070   0.612   3.266  11.282 -0.2215  0.1476 -0.2679
 4020W        W 8071   1.569   4.142   0.596  0.1425  0.0687 -0.2806
 4021W        W 8072   5.300   5.765  11.375 -0.1187  0.0934  0.2752
 4022W        W 8073   2.185   4.901   0.684 -0.1672  0.1991 -0.0898
 4023W        W 8074   1.909   4.849   1.939 -0.2273 -0.3088 -0.2015
 4024W        W 8075   8.922   8.779  12.666 -0.0306 -0.1951 -0.2341
 4025W        W 8076   4.266   9.582  10.341  0.0756  0.3386  0.0789
 4026W        W 8077   3.358   0.184   4.923 -0.1529 -0.0503  0.1753
 4027W        W 8078   4.968   1.983   9.709 -0.2644  0.1020  0.3015
 4028W        W 8079   3.300   4.801  11.337  0.1131 -0.1550  0.1350
 4029W        W 8080   9.416   2.332   4.568  0.1777  0.0643 -0.0799
 4030W        W 8081   2.404   4.196   4.462 -0.0941  0.2935 -0.0409
 4031W        W 8082   1.785   6.839   3.937 -0.3658  0.0853  0.4073
 4032W        W 8083   5.759   6.748  13.204 -0.1425 -0.0876 -0.0600
 4033W        W 8084   7.881   9.902   2.893 -0.2472 -0.3488  0.4143
 4034W        W 8085   3.366   9.935   9.399 -0.0972  0.0808  0.1902
 4035W        W 8086   6.519   3.944   0.628  0.1247  0.0498  0.1856
 4036W        W 8087   9.348   8.623   1.214  0.0241  0.0005 -0.1111
 4037W        W 8088   0.128   6.063   2.197 -0.4500 -0.0925 -0.3158
 4038W        W 8089   5.280   2.067   9.044 -0.3690  0.2240  0.2334
 4039W        W 8090   6.799   6.752   2.608  0.2805 -0.0298 -0.2633
 4040W        W 8091   5.563   6.143  11.125  0.4121 -0.0367  0.0383
 4041W        W 8092   4.651   5.445   4.352  0.1985  0.0147 -0.3634
 4042W        W 8093   2.613   2.320  10.318  0.0129  0.0786  0.0460
 4043W        W 8094   2.121   0.077   0.733 -0.0405 -0.0576  0.0573
 4044W        W 8095   7.077   4.190   5.101 -0.0641 -0.1034 -0.1838
 4045W        W 8096   3.301   9.980   1.510  0.0679 -0.0897 -0.3066
 4046W        W 8097   5.165   8.411   2.628 -0.1756 -0.0955 -0.0545
 4047W        W 8098   3.722   0.385   9.063  0.0886 -0.3585 -0.4870
 4048W        W 8099   7.741   6.901   0.726 -0.1258  0.3158  0.2027
 4049W        W 8100  10.133   6.806   1.060  0.2409  0.0009 -0.1303
 4050W        W 8101   0.848   1.619  11.123 -0.3710 -0.0124  0.3271
 4051W        W 8102   0.493   7.917   0.799  0.1394 -0.1379 -0.2642
 4052W        W 8103   1.376   2.309   9.860 -0.2499  0.2411 -0.1505
 4053W        W 8104   9.422   2.104   0.631  0.1285 -0.0322  0.1904
 4054W        W 8105   4.018   1.739   0.875 -0.0604 -0.0743 -0.2023
 4055W        W 8106   1.007   0.304   4.998 -0.1357 -0.2245  0.0503
 4056W        W 8107   4.826   5.526   2.880 -0.0393  0.0353  0.0916
 4057W        W 8108   5.114   2.028  13.505  0.1508  0.0816  0.0306
 4058W        W 8109   7.233   4.244  12.678  0.2530 -0.0254  0.2501
 4059W        W 8110   7.034   3.313   9.674  0.0136  0.4286  0.4017
 4060W        W 8111   4.316   3.719  12.099 -0.1040  0.0260  0.1853
 4061W        W 8112   6.102   4.357   2.646  0.2412  0.2028  0.2961
 4062W        W 8113   1.175   1.165   2.404 -0.2316  0.1382  0.0667
 4063W        W 8114   9.706   6.480  11.453 -0.1541  0.0368 -0.3202
 4064W        W 8115   4.184   1.565   4.167 -0.0930  0.1798  0.1560
 4065W        W 8116   1.134   8.949   2.360  0.4477  0.0499  0.2217
 4066W        W 8117   9.197   5.874  10.588  0.4359  0.1441  0.1227
 4067W        W 8118   4.127   6.251  12.750  0.0734  0.1617  0.1312
 4068W        W 8119   2.276   1.334   3.563 -0.1969 -0.0937  0.0850
 4069W        W 8120   5.201   3.263   3.254  0.0129 -0.0891 -0.1574
 4070W        W 8121   0.429   5.713  12.019 -0.2710  0.2405 -0.0954
 4071W        W 8122   4.274   6.681   2.040 -0.0854  0.1428  0.5461
 4072W        W 8123   3.791   6.520   9.783  0.1923 -0.0049 -0.0134
 4073W        W 8124   5.998   7.186   0.829  0.0014  0.1943  0.0254
 4074W        W 8125   0.837   0.566   3.850 -0.0479  0.3035  0.0406
 4075W        W 8126   6.457   7.357   2.211  0.1198 -0.0894  0.0361
 4076W        W 8127   3.189   2.329   2.761 -0.0280  0.1494 -0.2933
 4077W        W 8128   1.163   5.689   3.395 -0.0851  0.0298 -0.0065
 4078W        W 8129   0.149   1.239   9.725  0.2222  0.2618 -0.1634
 4079W        W 8130   7.017   4.949   5.169 -0.0105 -0.0601  0.0136
 4080W        W 8131   1.462   5.546  10.119 -0.2015  0.0187 -0.2805
 4081W        W 8132   8.166   6.603  11.969  0.1207  0.3228 -0.1414
 4082W        W 8133   7.748   0.926   1.210  0.0102 -0.0838 -0.0992
 4083W        W 8134   1.763   9.975  13.145 -0.2925  0.2015  0.3605
 4084W        W 8135   0.229   5.560  13.682  0.0850 -0.0250  0.1292
 4085W        W 8136   6.041   0.452  12.683  0.1659 -0.0807  0.3859
 4086W        W 8137   0.775   1.472   4.204  0.0049  0.1872  0.1084
 4087W        W 8138   0.524   3.165   9.052 -0.1554 -0.0458  0.1176
 4088W        W 8139   4.826   7.737  10.490  0.1842  0.4357  0.0164
 4089W        W 8140   5.411   6.802   4.249 -0.1971 -0.5792 -0.1659
 4090W        W 8141   0.535   4.468   0.005  0.1407  0.1198  0.4677
 4091W        W 8142   8.523   8.128  11.886 -0.2165 -0.0088  0.2481
 4092W        W 8143   0.684   4.338  11.058 -0.1592 -0.1637  0.1015
 4093W        W 8144   6.027   9.005  10.656  0.2659 -0.3733 -0.1027
 4094W        W 8145   3.757   0.206  12.690  0.3066  0.3336  0.0915
 4095W        W 8146   0.253   5.536  13.223  0.2294 -0.0291  0.0242
 4096W        W 8147   0.622   4.332  11.851  0.0227  0.1060  0.0632
 4097W        W 8148   2.789   4.388   4.180  0.1278  0.0398  0.0301
 4098W        W 8149   4.269   4.258   8.673  0.5359  0.1142  0.0094
 4099W        W 8150   6.527   7.474   3.035 -0.1257  0.4143  0.2349
 4100W        W 8151   1.555   9.740   1.187 -0.2780 -0.2212  0.1268
 4101W        W 8152   9.104   2.414   3.737  0.0572  0.1555 -0.1136
 4102W        W 8153   2.121   5.406  11.113 -0.3915 -0.2990  0.0163
 4103W        W 8154   2.841   0.080   1.402 -0.5014 -0.1352  0.0603
 4104W        W 8155   0.771   4.112   4.106  0.2174  0.0877  0.2096
 4105W        W 8156   2.659   5.159   3.734  0.0809 -0.0636 -0.2687
 4106W        W 8157   4.830   2.865  13.771 -0.3051 -0.0262  0.0805
 4107W        W 8158  10.128   7.569  13.939 -0.1890 -0.1193 -0.0590
 4108W        W 8159   6.662   8.226  10.088 -0.3696 -0.0111  0.3316
 4109W        W 8160   9.294   7.364  11.506 -0.0302  0.0563  0.2736
 4110W        W 8161   6.143   8.743   4.734  0.0856  0.3774  0.0734
 4111W        W 8162   7.470   1.914  10.609  0.0365  0.4028  0.3236
 4112W        W 8163   9.590   3.309  11.074  0.4458  0.3368 -0.1552
 4113W        W 8164   5.738   2.226   2.906 -0.0932  0.0655  0.4852
 4114W        W 8165   4.098   1.243   3.786 -0.2738 -0.3113  0.1009
 4115W        W 8166   0.643   3.740  12.802  0.2586  0.2733 -0.1726
 4116W        W 8167   4.141   0.699  13.439 -0.1529  0.1569  0.0409
 4117W        W 8168   6.316   5.626  11.249 -0.0887 -0.2940  0.1559
 4118W        W 8169   8.510   7.994  13.552  0.3365  0.1568  0.0407
 4119W        W 8170   9.344   1.282   0.316 -0.1154  0.0576  0.3869
 4120W        W 8171   2.575   6.100   0.655 -0.1945  0.3054  0.0368
 4121W        W 8172   6.893   7.952   0.255  0.1089 -0.1264 -0.1695
 4122W        W 8173   0.115   9.315  13.534 -0.2880  0.0908  0.0023
 4123W        W 8174   6.778   8.513  11.722  0.2041  0.0758 -0.0811
 4124W        W 8175   1.736   3.038  12.737 -0.0507  0.0119 -0.4440
 4125W        W 8176   7.715   6.225   4.273  0.2702  0.3857 -0.0266
 4126W        W 8177   2.793  10.160  12.063  0.0290  0.2558  0.2253
 4127W        W 8178   9.881   3.384  11.532 -0.1559 -0.0209  0.2585
 4128W        W 8179   0.984   3.364  13.053  0.2584  0.1382  0.3662
 4129W        W 8180   1.564   2.743  13.724 -0.3995 -0.1957  0.3553
 4130W        W 8181   2.957   5.165  10.497  0.2992  0.0360  0.0614
 4131W        W 8182   1.401   7.956   3.160  0.1328 -0.0675  0.0946
 4132W        W 8183   6.266   8.067   0.233  0.2255 -0.1930 -0.3072
 4133W        W 8184   2.993   8.153   2.420  0.0049 -0.2369  0.3398
 4134W        W 8185   4.469   1.072  13.298  0.0647  0.3042  0.0324
 4135W        W 8186   2.734   5.408   1.119  0.3678 -0.1840 -0.2326
 4136W        W 8187   7.718   1.015   9.905 -0.2819  0.1345 -0.0459
 4137W        W 8188   7.906   9.055   1.186 -0.1068  0.3495 -0.1879
 4138W        W 8189   0.629   1.739   3.478  0.0873  0.4331 -0.0830
 4139W        W 8190   5.084   9.869  13.010 -0.2068  0.2332 -0.1105
 4140W        W 8191   7.699   1.393  13.103 -0.2781  0.0115 -0.1014
 4141W        W 8192   2.115   8.485   0.828 -0.0577  0.0242  0.1124
 4142W        W 8193   9.604   4.898  10.193  0.3766 -0.0892 -0.1548
 4143W        W 8194   8.679   4.830  13.356 -0.1346 -0.0488  0.0349
 4144W        W 8195   2.228   9.898   4.340 -0.1351  0.0744  0.3158
 4145W        W 8196   4.090   4.147   2.643 -0.1663  0.6279 -0.1109
 4146W        W 8197   5.054   1.654  12.567  0.0651 -0.2394 -0.2798
 4147W        W 8198   9.864   2.327   2.137  0.1145  0.2523 -0.1598
 4148W        W 8199   9.508   8.816   2.276 -0.0988  0.3897  0.0159
 4149W        W 8200   1.812   2.068  12.533  0.2037 -0.0062 -0.0983
 4150W        W 8201   5.940   4.394   3.515  0.1261  0.2391 -0.0782
 4151W        W 8202   5.537   2.281  12.553 -0.2172  0.3625  0.0921
 4152W        W 8203   9.181   8.465   2.795 -0.1747 -0.0118  0.3621
 4153W        W 8204   4.776   4.342  12.602  0.0576  0.2017  0.0380
 4154W        W 8205   9.396   0.932   1.174  0.0640  0.0003  0.1035
 4155W        W 8206   1.203  10.009   3.677  0.2769 -0.1855  0.4863
 4156W        W 8207   4.645   7.687  12.103  0.1095 -0.0890  0.0415
 4157W        W 8208   4.630   6.325   0.544  0.1646  0.0390 -0.1954
 4158W        W 8209   8.530   3.246   2.351 -0.2064 -0.1442 -0.2793
 4159W        W 8210   0.792   8.368  11.583  0.1169  0.1394  0.1661
 4160W        W 8211   3.211   6.486   1.720  0.0456 -0.0973 -0.0160
 4161W        W 8212   8.642   1.064   1.653  0.0529 -0.0324  0.0275
 4162W        W 8213   9.997   5.121  13.917 -0.1317  0.0590  0.0526
 4163W        W 8214   8.096   7.599   1.717 -0.0296 -0.2516 -0.0349
 4164W        W 8215   9.515   8.483   1.680  0.2278  0.4077 -0.2438
 4165W        W 8216   7.808   9.322  10.636  0.2557 -0.0428  0.0072
 4166W        W 8217   9.557   5.492  11.605 -0.3497 -0.1521 -0.0624
 4167W        W 8218   5.887   4.199   4.059  0.2618  0.0308  0.0327
 4168W        W 8219   6.735   1.867  13.401 -0.2070 -0.0324 -0.0014
 4169W        W 8220   6.284   0.429  11.354 -0.1160  0.1145  0.0174
 4170W        W 8221   9.653   7.030  10.906  0.0096 -0.0752 -0.2455
 4171W        W 8222   0.517   7.417   1.069  0.0485  0.2501  0.0598
 4172W        W 8223   4.570   5.052   2.852 -0.1268  0.0934  0.0665
 4173W        W 8224   8.807   7.868  12.289 -0.1342 -0.0970  0.2308
 4174W        W 8225   7.977   1.747  11.074 -0.2312 -0.0254 -0.0432
 4175W        W 8226   1.073  10.155  13.867  0.0160  0.0618 -0.0847
 4176W        W 8227   6.727   2.760  11.894  0.2044 -0.2441  0.1491
 4177W        W 8228   3.746   8.041   0.651  0.0486 -0.1477  0.0917
 4178W        W 8229   3.311   8.511  13.813  0.1618 -0.0919  0.0814
 4179W        W 8230   3.878   7.493   1.725  0.1752  0.3697  0.0471
 4180W        W 8231   8.667   3.791  13.186  0.0189 -0.0449  0.2014
 4181W        W 8232   3.646   6.442  13.173  0.1177  0.1688  0.2857
 4182W        W 8233   8.757   5.542   2.762  0.2232 -0.1805 -0.1477
 4183W        W 8234   5.056   4.145   4.084 -0.3258  0.0109  0.0154
 4184W        W 8235   5.295   3.457  10.527 -0.0331  0.0424 -0.1126
 4185W        W 8236   1.059   8.910   3.523  0.0092  0.0142  0.1946
 4186W        W 8237   6.546   8.950   0.359  0.1148 -0.0269 -0.3125
 4187W        W 8238   4.071   6.996  10.142  0.1392  0.0965 -0.4379
 4188W        W 8239   3.359   7.567   9.337  0.0334 -0.1907  0.1398
 4189W        W 8240   3.245   7.784   3.589  0.1597 -0.1683 -0.0325
 4190W        W 8241   3.189   8.207   0.265  0.1628  0.0929  0.1109
 4191W        W 8242   0.390   9.667  13.182 -0.2814  0.0497 -0.1120
 4192W        W 8243   4.594   0.466  10.183  0.2740 -0.1186  0.2187
 4193W        W 8244   4.514   8.402   0.537  0.0746 -0.2083  0.0315
 4194W        W 8245   6.705   4.140   1.098  0.1506  0.0217 -0.3569
 4195W        W 8246   7.508   4.362  11.776  0.0684  0.0092  0.1965
 4196W        W 8247   0.389   6.311  10.571 -0.1607 -0.2824 -0.1024
 4197W        W 8248   7.268   0.236   0.896 -0.0146  0.0536 -0.2107
 4198W        W 8249   9.826   9.446  11.067 -0.0120 -0.0550  0.0093
 4199W        W 8250   4.056   3.252  13.612 -0.3372 -0.1309 -0.1807
 4200W        W 8251   1.254   3.769   0.714 -0.0925  0.0841  0.2881
 4201W        W 8252   2.399   8.142   2.263 -0.4260 -0.2961  0.0082
 4202W        W 8253   4.177  10.038  11.995  0.1084  0.0262 -0.2966
 4203W        W 8254   3.168   9.255  12.720 -0.1023  0.1767 -0.0051
 4204W        W 8255   1.053   2.463   1.786  0.1773  0.1184  0.1126
 4205W        W 8256   1.870   4.667  12.653 -0.0254  0.2581  0.1440
 4206W        W 8257   6.476   7.344   9.409 -0.1014  0.3937 -0.2172
 4207W        W 8258   6.554   5.454   1.982 -0.2501  0.1141 -0.2715
 4208W        W 8259   5.486   5.808   4.555 -0.1950 -0.2690 -0.0897
 4209W        W 8260   4.758   6.171  13.892  0.0684  0.1783  0.2385
 4210W        W 8261   7.926   4.114  10.945  0.0332  0.2368  0.1327
 4211W        W 8262   6.359   6.556   3.405 -0.0658  0.0559  0.1423
 4212W        W 8263   3.465   5.973  13.327 -0.4571 -0.1048  0.0206
 4213W        W 8264   4.352   1.363  12.878 -0.0257 -0.3725  0.3198
 4214W        W 8265   8.081   7.516   2.789 -0.0310  0.1602  0.2085
 4215W        W 8266   3.199   7.300   3.810 -0.3359  0.1152 -0.2267
 4216W        W 8267   2.201   0.175  10.250 -0.0194  0.0527 -0.0685
 4217W        W 8268   7.986   8.094   4.675  0.0676 -0.0476  0.3320
 4218W        W 8269   6.297   5.580   5.003 -0.0670 -0.3505  0.1637
 4219W        W 8270   2.459   6.194   4.090 -0.1142 -0.1413 -0.0021
 4220W        W 8271   2.642   8.521  10.418  0.0201  0.4132  0.0032
 4221W        W 8272   1.973   3.952   9.467 -0.0444  0.0339 -0.1441
 4222W        W 8273   7.499   3.301   2.856 -0.2741 -0.1077 -0.2565
 4223W        W 8274   8.281   7.679   3.256 -0.1603  0.0705 -0.2357
 4224W        W 8275   4.888   1.823   3.461  0.3547 -0.0932  0.0453
 4225W        W 8276   4.676   7.893  11.629  0.3477  0.1687 -0.2953
 4226W        W 8277   0.011   4.105   1.052 -0.0944  0.0341  0.2123
 4227W        W 8278   7.165   2.589   2.965 -0.0445 -0.1534  0.2931
 4228W        W 8279   5.760   5.461   2.630 -0.0274  0.0091 -0.0523
 4229W        W 8280   0.442   6.320   4.306 -0.2916 -0.0633  0.3495
 4230W        W 8281   9.885   3.963   9.863  0.1564 -0.0224  0.0662
 4231W        W 8282   5.365   2.723  12.768  0.3003 -0.1283  0.1935
 4232W        W 8283   5.087   2.714  11.421 -0.0215  0.3088 -0.1906
 4233W        W 8284   7.900   8.519  13.637 -0.0268  0.0971 -0.1542
 4234W        W 8285   9.337   3.306   2.969  0.1324  0.0157 -0.5681
 4235W        W 8286   3.218   3.039   0.296  0.2352 -0.0321  0.2016
 4236W        W 8287   7.027   3.083  11.127  0.0703  0.0168 -0.0012
 4237W        W 8288   2.589   7.222  12.385  0.0717  0.0403  0.3635
 4238W        W 8289   1.528   9.335   3.331  0.0565 -0.1239  0.0467
 4239W        W 8290   6.415  10.180   0.366  0.1472 -0.2002  0.1288
 4240W        W 8291   3.886   3.479   2.916  0.5096 -0.0543 -0.0581
 4241W        W 8292   8.221   5.358   4.147  0.1652  0.2725 -0.0159
 4242W        W 8293   4.706   9.652  10.592 -0.1422 -0.0232  0.0271
 4243W        W 8294   9.046   8.241   0.922  0.1651 -0.2463 -0.2292
 4244W        W 8295   0.632   3.471  12.330  0.2000 -0.1930  0.2237
 4245W        W 8296   3.525   0.224   2.852  0.0936  0.1486 -0.0222
 4246W        W 8297   8.337   9.984  11.288  0.1964  0.0188  0.0634
 4247W        W 8298   3.993   7.152   0.881 -0.0522 -0.0213  0.4063
 4248W        W 8299   5.139   5.460   0.969  0.2380 -0.1964  0.0446
 4249W        W 8300   9.048   9.932   3.980  0.1460 -0.2693 -0.2354
 4250W        W 8301   1.187   0.117   0.972  0.1123  0.4576 -0.1071
 4251W        W 8302   2.804   8.703  13.499 -0.0396 -0.0898 -0.3766
 4252W        W 8303   2.346   9.041  12.263  0.3164 -0.0057 -0.0715
 4253W        W 8304   1.954   2.780   1.512 -0.2924  0.3019  0.1048
 4254W        W 8305   3.743   8.820  12.040 -0.1440  0.1710  0.0584
 4255W        W 8306  10.132   8.869   3.512 -0.0536  0.2186 -0.2317
 4256W        W 8307   5.999   8.777   1.544 -0.1283 -0.1263  0.1232
 4257W        W 8308   0.744   0.289   9.204 -0.0041  0.3939 -0.0057
 4258W        W 8309   9.249   5.015  11.138 -0.0617 -0.0086  0.0688
 4259W        W 8310   0.632  10.188  10.734  0.0359  0.0958 -0.0554
 4260W        W 8311   4.213   7.883   1.533 -0.0595 -0.2344  0.0297
 4261W        W 8312   6.189   1.180  11.667  0.1703  0.1573 -0.0174
 4262W        W 8313   2.653   5.738   4.117  0.2797 -0.2743  0.0408
 4263W        W 8314   6.513   4.722   1.275  0.0451 -0.0102  0.4051
 4264W        W 8315   9.142   5.110  10.372  0.2177  0.0535  0.1244
 4265W        W 8316   2.358   3.881  11.714 -0.1517 -0.0139 -0.1439
 4266W        W 8317   0.193   5.929   3.555  0.1425  0.2459 -0.1418
 4267W        W 8318  10.157   1.759   0.104 -0.1632 -0.2719 -0.2934
 4268W        W 8319   8.171   6.331   0.934 -0.1565 -0.3565  0.1288
 4269W        W 8320   6.928   9.657   9.209 -0.0194  0.1835 -0.2207
 4270W        W 8321   8.551   0.984   3.806  0.2754  0.2258  0.1599
 4271W        W 8322   6.786   0.705   9.388  0.0812 -0.0836 -0.1966
 4272W        W 8323   3.549   9.162   9.461  0.0328 -0.2186 -0.0028
 4273W        W 8324   1.991   2.990   9.276 -0.1328  0.2120  0.0297
 4274W        W 8325   2.167   0.744   5.094 -0.1931  0.1894 -0.0438
 4275W        W 8326   3.861   1.127   5.285  0.4202  0.2071 -0.0889
 4276W        W 8327   6.920   7.209  11.614 -0.1708  0.2255  0.3929
 4277W        W 8328   3.513   4.507   2.091  0.0182  0.0528  0.4490
 4278W        W 8329   9.485   7.877  11.851  0.0465 -0.2963 -0.5039
 4279W        W 8330   6.081   2.035  12.004  0.0516 -0.1995 -0.0279
 4280W        W 8331   7.889   9.770   1.881  0.0391 -0.1537 -0.0729
 4281W        W 8332   1.002   5.652   4.685  0.3078  0.0694  0.1844
 4282W        W 8333   6.708   0.628  10.660 -0.1993 -0.2708  0.0384
 4283W        W 8334   3.923   7.527  10.112 -0.0252  0.0409  0.1065
 4284W        W 8335   1.319   6.667   3.221 -0.0869  0.1889 -0.2212
 4285W        W 8336   6.849   4.991  11.839  0.0878 -0.2331 -0.2488
 4286W        W 8337   1.469   1.710  13.360  0.1744  0.1164  0.0916
 4287W        W 8338   9.469  10.157  13.701 -0.0296 -0.0432  0.1884
 4288W        W 8339   2.367   8.082   3.699 -0.3578  0.1018 -0.2447
 4289W        W 8340   8.274  10.147   1.478 -0.0022  0.1903  0.0292
 4290W        W 8341   5.010   9.293  13.453 -0.1499  0.0073  0.1916
 4291W        W 8342   4.200   6.272   9.541 -0.2830  0.4932 -0.1703
 4292W        W 8343   8.399   5.226   3.648  0.1151  0.0846  0.0019
 4293W        W 8344   5.024   9.949   9.565  0.3113 -0.0890 -0.0111
 4294W        W 8345   0.689   9.825  13.585 -0.0049 -0.0918  0.0686
 4295W        W 8346   4.587   4.508   0.664 -0.1336  0.0078  0.0187
 4296W        W 8347   5.075   0.370   1.843  0.3370 -0.1577 -0.3968
 4297W        W 8348   8.222   4.756  13.457  0.0315  0.0248 -0.2849
 4298W        W 8349   5.122   0.130   1.194  0.1192  0.4147  0.0671
 4299W        W 8350   6.345   6.327   1.773  0.2528 -0.3038  0.2854
 4300W        W 8351   7.190   0.887   3.546 -0.1196  0.1299  0.0231
 4301W        W 8352   0.426   9.086   1.346 -0.2842  0.0488  0.1233
 4302W        W 8353   2.275   8.757  13.394  0.0575  0.0220  0.0176
 4303W        W 8354   4.692   2.593  10.180 -0.1063  0.1748  0.0113
 4304W        W 8355   2.713   9.981   0.552 -0.2357  0.3051 -0.3290
 4305W        W 8356   4.180   7.145  12.075 -0.0546 -0.1407 -0.0235
 4306W        W 8357   6.318   3.971   0.017 -0.2447  0.0700  0.1942
 4307W        W 8358   3.211   5.704  12.444 -0.2035 -0.3696  0.0713
 4308W        W 8359   6.440   4.371   0.314 -0.1780 -0.1205 -0.0348
 4309W        W 8360   3.747   0.598   2.560 -0.3883  0.3054 -0.0321
 4310W        W 8361  10.198   6.874   2.686 -0.2431 -0.2116  0.0048
 4311W        W 8362   7.366   5.994   1.858  0.1073  0.2465  0.0356
 4312W        W 8363   2.098   1.521  11.908 -0.1246  0.0039 -0.2089
 4313W        W 8364   5.337   9.764  13.475  0.4275 -0.1049 -0.1680
 4314W        W 8365   3.069   0.543  10.701 -0.0449  0.2461  0.1168
 4315W        W 8366   4.193   7.775  11.862  0.1104  0.0534 -0.0729
 4316W        W 8367   7.677  10.093   4.247  0.2659 -0.2675 -0.0090
 4317W        W 8368   1.610   0.565   4.340 -0.1035 -0.0712  0.2214
 4318W        W 8369   5.235   9.944   0.547 -0.2275 -0.1183  0.2507
 4319W        W 8370   1.927   8.778  11.394  0.0090  0.1122  0.2616
 4320W        W 8371   2.150   1.737  12.354  0.0988  0.2101  0.1151
 4321W        W 8372   7.762   4.200  12.197  0.0830  0.0948  0.0092
 4322W        W 8373   9.012   3.057   4.270 -0.0453 -0.0962 -0.0737
 4323W        W 8374   1.926   3.459  12.931 -0.2134 -0.0954 -0.1870
 4324W        W 8375   6.396   7.730   2.581 -0.2061  0.1169  0.0471
 4325W        W 8376   5.746   3.405   3.133 -0.1286  0.2798 -0.0328
 4326W        W 8377   4.455   5.862   1.624 -0.3741  0.0179 -0.2776
 4327W        W 8378   8.388   3.830   0.982  0.0164 -0.1855 -0.2405
 4328W        W 8379   8.451   2.174  12.219 -0.3391  0.1264 -0.1215
 4329W        W 8380   8.944  10.110   2.688  0.0801 -0.1681 -0.2708
 4330W        W 8381   9.847   6.079  11.029  0.0679  0.1506 -0.0810
 4331W        W 8382   8.581   6.124   4.128 -0.3043  0.3077 -0.2744
 4332W        W 8383   4.654   1.405  10.159 -0.0682 -0.1596  0.0822
 4333W        W 8384   6.348   9.132  13.192 -0.0549  0.0868 -0.1894
 4334W        W 8385   0.013   0.325   0.672  0.0650  0.2076 -0.0288
 4335W        W 8386   1.327   2.510   4.594 -0.0575  0.1970 -0.0571
 4336W        W 8387   8.590   5.695  13.330  0.4788  0.1526 -0.1007
 4337W        W 8388   3.732   7.821   3.437 -0.2723 -0.0456  0.0061
 4338W        W 8389   5.690   8.319   4.045  0.2422  0.4194 -0.1411
 4339W        W 8390   8.558   4.232   3.902  0.0656 -0.2045  0.0683
 4340W        W 8391   4.195   4.671   0.325  0.0646  0.0422  0.2124
 4341W        W 8392   4.724   6.949   2.610  0.4578 -0.2911 -0.2977
 4342W        W 8393   3.809   0.491  12.262 -0.0581  0.3027 -0.1871
 4343W        W 8394   4.632   4.961   0.408  0.1602 -0.1796 -0.2557
 4344W        W 8395   2.860   7.499  10.269  0.0609  0.2261 -0.1355
 4345W        W 8396   3.154   3.567   4.321 -0.0855 -0.3694  0.0615
 4346W        W 8397   6.984   4.243   0.464 -0.1286 -0.0472 -0.0411
 4347W        W 8398   8.842   5.570  11.920 -0.1014 -0.3764  0.3258
 4348W        W 8399   7.722   2.148  13.334 -0.0244 -0.2333  0.0860
 4349W        W 8400   7.173   0.013  13.105 -0.0277 -0.1045 -0.0161
 4350W        W 8401   7.071   5.140   4.693 -0.2383 -0.3683  0.0583
 4351W        W 8402   5.377   3.910  10.957 -0.3561 -0.0840  0.0562
 4352W        W 8403   3.395   8.198   3.301  0.1243  0.4012  0.0028
 4353W        W 8404   1.573   0.968   0.683 -0.2807  0.0610  0.0182
 4354W        W 8405   9.073   2.421   9.610 -0.0698 -0.0285  0.1681
 4355W        W 8406   6.344   6.209   3.769  0.0262  0.0738 -0.0973
 4356W        W 8407   6.960   4.428  11.081  0.0837  0.0216 -0.2689
 4357W        W 8408   5.727   1.905  10.527 -0.1605 -0.2092  0.1531
 4358W        W 8409   2.237   2.169  12.080  0.2506 -0.2125  0.1165
 4359W        W 8410   2.326   2.896  10.928 -0.0002  0.1429  0.0570
 4360W        W 8411   7.287   1.655   0.804  0.1427  0.0504  0.1396
 4361W        W 8412   5.015   2.294  12.655 -0.0456  0.0837 -0.1717
 4362W        W 8413   8.811   3.988  12.622  0.1656  0.0904 -0.0551
 4363W        W 8414   1.123   7.349  12.963  0.2714  0.0633 -0.1497
 4364W        W 8415   7.616   3.877   4.831 -0.2057 -0.2737  0.0470
 4365W        W 8416   9.457   9.553  10.740 -0.1544 -0.1955 -0.1686
 4366W        W 8417   3.693   9.331   3.864 -0.2884 -0.1170  0.2566
 4367W        W 8418   6.207   3.214   4.178  0.0466  0.0814 -0.1996
 4368W        W 8419   9.270   1.933   9.715 -0.1331  0.2804  0.2179
 4369W        W 8420   7.148   1.651   1.889 -0.1441  0.1451  0.0426
 4370W        W 8421   2.947   1.740  12.292 -0.0556 -0.0492  0.0054
 4371W        W 8422   5.947   8.344   0.024  0.0625 -0.2191  0.0071
 4372W        W 8423   8.293   6.893  10.537  0.0158 -0.2558 -0.2626
 4373W        W 8424   0.871   4.745   3.186  0.1014  0.0891  0.3055
 4374W        W 8425   7.784   0.775  13.399  0.0365  0.2751  0.0904
 4375W        W 8426   8.530   0.876   4.534  0.2026 -0.2783  0.1131
 4376W        W 8427   5.077   6.004   5.636  0.0659 -0.0964 -0.2037
 4377W        W 8428   8.733   6.651  10.794 -0.2181 -0.2617 -0.0602
 4378W        W 8429   1.849   8.025  13.763 -0.1054  0.0577  0.0499
 4379W        W 8430   7.867   3.482  12.086 -0.0152  0.1503 -0.0722
 4380W        W 8431   7.075   4.467   4.181 -0.3075 -0.0511  0.1860
 4381W        W 8432   7.496   3.430  13.346  0.0118  0.3659 -0.1894
 4382W        W 8433   1.277   4.950  11.631 -0.1374 -0.0145 -0.0304
 4383W        W 8434   1.976   7.341  11.556 -0.2228  0.1027 -0.3400
 4384W        W 8435   0.521   3.492   4.964 -0.1206  0.2970 -0.2119
 4385W        W 8436   4.400   2.385   2.480 -0.2762 -0.1225  0.0833
 4386W        W 8437   0.096   8.154   3.883  0.1156 -0.4391 -0.0389
 4387W        W 8438   6.839   8.300   1.176 -0.1239  0.1240  0.1762
 4388W        W 8439   9.642   7.727  10.314 -0.0631 -0.0963 -0.0428
 4389W        W 8440   2.732   6.205   4.882  0.0881  0.2475  0.4442
 4390W        W 8441  10.030   6.542   1.694  0.0599  0.1688 -0.0468
 4391W        W 8442   2.400   0.923  10.301  0.0544  0.2139  0.5365
 4392W        W 8443   4.897   9.590   5.572  0.0389 -0.4723  0.1491
 4393W        W 8444   4.113   2.737  10.604  0.1052 -0.2024  0.1411
 4394W        W 8445   3.597   9.838   1.046 -0.0630 -0.2258  0.1192
 4395W        W 8446   9.334   6.733  11.256 -0.2664  0.3055 -0.0765
 4396W        W 8447   6.636   6.349  10.049 -0.0462 -0.3035  0.0610
 4397W        W 8448   2.327   6.896   1.141 -0.0539  0.0279  0.0158
 4398W        W 8449   9.195   1.906  10.808  0.2631 -0.2364  0.0478
 4399W        W 8450   7.546   7.912  13.728 -0.2693  0.0639  0.1282
 4400W        W 8451   3.113   3.680  11.144 -0.2200  0.1906  0.4795
 4401W        W 8452   6.032   5.928   2.467  0.2870 -0.0058 -0.1150
 4402W        W 8453   2.254   7.380   9.956  0.1225  0.0660 -0.4649
 4403W        W 8454   1.913   1.029   3.583 -0.1910  0.1621  0.0745
 4404W        W 8455   3.410   3.178   2.962  0.0053  0.0444 -0.1596
 4405W        W 8456   9.534   9.105   0.433 -0.2155  0.0564 -0.0175
 4406W        W 8457   6.216   4.400  13.604  0.1282  0.2907 -0.0520
 4407W        W 8458   5.505   1.972   4.939  0.3057 -0.1135  0.1235
 4408W        W 8459   0.325   4.739  12.467 -0.2623  0.0371  0.1386
 4409W        W 8460   0.500   5.798   1.608  0.0305  0.0276  0.2376
 4410W        W 8461   0.339   2.511  12.856  0.1330 -0.0548  0.2002
 4411W        W 8462   9.551   3.924   2.443 -0.0855  0.0902 -0.0508
 4412W        W 8463   4.987   9.481   0.051  0.1841  0.1332 -0.0333
 4413W        W 8464   7.864   4.631   2.992  0.2308 -0.0676 -0.3158
 4414W        W 8465   3.376   3.393   5.632 -0.1467 -0.0964 -0.0304
 4415W        W 8466   9.054   8.998   1.274 -0.2190  0.3790 -0.1404
 4416W        W 8467   7.727   0.365   4.210 -0.1559  0.0877  0.2378
 4417W        W 8468   3.840   8.890   0.639  0.2083 -0.3427 -0.1224
 4418W        W 8469   6.285   3.059   3.027  0.1376 -0.1655 -0.1430
 4419W        W 8470   2.366   8.634   1.675  0.1465  0.1148 -0.2426
 4420W        W 8471  10.139   4.775   9.590 -0.1602  0.3417  0.1654
 4421W        W 8472   7.712   2.561   1.960 -0.1377 -0.1945 -0.1380
 4422W        W 8473   5.483   3.905   2.090 -0.2821  0.4638 -0.0013
 4423W        W 8474   9.123   5.511   0.417 -0.2441 -0.1270 -0.2961
 4424W        W 8475   5.240   1.292   1.048 -0.1256 -0.1949  0.0759
 4425W        W 8476   8.705   1.352  11.532 -0.1515  0.1076  0.1525
 4426W        W 8477   3.205   4.515   1.317  0.0850 -0.0162  0.0428
 4427W        W 8478   6.028   2.735   2.004 -0.0802  0.0956  0.1503
 4428W        W 8479   8.290   5.291  10.859  0.2401 -0.1235 -0.1683
 4429W        W 8480   3.419   9.468   1.414 -0.0772  0.0682 -0.1548
 4430W        W 8481   7.226   4.026  10.944  0.1331 -0.0036  0.2482
 4431W        W 8482   2.675   9.487   2.280  0.1209 -0.0613  0.0796
 4432W        W 8483   9.544   4.409   9.937  0.1472 -0.1018 -0.2670
 4433W        W 8484   1.972   2.695   3.825 -0.1580 -0.0853  0.2056
 4434W        W 8485   7.159   6.953  13.568 -0.1675  0.0679  0.0410
 4435W        W 8486   7.643   9.025  12.144 -0.0912  0.1153  0.0955
 4436W        W 8487   6.924   4.937   1.065  0.1051  0.0335  0.0612
 4437W        W 8488   6.723   9.133   2.540 -0.2326 -0.3120  0.0145
 4438W        W 8489   9.533   0.366  11.147 -0.2083 -0.1594 -0.1549
 4439W        W 8490   2.419   1.830  13.355  0.1814  0.0905  0.0673
 4440W        W 8491   8.919   2.215   0.713  0.0443 -0.2129 -0.1009
 4441W        W 8492   5.516   0.459   0.922 -0.0082  0.0021  0.0839
 4442W        W 8493   7.405   1.902   3.635  0.1102  0.1418  0.3089
 4443W        W 8494   9.638   6.249  10.481 -0.0965  0.1319  0.6559
 4444W        W 8495   1.293   8.189  11.598 -0.2776 -0.0226 -0.2972
 4445W        W 8496   1.023   7.498   2.159 -0.1351  0.2285  0.0010
 4446W        W 8497   3.782   9.306   3.270 -0.2172 -0.1196 -0.1394
 4447W        W 8498   1.976   8.944   0.846 -0.2853  0.1707 -0.0346
 4448W        W 8499   3.923   4.064   9.625 -0.1307 -0.3554  0.0210
 4449W        W 8500   3.884   2.475   3.503  0.1257 -0.0890 -0.1174
 4450W        W 8501   1.231   4.447  11.763  0.2151 -0.2031 -0.1117
 4451W        W 8502   8.734   8.265   2.186 -0.0280 -0.0784  0.1607
 4452W        W 8503   0.339   1.748  11.107 -0.0117  0.0775 -0.1603
 4453W        W 8504   6.777   5.816  11.179  0.1296 -0.0500 -0.1611
 4454W        W 8505   3.860   1.428  12.899  0.2673  0.1103 -0.2597
 4455W        W 8506   2.030   9.822  11.061 -0.0702  0.0623 -0.0990
 4456W        W 8507   6.557   7.171   0.741 -0.3562 -0.1057  0.1335
 4457W        W 8508   2.979   4.954   3.326  0.0378  0.1586  0.2667
 4458W        W 8509   6.887   4.104  11.435 -0.2305  0.3234 -0.2561
 4459W        W 8510   4.197   7.778   1.034  0.1780  0.0826 -0.1961
 4460W        W 8511   0.283   1.222   4.174 -0.1109  0.5822 -0.1564
 4461W        W 8512   1.673   2.302   3.551 -0.2347 -0.0169 -0.0325
 4462W        W 8513   8.850   7.345   0.035  0.0281  0.0976 -0.0514
 4463W        W 8514   0.023   6.065   0.048  0.1060 -0.3578 -0.1823
 4464W        W 8515   3.409   2.413  13.028 -0.0671 -0.1362 -0.3753
 4465W        W 8516   7.379   9.668   2.712  0.0602  0.0768  0.2539
 4466W        W 8517   5.250   4.454   5.378 -0.0682 -0.0339  0.1103
 4467W        W 8518   4.018   6.266   0.626  0.0965  0.1455 -0.2010
 4468W        W 8519   8.131   2.629   2.906  0.0008  0.2467 -0.1094
 4469W        W 8520   0.992   7.183  11.588  0.2243 -0.0082  0.0305
 4470W        W 8521   4.424   3.719   3.683 -0.2826 -0.1244  0.1348
 4471W        W 8522   4.363   4.524   4.234  0.0858  0.0717  0.0578
 4472W        W 8523   4.758   1.100  11.480  0.0364  0.1784 -0.1416
 4473W        W 8524   1.280   6.604   2.198  0.0038 -0.1054 -0.3348
 4474W        W 8525   6.983   2.104  10.521  0.2051  0.1221 -0.5461
 4475W        W 8526   7.380   0.768   4.396  0.0143 -0.2478 -0.0667
 4476W        W 8527   6.580   7.161  12.878  0.3054  0.0976  0.1575
 4477W        W 8528  10.085   4.857  12.663  0.1623  0.6042  0.2620
 4478W        W 8529   7.740   6.832   3.280 -0.2336  0.0485  0.0006
 4479W        W 8530   3.176   5.549   1.290 -0.1606  0.0575  0.0637
 4480W        W 8531   3.645   6.105  11.770 -0.1984  0.1215 -0.0529
 4481W        W 8532   3.087   0.798   0.019 -0.0172  0.1593  0.1949
 4482W        W 8533   7.352   6.835   4.668 -0.1145  0.2823  0.0246
 4483W        W 8534   2.305   9.489  13.688 -0.0293 -0.1362  0.0254
 4484W        W 8535   6.846   8.972  12.977  0.4078 -0.1219  0.2864
 4485W        W 8536   2.184   4.372   3.847 -0.2500  0.1489  0.0119
 4486W        W 8537   8.606   8.047   3.428  0.1129  0.0701  0.1691
 4487W        W 8538   5.899   5.891   0.653  0.3207  0.0757  0.0515
 4488W        W 8539   4.576   4.828  13.271  0.1641  0.0899 -0.0166
 4489W        W 8540   2.551  10.127   9.127  0.2042 -0.1198 -0.2157
 4490W        W 8541   7.178   3.827   9.855 -0.0642 -0.1873 -0.0111
 4491W        W 8542   0.515   9.881  11.081 -0.0772  0.0307  0.2554
 4492W        W 8543   6.993   9.275   4.498 -0.2399  0.2066  0.2476
 4493W        W 8544   0.722   0.943   4.170  0.0944  0.1289  0.1654
 4494W        W 8545   6.650   2.295  11.962 -0.0579  0.0082 -0.0712
 4495W        W 8546   6.238   5.514   2.806 -0.2394  0.1788 -0.0639
 4496W        W 8547   2.451   5.608   2.458 -0.0821 -0.1414 -0.2435
 4497W        W 8548   3.761   0.787   9.335  0.0339  0.0187 -0.0224
 4498W        W 8549   3.617   0.712  11.369  0.2491 -0.0197  0.1041
 4499W        W 8550   7.599   3.027   4.422 -0.2414  0.1067 -0.1789
 4500W        W 8551   5.783   3.554  10.765 -0.0898 -0.0609 -0.0873
 4501W        W 8552   4.691   1.387   2.433  0.1166 -0.0162 -0.3008
 4502W        W 8553   5.059   5.270  11.699 -0.0894  0.0834 -0.0119
 4503W        W 8554   0.748   6.753  10.714  0.0859 -0.1391 -0.0053
 4504W        W 8555   4.669   5.390   3.315  0.2623 -0.2013  0.1085
 4505W        W 8556   3.975   2.398  13.699 -0.1270  0.1222 -0.0418
 4506W        W 8557   5.382   9.240   2.294 -0.3322  0.0043 -0.0744
 4507W        W 8558   7.869   3.751   9.797  0.1127  0.1216  0.4493
 4508W        W 8559   8.786   8.072   9.953 -0.0100  0.2455  0.0906
 4509W        W 8560   3.528   3.128   0.830  0.2485 -0.3104  0.4895
 4510W        W 8561   2.788   3.697   4.630 -0.0292 -0.2656 -0.1295
 4511W        W 8562  10.100   0.121   3.764 -0.1104  0.0798 -0.1833
 4512W        W 8563   0.505   4.064   1.369 -0.1496  0.1145  0.1073
 4513W        W 8564   4.191  10.019   0.945  0.0705 -0.0958 -0.0902
 4514W        W 8565   8.495   4.807  12.590  0.3105 -0.3636 -0.1897
 4515W        W 8566   4.178   8.484  13.647  0.0489  0.1125 -0.1378
 4516W        W 8567   9.505   3.086  12.442  0.1386  0.0699 -0.0122
 4517W        W 8568   0.409   5.836   0.275 -0.1277  0.0953  0.1316
 4518W        W 8569   7.348   1.662  11.609  0.3430 -0.1271  0.1881
 4519W        W 8570   6.926   5.224  13.885 -0.0122 -0.1629  0.0453
 4520W        W 8571   0.612   7.306  10.101  0.2416 -0.1565  0.3833
 4521W        W 8572   2.566   4.921  10.216  0.2855  0.0201  0.2738
 4522W        W 8573   3.175   0.269   4.407 -0.0743  0.2169 -0.1296
 4523W        W 8574   5.977   8.441  11.179 -0.0688 -0.6265  0.0357
 4524W        W 8575   2.862   3.362   5.670 -0.0644  0.0068  0.1725
 4525W        W 8576   3.144   3.337   3.907  0.1969  0.1294 -0.0848
 4526W        W 8577   9.092   6.700   1.018  0.2207 -0.0809  0.0381
 4527W        W 8578   6.722   1.895   3.324 -0.4096 -0.0125  0.3244
 4528W        W 8579   1.030   5.128   2.305 -0.0929 -0.1418 -0.2254
 4529W        W 8580   1.898   1.037   9.391 -0.2467 -0.1740 -0.0802
 4530W        W 8581   4.187   0.341   2.804  0.0553  0.0547 -0.1863
 4531W        W 8582   6.972   0.197  10.802  0.1550  0.4534 -0.1910
 4532W        W 8583   3.440   6.422   3.101 -0.2627  0.0763 -0.0051
 4533W        W 8584   9.991   9.381  12.323  0.0465 -0.2448  0.0716
 4534W        W 8585   0.196   6.804  12.968  0.1877  0.0977 -0.3110
 4535W        W 8586   4.242   6.460  10.016 -0.2145  0.0915 -0.0618
 4536W        W 8587   6.951   7.854   1.517  0.1691 -0.1244  0.2196
 4537W        W 8588   4.317   5.312   0.747 -0.0272  0.1989  0.1662
 4538W        W 8589   4.606   2.239   9.861  0.2175 -0.0219  0.3696
 4539W        W 8590   8.934   3.804   4.611  0.0067 -0.1703 -0.1347
 4540W        W 8591   1.311   0.162   2.646 -0.2162  0.0208 -0.0108
 4541W        W 8592   1.198   2.855   1.053  0.0168  0.2192  0.0149
 4542W        W 8593   3.567   1.916  13.040  0.2461 -0.0586  0.2007
 4543W        W 8594   5.683   3.678   0.525 -0.0716  0.0346 -0.1367
 4544W        W 8595   1.798   0.325   2.611 -0.1030  0.1492 -0.3968
 4545W        W 8596   7.805   3.897   1.557 -0.2114 -0.0329  0.2605
 4546W        W 8597   9.083   5.837  13.324  0.2576  0.2536  0.0035
 4547W        W 8598   4.649   1.669   1.924 -0.0420  0.3573  0.1161
 4548W        W 8599   7.105   9.696   3.478 -0.1820 -0.2287  0.0670
 4549W        W 8600   2.972   5.663  10.549  0.0840 -0.1145 -0.1525
 4550W        W 8601   9.904   1.417   9.817  0.1905 -0.1887 -0.1653
 4551W        W 8602   4.309   8.976   2.228  0.3034  0.0124 -0.2724
 4552W        W 8603   6.873   1.011  11.021 -0.0450  0.2232  0.1163
 4553W        W 8604   9.989   6.790  13.241 -0.2188  0.0245 -0.0986
 4554W        W 8605   2.484   9.446   4.061  0.5162 -0.1900 -0.3503
 4555W        W 8606   7.451   8.706  13.865  0.0725  0.3634 -0.1450
 4556W        W 8607   8.648   6.781   3.030 -0.3172 -0.2517  0.1556
 4557W        W 8608   7.233   8.745  13.269 -0.1125  0.0348 -0.3933
 4558W        W 8609   2.570   4.671   3.646 -0.1259  0.2381  0.0884
 4559W        W 8610   5.118   3.088   4.398 -0.1231  0.0227  0.3724
 4560W        W 8611   8.113   7.830  10.644  0.2486 -0.2201  0.0645
 4561W        W 8612   8.224   7.176   4.609  0.2391  0.0497  0.2915
 4562W        W 8613   5.781   5.430   4.965 -0.0167 -0.1289 -0.1422
 4563W        W 8614   1.890   6.596  13.399 -0.0697 -0.4043 -0.3921
 4564W        W 8615   0.406   1.135  13.452 -0.0435 -0.3431  0.1424
 4565W        W 8616   5.576   0.606   5.019  0.1221  0.0215  0.1248
 4566W        W 8617   2.896   0.986   4.743  0.2791  0.0146  0.0683
 4567W        W 8618   2.210   6.807   1.747  0.0632 -0.2353  0.1427
 4568W        W 8619   5.196   8.590   9.853 -0.0149 -0.0730 -0.1051
 4569W        W 8620   6.840  10.155   1.612  0.2264  0.1304 -0.1651
 4570W        W 8621   0.224   6.687  13.918  0.0167 -0.4129  0.1179
 4571W        W 8622   7.865   4.651  10.883 -0.0571 -0.0966 -0.0653
 4572W        W 8623   0.702   9.046   2.067 -0.1273 -0.3856 -0.0024
 4573W        W 8624   0.499   4.733  11.322  0.0384 -0.0101 -0.0816
 4574W        W 8625   2.528   6.656  10.884 -0.2408  0.0542  0.0516
 4575W        W 8626   0.428   6.559   2.873  0.2304 -0.1337  0.1426
 4576W        W 8627   4.042   5.218   0.303  0.0365 -0.0550  0.1954
 4577W        W 8628   1.617   4.788   0.681  0.2253  0.1666  0.3609
 4578W        W 8629   7.574   7.409  13.343  0.0250  0.0404  0.2523
 4579W        W 8630   9.130   8.276  12.109 -0.3700  0.0126  0.1632
 4580W        W 8631   0.654   1.839   3.007  0.2054 -0.1887  0.0812
 4581W        W 8632   5.298   6.923  10.630 -0.0999  0.2434  0.0874
 4582W        W 8633   5.970   7.944   1.706  0.2107  0.0209 -0.0558
 4583W        W 8634   2.789   8.041   3.902 -0.1119  0.1095 -0.3814
 4584W        W 8635   7.864   6.629  13.902 -0.1933 -0.0186 -0.2416
 4585W        W 8636   6.420   9.326   2.255 -0.0485  0.1321 -0.1676
 4586W        W 8637   0.580   6.513  12.966 -0.1105 -0.1872 -0.2820
 4587W        W 8638   5.996   4.058   0.368  0.1918  0.1545 -0.2736
 4588W        W 8639   6.332   4.988   2.856  0.1216 -0.0145  0.1823
 4589W        W 8640   9.093   9.404  13.458 -0.4265 -0.0789 -0.0587
 4590W        W 8641   0.024   4.822   4.118 -0.2643 -0.2333 -0.0656
 4591W        W 8642   6.110   9.955  13.927  0.1239 -0.0975  0.1826
 4592W        W 8643   4.331   9.058   1.522 -0.1898 -0.0483  0.1829
 4593W        W 8644   1.369  10.101  10.057  0.1852  0.0341  0.2533
 4594W        W 8645   7.381   9.111   3.214  0.1551  0.2447 -0.0226
 4595W        W 8646   7.866   2.233  11.037  0.2537 -0.3908 -0.4472
 4596W        W 8647   2.318   1.253  13.499  0.0789 -0.0704  0.0149
 4597W        W 8648   5.404   4.967   2.597  0.1377  0.0665  0.0115
 4598W        W 8649   0.471   2.719  10.580  0.1267 -0.1593 -0.2827
 4599W        W 8650   4.329   9.933   2.109 -0.3870  0.0656 -0.5090
 4600W        W 8651   5.165   9.441   1.888  0.0530 -0.2455  0.3335
 4601W        W 8652   5.064   5.647  12.039  0.0795 -0.2512  0.3092
 4602W        W 8653   3.320   3.839  13.636  0.1989  0.0762  0.2638
 4603W        W 8654   8.678   3.439   9.643 -0.2298 -0.0103 -0.1550
 4604W        W 8655   2.388   6.739   4.201  0.2323  0.1413 -0.2457
 4605W        W 8656   8.517   5.582   4.891  0.1826 -0.0017  0.0559
 4606W        W 8657   9.048   7.946   2.504 -0.0695 -0.3595 -0.1445
 4607W        W 8658   0.294   2.958  13.784 -0.0120 -0.1468 -0.0064
 4608W        W 8659   6.905   1.235   3.082  0.0099 -0.1808 -0.0371
 4609W        W 8660   7.852   0.561   3.293  0.0741 -0.2211  0.2488
 4610W        W 8661   7.426   1.270  10.369 -0.0418  0.3041 -0.2406
 4611W        W 8662   0.978   7.588  10.374  0.1392  0.0548  0.1481
 4612W        W 8663   7.571   5.323   5.373  0.1068 -0.0019  0.0616
 4613W        W 8664   3.350   1.556  10.516  0.1869 -0.2306 -0.0876
 4614W        W 8665   5.109   3.934  10.517  0.0372  0.1623 -0.1309
 4615W        W 8666   9.929   8.677  13.091  0.0843 -0.0200  0.1812
 4616W        W 8667   5.463   0.902  12.129  0.1346 -0.1548  0.2183
 4617W        W 8668   5.844   4.696  12.215 -0.2174 -0.1850 -0.1499
 4618W        W 8669   1.886   3.255   2.521  0.0244  0.0814  0.0374
 4619W        W 8670   1.137   7.818  11.265 -0.0440 -0.0019 -0.0021
 4620W        W 8671   9.317   4.353   5.030 -0.1034  0.3166 -0.1748
 4621W        W 8672   2.794   0.833   1.019 -0.2992  0.1288  0.1192
 4622W        W 8673  10.048   1.253  11.425 -0.0973  0.1137  0.0141
 4623W        W 8674   0.409   2.540   2.633 -0.0671  0.0596  0.1622
 4624W        W 8675   9.586   5.931  13.430  0.1545  0.1906 -0.0060
 4625W        W 8676   3.921   7.384  11.708  0.4738 -0.1603 -0.0044
 4626W        W 8677   8.790   0.969   2.124  0.1631  0.1213  0.1678
 4627W        W 8678   2.814   7.978   0.581 -0.1883  0.1339 -0.0509
 4628W        W 8679   6.495   5.807  12.336  0.0025  0.0041  0.2068
 4629W        W 8680   6.879   6.399  10.939 -0.0429  0.0865  0.1515
 4630W        W 8681   7.015   1.873  12.012 -0.0866 -0.3047 -0.1457
 4631W        W 8682   9.514   7.277   1.903 -0.1924 -0.2848  0.1426
 4632W        W 8683   9.238   0.014  11.222  0.0596 -0.0077  0.1662
 4633W        W 8684   8.685   9.628  13.310 -0.4103 -0.0008 -0.1045
 4634W        W 8685   8.606   5.541   0.402 -0.2433 -0.1241  0.2272
 4635W        W 8686   7.351   0.529   3.131  0.0735 -0.0817  0.0013
 4636W        W 8687   2.128   5.329  13.348 -0.1850  0.0130 -0.1550
 4637W        W 8688   0.501   2.290   1.619 -0.0725  0.0417 -0.2276
 4638W        W 8689   0.328   8.452  11.979  0.1091  0.3552  0.3557
 4639W        W 8690   8.040   6.725   4.045 -0.0850 -0.0382  0.0185
 4640W        W 8691   4.503   5.809  10.872 -0.1636 -0.0035  0.1546
 4641W        W 8692   1.792   3.727   0.784  0.0320 -0.1672  0.0410
 4642W        W 8693   8.147   5.306   3.230 -0.3873 -0.0620  0.1696
 4643W        W 8694   9.155   7.184  11.043  0.4231  0.0467 -0.4223
 4644W        W 8695   0.817   7.130  11.041 -0.1272 -0.1889  0.0272
 4645W        W 8696   8.439   7.874   2.821 -0.5019 -0.2341 -0.0530
 4646W        W 8697   9.143   1.631   3.996 -0.0611 -0.0021 -0.0134
 4647W        W 8698   0.423   1.268   0.894  0.0948 -0.1755 -0.1776
 4648W        W 8699   7.551   3.503  10.144 -0.0028  0.0226  0.2386
 4649W        W 8700   8.003   1.990   0.387 -0.0776  0.3619 -0.1910
 4650W        W 8701   3.536   1.825   4.658 -0.1198 -0.0713 -0.1416
 4651W        W 8702   1.966   0.168   4.346  0.1781  0.0330 -0.0583
 4652W        W 8703   0.794   9.303  10.022 -0.0502 -0.0791  0.1109
 4653W        W 8704   7.525   2.977   2.181 -0.0447  0.1633 -0.0978
 4654W        W 8705   9.536   1.183  12.969  0.0000  0.3927  0.0435
 4655W        W 8706   9.436   5.377  10.022  0.0022  0.3216  0.1540
 4656W        W 8707   5.710   2.000  11.657 -0.0569 -0.1546  0.1848
 4657W        W 8708   4.611   3.326   1.973 -0.2085 -0.3403 -0.1653
 4658W        W 8709   4.692   1.133   4.926  0.3129  0.1736 -0.1483
 4659W        W 8710   5.767   5.710   5.791 -0.0097  0.1875 -0.1957
 4660W        W 8711   4.456   0.371   0.798 -0.1822  0.2129  0.0780
 4661W        W 8712   2.442   8.818   1.019  0.1194  0.0312  0.0350
 4662W        W 8713   5.338   5.777   9.095  0.2125  0.0191  0.2546
 4663W        W 8714   8.013   2.142   4.976 -0.1253 -0.1244  0.2831
 4664W        W 8715   1.950   5.411   3.803 -0.2246  0.0287 -0.1443
 4665W        W 8716   3.387   1.874  10.067 -0.3537  0.2278 -0.2320
 4666W        W 8717   1.071   9.287   3.082  0.1646 -0.1689 -0.1613
 4667W        W 8718   4.189   1.131  11.553  0.1876  0.1519 -0.1016
 4668W        W 8719   3.851   9.087   4.713  0.1130  0.0442 -0.0022
 4669W        W 8720  10.180   9.102   0.019  0.0544  0.0468  0.1452
 4670W        W 8721   9.027   3.856  12.164 -0.0000  0.0771 -0.0560
 4671W        W 8722   6.114   9.845   4.518 -0.2932 -0.0407 -0.1352
 4672W        W 8723   8.380   3.092   9.465 -0.0920 -0.1198 -0.0764
 4673W        W 8724   7.156   7.303   4.773 -0.0969 -0.0083 -0.1722
 4674W        W 8725   5.585   4.270  12.316 -0.2195 -0.2058 -0.0403
 4675W        W 8726   2.215   6.239  10.108  0.0905 -0.0987  0.0462
 4676W        W 8727   9.020   2.198   1.411 -0.0317  0.0167 -0.3750
 4677W        W 8728   2.516   8.449   4.085 -0.0244 -0.3433  0.1428
 4678W        W 8729   1.040   4.329   1.780  0.1223 -0.1301  0.1707
 4679W        W 8730   5.400   6.009   9.986  0.0486  0.1692  0.0012
 4680W        W 8731   4.476   1.494   8.813 -0.1929  0.0191 -0.3210
 4681W        W 8732   1.172   5.305  13.885  0.0986 -0.1431  0.0359
 4682W        W 8733   4.886   6.969   0.957  0.0282 -0.2343 -0.0979
 4683W        W 8734   4.404   3.431  10.227 -0.1330 -0.2079  0.2347
 4684W        W 8735   3.771   0.345   4.645 -0.0309  0.0263  0.2756
 4685W        W 8736   5.352   4.529  11.916 -0.3546 -0.2686  0.3143
 4686W        W 8737   4.664   8.618   4.959 -0.0550 -0.0188  0.3660
 4687W        W 8738   2.657   0.110  10.016  0.0834  0.0008  0.3428
 4688W        W 8739   2.693   9.705  13.467  0.3584  0.0332 -0.0915
 4689W        W 8740   4.011   8.868   3.755 -0.1103  0.2381 -0.3056
 4690W        W 8741   4.935   4.486   0.196  0.4028 -0.0435  0.3445
 4691W        W 8742  10.027  10.072   2.776 -0.1093 -0.1216 -0.2551
 4692W        W 8743   7.694   2.550   3.725 -0.0778  0.1677  0.2169
 4693W        W 8744   2.884   5.611   2.202 -0.0431  0.1975  0.1434
 4694W        W 8745   1.276   8.857  10.769  0.2069 -0.0748  0.3394
 4695W        W 8746   1.132   5.243  10.663  0.1139  0.0242  0.1955
 4696W        W 8747   8.318   8.610  12.134 -0.3243  0.0225 -0.3156
 4697W        W 8748   8.916   3.248   3.819 -0.0528 -0.2080  0.0705
 4698W        W 8749   4.989   1.313   1.985 -0.3145 -0.0889 -0.0165
 4699W        W 8750   0.870   0.365   1.257 -0.0400  0.0678  0.2383
 4700W        W 8751   4.788   2.221  13.203  0.3163 -0.1442  0.1307
 4701W        W 8752   3.925   4.340  10.055 -0.0070  0.2661 -0.0935
 4702W        W 8753   5.051   9.076  12.439  0.0344 -0.1710  0.0198
 4703W        W 8754   7.191   3.036   3.097  0.3359 -0.0642 -0.0363
 4704W        W 8755   6.177   8.195   3.663 -0.0116 -0.0620 -0.3007
 4705W        W 8756   6.594   2.034   4.709 -0.0335  0.0849 -0.1503
 4706W        W 8757   9.611   9.746   9.966  0.0799 -0.2220 -0.0199
 4707W        W 8758   0.491   2.551   4.681  0.1051  0.0015  0.3112
 4708W        W 8759   9.095   8.360  11.557 -0.2665 -0.1005 -0.0355
 4709W        W 8760   3.954   1.167  13.289 -0.1527 -0.3554  0.3726
 4710W        W 8761   0.273   9.898  10.471 -0.1335 -0.0604  0.1283
 4711W        W 8762   8.345   2.269   4.337  0.5102 -0.0266 -0.2113
 4712W        W 8763   5.438   3.127  11.119 -0.1838 -0.1603  0.0883
 4713W        W 8764   5.566   2.837   3.064 -0.2475 -0.0099  0.1239
 4714W        W 8765   8.287   0.430   2.891 -0.2733 -0.0530 -0.1528
 4715W        W 8766   3.237   8.638  10.494  0.0648  0.0331 -0.0673
 4716W        W 8767   7.904   0.691   4.667  0.0054  0.1849 -0.0056
 4717W        W 8768   6.037   3.726  13.653 -0.0798 -0.2138  0.2583
 4718W        W 8769   6.249   1.325   0.197 -0.2466  0.0776  0.1076
 4719W        W 8770   9.635   6.124   2.707  0.0615 -0.2332 -0.1501
 4720W        W 8771   6.929   7.862   2.651  0.0194  0.0625  0.0691
 4721W        W 8772   3.034   5.388   0.745 -0.2030 -0.3893  0.1353
 4722W        W 8773   9.470   3.507   2.203  0.1211  0.0906 -0.1593
 4723W        W 8774   2.983   6.506  12.079  0.1132  0.1596  0.0459
 4724W        W 8775   4.145   0.855   2.772  0.1326  0.4743  0.2372
 4725W        W 8776   6.213   7.533   9.822 -0.0124 -0.3034 -0.0780
 4726W        W 8777   5.976   6.893   1.754  0.0072  0.0428 -0.1575
 4727W        W 8778   2.400   6.866  13.324 -0.3225 -0.1197 -0.1244
 4728W        W 8779   4.850   2.035   2.811 -0.0863  0.0188  0.1053
 4729W        W 8780   6.230   4.996  10.016 -0.1551 -0.2495  0.0943
 4730W        W 8781   0.268   7.276  13.216 -0.3805  0.1563 -0.0905
 4731W        W 8782   4.367   8.739   0.846  0.1387  0.1546 -0.2133
 4732W        W 8783   7.958   3.619  12.963  0.2144  0.0597  0.0725
 4733W        W 8784   7.326   6.004   9.867  0.0126  0.3277  0.1228
 4734W        W 8785   5.578  10.203  12.023  0.1123  0.1653  0.0124
 4735W        W 8786   7.540   4.340   1.254  0.0952 -0.1317  0.1994
 4736W        W 8787   2.058   8.659   1.286  0.0014  0.1277  0.1917
 4737W        W 8788   1.839   6.566  12.151 -0.1221 -0.0842  0.3920
 4738W        W 8789   5.633   3.013  13.134 -0.3618  0.2766 -0.0931
 4739W        W 8790   6.608   7.539   1.124 -0.1583  0.0646 -0.0291
 4740W        W 8791   2.768   6.955   3.401  0.1614  0.0302 -0.1030
 4741W        W 8792   4.446   4.286   3.010  0.0450  0.0374  0.3610
 4742W        W 8793   1.034   2.257   8.991  0.0710  0.1577  0.0915
 4743W        W 8794   1.163   8.289  12.064 -0.2313  0.1748  0.2026
 4744W        W 8795   9.946   1.364  12.288  0.1613  0.0269 -0.3341
 4745W        W 8796   1.516   7.509   2.291  0.2046  0.0393 -0.0830
 4746W        W 8797   8.504   0.448   5.377 -0.3267  0.0286  0.1174
 4747W        W 8798   5.575   4.379  11.011 -0.3114 -0.1818 -0.2909
 4748W        W 8799   7.863   8.522   2.829  0.1990 -0.2782 -0.1521
 4749W        W 8800  10.068   4.679   9.073  0.1564 -0.0503  0.1626
 4750W        W 8801   0.696   5.315  13.774  0.0943 -0.0246 -0.1074
 4751W        W 8802   1.893   5.303   4.990  0.2316  0.1799  0.0127
 4752W        W 8803   7.560   6.641   0.348 -0.0580  0.3013 -0.1041
 4753W        W 8804   7.732   9.973  13.192 -0.1956 -0.0426  0.0347
 4754W        W 8805   6.012   7.263   9.007 -0.1474 -0.1074  0.3045
 4755W        W 8806   3.630   7.059  12.040 -0.3401  0.0141  0.2955
 4756W        W 8807   8.182   1.491   5.145  0.2814  0.0471 -0.1270
 4757W        W 8808   7.638   1.477   3.663 -0.3209  0.2352  0.1304
 4758W        W 8809   1.746   8.341  11.567 -0.1010 -0.2525 -0.4739
 4759W        W 8810   3.330   9.943  10.249  0.0847  0.0653 -0.0253
 4760W        W 8811   8.137   5.938  13.522 -0.2587  0.1841  0.2407
 4761W        W 8812   8.532   4.086   3.345  0.1469  0.0318  0.2246
 4762W        W 8813   1.036   6.703  11.767  0.1340  0.0725 -0.1464
 4763W        W 8814   0.731   4.635   4.214 -0.0333 -0.3574 -0.1216
 4764W        W 8815   0.808   6.216  10.254 -0.0700 -0.2146  0.0275
 4765W        W 8816   7.852   8.521   3.325  0.3222  0.2900  0.1434
 4766W        W 8817   0.903   2.537   1.300  0.1904 -0.1424  0.0266
 4767W        W 8818   8.816   5.919   0.105 -0.3720 -0.3882 -0.0413
 4768W        W 8819   3.865   9.926  12.883  0.1821 -0.0669 -0.0835
 4769W        W 8820   7.622   4.359  13.733 -0.2789  0.1517  0.0125
 4770W        W 8821   8.741   0.517  11.849 -0.1068  0.3563 -0.1297
 4771W        W 8822   4.096   2.985   4.358 -0.0573 -0.2203 -0.0882
 4772W        W 8823   3.089   7.942   4.874 -0.2032  0.2009  0.0113
 4773W        W 8824   8.894   1.593  13.304 -0.0988  0.0038 -0.0366
 4774W        W 8825   1.692   2.788   1.076  0.3060 -0.0467  0.1154
 4775W        W 8826   4.575   0.878   2.552 -0.2183  0.1724  0.0992
 4776W        W 8827   0.698   3.199  13.649  0.1454  0.3850  0.3295
 4777W        W 8828   7.832   2.704   4.170  0.1600 -0.1586  0.0568
 4778W        W 8829   4.323   1.323   2.754 -0.1080  0.1188  0.1368
 4779W        W 8830   5.073   3.272   3.884 -0.0591 -0.4694  0.0992
 4780W        W 8831   2.243   8.538   9.705 -0.1482 -0.2232  0.0211
 4781W        W 8832   9.959   0.522  12.036 -0.3795 -0.0207  0.1188
 4782W        W 8833   7.138   2.861   4.958 -0.2780  0.0737 -0.2438
 4783W        W 8834   3.441   9.154   4.309 -0.1047 -0.2480  0.0509
 4784W        W 8835   4.501   7.252   0.785  0.0481 -0.1391 -0.1503
 4785W        W 8836   3.344   2.462   9.095 -0.1929  0.1350  0.2625
 4786W        W 8837   9.150   0.771   9.257  0.1154  0.0884  0.2770
 4787W        W 8838   6.721   6.503  12.296  0.1017  0.1935  0.0470
 4788W        W 8839   7.350   3.905  11.408  0.2347 -0.2139 -0.1189
 4789W        W 8840   2.741   0.846   9.526  0.1673 -0.2431  0.1279
 4790W        W 8841   9.803   4.136   0.244  0.1604 -0.1925  0.1116
 4791W        W 8842   7.235   7.265   3.771  0.0353 -0.0878 -0.3407
 4792W        W 8843   6.388   6.518  12.693  0.0978 -0.1655  0.1855
 4793W        W 8844   0.397   4.558   1.168  0.1045  0.0464 -0.0067
 4794W        W 8845   6.510   3.395   3.739  0.1880 -0.0078  0.4343
 4795W        W 8846   4.098   7.913   3.913  0.2338 -0.1015 -0.4410
 4796W        W 8847   6.594   1.026   1.616  0.0720 -0.1246  0.0478
 4797W        W 8848   1.954   7.071   0.817  0.0614  0.1063  0.0349
 4798W        W 8849   7.440   0.043  11.752 -0.1028  0.0566 -0.1178
 4799W        W 8850   1.219   1.068   3.011  0.1358  0.0341 -0.1795
 4800W        W 8851  10.204   4.147  11.200  0.0145 -0.0035  0.0424
 4801W        W 8852   5.250   2.530  13.726 -0.4966  0.2148  0.1367
 4802W        W 8853   0.798   0.676  11.083 -0.2915  0.2978 -0.0985
 4803W        W 8854   7.069   3.563   2.966 -0.2169  0.1026  0.0261
 4804W        W 8855   4.299   3.797   3.206 -0.0796 -0.1285 -0.2897
 4805W        W 8856   5.711   4.679  12.726 -0.0816 -0.0563  0.1020
 4806W        W 8857   9.693   4.077  13.279 -0.1453 -0.1112  0.1443
 4807W        W 8858   4.516   7.933   4.366  0.0286 -0.0098 -0.3020
 4808W        W 8859   2.104   8.514  11.875 -0.1152 -0.2154 -0.2272
 4809W        W 8860   9.729   3.150   1.813  0.1281 -0.1058  0.0709
 4810W        W 8861   3.425   6.656   5.485  0.2294 -0.0329  0.0221
 4811W        W 8862   1.869   8.374   0.444 -0.4002  0.3692  0.1750
 4812W        W 8863   0.221   4.874   1.585 -0.2716  0.1107  0.3476
 4813W        W 8864   4.640   9.871  11.969  0.2322  0.1382  0.1178
 4814W        W 8865   1.921   4.596  13.354  0.0538  0.0472  0.1407
 4815W        W 8866   2.477   8.728   2.953 -0.3444 -0.3041  0.0864
 4816W        W 8867   0.813   0.864  13.685 -0.1255 -0.0682  0.2225
 4817W        W 8868   5.905   2.995   3.505  0.0164  0.0524  0.3298
 4818W        W 8869   2.290   2.129   2.194 -0.0015 -0.0719  0.1264
 4819W        W 8870   1.271   6.429   2.714  0.3538 -0.0315 -0.0065
 4820W        W 8871   2.630   5.239  11.521  0.0649 -0.2567 -0.1472
 4821W        W 8872   6.324   0.955   1.142 -0.1253 -0.1153  0.1208
 4822W        W 8873   7.115   2.775   2.484 -0.0379  0.1002 -0.2172
 4823W        W 8874   3.041   0.597   0.548  0.3356  0.0612 -0.0715
 4824W        W 8875   4.578   4.072   3.968 -0.2391  0.0554  0.0558
 4825W        W 8876   1.341   7.152   1.480 -0.3748  0.1250 -0.1410
 4826W        W 8877   2.946   0.306   5.121 -0.0996 -0.2847  0.0587
 4827W        W 8878   7.961   4.429   4.634 -0.2837 -0.0205  0.0914
 4828W        W 8879   0.428   6.863   2.365  0.0895 -0.0898  0.4639
 4829W        W 8880   2.293   4.604  12.957  0.1637 -0.1378 -0.1023
 4830W        W 8881   3.639   7.898  12.391  0.0188 -0.3947 -0.1478
 4831W        W 8882   7.231   9.065   2.329 -0.1497 -0.2190 -0.0484
 4832W        W 8883   4.109   2.598   2.921 -0.1036 -0.1467  0.0919
 4833W        W 8884   1.245   6.481   0.372  0.3617  0.1038  0.0924
 4834W        W 8885   2.725   7.793  13.399 -0.1179  0.0016  0.0273
 4835W        W 8886   8.762   5.884   1.284 -0.0752 -0.2938 -0.0354
 4836W        W 8887   8.488   0.326  12.404 -0.1847 -0.0752  0.1639
 4837W        W 8888   7.341   9.812   0.953 -0.1167  0.1406 -0.3452
 4838W        W 8889   4.887   6.860   0.476  0.4078  0.3545 -0.1784
 4839W        W 8890   5.491   7.245   2.330  0.1788  0.0718  0.0086
 4840W        W 8891   4.573   6.949  10.089 -0.0191  0.2011  0.1901
 4841W        W 8892   1.409   8.057  12.530  0.1508  0.0699  0.1724
 4842W        W 8893   0.594   2.005   2.510  0.2467  0.0978 -0.1144
 4843W        W 8894   1.515   4.049   1.902 -0.2780 -0.5711 -0.1475
 4844W        W 8895   5.666   0.428  12.384 -0.0178  0.0795  0.2750
 4845W        W 8896   0.890   1.150  11.258  0.0935 -0.3726 -0.0652
 4846W        W 8897   4.450   7.007   3.836  0.1957 -0.2134 -0.0323
 4847W        W 8898   6.130   8.575   0.511  0.0812  0.0011 -0.1590
 4848W        W 8899   0.189   3.871  10.087  0.2229 -0.2258 -0.0298
 4849W        W 8900   0.811   6.253   0.265  0.1698 -0.0645  0.0240
 4850W        W 8901   1.373   3.660  11.547 -0.2567  0.0276 -0.3352
 4851W        W 8902   3.014   1.787   9.777  0.1479  0.0025 -0.2484
 4852W        W 8903   6.968   8.658   0.251 -0.2223  0.1209 -0.3095
 4853W        W 8904   9.290   2.345  10.056  0.5148 -0.1525 -0.1423
 4854W        W 8905   0.275   7.199   0.179  0.1981 -0.0635 -0.2768
 4855W        W 8906   6.033   0.171   3.954  0.0578  0.1282 -0.1671
 4856W        W 8907   3.065   9.484   1.818  0.1414 -0.1819 -0.1250
 4857W        W 8908   4.835  10.151   3.202 -0.0719 -0.0058  0.0962
 4858W        W 8909   8.042   0.480   1.186 -0.0036 -0.0155 -0.4363
 4859W        W 8910   0.848   3.517   2.435 -0.0449 -0.0245 -0.1804
 4860W        W 8911   9.835   4.446  11.022 -0.1788 -0.0133  0.0945
 4861W        W 8912   3.201   9.825  13.065  0.1188 -0.1069  0.1286
 4862W        W 8913   4.938   4.968   2.380  0.0855  0.0358  0.3079
 4863W        W 8914   7.728   7.046   4.963 -0.2017  0.3770 -0.0732
 4864W        W 8915   0.777   9.160  10.804 -0.3176 -0.0160  0.3099
 4865W        W 8916   8.769   4.798   9.620  0.0682 -0.0603  0.2260
 4866W        W 8917   3.353   5.669  11.957  0.0913  0.0796  0.0910
 4867W        W 8918   5.698   9.328   5.307  0.0613 -0.2107  0.0550
 4868W        W 8919   5.148   2.474   8.815 -0.3167 -0.0941  0.0269
 4869W        W 8920   0.249   5.079  13.600 -0.0791  0.0782  0.2552
 4870W        W 8921   4.262   3.191  11.614 -0.0026 -0.4182 -0.0318
 4871W        W 8922   0.431   5.809  10.415  0.2043 -0.4336 -0.3030
 4872W        W 8923   5.404   4.655   2.121 -0.1997 -0.1657 -0.1191
 4873W        W 8924   4.792   1.241  13.723 -0.2743 -0.2643  0.1365
 4874W        W 8925   4.644   2.748   2.221 -0.0331  0.0913  0.0668
 4875W        W 8926   1.110   5.909   3.899  0.0920  0.1754  0.1441
 4876W        W 8927   0.550   7.093   2.897  0.0185 -0.1917  0.1084
 4877W        W 8928   4.315   1.954  13.751  0.0910  0.1657  0.0601
 4878W        W 8929   3.220   1.710   2.045 -0.1117 -0.0307 -0.7861
 4879W        W 8930   4.777   1.975   1.474 -0.2079 -0.0713  0.0882
 4880W        W 8931   3.456   5.636   2.433  0.0894  0.1184 -0.0014
 4881W        W 8932   0.109   4.020   9.517 -0.1303  0.0460 -0.0235
 4882W        W 8933   7.852   1.074  10.916 -0.1497  0.1785 -0.0228
 4883W        W 8934   7.677   0.175  12.322 -0.0585  0.0374  0.1056
 4884W        W 8935   9.399   1.829  12.792 -0.0721 -0.4335 -0.3587
 4885W        W 8936   3.926   1.051   0.244 -0.1994  0.0733  0.2525
 4886W        W 8937   8.428  10.119   0.539  0.0473 -0.0981 -0.2134
 4887W        W 8938   3.771   8.785  10.440  0.0304  0.2929 -0.1466
 4888W        W 8939   5.465   3.925  11.962  0.0902 -0.1461  0.0696
 4889W        W 8940   0.042   2.163  12.355 -0.0069 -0.0311  0.2002
 4890W        W 8941   0.483   2.720  11.534 -0.0293 -0.2926  0.0192
 4891W        W 8942   4.009   2.570   0.400 -0.0420  0.0583  0.0149
 4892W        W 8943   8.175   9.384  11.645  0.1425 -0.2273 -0.1086
 4893W        W 8944   8.363   1.303   9.831  0.0314  0.0237 -0.1105
 4894W        W 8945   2.116   6.329  11.622 -0.0300 -0.0266 -0.1465
 4895W        W 8946   5.876   3.091   2.731  0.3592  0.1871  0.2184
 4896W        W 8947   9.610   2.779  11.244 -0.0564 -0.1085  0.0189
 4897W        W 8948   6.682   6.105  12.692 -0.2357  0.2392  0.1478
 4898W        W 8949   1.761   5.811  11.005 -0.2276 -0.0904 -0.0518
 4899W        W 8950   3.050   1.421  10.120 -0.1006 -0.1290 -0.0170
 4900W        W 8951   7.190   3.515  10.805 -0.1514 -0.1367 -0.1429
 4901W        W 8952   6.913   7.822   0.882  0.1821 -0.0708 -0.1481
 4902W        W 8953   7.084   1.849  12.807  0.1957  0.0018 -0.1687
 4903W        W 8954   8.347   6.506   1.388  0.1118  0.1817 -0.2871
 4904W        W 8955   0.685   5.559   2.605  0.1359 -0.1762  0.0239
 4905W        W 8956   6.260   2.358   9.505  0.2439  0.3933  0.2140
 4906W        W 8957   8.735   7.497   3.802  0.3609 -0.3151 -0.0536
 4907W        W 8958   8.875   4.630   2.174 -0.0681  0.3153  0.1123
 4908W        W 8959   0.022   0.759  10.656  0.0301  0.1164  0.1530
 4909W        W 8960   5.162   2.431   5.758 -0.0242 -0.1682  0.1652
 4910W        W 8961   5.915   1.314   3.237 -0.1387 -0.2913 -0.1026
 4911W        W 8962   4.719   1.097   0.253  0.0889 -0.0871  0.2014
 4912W        W 8963   7.311   5.734  13.844 -0.0188  0.0543 -0.0882
 4913W        W 8964   1.540   1.119  11.282  0.2024 -0.0581 -0.1529
 4914W        W 8965   1.794   1.995  13.062  0.2638  0.0357  0.0109
 4915W        W 8966   8.270   0.882   0.953  0.2421 -0.4670 -0.0869
 4916W        W 8967   9.316   5.216   0.102  0.3986  0.1787 -0.0803
 4917W        W 8968   6.947   0.019   4.478 -0.1431 -0.0082 -0.0990
 4918W        W 8969   8.442   3.741   0.508  0.1921 -0.2579 -0.4722
 4919W        W 8970   3.319   8.749  11.380  0.2147 -0.1598  0.1583
 4920W        W 8971   9.980   7.394  10.619  0.0827 -0.0046  0.2546
 4921W        W 8972   7.896   2.192   2.182  0.0182  0.3067 -0.2109
 4922W        W 8973   1.702   0.402  12.875 -0.1495  0.0329  0.1021
 4923W        W 8974   0.936   2.909   1.616 -0.2578  0.0919  0.2622
 4924W        W 8975   4.596   8.961  11.096  0.3414  0.0785 -0.2965
 4925W        W 8976   8.709   9.680   4.266  0.0344 -0.2847 -0.0229
 4926W        W 8977   9.456   8.972   4.119 -0.0913  0.1361  0.1006
 4927W        W 8978   0.408   6.210   3.226  0.2653 -0.2604  0.1380
 4928W        W 8979   7.465   0.601   2.142  0.1958  0.0748 -0.0039
 4929W        W 8980   4.731   4.147   2.595  0.2876  0.1076  0.0514
 4930W        W 8981   6.289   3.858  12.670 -0.0667 -0.3965  0.0471
 4931W        W 8982   4.201   3.378   1.567  0.2616 -0.0619 -0.0469
 4932W        W 8983   0.523   3.500   2.872 -0.4686  0.0289 -0.0687
 4933W        W 8984   7.450   8.368  11.167 -0.1050  0.1355 -0.1958
 4934W        W 8985   2.151   6.305   0.403  0.2268 -0.0266 -0.1562
 4935W        W 8986   8.479   5.222  13.492  0.0089  0.3034 -0.3969
 4936W        W 8987   3.079   6.517   3.490  0.1538 -0.1836  0.0738
 4937W        W 8988   9.267   2.888   3.584 -0.0400  0.0572 -0.1931
 4938W        W 8989   5.614   7.726   2.623  0.0368  0.1756  0.1621
 4939W        W 8990   4.606   7.873   3.309 -0.0984 -0.0265  0.0064
 4940W        W 8991   7.645   8.857   1.980 -0.1816 -0.0064 -0.0421
 4941W        W 8992   6.741   2.791   0.489  0.1980  0.1285 -0.3722
 4942W        W 8993   1.623   0.337  12.188  0.3407 -0.0704  0.1403
 4943W        W 8994   4.139   1.906   9.017 -0.0217 -0.2224  0.0215
 4944W        W 8995   5.617   8.497   4.568 -0.0079 -0.3595  0.1150
 4945W        W 8996   5.710   0.536   3.389  0.2799 -0.1208  0.0930
 4946W        W 8997   4.561   3.270  13.632 -0.0606  0.2552  0.2422
 4947W        W 8998   1.321   1.993  13.795  0.0692 -0.0105 -0.3737
 4948W        W 8999   4.985   3.932  11.276  0.1473 -0.2819 -0.1778
 4949W        W 9000   6.889   4.090   2.499  0.1851 -0.1525 -0.1563
 4950W        W 9001   5.391   2.857   1.550  0.4403  0.0801  0.1950
 4951W        W 9002   6.248   5.937  12.853  0.0600 -0.1312  0.0821
 4952W        W 9003   8.398   3.171   4.866 -0.1194  0.0897  0.1806
 4953W        W 9004   8.727   6.151  10.701 -0.2349  0.0692  0.0255
 4954W        W 9005   3.436   1.695  12.317 -0.0687  0.1105  0.1191
 4955W        W 9006   4.698   9.358  12.212  0.3162  0.1312  0.0010
 4956W        W 9007   4.556   3.016  10.416 -0.2178 -0.2469 -0.0935
 4957W        W 9008   5.442   0.722   4.572 -0.1398  0.1690 -0.1302
 4958W        W 9009   6.272   9.156   4.955 -0.0308 -0.2350 -0.1233
 4959W        W 9010   2.637   6.195   9.716  0.2334  0.0085  0.0426
 4960W        W 9011   2.215   6.137   4.964 -0.1151  0.0654  0.0599
 4961W        W 9012   6.656   3.562  13.789  0.3092  0.1755 -0.1332
 4962W        W 9013   8.750   9.775   0.461  0.0526 -0.2227 -0.0803
 4963W        W 9014   4.640   0.559   2.117 -0.0231 -0.0355  0.4120
 4964W        W 9015   3.172   2.389  13.511  0.4331 -0.1465  0.0287
 4965W        W 9016   8.361   2.421  10.765  0.0216  0.0330 -0.1571
 4966W        W 9017   5.892   5.104  11.505  0.1464 -0.2494  0.1442
 4967W        W 9018   4.842   5.060  10.551 -0.0811  0.1495 -0.0182
 4968W        W 9019   1.937   4.236   3.184  0.0639 -0.1912  0.0812
 4969W        W 9020   3.984   9.132   4.229 -0.0609 -0.2418 -0.1174
 4970W        W 9021   7.935   9.124  11.046  0.3071 -0.0748 -0.3369
 4971W        W 9022   1.399   4.098  12.729  0.0003 -0.0389  0.1202
 4972W        W 9023   8.589   0.623  13.846 -0.0253  0.0534  0.1845
 4973W        W 9024   7.241   7.440   1.328  0.1901  0.0383 -0.1343
 4974W        W 9025   5.083   2.456   3.634  0.1899  0.2032  0.1667
 4975W        W 9026   7.462   1.831  12.454  0.0700  0.1167  0.1989
 4976W        W 9027   7.453   8.771  12.814 -0.1120  0.0789  0.0881
 4977W        W 9028   2.577   5.411  10.813 -0.2067 -0.2376 -0.5019
 4978W        W 9029   2.197   7.422  12.019  0.0015 -0.1477 -0.2512
 4979W        W 9030   7.071   3.537   4.515 -0.1698  0.0760 -0.0044
 4980W        W 9031   1.325   2.926   1.946  0.2438  0.0659 -0.3339
 4981W        W 9032   5.053   7.423  11.327 -0.0954 -0.1405  0.0445
 4982W        W 9033   8.806   2.155   1.899 -0.2290 -0.2549 -0.0857
 4983W        W 9034   0.869   2.210   4.673 -0.0600 -0.3745  0.2680
 4984W        W 9035   9.013   6.537  12.268 -0.3520 -0.0284  0.0018
 4985W        W 9036   2.837   1.534  13.583 -0.2161  0.0502  0.0899
 4986W        W 9037   7.631   0.624  10.971  0.0090  0.0857 -0.1126
 4987W        W 9038   3.640   9.183  12.613  0.0158  0.3302 -0.1520
 4988W        W 9039   1.319   5.720  12.978  0.3458  0.2761 -0.1439
 4989W        W 9040   5.212   2.268   4.099 -0.2172 -0.3154 -0.2114
 4990W        W 9041   5.470   1.163   2.099 -0.1348 -0.0229  0.0203
 4991W        W 9042   0.423   7.582  13.724 -0.0076 -0.0467  0.0453
 4992W        W 9043   9.864   4.764   1.617 -0.0366 -0.1688  0.1845
 4993W        W 9044   6.319   7.923  10.406  0.2194  0.0591 -0.0023
 4994W        W 9045   2.991   1.777   2.618  0.1321 -0.0629  0.3060
 4995W        W 9046   5.734   8.918   2.100 -0.0519  0.1944  0.4637
 4996W        W 9047   5.794   7.428   4.786  0.1987  0.2463 -0.1076
 4997W        W 9048   9.761   8.854   0.107  0.0070  0.0738  0.0069
 4998W        W 9049   8.958   1.228  11.138 -0.0191 -0.2027  0.1869
 4999W        W 9050   8.510   9.146   3.840 -0.0559  0.0909 -0.0247
 5000W        W 9051   4.554   5.318  13.466  0.1845  0.1458  0.2834
 5001W        W 9052   0.369   0.355   3.761 -0.1969 -0.0760 -0.0053
 5002W        W 9053   4.400   8.460   4.529  0.1585 -0.1467 -0.2227
 5003W        W 9054   1.667   5.311  13.907  0.1527 -0.0204 -0.2464
 5004W        W 9055   7.764   8.261   1.257  0.4112  0.2068  0.1016
 5005W        W 9056   6.155   1.227  13.422 -0.0305  0.1196  0.3859
 5006W        W 9057   8.829   6.419   0.092  0.1019 -0.1894  0.2314
 5007W        W 9058   8.941   7.731  12.815  0.3282  0.1310  0.2584
 5008W        W 9059   4.158   0.660  11.215  0.2168 -0.1752 -0.1876
 5009W        W 9060   0.300   3.142  10.878 -0.1263 -0.2112  0.0597
 5010W        W 9061   7.123   3.118   1.490  0.1161  0.4411  0.3113
 5011W        W 9062   9.251   0.607  13.154 -0.1829  0.1300 -0.1523
 5012W        W 9063   5.520   5.528  13.851  0.1702  0.0249 -0.1162
 5013W        W 9064   0.571   4.203  10.186 -0.1975  0.0732 -0.2160
 5014W        W 9065   8.359   3.498   2.770  0.0425 -0.2988 -0.0166
 5015W        W 9066   3.281   7.666  12.877 -0.0093  0.0929 -0.1931
 5016W        W 9067   5.808   9.207   3.737 -0.2921 -0.1457 -0.1043
 5017W        W 9068   9.293   9.187  13.877  0.2835 -0.1332  0.0064
 5018W        W 9069   9.499   3.934   4.568  0.1862 -0.0760  0.2863
 5019W        W 9070   8.563   4.962   1.196  0.3650 -0.1267 -0.0222
 5020W        W 9071   2.006   1.510  13.914  0.1028 -0.2956  0.1303
 5021W        W 9072   2.719   8.926   1.867  0.1543  0.1962  0.0252
 5022W        W 9073   9.026   9.728  11.404  0.2502 -0.0518 -0.2573
 5023W        W 9074   2.002   2.883  12.247  0.3033  0.3854  0.0023
 5024W        W 9075   8.091   5.665   2.248  0.0451 -0.0191 -0.2304
 5025W        W 9076   9.800   7.862  13.699  0.1827 -0.1222  0.3006
 5026W        W 9077   0.581   5.591   9.737 -0.0170  0.1929 -0.2256
 5027W        W 9078   0.644   3.957   3.114 -0.0360 -0.3668 -0.1375
 5028W        W 9079   7.867   4.764   4.174 -0.0638 -0.4585  0.0735
 5029W        W 9080   6.061   1.672  11.610 -0.0488  0.2002  0.1339
 5030W        W 9081   1.281   5.900   2.956  0.1627  0.0711 -0.0878
 5031W        W 9082   9.207  10.007   0.429 -0.0170 -0.3661  0.0218
 5032W        W 9083   3.051   8.568  12.765  0.0093  0.1082  0.0181
 5033W        W 9084   0.481   0.431   0.263 -0.4414  0.0283 -0.1490
 5034W        W 9085   6.222   2.808   2.500 -0.1891  0.2739 -0.0136
 5035W        W 9086   7.930   7.116   9.926 -0.2778 -0.1383  0.4226
 5036W        W 9087   7.341   3.303   9.100  0.4858  0.2819  0.1636
 5037W        W 9088   2.740   6.893  12.026  0.0122 -0.0082 -0.0465
 5038W        W 9089   3.464   4.799  11.769  0.0586 -0.3723 -0.1794
 5039W        W 9090   6.447   6.193   2.940  0.0303 -0.1570 -0.0986
 5040W        W 9091   0.580   5.214   1.837 -0.4009 -0.0335  0.3306
 5041W        W 9092   6.778   1.190   4.957 -0.1489  0.0496  0.0516
 5042W        W 9093   6.495   9.625  10.329 -0.2228 -0.1388  0.0294
 5043W        W 9094   4.722   5.623   4.850  0.2081  0.1745  0.1040
 5044W        W 9095   6.042   5.290   3.799 -0.0699  0.5417 -0.2332
 5045W        W 9096   8.210   3.012   1.339  0.0026  0.1213 -0.0288
 5046W        W 9097   5.990   9.616   3.350  0.0281  0.0885 -0.0060
 5047W        W 9098   4.825   8.610   0.132 -0.2709 -0.1006  0.1131
 5048W        W 9099   7.210   3.678   5.017  0.1836 -0.0661 -0.2302
 5049W        W 9100   7.148   8.314   4.411 -0.0474  0.0596  0.2418
 5050W        W 9101   0.779   2.976   9.478 -0.0008 -0.1378 -0.0938
 5051W        W 9102   0.079   2.539   1.824  0.0759  0.1920  0.0598
 5052W        W 9103   4.742   4.867  13.829  0.1521  0.0442 -0.0996
 5053W        W 9104   6.014   0.910   4.343  0.3053 -0.3043 -0.1109
 5054W        W 9105   5.061   3.892   8.683  0.0918 -0.1170 -0.3343
 5055W        W 9106   0.656   1.671   1.157  0.0118  0.1661  0.0759
 5056W        W 9107   1.055   4.208   5.323 -0.0927 -0.2946 -0.0974
 5057W        W 9108   8.643   3.441   4.507 -0.1065 -0.0177  0.0327
 5058W        W 9109   7.847   7.107  11.217 -0.2894  0.1129 -0.1528
 5059W        W 9110   1.525   1.268   3.764  0.0798 -0.0327  0.1406
 5060W        W 9111   8.732   6.136   2.161 -0.0239  0.1956 -0.3114
 5061W        W 9112   8.682   7.343  12.397 -0.0022 -0.0042 -0.3019
 5062W        W 9113   5.363   5.223  10.621  0.2091 -0.0400  0.2988
 5063W        W 9114   9.623   6.458  12.429 -0.2374 -0.1624  0.0433
 5064W        W 9115   1.491   1.077   0.201 -0.0541 -0.5023 -0.0369
 5065W        W 9116   2.923   9.946   1.881  0.1230 -0.2643 -0.0468
 5066W        W 9117   7.526   2.403   2.468 -0.0606 -0.3782 -0.0750
 5067W        W 9118   8.978   7.450   2.475  0.1469 -0.1080  0.1563
 5068W        W 9119   6.529   8.922   9.005 -0.0126  0.2002  0.2574
 5069W        W 9120   1.290   4.713   2.439 -0.2764  0.3420  0.1104
 5070W        W 9121   1.298   7.194  11.167 -0.4472 -0.0383  0.0719
 5071W        W 9122   1.297   2.940   0.227 -0.0987  0.1372 -0.2854
 5072W        W 9123   8.363   7.887   0.159  0.0159 -0.0563 -0.0006
 5073W        W 9124   7.297   5.870   4.306 -0.1286  0.0070 -0.1131
 5074W        W 9125   6.044   0.699  11.024 -0.0906 -0.1294 -0.4390
 5075W        W 9126   1.387   7.443   3.419  0.1024 -0.1810  0.0100
 5076W        W 9127   0.904   8.031   1.724 -0.1602 -0.0785  0.3407
 5077W        W 9128   3.972   1.568  11.690  0.1234  0.0315 -0.2025
 5078W        W 9129   6.603   1.857   1.421  0.0909  0.1422  0.0481
 5079W        W 9130   5.910   3.341  10.343 -0.2400  0.4093 -0.0739
 5080W        W 9131   5.064   6.943   2.241  0.0166  0.0589  0.1413
 5081W        W 9132   4.734   6.128  12.036  0.0160 -0.1657  0.2605
 5082W        W 9133   8.892   3.934   0.183 -0.1602 -0.1954 -0.2483
 5083W        W 9134   3.037   0.467  12.037  0.2563  0.1736 -0.0674
 5084W        W 9135   5.838   7.861   4.016 -0.1301 -0.1548 -0.1167
 5085W        W 9136   7.355   9.215  12.975  0.0160  0.1867 -0.1131
 5086W        W 9137   3.679  10.014   9.871  0.2237 -0.1128  0.0332
 5087W        W 9138   9.520   0.957  10.175 -0.1178 -0.1265 -0.2413
 5088W        W 9139   9.673   8.867  10.217 -0.0814  0.2809 -0.0110
 5089W        W 9140  10.105   2.630  12.533  0.2367  0.0370  0.0039
 5090W        W 9141   6.781   1.533   4.575 -0.0583 -0.0812  0.2319
 5091W        W 9142   2.349   7.789  13.720 -0.0309 -0.1905  0.1102
 5092W        W 9143   9.676  10.182  10.816  0.1784  0.1705  0.0748
 5093W        W 9144   2.047   0.523  12.483 -0.0131  0.0457 -0.1574
 5094W        W 9145   7.894   3.713   2.881  0.1308  0.2861  0.5871
 5095W        W 9146   0.486   1.064  12.956  0.0371  0.1699 -0.1062
 5096W        W 9147   8.014   1.319  11.568  0.2908  0.1084  0.1305
 5097W        W 9148   3.353   5.647   1.729  0.1316 -0.1548 -0.1145
 5098W        W 9149   5.700   1.550   0.233  0.2176  0.0784  0.1259
 5099W        W 9150   1.896   3.464  13.416  0.0795 -0.1870 -0.1385
 5100W        W 9151   3.699   5.702  12.416 -0.2230 -0.0052  0.1916
 5101W        W 9152  10.169   8.548   0.006 -0.3664 -0.0141  0.0383
 5102W        W 9153   0.402   4.894   4.532  0.0384  0.0052 -0.0090
 5103W        W 9154   3.550   6.813  10.068  0.1811 -0.4483 -0.0443
 5104W        W 9155   8.545   0.508   0.402 -0.1183  0.0303 -0.2792
 5105W        W 9156   2.523   2.628  11.274 -0.4960 -0.2351 -0.2573
 5106W        W 9157  10.142   6.925  10.719  0.4646  0.3822 -0.4167
 5107W        W 9158   4.295   0.350  12.076 -0.0703 -0.2301 -0.0338
 5108W        W 9159   2.748   9.831   4.389 -0.1223 -0.1363  0.2928
 5109W        W 9160   4.448   1.782   3.155 -0.0010  0.0779 -0.1847
 5110W        W 9161  10.029   8.156  10.645 -0.0372  0.0334  0.0092
 5111W        W 9162   0.844   4.779   2.663  0.0440  0.1812 -0.3622
 5112W        W 9163  10.086   4.967  12.156 -0.1388  0.1042 -0.3267
 5113W        W 9164   5.181   8.219  10.684  0.0966 -0.0333 -0.1201
 5114W        W 9165   2.710   1.863   2.157  0.2738 -0.3761 -0.0059
 5115W        W 9166   2.350   9.148   3.244  0.3848  0.2288  0.3155
 5116W        W 9167   4.048   4.648  13.352  0.0614  0.1197 -0.2726
 5117W        W 9168   8.000   5.045  10.487 -0.1964 -0.0288  0.2710
 5118W        W 9169   1.217   4.389  10.924  0.0583 -0.1375 -0.0210
 5119W        W 9170   3.777   7.506  11.202  0.0539 -0.0585 -0.2057
 5120W        W 9171   2.100   6.305   1.990 -0.2286  0.1965  0.1315
 5121W        W 9172   8.976   8.862   4.572 -0.1029  0.0051 -0.1076
 5122W        W 9173   6.925   2.130  12.415 -0.0430 -0.2406 -0.0626
 5123W        W 9174   9.353   2.289  11.090  0.3030 -0.1973  0.1162
 5124W        W 9175   7.733   5.254   4.347 -0.1734  0.1861 -0.1470
 5125W        W 9176   7.034   9.960  11.886  0.1965 -0.2019 -0.2183
 5126W        W 9177   1.781   6.556   3.056  0.0152  0.3021  0.1087
 5127W        W 9178   5.417   8.122  12.121  0.0296  0.1974 -0.1343
 5128W        W 9179   5.485   4.310  10.532  0.0054 -0.1159  0.2578
 5129W        W 9180   2.375   3.121  10.477  0.0800 -0.1552  0.0872
 5130W        W 9181   4.951   8.803   2.342 -0.1606  0.3045 -0.0289
 5131W        W 9182   2.541   6.867   2.968  0.0425  0.0898  0.0963
 5132W        W 9183   9.000   2.094   2.726  0.2606 -0.0792  0.0822
 5133W        W 9184   1.054   9.449  10.507  0.2570 -0.1702 -0.0456
 5134W        W 9185   1.782   8.623  13.239 -0.0074 -0.3101 -0.1428
 5135W        W 9186   0.796   6.053   3.477 -0.2648 -0.2058  0.0720
 5136W        W 9187   5.971   6.952  12.741 -0.0419  0.2317  0.2650
 5137W        W 9188   2.154   2.659  11.852 -0.0882 -0.1437 -0.2258
 5138W        W 9189   7.422   3.022  13.058 -0.3020 -0.0750  0.0658
 5139W        W 9190   2.871   5.043   2.801 -0.1432 -0.0243 -0.1704
 5140W        W 9191   5.787   1.192  10.593 -0.0002 -0.0576 -0.1986
 5141W        W 9192   2.133   6.367  13.822  0.2030  0.3730  0.0437
 5142W        W 9193   0.566   6.253   2.099 -0.0984 -0.2197  0.1594
 5143W        W 9194   3.492   0.850   0.302  0.2661 -0.1391  0.0796
 5144W        W 9195   2.664   2.819  10.241 -0.1072  0.1270 -0.1313
 5145W        W 9196   2.332   3.629  13.650  0.3250  0.6019 -0.3204
 5146W        W 9197   9.275   9.870   2.171 -0.1438 -0.0073 -0.0965
 5147W        W 9198   1.314   0.582   3.002  0.3051  0.2512 -0.0581
 5148W        W 9199   0.623   2.154   3.787 -0.2867 -0.1862 -0.1223
 5149W        W 9200   3.121   6.836   3.027 -0.2858 -0.2426 -0.3446
 5150W        W 9201   0.875   1.556   2.203 -0.1403 -0.3611  0.1904
 5151W        W 9202   3.573   0.549   1.232 -0.1304  0.0413 -0.0096
 5152W        W 9203   9.772   4.302   1.787  0.2966  0.0912 -0.4387
 5153W        W 9204   1.118   2.786   9.838 -0.1423 -0.0349  0.0755
 5154W        W 9205  10.082   2.299   9.785  0.3994 -0.2376 -0.1120
 5155W        W 9206   1.352   2.062  12.304 -0.0917 -0.1296 -0.0587
 5156W        W 9207   9.228   1.297   3.018  0.0491 -0.1570 -0.0741
 5157W        W 9208   4.104   6.586   1.031  0.0296 -0.2057 -0.1644
 5158W        W 9209   6.933   9.233   3.436 -0.2145 -0.2620 -0.0168
 5159W        W 9210   8.631   8.620  13.413  0.0150  0.1141  0.0999
 5160W        W 9211   2.149   0.400   0.327 -0.0060 -0.1067 -0.2368
 5161W        W 9212   5.134   6.366   5.331  0.0590 -0.3097  0.0642
 5162W        W 9213   4.114   0.685   4.457  0.1302  0.0769 -0.1538
 5163W        W 9214  10.163   9.691   0.226  0.1354  0.0215  0.1920
 5164W        W 9215   6.041   0.205   0.064  0.2789  0.0038 -0.0145
 5165W        W 9216   0.996   7.644  13.721 -0.0008 -0.0870 -0.1468
 5166W        W 9217   1.812   1.550  11.537 -0.0154 -0.0298  0.1459
 5167W        W 9218   2.494   1.783  13.867 -0.2928  0.1241 -0.0733
 5168W        W 9219   9.120   4.853   3.416  0.0287  0.0281 -0.1089
 5169W        W 9220   9.932   3.717  12.001  0.1213 -0.1763  0.0064
 5170W        W 9221   9.090   4.749   1.274  0.1923  0.2131  0.1201
 5171W        W 9222   6.218   7.430  10.534 -0.1259  0.0499 -0.0586
 5172W        W 9223   4.250   6.618   4.949  0.1908  0.1170  0.3572
 5173W        W 9224   9.322   0.523   3.742 -0.0042  0.0165  0.1838
 5174W        W 9225   3.279   0.375   0.115 -0.1324  0.0050  0.1237
 5175W        W 9226   7.395   3.368   1.856 -0.1275  0.3652 -0.5785
 5176W        W 9227   0.182   3.982   3.822 -0.0414 -0.0739  0.0372
 5177W        W 9228   9.345   8.623   0.440  0.4250 -0.0094 -0.2319
 5178W        W 9229   9.772   2.539  10.123 -0.0299 -0.0223  0.0343
 5179W        W 9230   8.780   8.588   1.240  0.2388  0.1871 -0.0010
 5180W        W 9231   9.619   4.733   9.580  0.2192  0.0636 -0.1565
 5181W        W 9232   7.850   2.250   3.360 -0.0236  0.0506 -0.0809
 5182W        W 9233   3.175   9.718  13.752  0.1517 -0.2321 -0.4488
 5183W        W 9234   8.084   5.865   4.273 -0.0141 -0.3559 -0.1087
 5184W        W 9235   5.407   1.957  10.128  0.0317  0.0428 -0.2785
 5185W        W 9236   6.462  10.155   1.206 -0.0871 -0.0583  0.0756
 5186W        W 9237   9.921   8.483   3.761 -0.0178 -0.3926  0.0473
 5187W        W 9238   1.779   0.127   0.067  0.1970 -0.0897 -0.1177
 5188W        W 9239   3.842   9.475   0.794  0.0938 -0.0323  0.2822
 5189W        W 9240   4.934   6.629  10.170 -0.0986 -0.0233 -0.0371
 5190W        W 9241   2.821   7.568   0.900  0.2480 -0.1505  0.2183
 5191W        W 9242   7.754   0.111   0.960  0.2089 -0.2811  0.0994
 5192W        W 9243   8.983   0.792   4.080 -0.1107  0.0891  0.0202
 5193W        W 9244   1.790   0.759   4.782  0.0959  0.0624 -0.1275
 5194W        W 9245   0.936   1.916  13.492 -0.1383 -0.0537 -0.0683
 5195W        W 9246   7.886   5.524  10.257  0.2930 -0.0254 -0.2488
 5196W        W 9247   4.792   9.752   3.899  0.0223  0.1100  0.1931
 5197W        W 9248   3.500   8.994  10.874 -0.0205  0.1248 -0.0495
 5198W        W 9249   2.279   3.913  13.089  0.0126 -0.2189  0.1224
 5199W        W 9250   7.687   6.090  13.872  0.1279  0.1196 -0.0324
 5200W        W 9251   1.474   7.634  11.581  0.3391  0.0287  0.1563
 5201W        W 9252   5.998   5.022  13.505 -0.1696  0.0752 -0.1291
 5202W        W 9253   3.378   1.503   5.108  0.0274  0.1260 -0.2007
 5203W        W 9254   3.314   1.322   4.501  0.2044 -0.0213 -0.1633
 5204W        W 9255   2.598   3.197   3.522 -0.0051 -0.3525  0.0459
 5205W        W 9256   4.796   5.289   5.255  0.0469  0.1306 -0.3719
 5206W        W 9257   2.299   5.755   0.969 -0.0749  0.0409 -0.0881
 5207W        W 9258   4.632   0.630   9.698 -0.2716 -0.3373  0.0798
 5208W        W 9259   5.705   8.513  11.921 -0.1160  0.0860  0.2850
 5209W        W 9260   5.860   5.929   5.061 -0.1700  0.1845  0.3665
 5210W        W 9261   4.149   8.254   0.181  0.2026  0.1724 -0.2158
 5211W        W 9262   2.641   5.833   8.866 -0.0186 -0.0245 -0.1737
 5212W        W 9263   8.057   5.355  11.348 -0.0537  0.0830  0.1365
 5213W        W 9264   6.708   5.895   3.627 -0.3312  0.2224  0.0944
 5214W        W 9265  10.120   6.246  11.511 -0.0950 -0.3370  0.1019
 5215W        W 9266   9.677   4.462   2.769 -0.0746  0.0904 -0.0784
 5216W        W 9267   6.785   0.489   4.403  0.1869  0.0781  0.0146
 5217W        W 9268   6.505   1.616   4.965 -0.0420 -0.0519 -0.1457
 5218W        W 9269   3.065   9.565  10.274  0.0945 -0.0099 -0.2072
 5219W        W 9270   5.707   6.710  10.883  0.0637 -0.1371 -0.0165
 5220W        W 9271   3.065   0.536   2.863 -0.2221 -0.0376 -0.2240
 5221W        W 9272   1.203   2.542  12.370  0.2161 -0.0911 -0.4616
 5222W        W 9273   9.217   3.248  13.526 -0.3329 -0.4590 -0.0923
 5223W        W 9274   5.233   7.723  10.955 -0.4098  0.1152 -0.0922
 5224W        W 9275   6.221   5.343   0.632  0.2896 -0.2370 -0.0780
 5225W        W 9276   7.601   1.269   9.360  0.1610 -0.4302 -0.0739
 5226W        W 9277   1.494   9.118   0.527 -0.1092  0.0861  0.0303
 5227W        W 9278   6.362   0.036   1.648  0.2346  0.0244  0.0484
 5228W        W 9279   5.258   9.887   0.013 -0.1977 -0.1242 -0.0823
 5229W        W 9280   0.052   1.860   4.370  0.0911 -0.0024  0.0942
 5230W        W 9281   5.317   9.396  12.676  0.3350 -0.1782 -0.3385
 5231W        W 9282   4.004   7.011   0.291  0.1501 -0.0248  0.1109
 5232W        W 9283   6.124   9.723   2.140 -0.2455  0.1558 -0.2544
 5233W        W 9284   5.593   2.476   3.816  0.1633 -0.3200 -0.0085
 5234W        W 9285   6.489   8.124  11.359  0.0620  0.0123 -0.0028
 5235W        W 9286   9.170   6.058   1.938 -0.0002  0.0004 -0.0724
 5236W        W 9287   8.727   5.576  10.724  0.1453 -0.3194 -0.3004
 5237W        W 9288   6.836   4.710   0.220  0.0204 -0.1225 -0.0665
 5238W        W 9289   1.563   3.066   9.047  0.2987 -0.1312  0.2229
 5239W        W 9290   6.496   2.900  11.171  0.2570 -0.0325  0.0039
 5240W        W 9291   6.562   1.398  10.938 -0.1282 -0.3028 -0.1461
 5241W        W 9292   2.780   0.876  11.344 -0.0498 -0.2669 -0.0477
 5242W        W 9293   2.873   7.023   4.316 -0.2027 -0.2316  0.0642
 5243W        W 9294   5.084   9.597  10.276  0.0872 -0.3991  0.3278
 5244W        W 9295   7.657   5.750   4.030  0.2907  0.2653 -0.2092
 5245W        W 9296   0.425   3.342  13.279  0.1765  0.1757 -0.1038
 5246W        W 9297   5.012   5.702   9.954 -0.0039  0.2185  0.0548
 5247W        W 9298   6.527   3.365  12.648  0.1310 -0.0532 -0.0232
 5248W        W 9299   5.387   8.130   3.209 -0.2643  0.1387 -0.0165
 5249W        W 9300   4.656   7.971   1.345 -0.3595  0.1027  0.1728
 5250W        W 9301  10.166   7.605   3.830 -0.1713  0.2902 -0.0661
 5251W        W 9302   5.744   2.463   4.993 -0.3829 -0.2317  0.0342
 5252W        W 9303   1.776   2.271   9.557  0.2736  0.0051  0.0490
 5253W        W 9304   9.235   0.788   2.964 -0.0970 -0.0027 -0.0494
 5254W        W 9305   7.566   1.037   2.442  0.0689  0.3358  0.1405
 5255W        W 9306   8.175   4.103   2.993  0.0268 -0.1196 -0.0915
 5256W        W 9307   4.205   4.069   9.234 -0.0873  0.2688 -0.1300
 5257W        W 9308  10.054   5.023  10.030  0.0933  0.0511  0.0570
 5258W        W 9309   3.494   3.507   0.477 -0.3279  0.2414 -0.1367
 5259W        W 9310   5.129   2.116  12.115 -0.2930  0.1163  0.0285
 5260W        W 9311   0.919   8.174   3.057 -0.1790  0.0188  0.1647
 5261W        W 9312   3.940   4.188  13.530  0.4771  0.3271 -0.1295
 5262W        W 9313   4.966   6.966   4.426 -0.1379 -0.0841 -0.2473
 5263W        W 9314   6.171   2.081  10.692  0.3340 -0.0036  0.1715
 5264W        W 9315   6.862   5.580  12.730  0.1842 -0.0084  0.4148
 5265W        W 9316   7.718   5.698   2.753  0.0846  0.0232  0.3761
 5266W        W 9317   1.317   7.779   1.806 -0.0380  0.1982 -0.1828
 5267W        W 9318   1.748   8.881   2.186  0.0426  0.1442  0.2514
 5268W        W 9319   0.548   6.954  11.646 -0.0885  0.1834  0.0639
 5269W        W 9320   3.375   6.544   9.346 -0.3333 -0.0028  0.3991
 5270W        W 9321   3.530   4.520   3.399  0.0923 -0.1969 -0.1912
 5271W        W 9322   4.030   4.528   1.282 -0.0633 -0.0054 -0.0558
 5272W        W 9323   6.561   2.820   4.420 -0.0718  0.2275  0.0866
 5273W        W 9324   3.298   0.985   9.480 -0.0260  0.1417  0.0331
 5274W        W 9325   6.253   3.815  11.267 -0.1690  0.4454  0.0573
 5275W        W 9326   2.594   1.607   1.300 -0.1836 -0.2852  0.4043
 5276W        W 9327   4.323   9.852  13.009  0.0224  0.3442  0.0131
 5277W        W 9328   6.958   1.076  10.538  0.3643  0.0507 -0.0808
 5278W        W 9329   1.075   8.452  12.533 -0.3638 -0.1387  0.3984
 5279W        W 9330   3.779   8.385  13.326  0.4241  0.1748 -0.2283
 5280W        W 9331   9.317   4.709   1.923  0.3235 -0.0242  0.2189
 5281W        W 9332   0.544   0.285   9.676  0.0272 -0.1830 -0.1303
 5282W        W 9333   0.171   2.283   0.924  0.0922  0.4147  0.2897
 5283W        W 9334   0.841   3.657  11.581 -0.2034  0.0178  0.1711
 5284W        W 9335   9.846   2.678   1.179 -0.2111  0.1042  0.1599
 5285W        W 9336   5.988   5.791  10.468  0.3391  0.1143  0.0495
 5286W        W 9337   2.900   6.146  12.401 -0.0560 -0.1348 -0.0307
 5287W        W 9338   1.646   9.075  13.459 -0.2999  0.1143  0.3293
 5288W        W 9339   9.289   9.244  11.632  0.0478  0.0847  0.0294
 5289W        W 9340   7.670   1.051  12.325  0.0511  0.1876  0.2038
 5290W        W 9341   5.105   5.183   0.010 -0.1804 -0.0774 -0.0009
 5291W        W 9342   0.183  10.139  13.299  0.0270 -0.2385  0.1766
 5292W        W 9343   6.066   2.812   1.040 -0.0666 -0.1067 -0.1802
 5293W        W 9344   5.841   0.930   1.878 -0.0271 -0.0540 -0.0028
 5294W        W 9345   4.262   5.526   2.687 -0.2179 -0.0572 -0.4920
 5295W        W 9346   0.320   6.020   0.685  0.2698  0.1690 -0.0488
 5296W        W 9347  10.107   4.802   0.970  0.3724  0.1548 -0.0143
 5297W        W 9348   1.798   3.131  10.513 -0.2322 -0.1784 -0.0255
 5298W        W 9349   0.098   1.609   2.954  0.0213 -0.0259 -0.0780
 5299W        W 9350   5.153   9.987  10.054  0.0337 -0.1031 -0.1345
 5300W        W 9351   7.990   0.438  10.660  0.0013 -0.3717  0.0486
 5301W        W 9352   9.516   0.900  13.429  0.2992 -0.2011 -0.1270
 5302W        W 9353   8.671   6.082  11.587  0.0485 -0.1685 -0.0157
 5303W        W 9354   4.745   9.716   1.754  0.3243 -0.0712 -0.1476
 5304W        W 9355   6.187   8.335  11.656  0.0900  0.0794 -0.3310
 5305W        W 9356   1.072   1.998  10.755 -0.1216  0.1517  0.0724
 5306W        W 9357   7.669   4.281   3.846 -0.3681 -0.0457 -0.1011
 5307W        W 9358   3.716   1.944   9.735 -0.0118 -0.5127 -0.1125
 5308W        W 9359   6.557   0.407   3.853  0.0551 -0.0721 -0.0074
 5309W        W 9360  10.145   3.857  13.933 -0.0108  0.0021  0.0733
 5310W        W 9361   5.312   7.123   0.253  0.1733  0.1849  0.0720
 5311W        W 9362   2.067   3.413   0.128  0.0167 -0.1264  0.0979
 5312W        W 9363   1.726   2.017  11.327  0.1181 -0.1921 -0.2180
 5313W        W 9364   7.573   2.647   9.899 -0.0808  0.2082 -0.0921
 5314W        W 9365   0.039   9.122  11.916 -0.0809  0.1562 -0.4762
 5315W        W 9366   4.218   8.672  13.022  0.1981  0.0505  0.1948
 5316W        W 9367   4.715   3.573   1.561 -0.2680  0.2169  0.2065
 5317W        W 9368   7.660   6.513   9.377 -0.0123  0.3137  0.0009
 5318W        W 9369   0.921   5.819  13.811  0.2342  0.2529  0.1939
 5319W        W 9370   5.356   4.335   9.569 -0.2875 -0.1827  0.0722
 5320W        W 9371   2.978   6.048  13.589  0.0927 -0.1027  0.0264
 5321W        W 9372   4.519   0.626  11.626  0.2247 -0.2003  0.1439
 5322W        W 9373   8.365   4.566   2.086 -0.2916 -0.1455 -0.0405
 5323W        W 9374   2.164   9.518  12.279  0.3995  0.0463  0.1215
 5324W        W 9375   6.279   1.344   1.848  0.3213  0.3620 -0.3151
 5325W        W 9376   8.917   0.892   1.171 -0.0507 -0.0882 -0.0554
 5326W        W 9377   2.022   5.037   1.486 -0.1973 -0.0610 -0.1084
 5327W        W 9378   3.524   1.961   5.207  0.0663  0.2448  0.0486
 5328W        W 9379   6.919   2.070   9.501  0.1624  0.2472  0.4019
 5329W        W 9380   9.687   5.403   1.716 -0.0359 -0.0988  0.4482
 5330W        W 9381   5.899   1.523  13.695  0.0912  0.1098 -0.0526
 5331W        W 9382   8.327   1.452  10.625  0.1779 -0.2474  0.0216
 5332W        W 9383   5.348   9.406   0.643 -0.1305 -0.3489  0.0507
 5333W        W 9384   4.287   1.503  13.481 -0.0613 -0.1009  0.0777
 5334W        W 9385   8.415   2.227   0.485  0.1457  0.2344  0.4076
 5335W        W 9386   6.147   4.919  10.506  0.0470 -0.1865 -0.0544
 5336W        W 9387   4.648   7.598   1.719  0.3254  0.1875  0.1383
 5337W        W 9388   5.925   5.009   1.942 -0.0683  0.0699  0.1456
 5338W        W 9389   6.417   4.542   3.656 -0.1968  0.2614  0.0222
 5339W        W 9390   8.100   6.071  11.638 -0.0345  0.1667  0.0946
 5340W        W 9391   4.379   7.820  11.227  0.1614  0.0427  0.2028
 5341W        W 9392   3.526   8.935   3.472  0.1298 -0.0251  0.2964
 5342W        W 9393   6.359   1.153  12.927 -0.0975 -0.2390  0.1437
 5343W        W 9394   5.810   1.805   2.467 -0.2246  0.1780  0.2178
 5344W        W 9395   5.307   3.193   2.728  0.1709  0.4947  0.0062
 5345W        W 9396   0.404   0.086   1.566 -0.2692  0.0654  0.2153
 5346W        W 9397   7.011   0.181   3.022  0.0384 -0.0208  0.2215
 5347W        W 9398   8.212   1.708  12.314 -0.4165 -0.1465 -0.0763
 5348W        W 9399   8.009   5.777   3.167  0.0603  0.1943  0.0671
 5349W        W 9400   0.750   0.240   1.937  0.2748 -0.1370 -0.1269
 5350W        W 9401   1.532   0.878   3.332  0.0156  0.2433  0.1531
 5351W        W 9402   4.689   5.855   0.387 -0.2352  0.0595  0.0461
 5352W        W 9403   2.955   9.593   8.977  0.1098 -0.0382  0.1558
 5353W        W 9404   3.626   2.349   0.094  0.1540  0.0258  0.1401
 5354W        W 9405   7.967   0.699   2.131  0.3702  0.0951  0.1023
 5355W        W 9406   6.736   9.716   0.285  0.2219  0.0096  0.1650
 5356W        W 9407   7.504   3.859  11.942  0.0605 -0.1531  0.0073
 5357W        W 9408   9.266   8.466  10.631  0.1869 -0.0677  0.1659
 5358W        W 9409   1.639   3.101   3.852 -0.0805 -0.1837 -0.0560
 5359W        W 9410   4.040   4.652   3.377 -0.3345  0.1828  0.2122
 5360W        W 9411   9.078   3.324  11.145  0.1765 -0.1336  0.4619
 5361W        W 9412   0.449   0.625  13.217 -0.0830 -0.0598 -0.2235
 5362W        W 9413   2.949   9.017   0.207  0.0068  0.2754 -0.1901
 5363W        W 9414   2.116   0.102  12.886  0.2026  0.1193 -0.1635
 5364W        W 9415   0.794   6.737   0.673 -0.2789 -0.1872  0.1038
 5365W        W 9416   1.315   1.878  10.220  0.3684  0.0181 -0.0124
 5366W        W 9417   0.994   2.450   0.762  0.0944  0.2413  0.2221
 5367W        W 9418   6.453   4.823  13.808 -0.1037 -0.1257 -0.2339
 5368W        W 9419   3.882   1.842  10.280 -0.2144 -0.1412  0.0116
 5369W        W 9420   5.965   5.011   9.161 -0.1954  0.0153 -0.0745
 5370W        W 9421   1.345   0.665  10.606 -0.3073 -0.3543 -0.0842
 5371W        W 9422   3.530   2.558   2.380 -0.3100 -0.1176 -0.0726
 5372W        W 9423   2.292   6.438  13.015  0.5587 -0.1448  0.1934
 5373W        W 9424   5.523   2.478   1.890  0.2467  0.0496 -0.0549
 5374W        W 9425   4.798   1.679  12.161 -0.2712  0.0530 -0.1031
 5375W        W 9426   3.050   2.571  10.519 -0.3226  0.1003 -0.0096
 5376W        W 9427   0.523   9.406  13.805 -0.1258 -0.1590  0.3363
 5377W        W 9428   2.148   9.610  11.744  0.2258 -0.0410 -0.2156
 5378W        W 9429   4.391   9.258  10.767 -0.0588  0.3474  0.0825
 5379W        W 9430   9.548   5.054  13.702 -0.0107  0.0299  0.0592
 5380W        W 9431   1.085   0.326  10.099 -0.0361  0.0211 -0.2141
 5381W        W 9432   4.236   9.534  12.004  0.3486 -0.3096 -0.0632
 5382W        W 9433   2.431   5.056   2.457 -0.2071 -0.0603 -0.2539
 5383W        W 9434   1.407   2.124   0.540  0.2037 -0.1032  0.0551
 5384W        W 9435   6.423   7.017   5.205  0.0214 -0.0141  0.2573
 5385W        W 9436   8.798   6.881  13.848 -0.0140  0.2378  0.0126
 5386W        W 9437   5.063   7.393   3.960 -0.1784  0.0696  0.2247
 5387W        W 9438   3.214   1.508   1.528 -0.1696 -0.0154  0.0557
 5388W        W 9439   7.135   0.089   0.357 -0.1942 -0.0205 -0.1183
 5389W        W 9440   1.589   5.120  10.437 -0.3945 -0.0309  0.4731
 5390W        W 9441   3.234   6.485  12.735 -0.4401 -0.0333 -0.0830
 5391W        W 9442   5.950   7.462   3.801 -0.0739 -0.3916 -0.1304
 5392W        W 9443   6.639   6.657  13.522 -0.0649  0.0108  0.1666
 5393W        W 9444   8.454   6.267   0.473 -0.2221 -0.0601  0.2404
 5394W        W 9445   5.035   9.631  11.864 -0.0044 -0.1205  0.2016
 5395W        W 9446   8.454   3.587  12.224 -0.2307  0.0461  0.1724
 5396W        W 9447   0.458   7.224   3.971 -0.0188 -0.2341 -0.0400
 5397W        W 9448   8.536   8.439   0.786  0.2813  0.1497 -0.0532
 5398W        W 9449   9.218   6.087  13.732 -0.1598 -0.1487 -0.2205
 5399W        W 9450   3.460   5.553  12.999 -0.0038  0.0121  0.3238
 5400W        W 9451   4.449   4.490  11.685  0.2388 -0.4522 -0.2665
 5401W        W 9452   7.216   8.227  13.077 -0.1264 -0.2685 -0.3539
 5402W        W 9453   7.155   5.062  12.257  0.2137  0.2456  0.3423
 5403W        W 9454   9.429   2.681   4.051  0.0069 -0.1064  0.0574
 5404W        W 9455   3.784   4.794  12.376  0.1866  0.0151  0.1893
 5405W        W 9456   3.558   4.046  13.174 -0.2211 -0.1065  0.0131
 5406W        W 9457   3.465   2.102   3.515  0.0411 -0.3067 -0.0519
 5407W        W 9458   6.464   4.521   4.179 -0.5109 -0.3491 -0.0008
 5408W        W 9459   4.282   6.181   3.376  0.1236 -0.0493  0.0195
 5409W        W 9460   1.065   8.682   0.163  0.1508 -0.2115 -0.3982
 5410W        W 9461   3.242   6.905   9.698  0.1239 -0.0674 -0.1110
 5411W        W 9462   5.253   3.466   9.634  0.2132 -0.0119  0.2811
 5412W        W 9463   3.877   8.761   2.340  0.2686  0.1525 -0.2343
 5413W        W 9464   5.431   0.704   2.816  0.2013  0.0383 -0.0968
 5414W        W 9465   3.285   1.031  12.808 -0.1470  0.3599  0.1057
 5415W        W 9466   3.812   0.619   3.040 -0.0355  0.2238 -0.3857
 5416W        W 9467   5.819   2.430   0.860 -0.0541  0.2162 -0.1586
 5417W        W 9468   5.487   1.780  13.725 -0.2373  0.1064 -0.1970
 5418W        W 9469   4.051   3.638  11.645 -0.2004 -0.1250  0.0573
 5419W        W 9470   5.227  10.088   1.981 -0.1032  0.1379 -0.1571
 5420W        W 9471   6.470   8.687   2.437  0.2002  0.2382  0.1998
 5421W        W 9472  10.038   2.269   4.987 -0.1656  0.3229 -0.4647
 5422W        W 9473   3.432   3.829   0.141  0.0224  0.0805  0.0079
 5423W        W 9474   1.616   8.789  10.376 -0.1926  0.0846 -0.0842
 5424W        W 9475   0.139   3.271  10.074  0.3532 -0.0680 -0.1359
 5425W        W 9476   4.246   5.690   4.557 -0.0688 -0.3903  0.0057
 5426W        W 9477   6.519   4.221   9.525  0.4175  0.0536 -0.2470
 5427W        W 9478   3.703   5.000  13.070 -0.1877 -0.1513 -0.0114
 5428W        W 9479   3.402   9.161   1.879  0.4004  0.0332 -0.1460
 5429W        W 9480   0.289   8.290   0.394  0.1715  0.1528  0.3691
 5430W        W 9481   3.817   0.508   3.660  0.0407  0.0310 -0.2720
 5431W        W 9482   7.331   3.439   0.441  0.2066 -0.5902 -0.2499
 5432W        W 9483   2.398   0.912  12.523  0.0820 -0.2018 -0.0050
 5433W        W 9484   4.715   2.366   3.970  0.3925  0.1329  0.3308
 5434W        W 9485  10.123   2.788   0.761 -0.2095 -0.0106 -0.1433
 5435W        W 9486   2.175   0.627   4.541 -0.0510  0.2080 -0.0051
 5436W        W 9487   3.396  10.095   3.341  0.1113 -0.3799  0.0995
 5437W        W 9488   0.430   8.595  11.225  0.0918 -0.1022 -0.4518
 5438W        W 9489   7.944   3.919   4.459 -0.2006  0.0101 -0.1775
 5439W        W 9490   4.235   7.893  12.374  0.1118 -0.0824 -0.3530
 5440W        W 9491   7.788   9.556  12.970 -0.0315 -0.1605  0.2332
 5441W        W 9492   2.044   6.077   9.633  0.0149 -0.1283 -0.1988
 5442W        W 9493   9.739   4.077   4.955  0.0299 -0.1285 -0.1932
 5443W        W 9494   4.143   9.358   9.890  0.1437 -0.3201 -0.1238
 5444W        W 9495   5.035   2.934  11.897  0.2332  0.0939 -0.0224
 5445W        W 9496   7.544   5.661   3.195  0.0480  0.2058 -0.1553
 5446W        W 9497   9.889   1.221  13.345 -0.0480 -0.0776 -0.1506
 5447W        W 9498   3.885   9.270   2.164  0.2417 -0.3580 -0.3078
 5448W        W 9499   7.175   9.249   5.196 -0.1310 -0.3621 -0.1181
 5449W        W 9500   5.326   5.919  13.352 -0.3795  0.1360  0.2530
 5450W        W 9501   8.368  10.086   2.980 -0.1532  0.3781 -0.0489
 5451W        W 9502  10.143   4.516   1.985 -0.0327 -0.0574  0.1140
 5452W        W 9503   1.003   9.613   0.003 -0.1540  0.2883 -0.2806
 5453W        W 9504   5.114   6.193   4.840 -0.1539  0.1782  0.2063
 5454W        W 9505   3.061   1.770   3.564 -0.0347 -0.3149  0.1468
 5455W        W 9506   6.879   0.536   0.682  0.0000  0.1421  0.1003
 5456W        W 9507   8.145   3.347   0.632  0.0742 -0.1573  0.0857
 5457W        W 9508   5.034   3.731  11.816  0.2290  0.3483  0.1396
 5458W        W 9509   0.993   9.702   3.979 -0.0156 -0.1344 -0.2391
 5459W        W 9510   3.445   4.328   0.835  0.0262  0.0722 -0.2014
 5460W        W 9511  10.169   9.067  10.365  0.0559 -0.1576  0.0455
 5461W        W 9512   2.166   5.064  11.742 -0.1274 -0.2928  0.3527
 5462W        W 9513   5.503   1.132   9.927 -0.1566  0.3608 -0.0918
 5463W        W 9514   8.971   3.649  11.526 -0.2312 -0.3242 -0.2214
 5464W        W 9515   3.649   2.403   4.030 -0.0305  0.0062 -0.0683
 5465W        W 9516   0.983   0.854  10.297  0.0412 -0.1436 -0.0548
 5466W        W 9517   7.585   4.251   4.371 -0.2212  0.0398  0.2388
 5467W        W 9518   7.472   8.013   9.868 -0.3411 -0.0780  0.0557
 5468W        W 9519   2.592   7.799  10.769  0.0627  0.1238 -0.1126
 5469W        W 9520   5.296   9.918   1.103  0.1504 -0.0433 -0.1264
 5470W        W 9521   9.240   1.853  10.232  0.0609 -0.1329 -0.2400
 5471W        W 9522   8.650   7.348   2.869  0.0360 -0.2929 -0.0744
 5472W        W 9523   9.243   2.514   0.430 -0.0623  0.1825 -0.0981
 5473W        W 9524   0.253   5.605   2.400 -0.1509  0.4088  0.1497
 5474W        W 9525   6.290   8.394   1.646 -0.3360  0.1732  0.1900
 5475W        W 9526   8.469   8.575  11.129 -0.3248  0.1741 -0.3440
 5476W        W 9527   3.536   0.865  13.235  0.2385 -0.0025  0.1283
 5477W        W 9528   0.748   7.902   0.277  0.1440  0.1397  0.2383
 5478W        W 9529   3.649  10.044  11.458 -0.0257 -0.1377  0.0578
 5479W        W 9530   1.420   4.983   3.749 -0.0680 -0.2442 -0.1585
 5480W        W 9531   3.929   5.411   2.324 -0.2494 -0.0864 -0.2117
 5481W        W 9532   1.432   1.510   2.898 -0.0369  0.3857 -0.0529
 5482W        W 9533   2.682   9.405  12.366 -0.3005  0.0262  0.0492
 5483W        W 9534   2.609   1.730  11.842 -0.1938 -0.0464 -0.0898
 5484W        W 9535   2.380   8.530  11.424 -0.3607 -0.1580  0.1344
 5485W        W 9536   9.687   2.282  12.637 -0.2007  0.2607 -0.1386
 5486W        W 9537   6.974   0.279  11.684  0.2813 -0.0592  0.2499
 5487W        W 9538   9.035   9.596   1.625  0.0038 -0.0248  0.2206
 5488W        W 9539   5.763   7.447  13.452 -0.2232  0.3994 -0.1729
 5489W        W 9540   9.968   3.677  12.477  0.0414 -0.1877  0.1733
 5490W        W 9541   3.965   6.604  12.212 -0.0767  0.0446  0.1239
 5491W        W 9542   5.355   3.386   1.454  0.0403  0.1799  0.2415
 5492W        W 9543   5.016   3.751   3.703  0.2252 -0.0111  0.0536
 5493W        W 9544   8.973   9.174   2.454  0.2083 -0.1057 -0.0301
 5494W        W 9545   2.486   2.653   3.768 -0.0686  0.0419  0.1015
 5495W        W 9546   4.657   9.165   0.971  0.2737  0.0259 -0.3319
 5496W        W 9547   3.767   0.364  13.590 -0.0716 -0.2162 -0.1846
 5497W        W 9548   7.859   5.048  12.834  0.0210 -0.3009  0.1146
 5498W        W 9549   8.603   3.966  11.904 -0.0327  0.3050  0.2318
 5499W        W 9550   4.094   4.135  11.987 -0.1894 -0.3032  0.0178
 5500W        W 9551   0.359   0.583   1.442 -0.2214 -0.0450 -0.0712
 5501W        W 9552   1.847   2.604  10.581 -0.1061  0.0308 -0.0143
 5502W        W 9553   6.951   5.984  10.157 -0.1376  0.2219  0.2306
 5503W        W 9554   9.680  10.173  10.292  0.1900  0.0871 -0.2726
 5504W        W 9555   4.865   4.238   9.296 -0.1859 -0.2995 -0.0499
 5505W        W 9556   6.973   1.208   0.808 -0.1213  0.2209 -0.1245
 5506W        W 9557   3.452   1.408   0.226 -0.0220  0.4055  0.0026
 5507W        W 9558   3.332   4.670  13.352  0.0473 -0.2050  0.1399
 5508W        W 9559   4.212   9.260  11.283 -0.3355 -0.0857  0.1149
 5509W        W 9560   4.795   3.395   2.822  0.2283 -0.3687 -0.0454
 5510W        W 9561   6.036   2.256   2.289  0.1650  0.0449 -0.0521
 5511W        W 9562   8.728   7.238  13.454 -0.1944 -0.0221 -0.0425
 5512W        W 9563   8.931   7.710   0.835 -0.1027 -0.1379 -0.2092
 5513W        W 9564   3.716   8.764  13.661  0.2291  0.3493 -0.2658
 5514W        W 9565   7.808   3.064   9.908  0.0968 -0.0553 -0.0811
 5515W        W 9566   8.902   0.582   9.636 -0.2731 -0.2207  0.1174
 5516W        W 9567  10.007   6.825  11.208  0.0145 -0.2978 -0.4651
 5517W        W 9568   8.448   3.836   9.888 -0.1182 -0.1667  0.1309
 5518W        W 9569   1.042   2.290   2.765 -0.1418  0.1360  0.2281
 5519W        W 9570   4.236   4.990  13.656  0.0729  0.1603  0.0719
 5520W        W 9571   6.067   7.684  13.873 -0.3073  0.0138 -0.1172
 5521W        W 9572   8.631   0.754  13.135 -0.2558  0.3088 -0.1685
 5522W        W 9573   9.090   3.773   2.144  0.1552 -0.1878  0.0333
 5523W        W 9574   7.106   3.338   2.416 -0.0063 -0.0568  0.2085
 5524W        W 9575   2.297   1.217  11.295 -0.2633  0.1998 -0.0057
 5525W        W 9576   5.154   7.323   5.822  0.0310  0.0910 -0.3337
 5526W        W 9577   3.114   8.743   2.258 -0.0851 -0.0856 -0.3014
 5527W        W 9578   3.223   9.732   3.023  0.4733  0.1814  0.4066
 5528W        W 9579   4.086   3.138   2.027 -0.0631  0.3771  0.0027
 5529W        W 9580   3.944   3.179  10.327  0.1460  0.0516 -0.1657
 5530W        W 9581   4.217   2.723  10.126  0.0718 -0.1901  0.2478
 5531W        W 9582   1.317   0.758  13.794 -0.0243  0.3190 -0.2538
 5532W        W 9583   2.629   3.983   2.817 -0.1039  0.1702  0.2721
 5533W        W 9584   0.301   4.814  11.954  0.1769 -0.1928 -0.0772
 5534W        W 9585   5.729   0.715   9.523  0.1078 -0.0367  0.1413
 5535W        W 9586   9.610   3.533   9.831  0.0411 -0.0217 -0.1754
 5536W        W 9587   8.205   0.173   4.092  0.1070  0.0142 -0.0118
 5537W        W 9588   7.858   6.987  13.609 -0.2794  0.1887  0.2158
 5538W        W 9589   5.600   5.169   3.011 -0.2496  0.1388 -0.1797
 5539W        W 9590   8.204   4.803   9.608 -0.3770 -0.2087 -0.0617
 5540W        W 9591   9.019   7.215   3.104 -0.2042 -0.0645  0.1067
 5541W        W 9592   0.575   3.244   2.016  0.0703 -0.1111  0.0087
 5542W        W 9593   6.895   8.281   2.960 -0.0306 -0.2532  0.1253
 5543W        W 9594   0.990   2.574  10.787 -0.1875  0.1097 -0.1983
 5544W        W 9595   3.456  10.175  13.707 -0.2702  0.3871  0.0310
 5545W        W 9596   2.996   6.407   2.218  0.2306  0.2044 -0.0699
 5546W        W 9597   4.437   0.633   1.652  0.1015  0.2514 -0.1555
 5547W        W 9598   1.197   0.510   3.492 -0.2380  0.3379 -0.2302
 5548W        W 9599   9.490   0.183   0.398  0.0106 -0.3621 -0.3120
 5549W        W 9600   3.469   0.648  10.427 -0.2833  0.4348 -0.1659
 5550W        W 9601   6.254   2.804   9.630 -0.0374  0.1170 -0.2146
 5551W        W 9602  10.175   0.694  12.534  0.0455 -0.0095 -0.0701
 5552W        W 9603   1.520   6.667  13.812  0.1898  0.1367  0.0559
 5553W        W 9604   1.244   2.854   4.163  0.3467 -0.0133 -0.2160
 5554W        W 9605   7.224   6.069   2.400  0.0106 -0.1856  0.3538
 5555W        W 9606   4.313   8.405  12.412 -0.0500  0.1529 -0.0371
 5556W        W 9607   9.486   2.099   2.721  0.2099  0.2417 -0.2299
 5557W        W 9608   5.974   2.827   3.959  0.3951  0.4170 -0.2089
 5558W        W 9609   1.483   8.812  11.248  0.1317  0.2028  0.3884
 5559W        W 9610   7.284   8.224   0.154  0.1269  0.0379 -0.2821
 5560W        W 9611   6.379   9.207   1.358  0.1214 -0.1330 -0.4437
 5561W        W 9612   2.587   8.921   9.626  0.2822 -0.1941  0.0689
 5562W        W 9613   2.508   7.642   1.812  0.3732  0.1411 -0.1593
 5563W        W 9614   7.764   9.194   0.329  0.0149 -0.0001  0.0152
 5564W        W 9615   2.700   6.543  11.661  0.1848 -0.1167  0.0125
 5565W        W 9616   9.775   0.040   9.455  0.1998  0.1956  0.1724
 5566W        W 9617   2.440   6.285  11.200  0.1123 -0.3233  0.4319
 5567W        W 9618   9.541   8.586  11.911 -0.2507 -0.2957  0.4565
 5568W        W 9619   4.705   3.807   4.683  0.0601 -0.0356 -0.4566
 5569W        W 9620   5.967   9.886   3.977 -0.0394 -0.1759 -0.1165
 5570W        W 9621   0.372   8.097  13.231  0.1362 -0.1222  0.1861
 5571W        W 9622   7.093   1.012  12.201 -0.1309 -0.0285  0.0074
 5572W        W 9623   2.291   8.123  10.539  0.1748  0.2760 -0.1560
 5573W        W 9624   3.916   8.352   2.029 -0.3391 -0.0157 -0.0269
 5574W        W 9625   6.112   3.595   2.189  0.0159 -0.1156 -0.0545
 5575W        W 9626   2.000   4.607  12.145  0.1360  0.2899 -0.2239
 5576W        W 9627   3.655   1.563   4.232 -0.0612  0.0527  0.1627
 5577W        W 9628   6.861   0.647  13.731  0.0792 -0.0355 -0.4253
 5578W        W 9629   2.429   7.407   4.612 -0.0678  0.0260 -0.0795
 5579W        W 9630   4.056   4.638   4.652  0.0538 -0.0072  0.2896
 5580W        W 9631   9.819   1.371   3.241  0.1310  0.5540  0.1758
 5581W        W 9632   3.056   6.119   1.386  0.0264 -0.1419  0.0925
 5582W        W 9633   6.844   1.201   4.030 -0.1106 -0.2685  0.1409
 5583W        W 9634   9.898   1.792   9.098 -0.0877 -0.3978  0.1125
 5584W        W 9635   5.537   2.407   3.328  0.0716  0.0422 -0.0262
 5585W        W 9636   5.442   4.976   5.058 -0.1293  0.1481 -0.1443
 5586W        W 9637   0.752   6.135  11.927  0.1367  0.0548  0.3481
 5587W        W 9638   3.601   2.364  10.058  0.1081 -0.2991 -0.0158
 5588W        W 9639   2.798   2.819   4.571  0.2452 -0.2199  0.0129
 5589W        W 9640   3.023   8.927   3.276  0.1858 -0.0509  0.0580
 5590W        W 9641   6.658   3.562   2.369 -0.1387 -0.0420 -0.2105
 5591W        W 9642   4.762   5.341   1.770 -0.2166 -0.1339 -0.0897
 5592W        W 9643   1.203   6.885  13.472  0.3688 -0.1490  0.0577
 5593W        W 9644   1.222   6.275  13.818 -0.1842  0.2130 -0.1304
 5594W        W 9645   2.836   1.750   0.268 -0.2068 -0.2300  0.0923
 5595W        W 9646   1.355   6.913  10.126 -0.1232 -0.1385  0.2094
 5596W        W 9647   8.141   3.244  11.512 -0.2493 -0.3871  0.2165
 5597W        W 9648   3.385   8.609   3.087  0.1692  0.2038 -0.0716
 5598W        W 9649   2.803   1.246  12.677  0.3043  0.1195 -0.1197
 5599W        W 9650   2.239   9.393  10.113  0.0425  0.4079  0.1783
 5600W        W 9651   7.155   5.903  11.658  0.1761 -0.2567 -0.2847
 5601W        W 9652   5.050   6.052   2.701 -0.1429 -0.1592 -0.1673
 5602W        W 9653   5.935   3.547  12.947 -0.1198  0.5629  0.1289
 5603W        W 9654   8.137   4.858   3.365 -0.6131 -0.1713  0.1603
 5604W        W 9655   7.832   4.952  13.793  0.1911 -0.2125 -0.0588
 5605W        W 9656   9.023   5.090   2.035 -0.1873 -0.0470  0.1522
 5606W        W 9657   7.656   2.319   5.315  0.0244  0.0304  0.2234
 5607W        W 9658   1.464   6.229   4.073  0.0107  0.4489 -0.0430
 5608W        W 9659   4.918   1.587  10.634 -0.0394 -0.2120  0.3818
 5609W        W 9660   2.557   1.050   2.472 -0.2267 -0.1460  0.1470
 5610W        W 9661   4.846   1.936  11.739  0.4047  0.1752  0.1036
 5611W        W 9662   9.204   1.981   4.969  0.1448  0.0380 -0.1558
 5612W        W 9663   5.051   6.727   9.394 -0.2847  0.0396  0.0762
 5613W        W 9664   0.826   7.002   3.692 -0.2933 -0.3101  0.0103
 5614W        W 9665   8.092   6.036   4.759  0.0296 -0.4422 -0.1752
 5615W        W 9666   1.572   8.738   1.025  0.1967 -0.1437 -0.0443
 5616W        W 9667   5.561   2.876  10.410 -0.0848 -0.0305  0.1604
 5617W        W 9668   1.851   8.539  13.766  0.1694  0.3730 -0.1356
 5618W        W 9669   5.267   1.447  10.942 -0.4311  0.3219 -0.3572
 5619W        W 9670   1.033   4.348   2.978  0.0533  0.0849  0.1005
 5620W        W 9671   0.993   0.995  10.793  0.3997 -0.3306  0.2124
 5621W        W 9672   6.890   0.647   2.904 -0.1343  0.0639  0.0985
 5622W        W 9673   4.466   1.693   4.608  0.2722  0.1188 -0.1540
 5623W        W 9674  10.155   0.028  10.396  0.1784  0.0697 -0.0012
 5624W        W 9675   2.916   7.419   1.383 -0.2353  0.1698 -0.1148
 5625W        W 9676   9.940   1.448   1.618  0.0883  0.0596  0.3277
 5626W        W 9677   6.964   0.749   4.790 -0.2390 -0.0827 -0.2050
 5627W        W 9678   9.906   4.532  12.996 -0.1384 -0.0652 -0.1381
 5628W        W 9679   4.312   0.947   9.365 -0.0790 -0.0082 -0.0232
 5629W        W 9680   8.788   9.963  12.100  0.1445 -0.3184  0.1840
 5630W        W 9681   4.816   4.107   5.470  0.0087 -0.0036  0.1452
 5631W        W 9682   9.044   7.917   3.604 -0.1061  0.0956  0.0160
 5632W        W 9683   1.092   4.960  13.521  0.0241 -0.0173  0.0252
 5633W        W 9684   7.760   5.072   9.603 -0.4376  0.3641  0.2531
 5634W        W 9685   6.023   6.380   0.474  0.1480  0.2749 -0.1361
 5635W        W 9686   3.248   9.688  11.701  0.0572 -0.1865  0.2606
 5636W        W 9687   2.416   7.138  10.310 -0.6720 -0.2218 -0.1773
 5637W        W 9688   3.552   9.495   4.674  0.0003 -0.0229 -0.0896
 5638W        W 9689   5.747   8.219   2.759  0.2400  0.0517 -0.1941
 5639W        W 9690   0.801   0.211   3.519  0.0696  0.1409 -0.0723
 5640W        W 9691   3.258   8.231   0.755  0.2235 -0.0002 -0.1723
 5641W        W 9692   0.360   6.120  10.003 -0.0034 -0.3345  0.0860
 5642W        W 9693   3.777   2.887   9.953  0.1854  0.0526 -0.2056
 5643W        W 9694   3.119   0.437  13.465 -0.3459 -0.0394 -0.1454
 5644W        W 9695   0.440   9.655  12.724  0.0559  0.0948  0.1200
 5645W        W 9696   0.716   9.943  11.511 -0.0117 -0.0819  0.2063
 5646W        W 9697   3.666   1.411  10.100  0.0372  0.2053 -0.0293
 5647W        W 9698   2.023   4.678   3.475  0.1762  0.0374 -0.3944
 5648W        W 9699   1.928   1.832  13.534 -0.1324  0.0419  0.3589
 5649W        W 9700   0.495   1.763   8.582 -0.1477  0.1582  0.2246
 5650W        W 9701   2.224   2.281  10.679  0.0417 -0.2064 -0.1629
 5651W        W 9702   8.426   9.483  13.732 -0.0939  0.4767  0.0989
 5652W        W 9703   4.924   7.650   0.001 -0.0314  0.2391 -0.0544
 5653W        W 9704   1.493   0.311  11.339 -0.1167  0.2983 -0.1095
 5654W        W 9705   4.977   7.207   4.916  0.0210  0.1561  0.0206
 5655W        W 9706   4.567   8.222  12.024 -0.1610 -0.2884  0.1989
 5656W        W 9707   5.234   7.758  12.625  0.3152  0.1936 -0.0670
 5657W        W 9708   9.570   1.393   0.784 -0.1610 -0.0849  0.2772
 5658W        W 9709   9.455   2.511  11.686  0.1109  0.0865  0.1349
 5659W        W 9710  10.160   8.940   1.484  0.2892  0.0166 -0.3312
 5660W        W 9711   6.740   1.352  11.994 -0.2353 -0.1669  0.1269
 5661W        W 9712   0.264   0.716   4.679 -0.0860 -0.1986  0.0957
 5662W        W 9713   6.819   6.138   0.954  0.0831 -0.0107  0.1951
 5663W        W 9714   1.254   1.042   9.246 -0.1267 -0.0883  0.2093
 5664W        W 9715   1.595   6.283   1.603 -0.0782 -0.0557  0.1516
 5665W        W 9716   2.840   3.430   5.143  0.3169  0.0914 -0.4381
 5666W        W 9717   0.363   4.730  10.174 -0.0312 -0.3832 -0.0209
 5667W        W 9718   7.245   4.747  11.555  0.0732  0.1828  0.0759
 5668W        W 9719   7.055  10.046   2.542 -0.2625 -0.0029  0.1156
 5669W        W 9720   6.094   7.275  13.082 -0.2226 -0.1923 -0.0495
 5670W        W 9721   8.529   9.750   0.970  0.2212 -0.1297  0.1444
 5671W        W 9722   1.778   1.397   0.402  0.1256  0.1957 -0.1205
 5672W        W 9723   6.911   4.086  13.084  0.2184 -0.1508  0.1935
 5673W        W 9724   8.838   9.470   0.032 -0.0166  0.0813 -0.2569
 5674W        W 9725   3.975   5.121  11.793  0.0773 -0.1258 -0.1374
 5675W        W 9726   0.523   0.039   0.624 -0.2144  0.1163  0.2012
 5676W        W 9727   4.269   5.586   1.198 -0.1184  0.2381 -0.1887
 5677W        W 9728   9.710   1.703   0.283  0.5470 -0.0756 -0.0693
 5678W        W 9729   6.323   6.910   9.588  0.2523  0.1213 -0.3097
 5679W        W 9730   0.229   6.294   1.609 -0.1381 -0.1270  0.1449
 5680W        W 9731   2.910   8.934  11.576  0.1206  0.1424  0.0265
 5681W        W 9732   4.189   8.733   0.260  0.3700 -0.0932  0.0533
 5682W        W 9733   7.549   0.664   3.807  0.0676  0.1779  0.2050
 5683W        W 9734   9.546   9.040  10.673 -0.3003  0.0967  0.1765
 5684W        W 9735   5.582   3.277   4.056  0.1893  0.1913 -0.3892
 5685W        W 9736   6.815   4.146   8.637 -0.0969 -0.0414  0.2371
 5686W        W 9737   6.887   4.532   2.170  0.0060  0.1423 -0.0754
 5687W        W 9738   2.758   5.922  10.911 -0.0774 -0.5399 -0.0874
 5688W        W 9739   4.675   9.595   8.830 -0.0657 -0.2383 -0.0862
 5689W        W 9740   7.175   9.063  12.514 -0.2137  0.1011  0.0472
 5690W        W 9741   2.689   3.649   9.589 -0.1825 -0.0655 -0.0663
 5691W        W 9742   4.110   4.542   5.320 -0.1578 -0.1576 -0.0451
 5692W        W 9743   7.590   7.780   2.247  0.0796  0.0057  0.2561
 5693W        W 9744   0.622   3.843   3.622  0.2003 -0.0322  0.0464
 5694W        W 9745   8.418   3.976  11.427  0.0074  0.0414  0.2499
 5695W        W 9746   5.623   0.866  12.665  0.0914 -0.1335 -0.0426
 5696W        W 9747   6.683   8.692   4.287  0.5091 -0.0118 -0.1113
 5697W        W 9748   8.041   3.982   5.140 -0.1615 -0.0669  0.1110
 5698W        W 9749   0.926   3.013  11.602  0.2659 -0.3320  0.0785
 5699W        W 9750   1.285   7.818  12.098  0.0567 -0.0904  0.0012
 5700W        W 9751   8.621   9.262   1.484 -0.1105  0.0131  0.0723
 5701W        W 9752   9.887   7.682   1.105  0.0918  0.0363  0.0145
 5702W        W 9753   4.898   0.942  10.245 -0.2334  0.1694  0.3306
 5703W        W 9754   6.675   9.539   2.854  0.0748  0.1886 -0.2329
 5704W        W 9755   1.230   0.240  12.548 -0.2414 -0.0055  0.1794
 5705W        W 9756   3.108  10.081   4.048 -0.0057 -0.0026 -0.0784
 5706W        W 9757   9.355   9.711  13.922 -0.2281  0.0563 -0.0825
 5707W        W 9758   2.462   3.475   2.687 -0.0946 -0.2486 -0.1925
 5708W        W 9759   6.702   1.473   3.625 -0.0148 -0.1487  0.1239
 5709W        W 9760   2.896   2.812   3.437 -0.2874  0.3917  0.0144
 5710W        W 9761   8.817  10.004   1.281 -0.1322 -0.2097 -0.3231
 5711W        W 9762   2.907   6.781  13.056 -0.1346 -0.1324  0.1868
 5712W        W 9763   9.192   6.848  13.050  0.1790  0.3433  0.0536
 5713W        W 9764   2.717   3.317   4.306  0.2918 -0.1212  0.2758
 5714W        W 9765   2.571   3.659  10.620 -0.1905 -0.1204  0.0593
 5715W        W 9766   7.244   4.995   3.441 -0.3217  0.1612  0.1942
 5716W        W 9767   4.954   9.834  12.385  0.1260  0.0651 -0.1844
 5717W        W 9768   5.310   4.401   0.622  0.1104  0.0352 -0.0749
 5718W        W 9769   5.974   1.863  12.544  0.1077 -0.0541  0.3283
 5719W        W 9770   6.591   2.849   5.018  0.0790  0.1760  0.2160
 5720W        W 9771   2.805   2.740   0.375 -0.0475 -0.2792 -0.1536
 5721W        W 9772   5.820   5.926   9.244 -0.0159 -0.0576 -0.1022
 5722W        W 9773   8.068   8.133   3.542 -0.2380  0.3415 -0.1775
 5723W        W 9774   4.758   2.404  11.891 -0.2686  0.4249 -0.0063
 5724W        W 9775   0.172   1.699  10.529 -0.0080  0.1374 -0.0198
 5725W        W 9776   8.389   4.291  12.613 -0.1588  0.3737  0.4691
 5726W        W 9777   3.125   8.594   1.660  0.2260  0.7754 -0.2626
 5727W        W 9778   6.482   8.822  10.879 -0.0629  0.1225 -0.2026
 5728W        W 9779   2.561   4.809   4.129  0.1860  0.0006  0.0090
 5729W        W 9780   7.226   0.633  10.691 -0.0052 -0.1605 -0.1113
 5730W        W 9781   4.576   4.629   2.576 -0.0697 -0.0539  0.0983
 5731W        W 9782   0.252   8.657   3.821  0.3714  0.2496  0.1162
 5732W        W 9783   7.620   2.663   3.113 -0.1034 -0.0768  0.1445
 5733W        W 9784   6.292   2.400   1.066  0.1267  0.0817 -0.1020
 5734W        W 9785   5.520   5.924   0.297  0.1095 -0.2236 -0.1079
 5735W        W 9786   8.772   1.594  12.083  0.0992 -0.2258 -0.1450
 5736W        W 9787   5.271   0.754   1.272 -0.3161  0.0295  0.0667
 5737W        W 9788   9.002   0.145   3.634  0.1406  0.4024 -0.1550
 5738W        W 9789   7.646   5.059  10.090  0.0119  0.2328  0.0053
 5739W        W 9790   3.252   7.249   2.592  0.0543  0.0852 -0.0725
 5740W        W 9791   7.020  10.173   9.890 -0.1957 -0.2652  0.0406
 5741W        W 9792   8.578   5.465   2.113  0.0522  0.0715  0.2605
 5742W        W 9793   7.105   4.415   0.915 -0.2383  0.1385  0.0388
 5743W        W 9794   3.478   0.504  11.874 -0.0074 -0.0370  0.2280
 5744W        W 9795   3.777   9.470  11.109 -0.0087 -0.2524  0.3301
 5745W        W 9796   7.722   4.630  13.096  0.0627  0.1120 -0.0616
 5746W        W 9797   0.157   9.836   3.120 -0.3217 -0.1595 -0.0048
 5747W        W 9798   0.207   2.410  13.394 -0.1986  0.0183 -0.0774
 5748W        W 9799   6.023   7.915  11.280  0.1743 -0.0886 -0.0024
 5749W        W 9800   5.693   8.770  13.665  0.0848 -0.1445 -0.2389
 5750W        W 9801   7.839   2.689  10.737  0.0655 -0.1880  0.1638
 5751W        W 9802   5.489   8.062   0.279  0.0771 -0.1916 -0.0493
 5752W        W 9803   3.119   7.838  11.684  0.1791 -0.2171  0.1982
 5753W        W 9804   3.594   3.299   3.585  0.0634  0.1770  0.0239
 5754W        W 9805   9.415   6.593   0.577 -0.1220 -0.0373 -0.2664
 5755W        W 9806   3.234   3.594  11.629  0.2256  0.0830  0.1155
 5756W        W 9807   1.683   2.397  12.094  0.1373  0.1610  0.1917
 5757W        W 9808   1.951   5.434   1.808 -0.0432  0.1228 -0.0911
 5758W        W 9809   9.354   5.222  12.841 -0.0321 -0.0084 -0.0168
 5759W        W 9810   3.934   6.555  10.467  0.1375 -0.2291 -0.1626
 5760W        W 9811   7.295   1.395  12.709 -0.0843 -0.0672  0.1071
 5761W        W 9812   5.162   0.374  12.054 -0.1432  0.0285  0.0069
 5762W        W 9813   8.300   9.733   9.731 -0.1780 -0.0230  0.1449
 5763W        W 9814   5.486   8.905  10.651 -0.0425 -0.0392  0.1665
 5764W        W 9815   4.154   5.090   9.281  0.0968  0.0986 -0.3134
 5765W        W 9816   8.530   5.999  12.097 -0.1318 -0.0005  0.1621
 5766W        W 9817   8.539   2.892   1.942  0.1843 -0.0358  0.2978
 5767W        W 9818   0.649   1.547   0.457 -0.0535 -0.2741  0.2858
 5768W        W 9819   2.797   9.455  12.987  0.1811 -0.1284  0.0030
 5769W        W 9820   5.483   9.715  11.162 -0.0076  0.2485  0.4517
 5770W        W 9821   1.832   4.232   1.082 -0.0320  0.1642 -0.0792
 5771W        W 9822   8.203   9.505   2.920  0.1958 -0.0106 -0.2900
 5772W        W 9823   3.006   1.119  13.312  0.2178 -0.2056 -0.2295
 5773W        W 9824   0.269   0.310  10.654  0.0913 -0.3675 -0.2324
 5774W        W 9825   1.326   1.981   4.453 -0.1437 -0.1234  0.1065
 5775W        W 9826   2.109   4.675   1.125 -0.0427 -0.3056  0.2794
 5776W        W 9827   2.656   9.145  13.556  0.2629  0.1701 -0.0175
 5777W        W 9828   1.131   4.506   3.858 -0.1189 -0.1777 -0.2356
 5778W        W 9829   4.284   5.313   3.849 -0.0629 -0.0959 -0.1676
 5779W        W 9830   8.333   4.516   1.238  0.4314 -0.3162  0.4018
 5780W        W 9831   5.930   6.077   0.007  0.0416  0.0769 -0.0863
 5781W        W 9832   8.015   0.380   3.657 -0.2320  0.0585  0.0706
 5782W        W 9833   1.824   0.957  10.431 -0.0138 -0.2371  0.2491
 5783W        W 9834   9.104   1.791   1.668 -0.0866  0.0195  0.0879
 5784W        W 9835   9.309   4.322  13.020  0.3777  0.1656 -0.0117
 5785W        W 9836   1.357   0.306  13.733 -0.0598  0.1892  0.0925
 5786W        W 9837   4.635   5.002   4.179 -0.1313  0.0123  0.2098
 5787W        W 9838   3.487   2.455   1.429 -0.1622 -0.0143 -0.0553
 5788W        W 9839   1.406   7.743   0.829  0.0174 -0.0808 -0.1543
 5789W        W 9840   5.376   7.318  13.739  0.0951 -0.0031  0.1317
 5790W        W 9841   2.678   1.038   2.021  0.1059 -0.1698  0.2140
 5791W        W 9842   7.689   7.569   3.924  0.1801  0.0663  0.1442
 5792W        W 9843   4.425   2.806   0.321  0.0357 -0.0499 -0.1117
 5793W        W 9844   7.520   5.457   3.680  0.1330 -0.0276  0.1569
 5794W        W 9845   0.331   3.831  13.214 -0.1537  0.0109 -0.0235
 5795W        W 9846   9.444   1.058  11.609 -0.0577  0.1452 -0.4107
 5796W        W 9847   9.957   3.730   3.481 -0.1082  0.1188  0.1035
 5797W        W 9848   0.542   0.158  13.029 -0.0153 -0.2627  0.6255
 5798W        W 9849   0.658   4.252  13.227 -0.0055  0.0076  0.1695
 5799W        W 9850   2.569   6.042   2.276  0.1231 -0.1084 -0.0057
 5800W        W 9851   4.294   9.434   4.756  0.1889  0.2101 -0.3983
 5801W        W 9852   5.176   7.278  12.416 -0.1247 -0.1504 -0.0468
 5802W        W 9853   1.785   6.585   0.264  0.0553 -0.1110 -0.0831
 5803W        W 9854   1.696   4.217  11.788  0.3667 -0.2581  0.1199
 5804W        W 9855   1.711   0.957   2.825  0.2313  0.0870 -0.0964
 5805W        W 9856   7.294   0.842   9.705  0.0974  0.1270  0.6104
 5806W        W 9857   2.452   3.594   0.686 -0.0077  0.2495 -0.3200
 5807W        W 9858   5.155   1.513   3.719 -0.0184  0.1246 -0.2124
 5808W        W 9859   4.333   3.518   4.500  0.1260 -0.0833  0.0123
 5809W        W 9860   6.760   6.261  11.480  0.3249 -0.1456 -0.0345
 5810W        W 9861   2.312   4.100  10.782  0.0494  0.2118  0.1590
 5811W        W 9862   7.477   8.873   2.818 -0.3861 -0.0494 -0.1779
 5812W        W 9863   9.710   4.833  11.294 -0.0788  0.1393  0.0791
 5813W        W 9864   7.246   2.443   0.430  0.0268 -0.1555  0.0643
 5814W        W 9865   7.575   3.395  12.673  0.0169  0.2377  0.0224
 5815W        W 9866   8.913  10.158  11.616  0.0961 -0.1024  0.0750
 5816W        W 9867   9.412   2.435   1.069  0.2227 -0.1466  0.0313
 5817W        W 9868   2.713   0.230  11.642 -0.1490  0.1870  0.4140
 5818W        W 9869   7.334   9.770   1.673 -0.0911  0.2861  0.3449
 5819W        W 9870   1.729   1.926   0.103 -0.1541  0.4859  0.0792
 5820W        W 9871   9.136   5.796  12.842  0.2301  0.1781  0.2032
 5821W        W 9872   8.666   4.555   4.264 -0.0516  0.0109  0.0676
 5822W        W 9873   2.067   7.533  10.700 -0.2358 -0.0731 -0.3123
 5823W        W 9874   1.607   5.271   0.814  0.0751  0.1038  0.1171
 5824W        W 9875   9.247   6.782   3.148 -0.2676  0.3114  0.2972
 5825W        W 9876   8.850   9.101  11.454  0.0334  0.0269 -0.0275
 5826W        W 9877   8.779  10.113  11.017  0.0885 -0.2449 -0.0614
 5827W        W 9878   7.077   4.764  10.728 -0.1803  0.1520  0.0890
 5828W        W 9879   8.388   4.437   5.253  0.0388 -0.1791 -0.1875
 5829W        W 9880   1.882   7.553   1.023  0.1556 -0.1315 -0.2547
 5830W        W 9881   0.968   9.402   2.585 -0.0641  0.1168  0.1150
 5831W        W 9882   6.130   9.565   2.862 -0.1376 -0.2732  0.2146
 5832W        W 9883   0.013   1.512   1.104  0.0839 -0.2151 -0.0877
 5833W        W 9884   6.459   5.850  10.209 -0.0206 -0.0396  0.4095
 5834W        W 9885   6.551   0.487   2.182 -0.3591 -0.1806  0.0441
 5835W        W 9886   0.116   1.428  13.081  0.2001  0.0624  0.2392
 5836W        W 9887   6.590   2.620   3.098  0.0205 -0.1972 -0.1119
 5837W        W 9888   9.364   6.850   3.744 -0.0894 -0.1244  0.0669
 5838W        W 9889   9.597   7.760   0.382  0.3580  0.1915 -0.2393
 5839W        W 9890   7.063   2.771  13.285 -0.2185  0.0051 -0.1529
 5840W        W 9891   1.920   8.288   2.176 -0.3591  0.0025 -0.2224
 5841W        W 9892   3.314   1.823   3.107  0.0585  0.0384  0.1477
 5842W        W 9893   0.682   7.101  12.797 -0.0921 -0.0803  0.0250
 5843W        W 9894   9.017   9.035   0.320  0.0231 -0.2111 -0.0563
 5844W        W 9895   7.720   6.037   3.652  0.0560  0.0332  0.0955
 5845W        W 9896   8.205   5.824  10.774  0.0429  0.1282 -0.2664
 5846W        W 9897   0.152   0.925   2.199 -0.1288  0.2309 -0.3535
 5847W        W 9898   7.609   7.356   1.772 -0.0485 -0.0030 -0.0179
 5848W        W 9899   3.563   3.542   8.945  0.2531  0.0130 -0.2328
 5849W        W 9900   9.696  10.184   2.008 -0.2560 -0.0344  0.0064
 5850W        W 9901   0.737   1.022   2.925  0.0309 -0.2165  0.0981
 5851W        W 9902   9.929   2.916  12.167  0.2879 -0.0681 -0.3008
 5852W        W 9903   0.844  10.064   1.578 -0.0497  0.0781 -0.1867
 5853W        W 9904   1.965   3.809   5.419  0.1160  0.0989 -0.2685
 5854W        W 9905   1.108   5.152   3.344 -0.2151  0.2600 -0.1470
 5855W        W 9906   8.681   5.393   0.934 -0.0727 -0.1442  0.2993
 5856W        W 9907   1.940   5.342   0.428  0.0394  0.1569  0.4504
 5857W        W 9908   9.078   1.148   4.657  0.2376 -0.2153  0.1415
 5858W        W 9909   8.830   5.202  12.618  0.2694 -0.1833  0.2796
 5859W        W 9910   1.438   1.577   2.380 -0.0577 -0.0215  0.1304
 5860W        W 9911   2.064   3.247  11.747 -0.0421 -0.0351  0.0169
 5861W        W 9912   3.757   3.383   2.396  0.0561  0.1046 -0.1706
 5862W        W 9913   0.873   7.030   9.755  0.1178 -0.0145  0.0185
 5863W        W 9914   6.492   7.664   0.402  0.2183 -0.3696  0.3606
 5864W        W 9915   1.351   5.651  11.885  0.1346  0.0389  0.0640
 5865W        W 9916   0.520   3.126   4.357 -0.0215 -0.1509 -0.2477
 5866W        W 9917   0.155   5.942   1.228  0.0514  0.0564  0.0007
 5867W        W 9918   6.146   4.859   0.942 -0.2222 -0.1780 -0.2781
 5868W        W 9919   4.338   3.204   0.636 -0.1508 -0.1725 -0.2843
 5869W        W 9920   2.696   7.616  12.867 -0.1009  0.2534  0.2000
 5870W        W 9921   8.770   4.861   1.696  0.1097  0.1562  0.4763
 5871W        W 9922   4.409   1.040  11.054 -0.1447 -0.0757 -0.0015
 5872W        W 9923   7.541   5.943  12.065  0.1157  0.1298 -0.3238
 5873W        W 9924   7.580   6.211   0.774  0.0283  0.1501 -0.0771
 5874W        W 9925   6.578   7.209   9.870 -0.0243  0.1711 -0.1225
 5875W        W 9926   3.958  10.183  13.883  0.0246  0.0274 -0.1782
 5876W        W 9927   3.650   6.123   0.230  0.0443 -0.0600 -0.1668
 5877W        W 9928   9.058   1.413   2.089  0.0615 -0.1009 -0.0012
 5878W        W 9929   1.782   1.066  13.702 -0.2738 -0.0952  0.0024
 5879W        W 9930   0.877   2.936   5.578  0.1088  0.0674  0.0864
 5880W        W 9931   1.714   2.011  10.853 -0.0427 -0.0028  0.1019
 5881W        W 9932   5.583   7.982  10.522  0.1193 -0.3599  0.2136
 5882W        W 9933   8.000  10.018   3.812 -0.0880 -0.1491  0.0490
 5883W        W 9934   1.291   2.176  11.844 -0.2874 -0.2297  0.2245
 5884W        W 9935   3.543   9.791   0.528  0.2187  0.2569  0.2910
 5885W        W 9936   4.256   5.810   4.007  0.1118  0.1080  0.1119
 5886W        W 9937   4.939   7.323  11.844 -0.3271 -0.0433  0.1188
 5887W        W 9938   1.044   6.697  12.936  0.0210 -0.1193  0.0695
 5888W        W 9939   6.309   1.006   2.192  0.3048 -0.2538  0.1695
 5889W        W 9940   7.642   7.149   2.891 -0.0837 -0.0334 -0.0133
 5890W        W 9941   3.470   5.188  10.910 -0.0238 -0.0802 -0.0566
 5891W        W 9942   1.806   4.852   2.499  0.1311  0.0962 -0.0019
 5892W        W 9943   4.150   0.714   2.282 -0.1803  0.5429 -0.1885
 5893W        W 9944   3.848   2.808   4.796  0.0026  0.2328  0.2044
 5894W        W 9945   9.536   2.999   2.456 -0.0044  0.2312  0.1162
 5895W        W 9946   6.935   9.625  10.550  0.1455 -0.3159  0.1684
 5896W        W 9947   6.238   8.292   4.841 -0.0558  0.2082  0.2142
 5897W        W 9948   8.519   7.588   9.951 -0.2669  0.0889 -0.1939
 5898W        W 9949   6.872   4.514  10.006  0.2217 -0.2177  0.0999
 5899W        W 9950   3.189   7.312  11.078 -0.1534 -0.0263 -0.1369
 5900W        W 9951   4.514   4.268   3.498  0.2267  0.1044  0.1888
 5901W        W 9952   3.042   1.621  10.888 -0.0389  0.2276 -0.2421
 5902W        W 9953   2.256   3.573   4.499  0.1236 -0.1064  0.0632
 5903W        W 9954   8.940   0.194   0.406 -0.2126  0.0614  0.0707
 5904W        W 9955   1.939   1.507   3.990 -0.0850  0.1304  0.2179
 5905W        W 9956   8.857   6.502   0.638  0.0662 -0.2462  0.0035
 5906W        W 9957   7.387   4.810   2.116  0.1135  0.0466  0.0399
 5907W        W 9958   5.457   7.979   9.976  0.1952 -0.1558 -0.6216
 5908W        W 9959   0.684   9.589   2.909  0.3741  0.2435 -0.2419
 5909W        W 9960   1.822   9.529  12.973 -0.4902 -0.1353  0.1735
 5910W        W 9961   9.038   2.229  11.531 -0.2476 -0.1303  0.3035
 5911W        W 9962   7.244   9.391   1.340  0.3570 -0.2293  0.1652
 5912W        W 9963   5.154   7.587   1.570 -0.1366  0.1282  0.0670
 5913W        W 9964   6.451   5.667  13.768  0.0608 -0.0917  0.1316
 5914W        W 9965   6.657   7.546  13.836 -0.0717  0.0102 -0.1798
 5915W        W 9966   1.049   3.796   2.806  0.1918  0.0039 -0.0650
 5916W        W 9967   2.264   1.492   4.394  0.0504 -0.3444  0.1323
 5917W        W 9968   2.608   7.637   3.073 -0.1089  0.1447  0.1824
 5918W        W 9969   7.221   1.453  13.226 -0.0225 -0.2833  0.2531
 5919W        W 9970   0.898   1.300   9.500 -0.3920 -0.0723 -0.3590
 5920W        W 9971   2.876   0.100  12.531 -0.0634 -0.1546 -0.2365
 5921W        W 9972   9.767   7.631  11.532 -0.0257 -0.3466 -0.1976
 5922W        W 9973   8.017   0.496  12.984 -0.1258 -0.4383  0.0678
 5923W        W 9974   1.567   5.378  10.956 -0.0162  0.0708  0.0873
 5924W        W 9975   0.724   3.395   3.326 -0.2396  0.1946  0.0910
 5925W        W 9976   1.584   4.648   4.395  0.0701 -0.1202  0.0982
 5926W        W 9977   6.212   5.190  11.002 -0.2790  0.0923  0.2005
 5927W        W 9978   3.002   2.018   9.044 -0.1463  0.0536 -0.0523
 5928W        W 9979   8.821   3.765   4.123 -0.1714 -0.1039  0.0679
 5929W        W 9980   8.230   7.477   3.767 -0.0110  0.0846  0.0003
 5930W        W 9981   9.707   2.631  10.652  0.1135  0.4256  0.2014
 5931W        W 9982   9.522   2.713   2.078  0.0720  0.0467 -0.0190
 5932W        W 9983   9.434  10.202   3.543 -0.0397  0.0865 -0.1954
 5933W        W 9984   8.735   9.766   3.021  0.0994  0.1752  0.0011
 5934W        W 9985   4.818   9.838   0.783 -0.1340 -0.0970  0.1273
 5935W        W 9986   0.983   7.709   3.183  0.0456  0.0127  0.3170
 5936W        W 9987   1.761   5.761  13.224 -0.0233 -0.0595  0.0753
 5937W        W 9988   3.701   7.831   2.577 -0.1316  0.1214  0.1373
 5938W        W 9989   0.288  10.131   2.036 -0.1182  0.0753  0.1553
 5939W        W 9990   4.242   1.908  11.955  0.0630 -0.1584  0.2243
 5940W        W 9991   4.307   1.537  11.030  0.1399  0.0303 -0.3777
 5941W        W 9992   0.622   5.959  12.860 -0.0470  0.0308 -0.4040
 5942W        W 9993   5.503   3.466   3.606  0.0025 -0.1653 -0.1078
 5943W        W 9994   6.884   3.227   4.896 -0.2172 -0.2952 -0.0590
 5944W        W 9995   3.296   9.173  11.743  0.0163 -0.0391 -0.0918
 5945W        W 9996   9.966   5.052  10.840  0.2747  0.0321 -0.4573
 5946W        W 9997   8.608   8.544   3.726  0.1973 -0.0637 -0.3378
 5947W        W 9998   2.388   7.871   2.682  0.1296  0.2374  0.4886
 5948W        W 9999   9.295   4.661  11.632  0.1738 -0.0282  0.1265
 5949W        W10000   5.257   2.462   2.789 -0.1215 -0.0994 -0.1188
 5950W        W10001  10.067   0.126   1.116  0.1380 -0.0184  0.2665
 5951W        W10002   3.658   8.642   4.091  0.0127  0.0189 -0.1715
 5952W        W10003   5.718   7.110   1.357 -0.1353  0.0318 -0.2630
 5953W        W10004   9.409   3.920  10.335  0.0487  0.1269  0.3171
 5954W        W10005   0.347   1.474  13.873 -0.0094 -0.1243  0.4063
 5955W        W10006   2.281   3.785  11.206  0.0613 -0.3128  0.0976
 5956W        W10007   0.962   9.980  11.934 -0.0217  0.0673 -0.1568
 5957W        W10008   7.571   1.329  11.276  0.1250  0.1570 -0.0781
 5958W        W10009   6.426   8.247   2.100 -0.2005 -0.1672 -0.0865
 5959W        W10010   2.306   5.112   1.925 -0.1209 -0.1577  0.0001
 5960W        W10011   7.398   1.776  11.117  0.0290 -0.2575  0.0590
 5961W        W10012   4.674   6.998  10.677  0.0973 -0.4205 -0.1043
 5962W        W10013   0.329   3.859   4.492 -0.0313  0.0758  0.1669
 5963W        W10014   5.297   8.440   4.940 -0.2435 -0.0307 -0.1518
 5964W        W10015   2.161   9.592   9.185  0.0059 -0.0068 -0.3215
 5965W        W10016   6.037   4.570  13.105 -0.0081  0.2439  0.1400
 5966W        W10017   0.200   1.039   1.267 -0.1101 -0.0767 -0.0150
 5967W        W10018   5.121   6.359   3.724  0.4054  0.3199  0.0220
 5968W        W10019   7.220   3.696   5.525 -0.0393  0.2630  0.1037
 5969W        W10020   4.016   9.552  13.296  0.1863  0.1620 -0.1459
 5970W        W10021   6.466   9.491   3.372  0.4994 -0.1117  0.4251
 5971W        W10022   5.517   8.803   5.331  0.0008  0.0359 -0.0028
 5972W        W10023   2.659   2.199   3.446  0.1907 -0.2878 -0.1765
 5973W        W10024   1.806   0.171   1.133  0.3466 -0.4946  0.0741
 5974W        W10025   9.167   3.936   0.706  0.1496 -0.1091 -0.0408
 5975W        W10026   7.491   9.934  12.244  0.0093 -0.0538 -0.1680
 5976W        W10027   8.832   1.717  10.600 -0.1311 -0.2010 -0.0016
 5977W        W10028   2.963   5.506  12.908 -0.0732 -0.0446 -0.3985
 5978W        W10029   6.186   3.986   9.805 -0.0720  0.0549 -0.0411
 5979W        W10030   1.432   1.564   4.783 -0.2089  0.1260 -0.0278
 5980W        W10031   7.351   4.380   1.715 -0.0187 -0.1131  0.2125
 5981W        W10032   5.178   9.140   3.585 -0.0622 -0.1656 -0.5361
 5982W        W10033   1.789   4.739   0.193 -0.1257 -0.0858  0.0409
 5983W        W10034   1.013   4.654  11.309 -0.1450  0.0062  0.1791
 5984W        W10035   4.303   2.656   9.608  0.1061  0.2774 -0.2740
 5985W        W10036   3.251   3.961   0.584  0.3251  0.1467 -0.1031
 5986W        W10037   5.522   0.311  12.822  0.1221  0.3670  0.1329
 5987W        W10038   8.958   4.237  10.087 -0.0065 -0.1700  0.2461
 5988W        W10039   7.215   6.690   9.274  0.0289 -0.3338  0.0302
 5989W        W10040   3.113   9.378   2.604 -0.3727  0.0904 -0.2175
 5990W        W10041   9.269   9.726   0.863 -0.0077  0.2256  0.1067
 5991W        W10042   5.740   4.528   1.098 -0.2182  0.0453  0.0985
 5992W        W10043   6.115   8.246   3.165  0.0201  0.2035  0.0212
 5993W        W10044   3.275   8.164   4.001  0.2313  0.0396 -0.0408
 5994W        W10045   8.901   9.664  12.459 -0.0539  0.2115 -0.1803
 5995W        W10046   0.161   3.491  12.143  0.2309  0.0952 -0.1801
 5996W        W10047   9.846   6.925   1.505  0.1184  0.0049  0.2160
 5997W        W10048   7.945   6.224   0.394 -0.2819  0.0356 -0.0496
 5998W        W10049   0.168   9.335   1.709  0.1504 -0.1132 -0.1819
 5999W        W10050   6.842   6.807   9.983  0.0110  0.4695 -0.1431
 6000W        W10051   2.174   4.299  12.555 -0.2816 -0.1624 -0.0730
 6001W        W10052   9.780   7.247  13.701  0.1664  0.0247 -0.0720
 6002W        W10053   2.355   3.087   2.397 -0.0165  0.0460 -0.0816
 6003W        W10054   1.592  10.070  11.034 -0.2413  0.0713  0.1240
 6004W        W10055   2.780   1.248   3.730  0.0729 -0.0551  0.3362
 6005W        W10056   4.319   6.787   0.628 -0.2859 -0.2893  0.0391
 6006W        W10057   8.454   7.450   4.225  0.2687 -0.2703 -0.2080
 6007W        W10058   7.442   3.967   0.525 -0.3099  0.0348  0.2232
 6008W        W10059   3.504   8.056  13.617  0.1298 -0.0648 -0.0878
 6009W        W10060   5.747   3.929   9.506 -0.3858 -0.0624 -0.3865
 6010W        W10061   1.365   8.487   3.015 -0.0642  0.0725  0.2256
 6011W        W10062   3.564   0.037   3.772  0.1426 -0.3588 -0.0227
 6012W        W10063   6.762   6.742  13.044  0.0456 -0.3545  0.1836
 6013W        W10064   5.677   2.512  12.162  0.1946 -0.3387  0.2803
 6014W        W10065   4.448   9.522   1.344 -0.1353 -0.3761 -0.0191
 6015W        W10066   7.888   6.122  10.402 -0.2887  0.0562  0.1491
 6016W        W10067   5.771   6.407   1.743 -0.0952 -0.0739  0.1453
 6017W        W10068   3.140   1.597   0.586 -0.1270  0.0613  0.0951
 6018W        W10069   8.831   7.482  11.300 -0.1303 -0.2298 -0.1009
 6019W        W10070   7.043   4.293  10.543 -0.1913 -0.0547 -0.0747
 6020W        W10071   2.904   8.220  10.802  0.1626 -0.4883 -0.0613
 6021W        W10072   1.471   1.164  11.835 -0.0472 -0.2449  0.0675
 6022W        W10073   5.130   7.863   2.823 -0.0417 -0.4485  0.3008
 6023W        W10074   8.167   8.122  12.281  0.1130 -0.0246  0.0823
 6024W        W10075   1.034   0.380   9.582  0.1778  0.1282 -0.1643
 6025W        W10076   0.287   4.969   9.098 -0.4552  0.0739 -0.2138
 6026W        W10077   8.051   7.619   1.079 -0.1564 -0.0581 -0.1700
 6027W        W10078   8.873   2.138   4.546 -0.0953  0.1348 -0.0157
 6028W        W10079   3.996   1.489   1.905  0.1816  0.0162 -0.0553
 6029W        W10080   3.379   0.823   0.839  0.1227  0.1159  0.0790
 6030W        W10081   6.977   8.736   3.147 -0.2023  0.0231  0.2422
 6031W        W10082   7.791   6.530  13.300  0.0518  0.3852 -0.0921
 6032W        W10083   8.137   5.346   0.704 -0.0242  0.0638  0.2321
 6033W        W10084   7.569   4.819  10.581  0.3815  0.2479  0.0685
 6034W        W10085   9.772   6.520   2.941  0.1409 -0.2745  0.0281
 6035W        W10086   8.853   1.038   9.848 -0.3046  0.1360 -0.1103
 6036W        W10087   4.568   6.671   0.035 -0.2683  0.0483 -0.1367
 6037W        W10088   4.180   0.148   2.296  0.1007 -0.2098  0.1551
 6038W        W10089   1.426   4.016   3.175 -0.1670 -0.1432  0.1745
 6039W        W10090   3.010   2.960   5.175 -0.0097  0.2295  0.0976
 6040W        W10091   5.754  10.008   1.768  0.3788  0.2611 -0.1691
 6041W        W10092   0.822   2.699   3.085  0.1826  0.2074 -0.2456
 6042W        W10093   7.025   3.197  12.772  0.1123 -0.2567 -0.0572
 6043W        W10094   9.964   1.317   9.103 -0.2706  0.0597 -0.1280
 6044W        W10095   4.780   4.274   8.645  0.0155  0.0410 -0.1071
 6045W        W10096   9.795   1.082  10.651  0.1043 -0.1336  0.1557
 6046W        W10097   2.460   5.579   9.356  0.1480  0.2460 -0.3253
 6047W        W10098   7.586   8.441  10.611 -0.1838  0.0166 -0.0403
 6048W        W10099   6.580   8.566  12.944  0.2362  0.0999  0.0769
 6049W        W10100  10.075   2.314   1.414 -0.1293  0.0641  0.0066
 6050W        W10101   5.014   0.978   8.897 -0.3368  0.1380 -0.3014
 6051W        W10102   8.233   9.387   1.141  0.0232 -0.2476  0.0861
 6052W        W10103   2.524   4.958   4.607 -0.2749 -0.3143  0.2262
 6053W        W10104   3.406   3.020   1.607  0.1025  0.1635 -0.2468
 6054W        W10105   5.034   9.659   3.388 -0.0774  0.0696 -0.3384
 6055W        W10106   7.625   7.850  12.672 -0.1154  0.0838 -0.1245
 6056W        W10107   8.833   6.733   1.457 -0.1617 -0.2722  0.0100
 6057W        W10108   3.684   3.948   2.819  0.2125  0.3736  0.2010
 6058W        W10109   9.924   6.990   2.137  0.2930 -0.0220 -0.2027
 6059W        W10110   1.848   5.550  11.541  0.0267 -0.1319  0.1760
 6060W        W10111   3.838   6.670  10.941  0.1610 -0.2803 -0.1156
 6061W        W10112   0.423   9.290   2.535  0.2638 -0.4285  0.1136
 6062W        W10113   9.968   0.323  10.822  0.0535  0.0203  0.1444
 6063W        W10114   3.998   3.593   0.337  0.0112 -0.1176  0.1154
 6064W        W10115   9.636   2.246   3.937 -0.1091  0.2911  0.0879
 6065W        W10116   7.756   1.452  12.547  0.0048  0.2354 -0.1944
 6066W        W10117   6.823   7.714   2.194  0.2621 -0.1001 -0.0330
 6067W        W10118   7.220   0.691   0.130  0.2462  0.0346 -0.1784
 6068W        W10119   8.316   5.939  12.542 -0.0294  0.0079 -0.1097
 6069W        W10120   3.056   0.989  10.457 -0.0088 -0.0675  0.3366
 6070W        W10121   2.465   1.509   9.880 -0.1606  0.1157 -0.0701
 6071W        W10122   4.331   8.229   5.027  0.0961 -0.1185 -0.0129
 6072W        W10123   1.648   9.378   0.067  0.1729 -0.0598 -0.0833
 6073W        W10124   7.028   6.002  13.209  0.4853 -0.4922  0.1002
 6074W        W10125   8.003   0.117  11.680  0.2551 -0.2447 -0.1665
 6075W        W10126   4.294   4.531  12.326 -0.2373  0.0997 -0.1635
 6076W        W10127   1.936   0.253  13.385  0.1381 -0.2339  0.2273
 6077W        W10128   0.913   5.542   0.276  0.2062  0.1023  0.0562
 6078W        W10129   1.435   1.299   1.894 -0.0473 -0.0128 -0.0867
 6079W        W10130   4.636   3.327  11.915  0.0645 -0.0414  0.1813
 6080W        W10131   2.623   2.375   9.367 -0.3607 -0.1321  0.2234
 6081W        W10132   8.914   3.882   1.623  0.4226  0.2989 -0.0276
 6082W        W10133  10.063   9.992   4.208 -0.1563 -0.0625 -0.0206
 6083W        W10134   7.894   4.724   2.050  0.0320  0.1420  0.2259
 6084W        W10135   8.891   6.015   3.681  0.4622  0.0437  0.1424
 6085W        W10136   3.785   1.529   9.324 -0.3052  0.3530  0.0380
 6086W        W10137   7.384   9.449  12.248 -0.1960  0.0982  0.0117
 6087W        W10138   3.898   7.019   1.991  0.0356 -0.1831 -0.2695
 6088W        W10139   7.243   5.237   2.988 -0.2143  0.0481  0.1912
 6089W        W10140   5.424   9.356  12.035 -0.1011 -0.0773 -0.0306
 6090W        W10141   1.938   2.572  12.669 -0.0434  0.2317  0.0781
 6091W        W10142   3.752   4.527   2.958  0.0523 -0.1030 -0.2769
 6092W        W10143   5.306   7.310   3.294 -0.0707  0.2996  0.3355
 6093W        W10144   6.348   8.588   3.884  0.0800  0.3912 -0.3753
 6094W        W10145   1.583   5.004   3.231  0.0835 -0.0521  0.2741
 6095W        W10146   2.761   9.671  11.920 -0.1668 -0.1813 -0.0707
 6096W        W10147   8.268   5.160   0.180  0.2206 -0.3387 -0.0868
 6097W        W10148   6.465   9.013   3.609  0.1683 -0.1657 -0.2811
 6098W        W10149   3.526   5.503  13.612  0.0102  0.1878 -0.0107
 6099W        W10150   5.078   8.982  13.835  0.1402 -0.4821  0.0449
 6100W        W10151   3.631   2.771   4.346 -0.0999 -0.1421 -0.0310
 6101W        W10152   6.620   6.778   0.390 -0.1013 -0.1567 -0.1011
 6102W        W10153   3.352   2.670  12.423  0.2481  0.1106 -0.0003
 6103W        W10154   5.278   6.721   1.068 -0.0606  0.2628  0.2023
 6104W        W10155   2.457   2.651  13.914 -0.0082  0.0690 -0.0188
 6105W        W10156   4.827   1.575   2.904 -0.2917 -0.0649 -0.0528
 6106W        W10157   9.808   4.269  11.913  0.3451 -0.3220  0.0190
 6107W        W10158   2.725   4.286  12.879  0.2367  0.2851 -0.1701
 6108W        W10159   0.459   6.881   3.380  0.0406  0.3129  0.1278
 6109W        W10160   1.501   5.106   2.189  0.1460  0.0221 -0.0445
 6110W        W10161   6.389   2.435   4.201  0.1314  0.0162 -0.0099
 6111W        W10162   4.718   7.885   9.928  0.0494  0.2030 -0.1654
 6112W        W10163   5.960   7.073   2.242 -0.2296  0.1822  0.0803
 6113W        W10164   9.583   0.150   3.048  0.6247  0.2197  0.2950
 6114W        W10165   5.543   1.018   3.128 -0.1446 -0.2967 -0.2083
 6115W        W10166   5.625   7.243   4.124 -0.0130 -0.3998 -0.0566
 6116W        W10167   6.806   0.230  13.462  0.0598 -0.0215 -0.1285
 6117W        W10168   4.080  10.111   9.468  0.1405 -0.1345 -0.3107
 6118W        W10169   9.685   8.353   0.119 -0.0239 -0.3142  0.1250
 6119W        W10170   2.327  10.200  11.827  0.1199 -0.1784  0.0754
 6120W        W10171   5.692   0.146   3.057 -0.0438  0.1070  0.2908
 6121W        W10172   4.865   9.146  10.568 -0.0722 -0.1726  0.1375
 6122W        W10173   3.637   6.429   0.845  0.0030  0.0691  0.1358
 6123W        W10174   8.475   2.881   4.360  0.0960 -0.1501  0.0164
 6124W        W10175   2.530   2.834  13.460 -0.1592 -0.0446  0.0142
 6125W        W10176   1.203   5.005  10.093  0.2971 -0.0783  0.0475
 6126W        W10177   5.634   9.868   4.441 -0.1559  0.2274 -0.1907
 6127W        W10178   5.695   9.747   9.294 -0.0264 -0.2379  0.2594
 6128W        W10179   6.453   0.867   9.724  0.0402 -0.2814 -0.0936
 6129W        W10180   0.958   8.514   1.557 -0.0312  0.0777  0.1290
 6130W        W10181   1.872   8.676   1.718 -0.4258  0.0387 -0.0605
 6131W        W10182   9.785   9.334   0.944 -0.1583 -0.0065  0.0752
 6132W        W10183   0.118   7.196   3.603  0.0327 -0.0796  0.0235
 6133W        W10184   1.242   1.597   9.255  0.1464 -0.2748 -0.3215
 6134W        W10185   2.894   2.883   3.974 -0.1347  0.0207  0.1625
 6135W        W10186   4.560   9.934   4.511  0.2990 -0.0269  0.0938
 6136W        W10187   7.297   8.851  10.446 -0.1998 -0.1413  0.0121
 6137W        W10188  10.151   3.561   9.642  0.0882 -0.0428  0.0564
 6138W        W10189   2.353   9.234   0.707 -0.3825 -0.1992  0.0791
 6139W        W10190   1.505   5.569   0.376 -0.2320 -0.0312 -0.3210
 6140W        W10191   6.504   3.606   2.888  0.2542 -0.0128  0.0303
 6141W        W10192   1.414   1.560  10.995  0.1266 -0.2814  0.1008
 6142W        W10193   6.745   8.639  12.223  0.2677 -0.2118 -0.0125
 6143W        W10194   7.083   1.359   2.610  0.1514  0.3272  0.0678
 6144W        W10195   3.864   6.363   2.759  0.2356 -0.0856  0.3080
 6145W        W10196   4.402   2.473   1.395 -0.2728  0.0255  0.1092
 6146W        W10197   5.429   0.776  13.143 -0.0399 -0.1345 -0.4272
 6147W        W10198   2.757   3.803  12.673  0.2160 -0.1203 -0.1027
 6148W        W10199   6.588   6.144  13.687  0.1205  0.3864  0.0745
 6149W        W10200   6.204   7.002  11.685 -0.1240  0.2378  0.2682
 6150W        W10201   0.223   7.183  12.618  0.1850  0.2746 -0.2900
 6151W        W10202   5.827   9.478   1.446 -0.3004 -0.2333 -0.0996
 6152W        W10203   2.745   0.266   0.139 -0.0296  0.2303  0.0580
 6153W        W10204   2.934   9.020  12.119  0.2406 -0.2142  0.0950
 6154W        W10205   3.504   3.165   4.667 -0.0202  0.1485  0.0690
 6155W        W10206  10.118   0.734   9.847 -0.2647 -0.0152  0.2083
 6156W        W10207   4.557   9.553   3.422 -0.0030 -0.3686  0.0488
 6157W        W10208   6.339   3.657   1.595 -0.1734 -0.1860  0.2370
 6158W        W10209   8.933   1.362   1.393 -0.3853 -0.2046 -0.0115
 6159W        W10210   8.421   9.051  11.167  0.2401  0.2049  0.0137
 6160W        W10211   4.611   5.374   9.909  0.1875 -0.1099  0.3168
 6161W        W10212   2.840   3.226   1.526 -0.3691 -0.4991 -0.2552
 6162W        W10213   0.078   7.321   1.199 -0.2074 -0.4449  0.4924
 6163W        W10214   9.695   7.246  12.010  0.2626  0.2716 -0.0189
 6164W        W10215   0.339   5.214  12.790 -0.2649 -0.1648 -0.3471
 6165W        W10216   4.715   9.304   3.772 -0.0128  0.1513  0.1008
 6166W        W10217   4.689   8.767  10.178  0.0030 -0.0354 -0.2000
 6167W        W10218   1.330   1.600   1.329 -0.0976  0.0107  0.0033
 6168W        W10219   1.031   5.964   2.523 -0.0417  0.0807  0.0747
 6169W        W10220   8.816   5.918   0.666 -0.1011 -0.0062 -0.1526
 6170W        W10221   9.451   1.484   1.333 -0.1467 -0.1344  0.1053
 6171W        W10222  10.037   1.880  12.669  0.2118 -0.1883  0.1339
 6172W        W10223   4.273   3.928   1.538 -0.3304  0.0994 -0.2118
 6173W        W10224   2.368   7.391   1.076 -0.0168  0.2163  0.0209
 6174W        W10225   4.712   2.292  11.369 -0.3100  0.1572  0.0157
 6175W        W10226   1.438   9.699  10.697  0.0453  0.4235 -0.2268
 6176W        W10227  10.196   6.342   0.761 -0.0243 -0.0070 -0.0848
 6177W        W10228   4.607   5.345   8.638 -0.0247  0.0411  0.0148
 6178W        W10229   7.165   7.048   2.593 -0.4025 -0.2620  0.0351
 6179W        W10230   0.977   8.742   3.033  0.1060  0.1641 -0.4093
 6180W        W10231   9.470   4.637  12.187  0.5126  0.2562  0.0024
 6181W        W10232   1.602   0.337  10.301 -0.0217  0.0199 -0.2375
 6182W        W10233   8.982   0.331   1.279 -0.1398 -0.1885 -0.1251
 6183W        W10234   6.408   6.355   0.187 -0.1419 -0.2990 -0.1539
 6184W        W10235   5.895   4.566   2.177  0.2296  0.3888 -0.3458
 6185W        W10236  10.100   8.922   0.982 -0.2782 -0.2018  0.1201
 6186W        W10237   1.376   0.495   1.302  0.2265 -0.2993 -0.1299
 6187W        W10238   5.032   7.767   4.717 -0.1165 -0.1231  0.1328
 6188W        W10239   6.376   2.938   3.480  0.0911  0.0656  0.0244
 6189W        W10240   5.551   0.746  10.269  0.1431  0.0032  0.0894
 6190W        W10241   6.480   8.275  10.791 -0.0816 -0.1064 -0.3409
 6191W        W10242   0.477   9.068   0.846 -0.0113 -0.0009 -0.1878
 6192W        W10243   5.156   3.617   2.660 -0.0254 -0.1413  0.1670
 6193W        W10244   2.981   6.507  13.859 -0.2039  0.1759  0.0864
 6194W        W10245   5.059   5.383  12.463  0.0468 -0.1726 -0.1999
 6195W        W10246   0.819   5.177   2.940 -0.1096  0.1152 -0.2038
 6196W        W10247   4.082   0.642   0.637 -0.1354  0.3576  0.0478
 6197W        W10248   6.543   2.652  13.550 -0.0326 -0.0847 -0.2645
 6198W        W10249   5.613   4.984  10.013  0.2830  0.1007 -0.1723
 6199W        W10250   6.739   8.300   4.762 -0.2249  0.0506  0.0251
 6200W        W10251   3.893   5.489  13.252 -0.0183 -0.0276 -0.0985
 6201W        W10252   0.244   8.128   3.037 -0.3423 -0.0781  0.2540
 6202W        W10253   5.305   4.651  12.463 -0.0494  0.0097  0.1706
 6203W        W10254   3.640   7.111  10.932  0.1805  0.0456 -0.1268
 6204W        W10255   9.565   1.493  11.974 -0.2412 -0.0230 -0.3842
 6205W        W10256   0.256   2.648  11.098 -0.0036  0.1970  0.3105
 6206W        W10257   1.697   9.024  12.965 -0.0406 -0.4162 -0.1652
 6207W        W10258   3.575   9.516  13.018  0.1906 -0.1639  0.0880
 6208W        W10259   1.933   4.503   9.461  0.0107  0.1239 -0.1033
 6209W        W10260   3.046   6.822   3.872 -0.2212  0.2254  0.1666
 6210W        W10261   2.737   6.388  12.791 -0.1565 -0.1316  0.3257
 6211W        W10262   3.865   7.502  12.203 -0.2884  0.0935 -0.2198
 6212W        W10263   3.576   8.728  12.883 -0.0114 -0.0212  0.0080
 6213W        W10264   7.256  10.056   2.057 -0.0247 -0.0448  0.1484
 6214W        W10265   3.349   4.446   0.407 -0.1575  0.0281  0.2199
 6215W        W10266   8.254  10.073  10.794 -0.0620  0.0139  0.1647
 6216W        W10267   4.638   9.962   1.212 -0.0114 -0.3989  0.0599
 6217W        W10268   4.315   2.020  11.334 -0.1611 -0.2993 -0.0410
 6218W        W10269   4.021   6.121   1.713  0.1311  0.0975 -0.0082
 6219W        W10270   1.176   4.934   4.158 -0.2224  0.1341 -0.1989
 6220W        W10271   5.968   5.644  13.696  0.3265  0.1926 -0.0734
 6221W        W10272   6.732   7.465  10.676 -0.1242 -0.1105 -0.0085
 6222W        W10273   1.267   6.027  10.287  0.1294 -0.2661 -0.1865
 6223W        W10274   5.770   1.891   1.016 -0.1629  0.1791 -0.0919
 6224W        W10275   7.180  10.129  10.382  0.0223  0.1216 -0.3216
 6225W        W10276   4.524   7.021  11.763 -0.0524 -0.1922 -0.1940
 6226W        W10277   0.039   0.932  13.119  0.1789  0.0307 -0.1092
 6227W        W10278   8.147   9.346  12.601  0.2186 -0.4909 -0.0934
 6228W        W10279   8.136   3.058   2.134  0.1782 -0.0580 -0.0380
 6229W        W10280   8.961   5.319   9.680 -0.2754 -0.4183  0.0641
 6230W        W10281   3.384   5.756   2.989 -0.1859  0.1014 -0.0867
 6231W        W10282   0.554   6.537  12.091 -0.0225 -0.0379  0.2031
 6232W        W10283   6.042   2.004  13.617  0.3171  0.0526  0.1027
 6233W        W10284   6.733   0.125   9.486 -0.0240 -0.3093  0.1051
 6234W        W10285   2.842   0.637   2.461 -0.2888 -0.1869  0.2186
 6235W        W10286   2.677   3.373  12.428 -0.2643 -0.0637 -0.2724
 6236W        W10287   1.888   5.794   0.692 -0.3068 -0.0536  0.5706
 6237W        W10288   4.615   3.863  13.846  0.0782 -0.1545 -0.2452
 6238W        W10289   4.259   9.165   3.294 -0.1230 -0.0117  0.1824
 6239W        W10290   6.779   0.056  11.252 -0.1761  0.2809 -0.0718
 6240W        W10291   5.612   3.719   4.694 -0.0850  0.0468 -0.2540
 6241W        W10292   9.308   8.675  13.884  0.1772  0.0144  0.1589
 6242W        W10293   3.074   1.629   4.075 -0.0424 -0.0206 -0.1301
 6243W        W10294   7.988  10.178   0.306 -0.1310 -0.1996  0.1808
 6244W        W10295   3.953   4.601  11.854 -0.1953  0.0780 -0.0312
 6245W        W10296   0.982   0.726   2.642  0.2105  0.0907 -0.0779
 6246W        W10297   1.077   3.418   1.887 -0.2144 -0.2484 -0.1607
 6247W        W10298   2.500   1.230   1.003 -0.1692 -0.3535 -0.3091
 6248W        W10299   4.453   1.891   3.690  0.1412 -0.0984 -0.1180
 6249W        W10300   5.457   4.558   4.016  0.4190 -0.0613  0.0865
 6250W        W10301   0.154   7.800   2.624  0.1045  0.2557  0.2149
 6251W        W10302   5.611   6.923   3.121  0.4411 -0.2072  0.2261
 6252W        W10303   5.416   8.308  13.505 -0.0098 -0.1757 -0.1536
 6253W        W10304   2.781   9.356   3.031  0.0685  0.2317 -0.0071
 6254W        W10305   2.878   4.507  11.284  0.0735 -0.1252 -0.1004
 6255W        W10306   2.676   9.973  13.873  0.0334  0.1387  0.0547
 6256W        W10307   8.427   5.029   2.956  0.0211  0.1062 -0.0185
 6257W        W10308   1.502   0.233   9.705 -0.1919 -0.3281 -0.1686
 6258W        W10309   7.271   4.274  13.442 -0.2220 -0.0916 -0.0833
 6259W        W10310   0.462   2.092   9.664 -0.1428 -0.0814  0.4042
 6260W        W10311   0.747   8.185  12.867  0.0204 -0.2787  0.0503
 6261W        W10312   7.366   2.315  12.411 -0.2314 -0.1406  0.1350
 6262W        W10313   4.790   4.667   3.021 -0.1023 -0.1018  0.0045
 6263W        W10314   1.300   3.533   3.817  0.1309 -0.0261  0.3183
 6264W        W10315   7.632   5.538   9.182 -0.1135  0.1899 -0.2625
 6265W        W10316   7.705   8.946   3.568  0.0866  0.1998 -0.0198
 6266W        W10317   2.910   1.701   5.711  0.0010  0.1248  0.0584
 6267W        W10318   9.143   4.768   9.934  0.0797  0.3689 -0.4279
 6268W        W10319   8.967   7.909  11.707  0.0599 -0.1863  0.2177
 6269W        W10320   8.097   2.757  10.197 -0.0529 -0.3083  0.2513
 6270W        W10321   9.573   5.066  11.894 -0.0348  0.4980 -0.0035
 6271W        W10322   7.217   6.732   0.708 -0.0274 -0.5065 -0.0339
 6272W        W10323   3.983   3.338  12.052  0.0366 -0.0933 -0.4891
 6273W        W10324   5.838   8.328  13.109  0.3015  0.1975 -0.1482
 6274W        W10325   8.823   3.863   9.437  0.2523  0.0806 -0.1416
 6275W        W10326   2.590   4.470   2.646  0.0769 -0.2901  0.0634
 6276W        W10327   1.207   1.797   0.889 -0.2268 -0.0910  0.0391
 6277W        W10328   7.759   0.872  11.472  0.0710 -0.0195  0.1173
 6278W        W10329   7.327   0.324   4.624 -0.3245  0.0537 -0.0976
 6279W        W10330   8.177   5.117   2.026  0.1229 -0.1192  0.1037
 6280W        W10331   5.972   1.053   0.499 -0.0902  0.1576 -0.1270
 6281W        W10332   1.790   1.046   9.903 -0.0882 -0.1389 -0.1745
 6282W        W10333   2.783   2.616   9.791  0.0230 -0.2778  0.0365
 6283W        W10334   0.160   5.514   1.744  0.0809  0.1383 -0.0300
 6284W        W10335   9.297   2.500   2.932  0.0052  0.1249  0.2037
 6285W        W10336   0.256   3.034   1.019 -0.1544 -0.1355  0.1220
 6286W        W10337   3.170   7.683  13.910 -0.1812 -0.3772 -0.1215
 6287W        W10338   3.715   9.769   3.172 -0.2833 -0.2547 -0.2666
 6288W        W10339   4.401   4.451  13.810 -0.1368 -0.0968 -0.2743
 6289W        W10340   1.536   5.958   1.987  0.0239  0.0872  0.5632
 6290W        W10341   7.423   4.575  12.245  0.0189  0.0525 -0.0617
 6291W        W10342   4.937   6.507   2.875 -0.1600 -0.1079  0.3337
 6292W        W10343   6.003   9.849  12.139 -0.0505  0.3004  0.3599
 6293W        W10344   5.439   7.483   3.695 -0.2869 -0.0190 -0.1254
 6294W        W10345   0.607   7.976  12.038  0.0033 -0.1184  0.0653
 6295W        W10346   4.137   8.005   4.644  0.0606  0.1187  0.1850
 6296W        W10347   0.808   6.941  12.127 -0.1278  0.3361  0.2543
 6297W        W10348   3.983   1.174   9.009 -0.1106 -0.0217  0.2167
 6298W        W10349   3.089   2.074   4.490  0.3039  0.1704 -0.0033
 6299W        W10350   4.799   3.620   2.338  0.3484  0.3428  0.2017
 6300W        W10351   2.189   4.598   2.253 -0.2691  0.0239 -0.0885
 6301W        W10352   4.127   6.123  12.247  0.0414  0.1592  0.0639
 6302W        W10353   1.454   4.150   1.436  0.1301  0.0362  0.3504
 6303W        W10354   2.083   2.958   4.978  0.2104  0.3383  0.3952
 6304W        W10355   2.910   6.476  11.173 -0.2788 -0.0655  0.1914
 6305W        W10356   9.431   5.767  11.140 -0.0356 -0.0487 -0.1664
 6306W        W10357   8.537   6.456  12.280  0.2850 -0.0132 -0.1210
 6307W        W10358   7.696   7.723   1.409  0.2232  0.0508  0.4645
 6308W        W10359   9.673   9.535  12.917  0.2328  0.2982  0.2545
 6309W        W10360   8.547   2.165   1.022  0.3266 -0.0866 -0.0346
 6310W        W10361   2.305   7.340  11.126  0.2454  0.0947 -0.2170
 6311W        W10362   9.651   0.434   1.018 -0.1819  0.0221 -0.3174
 6312W        W10363   9.300   2.135   0.099  0.0172  0.2586  0.0721
 6313W        W10364   4.931   1.204   5.403 -0.2555  0.1391 -0.0838
 6314W        W10365   0.401   9.841   2.567 -0.0669 -0.0965  0.1542
 6315W        W10366   2.898   3.833   1.824 -0.0508  0.1213 -0.2812
 6316W        W10367   7.276   0.709  11.811  0.2412  0.3265 -0.0172
 6317W        W10368   9.918   5.646  13.876  0.0757  0.1243 -0.1332
 6318W        W10369   6.149   4.334   0.883 -0.2166 -0.0343  0.2015
 6319W        W10370   9.194   0.519   0.738  0.0053  0.0020  0.1167
 6320W        W10371   8.005   4.294  13.355  0.1830 -0.3182 -0.0985
 6321W        W10372   4.878   7.755  13.057  0.0615  0.3181  0.1742
 6322W        W10373   3.070   7.706  10.695  0.1843  0.0183  0.2297
 6323W        W10374   8.732   4.654   0.865  0.1214 -0.2636 -0.1166
 6324W        W10375   3.441   9.614  12.550 -0.0344  0.0768  0.2213
 6325W        W10376   6.982   7.816   3.153 -0.0501 -0.0258  0.2754
 6326W        W10377   6.636   3.803   3.334  0.2057 -0.0501 -0.0694
 6327W        W10378   9.689   0.963  12.025 -0.2708  0.5220 -0.1289
 6328W        W10379   9.682   2.126  11.560 -0.2022 -0.1049  0.1524
 6329W        W10380   1.241   1.763   1.892 -0.1271 -0.2409  0.0831
 6330W        W10381   9.080   2.966   0.357 -0.1330 -0.2088 -0.0880
 6331W        W10382   3.623   3.264   0.083  0.0313 -0.0002 -0.2399
 6332W        W10383   5.342   9.630   3.864  0.4636  0.0168  0.2845
 6333W        W10384   2.186   4.766   9.023 -0.2646 -0.1979 -0.0268
 6334W        W10385   7.806   3.342  13.787  0.1888  0.1624  0.2537
 6335W        W10386   8.709   3.052   1.470  0.1874  0.2473 -0.0463
 6336W        W10387   5.651   4.147   2.979 -0.2116  0.1439  0.0235
 6337W        W10388   6.689   7.091  10.378 -0.0528  0.2664  0.1265
 6338W        W10389   2.456   4.931   0.046  0.1811  0.0692  0.0309
 6339W        W10390   9.867   0.640   3.916 -0.4734  0.0905 -0.0944
 6340W        W10391   7.528   8.748   4.491 -0.0315  0.0525  0.5958
 6341W        W10392   3.741   6.188  10.771 -0.1275 -0.2551  0.1152
 6342W        W10393   8.412   1.215  11.065  0.1574 -0.2635 -0.1436
 6343W        W10394   8.185   5.518   1.173  0.1501 -0.0477 -0.1029
 6344W        W10395   3.749   5.745   2.009  0.2284  0.0119  0.0618
 6345W        W10396   4.759   3.824   3.045 -0.3878 -0.3466 -0.1725
 6346W        W10397   2.595   6.245   0.066 -0.0855  0.0047  0.0448
 6347W        W10398   7.616   9.916   3.357  0.2044  0.4352 -0.1814
 6348W        W10399   9.482   5.599   4.199 -0.0327  0.1642 -0.3018
 6349W        W10400   4.297   3.269   0.131  0.2204  0.4194  0.1866
 6350W        W10401   9.455   3.212   0.070  0.2622 -0.3049  0.1465
 6351W        W10402   1.176   2.426  13.561 -0.2592  0.1187 -0.0133
 6352W        W10403   9.887   7.958  13.087 -0.1541  0.0239 -0.0943
 6353W        W10404   9.007   4.423   1.624 -0.0209  0.1648 -0.3192
 6354W        W10405   3.474   2.990   8.991  0.1536  0.1652 -0.0113
 6355W        W10406   0.007   2.061   3.871  0.1243  0.1214  0.1012
 6356W        W10407   1.318   1.684   0.359  0.1054 -0.0057 -0.1348
 6357W        W10408   8.970   6.920  12.619 -0.2853 -0.0479 -0.0011
 6358W        W10409   0.911   3.646   4.273  0.4461 -0.0362 -0.0892
 6359W        W10410   5.327   0.536  11.190 -0.0813 -0.1100 -0.0145
 6360W        W10411   2.155   6.375   1.469 -0.0536  0.1187 -0.1401
 6361W        W10412   4.490   8.542   3.644  0.1026  0.0426 -0.0782
 6362W        W10413   6.756   5.430   3.057 -0.0975  0.1175  0.1433
 6363W        W10414   4.378   0.476  10.669 -0.0003  0.0923 -0.2195
 6364W        W10415   6.115   9.943  10.273  0.2491  0.2151 -0.1364
 6365W        W10416   0.872   9.092   1.607  0.0435  0.0025 -0.2470
 6366W        W10417   6.704   5.108  12.490  0.3697  0.1358  0.0552
 6367W        W10418   1.382   4.272  13.220 -0.1560  0.3688 -0.1158
 6368W        W10419   7.209   1.532  13.724 -0.0478  0.2712  0.1615
 6369W        W10420   4.877   5.383   0.484 -0.0039 -0.0925  0.1200
 6370W        W10421   0.935   0.548   0.763 -0.1177 -0.0298  0.0324
 6371W        W10422   5.664   3.288  12.584 -0.1962 -0.1191 -0.0919
 6372W        W10423   9.770   4.741   3.183 -0.1761 -0.0272 -0.0116
 6373W        W10424   6.290   6.003  11.597  0.1720  0.0492  0.0037
 6374W        W10425   8.950   5.915  11.052 -0.1068  0.2231 -0.2026
 6375W        W10426  10.035   2.597  13.709 -0.0761  0.3143 -0.0398
 6376W        W10427   1.689   8.077   1.683  0.1141  0.2523 -0.0627
 6377W        W10428   3.127   0.443  11.500 -0.2889 -0.0709 -0.2122
 6378W        W10429   8.188   9.583  10.989  0.1038  0.2893  0.1338
 6379W        W10430   7.871   2.812  12.857  0.0687 -0.0525 -0.1956
 6380W        W10431   6.685   2.533   2.546  0.0754 -0.1838 -0.1644
 6381W        W10432   2.671   5.845  12.737 -0.3830  0.0488 -0.0322
 6382W        W10433   1.276   0.699  11.106 -0.0826  0.2447  0.2171
 6383W        W10434   3.533   0.189   1.661  0.0573  0.1616  0.2025
 6384W        W10435   7.211   2.127   0.846  0.3320  0.1405  0.1844
 6385W        W10436   6.928   4.952   4.174  0.0696  0.2517  0.0366
 6386W        W10437   0.872   6.685  11.287  0.1742  0.1314  0.1029
 6387W        W10438   6.890   0.282   4.901 -0.0871  0.0638 -0.1323
 6388W        W10439   5.049   0.697  11.673  0.1229  0.2426 -0.0200
 6389W        W10440   9.905   4.348   9.457  0.0531 -0.1601 -0.1178
 6390W        W10441   7.104   2.146   3.128  0.0777  0.0342  0.1848
 6391W        W10442   3.858   6.025   4.312  0.1376 -0.2359  0.2429
 6392W        W10443   8.061   8.948   3.986 -0.0462  0.0924 -0.0541
 6393W        W10444   3.891   7.647  12.762  0.4577  0.0435  0.2630
 6394W        W10445   6.308   6.573  10.975  0.0502  0.2206  0.3171
 6395W        W10446   9.916   2.118   3.084 -0.1961 -0.0197  0.0023
 6396W        W10447   2.981   8.568   4.281 -0.3390 -0.1765 -0.0059
 6397W        W10448   1.293   3.924  11.986 -0.2517 -0.0568  0.1865
 6398W        W10449   7.237   5.526  12.463  0.0365  0.0068 -0.1086
 6399W        W10450   8.000   6.477  11.363 -0.4021  0.1512  0.2555
 6400W        W10451   6.234   5.766   4.095 -0.1946  0.0541 -0.1373
 6401W        W10452   7.061   2.994   1.962  0.1191  0.2104  0.0811
 6402W        W10453   7.306   3.961   4.098  0.1358 -0.0540  0.1282
 6403W        W10454   9.383   0.546   1.485  0.2572 -0.2194  0.0784
 6404W        W10455   6.673   9.925   3.380  0.0143  0.2776  0.2282
 6405W        W10456   7.773   3.537  11.583  0.0036 -0.1417  0.0850
 6406W        W10457   8.769   3.741  11.068  0.1222  0.0046 -0.2237
 6407W        W10458   4.680   0.083  13.290 -0.0679  0.0884  0.0601
 6408W        W10459   7.848   6.719  12.336 -0.0086 -0.3484 -0.1285
 6409W        W10460   2.921   7.153  12.745  0.1669 -0.0073 -0.0782
 6410W        W10461   0.567   2.694   0.836  0.0118  0.2035  0.1793
 6411W        W10462   2.978   5.541   3.240  0.1227 -0.3808 -0.1408
 6412W        W10463   1.616   4.316  13.709  0.1065 -0.0503  0.1908
 6413W        W10464   0.785   4.139   2.570  0.0394  0.1027  0.1884
 6414W        W10465   3.129   5.021   1.111  0.2655  0.0069  0.2254
 6415W        W10466   4.295   3.379   2.403  0.0399  0.1008  0.3128
 6416W        W10467   8.438   7.531  13.713  0.0341 -0.3653  0.1720
 6417W        W10468   3.289   8.444  13.281 -0.1080 -0.2244  0.1729
 6418W        W10469   7.331   2.206   4.009  0.1468 -0.1611  0.0756
 6419W        W10470   1.216   9.617  10.045  0.1011  0.0783 -0.0240
 6420W        W10471  10.205   5.963   2.680 -0.3600 -0.0687 -0.0516
 6421W        W10472   4.697   3.143   5.345  0.0602 -0.4935 -0.1489
 6422W        W10473   2.601  10.112  12.924 -0.1770 -0.0320 -0.1700
 6423W        W10474   2.677   3.348   1.081  0.2967 -0.0255  0.2195
 6424W        W10475   9.675   6.013  11.587 -0.0918  0.2256  0.0851
 6425W        W10476   9.994   3.285   3.722 -0.0394 -0.1491 -0.2091
 6426W        W10477   6.828   0.526  11.183 -0.0375 -0.0241  0.0486
 6427W        W10478   4.464   4.182   1.136  0.0598  0.1520 -0.0624
 6428W        W10479  10.122   0.614   3.461  0.2699  0.1087 -0.0051
 6429W        W10480   0.249   9.326   0.437 -0.1949 -0.1659  0.2779
 6430W        W10481   6.589   0.732  13.342 -0.1224 -0.0106  0.0118
 6431W        W10482   4.238   6.725  12.638  0.0685  0.2798  0.1153
 6432W        W10483   6.039   5.528   1.757  0.1094 -0.1497 -0.3185
 6433W        W10484   6.084   8.837   0.084 -0.0755 -0.1235  0.1667
 6434W        W10485   7.649   0.371  11.474  0.0821 -0.1386  0.0546
 6435W        W10486   0.969   3.401   1.433  0.0008  0.1060 -0.1031
 6436W        W10487   2.128   2.696   9.697 -0.0403 -0.0397 -0.3093
 6437W        W10488   4.766   5.394   3.864  0.0433 -0.1487 -0.1179
 6438W        W10489   7.333   7.920  11.760  0.2992  0.2284  0.2161
 6439W        W10490   5.143   3.863   5.035 -0.3414  0.0453 -0.2157
 6440W        W10491   7.467   0.447  12.749  0.2135 -0.2484 -0.1305
 6441W        W10492   2.140   9.739   9.727 -0.2159 -0.2582 -0.2642
 6442W        W10493   9.674   2.532   2.605  0.0398  0.5112  0.2462
 6443W        W10494   0.019   3.338   4.324 -0.0608 -0.1276 -0.0565
 6444W        W10495   9.470   3.706  12.320  0.1834  0.1527 -0.0141
 6445W        W10496   9.415   7.857  10.791 -0.1886 -0.2735 -0.0771
 6446W        W10497   1.256   4.955   2.894 -0.0723 -0.2028 -0.0969
 6447W        W10498   9.537   1.545  10.614  0.2441  0.1912 -0.3510
 6448W        W10499   7.311   0.939  12.636  0.1252 -0.2107 -0.0277
 6449W        W10500   6.560   8.800   5.570  0.3864  0.3848 -0.2862
 6450W        W10501   2.221   7.506   9.496  0.2606  0.1739  0.0555
 6451W        W10502   8.133   3.810   2.420 -0.0643 -0.2477 -0.1478
 6452W        W10503   0.611   1.121   9.853  0.2655 -0.1188 -0.3227
 6453W        W10504   5.050   0.114   0.081  0.0437  0.0472  0.0936
 6454W        W10505   9.583   2.866   3.145  0.1701  0.0822  0.5974
 6455W        W10506   9.722   2.972  13.657  0.0806 -0.0868 -0.0069
 6456W        W10507   6.280   7.842  11.742 -0.0658 -0.0493 -0.1822
 6457W        W10508   8.039   4.486  10.468  0.0343  0.1160 -0.0025
 6458W        W10509   2.329   2.585   4.751 -0.1613 -0.0673  0.3593
 6459W        W10510   1.717   4.980  13.028  0.3937  0.0174 -0.3234
 6460W        W10511   0.769   7.398   0.160 -0.2409  0.1642 -0.0203
 6461W        W10512   7.629   0.515  13.789 -0.2475  0.0914  0.1461
 6462W        W10513   4.625   3.078   4.433 -0.1087  0.0483  0.3548
 6463W        W10514   1.594   6.977   3.462  0.3603  0.1512 -0.0395
 6464W        W10515   8.082  10.030  12.083  0.3245 -0.0303  0.0622
 6465W        W10516   8.226   6.869   3.468  0.1243 -0.1236  0.2048
 6466W        W10517   4.283   0.177  13.023  0.1865 -0.1365  0.1061
 6467W        W10518   8.199   2.860   0.453 -0.0224 -0.1282 -0.1853
 6468W        W10519   7.320   3.902  10.425  0.1355 -0.2123  0.0294
 6469W        W10520   4.687   4.286  11.225 -0.0520 -0.0844 -0.0462
 6470W        W10521   1.142   7.108   0.574  0.3311  0.1962 -0.1033
 6471W        W10522   9.240   8.230   2.033 -0.0458 -0.0061  0.0226
 6472W        W10523   0.403   1.303  11.452  0.0918  0.1721  0.2014
 6473W        W10524   0.346   5.291   1.342  0.0274 -0.1636  0.0902
 6474W        W10525   4.306   4.816   0.874  0.1979 -0.1699 -0.3354
 6475W        W10526   4.918   2.499   1.822  0.2839  0.0345  0.0882
 6476W        W10527   9.171   7.416   0.437 -0.0859 -0.0919 -0.0880
 6477W        W10528   3.670   2.296  10.587 -0.3210 -0.3221 -0.2054
 6478W        W10529   0.924   2.611   3.565 -0.1031 -0.1693 -0.0444
 6479W        W10530   0.904   3.275   9.863  0.4310 -0.0798 -0.1156
 6480W        W10531   2.607   7.149   2.204 -0.2208  0.1121 -0.2304
 6481W        W10532   2.106   6.136   2.474  0.3572 -0.1790  0.1793
 6482W        W10533   4.252   2.420  12.084  0.1611 -0.1976 -0.2237
 6483W        W10534   8.817   2.696   5.223  0.1370 -0.0513  0.1297
 6484W        W10535   9.491   4.728  12.744 -0.2574  0.4554 -0.0196
 6485W        W10536   7.283   0.177  11.235  0.0924  0.1354  0.0478
 6486W        W10537   0.589   2.939  12.736  0.2239  0.3740 -0.2271
 6487W        W10538   1.439   0.694   2.545 -0.2930 -0.2079  0.0699
 6488W        W10539   7.811   2.564  12.381 -0.2728  0.1633 -0.0401
 6489W        W10540   5.049   0.317   2.883  0.0318  0.0099  0.1018
 6490W        W10541   7.054   1.566  10.144 -0.0161 -0.2255 -0.0754
 6491W        W10542   1.488   1.113  10.760  0.2177 -0.0158  0.1519
 6492W        W10543   9.712   3.199  13.132 -0.0187  0.1048 -0.2301
 6493W        W10544  10.181   0.760  11.618  0.1191  0.0412 -0.1055
 6494W        W10545   0.326   5.389   2.923  0.1798  0.3600 -0.3707
 6495W        W10546   9.353   6.062  10.020 -0.2314 -0.0695 -0.0788
 6496W        W10547   3.259   7.329   1.014  0.2249  0.1212 -0.1184
 6497W        W10548   0.324   8.310  10.754  0.4981 -0.1054 -0.1459
 6498W        W10549   5.542   8.623   1.674 -0.0116 -0.1486 -0.0551
 6499W        W10550   0.375   1.989  12.029  0.1611 -0.0272 -0.3264
 6500W        W10551   3.932   9.594  12.512 -0.1656  0.1154 -0.2963
 6501W        W10552   4.829   1.245  11.924 -0.0231 -0.0884 -0.0935
 6502W        W10553   5.570   9.974   3.484  0.0818 -0.0366 -0.1761
 6503W        W10554   1.397   7.935  13.380 -0.3735  0.0592  0.1104
 6504W        W10555   0.934   4.182   0.499  0.0494 -0.0259 -0.1798
 6505W        W10556   8.301   0.399   2.383  0.4415 -0.0264 -0.1460
 6506W        W10557   6.710   5.185  13.057 -0.1048 -0.0833  0.1350
 6507W        W10558   0.304   6.648  13.431 -0.1372 -0.1647  0.3248
 6508W        W10559   5.655   4.050   0.877 -0.1920  0.1980  0.3402
 6509W        W10560   9.919   8.062   1.488  0.0143  0.0849 -0.0390
 6510W        W10561   7.006   8.303   0.664  0.2795 -0.1758  0.0450
 6511W        W10562   1.893   1.494   2.034 -0.1262  0.0684  0.0615
 6512W        W10563   6.208   4.692   9.481  0.2417  0.1757  0.0175
 6513W        W10564   1.410   7.231   0.966 -0.0912 -0.0064  0.1066
 6514W        W10565   9.987   3.091   5.219  0.1022 -0.1583 -0.0280
 6515W        W10566   3.486   6.900   3.401  0.2137  0.1393  0.1626
 6516W        W10567   2.366   5.223   9.712 -0.1666 -0.0351  0.2865
 6517W        W10568   3.403   0.297  11.032 -0.4589  0.1693  0.1400
 6518W        W10569   6.497   2.405  10.469 -0.1712  0.1668  0.1371
 6519W        W10570   7.701   7.112  10.376 -0.0188 -0.0969 -0.2373
 6520W        W10571   7.331   2.934   9.496 -0.1659  0.1251  0.1103
 6521W        W10572   3.568   8.483  10.959  0.3249  0.2734 -0.3179
 6522W        W10573   0.890   3.309   4.655 -0.0842 -0.3152 -0.1405
 6523W        W10574  10.060   9.593  11.811  0.0587  0.0383 -0.2911
 6524W        W10575   8.212   0.908   3.092 -0.1211  0.0161  0.2197
 6525W        W10576   3.934   2.233   2.419 -0.1575  0.2707 -0.0054
 6526W        W10577   7.607   1.316   1.575 -0.2679  0.0386 -0.0715
 6527W        W10578   9.576   5.298   9.511 -0.1234 -0.1499  0.2653
 6528W        W10579   6.052   6.486   5.231 -0.2615 -0.0802  0.0312
 6529W        W10580   4.935   8.309   3.075  0.0566  0.2334  0.1443
 6530W        W10581   8.567   9.578  10.190  0.0770  0.0632 -0.1076
 6531W        W10582   7.967   4.195   9.559 -0.1103 -0.0122 -0.0527
 6532W        W10583   8.095   9.389   4.913  0.1922  0.1552 -0.0570
 6533W        W10584   9.814   2.608   1.732 -0.1553 -0.0980  0.1793
 6534W        W10585   6.975   0.490  12.970  0.0308  0.0535 -0.1033
 6535W        W10586   4.776   0.367   3.490  0.3301 -0.0506  0.1948
 6536W        W10587   0.435   4.265   2.056  0.0395 -0.0758 -0.0401
 6537W        W10588   6.929   8.729   2.628 -0.0127 -0.3825 -0.0051
 6538W        W10589   6.759   2.854   9.525  0.1898 -0.0856 -0.0057
 6539W        W10590   7.863   7.388   0.706 -0.0337 -0.0244  0.1536
 6540W        W10591   2.433   8.130  12.048  0.1977  0.0631 -0.2204
 6541W        W10592   0.697   1.646  12.180 -0.1096 -0.1328 -0.1671
 6542W        W10593   8.473   3.941  13.664 -0.1082  0.0998  0.0515
 6543W        W10594   8.780  10.169   4.435 -0.1511  0.2876  0.1134
 6544W        W10595   1.899   3.689  11.510  0.1489  0.1388 -0.1477
 6545W        W10596   0.666   2.661  13.644 -0.0763  0.2011  0.1853
 6546W        W10597   3.448   7.379  11.599 -0.1011  0.1617  0.1233
 6547W        W10598   0.406   4.780   5.509 -0.1900  0.0877 -0.3252
 6548W        W10599   5.621   9.028   0.160  0.2887 -0.0543  0.0427
 6549W        W10600   2.485   3.676   5.582  0.3135  0.2382  0.0329
 6550W        W10601   9.773   2.685  13.291  0.0807 -0.2355  0.1582
 6551W        W10602   3.122   3.234   3.392  0.0474  0.1560 -0.1098
 6552W        W10603   6.881   0.899   5.352 -0.0522  0.0445 -0.0305
 6553W        W10604   2.134   6.940  10.816 -0.1212 -0.1905  0.1742
 6554W        W10605   4.142   9.927   9.960 -0.3743 -0.1037 -0.1403
 6555W        W10606  10.091   6.478  13.621  0.0015  0.2485 -0.0114
 6556W        W10607   6.315   9.640  13.571 -0.1225 -0.0195 -0.3107
 6557W        W10608   3.516   6.898   1.660 -0.0056  0.1848  0.0293
 6558W        W10609   0.784   8.437   1.998  0.0515 -0.1467  0.0138
 6559W        W10610   6.955   6.645   0.003 -0.1983 -0.0270  0.3480
 6560W        W10611   8.251   8.485   1.945 -0.1953  0.2483 -0.0014
 6561W        W10612   2.949   9.605   3.889 -0.1026 -0.1540 -0.1599
 6562W        W10613   4.206   9.545   2.918  0.0786 -0.1603  0.1484
 6563W        W10614   0.062   2.835   4.456 -0.2080 -0.0219  0.0358
 6564W        W10615   9.843   6.827   0.620 -0.0238 -0.0103 -0.2085
 6565W        W10616   9.320   2.902  10.806 -0.0511  0.2186 -0.1578
 6566W        W10617   7.720   9.809  11.752  0.0522 -0.1764  0.4303
 6567W        W10618   1.680   6.733   2.597  0.2703 -0.1815  0.4090
 6568W        W10619   2.137   0.588  10.632  0.2486  0.1232 -0.0434
 6569W        W10620   2.404   0.534   3.135 -0.2554  0.1487 -0.2022
 6570W        W10621   9.875   1.536   4.494  0.0616 -0.1221  0.3093
 6571W        W10622   9.360   6.834   1.585 -0.0452 -0.0329 -0.0669
 6572W        W10623   0.950   0.989  13.158 -0.2166  0.2919  0.0299
 6573W        W10624   3.642   4.754   3.855 -0.3783 -0.0753 -0.2424
 6574W        W10625   7.432   2.004   2.130  0.2146 -0.1609 -0.2207
 6575W        W10626   1.422   2.660   1.511 -0.2706 -0.0112  0.2994
 6576W        W10627   9.556   9.786  13.350 -0.0898  0.2084  0.0725
 6577W        W10628   0.951   4.881   0.070 -0.0218 -0.1111 -0.3882
 6578W        W10629   3.579  10.144   4.252 -0.0740 -0.2581 -0.0385
 6579W        W10630   1.630   8.356  12.120 -0.1748 -0.0011 -0.3622
 6580W        W10631   8.642   2.323   3.498  0.1372 -0.0916  0.0320
 6581W        W10632   8.009   9.663   2.460 -0.2386 -0.4632 -0.3556
 6582W        W10633  10.103   8.065   2.257  0.2628 -0.0988 -0.3058
 6583W        W10634   5.084   8.944   0.865  0.2144 -0.3648 -0.0647
 6584W        W10635   1.872   5.274   9.934  0.3170  0.0261 -0.0328
 6585W        W10636   0.004   4.884  11.273 -0.2198  0.0758 -0.0389
 6586W        W10637   0.068   1.743   9.890  0.0123 -0.0754 -0.0764
 6587W        W10638   4.566   9.128  13.171 -0.1556 -0.0690 -0.0850
 6588W        W10639   9.751   3.517   0.647  0.0302  0.1943 -0.0318
 6589W        W10640   0.677   1.236  10.376 -0.3520 -0.0340 -0.1954
 6590W        W10641   4.962   3.064  12.385 -0.1367  0.1605 -0.2516
 6591W        W10642   6.553   8.218  12.040  0.0317 -0.1751 -0.1398
 6592W        W10643   3.282   2.856  11.953 -0.3774 -0.0268 -0.0896
 6593W        W10644   7.490   7.964  10.431 -0.0059 -0.3299  0.1407
 6594W        W10645   1.495   5.802   0.943 -0.0742  0.0385  0.1782
 6595W        W10646   1.404   8.627   0.578 -0.3174  0.1500  0.1214
 6596W        W10647   4.872   9.691   4.814 -0.2497  0.4258 -0.2222
 6597W        W10648   2.877   5.893   1.023  0.2995 -0.1584  0.1710
 6598W        W10649   4.555   3.243   3.845 -0.2616 -0.2581  0.1199
 6599W        W10650   2.207   2.080   4.585 -0.1760 -0.0890 -0.0541
 6600W        W10651  10.055   0.344   2.973  0.0671  0.4594 -0.1165
 6601W        W10652   0.954   7.137   1.105 -0.1976 -0.0685 -0.3797
 6602W        W10653   3.100   9.419   9.384 -0.1559  0.1933 -0.2174
 6603W        W10654   8.469   4.405   4.716  0.1003 -0.3693 -0.2084
 6604W        W10655   5.488   4.532   0.164  0.2115  0.0533 -0.2630
 6605W        W10656   2.644   6.345   3.224  0.1755 -0.1913 -0.1628
 6606W        W10657   3.496   4.550  10.410  0.0963 -0.1511 -0.0673
 6607W        W10658   7.776   1.544   0.590  0.2270  0.2752  0.2502
 6608W        W10659   8.337   4.839  10.202 -0.2173  0.0161 -0.1825
 6609W        W10660   2.930   2.471  11.999  0.0701  0.0352  0.1359
 6610W        W10661   0.402   4.969   0.169  0.2207 -0.1539  0.0646
 6611W        W10662   3.057   7.950   1.947 -0.1737 -0.1896 -0.1143
 6612W        W10663   0.315   2.771   0.378 -0.0070 -0.0816  0.2703
 6613W        W10664   4.846   6.032  13.408 -0.0172 -0.2182 -0.0933
 6614W        W10665   1.679   9.947   2.623  0.1761  0.3276 -0.2495
 6615W        W10666   2.247   7.501   0.571 -0.2717  0.0060  0.2587
 6616W        W10667   0.455   3.458   9.659  0.2351  0.0337 -0.1624
 6617W        W10668   2.074   8.240   4.074 -0.1021  0.0394  0.3586
 6618W        W10669   1.725   6.826  11.232  0.0828  0.2023  0.1215
 6619W        W10670   2.856   9.858   9.433 -0.2658 -0.2663 -0.4457
 6620W        W10671   1.613   9.714  11.709  0.2389 -0.0781  0.0368
 6621W        W10672   7.160   6.513   1.174 -0.2555 -0.2409  0.0791
 6622W        W10673   9.999   6.731   4.304  0.2199  0.0328 -0.0829
 6623W        W10674   2.519   1.737   5.224  0.4582  0.0140  0.2740
 6624W        W10675   2.269   5.552  11.869 -0.4347 -0.0313  0.1595
 6625W        W10676   7.636   4.750   2.516 -0.3977 -0.0112 -0.2503
 6626W        W10677   8.170   1.909  11.872 -0.0128 -0.1452  0.5748
 6627W        W10678   1.995   3.246   3.056 -0.1455 -0.1667  0.1149
 6628W        W10679   8.758   1.849  12.528 -0.1805  0.1512 -0.2265
 6629W        W10680   7.839   3.726   0.226 -0.0194  0.3820  0.2019
 6630W        W10681   9.376   0.528  11.894 -0.2003 -0.5136  0.0734
 6631W        W10682   3.601   1.242   1.711 -0.0074  0.2957  0.2502
 6632W        W10683   7.454   4.453   9.710  0.1273 -0.0532 -0.0842
 6633W        W10684   2.680   7.288  10.736 -0.0423 -0.2130  0.1391
 6634W        W10685   2.707   4.483   4.749  0.1855 -0.2108 -0.3983
 6635W        W10686   3.467   3.988   1.985  0.1327 -0.0569 -0.0790
 6636W        W10687   1.051   0.536  13.383 -0.4015 -0.1051 -0.0669
 6637W        W10688   8.142   4.305   0.667 -0.1954  0.1792 -0.2427
 6638W        W10689   4.316   6.436  13.601  0.1083  0.0624 -0.2311
 6639W        W10690   5.579   4.367   1.724 -0.1651  0.0377  0.0179
 6640W        W10691   4.837   3.185   9.437  0.0705  0.1030  0.0228
 6641W        W10692   6.753   6.549   1.923  0.2688 -0.1730  0.3505
 6642W        W10693   5.250   8.690  12.183  0.2121 -0.2612 -0.3687
 6643W        W10694   9.922   5.662   3.544  0.1741  0.0540 -0.0230
 6644W        W10695   9.658   3.588  12.821 -0.1664  0.2046 -0.0585
 6645W        W10696   3.656   3.271   4.121 -0.2564  0.0018  0.0807
 6646W        W10697   9.999   7.022   0.163 -0.1671 -0.0585  0.3484
 6647W        W10698   3.277   8.281   1.294  0.1076  0.3197 -0.0811
 6648W        W10699   3.170   4.103  12.087  0.2279  0.1015 -0.4722
 6649W        W10700   6.683   7.092   3.969 -0.2655  0.0637  0.1143
 6650W        W10701   4.781   3.465  10.532 -0.1699 -0.0334  0.0383
 6651W        W10702   6.387   7.324   3.631 -0.0198 -0.2162 -0.2842
 6652W        W10703   2.682   0.961   3.202 -0.1442 -0.1078 -0.0003
 6653W        W10704   7.616   2.645  13.292  0.0122 -0.1283 -0.0636
 6654W        W10705   2.794   7.975  10.338 -0.2381 -0.4057  0.0168
 6655W        W10706   6.311   7.143   2.683 -0.0247 -0.2358  0.2747
 6656W        W10707   2.222   6.979   2.558  0.0085  0.1794  0.0873
 6657W        W10708   5.958   3.758   2.816  0.0145 -0.3928 -0.1908
 6658W        W10709   5.181   3.713   0.618 -0.0570 -0.0039  0.1564
 6659W        W10710   1.016   1.381  10.007  0.1031 -0.3042 -0.1806
 6660W        W10711   5.074   4.233   3.050 -0.0149 -0.0006 -0.0492
 6661W        W10712   7.965   4.364   1.512 -0.1923 -0.2479  0.1987
 6662W        W10713   7.416   6.974   2.070  0.0972 -0.2926 -0.0490
 6663W        W10714   2.189   1.576   0.880  0.1052 -0.1596  0.1808
 6664W        W10715   0.826   1.742   0.016  0.1275 -0.2016 -0.1299
 6665W        W10716   0.381   5.105  11.024  0.1534 -0.1844  0.1556
 6666W        W10717  10.133   9.202   2.119  0.2373 -0.3782  0.0257
 6667W        W10718   6.732   1.815   0.779  0.0201  0.0753 -0.1157
 6668W        W10719   8.471   2.769   2.486  0.2411 -0.0613 -0.3020
 6669W        W10720   6.189   8.205  13.588  0.3441  0.0052  0.4192
 6670W        W10721   3.981   9.972   2.739  0.4399 -0.2398 -0.1329
 6671W        W10722   1.266   7.233  12.070  0.2212 -0.1434  0.1126
 6672W        W10723   3.895   7.031  12.500  0.1958 -0.1025  0.2158
 6673W        W10724   4.210   6.813   2.916  0.2252 -0.0572  0.0010
 6674W        W10725   9.186   4.728   0.006  0.0644  0.0464 -0.2755
 6675W        W10726   9.198   2.186   4.153 -0.4692 -0.3634 -0.2817
 6676W        W10727   8.643   5.122  12.020  0.0431 -0.3813 -0.0351
 6677W        W10728   9.294   5.513   1.914  0.2182  0.0142  0.0548
 6678W        W10729   5.756   7.993  12.517  0.4854  0.3708 -0.1304
 6679W        W10730   8.285   7.974   1.963  0.0306 -0.4941  0.3678
 6680W        W10731   5.002   6.909  13.398  0.0496 -0.0256  0.0222
 6681W        W10732   6.075   5.775   3.599  0.1750  0.0484  0.0462
 6682W        W10733   7.774   6.244  10.956 -0.0758 -0.1621 -0.0489
 6683W        W10734   7.444   7.132  11.456  0.2178 -0.1779 -0.1011
 6684W        W10735   1.327   6.453   4.478 -0.1979 -0.0242  0.1118
 6685W        W10736   5.760   8.979   4.837  0.1142  0.1815 -0.3461
 6686W        W10737   9.915   7.558   2.035 -0.2309  0.3998  0.1056
 6687W        W10738   4.139   8.126   3.467  0.1485  0.3762 -0.0035
 6688W        W10739   8.388   2.448   1.454  0.0740  0.1859 -0.1748
 6689W        W10740   7.190   1.668   4.142 -0.0390  0.0052  0.0173
 6690W        W10741   0.530   1.535  12.664 -0.1092 -0.0242 -0.0237
 6691W        W10742   1.627   2.500   2.795 -0.0907  0.4849  0.0046
 6692W        W10743   3.029   9.129   1.459  0.1531 -0.3693 -0.0611
 6693W        W10744   7.089   3.812  13.490  0.1490 -0.0612  0.0919
 6694W        W10745   0.236   4.926  10.583  0.3651  0.0396 -0.1688
 6695W        W10746   7.143   9.003  10.037 -0.0738 -0.1071  0.0553
 6696W        W10747   1.653   0.153   1.710  0.0880  0.1032  0.1329
 6697W        W10748   6.749   1.277  13.447  0.1012  0.0890  0.0691
 6698W        W10749   0.730   1.152   1.475 -0.2232 -0.0295 -0.1226
 6699W        W10750   0.445   9.138  12.592  0.1941 -0.1187 -0.1129
 6700W        W10751   2.100   7.333  12.546 -0.1587  0.0377  0.0090
 6701W        W10752   6.174   1.766  10.255  0.1542 -0.3253  0.1088
 6702W        W10753   3.811   5.644   0.731  0.2366  0.0884  0.2372
 6703W        W10754   3.777   4.446  12.898 -0.2292  0.0886 -0.2562
 6704W        W10755   6.705   2.409   9.754  0.0372  0.1590  0.1529
 6705W        W10756   7.190   3.956   0.026  0.1029  0.1857 -0.1365
 6706W        W10757   5.659   5.814   2.020 -0.0433  0.1970 -0.1468
 6707W        W10758   1.850   3.170   9.773 -0.2238 -0.1236  0.4870
 6708W        W10759   8.318   7.311  11.278  0.1377  0.1615  0.1253
 6709W        W10760   0.563   7.338   3.393 -0.2215  0.0674 -0.0101
 6710W        W10761   9.778   2.820   3.671  0.3566  0.3653  0.1700
 6711W        W10762   6.254   5.489   9.849 -0.0701 -0.1611 -0.1618
 6712W        W10763   7.257   7.410  10.488  0.0145 -0.1842  0.0243
 6713W        W10764   2.375   8.902  10.058 -0.3237  0.3674  0.3246
 6714W        W10765   3.816   1.388  13.822  0.1635 -0.1566  0.0528
 6715W        W10766   7.864   2.326   4.555 -0.2008 -0.0959  0.1664
 6716W        W10767   5.457   3.917   3.839 -0.0707  0.0749  0.3041
 6717W        W10768   0.026   4.819   2.492 -0.0040 -0.0900 -0.0770
 6718W        W10769   3.202   6.095  11.104 -0.3568 -0.3766 -0.0707
 6719W        W10770   4.255   2.213   3.272  0.1290  0.0926 -0.1435
 6720W        W10771   7.595   1.672  10.131  0.2087 -0.1605 -0.1111
 6721W        W10772   5.321   1.272   0.389  0.3622 -0.0085  0.1124
 6722W        W10773   8.202   1.820   0.794 -0.1855  0.3224 -0.0416
 6723W        W10774   8.223   3.357   9.805 -0.0690  0.0699  0.1785
 6724W        W10775   4.214   7.732   9.257  0.2041  0.0119 -0.0539
 6725W        W10776   8.987   5.733   2.297 -0.1294  0.1772  0.0884
 6726W        W10777  10.037   8.220   2.756  0.0275 -0.2542 -0.0966
 6727W        W10778   2.437   7.273   0.130  0.1992  0.1591  0.3962
 6728W        W10779   1.174   9.446   1.435 -0.2364  0.1829 -0.1134
 6729W        W10780   4.355   1.729  12.456 -0.0444 -0.0420 -0.0673
 6730W        W10781   2.258   2.298   2.727 -0.0940 -0.1688 -0.0487
 6731W        W10782   6.409   1.460   3.080 -0.2735 -0.3416 -0.2558
 6732W        W10783   0.145   3.729   1.495 -0.2480  0.2448 -0.0539
 6733W        W10784   9.341   6.033  12.402 -0.0825 -0.0468 -0.2030
 6734W        W10785   9.122   9.395   4.304  0.1204  0.0150  0.0704
 6735W        W10786   2.527   6.615   2.341 -0.1955 -0.3207 -0.2239
 6736W        W10787   9.418   0.227  12.714 -0.0880  0.0353  0.1297
 6737W        W10788   5.567   0.081   5.337  0.1461  0.2717 -0.3046
 6738W        W10789   1.036   1.887   4.096  0.0359  0.0681  0.2533
 6739W        W10790   0.458   9.434   3.309 -0.1086 -0.0722 -0.1660
 6740W        W10791   0.124   5.378  11.975  0.2645 -0.0885 -0.0352
 6741W        W10792   7.285   5.385   4.200  0.0249 -0.0523 -0.4518
 6742W        W10793   9.389   4.001   1.641 -0.2054 -0.2425 -0.1368
 6743W        W10794   1.858   3.869   1.463 -0.1362 -0.1037  0.1723
 6744W        W10795   8.095   3.403   3.171  0.3591 -0.3714 -0.1394
 6745W        W10796   5.878   4.302   9.249  0.0959 -0.2356  0.0281
 6746W        W10797   7.615   0.088   9.570  0.1912  0.0904 -0.2447
 6747W        W10798   6.480   2.098  13.772 -0.1897 -0.0767  0.1803
 6748W        W10799   6.532   9.740  11.372 -0.3036 -0.2510  0.0824
 6749W        W10800   8.728   9.504  11.746  0.2435  0.2692 -0.0548
 6750W        W10801   5.913   7.165  12.003  0.0411  0.0128  0.0832
 6751W        W10802   5.500   8.458  10.303 -0.3667  0.1507 -0.0456
 6752W        W10803   0.777   5.611   4.159  0.1919 -0.4985  0.0745
 6753W        W10804   8.794   1.525   9.780 -0.1997 -0.1786  0.0865
 6754W        W10805   2.195   3.895   3.573  0.2887 -0.1764 -0.1024
 6755W        W10806   1.959   0.482   9.882  0.1095  0.3930  0.1226
 6756W        W10807   1.458   4.037  11.303 -0.4196 -0.2582 -0.4027
 6757W        W10808   6.872   9.923   1.145 -0.0267  0.0905  0.2453
 6758W        W10809   9.393   2.929   0.932  0.1123  0.2774 -0.0484
 6759W        W10810   7.362   9.601   4.389  0.0272 -0.3640  0.2327
 6760W        W10811   1.105   7.556  10.846  0.3194 -0.0246 -0.1418
 6761W        W10812   3.237   7.713  13.357  0.0715 -0.1210 -0.0420
 6762W        W10813   6.018   8.856  11.608  0.2061  0.2639 -0.1186
 6763W        W10814   2.531   5.663  11.288  0.3409  0.1440  0.1164
 6764W        W10815   0.399   1.726   3.924  0.1319  0.1734  0.0451
 6765W        W10816   5.140   2.275  11.127  0.1375 -0.2454  0.2817
 6766W        W10817   3.875   0.266  11.296 -0.2028  0.0922 -0.1243
 6767W        W10818   9.403   2.032  11.964  0.3625  0.0318 -0.0858
 6768W        W10819   6.558   6.299  13.169 -0.1664 -0.5871 -0.1548
 6769W        W10820   8.398   8.428   0.134 -0.1007  0.0653  0.0870
 6770W        W10821   7.375   9.639  12.681 -0.1073  0.1061 -0.0072
 6771W        W10822   7.161   8.774  11.373  0.1042  0.0238  0.2487
 6772W        W10823   0.447   0.880   3.502  0.1135  0.1182 -0.3046
 6773W        W10824   2.903   2.129   3.995 -0.3255 -0.1064  0.0802
 6774W        W10825   7.735   2.286  12.836  0.2232 -0.1914 -0.1711
 6775W        W10826   1.174   2.826   2.719 -0.1901 -0.2142  0.0615
 6776W        W10827   8.175   5.060  12.277 -0.3735  0.0121 -0.0987
 6777W        W10828   6.627   1.386  10.410  0.1366 -0.2996  0.3053
 6778W        W10829   8.472   9.045   3.176  0.1829  0.1112  0.2917
 6779W        W10830   9.346   6.375   2.309 -0.4126  0.5422 -0.2300
 6780W        W10831   6.534   4.743  12.168  0.0861 -0.1027 -0.0061
 6781W        W10832   8.180   7.443   0.181  0.0205 -0.1841  0.1176
 6782W        W10833   6.863   8.728   3.731 -0.1486  0.3752  0.3030
 6783W        W10834   6.540   4.920   3.393  0.1214 -0.0925  0.0841
 6784W        W10835   4.339   5.819   2.132 -0.0045  0.0698 -0.1511
 6785W        W10836   2.777   8.715   1.352 -0.1021 -0.1241  0.3685
 6786W        W10837   9.171   8.203   1.431  0.0589  0.2363  0.1277
 6787W        W10838   0.054   7.762  11.717  0.0743 -0.0353 -0.1729
 6788W        W10839   7.654   2.253   5.797  0.0642 -0.0379 -0.1432
 6789W        W10840   7.211   9.793   0.425  0.0204 -0.1296  0.1722
 6790W        W10841   2.061   5.162  12.209 -0.2173  0.2156 -0.0514
 6791W        W10842   6.815   4.387   3.268  0.0953  0.3333 -0.3600
 6792W        W10843   5.790   7.957  13.462 -0.3271 -0.2254  0.1008
 6793W        W10844   2.739   6.764   1.912 -0.0464 -0.1108  0.1904
 6794W        W10845   3.084   2.299  10.036  0.2516  0.0452  0.1031
 6795W        W10846   1.033   1.197   4.549  0.0894 -0.0736 -0.0654
 6796W        W10847   5.290   1.671   3.186  0.1048 -0.0135  0.2117
 6797W        W10848   4.626   9.076   0.076 -0.2111 -0.0555  0.1129
 6798W        W10849   4.305   7.694   2.458 -0.2455  0.1249 -0.0863
 6799W        W10850   3.816   4.150  10.993  0.1678 -0.0042 -0.3058
 6800W        W10851   1.644   3.332   2.083  0.2368  0.1900  0.2510
 6801W        W10852   3.571   5.514   3.371  0.0900 -0.0117 -0.0912
 6802W        W10853   1.266   0.720  12.355 -0.1147 -0.0242 -0.2630
 6803W        W10854   3.517   6.116   1.690  0.1207 -0.0747 -0.0578
 6804W        W10855   4.194   1.992   1.999  0.2786  0.2116 -0.2512
 6805W        W10856   0.062   3.449   4.817 -0.1813 -0.3680 -0.1275
 6806W        W10857   2.137   0.639  12.969 -0.0019 -0.0939 -0.0648
 6807W        W10858   0.145   8.462   1.307 -0.0240  0.0428  0.1441
 6808W        W10859   5.527   9.510   0.204  0.1382 -0.0458  0.2034
 6809W        W10860   7.366   8.606   3.471 -0.1243 -0.0993 -0.0612
 6810W        W10861   3.111   5.654  13.338 -0.0922  0.5831  0.1930
 6811W        W10862   3.188   7.240  10.535 -0.0176 -0.0410  0.2155
 6812W        W10863   5.054   2.629   0.693  0.0412 -0.2152  0.1993
 6813W        W10864   4.762   7.914  10.932  0.0997  0.0388 -0.2142
 6814W        W10865   0.542   5.965  10.879  0.1567 -0.2687 -0.1897
 6815W        W10866   7.436   4.787  12.685 -0.0628 -0.0985 -0.0569
 6816W        W10867   5.263   9.047   3.033  0.0992 -0.3413  0.2104
 6817W        W10868   9.604   3.064   0.515  0.0735 -0.2872  0.1598
 6818W        W10869   4.546   4.920   9.623  0.3654  0.3310 -0.0024
 6819W        W10870   2.594   8.704  11.906 -0.1442 -0.0897  0.0703
 6820W        W10871   1.021   0.375  11.446 -0.1334 -0.1230 -0.0793
 6821W        W10872   7.851  10.023  11.274  0.3489 -0.0255  0.0734
 6822W        W10873   7.785   7.459  13.796  0.2497 -0.0439  0.1359
 6823W        W10874   9.257   2.431   2.402  0.0973  0.0548 -0.0414
 6824W        W10875  10.115   8.746  11.682  0.0695  0.0273 -0.1551
 6825W        W10876   5.639   5.497  13.346 -0.0812 -0.1283  0.2456
 6826W        W10877   0.014   0.750   0.290  0.2491  0.0140 -0.1453
 6827W        W10878   3.776   5.136   5.365  0.0268  0.0294 -0.2293
 6828W        W10879   5.482   1.954   9.566  0.1705 -0.0738  0.4072
 6829W        W10880   7.922   2.902   0.926  0.0482 -0.2636  0.5444
 6830W        W10881   8.304   4.525   2.910 -0.0161 -0.4054 -0.5220
 6831W        W10882   9.726   9.825   1.063  0.0368  0.0115 -0.0928
 6832W        W10883   0.898   0.548  12.871  0.2874  0.0418  0.4494
 6833W        W10884   6.045   7.170  10.128  0.2611 -0.1828 -0.0934
 6834W        W10885   2.771   1.577  13.088  0.1170 -0.2709 -0.1037
 6835W        W10886   7.589   3.165  10.750  0.1360  0.0971 -0.0689
 6836W        W10887   4.439   3.918  10.441  0.1029  0.0529 -0.0162
 6837W        W10888   4.930   4.630   4.387 -0.2435 -0.3021  0.1818
 6838W        W10889   9.055   5.060   0.927  0.0857 -0.1335 -0.1098
 6839W        W10890   6.515   7.235  13.479  0.3323 -0.3277  0.0379
 6840W        W10891   2.072  10.076   1.816  0.1445  0.0341  0.0426
 6841W        W10892   7.603   8.211  12.165  0.2683  0.1979 -0.2526
 6842W        W10893   5.064   4.046  13.197 -0.0274 -0.1156 -0.0497
 6843W        W10894   9.395   9.480  12.488  0.1410 -0.0893  0.1392
 6844W        W10895   2.896   5.625  11.720  0.3797 -0.0337 -0.4274
 6845W        W10896   2.243   3.711   9.803  0.0756 -0.1107 -0.0974
 6846W        W10897   7.524   7.042   9.620  0.4681 -0.2144  0.0868
 6847W        W10898   0.818   9.833   2.208  0.1176  0.1232 -0.1966
 6848W        W10899   9.104   0.652   2.458  0.1346 -0.0401 -0.2082
 6849W        W10900   3.122   5.127   1.613  0.4630 -0.1156  0.1926
 6850W        W10901   2.312   5.652   1.450  0.0682 -0.0275  0.1717
 6851W        W10902   0.888   5.696  11.652 -0.0860  0.1084 -0.2114
 6852W        W10903   2.386   1.275   0.141  0.1333  0.0386  0.1339
 6853W        W10904   7.206   3.970   3.560 -0.1222  0.1953  0.2681
 6854W        W10905   1.998   4.223   1.878  0.0510 -0.1450 -0.0285
 6855W        W10906   6.772   6.655  11.825  0.0687 -0.0289  0.4256
 6856W        W10907   2.845   3.324   9.194  0.0103  0.1635  0.0816
 6857W        W10908   4.752   3.197   0.248  0.3477  0.0599 -0.1610
 6858W        W10909   2.572   5.167  12.021 -0.3464  0.0782 -0.2837
 6859W        W10910   2.114   8.603  10.391 -0.2193  0.0693 -0.1140
 6860W        W10911   4.048   0.989   1.725 -0.1413 -0.1182  0.0315
 6861W        W10912   9.490   7.094   0.154  0.0084 -0.1508  0.0756
 6862W        W10913   4.252   5.879  11.254 -0.0416 -0.0060  0.4443
 6863W        W10914   2.643   2.454   0.763 -0.1095  0.0121  0.1130
 6864W        W10915   9.214   2.571   8.990 -0.1241 -0.0791 -0.0611
 6865W        W10916   8.835   1.968   3.811 -0.0663  0.3205 -0.4382
 6866W        W10917   1.100   1.543  10.552 -0.0293 -0.1438  0.1245
 6867W        W10918   1.839   0.579  13.776  0.0727 -0.0553  0.2500
 6868W        W10919   5.776   3.768  11.601 -0.0056 -0.1526  0.1687
 6869W        W10920   3.741   6.048   3.288 -0.1426 -0.1186 -0.1702
 6870W        W10921   6.946   2.295  13.542  0.1122  0.1661 -0.0261
 6871W        W10922   3.273   7.766   0.461  0.1003 -0.0325 -0.0467
 6872W        W10923   1.681   1.126   2.343  0.0427 -0.0516 -0.0187
 6873W        W10924   0.543   5.118   3.346  0.1097 -0.0308  0.1768
 6874W        W10925   7.446   4.857  11.095  0.0687 -0.0910 -0.1697
 6875W        W10926   4.908   7.153   1.725 -0.0944 -0.0689 -0.2626
 6876W        W10927   4.873   5.652   2.193  0.0453  0.0987  0.0188
 6877W        W10928   6.426   4.253  13.047 -0.1576  0.4640 -0.1463
 6878W        W10929   3.013   4.141   2.296  0.0254  0.3534  0.0956
 6879W        W10930   7.913   3.840   0.705  0.0565 -0.2104  0.2166
 6880W        W10931   7.739   6.969  11.863 -0.0993 -0.3697  0.2239
 6881W        W10932   1.712   6.085   2.789  0.4853  0.1841 -0.2246
 6882W        W10933   4.570   8.167  13.897  0.0101  0.2539 -0.1147
 6883W        W10934   0.439   0.656  12.705 -0.1767 -0.2653 -0.3224
 6884W        W10935   5.858   0.800  11.539  0.1360 -0.0781 -0.0146
 6885W        W10936   0.347   9.405  11.693  0.0722  0.1744  0.0062
 6886W        W10937   7.039   7.191  13.174  0.1344  0.1353 -0.0450
 6887W        W10938   0.566   1.165  12.363 -0.0661 -0.0208 -0.0212
 6888W        W10939   1.252   4.402   0.106  0.1855 -0.0824  0.1532
 6889W        W10940   9.793   8.027   3.952  0.3111  0.0113 -0.0213
 6890W        W10941   4.025   8.209  12.788  0.2452  0.2829  0.0193
 6891W        W10942   7.269   7.184  12.342  0.0180 -0.0106 -0.0967
 6892W        W10943   5.022   8.429   1.490  0.1973 -0.1926 -0.1842
 6893W        W10944   0.072   5.494  10.981 -0.0691  0.1581  0.1558
 6894W        W10945   9.688   3.509   4.334  0.0680  0.2356  0.2268
 6895W        W10946   7.862   6.284   1.550  0.1299 -0.2298  0.3206
 6896W        W10947   2.237   9.065   1.855  0.1698  0.0500  0.0749
 6897W        W10948   6.281   7.054   1.257 -0.1394  0.1569 -0.3432
 6898W        W10949   4.891   2.020  10.167 -0.0265 -0.0584 -0.0096
 6899W        W10950   7.796   6.835  10.762  0.0599  0.1197  0.0503
 6900W        W10951   8.595   6.045   9.606  0.4893 -0.0610 -0.0222
 6901W        W10952   5.774   5.243   5.508  0.2145  0.2719 -0.2344
 6902W        W10953   9.175   2.258  12.439 -0.0266  0.0288  0.0623
 6903W        W10954   9.876   9.124   2.575  0.2080 -0.1408  0.1911
 6904W        W10955   2.433   6.158   9.288 -0.0730 -0.0980  0.2782
 6905W        W10956   0.978   1.997   1.393 -0.0971 -0.0341  0.0467
 6906W        W10957   8.737   1.880  11.656  0.4946  0.2959 -0.3128
 6907W        W10958  10.176   1.356   2.068 -0.0641 -0.2040  0.3604
 6908W        W10959   2.436   1.105  11.747 -0.2622 -0.1579  0.1131
 6909W        W10960   7.244   6.967   3.413  0.1141 -0.1650  0.0995
 6910W        W10961   2.617   8.826   0.539 -0.0255 -0.0104 -0.1934
 6911W        W10962   2.965   0.312   0.977 -0.1767 -0.1982 -0.1582
 6912W        W10963   0.868   3.470   9.400  0.1373 -0.1042 -0.3733
 6913W        W10964   3.292   3.677   4.757  0.1329 -0.3879  0.4167
 6914W        W10965   9.520   5.847   2.278  0.0168  0.0458 -0.0749
 6915W        W10966   4.974   9.995   2.671 -0.0103  0.0388 -0.0643
 6916W        W10967   4.264   9.922   1.573 -0.2476  0.1172 -0.0184
 6917W        W10968   4.553   5.814   3.576 -0.1573 -0.0649  0.0650
 6918W        W10969   2.890   4.003  11.471  0.0988  0.3177  0.1095
 6919W        W10970   9.624   0.528   2.661  0.0582  0.1556 -0.2244
 6920W        W10971   3.309   6.848  11.198  0.0465  0.3138  0.5192
 6921W        W10972   5.296   4.732  13.705 -0.1150 -0.3616 -0.2776
 6922W        W10973   9.854   0.911   2.117 -0.0304  0.0567  0.1137
 6923W        W10974  10.186   2.912   1.446  0.2408  0.3019  0.4534
 6924W        W10975   5.323   7.995   2.339 -0.0180 -0.1703 -0.3431
 6925W        W10976   8.255   2.362  12.629 -0.0176 -0.3507 -0.2477
 6926W        W10977  10.183   4.329   2.418 -0.0299 -0.1374  0.1743
 6927W        W10978   3.835   1.499  10.652 -0.0342 -0.1590  0.2082
 6928W        W10979   5.445   7.738   4.396  0.2180 -0.1235  0.2467
 6929W        W10980   4.096   0.014   4.428  0.0805  0.1299  0.1504
 6930W        W10981   9.516   1.211   2.560  0.3916 -0.1400  0.4993
 6931W        W10982   7.886   4.627   1.020  0.1585  0.2080  0.1538
 6932W        W10983   6.771   8.856  13.453  0.1994 -0.0619  0.0738
 6933W        W10984   6.925   5.603   4.525 -0.3523  0.1424  0.2148
 6934W        W10985   1.898   2.427   2.397  0.0313  0.1311 -0.0355
 6935W        W10986   9.649   6.463   3.968 -0.4380 -0.3500  0.0172
 6936W        W10987   4.601   9.284  10.077  0.0170  0.0930 -0.0992
 6937W        W10988   0.089   6.719  11.620  0.3635 -0.3855 -0.4077
 6938W        W10989   3.086   8.480   9.061  0.1099  0.1935 -0.2592
 6939W        W10990   8.584   6.902  11.833  0.3703 -0.2718 -0.1150
 6940W        W10991   7.570   4.310   2.769  0.1279  0.1120 -0.0283
 6941W        W10992   1.181   3.075   3.341 -0.0145 -0.0810 -0.0754
 6942W        W10993   6.439   1.034  13.772 -0.0918 -0.1437  0.0211
 6943W        W10994   4.157   1.340  10.312 -0.2398 -0.0439 -0.1306
 6944W        W10995   0.958   6.614   1.253  0.0264 -0.0082  0.1010
 6945W        W10996   5.990   2.477   0.274 -0.0566  0.0963 -0.0253
 6946W        W10997   6.120   2.310  12.423  0.3055 -0.3750  0.2471
 6947W        W10998   1.528   3.565  10.433  0.1978 -0.1667 -0.4083
 6948W        W10999   9.442   7.553  13.340  0.1477 -0.0398 -0.2337
 6949W        W11000   7.179   0.190  12.202  0.1166 -0.0291 -0.0669
 6950W        W11001   3.363  10.122  12.672  0.0758  0.0989 -0.1349
 6951W        W11002   8.175   9.663   0.566  0.2955  0.2168 -0.1473
 6952W        W11003   5.554   0.290  13.733 -0.0159  0.0635  0.0099
 6953W        W11004   2.484   0.192   1.787  0.1747 -0.2671  0.2481
 6954W        W11005   4.216   3.720   9.833 -0.1652  0.0077 -0.1844
 6955W        W11006   7.801   8.273   2.328 -0.1496  0.0297  0.0099
 6956W        W11007   9.478   4.227   4.139 -0.1534  0.2783 -0.0739
 6957W        W11008   9.687   7.455  12.452 -0.1938  0.1996  0.2329
 6958W        W11009   7.517  10.029   9.994 -0.0477 -0.0272 -0.0974
 6959W        W11010   5.610   0.270   2.080  0.6202  0.3100  0.3343
 6960W        W11011   9.648   3.336  12.031 -0.1951  0.1330 -0.3070
 6961W        W11012   2.031   8.806   3.238 -0.3538  0.2143 -0.3788
 6962W        W11013   5.712   7.690   0.990 -0.0293  0.2439  0.2141
 6963W        W11014   2.842   3.255  13.379  0.0851  0.0356  0.1535
 6964W        W11015   6.334   5.201  12.053 -0.1928  0.0507 -0.2076
 6965W        W11016   0.755   6.510   3.854 -0.4032 -0.0368  0.0871
 6966W        W11017   0.400   6.001   9.172  0.1482 -0.2763  0.2781
 6967W        W11018   6.751   1.509  12.947 -0.0011  0.0335 -0.2801
 6968W        W11019   4.076   8.696   8.986 -0.0741 -0.1142 -0.1590
 6969W        W11020   3.965   1.706   2.468  0.2492 -0.2829 -0.0665
 6970W        W11021   8.106   8.151  11.159 -0.1533 -0.1077 -0.1448
 6971W        W11022   8.676   0.186   1.660 -0.1334  0.2028 -0.1373
 6972W        W11023   0.173   1.645  12.356  0.0040 -0.2109 -0.2004
 6973W        W11024   5.300   7.395   2.793 -0.2199 -0.2589 -0.1500
 6974W        W11025   4.287   7.510   2.025  0.1491  0.0848  0.1176
 6975W        W11026   3.020   4.761   4.450  0.0898  0.0747 -0.0992
 6976W        W11027   0.131   0.841   3.889 -0.1886 -0.0084 -0.1983
 6977W        W11028   6.321   8.184  13.094  0.2668  0.1458  0.0845
 6978W        W11029   8.147   8.994  13.828  0.1190 -0.1310 -0.3142
 6979W        W11030   8.164   2.150  13.573 -0.1388 -0.1190 -0.3666
 6980W        W11031   4.521   6.852  13.038 -0.0387 -0.0379  0.2861
 6981W        W11032   8.410   5.685  11.735 -0.0835  0.3617  0.2570
 6982W        W11033   2.639   2.692   2.565  0.4723  0.0567  0.0765
 6983W        W11034   8.311   2.433   2.087 -0.4600  0.0720 -0.1423
 6984W        W11035   9.805   6.126   0.455 -0.1385 -0.1171 -0.0096
 6985W        W11036   2.772   6.557   0.523 -0.4021  0.1058  0.1450
 6986W        W11037   6.486   9.406   9.409  0.0988 -0.1789  0.2291
 6987W        W11038   9.799   1.690  13.154 -0.0063  0.0434 -0.1928
 6988W        W11039   3.970   2.056   0.381  0.3843  0.3937 -0.2098
 6989W        W11040   7.819   5.881   1.121  0.1619  0.4297  0.1494
 6990W        W11041   4.007   1.740   3.396  0.1394 -0.1753 -0.0521
 6991W        W11042   0.938   6.772   2.857  0.2836 -0.0237 -0.2144
 6992W        W11043   8.237   3.745  10.330 -0.2217  0.1569 -0.3638
 6993W        W11044   6.735   6.716   0.949 -0.0914 -0.1928 -0.1102
 6994W        W11045   2.251   4.217   1.424 -0.0179 -0.1761  0.2490
 6995W        W11046   3.827   5.247   3.779 -0.0046  0.1162 -0.3251
 6996W        W11047   7.635   5.555  12.918  0.0108 -0.2527 -0.1295
 6997W        W11048   2.269   5.904  10.908 -0.2624  0.2705 -0.1229
 6998W        W11049   8.407   1.975   9.119 -0.1454 -0.2905  0.1477
 6999W        W11050   6.836   9.730   1.970 -0.2589 -0.0468  0.1435
 7000W        W11051   9.367   7.046   0.740  0.6728  0.2396 -0.0601
 7001W        W11052   2.189   2.602   1.962 -0.1091  0.0166 -0.0434
 7002W        W11053   4.352   3.274  13.198  0.1375  0.0465 -0.0432
 7003W        W11054   4.765   4.423   2.153 -0.3425  0.0717 -0.0480
 7004W        W11055   7.255  10.042   5.179  0.1866 -0.1166  0.0514
 7005W        W11056   1.749   6.292   4.744 -0.1951  0.0089 -0.2712
 7006W        W11057   1.779   2.785   4.298  0.4053  0.1671  0.2066
 7007W        W11058   2.301   4.007   0.957  0.1939 -0.3644  0.1059
 7008W        W11059   8.309   3.353   1.676  0.2496 -0.0466 -0.0646
 7009W        W11060   0.570   2.938   3.445 -0.0723 -0.0310  0.0323
 7010W        W11061   0.333   5.068   0.886 -0.1013  0.2979  0.1855
 7011W        W11062   5.634   5.469   3.500 -0.0081  0.1038 -0.0403
 7012W        W11063   7.306   7.744  10.880  0.1579 -0.2535  0.1307
 7013W        W11064   4.734   4.920  10.093  0.1618  0.0902  0.0843
 7014W        W11065   0.353   8.902  13.740 -0.2775  0.2090  0.2804
 7015W        W11066   4.873   7.160   3.586 -0.1131 -0.1022  0.2783
 7016W        W11067   6.015   1.681   4.846 -0.0680  0.1331 -0.0317
 7017W        W11068   8.571   3.587   0.074  0.0849 -0.2652  0.1868
 7018W        W11069   4.876   2.306   1.111  0.1578  0.1168 -0.1851
 7019W        W11070   4.991   3.221  11.492  0.2846  0.0440  0.3079
 7020W        W11071   3.026   3.577   0.229  0.2290 -0.0525  0.0466
 7021W        W11072   5.214   3.407   4.756  0.1260  0.1292 -0.1517
 7022W        W11073   8.141   7.092   1.642 -0.0289  0.0529 -0.1196
 7023W        W11074   7.177   0.656   1.569 -0.1768 -0.0575 -0.0783
 7024W        W11075   8.356   0.851  12.701  0.1537 -0.0186  0.0440
 7025W        W11076   1.130   5.608  11.005  0.1794  0.1654  0.2144
 7026W        W11077   6.809   4.217   3.748  0.0173 -0.0425  0.0541
 7027W        W11078   6.355   3.563  10.088 -0.1450 -0.1230 -0.0356
 7028W        W11079   0.587   5.557   3.658 -0.2045 -0.2050  0.0497
 7029W        W11080   2.678   2.814   1.117  0.2583  0.0206 -0.2092
 7030W        W11081   2.570   1.498   4.805  0.2158  0.1236  0.5810
 7031W        W11082   6.437   6.017   9.226  0.2523  0.1297 -0.0947
 7032W        W11083   6.068   5.176   0.018 -0.0899 -0.1428  0.2263
 7033W        W11084   9.898   3.158   0.969  0.1856 -0.0743  0.3649
 7034W        W11085   3.129   7.202  13.206 -0.2325 -0.0715  0.2777
 7035W        W11086   1.827   9.820   3.064 -0.1222  0.1681 -0.2502
 7036W        W11087   7.800   9.488   0.802 -0.1575 -0.0743 -0.1355
 7037W        W11088   7.306   8.012   1.175 -0.0605 -0.1857  0.0983
 7038W        W11089   3.263   0.834   4.322 -0.0020 -0.0740  0.0138
 7039W        W11090   3.982   8.734  12.556 -0.2590 -0.2667 -0.2478
 7040W        W11091   1.949   0.455   3.899  0.1775 -0.1260 -0.0746
 7041W        W11092   8.735   4.351  13.896 -0.0065  0.3782  0.1540
 7042W        W11093   4.969   3.051   1.749 -0.0337 -0.2896  0.1489
 7043W        W11094   2.025   2.054   8.854  0.2741  0.1179  0.2349
 7044W        W11095   1.801   2.074  10.369 -0.1078 -0.1442  0.1167
 7045W        W11096   5.416   6.861  12.855  0.2620 -0.1707 -0.2223
 7046W        W11097   1.623   8.112   3.867 -0.0952 -0.3408 -0.0010
 7047W        W11098   8.259   6.442  13.450 -0.0058  0.0803 -0.0806
 7048W        W11099   2.306   9.013   3.758 -0.2383 -0.0597 -0.2169
 7049W        W11100   0.026   8.593   2.988 -0.1096 -0.0763 -0.1014
 7050W        W11101   6.201  10.043   3.116 -0.2489  0.1280  0.0197
 7051W        W11102   3.241   9.701   9.821 -0.0356  0.0441 -0.0768
 7052W        W11103   8.801   3.601   0.822 -0.0658  0.2166  0.1106
 7053W        W11104   2.081   3.058   2.006  0.0742  0.3665 -0.2071
 7054W        W11105   5.632   8.501   0.449 -0.0872  0.1359  0.0400
 7055W        W11106   9.350   1.921  13.351  0.1678  0.2302 -0.0402
 7056W        W11107   2.700   2.381   2.078  0.0013  0.3046 -0.0923
 7057W        W11108   6.152   1.525  10.670  0.1928 -0.0009 -0.1235
 7058W        W11109   1.054   1.137  12.121 -0.1491 -0.1230  0.4210
 7059W        W11110   3.409   1.901   0.255  0.0930  0.2716 -0.1037
 7060W        W11111   6.627  10.113   2.875 -0.0263 -0.2557 -0.0561
 7061W        W11112   1.028   6.571   9.830  0.0330 -0.0117  0.1737
 7062W        W11113   1.106   4.059   3.560 -0.1717  0.1596  0.2248
 7063W        W11114   1.600   1.888   8.437 -0.0361 -0.2192 -0.1153
 7064W        W11115  10.043   9.600   3.378  0.1961 -0.0780 -0.0269
 7065W        W11116   2.883   0.622   1.885  0.0107 -0.0878  0.2125
 7066W        W11117   6.558   4.802  10.852  0.0842  0.0290  0.1320
 7067W        W11118   2.529   4.567   9.321 -0.4421 -0.3030 -0.1782
 7068W        W11119   3.495   8.559   2.607  0.1365 -0.2484 -0.4047
 7069W        W11120   6.976   6.995   4.366 -0.1822 -0.2285  0.0289
 7070W        W11121   2.014   6.995   2.966  0.1778 -0.1046 -0.4193
 7071W        W11122   4.204   5.659  10.071 -0.2216  0.0616  0.1255
 7072W        W11123   3.936   0.241   9.882 -0.1247  0.3349  0.0578
 7073W        W11124   9.557   0.693  10.760 -0.0639  0.0802  0.0095
 7074W        W11125   3.886   3.759  13.844  0.0878  0.2085  0.1429
 7075W        W11126   9.070   9.579   3.377  0.5774 -0.0607 -0.0730
 7076W        W11127   6.591   4.608   0.776  0.2281  0.3982 -0.2396
 7077W        W11128   0.445   2.042  10.131  0.0615 -0.0432  0.0848
 7078W        W11129   4.763   9.253   1.585  0.1118 -0.0940  0.1955
 7079W        W11130   2.436   5.744   3.214 -0.0378 -0.1847 -0.0873
 7080W        W11131   5.824   7.268   0.051 -0.3579  0.1860 -0.2239
 7081W        W11132   2.319   3.503  12.105 -0.0600 -0.1400 -0.1949
 7082W        W11133   5.061   5.911  10.458  0.1943  0.1053 -0.4694
 7083W        W11134   2.743   8.872   5.101  0.1957 -0.0756  0.0069
 7084W        W11135   4.292   3.742  13.519  0.4394  0.0768 -0.2928
 7085W        W11136   2.419   3.099  11.387  0.2738 -0.0996 -0.0623
 7086W        W11137   9.480   0.917   0.060 -0.1590  0.1168  0.0699
 7087W        W11138   1.796   0.726  11.084 -0.1093  0.2866 -0.2511
 7088W        W11139   2.531   9.908  12.418 -0.1794 -0.0392  0.0399
 7089W        W11140   9.285   0.821  11.141  0.1236  0.0605 -0.0802
 7090W        W11141   9.170   1.481  11.677  0.2789 -0.1758  0.0278
 7091W        W11142   0.521   9.650   0.768 -0.1121  0.1627  0.1727
 7092W        W11143   1.925   0.518   2.048 -0.5643  0.2222  0.1705
 7093W        W11144   1.959   6.807   2.189  0.0017  0.1951 -0.2862
 7094W        W11145   9.195   9.512   0.436  0.0204  0.1342  0.0079
 7095W        W11146   5.251   2.411   9.487 -0.1087  0.0358  0.0090
 7096W        W11147   3.568   7.640   3.948  0.0838 -0.0658  0.0764
 7097W        W11148   5.347   1.321   8.939  0.1423 -0.0578 -0.2444
 7098W        W11149   9.970   3.195  12.651 -0.2251  0.0819 -0.3270
 7099W        W11150   6.317   0.556   4.245  0.0278 -0.2685  0.1358
 7100W        W11151   9.024   2.741   2.065 -0.0754 -0.0311 -0.1096
 7101W        W11152   9.805   8.518  12.577 -0.0467  0.0002  0.1547
 7102W        W11153   2.150   1.311   2.639  0.0093 -0.1573  0.4741
 7103W        W11154   4.849   5.058   0.903 -0.0895  0.0523  0.5261
 7104W        W11155   2.015   9.467   1.490  0.0567  0.0532 -0.1044
 7105W        W11156   5.715   3.785  10.364  0.3709 -0.1127  0.0028
 7106W        W11157   4.108   2.207   9.920 -0.1743  0.1214  0.0604
 7107W        W11158   3.889   2.344  13.033  0.0729  0.1416 -0.2382
 7108W        W11159   1.502   1.998   2.634 -0.0583 -0.2634 -0.0042
 7109W        W11160   1.104   5.010   1.818 -0.1709  0.0065  0.2049
 7110W        W11161   7.531  10.014   0.085  0.0516 -0.2879  0.0843
 7111W        W11162   7.393   9.764   5.562  0.1954 -0.6224 -0.1346
 7112W        W11163   1.571   8.387  10.700 -0.1983  0.0999 -0.0693
 7113W        W11164   2.053   3.327  11.091  0.2076  0.0867 -0.0932
 7114W        W11165   2.302   1.789   1.803  0.0788  0.0526 -0.1625
 7115W        W11166   4.747   6.893  12.577  0.2654  0.4154  0.0686
 7116W        W11167   0.019   1.872   1.730  0.1301 -0.0888 -0.1220
 7117W        W11168   7.019   3.033   1.021 -0.0402 -0.0656 -0.0930
 7118W        W11169   7.695   7.328   2.443  0.3999  0.1005 -0.1627
 7119W        W11170   4.090   7.966  13.546  0.3137  0.0636  0.1946
 7120W        W11171   1.258   2.234  11.170 -0.0989 -0.1053 -0.1560
 7121W        W11172   3.561   4.011   9.267 -0.0138  0.3266  0.1240
 7122W        W11173   5.642   5.520   1.479 -0.0519 -0.0689  0.1798
 7123W        W11174   3.346   5.771  11.479  0.2027  0.1660 -0.2804
 7124W        W11175   9.678   5.137  12.464 -0.2533  0.1253  0.3217
 7125W        W11176   4.923   2.356   2.419 -0.3987 -0.1663 -0.1830
 7126W        W11177   4.522   1.330   0.632  0.1515 -0.0705  0.0314
 7127W        W11178   6.655   7.561  10.223  0.3015  0.3650  0.0400
 7128W        W11179   3.040   0.175  10.293 -0.1808 -0.0815  0.0462
 7129W        W11180   2.596   0.324   0.617 -0.1062 -0.0309 -0.0008
 7130W        W11181   3.531   1.032  10.692 -0.0671  0.1027 -0.1017
 7131W        W11182   4.634   1.253  12.424 -0.0571 -0.1501  0.1217
 7132W        W11183   4.895   9.980  10.958  0.0162 -0.0044  0.1690
 7133W        W11184   4.747   6.319   3.361  0.1757  0.2226  0.0043
 7134W        W11185   6.482   2.364   1.520 -0.1536 -0.0468  0.3308
 7135W        W11186   0.012   8.375   1.883  0.0489  0.0400 -0.1708
 7136W        W11187   4.241   4.746   9.998 -0.0351 -0.2199 -0.1186
 7137W        W11188   2.683   3.753   1.350  0.1214  0.0470 -0.4045
 7138W        W11189   6.263   9.079   2.713 -0.0690  0.0983  0.2057
 7139W        W11190   4.760   8.627  13.163  0.2070 -0.2464 -0.1196
 7140W        W11191   3.735   9.431  11.633 -0.1124 -0.1013  0.0892
 7141W        W11192   3.367   2.308  11.864 -0.1474  0.0440 -0.2990
 7142W        W11193   1.109   8.248   0.387  0.0148 -0.0919  0.0755
 7143W        W11194   1.900  10.154  10.593 -0.0077 -0.3153 -0.0446
 7144W        W11195   8.860   8.478   0.412  0.2179 -0.2609  0.1097
 7145W        W11196   3.288   5.207   3.714 -0.2068 -0.4388  0.2172
 7146W        W11197   2.735   4.276   1.475  0.0005 -0.1595  0.4100
 7147W        W11198   2.305   3.014  12.559  0.1830  0.1324  0.0127
 7148W        W11199   5.142   4.880   0.516  0.0717 -0.0845  0.0919
 7149W        W11200   1.920   7.044   9.268 -0.1773  0.0513 -0.1232
 7150W        W11201   8.550   9.387  10.695  0.2755 -0.3377  0.3341
 7151W        W11202   1.456   8.494   1.467  0.1977  0.0080  0.1527
 7152W        W11203   0.912   1.383  13.560 -0.0171 -0.0134  0.0200
 7153W        W11204   8.271   6.825  11.035  0.0120 -0.1659 -0.1345
 7154W        W11205   3.401   1.701  13.731 -0.0052  0.0646  0.1938
 7155W        W11206   1.708   6.213  12.968  0.2987  0.2614 -0.0396
 7156W        W11207   7.918   2.289  10.467 -0.3652  0.0617  0.0213
 7157W        W11208  10.199   5.002   0.456 -0.2609  0.4278  0.2691
 7158W        W11209   6.319   5.951   9.685  0.0316 -0.0076  0.2582
 7159W        W11210   6.907   0.647  12.510  0.3374 -0.0734 -0.1568
 7160W        W11211   6.347   5.019   1.660  0.0502  0.3095 -0.3364
 7161W        W11212   8.014   8.814   2.305  0.1743  0.0055 -0.0506
 7162W        W11213   7.299   6.309   5.103 -0.1496 -0.2784 -0.1552
 7163W        W11214   7.461   3.739   3.151 -0.1592  0.1322  0.2064
 7164W        W11215   7.113   5.733   3.863 -0.0548 -0.1489  0.3345
 7165W        W11216   5.845   7.283   3.356  0.3026 -0.0615  0.0353
 7166W        W11217   7.222   6.199  11.253  0.0104 -0.1396 -0.0428
 7167W        W11218   5.631   4.501   2.602 -0.2088  0.0077 -0.0830
 7168W        W11219   5.035   0.965   0.683 -0.0323 -0.3441 -0.0986
 7169W        W11220   5.439   5.735  10.829  0.1455  0.2332 -0.0649
 7170W        W11221   6.975   5.237   3.752 -0.1118 -0.0272 -0.4486
 7171W        W11222   8.923   9.070   1.972  0.3011  0.0804 -0.0332
 7172W        W11223   0.706   2.875   3.962  0.3210  0.3378  0.0465
 7173W        W11224   1.631   2.533   1.955 -0.3714 -0.0467 -0.0676
 7174W        W11225   4.487   0.126   9.759 -0.3098 -0.0811 -0.0150
 7175W        W11226   5.865   8.094   2.307  0.0320  0.2120  0.1574
 7176W        W11227   3.814   4.410   4.238 -0.3541 -0.2772 -0.0399
 7177W        W11228   1.707  10.018   0.780 -0.1377 -0.3737 -0.1516
 7178W        W11229   6.352   1.594  12.586  0.0560  0.1378 -0.1658
 7179W        W11230   6.006   9.358   9.567  0.0376 -0.3120 -0.1165
 7180W        W11231   7.515   1.852  12.964 -0.0569 -0.0890 -0.1701
 7181W        W11232   8.872   1.361   0.352  0.1072 -0.2697  0.1689
 7182W        W11233   4.123   8.433   4.068 -0.1564 -0.0215 -0.2794
 7183W        W11234   5.112   7.515   0.890 -0.0677 -0.4297  0.1246
 7184W        W11235   4.930   8.720   3.850  0.1681  0.0681 -0.1193
 7185W        W11236   6.362   9.381   0.196 -0.2466  0.0837  0.2234
 7186W        W11237   3.326   4.079   3.195 -0.1010  0.1440 -0.1899
 7187W        W11238   2.271   5.621  12.393 -0.0076 -0.0129 -0.2561
 7188W        W11239   7.852   1.727   1.955  0.2567 -0.1219  0.1160
 7189W        W11240   7.582   1.154   4.711 -0.2671 -0.2016 -0.0908
 7190W        W11241   9.823   3.747  11.114 -0.0959 -0.0421 -0.1865
 7191W        W11242   6.021   7.807   2.907 -0.1750 -0.2025 -0.0311
 7192W        W11243   5.482   3.088   2.032 -0.0559 -0.2286 -0.2503
 7193W        W11244   7.589  10.058   2.413 -0.2003  0.1787  0.0236
 7194W        W11245   3.601   6.500   2.042  0.0057  0.1245 -0.3341
 7195W        W11246   1.380   4.453   0.992 -0.0727 -0.0790 -0.0520
 7196W        W11247   7.739   5.698  10.730  0.2897  0.0299 -0.0912
 7197W        W11248   4.687   0.418  12.650 -0.0627  0.1787  0.3975
 7198W        W11249  10.073   0.312  11.484 -0.0022  0.0491  0.1217
 7199W        W11250   1.214   2.965  12.740  0.0601  0.0240  0.1949
 7200W        W11251   6.160   4.670  11.828 -0.2652  0.1757 -0.1820
 7201W        W11252   0.086  10.163   0.348 -0.0469 -0.1151  0.0694
 7202W        W11253   8.962   0.955  11.722 -0.1277  0.1039 -0.1707
 7203W        W11254   4.334   1.834  13.076 -0.1293 -0.1471 -0.2129
 7204W        W11255   5.043   5.523  13.544  0.2379 -0.3144  0.0740
 7205W        W11256   8.427   3.517  12.800  0.0967  0.2003 -0.0522
 7206W        W11257   7.885   0.810   2.739 -0.0517  0.1098 -0.0842
 7207W        W11258   3.121   6.956  11.677 -0.0563 -0.3028  0.0930
 7208W        W11259   9.679   2.049  10.031 -0.2385  0.1890  0.2240
 7209W        W11260   4.740   8.700  12.144  0.1374  0.2200  0.2726
 7210W        W11261   0.963   8.050  10.168 -0.0192 -0.2906 -0.0214
 7211W        W11262   9.742   5.294  10.418  0.5303  0.0124 -0.2959
 7212W        W11263   0.027   3.070  11.880 -0.1133  0.1295 -0.1469
 7213W        W11264   9.563   8.771   3.648  0.1647 -0.2024  0.1674
 7214W        W11265   4.013   5.119   1.147  0.2564  0.2952  0.4794
 7215W        W11266   0.605   4.556   1.653 -0.1368  0.1454  0.2940
 7216W        W11267   6.521   8.649  13.827  0.2378  0.2170 -0.1002
 7217W        W11268   2.672   4.972   0.641  0.4672  0.1503 -0.1354
 7218W        W11269   9.687   0.179   3.980  0.0503  0.2736 -0.1014
 7219W        W11270   4.721   1.774  13.432 -0.0886 -0.0451 -0.6432
 7220W        W11271   5.801   2.309  10.240 -0.0611  0.0951  0.0069
 7221W        W11272   5.062   4.770   9.352  0.2441 -0.2138 -0.1605
 7222W        W11273   6.790   8.327   1.754  0.0843 -0.0379 -0.0694
 7223W        W11274   5.458  10.161  13.160 -0.1919  0.1033  0.2631
 7224W        W11275   6.637   2.199   2.869 -0.0274 -0.0087  0.1314
 7225W        W11276   3.014   8.129  13.653 -0.2339 -0.2008 -0.0606
 7226W        W11277   3.405   8.317   4.462  0.1177 -0.0909  0.0309
 7227W        W11278   2.286   6.693   0.713 -0.1083  0.0872  0.2873
 7228W        W11279   7.930   9.291   2.074 -0.0128  0.1544 -0.2016
 7229W        W11280   9.917   9.992  11.385 -0.6323  0.0583  0.1826
 7230W        W11281   5.611   3.936  13.390  0.2911 -0.0147 -0.1350
 7231W        W11282   6.449   0.315  10.274  0.1309 -0.2299 -0.1344
 7232W        W11283   7.358   3.340  11.740 -0.1690 -0.0943 -0.0394
 7233W        W11284   3.378   8.118  10.717 -0.1784  0.0495  0.0949
 7234W        W11285   8.990   9.734   4.701 -0.1932 -0.1183 -0.4354
 7235W        W11286   4.969   7.263  10.306 -0.0775 -0.1482 -0.0701
 7236W        W11287   6.766   5.792   4.977  0.3554 -0.1208 -0.0096
 7237W        W11288   4.339   0.043  10.268 -0.0755 -0.2804  0.2155
 7238W        W11289   2.888   2.836  12.258  0.1181 -0.1687  0.0289
 7239W        W11290   0.876   2.099   9.905  0.0838  0.0924 -0.1107
 7240W        W11291   8.491   2.259  11.252  0.1972 -0.1823 -0.1152
 7241W        W11292   6.001   7.547   2.365 -0.0004  0.0405  0.0136
 7242W        W11293   3.703   2.572  12.115 -0.0698 -0.2463 -0.0404
 7243W        W11294   4.553   5.946   9.224  0.0458  0.1997 -0.0214
 7244W        W11295   7.796   6.690   2.251 -0.1154  0.1994  0.2486
 7245W        W11296   1.718   3.307   1.108 -0.1161 -0.1249  0.0775
 7246W        W11297  10.193   1.055   3.237  0.2656  0.1189 -0.0069
 7247W        W11298   7.196   7.762   3.588 -0.0358 -0.1623 -0.0545
 7248W        W11299   3.970   0.094  10.847  0.0977 -0.3376  0.0499
 7249W        W11300   4.058   1.976  10.789  0.0013  0.1811 -0.2242
 7250W        W11301   4.604   2.105   8.768  0.0274 -0.0570 -0.1526
 7251W        W11302   9.267   7.087  13.663  0.1546 -0.1307 -0.0416
 7252W        W11303   5.115   4.718   1.706 -0.1975 -0.1303 -0.0133
 7253W        W11304   3.322   2.569   1.896  0.0926 -0.0348 -0.3121
 7254W        W11305   5.862   6.733   9.862 -0.1238  0.2026 -0.2131
 7255W        W11306   6.718   4.206  13.747 -0.1543  0.3119  0.3115
 7256W        W11307   6.803   9.422  13.253  0.0015  0.1962 -0.4544
 7257W        W11308   2.026   0.252   3.425  0.5037 -0.3024 -0.1538
 7258W        W11309  10.124   7.141   4.069 -0.0995 -0.2549  0.1311
 7259W        W11310   5.763   8.521  10.718 -0.0372  0.4069  0.1840
 7260W        W11311   6.025   6.803  11.283 -0.0342  0.2171 -0.0387
 7261W        W11312   4.882  10.206  10.463 -0.0646  0.1149  0.0619
 7262W        W11313   4.651   8.436  11.042  0.3603 -0.5144 -0.3266
 7263W        W11314   8.484   3.181   3.575 -0.1001 -0.4589 -0.0043
 7264W        W11315   0.256   9.522  12.189  0.0978 -0.2175  0.2368
 7265W        W11316   9.965  10.196  13.549 -0.0055  0.1271  0.3032
 7266W        W11317   1.736  10.192  12.552 -0.0731  0.0016 -0.4369
 7267W        W11318   1.790   2.924   0.269  0.3637 -0.1944  0.0005
 7268W        W11319   8.096   0.242  11.153 -0.0405 -0.4590  0.1060
 7269W        W11320   9.774   1.335  13.862  0.0297  0.0821  0.0022
 7270W        W11321   5.388   6.001  11.856 -0.1206 -0.0091  0.1761
 7271W        W11322   3.646   6.560  11.886  0.1192 -0.0807 -0.2424
 7272W        W11323   5.158   9.749   1.523  0.3054 -0.0314  0.0782
 7273W        W11324   2.543   7.127   1.605  0.0681 -0.1408 -0.1900
 7274W        W11325   4.568   6.523   0.993 -0.1397  0.0152  0.0994
 7275W        W11326   0.803   1.584   1.674  0.1847 -0.0320 -0.0324
 7276W        W11327   1.665   9.217  10.882  0.0645 -0.0757 -0.1422
 7277W        W11328   7.041   9.892   3.042 -0.1489  0.1930  0.0397
 7278W        W11329   4.782   4.917  12.551 -0.4859  0.0392  0.0236
 7279W        W11330   5.243   0.626   9.818  0.1171 -0.3723 -0.3958
 7280W        W11331   6.182   3.867  11.955 -0.0182 -0.1678 -0.2609
 7281W        W11332   2.350   9.705   3.047  0.2917 -0.0324 -0.0345
 7282W        W11333   6.286   3.227  13.822  0.1319 -0.0211  0.1082
 7283W        W11334   7.008   2.028   4.481 -0.0687  0.3511 -0.2463
 7284W        W11335   0.021   6.428   2.509  0.3251 -0.2553 -0.2422
 7285W        W11336   5.518   3.703  13.900  0.0745  0.2503 -0.1514
 7286W        W11337   1.333   2.141   9.329 -0.2000 -0.0603 -0.2858
 7287W        W11338   0.220   4.568  10.921 -0.1766 -0.2297 -0.1596
 7288W        W11339   5.133   6.690  13.929  0.0239 -0.0891  0.0948
 7289W        W11340   2.018   6.841  11.730 -0.0090 -0.2359  0.1832
 7290W        W11341   9.140   9.653   2.763  0.4034  0.0899 -0.0892
 7291W        W11342   9.218   6.498  12.693  0.2206  0.1273 -0.0491
 7292W        W11343   3.343   7.207  13.646  0.1721  0.0416  0.1885
 7293W        W11344   2.950   5.224   4.121 -0.1805 -0.1175 -0.0226
 7294W        W11345  10.200   5.221   3.369  0.0791  0.0039 -0.0067
 7295W        W11346   5.778   8.383   5.049  0.2029 -0.1763  0.1416
 7296W        W11347   4.943   9.521  11.165 -0.4674 -0.0600  0.0065
 7297W        W11348   9.723   0.943   1.588 -0.4238 -0.2272 -0.0024
 7298W        W11349   4.209   7.393   9.661 -0.1838 -0.0081 -0.0460
 7299W        W11350   9.500   6.837  10.392 -0.1674  0.1070  0.0985
 7300W        W11351   9.188   5.595   0.946 -0.0457 -0.0310 -0.0716
 7301W        W11352   1.132   4.678   0.564  0.0384 -0.1810  0.0781
 7302W        W11353   1.902   9.929   0.335 -0.0251  0.0390  0.0453
 7303W        W11354   9.360   0.018   9.921 -0.1445 -0.1536  0.0435
 7304W        W11355   8.747   8.932  13.859 -0.0937 -0.0826 -0.0787
 7305W        W11356   2.578   3.053   3.019 -0.1139  0.1823  0.0523
 7306W        W11357   1.543   9.850  13.887  0.3066 -0.0256  0.5935
 7307W        W11358   4.288   8.832   9.840  0.3170 -0.0821  0.1606
 7308W        W11359   4.592   5.200   1.293 -0.2979  0.0525  0.1120
 7309W        W11360   5.009   7.865   0.522  0.0637 -0.1684 -0.0682
 7310W        W11361   7.252   6.049   3.462 -0.5650 -0.1045 -0.5129
 7311W        W11362   7.370   7.780   1.793  0.0184  0.0916  0.0743
 7312W        W11363   3.973   0.436   1.578 -0.0316  0.2828  0.3377
 7313W        W11364   4.156   8.364  11.057  0.2212 -0.3351  0.0968
 7314W        W11365   5.898   6.353  11.812  0.1978  0.0399  0.3748
 7315W        W11366   4.408   6.517   2.486 -0.3157  0.0105  0.5034
 7316W        W11367   6.243   1.662   5.432 -0.1509 -0.0597  0.0834
 7317W        W11368   4.778   8.326   0.954  0.1184 -0.0298  0.1140
 7318W        W11369   2.415   8.581  12.434 -0.0859  0.0401 -0.0744
 7319W        W11370   3.763  10.173   0.756  0.0004  0.2465 -0.2248
 7320W        W11371   5.866   4.038   1.405 -0.0527  0.0859  0.0180
 7321W        W11372   0.155   1.401   3.614  0.1156 -0.0480  0.3489
 7322W        W11373   9.996   0.562   1.385  0.2196  0.0871  0.0067
 7323W        W11374   8.202   8.287  13.323  0.1520  0.1083 -0.2388
 7324W        W11375   1.284   1.844   9.720  0.3631 -0.1201 -0.3442
 7325W        W11376   6.372   5.770   3.220  0.1390  0.1568  0.0103
 7326W        W11377   2.004   5.292   2.319  0.4005 -0.0031 -0.1282
 7327W        W11378   4.409   7.076   1.690  0.1151 -0.0009  0.1009
 7328W        W11379   2.016   2.740   8.290  0.1148  0.1617 -0.3685
 7329W        W11380   5.720   2.076   1.458 -0.1913 -0.0358 -0.0775
 7330W        W11381   6.713   6.952   3.469 -0.0958 -0.0614 -0.1614
 7331W        W11382   3.529   7.055   0.558  0.0250  0.0634 -0.2231
 7332W        W11383   2.973   3.604   0.787 -0.0612  0.0872 -0.0060
 7333W        W11384   2.518   4.427   0.855  0.0520  0.1389  0.0172
 7334W        W11385   7.377   6.840  13.140 -0.0109 -0.0453 -0.0682
 7335W        W11386   3.867   4.011   5.127  0.0665 -0.2105  0.2652
 7336W        W11387   7.536   0.272   1.763  0.1701 -0.1156 -0.2579
 7337W        W11388   8.658   6.606  10.273  0.0319  0.0161 -0.0027
 7338W        W11389   2.946   9.773  12.618  0.2317 -0.0904 -0.1447
 7339W        W11390   5.320   5.601   3.044  0.2694  0.1881  0.1978
 7340W        W11391   6.934   7.122   3.043  0.0535  0.0398 -0.0551
 7341W        W11392   6.265   3.873   1.154 -0.0719 -0.1164  0.1900
 7342W        W11393   3.390   7.834  11.256  0.0043  0.0111 -0.0622
 7343W        W11394   3.229   0.622   4.760 -0.0351 -0.2600 -0.3777
 7344W        W11395   4.308   4.251   2.186  0.2332 -0.0555 -0.2428
 7345W        W11396   7.667   1.993   0.865 -0.4541  0.1770  0.1176
 7346W        W11397   7.550   1.422   2.735  0.2213 -0.2313  0.2307
 7347W        W11398   5.344   1.724   0.698 -0.1904  0.0822 -0.1586
 7348W        W11399   7.309   8.557   1.081 -0.3820 -0.0787  0.1601
 7349W        W11400   9.308   0.994   2.146  0.0387 -0.0895  0.1917
 7350W        W11401   2.305   3.222   8.899 -0.2259  0.0259  0.3225
 7351W        W11402   9.070   6.538  13.591 -0.1921 -0.5413  0.0193
 7352W        W11403   7.458   6.740  12.660 -0.0260  0.3826 -0.0915
 7353W        W11404  10.038   6.877  12.337 -0.3480  0.1914  0.3924
 7354W        W11405   2.155   1.003   2.217  0.1308 -0.2305  0.4114
 7355W        W11406   3.050   7.403   9.822 -0.1853 -0.2136 -0.1110
 7356W        W11407   7.949   1.794  10.548 -0.0917  0.0454  0.0413
 7357W        W11408   8.373   4.935   4.876 -0.0173  0.3168  0.0930
 7358W        W11409   1.398  10.068  12.188  0.1941  0.1823 -0.0612
 7359W        W11410   7.161   5.415   0.342 -0.1578 -0.3091  0.1449
 7360W        W11411   4.376   1.314   1.516  0.1577  0.0116  0.2230
 7361W        W11412   4.394   4.256   9.995 -0.1598  0.1532  0.2244
 7362W        W11413   1.060   1.463  12.534 -0.1230 -0.0433  0.1174
 7363W        W11414   5.418   4.104  11.474  0.0772  0.1825 -0.0425
 7364W        W11415   7.207   3.779   1.652  0.2807  0.4034 -0.0514
 7365W        W11416   5.396   8.050   3.748  0.2996 -0.1980 -0.1323
 7366W        W11417   9.418   2.355  13.046  0.2844 -0.0463  0.0575
 7367W        W11418   5.371  10.185  11.028 -0.0920 -0.0469  0.0271
 7368W        W11419   3.332   1.015  10.014 -0.3614 -0.0821  0.1097
 7369W        W11420   2.952   5.319   9.583  0.1440 -0.2719  0.0517
 7370W        W11421   0.217   4.568  13.517 -0.1140 -0.0953 -0.3767
 7371W        W11422   9.607   5.142   3.531 -0.1885 -0.0769  0.1039
 7372W        W11423   1.387   3.996   4.596  0.0772 -0.3973  0.0932
 7373W        W11424   3.497   1.914  10.836  0.0736 -0.2389 -0.1585
 7374W        W11425   1.328  10.183   1.387 -0.0426  0.0983  0.1882
 7375W        W11426   2.413   8.006  13.111 -0.0742  0.3076  0.2244
 7376W        W11427   2.456   7.725  12.395 -0.2546 -0.2687  0.3084
 7377W        W11428   6.158   2.985   4.772  0.1143  0.0236 -0.0520
 7378W        W11429   1.520   0.372   2.176 -0.0776 -0.0183 -0.1237
 7379W        W11430   3.186   3.166  12.433 -0.1617  0.1439 -0.0132
 7380W        W11431   7.544   2.026  11.911 -0.1496 -0.0821 -0.3705
 7381W        W11432   5.499   8.561   3.007 -0.1889 -0.2435 -0.1314
 7382W        W11433   5.600   2.535  11.339  0.1584 -0.0868  0.1235
 7383W        W11434   2.773   9.293   9.888  0.4143 -0.2129  0.1458
 7384W        W11435   6.890   7.565  12.948  0.1609  0.0409  0.0595
 7385W        W11436   5.154   7.936   1.176  0.2046 -0.1630  0.2057
 7386W        W11437   5.845   7.630  10.256 -0.2286  0.3255 -0.3417
 7387W        W11438   8.732   2.988  12.652  0.4464  0.0636  0.2859
 7388W        W11439   4.809   6.769   1.459  0.0431  0.0448 -0.0775
 7389W        W11440   8.192   0.746  11.048 -0.0669  0.0321  0.1665
 7390W        W11441   4.931   5.967  11.639 -0.1075  0.1265  0.1068
 7391W        W11442   4.899   5.174  11.232 -0.1211  0.0922 -0.2951
 7392W        W11443   9.068   5.683  11.461 -0.3057  0.0050 -0.0069
 7393W        W11444   3.804   1.788  11.216  0.0473 -0.3256  0.2008
 7394W        W11445   9.526   5.756   0.610 -0.1265  0.0745 -0.0004
 7395W        W11446   1.564   0.684   9.502  0.0543  0.3565  0.0077
 7396W        W11447   1.298   4.736   1.438  0.0699  0.2042  0.1377
 7397W        W11448   2.335   1.252   9.352  0.0747 -0.0260 -0.2099
 7398W        W11449   3.880   5.445   4.250  0.1409  0.2489 -0.2207
 7399W        W11450   4.537   8.066   3.807 -0.3392  0.2254 -0.1634
 7400W        W11451   8.110   9.095  12.069  0.3767  0.0605 -0.0123
 7401W        W11452   6.573   5.461   0.259 -0.0152  0.0090 -0.0271
 7402W        W11453   0.015   7.192   0.646  0.1367 -0.1975  0.1504
 7403W        W11454   5.044   6.423   4.288 -0.0805 -0.3729 -0.2307
 7404W        W11455   7.081   3.760   2.153 -0.1783 -0.2386  0.0035
 7405W        W11456   2.602   4.420  12.371 -0.1862  0.3472 -0.0016
 7406W        W11457  10.026   3.344  10.944 -0.1925 -0.0519 -0.0341
 7407W        W11458   4.955   7.960   1.820 -0.1067  0.1229 -0.0578
 7408W        W11459   0.394   5.937  11.557  0.0568  0.1468 -0.1716
 7409W        W11460   4.488   6.369   2.954  0.1663  0.0819 -0.0291
 7410W        W11461   6.789   6.900  10.900 -0.1633 -0.0223  0.2355
 7411W        W11462   2.396   0.509   2.242 -0.3633  0.1390 -0.0682
 7412W        W11463   9.397   7.577  13.845  0.1837 -0.1673 -0.4503
 7413W        W11464   5.011   0.407   4.768 -0.0676  0.1563 -0.0686
 7414W        W11465   2.976   9.289   4.271  0.1555  0.0566  0.1130
 7415W        W11466   6.774   3.121  12.315 -0.0161 -0.0538 -0.2548
 7416W        W11467   1.852   2.048   4.028 -0.1261 -0.2214 -0.1292
 7417W        W11468   6.215   7.151   4.670 -0.3121 -0.1841 -0.0382
 7418W        W11469   2.003   4.970  13.676 -0.1634 -0.0939  0.4263
 7419W        W11470   6.429   0.572   8.885 -0.0702 -0.0547  0.0713
 7420W        W11471   3.948  10.178   1.884 -0.2305 -0.1416 -0.1735
 7421W        W11472   9.586   0.176  11.611 -0.0563  0.1126 -0.0713
 7422W        W11473   5.726   1.695  13.223  0.1023 -0.0127  0.1318
 7423W        W11474   8.495   8.196  10.828  0.0021  0.3344  0.1453
 7424W        W11475   0.211   0.234  12.384  0.1809  0.0456  0.1491
 7425W        W11476   9.811  10.020   0.146 -0.4718 -0.1830 -0.0473
 7426W        W11477   3.478   3.335  11.163 -0.1996  0.0268 -0.0277
 7427W        W11478   8.608   0.583  10.118 -0.2417 -0.1753  0.0398
 7428W        W11479   2.652   4.126   3.757 -0.0542  0.0040 -0.0091
 7429W        W11480   9.071   9.916  13.490 -0.0540  0.1516  0.1925
 7430W        W11481   9.214   4.827   2.969 -0.0841 -0.2838  0.2596
 7431W        W11482   8.881   0.034  12.499  0.0388  0.1181  0.3199
 7432W        W11483  10.076   8.755   9.877  0.0752 -0.1689  0.0440
 7433W        W11484  10.066   2.884   0.189  0.0446  0.1236 -0.0811
 7434W        W11485   7.065   2.036   9.962 -0.1003 -0.0075 -0.0628
 7435W        W11486   3.704   6.170   9.401 -0.0483  0.1888  0.0975
 7436W        W11487   7.924   2.119  12.238  0.2391 -0.1826  0.0407
 7437W        W11488   0.990   2.927  13.236  0.3401  0.3686 -0.0556
 7438W        W11489   8.347   0.058  10.322 -0.0151 -0.0999 -0.0969
 7439W        W11490   1.711   1.709   1.648  0.5373  0.1722  0.0279
 7440W        W11491   0.776   5.802   0.706  0.2714  0.1029 -0.2669
 7441W        W11492   1.829   8.222  10.276 -0.0803 -0.0852  0.0410
 7442W        W11493   2.026   7.681   1.497  0.3020 -0.0648 -0.1360
 7443W        W11494   5.926   4.102  10.763 -0.0270 -0.1078  0.0015
 7444W        W11495   8.545  10.066   2.424 -0.2042 -0.1445 -0.0768
 7445W        W11496   6.036   2.001  11.181 -0.0058 -0.0751 -0.0054
 7446W        W11497   4.530   8.729   3.186  0.4685  0.2716  0.1838
 7447W        W11498   0.659   7.654  12.896 -0.0667 -0.2378  0.1333
 7448W        W11499   6.681   6.587  10.518  0.1314  0.0529  0.2739
 7449W        W11500  10.047   6.374  12.180 -0.6320 -0.0321  0.1300
 7450W        W11501   5.500   8.017   4.776 -0.1976 -0.1598 -0.2451
 7451W        W11502   3.911   1.157  11.153 -0.1055  0.0998 -0.1761
 7452W        W11503   5.289   7.756  11.604  0.4631 -0.2889  0.4382
 7453W        W11504   3.542   3.839   9.895 -0.7207 -0.0307  0.0332
 7454W        W11505   6.973   8.984  10.942  0.0460  0.3121  0.1937
 7455W        W11506   4.501   4.247  13.360 -0.1924 -0.0977  0.2055
 7456W        W11507   3.275   6.861   2.114  0.2371  0.0336 -0.0553
 7457W        W11508   9.617   4.879   1.192 -0.4284  0.0421  0.0147
 7458W        W11509   4.698   5.270  12.127 -0.0698  0.0192 -0.0849
 7459W        W11510   5.198   9.154  10.984  0.0944 -0.1537 -0.0652
 7460W        W11511   9.548   9.756   1.724  0.0932 -0.3171 -0.2864
 7461W        W11512   1.118   8.498   1.016 -0.2725 -0.3471  0.2724
 7462W        W11513   3.045   8.907   2.739 -0.0388  0.0779 -0.1317
 7463W        W11514   5.726   9.947   2.280  0.0870  0.0855 -0.4396
 7464W        W11515   0.256   2.062   3.450 -0.1304 -0.1261 -0.0020
 7465W        W11516   5.917   0.670   3.875  0.1182 -0.0694 -0.1280
 7466W        W11517   6.461   5.644  10.748 -0.0131  0.1361 -0.1780
 7467W        W11518   7.098   2.349   2.097  0.2449  0.0145  0.0974
 7468W        W11519   9.202   1.688   0.621 -0.0896 -0.1854 -0.1725
 7469W        W11520   1.377   1.491   3.390  0.4302  0.0717  0.0621
 7470W        W11521   8.038   5.251   9.097 -0.2064  0.0875 -0.1731
 7471W        W11522   5.357   3.613  11.349  0.3240  0.2170 -0.0152
 7472W        W11523   9.289   3.692   4.196 -0.0091 -0.0031  0.1689
 7473W        W11524   6.035   0.652  10.483  0.0030 -0.0143 -0.2342
 7474W        W11525   3.631   4.910   0.171  0.1022  0.4121  0.0339
 7475W        W11526   3.102   5.929   5.147  0.1471 -0.1858 -0.1146
 7476W        W11527   6.823   9.923  12.846  0.1143  0.1084  0.1382
 7477W        W11528   8.934   7.146   9.792 -0.2712  0.0865 -0.2928
 7478W        W11529   8.331   2.059  10.354 -0.1289  0.1972 -0.0911
 7479W        W11530   8.621   3.609   3.252 -0.0239 -0.2049 -0.0029
 7480W        W11531   3.722   7.609  13.635 -0.0756  0.1905 -0.0623
 7481W        W11532   6.864   1.244  13.929  0.0421 -0.2198  0.3184
 7482W        W11533   0.291   2.721   9.156 -0.0612  0.0537 -0.0939
 7483W        W11534   5.168   6.499   2.439 -0.0897  0.3465  0.0443
 7484W        W11535  10.085   3.824   0.467  0.1171  0.0779 -0.1585
 7485W        W11536   1.280   2.721   8.786  0.2930 -0.0450  0.1714
 7486W        W11537   0.494   7.205   0.616  0.0404  0.1153 -0.1428
 7487W        W11538   3.908   2.485  11.106 -0.5480  0.1115  0.1687
 7488W        W11539   3.768   6.611   0.381  0.2218 -0.1650  0.1374
 7489W        W11540   8.521   3.051   2.973  0.0150 -0.2705  0.4704
 7490W        W11541   9.615   0.587   3.246  0.0877 -0.1050 -0.2388
 7491W        W11542   1.578   5.138   1.636 -0.0992 -0.0220 -0.2909
 7492W        W11543   8.324   8.660   2.670 -0.3406 -0.0734 -0.0736
 7493W        W11544   1.479   3.701  12.403 -0.2716  0.1040 -0.0781
 7494W        W11545  10.043   9.150  13.140  0.0832 -0.2226  0.1412
 7495W        W11546   7.032   8.588  12.717 -0.1432 -0.0178  0.0618
 7496W        W11547   1.872   6.863  12.510  0.2429 -0.1884 -0.1586
 7497W        W11548   5.486   0.143   4.736  0.1142 -0.1414 -0.0719
 7498W        W11549   6.413   0.057   5.727 -0.0640 -0.1753  0.0176
 7499W        W11550   4.469   4.812   2.091  0.0189  0.1836  0.1001
 7500W        W11551   5.351   2.935   9.635 -0.2521  0.2147 -0.0982
 7501W        W11552   6.825   9.095  10.502  0.1051  0.0806  0.2775
 7502W        W11553   7.299   0.971   2.833  0.0010  0.0785 -0.2718
 7503W        W11554   5.840   9.777  13.278 -0.0387  0.1868 -0.0366
 7504W        W11555   2.697   8.428   0.889 -0.0862 -0.1964  0.1560
 7505W        W11556   7.007   2.253   8.882  0.0570 -0.1845  0.0047
 7506W        W11557   3.080   7.707   4.082 -0.0760 -0.0377  0.5079
 7507W        W11558   0.503   9.629   1.243  0.0719 -0.2958  0.0805
 7508W        W11559   7.312   5.257   1.849 -0.1250 -0.0033 -0.2406
 7509W        W11560   9.538   1.430   3.664 -0.0362 -0.1484 -0.0105
 7510W        W11561   6.728   9.337  10.021 -0.0151 -0.3541  0.0986
 7511W        W11562   4.539   4.390   1.715 -0.1839 -0.0959 -0.1891
 7512W        W11563   7.295   4.667   9.291 -0.0766 -0.3926  0.1655
 7513W        W11564   9.315   8.900  13.458  0.1248 -0.1435 -0.0662
 7514W        W11565   5.790   5.896  11.504  0.2317 -0.0006 -0.2293
 7515W        W11566   5.359   4.234   1.271  0.0599  0.0623  0.5870
 7516W        W11567  10.142   7.349   2.472  0.2519  0.0052  0.3050
 7517W        W11568   0.337   5.251  10.180 -0.4755 -0.2313 -0.4167
 7518W        W11569   6.795   3.715   1.417 -0.0622 -0.1127 -0.0743
 7519W        W11570   5.080   4.205   4.661  0.0009  0.1314 -0.0563
 7520W        W11571   4.015   7.446  10.794  0.0263 -0.0700 -0.2173
 7521W        W11572   4.145   0.852   3.469  0.1913  0.1599 -0.1809
 7522W        W11573   9.442   3.706   0.334 -0.1076  0.0608 -0.0572
 7523W        W11574   1.230   9.902   1.837 -0.2541 -0.1149  0.1652
 7524W        W11575   0.389  10.146   4.041 -0.1275  0.2821  0.0429
 7525W        W11576   3.760   6.830   2.446  0.0381 -0.4079 -0.0170
 7526W        W11577   6.387   5.446  12.684  0.0150 -0.2339 -0.1021
 7527W        W11578   1.876   7.810   2.544  0.1049  0.0201 -0.0586
 7528W        W11579   6.397   0.363   4.712 -0.0294 -0.1334 -0.5035
 7529W        W11580   4.477   1.131   4.136 -0.0996 -0.1274  0.0174
 7530W        W11581   8.569   8.324  12.505  0.2002  0.0366  0.2674
 7531W        W11582   8.682   8.045   0.523 -0.1996  0.1067 -0.2192
 7532W        W11583   2.516   8.987   4.235  0.1538  0.0735  0.0594
 7533W        W11584   1.875   6.024   1.229  0.3805 -0.2710  0.1920
 7534W        W11585   1.440   1.211  10.176 -0.0177  0.0848  0.0144
 7535W        W11586   5.844   3.613   9.960  0.3453  0.0643  0.5419
 7536W        W11587   5.292   1.193   4.474 -0.4201 -0.1413 -0.3526
 7537W        W11588   3.237   3.343  13.736 -0.3607 -0.0474  0.2460
 7538W        W11589   2.233   8.189   1.768  0.0467 -0.0143  0.0743
 7539W        W11590   9.087   7.535  10.716  0.2163 -0.1316  0.0369
 7540W        W11591   6.693   3.584  13.114  0.1019 -0.1028  0.2375
 7541W        W11592   8.185   0.631   9.197 -0.2430  0.0096 -0.2607
 7542W        W11593   6.687   7.835   3.553 -0.3009 -0.3220  0.1275
 7543W        W11594   5.086   3.692  13.608  0.0139 -0.2705 -0.1454
 7544W        W11595   9.638   9.523  11.523 -0.1189 -0.0380 -0.1644
 7545W        W11596   6.887   7.422   3.444  0.1742 -0.0388 -0.0265
 7546W        W11597   3.230   4.149  10.756  0.2462 -0.0461 -0.1076
 7547W        W11598   8.413   0.221   8.884  0.3230  0.0788  0.2553
 7548W        W11599   2.948   6.496   9.902  0.1325 -0.1498 -0.1592
 7549W        W11600   4.695   6.230  10.702 -0.1132  0.0287  0.3078
 7550W        W11601   2.206   2.350   3.476  0.0009  0.1430  0.2953
 7551W        W11602   7.535   1.170  13.915  0.1333  0.2185  0.1076
 7552W        W11603   5.366   5.384   0.412 -0.1851  0.0884 -0.0325
 7553W        W11604   2.371   5.398  13.929  0.2000 -0.3370  0.1222
 7554W        W11605   0.859   9.222  12.882 -0.0940  0.0348 -0.5335
 7555W        W11606   5.319   2.358  13.067  0.1487 -0.0352 -0.0374
 7556W        W11607   7.693   3.055   3.823  0.0144 -0.0703  0.2968
 7557W        W11608   8.230   8.052   0.973  0.3189 -0.0579  0.0307
 7558W        W11609   4.549   1.592  11.645  0.4554  0.3304 -0.3099
 7559W        W11610   2.331  10.142   0.301 -0.0462  0.2848  0.4001
 7560W        W11611   6.244   2.317  13.262 -0.0272  0.0112 -0.3644
 7561W        W11612   7.845   0.216   2.167 -0.0276 -0.4233  0.0353
 7562W        W11613   4.473   2.898   1.697  0.0325  0.1273 -0.0217
 7563W        W11614   3.415   9.103  10.317 -0.1309  0.2053 -0.0768
 7564W        W11615   1.786   2.806   3.394  0.1299  0.2364 -0.1466
 7565W        W11616   7.333   8.483  11.756 -0.0029 -0.0114  0.1214
 7566W        W11617   2.697   4.535  13.841  0.1037  0.0148 -0.0300
 7567W        W11618   4.112   1.203   2.269 -0.0094 -0.1164 -0.1431
 7568W        W11619   8.502   3.258   4.065 -0.2908  0.0356  0.1594
 7569W        W11620   7.483   1.358   1.082 -0.0615  0.2341 -0.2433
 7570W        W11621   9.545   9.997   2.674 -0.2160  0.1982 -0.0180
 7571W        W11622   2.523   7.738  11.537  0.0318 -0.2080 -0.0021
 7572W        W11623   8.494   3.295  10.237 -0.0300 -0.1318  0.0876
 7573W        W11624   4.355   9.939  13.491  0.0041  0.1052  0.1986
 7574W        W11625   5.310   4.110   9.072  0.1566  0.2351 -0.1135
 7575W        W11626   6.707   1.509   1.751 -0.1180  0.1085  0.0419
 7576W        W11627   2.558   9.030  13.073  0.0732  0.2673 -0.0697
 7577W        W11628   2.861   6.960  13.588 -0.1452 -0.0019  0.1685
 7578W        W11629   1.622   2.815   2.385  0.0332 -0.0080 -0.2583
 7579W        W11630   5.088   0.463  10.277 -0.1483 -0.1047 -0.3299
 7580W        W11631   8.236   6.260   2.321 -0.3104 -0.1232 -0.1155
 7581W        W11632   1.890   4.047  10.398 -0.2721  0.1705  0.0502
 7582W        W11633   8.609   1.831   1.394  0.1036 -0.0228 -0.0539
 7583W        W11634   6.516   9.021  11.813 -0.1875  0.3769 -0.0716
 7584W        W11635   8.431   5.078  12.987 -0.1300 -0.1354 -0.1652
 7585W        W11636   9.338   0.170   2.432  0.1141 -0.0158  0.0222
 7586W        W11637   4.420   6.959   1.200 -0.1345 -0.0514 -0.1102
 7587W        W11638   1.510   4.159   9.557 -0.0809 -0.0848 -0.1167
 7588W        W11639   1.512   3.465   2.761 -0.1121 -0.0748 -0.2376
 7589W        W11640   7.938   3.813   3.910 -0.0264 -0.1476 -0.1154
 7590W        W11641   8.671   4.157   0.664 -0.0623  0.0315 -0.3759
 7591W        W11642   3.043   4.207   2.783  0.0582 -0.3526 -0.0484
 7592W        W11643   5.307   1.469  10.334  0.0911 -0.0496  0.1508
 7593W        W11644   9.450   7.137  12.762  0.2156 -0.4795  0.3712
 7594W        W11645   0.903   5.140  12.602  0.3234 -0.4280  0.0755
 7595W        W11646   7.321   9.573  11.742  0.3934  0.2668 -0.0304
 7596W        W11647   5.889   2.653   4.510 -0.0443 -0.1111 -0.1030
 7597W        W11648   1.447   2.047   8.871  0.1780  0.3884  0.0854
 7598W        W11649  10.170   3.025  10.470 -0.2581  0.3173  0.3465
 7599W        W11650   5.400   1.678   2.162  0.0696 -0.0852 -0.2776
 7600W        W11651   0.137   9.286   3.656  0.1290 -0.0178  0.0884
 7601W        W11652   9.799   2.368  12.182  0.0003  0.0388 -0.2381
 7602W        W11653   5.434   2.755   4.167  0.0471 -0.0383 -0.1139
 7603W        W11654   8.567   5.602   4.350 -0.1423 -0.3933 -0.3632
 7604W        W11655   4.407   0.179   1.838 -0.2357  0.2408  0.1818
 7605W        W11656  10.054   9.084   0.520  0.2029 -0.2666 -0.0708
 7606W        W11657   3.235   9.920  12.202  0.1841 -0.1266  0.0784
 7607W        W11658   2.959   7.611  12.484  0.0287 -0.0186 -0.3825
 7608W        W11659   6.343   9.128  10.333 -0.0242 -0.1802  0.1213
 7609W        W11660   7.885   9.543  12.092  0.0851 -0.1434 -0.1405
 7610W        W11661   6.913   9.344  12.116 -0.3738 -0.0005  0.1991
 7611W        W11662   8.473   5.877   2.499 -0.1129  0.2574  0.0633
 7612W        W11663   3.381   4.135   5.105  0.2756 -0.1854  0.4669
 7613W        W11664   7.868   1.722   4.748  0.2830 -0.0427 -0.1658
 7614W        W11665   7.715   9.437   3.020  0.2190 -0.1987 -0.2564
 7615W        W11666   2.390   9.354   2.729  0.1023  0.2904 -0.3792
 7616W        W11667   7.977   8.571   4.448 -0.1464  0.2678 -0.0091
 7617W        W11668   0.484   3.179  10.384 -0.1386 -0.1763  0.0223
 7618W        W11669   6.857   5.958   3.129 -0.4268  0.2074 -0.0851
 7619W        W11670   0.321   2.424   0.010 -0.0732  0.3250 -0.0357
 7620W        W11671   3.353   1.191  13.722  0.1007  0.1563 -0.2390
 7621W        W11672   2.934   5.959   2.590 -0.0713 -0.0474  0.1572
 7622W        W11673   5.730  10.106  13.617 -0.0931  0.2625 -0.1969
 7623W        W11674   7.473   9.393   3.586  0.0747 -0.0206  0.1012
 7624W        W11675   9.631   5.478   1.170  0.0393 -0.1667 -0.0819
 7625W        W11676   0.215   9.828  13.734 -0.2666 -0.1997 -0.0142
 7626W        W11677   7.979   8.242  10.340 -0.1340  0.0261  0.1218
 7627W        W11678   0.924   7.485   1.632 -0.3644 -0.2102 -0.0171
 7628W        W11679   4.979   7.461  13.429 -0.2131 -0.3598  0.0036
 7629W        W11680   7.933   4.585   5.136 -0.1208 -0.2027 -0.0015
 7630W        W11681  10.187   4.047   1.862 -0.0453  0.3296  0.2186
 7631W        W11682   1.293   5.968  13.431 -0.1697  0.0689  0.2236
 7632W        W11683   9.883   1.806   2.208  0.2195  0.0368  0.1974
 7633W        W11684   1.358   9.866  13.392  0.1563  0.2314  0.2115
 7634W        W11685   5.404   7.818  13.757  0.2337 -0.1827 -0.3980
 7635W        W11686   1.891   7.142  13.184  0.2730  0.0245  0.2637
 7636W        W11687   4.701   2.467   4.924 -0.0068  0.1842  0.2161
 7637W        W11688   8.684   0.569   0.883 -0.0805  0.1064 -0.1153
 7638W        W11689   6.655   5.482   4.071 -0.0587 -0.0618 -0.1179
 7639W        W11690   0.819   2.025   1.890  0.1765 -0.0884  0.1913
 7640W        W11691   1.572   8.241   0.930  0.2452  0.1254 -0.3136
 7641W        W11692   1.681   6.078  11.647 -0.1750  0.3175  0.1193
 7642W        W11693   0.366   0.781   0.652  0.2637 -0.2744  0.1564
 7643W        W11694   1.586   3.277   3.377  0.4115  0.0666  0.0701
 7644W        W11695   9.364   4.429   3.290 -0.1213 -0.0299  0.1549
 7645W        W11696   8.442   1.618   0.313 -0.4579 -0.1091  0.1784
 7646W        W11697   7.278   2.360  12.933 -0.1423 -0.2193  0.3248
 7647W        W11698   1.002   5.739   1.189 -0.0684  0.1006 -0.0316
 7648W        W11699   4.231   4.819  11.414 -0.0720 -0.2723 -0.0559
 7649W        W11700   9.391   0.007   0.823  0.1110  0.2146  0.0360
 7650W        W11701   8.591   9.340   0.729 -0.2032  0.0314 -0.1508
 7651W        W11702   1.887   7.699  13.427  0.2580 -0.0306  0.0087
 7652W        W11703   6.301   8.647  13.354  0.0792 -0.0004 -0.2136
 7653W        W11704   8.055   5.410  13.730  0.0037 -0.3368 -0.0496
 7654W        W11705   2.844   5.727   0.379  0.0243  0.0076 -0.1951
 7655W        W11706   3.878   2.842  13.921 -0.1369 -0.0094 -0.1891
 7656W        W11707  10.199   7.201  11.635 -0.0588 -0.2459 -0.1272
 7657W        W11708   4.638   6.497   9.632 -0.0408  0.2327 -0.1643
 7658W        W11709   2.112   3.923   4.055  0.0665 -0.0839  0.0340
 7659W        W11710   9.746   5.405   0.363 -0.0823 -0.0309 -0.0793
 7660W        W11711   4.866   1.456   4.169  0.1438  0.1712  0.2168
 7661W        W11712   0.027   1.002   1.708 -0.1705 -0.1320 -0.0293
 7662W        W11713   9.642   8.926   1.417  0.0096  0.3422 -0.0334
 7663W        W11714   0.038   2.937  12.972 -0.1312 -0.0514 -0.0955
 7664W        W11715   7.097   9.923  13.811 -0.2923 -0.0785  0.0199
 7665W        W11716   3.850   1.875  13.894 -0.0343  0.0199 -0.1402
 7666W        W11717   2.439   2.776   9.048 -0.0889  0.3541 -0.1077
 7667W        W11718   3.565   1.397   2.250 -0.0638  0.0271 -0.0870
 7668W        W11719   2.656   1.789   9.404 -0.2435 -0.0454  0.1065
 7669W        W11720   1.063   3.506  11.971  0.2874 -0.2074 -0.0816
 7670W        W11721   6.759   3.286  10.761  0.2312 -0.0026  0.1668
 7671W        W11722   7.642   1.481  10.771  0.1797  0.1677 -0.0051
 7672W        W11723   7.186   5.542  13.096 -0.1691 -0.0564  0.1330
 7673W        W11724   6.846   0.146  12.565  0.4219  0.0130  0.0960
 7674W        W11725   3.675   1.805   1.649  0.2749  0.1054  0.0012
 7675W        W11726   8.935   8.218   3.985  0.2602  0.1746 -0.1008
 7676W        W11727   1.745   1.843   9.892 -0.0978  0.1571 -0.1207
 7677W        W11728   0.859   2.431   9.496 -0.4091  0.3629 -0.2940
 7678W        W11729   9.845   4.222   3.231 -0.1034  0.1778  0.2836
 7679W        W11730   0.838   5.489  10.219 -0.3880 -0.4724 -0.0873
 7680W        W11731   7.100   5.130  12.748  0.0739 -0.0015  0.0255
 7681W        W11732   9.950   3.348   1.433 -0.0546  0.0730 -0.2830
 7682W        W11733   5.315   4.186  13.698  0.0525  0.0666 -0.4629
 7683W        W11734   0.823   1.796  10.282  0.1505  0.0557 -0.0420
 7684W        W11735   2.400   9.191   0.193  0.0613 -0.2666  0.2023
 7685W        W11736   5.404   4.038   0.294  0.1986 -0.0506  0.0482
 7686W        W11737   7.502   6.597  11.490  0.0983  0.1178  0.0512
 7687W        W11738   1.262   2.758  11.174  0.0753 -0.1766 -0.3258
 7688W        W11739   2.911   6.989  10.210 -0.0365  0.2756 -0.0787
 7689W        W11740   6.009   0.650   4.771 -0.1087 -0.0640 -0.1251
 7690W        W11741   7.710   5.018   0.694 -0.2247  0.3251 -0.4340
 7691W        W11742   7.987   7.217   4.120  0.1366  0.1588 -0.1211
 7692W        W11743   2.340   1.720   0.417 -0.0336  0.3951 -0.2186
 7693W        W11744   9.063   0.620   4.535  0.2325 -0.1980  0.1111
 7694W        W11745   6.740   6.577   3.084 -0.1864 -0.0119  0.2226
 7695W        W11746   7.894   5.860  11.232  0.1913  0.1659 -0.1374
 7696W        W11747   5.860   8.038   4.494  0.0839 -0.2279 -0.2921
 7697W        W11748   5.249   3.620   4.252 -0.1618 -0.1032 -0.1167
 7698W        W11749   8.562   9.521   3.402 -0.0556  0.3856  0.0274
 7699W        W11750   5.430   5.959   1.611 -0.0259 -0.1542 -0.1800
 7700W        W11751   5.740   5.305  12.889  0.1729 -0.2762  0.1267
 7701W        W11752  10.134  10.202   1.667  0.0270 -0.0702 -0.0768
 7702W        W11753   4.815   4.359  10.316 -0.3871 -0.0742  0.1809
 7703W        W11754   5.073  10.082  11.958  0.1580 -0.3456 -0.2821
 7704W        W11755  10.187   9.558   2.748  0.1479  0.0285  0.1313
 7705W        W11756   5.855   6.665  10.386 -0.0892 -0.0203  0.0017
 7706W        W11757   2.531   6.257   1.797  0.0326  0.1885  0.2980
 7707W        W11758   7.308   4.574  10.205 -0.1513 -0.1070 -0.0436
 7708W        W11759   2.027   9.665   3.919 -0.2576  0.0676 -0.0401
 7709W        W11760   7.673   2.574   9.234  0.2116 -0.1590 -0.0415
 7710W        W11761   5.482   3.265  10.006 -0.3166 -0.3127 -0.1714
 7711W        W11762   2.278   6.822  11.305 -0.0298  0.2386  0.4341
 7712W        W11763   5.403   8.510   2.189 -0.3240 -0.1431 -0.0491
 7713W        W11764   9.787   0.115   4.573 -0.2128  0.2536  0.0712
 7714W        W11765   5.183   0.590  12.543  0.2242  0.0179  0.0145
 7715W        W11766   6.435   1.884   4.283 -0.2586 -0.0719  0.1333
 7716W        W11767   1.731   1.876   1.142 -0.0944 -0.1600  0.0546
 7717W        W11768   5.870   0.351   0.552  0.1369 -0.0207 -0.1892
 7718W        W11769   6.595   1.449   1.135 -0.1081  0.0970  0.2952
 7719W        W11770   7.863   8.640  11.959  0.0779  0.0878 -0.0218
 7720W        W11771   3.421   9.638   4.209  0.2228  0.0834  0.0477
 7721W        W11772   2.996   8.048  13.090  0.1805 -0.0089  0.1579
 7722W        W11773   4.879   8.439  13.652 -0.0268  0.0221  0.2791
 7723W        W11774   3.032   6.973   1.576 -0.0286 -0.0949 -0.4399
 7724W        W11775   5.720   6.735   2.603 -0.1344  0.0021 -0.1061
 7725W        W11776   6.709   8.264   3.906  0.0924  0.3476  0.0161
 7726W        W11777   1.854   6.320  11.167  0.4220 -0.3339 -0.0221
 7727W        W11778   6.307  10.098   4.899  0.0299  0.0601  0.3720
 7728W        W11779   5.376   7.524  10.487 -0.0754 -0.6450 -0.1461
 7729W        W11780   2.953   6.155   9.287 -0.1339  0.2238 -0.5075
 7730W        W11781   3.467   6.346   4.620 -0.2035  0.0687  0.6762
 7731W        W11782   9.377   5.596  12.056  0.1000  0.1922  0.0766
 7732W        W11783   0.598   3.582  10.108  0.3680  0.1514 -0.1491
 7733W        W11784   3.050   2.671   2.277 -0.1454 -0.2610 -0.3119
 7734W        W11785   7.104   0.309   2.056  0.1557 -0.0877  0.0442
 7735W        W11786   1.173   8.711  11.676 -0.0544  0.0243 -0.0630
 7736W        W11787   4.827   2.147   4.444  0.0961 -0.2075 -0.5225
 7737W        W11788   9.618   6.678  12.925  0.0912  0.1438  0.3168
 7738W        W11789   9.936   1.422  12.764 -0.3417  0.0602  0.0328
 7739W        W11790   8.183   6.482   1.851 -0.0258 -0.2227  0.0046
 7740W        W11791   8.503   3.126   0.979  0.1998 -0.0744 -0.1051
 7741W        W11792   2.415   2.168   3.996 -0.1238  0.1030  0.0326
 7742W        W11793   0.716   4.348   3.475 -0.1538 -0.0126 -0.3620
 7743W        W11794  10.135   2.137  11.792 -0.2023 -0.0516  0.0894
 7744W        W11795   1.366   6.717  12.188  0.4405  0.0251  0.2285
 7745W        W11796   7.180   4.800   1.591  0.1259  0.1486  0.0566
 7746W        W11797   1.854   2.430   0.104  0.1663 -0.0961  0.0424
 7747W        W11798   5.977   1.240   3.760  0.2633  0.0360 -0.3115
 7748W        W11799   6.680   1.863  10.140 -0.0497 -0.0105 -0.1942
 7749W        W11800   5.657   9.526   1.960  0.1152  0.0018  0.0525
 7750W        W11801   7.699   9.466  11.357  0.0778  0.2457 -0.0378
 7751W        W11802   8.926   2.730   5.838  0.1745  0.0466 -0.0038
 7752W        W11803   1.288   8.847  12.762  0.3543  0.1388  0.0009
 7753W        W11804   8.003   1.868  12.700  0.2040 -0.1978 -0.0941
 7754W        W11805   0.219   3.828  12.531  0.0093 -0.1632  0.0699
 7755W        W11806   2.005   4.305   2.661  0.0010 -0.1079  0.0306
 7756W        W11807   7.675   8.999  13.340 -0.2978 -0.0757  0.5872
 7757W        W11808   4.105  10.013  11.226 -0.0496  0.1354 -0.0632
 7758W        W11809   1.838   8.678   2.784 -0.0267 -0.0660 -0.2230
 7759W        W11810   1.312   2.343   1.104 -0.2800 -0.1378  0.3987
 7760W        W11811   5.567   4.955  13.192  0.0080 -0.1717  0.2009
 7761W        W11812   2.470  10.190  11.214  0.0278  0.0946 -0.0912
 7762W        W11813   8.134   9.773   3.408 -0.0775  0.1045 -0.2179
 7763W        W11814   3.616   8.529   0.964  0.3518 -0.3606 -0.0459
 7764W        W11815   5.038   6.503  11.922  0.2375  0.0046  0.0806
 7765W        W11816   7.271   1.648   9.204  0.0811 -0.1114  0.3542
 7766W        W11817   0.656   0.845   1.118  0.3760  0.0666 -0.0248
 7767W        W11818   6.449  10.116   3.803 -0.3129 -0.3415  0.2130
 7768W        W11819   7.732   0.714   9.436 -0.0905 -0.3645  0.0321
 7769W        W11820   8.209   9.934   4.248 -0.2410  0.0236 -0.0076
 7770W        W11821   1.915   7.781   1.995 -0.0689  0.0885 -0.1744
 7771W        W11822   2.325   5.837   0.273 -0.1550  0.2076  0.1585
 7772W        W11823   7.644   8.303  12.750 -0.2420  0.0129 -0.1612
 7773W        W11824   2.040   1.147   0.743  0.0273 -0.0104  0.1398
 7774W        W11825   4.672   9.828  10.038  0.0598  0.1791 -0.0826
 7775W        W11826   2.720   9.823   2.772 -0.0757 -0.0680 -0.1713
 7776W        W11827   0.978   6.242  10.846  0.0526 -0.1233  0.0646
 7777W        W11828   8.338   2.939  12.992 -0.0004  0.1238 -0.0703
 7778W        W11829   2.870   3.195   2.473  0.0574 -0.2157 -0.1148
 7779W        W11830   7.469   9.216   4.723 -0.1885  0.1626 -0.3059
 7780W        W11831   2.763   2.905  11.685 -0.0371 -0.0100 -0.2098
 7781W        W11832   0.072   7.796   1.786 -0.1680 -0.0968 -0.1352
 7782W        W11833   7.133   4.648  13.111  0.3485 -0.1173  0.2629
 7783W        W11834   6.259   6.812  13.119  0.3728  0.1685 -0.1334
 7784W        W11835   3.647   1.242   0.645 -0.0714 -0.1563 -0.2709
 7785W        W11836   4.574   9.693   5.222  0.0615 -0.1033 -0.1182
 7786W        W11837   1.355   9.341  12.503 -0.0886  0.2118  0.0992
 7787W        W11838   0.741   0.605  12.277  0.0448 -0.4058  0.1890
 7788W        W11839   0.009   0.400   4.244 -0.3852 -0.1885  0.2115
 7789W        W11840   8.091   9.319  13.392  0.3587 -0.2589  0.1454
 7790W        W11841   1.589   3.201  11.439 -0.0987  0.0654  0.2118
 7791W        W11842   2.430   7.066  12.822  0.0713 -0.0005  0.0369
 7792W        W11843   4.540   7.624   0.401 -0.2717 -0.0828 -0.1330
 7793W        W11844   4.548   1.204   3.171 -0.1196  0.3039 -0.3382
 7794W        W11845   3.624   4.239   1.311  0.0382 -0.0517  0.4600
 7795W        W11846   1.648   7.313   1.840  0.2169 -0.2710  0.1759
 7796W        W11847   3.677   2.309   4.718  0.1442  0.0903 -0.0180
 7797W        W11848   4.259  10.009   3.213 -0.3465 -0.0495  0.1287
 7798W        W11849   8.504   7.771  11.085  0.1102  0.0255  0.3973
 7799W        W11850   2.679   3.538  11.484  0.2106 -0.3845  0.2719
 7800W        W11851   3.496   7.349   2.061 -0.1175  0.0940  0.0189
 7801W        W11852   2.817   9.203   0.938  0.0813  0.1234 -0.1669
 7802W        W11853   5.322   0.419   0.452  0.0176  0.3314  0.1748
 7803W        W11854   0.037   6.560   3.238 -0.0217 -0.2259  0.0359
 7804W        W11855   3.220   9.550   0.875 -0.0787  0.1331  0.1133
 7805W        W11856   4.550   5.858   3.073 -0.1228 -0.0437  0.2218
 7806W        W11857   6.556   9.646   4.754 -0.1027  0.0920 -0.2381
 7807W        W11858   2.340   4.769   9.762 -0.2976  0.2112 -0.0822
 7808W        W11859   1.430   5.703  10.615 -0.0157 -0.1231 -0.3038
 7809W        W11860   7.643   0.836  10.475 -0.0630 -0.2097  0.2573
 7810W        W11861   7.200   6.259   3.915 -0.0153  0.0214  0.2391
 7811W        W11862  10.203   3.005   1.923 -0.0131 -0.2138 -0.1203
 7812W        W11863   5.850   4.599   3.060 -0.1591 -0.1075 -0.0158
 7813W        W11864  10.082   1.544   4.027 -0.3781  0.0072 -0.0299
 7814W        W11865   3.308   5.200  12.624 -0.0493 -0.3877 -0.0156
 7815W        W11866   6.103   0.982  12.510 -0.3372 -0.2160  0.3316
 7816W        W11867   9.942   7.821  12.048  0.0391  0.1096  0.0449
 7817W        W11868   9.043   5.336   1.372 -0.0815 -0.0762  0.2387
 7818W        W11869   1.323   2.341   3.220  0.0740 -0.1850  0.1560
 7819W        W11870   6.487   5.801   4.537 -0.1895  0.0371 -0.0556
 7820W        W11871   6.523   5.415   3.585  0.0789 -0.0449  0.0708
 7821W        W11872   9.542   3.843  11.731  0.0062  0.0313 -0.0993
 7822W        W11873  10.001   1.187   2.514  0.2139  0.1566 -0.0643
 7823W        W11874   9.799   9.807  12.504 -0.0201  0.2117 -0.0353
 7824W        W11875   5.236   5.935   1.082 -0.0062 -0.1609  0.3331
 7825W        W11876   7.489   5.687   1.490  0.2175 -0.3934 -0.1167
 7826W        W11877   6.482   2.110   2.410  0.1006  0.1570  0.2481
 7827W        W11878   5.875   8.746   3.864 -0.0210  0.0170 -0.1127
 7828W        W11879   2.692   2.041   4.870 -0.0119 -0.1173 -0.1331
 7829W        W11880   5.639   6.179  10.523 -0.2618 -0.0902 -0.1511
 7830W        W11881   2.289   0.704  13.885 -0.2348 -0.1083 -0.1512
 7831W        W11882   0.718   3.683  13.478  0.3806  0.2235  0.1386
 7832W        W11883   3.563   1.763   0.736  0.2808  0.1543  0.4539
 7833W        W11884   9.069   8.597   2.365 -0.0023 -0.3232  0.2262
 7834W        W11885   5.174   9.029   0.364  0.0767 -0.0296  0.3362
 7835W        W11886   1.883   7.746  10.248 -0.0737 -0.0599 -0.1230
 7836W        W11887   1.540   7.593   2.896 -0.1306 -0.1731 -0.0268
 7837W        W11888   4.388   7.419  10.481  0.0206 -0.1016 -0.0279
 7838W        W11889   4.096   4.318   0.810 -0.1020 -0.0865 -0.3438
 7839W        W11890   5.247   1.568   9.821  0.2620  0.2112  0.0857
 7840W        W11891   7.575   7.623  11.322  0.3585  0.1908  0.0027
 7841W        W11892   9.243   9.166   3.673  0.1759  0.2761  0.0329
 7842W        W11893   0.823   2.243   0.037  0.2081 -0.1180 -0.2416
 7843W        W11894   3.362   7.834   1.090  0.1395  0.0217  0.1490
 7844W        W11895   0.189   5.173   9.720  0.0469 -0.0509 -0.3138
 7845W        W11896   7.926   5.205  11.834  0.2791 -0.1402 -0.0067
 7846W        W11897   1.551   4.805  13.686  0.1165 -0.1448  0.3472
 7847W        W11898   4.410  10.038   0.032 -0.4098  0.0910 -0.2422
 7848W        W11899   4.186   7.266  13.824 -0.2087 -0.0264 -0.0141
 7849W        W11900   7.213   0.859  10.202 -0.1025 -0.3272  0.4538
 7850W        W11901   7.806   4.724  11.437  0.3970  0.1150 -0.0390
 7851W        W11902   2.913   1.295   9.611 -0.2859 -0.3005  0.3204
 7852W        W11903   1.313   4.659  12.699 -0.2350 -0.0169  0.2590
 7853W        W11904   0.693   9.054   2.866  0.0991 -0.3710  0.4262
 7854W        W11905   2.447   8.990  10.513  0.0160  0.0052  0.0269
 7855W        W11906   6.262   2.152  11.597  0.2817 -0.1023 -0.3198
 7856W        W11907   3.506   1.324   3.094 -0.0675  0.1436  0.0048
 7857W        W11908   6.309   2.507   4.749 -0.1021 -0.0051 -0.0960
 7858W        W11909   0.260   0.223   2.655 -0.2727  0.0893  0.2217
 7859W        W11910   5.683   8.950   3.332  0.0513 -0.2832 -0.1531
 7860W        W11911   4.351   0.884  12.073  0.0451 -0.0220 -0.0957
 7861W        W11912   9.542   3.076   1.369  0.1368  0.0061 -0.1234
 7862W        W11913   2.196   7.447   2.823  0.1165  0.0800 -0.6933
 7863W        W11914   9.993   6.214  13.109  0.1780 -0.1967  0.0899
 7864W        W11915   4.722   9.499  12.751 -0.2130 -0.1013 -0.1519
 7865W        W11916   8.384   1.564  13.390 -0.1742 -0.4628 -0.0916
 7866W        W11917   4.936   1.830  11.073 -0.2804 -0.0694  0.0529
 7867W        W11918   6.485   2.475   2.079  0.4502 -0.3151 -0.2486
 7868W        W11919   4.981   9.118   4.110 -0.0922  0.3384 -0.1702
 7869W        W11920   0.522   9.126  12.089 -0.0131 -0.0617  0.0971
 7870W        W11921   1.254   0.332   3.987  0.0352 -0.0509 -0.0230
 7871W        W11922   5.071   0.183  12.954 -0.6178  0.0162 -0.1592
 7872W        W11923   6.259   7.702  12.222  0.0350 -0.4432  0.3589
 7873W        W11924   3.857   0.498  13.077  0.0117 -0.2857 -0.2240
 7874W        W11925   7.669   6.267   2.413  0.0647 -0.0802 -0.4458
 7875W        W11926   7.942   4.678  12.450  0.1977 -0.3549  0.0065
 7876W        W11927   9.962   3.336   3.174  0.2088  0.1952 -0.1991
 7877W        W11928   8.064   6.803   9.285 -0.1008  0.0423 -0.0975
 7878W        W11929   6.808   1.744  13.907 -0.0738 -0.1197 -0.0845
 7879W        W11930   8.067   1.820   2.816 -0.3980 -0.1233 -0.1179
 7880W        W11931   6.651   1.055   2.650  0.2037  0.0357 -0.1041
 7881W        W11932   2.714   6.463   0.977 -0.1323  0.2248 -0.0547
 7882W        W11933   2.226   9.791   2.584 -0.1908 -0.3063 -0.0251
 7883W        W11934   0.114   8.222  11.469 -0.1781  0.0116 -0.0320
 7884W        W11935   4.141   1.182   4.512 -0.2580  0.0348 -0.1105
 7885W        W11936   7.193   1.037  13.591  0.0343 -0.0916  0.2765
 7886W        W11937   9.543   6.038   3.533  0.0632 -0.1603  0.0445
 7887W        W11938   8.926   3.051   4.845  0.0266 -0.0777 -0.2222
 7888W        W11939   9.780   1.934   9.539 -0.0338 -0.1340  0.1852
 7889W        W11940   0.805   6.738   2.019 -0.1502  0.2071  0.3807
 7890W        W11941   5.490   4.088   4.400  0.1042  0.0284  0.2030
 7891W        W11942   3.384   0.244  12.276  0.0740 -0.1137  0.0838
 7892W        W11943   4.725   9.248   2.155  0.1710 -0.0196 -0.1653
 7893W        W11944   4.661   7.022  11.300  0.4240 -0.2716  0.2834
 7894W        W11945   0.836   8.028  10.659  0.0103 -0.0617 -0.3849
 7895W        W11946   3.066   4.776   3.927 -0.2873 -0.0350  0.3388
 7896W        W11947   8.546   9.071  10.252 -0.0936 -0.1809 -0.0519
 7897W        W11948   6.334   1.370   4.526  0.0816 -0.0814 -0.1199
 7898W        W11949   1.671   7.941   0.294  0.1413 -0.2607  0.1342
 7899W        W11950   1.939   0.665   0.963 -0.1828  0.0607 -0.1619
 7900W        W11951   4.972   6.072  12.923  0.2720  0.1225 -0.0125
 7901W        W11952   0.171   4.901  13.127  0.3028  0.0880  0.1913
 7902W        W11953   5.680   4.110   9.985 -0.4414 -0.0195  0.2580
 7903W        W11954   3.925   6.112   3.797  0.2287 -0.2144  0.0569
 7904W        W11955   0.670   9.668  10.665  0.2283  0.1403  0.1131
 7905W        W11956   5.362   8.581   3.682 -0.1502 -0.1173  0.0304
 7906W        W11957   5.291   1.976   0.216 -0.3679  0.3269  0.1919
 7907W        W11958   9.974   5.866   0.904  0.0843 -0.1045 -0.1151
 7908W        W11959   0.877   3.355   3.889  0.2905  0.1006 -0.0212
 7909W        W11960   7.003   7.258  11.117  0.0178  0.2163  0.0051
 7910W        W11961   5.361   7.263   4.573  0.2038  0.3299 -0.1194
 7911W        W11962   3.546   4.324   2.544  0.1902  0.0331 -0.0888
 7912W        W11963   4.342   4.131   0.229 -0.3739  0.3454 -0.3268
 7913W        W11964   6.998   3.717  11.839  0.0030  0.0281 -0.0403
 7914W        W11965   8.115   5.456  12.598 -0.2485  0.0984 -0.3987
 7915W        W11966   2.160   9.208  10.909  0.0967 -0.3094 -0.1033
 7916W        W11967   9.747   2.520   0.600 -0.0050  0.0852  0.2341
 7917W        W11968   4.041   1.249   3.171  0.3051 -0.0171 -0.1573
 7918W        W11969   3.785   8.898   2.958 -0.0972 -0.1678 -0.1753
 7919W        W11970   3.090   0.489   9.430  0.2841  0.0129  0.0960
 7920W        W11971   8.364   9.310   0.255 -0.0252  0.4157  0.2816
 7921W        W11972   6.616   1.402  11.493 -0.2668  0.0988  0.0708
 7922W        W11973  10.188   4.354   1.478  0.1247 -0.2471 -0.1941
 7923W        W11974   2.883   3.839  13.178  0.1551  0.0182  0.2523
 7924W        W11975   1.739   9.298  11.955 -0.1032 -0.0706 -0.0374
 7925W        W11976   6.823   9.046  13.889  0.1801 -0.2034 -0.0184
 7926W        W11977   6.657   9.035  11.302  0.2624  0.0867 -0.0475
 7927W        W11978   1.797   9.059   3.743  0.1825 -0.1511  0.2832
 7928W        W11979   1.087   6.198   2.086 -0.2292  0.2118 -0.1029
 7929W        W11980   7.402   3.257   4.824 -0.2379  0.1005  0.0704
 7930W        W11981   7.101   5.327  11.522 -0.1038 -0.1411 -0.1049
 7931W        W11982   9.256   1.838  11.299  0.2757 -0.3890  0.1256
 7932W        W11983   2.794   3.679   3.741 -0.0113  0.1050  0.0151
 7933W        W11984   2.954   5.819   9.722 -0.1562 -0.3342  0.0471
 7934W        W11985   5.257   6.621   3.306  0.0345  0.2717 -0.1224
 7935W        W11986   6.217   4.084  10.301  0.0670 -0.0051 -0.1116
 7936W        W11987   7.868   2.210   1.642 -0.3156  0.2487  0.1855
 7937W        W11988   6.820   5.164   1.601 -0.0660 -0.2357 -0.2336
 7938W        W11989   5.938   8.228  10.278 -0.3774 -0.0784  0.2213
 7939W        W11990   9.874  10.114  13.018 -0.0761 -0.0146  0.1224
 7940W        W11991   3.277   1.386   2.628 -0.1359 -0.0702 -0.2757
 7941W        W11992   6.637   8.655   0.796 -0.2818  0.1326  0.1513
 7942W        W11993   0.171   2.553  12.032  0.1566  0.1480  0.1888
 7943W        W11994   3.564   4.800   9.947  0.1837  0.1734 -0.1247
 7944W        W11995   1.204   8.353  13.157 -0.0819 -0.3832 -0.1614
 7945W        W11996   7.204   3.461  13.845 -0.2517 -0.0716 -0.2232
 7946W        W11997   2.094   3.850   0.415  0.1990 -0.0933 -0.3539
 7947W        W11998   5.149   4.453  11.287  0.4058  0.1580 -0.0277
 7948W        W11999   7.336   7.525   0.053  0.4153 -0.3104  0.2824
 7949W        W12000   0.538   0.822   1.840 -0.1075  0.0621 -0.0030
 7950W        W12001   2.303   3.585  12.657  0.2995  0.0654  0.1101
 7951W        W12002   9.418   9.143  12.158 -0.2181  0.1392  0.2229
 7952W        W12003   4.756   1.297   9.303  0.0683  0.1972 -0.2236
 7953W        W12004   2.785   9.957  11.537  0.0554  0.3221 -0.1768
 7954W        W12005   8.856   3.383   2.815 -0.2376 -0.0919 -0.1718
 7955W        W12006   6.446   4.230   1.528  0.1081 -0.0106 -0.1875
 7956W        W12007   7.035   8.199  12.094 -0.3010  0.2279 -0.1775
 7957W        W12008   1.184   4.423   4.337  0.0571  0.2449 -0.2612
 7958W        W12009   4.230   0.894  12.877 -0.3651 -0.4672 -0.1060
 7959W        W12010   6.830   9.764   4.328  0.0722 -0.0319  0.0875
 7960W        W12011   1.736   7.109  13.663 -0.1785 -0.1614  0.1483
 7961W        W12012   5.549   2.843   0.589  0.0084  0.2523 -0.0311
 7962W        W12013   7.849   0.968  12.806  0.1157  0.2097 -0.2020
 7963W        W12014   5.315   0.175  11.593  0.0868  0.0371  0.0360
 7964W        W12015   7.111   3.447   3.452  0.1624 -0.0215  0.2817
 7965W        W12016   0.293   9.607   2.132 -0.1265  0.2677 -0.3809
 7966W        W12017   2.392   0.618  11.691 -0.1249  0.1021 -0.0733
 7967W        W12018   8.623   1.274  13.040  0.0601 -0.1404  0.0943
 7968W        W12019   7.219   9.238  13.452  0.1051 -0.1703  0.4588
 7969W        W12020   8.045   3.351   3.697  0.1646 -0.0721  0.1925
 7970W        W12021   6.933   2.668  12.697  0.0324 -0.1911 -0.0692
 7971W        W12022   1.604   5.479   2.961 -0.0640  0.0181 -0.2156
 7972W        W12023   0.576   1.096   4.596 -0.0370 -0.2253  0.2843
 7973W        W12024   2.727   8.147  12.557 -0.2319 -0.0399 -0.1026
 7974W        W12025   4.017   6.668  13.892  0.0643 -0.1815  0.1887
 7975W        W12026   3.883   4.582  13.798  0.0418 -0.1374 -0.3650
 7976W        W12027   9.253   5.797   1.427  0.1681  0.1013  0.2670
 7977W        W12028   4.988   7.157  12.941  0.2151 -0.2111  0.0310
 7978W        W12029   8.490   5.700   3.842  0.1339 -0.0761 -0.1399
 7979W        W12030   5.352   6.065   4.075 -0.1864 -0.3255 -0.0619
 7980W        W12031   5.817   2.826  10.895  0.1935  0.0560  0.0966
 7981W        W12032   0.125  10.066  12.754 -0.4015  0.0685  0.0936
 7982W        W12033   6.259   6.718   0.829 -0.1781 -0.1484  0.4108
 7983W        W12034   7.675   3.673  11.092  0.0312  0.1081  0.0150
 7984W        W12035   6.162   6.476  13.577  0.1153  0.0321  0.1078
 7985W        W12036   0.058   1.038  12.138  0.0654 -0.2048  0.2490
 7986W        W12037   8.776  10.055   9.032  0.0706 -0.2965  0.3024
 7987W        W12038   1.580   0.594  13.327 -0.1413  0.0641 -0.0057
 7988W        W12039   7.424   5.077  13.104  0.0229  0.1785 -0.1945
 7989W        W12040   2.901   6.936   0.120  0.1186 -0.2200 -0.0103
 7990W        W12041   8.550   2.458  10.231 -0.2806 -0.0674  0.1311
 7991W        W12042   7.204   5.924  12.764  0.0944 -0.2574 -0.1106
 7992W        W12043   0.080   4.296   4.304 -0.0429  0.0389 -0.0029
 7993W        W12044   6.735   9.148   4.040 -0.2246 -0.4743  0.1797
 7994W        W12045   0.708   2.296  10.490  0.0622  0.3010  0.0961
 7995W        W12046   4.135   6.613  13.170 -0.1424 -0.2306  0.1359
 7996W        W12047   2.425   2.600  12.301  0.0548  0.1582  0.3359
 7997W        W12048   5.681   0.393  13.279  0.0770  0.1326 -0.1018
 7998W        W12049   8.257   5.534   2.808 -0.1700  0.3125 -0.0711
 7999W        W12050   8.743   4.728   2.696  0.1109  0.0772 -0.2825
 8000W        W12051   3.749   6.726   4.759 -0.0988 -0.0813  0.0969
 8001W        W12052   9.549   6.425  13.360  0.3980 -0.0056 -0.0301
 8002W        W12053   6.242   7.664  13.409  0.0977 -0.0807  0.2086
 8003W        W12054   1.746   0.739   8.975  0.1029  0.1932 -0.1820
 8004W        W12055   8.974   2.086  12.902 -0.1921  0.1216  0.0906
 8005W        W12056   7.722   7.194  12.516  0.0425  0.3770  0.0578
 8006W        W12057   6.166   2.135   0.608  0.1239 -0.0549  0.0625
 8007W        W12058   1.617   4.224  12.304 -0.1885  0.0601  0.0694
 8008W        W12059   1.789   6.937   4.851 -0.1175  0.2194 -0.1386
 8009W        W12060   1.634   9.151   1.436 -0.2583  0.0001 -0.0901
 8010W        W12061   3.040   9.891   2.344  0.2313 -0.0433 -0.4594
 8011W        W12062   5.586   3.647   1.092  0.2306  0.0158 -0.0572
 8012W        W12063   3.408   6.226  12.291  0.0153  0.4577 -0.1488
 8013W        W12064   1.563   3.083  13.283  0.0268  0.4786  0.2936
 8014W        W12065   6.646   6.714   1.476 -0.1090  0.1059 -0.1023
 8015W        W12066   9.725   5.784  10.192  0.2915 -0.2467 -0.2731
 8016W        W12067   5.665   1.603   3.562  0.2368  0.1404  0.3344
 8017W        W12068   6.990   5.026  13.405  0.2832  0.3149 -0.1248
 8018W        W12069   7.891   9.833   9.449  0.0367  0.1000 -0.3966
 8019W        W12070   5.046   6.496  12.499  0.4246 -0.2764 -0.0779
 8020W        W12071   1.467   5.729   1.533 -0.0056  0.4709 -0.0621
 8021W        W12072   3.208   3.038   4.305  0.0525  0.0050 -0.0401
 8022W        W12073   3.920   4.702  10.414 -0.3084 -0.0854  0.0295
 8023W        W12074   2.074   5.252   3.305 -0.1996 -0.4415  0.1430
 8024W        W12075   4.578   1.341   3.633  0.0247  0.1729 -0.0388
 8025W        W12076   2.828   3.140   9.765 -0.2200 -0.2297  0.2745
 8026W        W12077   7.346   7.773  12.266  0.2681 -0.1809 -0.0234
 8027W        W12078  10.113   5.803  11.829  0.0393  0.0523 -0.1479
 8028W        W12079   5.409   8.656  12.928  0.0937  0.0292  0.1324
 8029W        W12080   5.772   5.865  12.999 -0.0946  0.1885  0.1487
 8030W        W12081   5.399   8.762   4.160 -0.2102 -0.0721  0.1648
 8031W        W12082   8.013   3.703  13.444  0.2820 -0.0084  0.0677
 8032W        W12083   0.478   4.399   4.601  0.0604  0.2655 -0.0556
 8033W        W12084   4.528   3.644   0.376  0.1748 -0.1379  0.2827
 8034W        W12085   9.733   8.048   0.766 -0.1120  0.1572 -0.1460
 8035W        W12086   9.382   9.370   1.311 -0.1030 -0.0814 -0.0872
 8036W        W12087   8.198   3.226   0.114  0.3385  0.0261  0.2665
 8037W        W12088   7.182   4.026   4.653 -0.1344  0.2205 -0.0946
 8038W        W12089   6.137   5.719  11.946  0.1629 -0.2410 -0.0141
 8039W        W12090   6.104   3.407  11.714 -0.1513 -0.0907 -0.1641
 8040W        W12091   8.744   0.696  10.639 -0.0024  0.0474 -0.0324
 8041W        W12092   0.208   5.853   4.162 -0.1578 -0.1816 -0.2725
 8042W        W12093   2.996   8.321  11.769 -0.0174 -0.0036 -0.0179
 8043W        W12094   9.314   7.479   0.956 -0.1350 -0.0621 -0.3583
 8044W        W12095   9.506   1.443  12.533  0.1557  0.3421 -0.2886
 8045W        W12096   4.505   5.817  12.430 -0.1328  0.2454  0.2214
 8046W        W12097   5.083   4.541   2.644  0.0444 -0.2273 -0.0628
 8047W        W12098   8.115   8.711  10.150  0.0709 -0.1013  0.1332
 8048W        W12099   2.461   3.040   9.459  0.2186  0.0392  0.3088
 8049W        W12100   1.021   8.401   2.535  0.2322 -0.2540 -0.3444
 8050W        W12101   9.088   3.236   2.409 -0.2351  0.1556 -0.0653
 8051W        W12102   1.384   0.775  12.895 -0.0241  0.2469 -0.3390
 8052W        W12103   7.106   9.261   1.860  0.0774  0.0004 -0.1185
 8053W        W12104   5.051   8.090   9.664 -0.0735  0.5483  0.0980
 8054W        W12105   5.172   7.698  12.072  0.0017  0.1206 -0.0717
 8055W        W12106   9.834   0.672   0.674  0.0370 -0.0749  0.2311
 8056W        W12107   1.429   5.087   0.319  0.4936 -0.1969 -0.5877
 8057W        W12108   4.635   7.595   9.481  0.0331 -0.0503 -0.0872
 8058W        W12109   9.582   3.288   3.457  0.4500  0.0556  0.0842
 8059W        W12110   0.952   2.432  11.550 -0.0041 -0.0914  0.1961
 8060W        W12111   3.439   5.078   4.207  0.0284  0.0905  0.2170
 8061W        W12112   0.892   5.085   0.500  0.1504  0.0058  0.0964
 8062W        W12113   6.548   0.108  13.017  0.0296  0.1379  0.3668
 8063W        W12114   2.718   8.458   2.029 -0.0594 -0.0244  0.2201
 8064W        W12115   3.615   9.127   1.057  0.2208  0.1007  0.2488
 8065W        W12116   4.691   4.657  12.079  0.0126 -0.1469  0.3124
 8066W        W12117   4.459   9.370   5.607 -0.0999 -0.1112  0.1987
 8067W        W12118   0.361   4.747   2.034  0.1292 -0.0077 -0.0964
 8068W        W12119   2.039   5.186  12.725  0.0243 -0.2066  0.2025
 8069W        W12120  10.137   5.710   0.439  0.2019  0.0441 -0.0195
 8070W        W12121   2.778   2.945  10.742  0.4241 -0.2253 -0.1559
 8071W        W12122   4.287   2.263  13.347 -0.0286  0.1514  0.0389
 8072W        W12123   2.999   7.900   3.186 -0.3618 -0.0457  0.2238
 8073W        W12124   3.090   2.515   4.306 -0.2568  0.2341 -0.0856
 8074W        W12125   2.151   9.054  11.750 -0.0036  0.0369 -0.1812
 8075W        W12126   4.667   6.594   4.557 -0.1271  0.0205 -0.2297
 8076W        W12127   0.418   1.940   0.209 -0.0390 -0.1204  0.1930
 8077W        W12128   1.068   7.469   2.735 -0.1162 -0.0129  0.0591
 8078W        W12129   8.407   0.748   9.639  0.0946  0.1224 -0.2090
 8079W        W12130   3.491   9.591  10.590 -0.0642 -0.1297 -0.2836
 8080W        W12131   7.405   6.525   3.540 -0.1776  0.2751 -0.3341
 8081W        W12132   5.822   1.255   9.052 -0.1169  0.1352  0.0157
 8082W        W12133   5.851   7.236  11.061  0.2443  0.1108  0.0328
 8083W        W12134   6.860   3.236   0.624 -0.0735  0.1205  0.1623
 8084W        W12135   3.633   6.384  11.284 -0.1624  0.0659 -0.3729
 8085W        W12136   3.028   7.299   2.053  0.0944  0.3264  0.1874
 8086W        W12137   4.463   2.339  12.842  0.0183 -0.1448 -0.2429
 8087W        W12138   4.376   1.439   0.084  0.0590 -0.2902 -0.2164
 8088W        W12139   0.564   3.065   2.620  0.0083 -0.1559 -0.1875
 8089W        W12140   6.013   1.650   0.583  0.3136 -0.1632  0.0463
 8090W        W12141   8.738   4.417  11.096  0.0684 -0.2456  0.1685
 8091W        W12142   6.226   6.912  10.613 -0.0923 -0.0344 -0.3672
 8092W        W12143   7.188   3.649  12.975  0.0143  0.0250  0.0999
 8093W        W12144   3.685   6.326  13.681  0.1042  0.3938 -0.0125
 8094W        W12145   5.348   4.919  11.409 -0.0350 -0.0592 -0.2436
 8095W        W12146   7.713   9.628   1.321 -0.2509 -0.0143  0.2219
 8096W        W12147  10.019   8.016  12.539  0.1046  0.0965  0.0596
 8097W        W12148   6.013   3.585   0.155  0.1627  0.2825 -0.5039
 8098W        W12149   2.971   8.483  12.233 -0.1712  0.0121  0.0037
 8099W        W12150   5.612   7.323  12.843  0.0323  0.1404  0.1967
 8100W        W12151   7.531   3.540   3.657 -0.2082  0.0944  0.2774
 8101W        W12152   3.166   4.313   9.233  0.0661 -0.2364  0.0977
 8102W        W12153   7.422   7.283   0.484 -0.3496  0.0244 -0.2175
 8103W        W12154   1.331   4.952  11.035 -0.3555  0.1077 -0.0661
 8104W        W12155   2.728   7.515   3.544 -0.1832 -0.0392  0.0809
 8105W        W12156   7.842   8.847  10.532 -0.2554 -0.0898 -0.0347
 8106W        W12157   7.085   2.565   0.927  0.0891 -0.1575  0.1530
 8107W        W12158   2.778   5.209   2.009 -0.0189  0.1504 -0.1928
 8108W        W12159   4.472   3.644   1.124  0.3629  0.1113 -0.1047
 8109W        W12160   5.655   1.197  13.379  0.0700 -0.0115  0.2060
 8110W        W12161   8.252   4.043   0.174 -0.1116  0.0296  0.3623
 8111W        W12162   2.373   4.039   2.360 -0.3551 -0.2249  0.0456
 8112W        W12163   4.390   5.331  10.801 -0.1784 -0.1698  0.0754
 8113W        W12164   7.297   9.035   0.250  0.1404 -0.0824 -0.0923
 8114W        W12165   4.962   2.071   0.686  0.1771  0.0550 -0.0667
 8115W        W12166   1.192   9.768   3.162 -0.0798 -0.2813  0.1130
 8116W        W12167   2.515   0.431  12.708  0.1256  0.0661  0.3210
 8117W        W12168   7.858   9.797  12.554 -0.3034  0.1514 -0.1028
 8118W        W12169   4.600   5.591  10.415 -0.0808  0.1408 -0.2190
 8119W        W12170   8.974   7.779  13.513 -0.0389 -0.1666 -0.1183
 8120W        W12171   7.863   2.463   0.450  0.1882 -0.0341  0.0711
 8121W        W12172   8.859  10.009   1.924  0.3171  0.0767 -0.0225
 8122W        W12173   1.936   7.504  13.911 -0.2578 -0.5106  0.0130
 8123W        W12174   2.274   6.420   4.564  0.1140  0.0993 -0.1622
 8124W        W12175   6.070   6.632  12.277 -0.0516  0.0315  0.0699
 8125W        W12176   6.406   0.271   0.759  0.0390 -0.0502 -0.2530
 8126W        W12177   7.671   5.418   1.085 -0.2028 -0.1225 -0.1920
 8127W        W12178   4.360   8.653   2.619 -0.1090  0.1177  0.1325
 8128W        W12179   2.199   4.224   9.085 -0.0131 -0.4351 -0.1858
 8129W        W12180   7.752   3.654  10.568  0.1181  0.2261 -0.3387
 8130W        W12181   3.986   9.605   4.397 -0.0006 -0.0294 -0.1708
 8131W        W12182   8.809   0.148  10.512 -0.4398  0.1597  0.2100
 8132W        W12183   3.498   4.304   9.649 -0.2930 -0.0922 -0.1307
 8133W        W12184   4.150   7.585   3.576  0.1101 -0.1349  0.3394
 8134W        W12185   8.355   6.059   3.524 -0.1397  0.1423  0.2732
 8135W        W12186   0.852   4.032   0.019  0.1066 -0.1977 -0.3713
 8136W        W12187   3.249   8.566   3.613  0.1976  0.0225  0.1501
 8137W        W12188   4.299   9.488   2.447  0.0478 -0.2677  0.0868
 8138W        W12189   9.034   8.471  10.126 -0.0285 -0.1568 -0.3768
 8139W        W12190   9.758   1.796  13.740 -0.0989 -0.0894 -0.0137
 8140W        W12191   1.355   5.027   4.624 -0.1365 -0.4191  0.1689
 8141W        W12192   8.256   8.469   1.332 -0.1935 -0.1369 -0.1496
 8142W        W12193   2.343   3.374  13.212 -0.2193 -0.0375 -0.1176
 8143W        W12194   6.753   9.135   4.941 -0.3436 -0.0883  0.1010
 8144W        W12195   3.920   3.775   3.741 -0.0788 -0.0080 -0.3839
 8145W        W12196   2.121   9.163   9.618 -0.1206 -0.0506 -0.0808
 8146W        W12197   2.983   8.710  10.975  0.0808  0.0209  0.1892
 8147W        W12198   6.682   0.421   9.872 -0.0809  0.0957 -0.0279
 8148W        W12199   1.549   5.394   3.521  0.3470 -0.1249  0.1826
 8149W        W12200  10.120   5.595   3.069  0.1877  0.1715 -0.1076
 8150W        W12201   8.180   2.336  13.123 -0.0908  0.0673  0.1285
 8151W        W12202   8.506   1.394   1.125 -0.0901 -0.1814  0.1188
 8152W        W12203   4.038   7.771   2.929  0.2087 -0.1006 -0.1376
 8153W        W12204   1.852  10.113   9.989 -0.1238  0.2795  0.2466
 8154W        W12205   2.683   0.651  13.566 -0.0669  0.2713  0.2056
 8155W        W12206   5.651   1.025  11.083  0.0017  0.0982 -0.1836
 8156W        W12207   3.050   6.070  11.904 -0.0152  0.2455  0.0125
 8157W        W12208   1.643   1.662  12.258  0.1208  0.3190  0.0385
 8158W        W12209   3.393   4.313  11.212 -0.3987  0.0025 -0.2292
 8159W        W12210   0.982   5.878   1.707 -0.2803  0.0657 -0.0287
 8160W        W12211   3.483   1.419  11.035  0.0135 -0.0084 -0.0223
 8161W        W12212   6.788   3.242   4.182  0.0521  0.0035  0.1814
 8162W        W12213   5.049   1.011   2.801 -0.1769  0.1702  0.0918
 8163W        W12214   0.876   1.972   0.479  0.1550  0.1165 -0.0002
 8164W        W12215   7.030   9.822  12.393  0.1054  0.1584  0.0350
 8165W        W12216   9.359   7.886  11.343  0.1692  0.1673 -0.3165
 8166W        W12217   7.828   2.115   3.924 -0.1916  0.1787 -0.0445
 8167W        W12218   9.229   4.287  12.526  0.1918  0.0045 -0.0125
 8168W        W12219   7.907   8.628  11.174  0.0280 -0.3327 -0.2671
 8169W        W12220   3.380   2.776   3.351 -0.1005  0.0981 -0.2696
 8170W        W12221   3.642   9.323  13.689 -0.0149  0.1068  0.2298
 8171W        W12222   7.191   8.365   3.941  0.2117  0.3274  0.3439
 8172W        W12223   5.913   8.468   1.986 -0.1245 -0.0591  0.4042
 8173W        W12224   9.014   7.000  12.095 -0.1170  0.2751  0.3103
 8174W        W12225   7.294   9.003   3.778 -0.0880 -0.0014 -0.3984
 8175W        W12226   1.353   4.434   4.820  0.1576 -0.2136  0.1287
 8176W        W12227   2.307   6.145   3.523 -0.2821  0.2083 -0.0135
 8177W        W12228   3.732   5.126   9.617  0.0376  0.0395 -0.0955
 8178W        W12229   2.350   8.396   0.415  0.2283  0.0584 -0.0902
 8179W        W12230   1.157   9.307   9.593 -0.1323 -0.1084  0.1803
 8180W        W12231   8.427   9.199   1.989 -0.1595 -0.0991  0.0961
 8181W        W12232   0.093   0.503   1.878 -0.2269 -0.1021 -0.2337
 8182W        W12233   2.386   8.701   9.252  0.1830  0.0602  0.0188
 8183W        W12234   4.984   5.716   9.471 -0.4258  0.2116  0.0639
 8184W        W12235   1.784   4.230   4.260  0.1500  0.0380 -0.0141
 8185W        W12236   9.608   7.497   3.817 -0.2435  0.0983  0.1918
 8186W        W12237   3.972   4.671   8.652 -0.0758 -0.1305 -0.2147
 8187W        W12238   0.648   5.777  13.348  0.1265  0.0390  0.2436
 8188W        W12239   3.856   9.302   0.308 -0.0606 -0.3854 -0.0485
 8189W        W12240   4.104   9.753   5.492 -0.0702 -0.2061  0.3033
 8190W        W12241   8.274   1.838   2.249 -0.0541  0.0211  0.1255
 8191W        W12242   4.046   6.058   1.185 -0.2284  0.3217 -0.2034
 8192W        W12243   3.978   4.567   2.345 -0.1514  0.2316 -0.1319
 8193W        W12244   2.621   0.095   3.180 -0.1299 -0.0040 -0.0359
 8194W        W12245   4.336   3.921   0.705  0.0934  0.0691 -0.0055
 8195W        W12246   4.649   5.338   9.364 -0.2755  0.1058  0.1912
 8196W        W12247   1.293   3.176  10.679 -0.1578 -0.0818 -0.0520
 8197W        W12248   1.518   7.060  11.615 -0.0109 -0.1593 -0.0582
 8198W        W12249   5.530   9.409  10.382  0.4200 -0.2124  0.0343
 8199W        W12250   7.757   3.204   0.354 -0.1215  0.0716 -0.0023
 8200W        W12251   1.984   9.093  10.396 -0.0238  0.0622 -0.2772
 8201W        W12252   1.917   0.974  11.592 -0.0247 -0.1554 -0.1507
 8202W        W12253   7.627   1.772   3.151 -0.0065 -0.0731  0.0790
 8203W        W12254   8.454   9.922  12.492 -0.1729 -0.1921 -0.0868
 8204W        W12255   4.007   8.803   1.844  0.0099 -0.1519 -0.1195
 8205W        W12256   7.069   5.567   3.364  0.0895  0.1252  0.4183
 8206W        W12257   7.344   2.755  10.952  0.1776  0.2352 -0.1152
 8207W        W12258   2.061   5.901  12.755 -0.0913  0.0755  0.0482
 8208W        W12259   8.172   1.133  12.329  0.0082 -0.1329  0.0312
 8209W        W12260   1.559   2.053   2.172  0.0215  0.1055  0.0270
 8210W        W12261   5.478   5.725  12.579 -0.1070 -0.2922  0.2305
 8211W        W12262   9.422   5.385   2.374  0.0060  0.0534  0.0571
 8212W        W12263   6.598   4.073  12.042  0.3601 -0.1341 -0.2841
 8213W        W12264   7.515   8.782   1.481 -0.1449 -0.2663  0.3995
 8214W        W12265   6.588   7.540   1.680  0.1895  0.0945  0.0075
 8215W        W12266   3.458   8.950   0.131 -0.0130  0.0560 -0.2746
 8216W        W12267   4.054   0.972  10.694  0.0219 -0.0498 -0.1251
 8217W        W12268   1.741   3.656   4.421  0.1339 -0.0588  0.0763
 8218W        W12269   9.735   7.324   0.488 -0.0211 -0.1165  0.0917
 8219W        W12270   8.884   1.840   2.314 -0.2182 -0.5301 -0.2072
 8220W        W12271   3.657   3.023  12.284  0.0255  0.3901 -0.1643
 8221W        W12272   4.588   0.225   0.297  0.0251 -0.0278  0.1413
 8222W        W12273   7.282   0.800   0.985 -0.3029 -0.0884 -0.2239
 8223W        W12274   2.381   3.393   1.555 -0.1409 -0.0655 -0.2110
 8224W        W12275   4.694   0.639  11.167  0.1010  0.0484  0.1535
 8225W        W12276   1.200   9.846   9.570 -0.0302  0.1057 -0.0291
 8226W        W12277   7.971   0.564  12.410  0.2837  0.1074  0.0616
 8227W        W12278   2.449   6.753   0.211 -0.1551  0.1595  0.2810
 8228W        W12279   5.984   0.129   3.483 -0.1761  0.1192 -0.1364
 8229W        W12280   5.265   4.677   1.013  0.1465 -0.0594 -0.1109
 8230W        W12281   0.918   8.572   9.923 -0.1356 -0.0178 -0.1067
 8231W        W12282   3.743   3.104   9.438  0.1378 -0.0811 -0.0869
 8232W        W12283   2.073   2.928  13.052  0.0260 -0.1320  0.1029
 8233W        W12284   9.579   0.538   4.316  0.0466 -0.0414  0.2990
 8234W        W12285   2.402   0.429   1.043  0.1968  0.2590  0.0498
 8235W        W12286   5.734   0.369   4.299  0.0603 -0.1811  0.0450
 8236W        W12287   8.961   4.032  13.535  0.0943 -0.0890  0.1219
 8237W        W12288   2.594   2.136   9.827 -0.0281  0.0305  0.0297
 8238W        W12289   8.320   1.652  11.432  0.0143 -0.0833  0.2057
 8239W        W12290   3.868   9.778   3.984  0.1564  0.1305  0.2581
 8240W        W12291   3.762   3.876   1.602 -0.1334  0.1573  0.0264
 8241W        W12292   5.163   9.691   4.363 -0.0652  0.2132 -0.2070
 8242W        W12293   2.700   0.222   9.516 -0.0167 -0.0672  0.0354
 8243W        W12294   2.498  10.049   2.146 -0.0751 -0.2326  0.0944
 8244W        W12295   9.689   7.122  11.475  0.0022  0.1205  0.0424
 8245W        W12296   7.397   4.843   3.962 -0.1356 -0.1589  0.2798
 8246W        W12297   6.403   0.193   2.549 -0.1243 -0.0466 -0.2952
 8247W        W12298   3.917   1.580  12.224  0.3046 -0.2650 -0.0704
 8248W        W12299   2.580   6.073  13.182  0.0326 -0.0230 -0.3631
 8249W        W12300   6.116   2.807  13.335  0.0979  0.0726  0.1171
 8250W        W12301   7.109   5.050  10.327  0.1547 -0.0753 -0.0469
 8251W        W12302   7.102   9.235   2.818  0.0968 -0.0694 -0.2502
 8252W        W12303   3.426   7.294  10.074  0.5616  0.0670 -0.3616
 8253W        W12304   2.112   6.144   3.103  0.2136 -0.0424  0.4973
 8254W        W12305   4.803   7.917   2.280  0.1134 -0.0005  0.0265
 8255W        W12306   1.274   5.425  12.459  0.0758  0.2474 -0.0471
 8256W        W12307   3.846   0.098   3.248  0.1989 -0.0256  0.3157
 8257W        W12308   0.958   4.125  11.404  0.1183 -0.2892 -0.2825
 8258W        W12309   1.745   6.599  10.785 -0.0263  0.0638  0.1987
 8259W        W12310   7.981   9.041   2.944  0.0165 -0.2926 -0.0675
 8260W        W12311   2.143   4.974   3.833 -0.1905 -0.0333  0.1641
 8261W        W12312  10.035   5.284   2.426  0.3488  0.0594  0.0811
 8262W        W12313   3.632   3.807  11.381  0.1064  0.1623 -0.0520
 8263W        W12314   9.764   9.365   0.088 -0.0397 -0.0230  0.1563
 8264W        W12315   7.358   2.546  13.703  0.0171  0.3482 -0.0297
 8265W        W12316   6.713   7.911  12.383  0.0130  0.0196 -0.1699
 8266W        W12317   0.989   8.026   2.240  0.0500  0.0424  0.1988
 8267W        W12318   9.907   7.415   1.510 -0.0011  0.0836  0.0357
 8268W        W12319   8.644   7.187  10.865 -0.0855  0.1568  0.1823
 8269W        W12320  10.029   4.711   3.629  0.1725  0.1630  0.2019
 8270W        W12321   7.695   2.667  11.282 -0.0814  0.1585 -0.2397
 8271W        W12322   8.850   2.908  13.479 -0.2388  0.0590  0.1255
 8272W        W12323   2.385   4.022  10.255  0.1227  0.0484  0.0502
 8273W        W12324   0.249   3.970  11.883  0.3432 -0.1970 -0.2418
 8274W        W12325   2.148   0.561   9.372  0.0366  0.1515 -0.0486
 8275W        W12326   7.558   9.772   3.900  0.1899  0.0418  0.1287
 8276W        W12327   3.617  10.190   0.263  0.1177 -0.0070 -0.0390
 8277W        W12328   1.174   7.942   2.669  0.0951  0.0116 -0.2299
 8278W        W12329   0.377   8.710  12.756 -0.0973  0.0055  0.0293
 8279W        W12330   5.413   6.780   4.776 -0.0280 -0.2498  0.0425
 8280W        W12331   3.541   6.939   3.963 -0.1798  0.2882  0.0968
 8281W        W12332   0.549   6.110  12.371 -0.2479  0.2868  0.1282
 8282W        W12333   5.103   0.832   0.073  0.1601 -0.0770 -0.1736
 8283W        W12334   9.287   8.100  13.774 -0.5117  0.1645 -0.0008
 8284W        W12335   0.686   4.525  10.554  0.0398 -0.2180  0.2880
 8285W        W12336   7.952   2.992   3.387  0.3462  0.2668 -0.0064
 8286W        W12337  10.069   5.299  12.959 -0.3739  0.2809 -0.2082
 8287W        W12338   5.997   5.428   1.109 -0.2036  0.2227 -0.0788
 8288W        W12339   2.089   2.248   9.959  0.0018 -0.1967 -0.0442
 8289W        W12340   9.731   8.253  11.483 -0.1726 -0.0866  0.1067
 8290W        W12341   9.800   8.326  10.223 -0.1642 -0.0505 -0.2142
 8291W        W12342   8.738   9.973   3.479 -0.2629 -0.2702 -0.0495
 8292W        W12343   7.251   7.429   2.235 -0.0960  0.0497  0.1566
 8293W        W12344   0.881   5.498  12.974  0.0844  0.0588 -0.0996
 8294W        W12345   9.270   1.088  10.653  0.2664 -0.0301 -0.3126
 8295W        W12346   5.803   8.586  12.583 -0.1014 -0.2165 -0.0176
 8296W        W12347   5.933   7.234   9.494  0.0083  0.0948  0.2113
 8297W        W12348   5.376   4.663   3.043  0.1427 -0.2202  0.1114
 8298W        W12349   6.420   0.454  12.368  0.0775 -0.2847  0.0735
 8299W        W12350   8.909   2.078  12.090 -0.1595  0.0279 -0.3156
 8300W        W12351   4.295   7.845  10.195  0.1267  0.0101  0.0213
 8301W        W12352   9.609   5.056   4.192 -0.5705 -0.2263 -0.0116
 8302W        W12353   3.689   0.937   4.630 -0.0970  0.1473  0.0515
 8303W        W12354   3.456   8.642   9.469  0.2152 -0.0735 -0.0734
 8304W        W12355   0.510   4.288  12.363 -0.2033  0.0591 -0.2280
 8305W        W12356   3.833   9.810   2.214  0.4014  0.2190 -0.1236
 8306W        W12357   6.919   9.450   0.898  0.1614 -0.2626 -0.3469
 8307W        W12358   3.950   6.193   4.784  0.3337  0.1275 -0.0473
 8308W        W12359   0.090   3.523   1.965 -0.0371  0.0373  0.0021
 8309W        W12360   5.914   6.203  10.131 -0.1189 -0.4403  0.2267
 8310W        W12361   8.722   9.873  10.589  0.4133 -0.2526  0.2024
 8311W        W12362   0.027   3.017   2.726 -0.0263 -0.0412 -0.0907
 8312W        W12363   2.705   0.752   5.172 -0.1741  0.2225 -0.2557
 8313W        W12364   6.761  10.124   0.676  0.3075 -0.2099 -0.2538
 8314W        W12365   6.891   4.448   1.417  0.3531  0.2384  0.3357
 8315W        W12366   5.066   3.779   1.177  0.0155 -0.2362  0.0254
 8316W        W12367   2.027   3.231   0.611  0.0352  0.5554 -0.0388
 8317W        W12368   5.311   6.075  13.807 -0.0092  0.0803  0.3011
 8318W        W12369   0.253   6.149  13.285  0.0853 -0.0338  0.0627
 8319W        W12370   0.230   8.823   0.372  0.2896 -0.0037  0.0641
 8320W        W12371   7.589   3.845  13.650 -0.3692 -0.1681  0.1852
 8321W        W12372   3.362   7.349   1.562 -0.0579  0.0583 -0.0615
 8322W        W12373   0.636   3.185   0.199 -0.3117  0.0012  0.1646
 8323W        W12374   5.430   8.467  11.354  0.3261 -0.0272 -0.1723
 8324W        W12375   0.914   0.384  10.602  0.0526  0.3730 -0.2790
 8325W        W12376   5.170   1.736   4.473  0.5787 -0.5113  0.1086
 8326W        W12377   7.420   1.805   9.614 -0.2555  0.0514 -0.0936
 8327W        W12378   1.587   9.388   1.952 -0.0024  0.0266 -0.0425
 8328W        W12379   6.255   6.965   3.193  0.3943  0.0875 -0.0602
 8329W        W12380   3.518   8.234  12.887  0.2243  0.2791 -0.0142
 8330W        W12381   1.876   6.099   4.326 -0.0115 -0.2306 -0.1775
 8331W        W12382   9.571   5.902   1.758 -0.0510 -0.2997 -0.0673
 8332W        W12383   8.459   6.534  11.491 -0.0148 -0.2742 -0.1740
 8333W        W12384   4.635   9.473  11.553 -0.2227 -0.3494  0.2297
 8334W        W12385   2.044   2.685   0.624  0.0193 -0.3159  0.0282
 8335W        W12386   8.372   2.980  13.611  0.1464 -0.0930  0.2786
 8336W        W12387   0.982   4.837   9.553  0.1618  0.2697  0.2821
 8337W        W12388   1.989   1.449  13.250 -0.1615 -0.3934  0.1370
 8338W        W12389   5.604   2.793   0.061 -0.1309 -0.0371  0.2087
 8339W        W12390   7.163   6.863  10.565  0.2060 -0.1738  0.0204
 8340W        W12391   3.373   5.301  11.614 -0.1057 -0.4166 -0.0094
 8341W        W12392   9.716   8.122   1.951 -0.0169  0.1583 -0.1855
 8342W        W12393   8.844   1.943   9.442  0.4728  0.0518 -0.2588
 8343W        W12394   1.206   4.764  10.506  0.0245 -0.1334 -0.1789
 8344W        W12395   3.092   3.605  10.589  0.1347  0.0546 -0.2097
 8345W        W12396   5.296   1.666   1.660  0.0060 -0.1679 -0.1649
 8346W        W12397   0.671   8.468   0.705 -0.2320  0.3138  0.0785
 8347W        W12398   9.757   3.086  10.072  0.1093  0.1039  0.0258
 8348W        W12399   9.099   7.304  13.054  0.0577 -0.1637 -0.1976
 8349W        W12400   6.249   2.593  10.828 -0.0621  0.2376 -0.3134
 8350W        W12401   4.467   6.617  12.104 -0.1976 -0.0943 -0.0916
 8351W        W12402   9.647   6.556   3.454  0.1847 -0.1984 -0.1827
 8352W        W12403   4.226   2.936  12.386  0.0554 -0.2276  0.1635
 8353W        W12404   7.637   5.144  12.328  0.1517  0.0890  0.5195
 8354W        W12405   7.111   8.810   0.707 -0.1197  0.3887  0.0615
 8355W        W12406   1.178   7.867  12.939  0.1168 -0.1968  0.0918
 8356W        W12407   3.134   1.887  13.329  0.2809  0.0871  0.3358
 8357W        W12408   8.024   5.053   1.127 -0.0732 -0.2654 -0.0911
 8358W        W12409   1.492   8.875   3.259 -0.1264  0.2446 -0.0949
 8359W        W12410   2.902   1.399   2.268  0.0013  0.2022  0.0752
 8360W        W12411   7.333   4.186   2.308  0.2144  0.0483  0.0227
 8361W        W12412   3.169   6.229   0.838  0.0721  0.0768  0.1423
 8362W        W12413   7.116   9.718  10.079 -0.1595  0.2913  0.1089
 8363W        W12414   1.444   7.456  13.372  0.4181 -0.0827  0.2217
 8364W        W12415   6.239   4.661   4.584 -0.3763 -0.2556  0.0816
 8365W        W12416   1.436   2.159   1.651  0.0506 -0.0669  0.1352
 8366W        W12417   2.708   5.655  12.187 -0.1248  0.1049 -0.0310
 8367W        W12418   9.859   4.526  12.406  0.0079  0.0771 -0.0041
 8368W        W12419   9.943   8.633   2.409 -0.2743  0.3594  0.1618
 8369W        W12420   2.137   2.799   2.804 -0.0435  0.0304 -0.0725
 8370W        W12421   4.824   6.527  13.545  0.0248  0.1728  0.0634
 8371W        W12422   7.534   3.638   4.379  0.0030  0.2415  0.0425
 8372W        W12423   5.092   9.040  10.130 -0.2274  0.1815  0.1891
 8373W        W12424   9.137   4.793  13.091 -0.0946 -0.1024 -0.1002
 8374W        W12425   7.131   1.203   4.494  0.0101  0.0455  0.0396
 8375W        W12426   3.723   9.759   1.666 -0.1972  0.0169 -0.1764
 8376W        W12427   0.865   7.387  12.464 -0.1299 -0.0320  0.1476
 8377W        W12428   3.794   7.870   0.178  0.0732 -0.1886  0.0392
 8378W        W12429   4.409   1.814  10.067  0.0836  0.0635  0.3686
 8379W        W12430   5.563   1.756  12.781  0.3408  0.0705 -0.1389
 8380W        W12431   6.997   6.697  11.356  0.0765  0.1730 -0.0019
 8381W        W12432   5.440   0.747  13.627  0.3195 -0.3072 -0.1063
 8382W        W12433   6.196   3.905   4.577 -0.0530 -0.0225  0.1982
 8383W        W12434   8.905   0.721   3.551 -0.3267 -0.0915 -0.2470
 8384W        W12435   0.864   8.903  13.707 -0.0025  0.0294 -0.1526
 8385W        W12436   0.523   9.979  12.304 -0.2553 -0.0502  0.1728
 8386W        W12437   0.618   2.421   2.151 -0.1756 -0.1932  0.2362
 8387W        W12438   9.814   1.860   3.579 -0.0930 -0.0617 -0.1761
 8388W        W12439   7.361   2.929   3.521  0.3793 -0.1385  0.3038
 8389W        W12440   0.430   3.022   4.835 -0.1187  0.0656 -0.0319
 8390W        W12441  10.172   8.496  11.042 -0.1710 -0.0233  0.1475
 8391W        W12442   1.472   9.258  10.388  0.0276 -0.0072 -0.0305
 8392W        W12443   0.069   2.896   3.530  0.1795  0.0284 -0.3091
 8393W        W12444   6.502   7.980   2.998 -0.3274  0.1655 -0.0732
 8394W        W12445   3.481   5.927   1.097 -0.3054  0.0433 -0.4700
 8395W        W12446   4.820   3.635  12.308 -0.0082  0.0506 -0.1036
 8396W        W12447   2.538   6.008  11.863  0.3103 -0.2121  0.1903
 8397W        W12448   2.391  10.128  13.372 -0.1335 -0.0642 -0.0986
 8398W        W12449   9.628   8.389  11.006 -0.0957  0.0281  0.1047
 8399W        W12450   8.242   7.826  11.548  0.3247  0.1336 -0.4615
 8400W        W12451   4.162   8.304   9.356 -0.0532  0.0948  0.0457
 8401W        W12452   7.991   9.985   4.750 -0.1795 -0.1180  0.1580
 8402W        W12453   9.016   1.185   3.754 -0.1200 -0.0895  0.1783
 8403W        W12454   1.806   9.535  13.491  0.2865  0.2177  0.2268
 8404W        W12455   8.908   5.325  13.157  0.1713 -0.0141 -0.0244
 8405W        W12456   8.312   6.033   1.866 -0.6050  0.0796  0.1087
 8406W        W12457   4.274   2.456   1.915  0.0679  0.0955 -0.2727
 8407W        W12458   4.939   8.498   9.362 -0.0832  0.5196 -0.0101
 8408W        W12459   8.031   6.150  12.194  0.4682  0.2939  0.2090
 8409W        W12460   2.791   4.561   0.383  0.0899  0.0132  0.0505
 8410W        W12461   3.402   0.521  12.856  0.3557  0.1769 -0.0522
 8411W        W12462   6.014   4.665   0.084  0.0640  0.0699 -0.0005
 8412W        W12463   4.107   2.760  13.317  0.1977 -0.0944 -0.1191
 8413W        W12464   0.862   5.404   1.474  0.4516 -0.2795 -0.0352
 8414W        W12465   4.745   6.010   3.980 -0.1364  0.0884 -0.1406
 8415W        W12466   9.381   6.272   3.117  0.0620 -0.0390 -0.0700
 8416W        W12467   2.750   3.991  10.952  0.1519  0.1610  0.0690
 8417W        W12468   4.652   7.794   0.878 -0.3564  0.0215  0.1839
 8418W        W12469   5.683   2.063   0.556  0.4356 -0.2013  0.3215
 8419W        W12470   8.328   0.050   2.014  0.1713 -0.0957 -0.1043
 8420W        W12471   5.909   0.270   1.701  0.0670  0.0794  0.1441
 8421W        W12472   6.337  10.146  13.441  0.0463 -0.2442  0.1720
 8422W        W12473   1.483   2.988  12.325  0.1230  0.1211 -0.1719
 8423W        W12474   0.958   2.868  10.329 -0.2587  0.2074  0.0649
 8424W        W12475   7.803   1.068   0.752  0.3704  0.2422 -0.0010
 8425W        W12476   8.559   5.348   1.595  0.0504 -0.1696  0.1378
 8426W        W12477   2.238   0.076   9.700  0.0595 -0.1516  0.1449
 8427W        W12478   3.957   8.302  10.570 -0.1642  0.0488 -0.0427
 8428W        W12479   0.540   2.031   4.302  0.0443 -0.0264  0.0283
 8429W        W12480   5.463   8.088   0.823  0.1919  0.1269  0.3897
 8430W        W12481   1.643   0.966   1.243 -0.1223  0.1105 -0.1691
 8431W        W12482   5.835   7.630  11.795 -0.2105 -0.0184  0.1355
 8432W        W12483   5.736   2.358   9.697  0.1379  0.0537 -0.2723
 8433W        W12484   7.901   7.525  12.903 -0.1259 -0.2036 -0.1144
 8434W        W12485   8.491   4.358   1.653 -0.3871 -0.2354 -0.0490
 8435W        W12486   0.998   0.223   0.353 -0.0852 -0.1396 -0.2723
 8436W        W12487   5.208   1.087  12.544  0.2454 -0.3295 -0.0177
 8437W        W12488   0.966   5.800  10.583 -0.0627  0.0930  0.3346
 8438W        W12489   5.110   7.762   3.398  0.1861  0.0555  0.1837
 8439W        W12490   1.929   5.532   4.351  0.1956  0.2073  0.0614
 8440W        W12491   5.191   7.590  10.033  0.1358  0.0152 -0.0696
 8441W        W12492   4.064   4.420   1.809 -0.1190  0.0404  0.2300
 8442W        W12493   4.396   1.153   9.802 -0.0801  0.1783 -0.2086
 8443W        W12494   9.348   3.382  10.301  0.2123 -0.1082  0.0868
 8444W        W12495   3.899   4.133   3.321  0.0823  0.4442  0.1007
 8445W        W12496   5.463   1.140   1.575 -0.1015  0.0488 -0.2644
 8446W        W12497   5.559   7.692   3.147 -0.1901 -0.0469  0.0229
 8447W        W12498   7.299   1.139   1.983 -0.0086  0.1013  0.0733
 8448ION    NA+12499   5.665   7.513   9.813 -0.0391 -0.2166 -0.4503
 8449ION    NA+12500   6.255   1.695  13.195 -0.0730  0.0171 -0.0926
 8450ION    NA+12501   0.996   0.904   5.181  0.4472  0.0545  0.0260
 8451ION    NA+12502   8.725   2.476  12.562  0.1277  0.4137 -0.0993
 8452ION    NA+12503   6.805   3.866   5.336 -0.1505  0.3060 -0.1092
 8453ION    NA+12504   7.677   9.928   0.570 -0.0049  0.1493 -0.2774
 8454ION    NA+12505   9.348   9.950  11.786  0.3163 -0.1192 -0.0905
 8455ION    NA+12506   6.671   5.313   2.465 -0.0916 -0.0633 -0.4423
 8456ION    NA+12507   9.840   4.672   5.004 -0.0280  0.0797 -0.0167
 8457ION    NA+12508   0.920   1.270   0.152  0.1122  0.1536  0.0438
 8458ION    NA+12509   0.334   0.763   9.666 -0.0020  0.1997 -0.3548
 8459ION    NA+12510   8.564   6.806   0.906 -0.1925 -0.1185 -0.1242
 8460ION    NA+12511   9.606   5.866   9.649  0.0798  0.0032  0.1600
 8461ION    NA+12512   3.880   1.111   9.718 -0.2218 -0.2930  0.0427
 8462ION    NA+12513   0.455   7.345  11.417 -0.0413 -0.0092 -0.0437
 8463ION    NA+12514   0.258   4.420  11.565  0.1211  0.1437 -0.3485
 8464ION    NA+12515   5.553   1.832   4.127  0.1677 -0.0008  0.0612
 8465ION    NA+12516   9.240   2.134   9.225 -0.0068  0.0464 -0.1267
 8466ION    NA+12517   9.675   5.249   3.008  0.1266 -0.1099  0.1493
 8467ION    NA+12518   4.861   3.061   0.734  0.0162 -0.2229  0.1502
 8468ION    NA+12519   2.362   1.956   8.422  0.1908 -0.1150  0.0107
 8469ION    NA+12520   6.165   5.117   8.681 -0.2711 -0.4453 -0.3484
 8470ION    NA+12521   1.435   0.485   0.266  0.1492  0.0536  0.0319
 8471ION    NA+12522   3.876   2.729   9.117 -0.1446 -0.0966 -0.1548
 8472ION    NA+12523   2.906   3.426   2.988 -0.1065 -0.0235  0.2713
 8473ION    NA+12524   8.448   5.928   3.025 -0.2843 -0.0031 -0.1469
 8474ION    NA+12525   9.017   0.679  13.572  0.1010  0.0287  0.2111
 8475ION    NA+12526   4.581   2.570   4.456 -0.1840  0.0407 -0.0772
 8476ION    NA+12527   3.235   5.171   2.364  0.1954 -0.0995 -0.0192
 8477ION    NA+12528   8.058   5.721   0.173  0.0888 -0.2014  0.0776
 8478ION    NA+12529   2.306   0.855   1.248 -0.0098  0.0056  0.1124
 8479ION    NA+12530   6.184   4.051   3.219 -0.0223 -0.4472  0.3449
 8480ION    NA+12531   9.790   1.563   2.744 -0.2831 -0.2499 -0.0009
 8481ION    NA+12532   6.884   2.198   1.219  0.0692  0.1043  0.0033
 8482ION    NA+12533   7.211   0.435   9.367  0.3035 -0.3674 -0.0628
 8483ION    NA+12534   9.753   2.976  11.718  0.1359  0.1304 -0.0178
 8484ION    NA+12535   9.673   1.911  11.064  0.1263 -0.1372  0.2464
 8485ION    NA+12536   1.007   1.563   3.714  0.0635  0.0540  0.3761
 8486ION    NA+12537   4.221   3.701   4.970 -0.2203  0.0399 -0.4586
 8487ION    NA+12538   0.219   0.953  11.101 -0.3459  0.0769  0.0033
 8488ION    NA+12539   9.905   8.653  10.622 -0.2364 -0.3389  0.1456
 8489ION    NA+12540   3.293   5.225  13.939  0.1033 -0.4155 -0.0036
 8490ION    NA+12541   5.295   2.338   1.481 -0.1000 -0.2246 -0.0105
 8491ION    NA+12542   1.473   1.168  12.382 -0.1718 -0.3109  0.1814
 8492ION    NA+12543   4.455   6.601  10.472 -0.3288 -0.0965  0.0424
 8493ION    NA+12544   9.815   4.228  10.378 -0.0631  0.0126 -0.1144
 8494ION    NA+12545   6.814   3.776  10.457 -0.0354 -0.0026  0.1994
 8495ION    NA+12546   0.683   6.086   1.278  0.1836 -0.0859  0.2338
 8496ION    NA+12547   0.442   8.907  10.146 -0.2371 -0.0133 -0.0099
 8497ION    NA+12548   4.208   0.196   9.016  0.2817  0.1928 -0.1425
 8498ION    NA+12549   3.888   5.228   2.857 -0.0750  0.1433 -0.3788
 8499ION    NA+12550   3.739   5.064   8.859  0.2436  0.0900 -0.0902
 8500ION    NA+12551   9.146  10.051   3.158 -0.0063 -0.0414 -0.1827
 8501ION    NA+12552   0.968   2.908   0.637  0.4729 -0.2411 -0.0995
 8502ION    NA+12553   7.871   2.578   1.291 -0.0167  0.1105 -0.2449
 8503ION    NA+12554   5.875   0.204   1.165  0.4677  0.4128  0.0565
 8504ION    NA+12555   0.209   8.649  13.342  0.1544 -0.1230 -0.0713
 8505ION    NA+12556   0.372   1.735   2.019 -0.2735  0.0179 -0.2734
 8506ION    NA+12557   5.980   1.373   2.274 -0.2601  0.1228  0.0218
 8507ION    NA+12558   3.565   8.882   9.052 -0.0977  0.2238 -0.0063
 8508ION    NA+12559   2.938   7.722   2.697 -0.1407  0.0306 -0.1810
 8509ION    NA+12560   9.880   7.371   2.872  0.1280  0.1270 -0.1492
 8510ION    NA+12561   9.705   6.551  10.839 -0.0068  0.0753 -0.1952
 8511ION    NA+12562   1.197   5.940   0.309 -0.0322  0.0203  0.0351
 8512ION    NA+12563   9.782   8.981   3.190  0.2238 -0.1749  0.1473
 8513ION    NA+12564   0.273   0.605  12.086 -0.5202  0.1063  0.0220
 8514ION    NA+12565   2.366  10.129   4.860  0.1065 -0.0288  0.0409
 8515ION    NA+12566   5.470   4.311   3.415 -0.1069  0.1512 -0.0682
 8516ION    NA+12567  10.042   2.851  10.983  0.2137 -0.0323  0.3886
 8517ION    NA+12568   8.076   8.738   0.346 -0.2625  0.1381  0.5057
 8518ION    NA+12569   6.917   3.239  11.695  0.2202 -0.4037  0.1063
 8519ION    NA+12570   8.504  10.160   4.898 -0.0705  0.0997  0.1601
 8520ION    NA+12571   3.111   2.277   1.202  0.2435  0.0242  0.0079
 8521ION    NA+12572   6.211   2.391   2.725  0.2174  0.2912 -0.2360
 8522ION    NA+12573   9.952   8.581   0.538 -0.0807 -0.1994  0.2814
 8523ION    NA+12574   2.732   1.999  11.241  0.1158 -0.0683 -0.0884
 8524ION    NA+12575   9.835   3.639   1.853 -0.0995  0.0668 -0.0641
 8525ION    NA+12576   8.102   4.342   3.520 -0.3948 -0.1833  0.4724
 8526ION    NA+12577   7.745   5.675   4.601 -0.0615  0.0332 -0.2080
 8527ION    NA+12578   4.500   8.987   4.079  0.4398  0.3992  0.1615
 8528ION    NA+12579   9.636   6.752  13.748 -0.4246 -0.0892  0.3360
 8529ION    NA+12580   3.239   2.745   4.748 -0.0823 -0.3942 -0.0568
 8530ION    NA+12581   6.350   1.011  10.699  0.3643  0.0712 -0.1543
 8531ION    NA+12582   5.586   5.053   1.065  0.0135 -0.0048  0.0811
 8532ION    NA+12583   4.075   8.144   8.862  0.0650  0.0398 -0.0932
 8533ION    NA+12584   0.664   3.594  10.603 -0.2173  0.2696 -0.0615
 8534ION    NA+12585   6.177   8.872   9.377  0.2358 -0.1233 -0.3009
 8535ION    NA+12586   6.224   0.322   2.966  0.0250 -0.1450  0.0503
 8536ION    NA+12587   7.356   8.051   2.577  0.0350 -0.0820 -0.0081
 8537ION    CL-12588   6.718   4.031   9.999  0.1892 -0.1940  0.0205
 8538ION    CL-12589   6.087  10.087   0.793  0.1201 -0.2671 -0.2967
 8539ION    CL-12590   9.495   1.794   3.185 -0.3074 -0.0767 -0.2344
 8540ION    CL-12591   3.844   3.741   4.633 -0.1508 -0.0465  0.2450
 8541ION    CL-12592   1.720   0.834  12.194 -0.1608  0.0261  0.1816
 8542ION    CL-12593   2.839   5.194   0.216 -0.0166  0.1207 -0.4687
 8543ION    CL-12594   4.367   5.977   0.782  0.1989 -0.0567 -0.1312
 8544ION    CL-12595   6.605   4.071   2.939  0.0679  0.1534 -0.4293
 8545ION    CL-12596   0.925  10.192  13.306 -0.0312  0.0055 -0.2607
 8546ION    CL-12597   9.610   9.788   3.309  0.2402 -0.2134 -0.0878
 8547ION    CL-12598   1.783   5.971   0.212 -0.2707  0.0570 -0.0586
 8548ION    CL-12599   9.161   2.697  12.694  0.1123  0.0699  0.2501
 8549ION    CL-12600   2.779   2.213   2.544 -0.1816 -0.1542 -0.3478
 8550ION    CL-12601   0.919   8.895   0.657  0.3600 -0.2012 -0.3141
 8551ION    CL-12602   3.647   4.954   2.483  0.1881  0.0508  0.0182
 8552ION    CL-12603   9.302   2.404  10.598  0.2507  0.0313  0.1894
 8553ION    CL-12604   1.874   1.663   2.857  0.0756  0.5778 -0.2361
 8554ION    CL-12605   6.126   0.043   2.160  0.0042 -0.0958 -0.0626
 8555ION    CL-12606   4.088   2.505   4.310 -0.0064 -0.0606 -0.1439
 8556ION    CL-12607   3.805   9.015   9.958 -0.2278  0.0263 -0.0326
 8557ION    CL-12608   0.633   7.851  11.533  0.2367  0.0538 -0.1505
 8558ION    CL-12609  10.111   8.255  13.429 -0.1071  0.0413  0.2069
 8559ION    CL-12610   1.376   5.412   4.268  0.1639 -0.2602  0.0032
 8560ION    CL-12611   6.314   9.905  10.788 -0.0356 -0.2312  0.1705
 8561ION    CL-12612   7.553   4.197   3.299  0.0408 -0.1693 -0.2598
 8562ION    CL-12613   4.954   9.484   9.796  0.1899  0.3337  0.5787
 8563ION    CL-12614   4.511   6.647  11.031  0.0809 -0.1821  0.1839
 8564ION    CL-12615  10.027   4.450  10.004 -0.1853  0.1414  0.2040
 8565ION    CL-12616   8.011   7.640  11.100 -0.1670  0.0062  0.0207
 8566ION    CL-12617   8.659   5.070  10.583 -0.2164  0.1983 -0.2515
 8567ION    CL-12618   6.333   9.617   9.863 -0.0632  0.0278 -0.1472
 8568ION    CL-12619   4.987   6.253   9.881  0.0656  0.1577 -0.3144
 8569ION    CL-12620   8.793   6.273   3.184 -0.0332 -0.1234 -0.0901
 8570ION    CL-12621   1.510   1.074   4.401  0.0359  0.0389 -0.0989
 8571ION    CL-12622   9.871   0.561  10.293  0.1036 -0.0265  0.1356
 8572ION    CL-12623   6.923   8.311   2.271  0.3551 -0.0575 -0.0794
 8573ION    CL-12624   9.674   3.929  13.771  0.1383 -0.1652  0.0772
 8574ION    CL-12625   5.880   1.498   4.362  0.2043  0.1202  0.1141
 8575ION    CL-12626   9.882   3.917   1.471 -0.1208  0.1221  0.1849
 8576ION    CL-12627  10.057   2.598  11.597 -0.0634  0.0964  0.0607
 8577ION    CL-12628   2.636   3.505  10.138  0.0754 -0.1903  0.0266
 8578ION    CL-12629   7.826   2.818   0.078  0.1284  0.0022  0.2219
 8579ION    CL-12630   4.818   9.330   0.534 -0.0508 -0.0172 -0.2870
 8580ION    CL-12631   5.033   8.738   4.521 -0.2350  0.0103 -0.2412
 8581ION    CL-12632   8.061   2.738   9.687 -0.0155 -0.0724  0.1058
 8582ION    CL-12633   3.015   3.250   4.708 -0.1477 -0.3336  0.1721
 8583ION    CL-12634   7.325   1.671   4.619 -0.4329 -0.1047  0.0403
 8584ION    CL-12635   6.427   1.530   2.409 -0.2159  0.1108  0.1922
 8585ION    CL-12636   5.198   6.009   2.197  0.2183 -0.1632 -0.0891
 8586ION    CL-12637   6.529   5.844   1.557  0.0708  0.0132  0.0577
 8587ION    CL-12638   7.978   3.419   4.720 -0.3751  0.2260  0.0221
 8588ION    CL-12639   0.744   6.295   0.842 -0.0808 -0.2163 -0.1148
 8589ION    CL-12640   8.164   6.693   0.528  0.0679  0.1541 -0.1317
 8590ION    CL-12641   5.089   9.913  11.415 -0.0718  0.1836  0.2587
 8591ION    CL-12642   5.775   3.896   3.411 -0.0262 -0.0227  0.0923
 8592ION    CL-12643   0.573   3.288   0.723  0.3517 -0.0794  0.0925
 8593ION    CL-12644   9.387   9.116   1.821 -0.1453 -0.0073  0.1940
 8594ION    CL-12645   4.605   8.394   9.830 -0.1753  0.3282 -0.0394
 8595ION    CL-12646   9.043   0.202  13.782 -0.2117 -0.1510 -0.1491
 8596ION    CL-12647   0.146   1.629   2.445 -0.1037 -0.1071  0.0621
 8597ION    CL-12648   9.701   3.121  10.585  0.0868 -0.4742 -0.1059
 8598ION    CL-12649   4.441   2.917   4.920  0.0803  0.1735 -0.1244
 8599ION    CL-12650   5.952   8.058   9.837 -0.1243 -0.0849  0.0065
 8600ION    CL-12651   6.548   3.674  11.712 -0.0010  0.0212  0.1486
 8601ION    CL-12652   6.525   9.146   0.820  0.0354  0.1165 -0.0363
 8602ION    CL-12653   7.391   8.569   2.428 -0.0235  0.0948  0.0366
 8603ION    CL-12654  10.008   7.815   3.028 -0.0022  0.0275  0.1388
 8604ION    CL-12655   0.419   0.535  11.547 -0.0871  0.1185 -0.1216
 8605ION    CL-12656   9.331   6.226  10.917  0.0584 -0.0389  0.1839
 8606ION    CL-12657   3.125   2.545   0.747 -0.2719 -0.2680 -0.0045
 8607ION    CL-12658   9.636   9.577  12.048 -0.0976  0.0876  0.1517
 8608ION    CL-12659   3.529   0.150  10.566 -0.2083  0.2890  0.4325
 8609ION    CL-12660   4.758   3.641   4.175  0.5566 -0.0029 -0.2225
 8610ION    CL-12661   6.085   2.524  11.261  0.2920  0.0026 -0.1874
 8611ION    CL-12662   0.442   3.949  11.434  0.0664 -0.0115  0.2811
 8612ION    CL-12663   1.082   1.907   3.269  0.0485 -0.0971  0.0065
 8613ION    CL-12664   4.408   2.923   9.220  0.0020 -0.4362  0.2003
 8614ION    CL-12665   5.826   4.581   9.810  0.2496 -0.2652  0.1677
 8615ION    CL-12666   4.901   2.758  12.903 -0.0939 -0.1161 -0.0576
 8616ION    CL-12667   0.727   8.155  11.117  0.2523 -0.1093  0.0320
 8617ION    CL-12668   6.570   3.158  10.313 -0.0561 -0.4409 -0.2560
 8618ION    CL-12669   8.987   7.141   1.221 -0.3233  0.1299  0.0769
 8619ION    CL-12670   3.028   5.498   2.695 -0.3719 -0.2327 -0.0694
 8620ION    CL-12671   6.393   1.580  13.659  0.0744  0.0048 -0.3473
 8621ION    CL-12672   5.863   4.517   0.532 -0.1531 -0.1975  0.3668
 8622ION    CL-12673   5.316   2.715   1.075  0.0652 -0.1279  0.2131
 8623ION    CL-12674   5.845   4.739   4.931  0.1675  0.0605  0.2820
 8624ION    CL-12675   1.031   0.791   0.299 -0.0476  0.1587  0.0934
 8625ION    CL-12676   2.685   2.105   1.190  0.2216 -0.1682  0.0674
  10.20774  10.20774  13.94121
