Protein in INSANE! Membrane UpperLeaflet>POPC=1.0 LowerLeaflet>POPC=1.0
11125
    1AU     AUC    1   4.127   3.895   6.643  0.0582  0.0154 -0.0429
    1AU     AUC    2   4.013   3.739   6.918 -0.0785 -0.0208 -0.0873
    1AU     AUC    3   3.833   3.993   6.727  0.0489  0.0354  0.0293
    1AU     AUC    4   4.420   3.771   6.533 -0.0992 -0.0232  0.0920
    1AU     AUC    5   4.270   4.089   6.397 -0.0129  0.0839 -0.0154
    1AU     AUC    6   4.404   4.095   6.720  0.0541 -0.0428  0.0056
    1AU     AUC    7   4.138   4.060   6.941 -0.0181  0.0877 -0.0076
    1AU     AUC    8   4.141   3.717   6.381  0.1039  0.0514 -0.0907
    1AU     AUC    9   3.868   3.654   6.611  0.0499 -0.0019 -0.0228
    1AU     AUC   10   3.891   3.984   6.434  0.0517 -0.0702  0.0335
    1AU     AUC   11   4.102   4.210   6.638 -0.0164 -0.0203 -0.0195
    1AU     AUC   12   4.171   3.559   6.695 -0.0026  0.0356  0.0069
    1AU     AUC   13   4.324   3.807   6.881 -0.0698 -0.1511 -0.0326
    1AU     AUC   14   3.839   3.597   7.219  0.0355 -0.0110 -0.0249
    1AU     AUC   15   3.687   3.844   7.033  0.1218  0.0277 -0.0852
    1AU     AUC   16   3.497   4.103   6.823 -0.0669 -0.0320  0.0683
    1AU     AUC   17   4.731   3.692   6.408 -0.0357 -0.0172  0.1189
    1AU     AUC   18   4.574   3.987   6.229 -0.0393 -0.0026  0.0434
    1AU     AUC   19   4.392   4.256   6.142  0.0629  0.1046 -0.0816
    1AU     AUC   20   4.676   4.276   6.794 -0.0199 -0.0626  0.0276
    1AU     AUC   21   4.425   4.278   7.073 -0.0514 -0.0325 -0.0572
    1AU     AUC   22   4.126   4.236   7.230  0.0638 -0.0179 -0.0675
    1AU     AUC   23   4.180   3.555   6.092  0.1185 -0.0317 -0.0330
    1AU     AUC   24   3.900   3.494   6.306  0.0356  0.1074 -0.0720
    1AU     AUC   25   3.621   3.466   6.533  0.0046  0.1138  0.0060
    1AU     AUC   26   3.716   4.071   6.161  0.0864 -0.0632 -0.0757
    1AU     AUC   27   3.863   4.314   6.393  0.0335 -0.0579  0.0328
    1AU     AUC   28   4.018   4.528   6.602  0.0086 -0.0971  0.0683
    1AU     AUC   29   4.218   3.249   6.725 -0.0089  0.0439 -0.0351
    1AU     AUC   30   4.401   3.432   6.927 -0.0784 -0.0103 -0.0186
    1AU     AUC   31   4.532   3.695   7.101  0.0500 -0.0365  0.0580
    1AU     AUC   32   3.584   4.086   6.470  0.0060 -0.0352  0.0402
    1AU     AUC   33   3.730   4.339   6.718  0.0024  0.0118  0.0388
    1AU     AUC   34   4.041   3.373   7.015  0.0708  0.0882  0.0591
    1AU     AUC   35   4.193   3.676   7.185  0.0096  0.0314  0.0209
    1AU     AUC   36   4.029   4.202   6.121 -0.0687  0.0015  0.0503
    1AU     AUC   37   4.259   4.448   6.362 -0.1652 -0.0403 -0.0484
    1AU     AUC   38   4.493   3.447   6.559  0.0036 -0.0844  0.0255
    1AU     AUC   39   4.676   3.644   6.748 -0.0202  0.0163 -0.0566
    1AU     AUC   40   3.931   3.927   7.251  0.0341  0.0070  0.0271
    1AU     AUC   41   3.790   4.167   7.031  0.0612  0.0123  0.0417
    1AU     AUC   42   4.716   4.000   6.573  0.0116 -0.0097 -0.0746
    1AU     AUC   43   4.578   4.306   6.457 -0.0476  0.1137  0.0192
    1AU     AUC   44   3.711   3.494   6.856 -0.0420 -0.0534  0.0590
    1AU     AUC   45   3.534   3.760   6.646  0.1256 -0.0307 -0.0049
    1AU     AUC   46   4.461   3.646   6.198  0.0048 -0.0508  0.1163
    1AU     AUC   47   4.268   3.934   6.107 -0.0321  0.1094 -0.0565
    1AU     AUC   48   4.365   4.438   6.752 -0.0318 -0.0071 -0.1550
    1AU     AUC   49   4.088   4.399   6.925  0.0084  0.1318 -0.0160
    1AU     AUC   50   3.922   3.789   6.127 -0.0951 -0.0093 -0.0183
    1AU     AUC   51   3.671   3.712   6.324 -0.0315  0.1095 -0.1061
    1AU     AUC   52   4.628   3.959   6.963  0.0904 -0.0343 -0.0405
    1AU     AUC   53   4.338   3.962   7.207 -0.0775 -0.0593 -0.0176
    1AU     AUC   54   4.211   3.369   6.400 -0.1384  0.0974 -0.0391
    1AU     AUC   55   3.911   3.327   6.650  0.0317 -0.0199  0.0683
    1AU    AUSL   56   3.351   4.315   6.565 -0.0222  0.1112 -0.1238
    1AU    AUSL   57   3.349   4.001   6.244 -0.0297 -0.0668  0.0005
    1AU     AUL   58   3.074   4.232   6.433  0.0602  0.0448  0.0599
    1AU       S   59   2.943   3.793   6.169  0.1785  0.3348  0.1471
    1AU     LIG   60   2.905   4.154   5.995  0.1764  0.1363 -0.0410
    1AU     LIG   61   2.692   4.277   5.780  0.0701 -0.0316  0.2020
    1AU     LIG   62   2.720   4.405   5.405  0.1796 -0.0233 -0.1309
    1AU     LIG   63   3.021   4.343   5.035  0.3012 -0.1197  0.1013
    1AU       S   64   3.065   4.636   6.222 -0.2476 -0.1214  0.1605
    1AU     LIG   65   2.869   5.061   6.309 -0.1410 -0.3973  0.0750
    1AU     LIG   66   3.021   5.469   6.357  0.1372 -0.1030  0.4267
    1AU     LIG   67   2.941   5.806   6.644 -0.3377  0.1685 -0.2348
    1AU     LIG   68   2.930   6.234   6.563 -0.0103  0.1647 -0.5779
    1AU    AUSL   69   3.506   4.387   6.174 -0.0718 -0.0590 -0.0828
    1AU    AUSL   70   3.889   4.700   6.218 -0.0477 -0.0901 -0.0569
    1AU     AUL   71   3.510   4.763   6.160 -0.0121  0.0136 -0.0577
    1AU       S   72   3.322   4.393   5.957 -0.1760 -0.3629 -0.2738
    1AU     LIG   73   3.061   4.620   5.722  0.3635  0.1857  0.0646
    1AU     LIG   74   2.641   4.848   5.923  0.0141 -0.1264  0.1491
    1AU     LIG   75   2.213   4.746   5.944  0.4077 -0.1519  0.0805
    1AU     LIG   76   1.944   4.536   6.228  0.2487 -0.1218 -0.0530
    1AU       S   77   3.838   4.749   5.819 -0.1044 -0.3187 -0.1695
    1AU     LIG   78   3.751   5.148   6.002 -0.1789  0.0099  0.1505
    1AU     LIG   79   4.023   5.473   6.187  0.0522 -0.1711  0.5585
    1AU     LIG   80   4.043   5.420   6.696  0.0477 -0.1782 -0.1778
    1AU     LIG   81   3.941   5.261   7.052 -0.2730  0.1636 -0.1832
    1AU    AUSL   82   3.756   4.491   6.550  0.0195 -0.1193  0.0132
    1AU    AUSL   83   3.488   4.476   6.946 -0.0034 -0.0215 -0.0342
    1AU     AUL   84   3.400   4.656   6.607 -0.0277 -0.0159 -0.0108
    1AU       S   85   3.769   5.032   6.517 -0.1548  0.1441 -0.3453
    1AU     LIG   86   3.524   5.292   6.458 -0.0450  0.1507  0.1017
    1AU     LIG   87   3.540   5.682   6.296 -0.0673  0.3803 -0.1194
    1AU     LIG   88   3.391   6.037   6.426  0.0825 -0.1040 -0.2787
    1AU     LIG   89   3.446   6.248   6.804 -0.1593 -0.0071  0.0357
    1AU       S   90   3.293   4.721   7.038  0.0241  0.3469  0.0082
    1AU     LIG   91   2.916   4.695   7.105 -0.1448 -0.0105  0.3185
    1AU     LIG   92   2.570   4.946   7.063  0.1646 -0.0206 -0.1806
    1AU     LIG   93   2.213   5.051   6.984 -0.1847  0.2471  0.1817
    1AU     LIG   94   2.017   4.970   6.508  0.0438 -0.2416  0.0829
    1AU    AUSL   95   4.101   3.450   7.348  0.0586  0.0052  0.0729
    1AU    AUSL   96   4.361   3.751   7.482  0.0469  0.0746 -0.1717
    1AU     AUL   97   4.218   3.465   7.701  0.0218  0.0296  0.0270
    1AU       S   98   4.588   3.208   7.565  0.2521 -0.1305  0.0669
    1AU     LIG   99   4.453   3.129   8.043 -0.1438  0.1789  0.0514
    1AU     LIG  100   4.377   2.613   8.178 -0.0130 -0.3241  0.3510
    1AU     LIG  101   4.396   2.269   7.931 -0.3223 -0.1881 -0.0343
    1AU     LIG  102   4.565   1.913   7.978 -0.1864  0.1572  0.2091
    1AU       S  103   4.257   3.868   7.896 -0.2310  0.0713 -0.0058
    1AU     LIG  104   4.621   3.605   7.915  0.2104 -0.1570  0.1890
    1AU     LIG  105   4.942   3.247   7.994 -0.0809  0.1673 -0.1854
    1AU     LIG  106   5.227   2.988   7.699  0.3632 -0.2346 -0.0523
    1AU     LIG  107   5.363   2.774   7.306 -0.0757  0.1328 -0.2188
    1AU    AUSL  108   4.264   3.055   7.184 -0.0189 -0.1124 -0.0121
    1AU    AUSL  109   3.769   3.227   7.228  0.0500 -0.0249  0.0842
    1AU     AUL  110   4.047   3.121   7.435 -0.0229 -0.0214 -0.0231
    1AU       S  111   3.660   2.864   7.232 -0.0208 -0.3692  0.3342
    1AU     LIG  112   3.737   2.829   7.647 -0.0223 -0.2034 -0.2004
    1AU     LIG  113   3.982   3.053   7.983 -0.1276 -0.0081 -0.1385
    1AU     LIG  114   3.972   3.408   8.221 -0.0910  0.1353  0.1512
    1AU     LIG  115   4.353   3.690   8.367 -0.3436 -0.2877  0.1814
    1AU       S  116   4.496   3.041   7.563 -0.1445  0.2023  0.0413
    1AU     LIG  117   4.249   2.682   7.625 -0.1372 -0.1603  0.0090
    1AU     LIG  118   4.191   2.255   7.422 -0.0926  0.0821 -0.0800
    1AU     LIG  119   4.316   1.851   7.562 -0.1682 -0.1293 -0.0300
    1AU     LIG  120   4.487   1.490   7.822  0.3836 -0.1228 -0.2494
    1AU    AUSL  121   4.481   3.470   7.177 -0.0171 -0.0185  0.0108
    1AU    AUSL  122   4.473   3.150   6.837  0.0068 -0.1021 -0.0483
    1AU     AUL  123   4.530   3.019   7.075 -0.0215  0.0783  0.0259
    1AU       S  124   4.986   2.918   6.910  0.0730  0.4583 -0.1178
    1AU     LIG  125   5.032   2.455   6.704  0.1219  0.1575 -0.1578
    1AU     LIG  126   5.294   2.034   6.727 -0.2107  0.1024  0.0541
    1AU     LIG  127   5.574   1.862   6.640  0.0430 -0.2188 -0.2126
    1AU     LIG  128   5.819   1.579   6.903 -0.0155  0.2599 -0.1448
    1AU       S  129   4.592   3.341   7.424 -0.1344  0.1183 -0.0153
    1AU     LIG  130   5.057   3.470   7.493 -0.0682  0.1619  0.4661
    1AU     LIG  131   5.413   3.416   7.803 -0.1626 -0.2343 -0.2191
    1AU     LIG  132   5.744   3.685   7.906 -0.0998  0.1355  0.0593
    1AU     LIG  133   6.095   3.941   7.881 -0.0166 -0.3780  0.3883
    1AU    AUSL  134   4.238   4.561   6.001  0.0070  0.0123 -0.0097
    1AU    AUSL  135   4.224   4.710   6.466 -0.0404 -0.0534  0.0910
    1AU     AUL  136   4.172   4.915   6.131 -0.0631 -0.0920  0.0122
    1AU       S  137   3.952   4.799   5.682 -0.2907 -0.0276  0.0163
    1AU     LIG  138   4.025   4.647   5.289 -0.2305  0.0206 -0.1823
    1AU     LIG  139   4.226   4.542   4.999 -0.1306 -0.0469  0.0740
    1AU     LIG  140   4.562   4.818   4.893  0.4488  0.2429 -0.1535
    1AU     LIG  141   4.679   5.219   5.040 -0.2249  0.0467  0.4953
    1AU       S  142   4.624   5.000   6.375  0.0797  0.1104  0.6912
    1AU     LIG  143   4.480   5.376   6.327 -0.1906 -0.0700  0.0784
    1AU     LIG  144   4.410   5.640   5.952  0.0569 -0.0447  0.0840
    1AU     LIG  145   4.154   5.892   5.782  0.2572  0.1089  0.0433
    1AU     LIG  146   3.819   6.062   5.918 -0.1190 -0.1360  0.1188
    1AU    AUSL  147   3.914   4.298   6.112  0.0009 -0.0192 -0.0553
    1AU    AUSL  148   4.158   4.193   5.769  0.1292  0.0435  0.0341
    1AU     AUL  149   4.222   4.437   5.750  0.0767 -0.0222 -0.0155
    1AU       S  150   3.989   4.191   5.421 -0.1020  0.0181 -0.0686
    1AU     LIG  151   4.359   4.152   5.229  0.0402 -0.0305 -0.3365
    1AU     LIG  152   4.724   4.288   4.994  0.1413 -0.1447  0.4989
    1AU     LIG  153   4.713   4.502   4.578  0.0804 -0.0363 -0.0529
    1AU     LIG  154   4.552   4.663   4.141 -0.3429  0.1048 -0.0640
    1AU       S  155   3.773   4.552   5.794  0.0936 -0.0138 -0.0169
    1AU     LIG  156   3.423   4.922   5.632  0.1423  0.0970 -0.2208
    1AU     LIG  157   3.225   5.142   5.935  0.5165 -0.0376 -0.4025
    1AU     LIG  158   3.239   5.572   5.926 -0.1633  0.1088 -0.2065
    1AU     LIG  159   3.353   5.979   5.894 -0.0764 -0.0495  0.1202
    1AU    AUSL  160   4.808   3.333   6.610 -0.0475  0.0136 -0.0175
    1AU    AUSL  161   4.434   3.174   6.415  0.0658  0.0323 -0.0071
    1AU     AUL  162   4.564   2.927   6.609 -0.0406 -0.0250 -0.0393
    1AU       S  163   5.045   3.008   6.680 -0.0563  0.3841  0.0302
    1AU     LIG  164   5.175   2.705   6.337  0.2045 -0.0861  0.4304
    1AU     LIG  165   5.584   2.783   6.093  0.1350 -0.1681  0.1654
    1AU     LIG  166   6.017   2.793   6.052 -0.2109 -0.0645  0.2739
    1AU     LIG  167   6.149   2.477   6.276 -0.1688 -0.0030  0.1092
    1AU       S  168   4.781   3.006   6.200  0.1241 -0.2566  0.0728
    1AU     LIG  169   4.662   2.626   6.198 -0.0059 -0.2526 -0.0350
    1AU     LIG  170   4.546   2.378   6.481 -0.2515  0.1585  0.2012
    1AU     LIG  171   4.781   1.988   6.738  0.0109  0.4938 -0.0698
    1AU     LIG  172   4.936   1.635   6.754 -0.2449 -0.0649 -0.0787
    1AU    AUSL  173   4.846   3.349   7.039 -0.0097  0.0777  0.0132
    1AU    AUSL  174   5.064   3.683   6.576  0.0279 -0.0296  0.0464
    1AU     AUL  175   5.116   3.432   6.777 -0.0004  0.0589 -0.0440
    1AU       S  176   5.460   3.759   6.625 -0.5761 -0.1412 -0.2034
    1AU     LIG  177   5.702   3.516   6.450  0.4158 -0.1594 -0.1837
    1AU     LIG  178   5.704   3.395   5.997 -0.0599 -0.1471  0.0289
    1AU     LIG  179   5.969   3.215   5.710 -0.0036 -0.5443 -0.0985
    1AU     LIG  180   6.322   2.868   5.647  0.1446  0.2449 -0.2374
    1AU       S  181   4.961   3.146   7.102 -0.0800  0.1797  0.2673
    1AU     LIG  182   5.426   3.273   7.154 -0.2442  0.0155  0.0776
    1AU     LIG  183   5.598   3.226   6.854 -0.2326  0.0285 -0.0603
    1AU     LIG  184   5.978   3.157   6.595 -0.0826 -0.2487  0.0206
    1AU     LIG  185   6.181   2.800   6.600  0.0093  0.0135  0.0023
    1AU    AUSL  186   3.718   4.168   7.463  0.0334 -0.0166 -0.0602
    1AU    AUSL  187   3.914   3.761   7.553 -0.0574  0.0130  0.0771
    1AU     AUL  188   3.700   3.910   7.766 -0.1038  0.0876  0.0375
    1AU       S  189   4.149   3.888   7.898  0.2795  0.1647  0.5715
    1AU     LIG  190   4.140   4.123   8.258 -0.0843  0.1826  0.1089
    1AU     LIG  191   4.042   4.544   8.225  0.2234  0.2141 -0.1985
    1AU     LIG  192   4.125   4.982   8.297  0.5201 -0.0629 -0.0399
    1AU     LIG  193   4.109   5.474   8.462  0.3213 -0.1778 -0.3092
    1AU       S  194   3.371   4.192   7.585  0.3803 -0.1125 -0.2024
    1AU     LIG  195   3.687   4.559   7.755 -0.1548 -0.1788  0.1116
    1AU     LIG  196   3.970   4.880   7.862  0.2650 -0.3575  0.2383
    1AU     LIG  197   4.065   5.143   7.602 -0.0169  0.0977  0.0699
    1AU     LIG  198   4.270   5.470   7.375 -0.2040  0.0238 -0.1222
    1AU    AUSL  199   3.535   3.786   7.373 -0.0057  0.0185 -0.0224
    1AU    AUSL  200   3.245   3.783   7.047  0.0754  0.0271  0.0810
    1AU     AUL  201   3.289   3.594   7.469  0.0053  0.0621  0.0316
    1AU       S  202   3.205   4.105   7.475  0.1746  0.3733  0.3174
    1AU     LIG  203   2.804   3.992   7.310  0.5671  0.2106  0.0347
    1AU     LIG  204   2.624   3.936   6.918  0.0885 -0.0632  0.0862
    1AU     LIG  205   2.620   4.045   6.561  0.2465  0.1567 -0.2054
    1AU     LIG  206   2.530   4.359   6.241 -0.2099 -0.1436  0.1998
    1AU       S  207   2.991   3.575   7.114  0.1463 -0.0049  0.1267
    1AU     LIG  208   2.648   3.467   6.707 -0.0405 -0.1015  0.1679
    1AU     LIG  209   2.271   3.184   6.740  0.0719  0.1900  0.0014
    1AU     LIG  210   1.959   3.009   6.524  0.3669 -0.2626  0.2307
    1AU     LIG  211   1.724   2.963   6.153 -0.1657  0.0384 -0.1917
    1AU    AUSL  212   3.552   4.096   7.072  0.0423  0.0622  0.0184
    1AU    AUSL  213   3.887   4.406   7.122 -0.1180 -0.0767  0.0068
    1AU     AUL  214   3.638   4.460   7.311 -0.0443 -0.0748 -0.0634
    1AU       S  215   3.537   4.903   7.231  0.3778 -0.2136 -0.0100
    1AU     LIG  216   3.481   5.405   7.041 -0.2437  0.0394 -0.2113
    1AU     LIG  217   3.669   5.710   6.774 -0.0507  0.2235  0.4780
    1AU     LIG  218   4.011   5.928   6.544  0.2913  0.0678 -0.4306
    1AU     LIG  219   4.223   6.177   6.153 -0.1242  0.1497 -0.1482
    1AU       S  220   3.249   4.187   7.243  0.0103 -0.1516  0.0291
    1AU     LIG  221   3.010   4.270   6.952  0.0387  0.0112  0.0448
    1AU     LIG  222   2.774   4.591   6.640 -0.0780 -0.0865  0.0291
    1AU     LIG  223   2.434   4.820   6.388 -0.0075 -0.1122 -0.0681
    1AU     LIG  224   2.304   5.193   6.114  0.1226 -0.1849 -0.4673
    1AU    AUSL  225   4.893   4.344   6.540  0.0438 -0.0330 -0.0209
    1AU    AUSL  226   4.568   4.530   6.250 -0.0310 -0.0048 -0.0084
    1AU     AUL  227   5.021   4.611   6.336  0.0470 -0.0176 -0.0094
    1AU       S  228   4.628   4.819   6.153  0.0404  0.2673  0.0965
    1AU     LIG  229   5.044   5.050   6.153 -0.0948 -0.1497  0.3748
    1AU     LIG  230   5.406   4.943   6.223 -0.0814  0.1762  0.1562
    1AU     LIG  231   5.805   5.195   6.354  0.2504 -0.1649  0.3076
    1AU     LIG  232   6.344   5.138   6.448 -0.4332 -0.1346 -0.2541
    1AU       S  233   5.064   4.536   6.811  0.1651  0.0246 -0.2284
    1AU     LIG  234   5.381   4.464   6.588 -0.2029 -0.1514  0.0396
    1AU     LIG  235   5.866   4.595   6.619 -0.0887 -0.1247 -0.0059
    1AU     LIG  236   6.236   4.766   6.812  0.2446  0.0349  0.3530
    1AU     LIG  237   6.641   4.997   6.855  0.2094  0.0336 -0.1608
    1AU    AUSL  238   4.811   3.946   6.372 -0.0951 -0.0405 -0.0231
    1AU    AUSL  239   5.061   4.060   6.815  0.0383 -0.0571 -0.0660
    1AU     AUL  240   5.164   4.068   6.491  0.0130  0.0122 -0.0098
    1AU       S  241   5.245   3.583   6.152  0.1500 -0.1376 -0.0684
    1AU     LIG  242   5.373   3.179   6.405  0.0101  0.1426  0.4812
    1AU     LIG  243   5.597   2.814   6.611  0.2757 -0.1493  0.1315
    1AU     LIG  244   5.742   2.363   6.557  0.0092 -0.1019  0.0660
    1AU     LIG  245   5.860   2.230   7.011  0.3366  0.0338 -0.3983
    1AU       S  246   5.353   4.106   6.973 -0.0003  0.1838 -0.0586
    1AU     LIG  247   5.840   4.140   7.127  0.1435 -0.2030  0.2617
    1AU     LIG  248   6.199   3.951   7.259  0.1079  0.3629  0.1174
    1AU     LIG  249   6.457   3.626   7.101  0.2141 -0.0372 -0.1174
    1AU     LIG  250   6.742   3.620   6.703  0.0850 -0.0070 -0.3538
    1AU    AUSL  251   4.839   4.259   6.081 -0.1008 -0.0946  0.0034
    1AU    AUSL  252   4.812   3.792   5.963  0.0853  0.0307  0.0549
    1AU     AUL  253   5.038   3.969   6.066 -0.0024  0.0373  0.0386
    1AU       S  254   4.823   4.019   5.619  0.0497  0.2511 -0.4428
    1AU     LIG  255   5.159   4.201   5.450  0.0748  0.2292 -0.2771
    1AU     LIG  256   5.238   4.493   5.469  0.1906 -0.2303 -0.0405
    1AU     LIG  257   5.453   4.818   5.644  0.1879 -0.0809  0.1040
    1AU     LIG  258   5.324   5.245   5.661 -0.4592 -0.0298  0.1279
    1AU       S  259   4.885   4.401   5.876 -0.2200 -0.2998  0.0520
    1AU     LIG  260   5.287   4.350   5.959  0.1457  0.2835  0.0177
    1AU     LIG  261   5.553   4.091   6.164  0.0631  0.2235 -0.2294
    1AU     LIG  262   5.946   4.124   6.399  0.2126  0.0176 -0.1958
    1AU     LIG  263   6.165   4.249   6.790  0.2272 -0.0437 -0.2610
    1AU    AUSL  264   3.322   3.477   6.749  0.0325  0.0356  0.1115
    1AU    AUSL  265   3.376   3.902   6.666 -0.0646  0.0076  0.0382
    1AU     AUL  266   3.075   3.834   6.741 -0.0316  0.0789  0.1443
    1AU       S  267   3.147   3.381   6.741 -0.0361  0.3909 -0.4218
    1AU     LIG  268   2.809   3.004   6.765  0.0132 -0.0501  0.1946
    1AU     LIG  269   2.518   2.729   6.858 -0.2559 -0.0148  0.2587
    1AU     LIG  270   2.312   2.339   6.941  0.1191  0.2440  0.1831
    1AU     LIG  271   2.366   2.014   7.149  0.2567  0.0526 -0.1246
    1AU       S  272   2.904   3.705   6.339 -0.3191 -0.0603 -0.0656
    1AU     LIG  273   2.455   3.440   6.185  0.1086  0.0337 -0.0964
    1AU     LIG  274   2.013   3.405   6.241  0.1533  0.1009  0.0820
    1AU     LIG  275   1.507   3.432   6.188  0.1063  0.2648  0.3896
    1AU     LIG  276   1.094   3.393   6.397 -0.1848 -0.1722 -0.5867
    1AU    AUSL  277   3.617   3.567   7.036 -0.0404 -0.0710  0.0067
    1AU    AUSL  278   3.542   3.127   6.864  0.0824  0.1209 -0.0100
    1AU     AUL  279   3.423   3.292   7.140  0.0145 -0.0501  0.0633
    1AU       S  280   2.994   3.378   7.020  0.1710 -0.1663 -0.0712
    1AU     LIG  281   3.003   2.973   7.297  0.1634  0.1293  0.2927
    1AU     LIG  282   2.881   2.613   7.145 -0.0730 -0.4188 -0.2897
    1AU     LIG  283   2.828   2.215   7.150  0.0687 -0.2222 -0.4298
    1AU     LIG  284   2.739   1.901   7.459 -0.0923  0.0058 -0.1137
    1AU       S  285   3.479   2.856   7.038  0.0761 -0.0554 -0.0437
    1AU     LIG  286   3.334   2.516   6.788 -0.4409 -0.3286  0.2334
    1AU     LIG  287   3.067   2.175   6.659  0.2547 -0.2189  0.0582
    1AU     LIG  288   2.641   2.018   6.730  0.1381 -0.1791 -0.0382
    1AU     LIG  289   2.418   1.737   6.689  0.1350 -0.1360 -0.1398
    1AU    AUSL  290   4.415   3.650   5.849 -0.0903  0.0556 -0.0872
    1AU    AUSL  291   4.687   3.487   6.227  0.1017 -0.0167  0.0331
    1AU     AUL  292   4.732   3.539   5.793  0.0006  0.0496 -0.1406
    1AU       S  293   4.891   3.222   6.156  0.4859  0.1466  0.0711
    1AU     LIG  294   5.169   3.150   5.810  0.2665 -0.0899  0.1507
    1AU     LIG  295   5.347   2.953   5.500  0.0972 -0.1442  0.2060
    1AU     LIG  296   5.360   2.764   5.112  0.0948 -0.1537 -0.2190
    1AU     LIG  297   5.481   2.499   4.821  0.0772  0.0568 -0.0279
    1AU       S  298   4.693   3.887   5.457 -0.3179  0.1395 -0.1902
    1AU     LIG  299   5.127   3.678   5.364 -0.5171 -0.0910  0.1490
    1AU     LIG  300   5.502   3.816   5.195  0.1200 -0.0850  0.1593
    1AU     LIG  301   5.844   3.565   4.971 -0.0486  0.3421  0.3884
    1AU     LIG  302   5.932   3.450   4.575  0.0037  0.3009  0.0028
    1AU    AUSL  303   4.480   4.060   5.986 -0.0739 -0.0103  0.0472
    1AU    AUSL  304   4.053   3.826   5.950  0.0018  0.0329  0.0834
    1AU     AUL  305   4.257   3.835   5.658 -0.0649 -0.0948 -0.0481
    1AU       S  306   3.893   4.002   5.371  0.2093 -0.2624 -0.0518
    1AU     LIG  307   3.998   3.577   5.370 -0.0891 -0.0635 -0.2442
    1AU     LIG  308   4.294   3.286   5.514 -0.0566 -0.3041  0.2722
    1AU     LIG  309   4.437   2.857   5.302  0.2062  0.0276  0.0380
    1AU     LIG  310   4.797   2.795   5.120 -0.2792 -0.0744 -0.2827
    1AU       S  311   4.645   4.088   5.600  0.1644 -0.0981 -0.0623
    1AU     LIG  312   4.676   4.512   5.430  0.0947 -0.1716 -0.0427
    1AU     LIG  313   4.437   4.923   5.402  0.0499 -0.2002  0.1344
    1AU     LIG  314   4.096   5.255   5.617 -0.1283 -0.3329  0.0358
    1AU     LIG  315   3.685   5.518   5.724 -0.0806  0.0612 -0.1781
    1AU    AUSL  316   4.231   4.668   6.898  0.0297  0.0151  0.0112
    1AU    AUSL  317   4.603   4.625   6.676  0.0579 -0.0172 -0.0682
    1AU     AUL  318   4.286   4.973   6.680  0.1024  0.0808  0.0180
    1AU       S  319   4.780   4.887   6.622  0.1849  0.2420  0.0106
    1AU     LIG  320   5.121   5.055   6.657 -0.0131  0.0945  0.3645
    1AU     LIG  321   5.375   5.410   6.611 -0.1114  0.0390  0.1628
    1AU     LIG  322   5.434   5.741   6.909  0.2283 -0.0592 -0.2246
    1AU     LIG  323   5.386   5.884   7.306  0.2975  0.1499  0.0379
    1AU       S  324   4.389   5.003   7.159  0.2846  0.1085  0.3086
    1AU     LIG  325   4.491   5.381   6.898  0.3602  0.1247 -0.2685
    1AU     LIG  326   4.460   5.832   6.692  0.0554 -0.1561  0.0354
    1AU     LIG  327   4.326   6.287   6.635  0.3422  0.2178 -0.0821
    1AU     LIG  328   4.611   6.573   6.506 -0.0345  0.2382 -0.1704
    1AU    AUSL  329   4.630   4.574   7.084  0.0737  0.0144 -0.0375
    1AU    AUSL  330   4.522   4.228   7.391  0.0511 -0.0813  0.0134
    1AU     AUL  331   4.700   4.550   7.450  0.0657 -0.0595 -0.0803
    1AU       S  332   4.639   4.846   7.092  0.2873  0.0991  0.3365
    1AU     LIG  333   5.107   4.889   7.184 -0.1773  0.1461 -0.2440
    1AU     LIG  334   5.485   4.985   7.383  0.1228 -0.1015  0.1104
    1AU     LIG  335   5.946   5.107   7.421 -0.1043 -0.3478  0.0567
    1AU     LIG  336   6.282   5.365   7.387  0.0711  0.3255  0.0387
    1AU       S  337   5.038   4.176   7.548  0.1466 -0.3147  0.2585
    1AU     LIG  338   5.064   3.827   7.922 -0.1931  0.0217  0.2234
    1AU     LIG  339   5.251   3.522   8.264  0.1007  0.1608  0.2378
    1AU     LIG  340   5.620   3.340   8.481  0.1627 -0.0085  0.1716
    1AU     LIG  341   5.922   3.050   8.446  0.1321  0.2383 -0.3700
    1AU    AUSL  342   4.240   4.552   7.315  0.0069 -0.0959 -0.1154
    1AU    AUSL  343   3.817   4.755   6.872  0.0532 -0.0198 -0.0245
    1AU     AUL  344   3.989   4.761   7.172  0.0330  0.0053 -0.0332
    1AU       S  345   3.540   4.933   6.971  0.0200 -0.1664 -0.1158
    1AU     LIG  346   3.091   5.126   6.754  0.0731 -0.1070  0.2053
    1AU     LIG  347   2.630   5.327   6.683  0.2321  0.1407  0.0523
    1AU     LIG  348   2.273   5.400   6.653 -0.1891 -0.0153  0.1688
    1AU     LIG  349   1.957   5.483   6.382 -0.0396 -0.0467  0.4095
    1AU       S  350   4.409   4.890   7.352 -0.5118 -0.1469  0.1570
    1AU     LIG  351   4.736   5.227   7.454  0.1698  0.1631 -0.0715
    1AU     LIG  352   4.869   5.525   7.250  0.1026  0.1353  0.2021
    1AU     LIG  353   4.933   5.823   6.910  0.1617 -0.2143 -0.0235
    1AU     LIG  354   5.211   6.106   6.611 -0.4476 -0.0383  0.0425
    1AU    AUSL  355   3.636   3.749   6.035 -0.0098  0.0031  0.0448
    1AU    AUSL  356   3.362   3.604   6.346  0.0711  0.0831  0.1037
    1AU     AUL  357   3.312   3.898   5.958 -0.0061 -0.1013 -0.0162
    1AU       S  358   3.375   3.459   5.734 -0.0065 -0.0440 -0.0853
    1AU     LIG  359   3.002   3.675   5.671  0.0761 -0.0830  0.4637
    1AU     LIG  360   2.637   3.761   5.727  0.3912 -0.3547  0.0467
    1AU     LIG  361   2.463   3.898   6.058  0.0911  0.1544  0.1494
    1AU     LIG  362   2.097   3.896   6.287  0.0449 -0.1953  0.3884
    1AU       S  363   3.118   3.554   6.235 -0.3721 -0.1018 -0.3829
    1AU     LIG  364   2.947   3.115   6.109  0.4015 -0.2056  0.3315
    1AU     LIG  365   2.797   2.690   6.052 -0.2727  0.0694 -0.2166
    1AU     LIG  366   2.376   2.679   6.258 -0.0383  0.1933  0.2261
    1AU     LIG  367   2.034   2.580   6.285 -0.2554 -0.1766  0.1428
    1AU    AUSL  368   3.926   3.428   5.833 -0.1085  0.0145 -0.0043
    1AU    AUSL  369   3.736   4.082   5.805  0.0341  0.0437  0.0948
    1AU     AUL  370   3.737   3.733   5.720  0.0259  0.0192  0.0894
    1AU       S  371   3.591   3.300   5.617 -0.1121  0.4035 -0.1397
    1AU     LIG  372   3.149   3.090   5.536 -0.1383  0.0313 -0.1990
    1AU     LIG  373   2.946   2.746   5.571 -0.0015  0.2139  0.2032
    1AU     LIG  374   2.431   2.773   5.727  0.1569 -0.0450 -0.2508
    1AU     LIG  375   2.235   3.157   5.843  0.0779 -0.2693  0.0850
    1AU       S  376   3.677   4.176   5.489  0.1540 -0.0844  0.2535
    1AU     LIG  377   3.527   4.549   5.288 -0.1135  0.0454  0.1173
    1AU     LIG  378   3.101   4.801   5.211 -0.0823 -0.3774  0.3080
    1AU     LIG  379   2.918   4.782   4.807  0.0378  0.1292 -0.2957
    1AU     LIG  380   2.716   5.128   4.609 -0.2789 -0.2032 -0.2472
    1AU    AUSL  381   3.609   3.324   6.120  0.1228  0.0871  0.0498
    1AU    AUSL  382   4.036   3.293   6.222 -0.0624 -0.0058 -0.0242
    1AU     AUL  383   3.911   3.129   5.892  0.0864  0.0424  0.0492
    1AU       S  384   3.784   2.794   6.152 -0.1519 -0.0513  0.0980
    1AU     LIG  385   3.565   2.426   6.346  0.1564  0.1432 -0.1319
    1AU     LIG  386   3.585   2.064   6.625  0.1696  0.0943  0.3035
    1AU     LIG  387   3.589   1.712   6.989  0.1738  0.1451 -0.2538
    1AU     LIG  388   3.464   1.362   7.079  0.2402 -0.0233 -0.3312
    1AU       S  389   3.397   3.276   5.946 -0.2100 -0.1544  0.2460
    1AU     LIG  390   3.305   2.848   5.939 -0.0536 -0.4464  0.2685
    1AU     LIG  391   3.279   2.481   5.901  0.2031  0.2607 -0.2594
    1AU     LIG  392   2.979   2.143   5.772  0.1387  0.1449  0.2297
    1AU     LIG  393   2.525   2.086   5.851  0.2508 -0.3651  0.1971
    1AU    AUSL  394   4.734   3.846   7.307  0.0416  0.0221  0.0276
    1AU    AUSL  395   4.131   4.108   7.439  0.0217  0.0806  0.0802
    1AU     AUL  396   4.564   4.014   7.602 -0.0403 -0.0243 -0.0082
    1AU       S  397   5.040   4.026   7.495  0.0013 -0.2216 -0.2175
    1AU     LIG  398   5.474   3.837   7.442 -0.0887  0.0363 -0.0650
    1AU     LIG  399   5.810   3.517   7.430  0.0885  0.2627 -0.0726
    1AU     LIG  400   6.165   3.176   7.373 -0.0019 -0.2785  0.1104
    1AU     LIG  401   6.428   3.158   6.946  0.1598 -0.0951 -0.4458
    1AU       S  402   4.144   4.175   7.752 -0.1110 -0.2574  0.1785
    1AU     LIG  403   4.320   4.504   7.810  0.5161  0.2284 -0.0004
    1AU     LIG  404   4.459   4.900   7.808 -0.0845 -0.1451 -0.2210
    1AU     LIG  405   4.531   5.373   7.878  0.4419  0.0255  0.2124
    1AU     LIG  406   4.877   5.679   7.702  0.0637 -0.3147  0.0371
    1AU    AUSL  407   4.739   4.189   7.018 -0.0396 -0.0538 -0.1135
    1AU    AUSL  408   4.769   3.740   6.898 -0.1186  0.1333  0.1182
    1AU     AUL  409   5.024   3.805   7.087  0.0309 -0.0213 -0.0849
    1AU       S  410   4.973   4.270   7.239 -0.1933 -0.0109  0.2351
    1AU     LIG  411   5.346   4.489   7.298  0.0299 -0.3223 -0.1180
    1AU     LIG  412   5.616   4.692   7.031  0.0775  0.2256  0.2755
    1AU     LIG  413   5.667   5.012   6.808 -0.0455  0.1145  0.2743
    1AU     LIG  414   6.042   5.251   6.844 -0.0920  0.0618 -0.0452
    1AU       S  415   5.439   3.776   6.913 -0.1258 -0.2881  0.0443
    1AU     LIG  416   5.885   3.658   6.961 -0.0644 -0.0583  0.1426
    1AU     LIG  417   6.127   3.746   6.662 -0.4817 -0.1178  0.3824
    1AU     LIG  418   6.422   3.901   6.462 -0.1993 -0.0915  0.3352
    1AU     LIG  419   6.845   3.821   6.197  0.1683  0.0000  0.1853
    1AU    AUSL  420   4.072   2.963   6.486  0.0484 -0.0597 -0.0192
    1AU    AUSL  421   4.385   3.257   5.996  0.0668  0.0964  0.0059
    1AU     AUL  422   4.287   2.965   6.176  0.0630 -0.0279 -0.0859
    1AU       S  423   4.664   3.119   5.902  0.2907 -0.2041 -0.1395
    1AU     LIG  424   4.822   2.752   5.690  0.0574 -0.1275  0.1831
    1AU     LIG  425   4.791   2.330   5.802  0.1521  0.2283  0.0221
    1AU     LIG  426   4.766   2.050   6.131  0.3175 -0.0856 -0.1981
    1AU     LIG  427   4.629   1.626   6.357  0.0676  0.1849  0.1918
    1AU       S  428   3.920   2.714   6.296  0.0595 -0.3049 -0.1311
    1AU     LIG  429   4.170   2.392   6.175  0.1318 -0.0212  0.0962
    1AU     LIG  430   4.237   2.029   6.384  0.3088  0.1855 -0.1677
    1AU     LIG  431   4.010   1.735   6.557 -0.3241  0.0248 -0.0393
    1AU     LIG  432   3.859   1.272   6.719  0.4919  0.0968 -0.0174
    1AU    AUSL  433   3.716   3.211   6.505  0.1247 -0.0344  0.0180
    1AU    AUSL  434   4.005   3.164   6.862  0.0268  0.0541  0.0575
    1AU     AUL  435   3.810   2.879   6.702 -0.0370  0.0362  0.0479
    1AU       S  436   3.637   2.922   6.261 -0.0978  0.2808  0.2098
    1AU     LIG  437   3.266   2.928   6.501 -0.0378  0.2238 -0.2602
    1AU     LIG  438   2.839   2.590   6.525 -0.2045 -0.0184  0.2200
    1AU     LIG  439   2.578   2.223   6.297 -0.1728 -0.0818 -0.4379
    1AU     LIG  440   2.209   2.142   6.491  0.1283  0.0780  0.0576
    1AU       S  441   3.870   2.770   7.153  0.0124  0.2062 -0.2160
    1AU     LIG  442   4.224   2.637   6.994 -0.2341  0.0675  0.1704
    1AU     LIG  443   4.655   2.508   7.061 -0.0855  0.2196 -0.0398
    1AU     LIG  444   5.005   2.254   7.150  0.0841  0.0525  0.0750
    1AU     LIG  445   4.926   2.193   7.642  0.3226  0.1697 -0.1676
    2POPC   NC3  446   5.926   8.952   8.580  0.0287 -0.0213  0.2397
    2POPC   PO4  447   5.431   9.050   8.538 -0.0402  0.2709  0.0797
    2POPC   GL1  448   5.521   8.866   8.152 -0.0056  0.5805  0.2640
    2POPC   GL2  449   5.559   9.088   7.889  0.1331 -0.1002 -0.3577
    2POPC   C1A  450   5.395   8.661   7.777 -0.2627  0.0763 -0.2037
    2POPC   D2A  451   5.340   8.578   7.234 -0.0618 -0.0388 -0.2711
    2POPC   C3A  452   5.041   8.325   7.096 -0.1985  0.0855 -0.0593
    2POPC   C4A  453   4.956   8.074   6.722  0.0974 -0.1257 -0.0576
    2POPC   C1B  454   5.823   9.201   7.577  0.1282 -0.0184  0.1814
    2POPC   C2B  455   5.727   9.389   7.206 -0.1025  0.0285 -0.2981
    2POPC   C3B  456   5.744   9.586   6.841 -0.3284  0.1797 -0.1907
    2POPC   C4B  457   5.827   9.912   6.666 -0.1226  0.2875  0.3605
    3POPC   NC3  458   8.448   4.303   8.155  0.1263  0.1013 -0.0441
    3POPC   PO4  459   8.224   4.664   8.344  0.2367  0.2102  0.0524
    3POPC   GL1  460   8.112   4.810   7.969  0.1504  0.0409  0.1559
    3POPC   GL2  461   8.324   4.634   7.818 -0.2012  0.2028 -0.0183
    3POPC   C1A  462   7.922   4.964   7.519 -0.0963 -0.3591  0.2296
    3POPC   D2A  463   7.797   4.839   7.051  0.0261 -0.0836 -0.0085
    3POPC   C3A  464   7.416   4.645   6.954 -0.2124 -0.0934  0.1409
    3POPC   C4A  465   6.940   4.585   6.793  0.1409 -0.2816 -0.3208
    3POPC   C1B  466   8.459   4.387   7.502 -0.2232  0.2411  0.0413
    3POPC   C2B  467   8.758   4.345   7.193  0.6109 -0.1764 -0.0854
    3POPC   C3B  468   8.970   4.712   7.014  0.1805  0.0869  0.1490
    3POPC   C4B  469   9.307   4.956   6.949  0.1168 -0.3014  0.0883
    4POPC   NC3  470   6.648   9.843   9.101 -0.0832 -0.1566 -0.1960
    4POPC   PO4  471   6.466   9.722   8.729 -0.0298  0.1164 -0.1086
    4POPC   GL1  472   6.262   9.938   8.347  0.5478  0.3143 -0.0329
    4POPC   GL2  473   6.124  10.205   8.501 -0.2481  0.0525  0.0387
    4POPC   C1A  474   6.028  10.061   7.910 -0.0042  0.3040  0.2757
    4POPC   D2A  475   6.148  10.219   7.556  0.0744  0.0640 -0.2207
    4POPC   C3A  476   6.507  10.499   7.479 -0.1237 -0.0570 -0.3049
    4POPC   C4A  477   6.823  10.748   7.333 -0.0652  0.1683  0.1395
    4POPC   C1B  478   5.880  10.423   8.188  0.0225  0.1975 -0.2852
    4POPC   C2B  479   5.678  10.416   7.782 -0.3691 -0.1816  0.0927
    4POPC   C3B  480   5.456  10.729   7.494  0.0800  0.1191 -0.0630
    4POPC   C4B  481   5.057  10.848   7.460 -0.1951 -0.0480 -0.1029
    5POPC   NC3  482   3.731   3.422   9.720 -0.0270  0.1195 -0.1956
    5POPC   PO4  483   3.739   3.852   9.871 -0.0902 -0.5309 -0.1486
    5POPC   GL1  484   3.779   3.859   9.349  0.1014  0.1802 -0.1313
    5POPC   GL2  485   3.560   3.636   9.300 -0.0185 -0.0901  0.0540
    5POPC   C1A  486   3.699   4.008   9.015  0.0321  0.2367  0.0634
    5POPC   D2A  487   3.794   4.210   8.617  0.2023 -0.1996  0.1083
    5POPC   C3A  488   3.599   4.316   8.247  0.1553 -0.1791 -0.1414
    5POPC   C4A  489   3.178   4.382   8.098  0.0000 -0.0049 -0.2386
    5POPC   C1B  490   3.761   3.444   9.024 -0.0015 -0.2069  0.0230
    5POPC   C2B  491   3.997   3.270   8.801  0.1276  0.0159 -0.2231
    5POPC   C3B  492   4.324   3.048   8.581 -0.1162 -0.3830  0.0218
    5POPC   C4B  493   4.576   2.605   8.689 -0.0314  0.1712 -0.0433
    6POPC   NC3  494   6.897   1.486   8.510 -0.1252 -0.1383 -0.0813
    6POPC   PO4  495   7.341   1.321   8.339 -0.3398 -0.1007  0.0758
    6POPC   GL1  496   7.359   1.508   7.968 -0.0524  0.2004 -0.2217
    6POPC   GL2  497   7.596   1.418   7.788 -0.0715 -0.1430  0.1186
    6POPC   C1A  498   7.111   1.764   7.610 -0.1884  0.1940 -0.1682
    6POPC   D2A  499   6.734   1.983   7.462 -0.1399  0.2260  0.1809
    6POPC   C3A  500   6.716   2.358   7.072  0.0177 -0.0362  0.0996
    6POPC   C4A  501   6.692   2.693   6.824  0.0644  0.0883 -0.2148
    6POPC   C1B  502   7.581   1.365   7.401 -0.0222  0.1892 -0.3065
    6POPC   C2B  503   7.826   1.282   7.010  0.2688  0.1068 -0.2202
    6POPC   C3B  504   8.058   1.077   6.611  0.1014  0.0489 -0.0095
    6POPC   C4B  505   7.926   1.122   6.238  0.0293 -0.1104  0.0413
    7POPC   NC3  506   5.718   3.441   9.756  0.2649  0.0420  0.0831
    7POPC   PO4  507   5.703   3.914   9.624 -0.0073 -0.0971 -0.0697
    7POPC   GL1  508   5.675   4.096   9.147  0.1231  0.3743 -0.0325
    7POPC   GL2  509   5.311   4.283   9.066  0.0719 -0.0254 -0.1341
    7POPC   C1A  510   5.697   4.069   8.718 -0.1275 -0.0339  0.2509
    7POPC   D2A  511   5.538   3.945   8.307 -0.1714 -0.3054  0.0986
    7POPC   C3A  512   5.518   4.142   7.848 -0.0321 -0.0134 -0.0651
    7POPC   C4A  513   5.767   4.263   7.644 -0.2918 -0.0127 -0.1983
    7POPC   C1B  514   4.802   4.317   9.157  0.0021  0.0534  0.1664
    7POPC   C2B  515   4.602   4.692   9.119  0.2557  0.2310 -0.2109
    7POPC   C3B  516   4.758   4.936   8.813 -0.0016 -0.0393  0.0380
    7POPC   C4B  517   5.202   4.819   8.912 -0.1189  0.0987  0.2120
    8POPC   NC3  518   7.195   5.445   8.696 -0.0790  0.3084 -0.1805
    8POPC   PO4  519   7.014   5.896   8.666 -0.2833 -0.3656  0.3332
    8POPC   GL1  520   6.697   5.885   8.356  0.3431 -0.0595  0.1034
    8POPC   GL2  521   6.786   5.594   8.169  0.2660  0.0561  0.0265
    8POPC   C1A  522   6.604   6.037   7.912 -0.0544  0.1208  0.2209
    8POPC   D2A  523   6.656   6.106   7.529 -0.5308 -0.1851  0.0783
    8POPC   C3A  524   6.733   5.871   7.161 -0.2720 -0.0279 -0.1066
    8POPC   C4A  525   7.258   5.976   6.956  0.4825 -0.2915  0.1047
    8POPC   C1B  526   6.596   5.225   8.097 -0.4117  0.0577  0.1722
    8POPC   C2B  527   6.626   5.062   7.614  0.1523  0.1422 -0.3178
    8POPC   C3B  528   6.335   4.850   7.357 -0.2897  0.0716  0.0248
    8POPC   C4B  529   6.040   4.597   7.244 -0.0059  0.3171  0.0551
    9POPC   NC3  530   9.403   7.498   8.620 -0.0369  0.0217 -0.3470
    9POPC   PO4  531   9.583   7.206   8.407 -0.0340 -0.2180 -0.0888
    9POPC   GL1  532   9.734   7.080   7.970  0.2779  0.1159  0.1487
    9POPC   GL2  533   9.507   6.870   8.021  0.0665 -0.1743  0.0089
    9POPC   C1A  534   9.859   6.881   7.559 -0.2735 -0.1552  0.0970
    9POPC   D2A  535   9.763   6.890   7.144  0.0383 -0.1810  0.0206
    9POPC   C3A  536   9.522   7.073   6.819  0.1803  0.0772  0.3378
    9POPC   C4A  537   9.234   7.012   6.617 -0.1573 -0.2791 -0.0507
    9POPC   C1B  538   9.378   6.828   7.594 -0.0862  0.0766 -0.0284
    9POPC   C2B  539   9.134   6.374   7.473 -0.1946 -0.3113 -0.1438
    9POPC   C3B  540   8.902   6.185   7.140  0.3075  0.0377 -0.2340
    9POPC   C4B  541   8.859   6.218   6.679  0.3197  0.3293  0.0489
   10POPC   NC3  542   5.949   2.287   9.138 -0.2117 -0.2418 -0.1283
   10POPC   PO4  543   5.655   1.947   9.172  0.2576 -0.1082 -0.1259
   10POPC   GL1  544   5.426   2.304   8.937  0.0961 -0.2464  0.0684
   10POPC   GL2  545   5.278   2.126   8.687  0.3591  0.0064 -0.0695
   10POPC   C1A  546   5.068   2.556   8.606 -0.4099 -0.0581 -0.0655
   10POPC   D2A  547   4.790   2.837   8.349  0.2110 -0.2817  0.1747
   10POPC   C3A  548   4.813   2.741   7.901  0.0448  0.1689  0.4457
   10POPC   C4A  549   4.858   2.704   7.487  0.0500  0.0347  0.0523
   10POPC   C1B  550   5.402   1.916   8.310  0.1552 -0.1172  0.1492
   10POPC   C2B  551   5.361   2.065   7.800 -0.4370  0.1378 -0.1371
   10POPC   C3B  552   5.411   2.305   7.418  0.1683 -0.0508 -0.0114
   10POPC   C4B  553   5.455   2.477   6.927  0.0065  0.0286  0.1200
   11POPC   NC3  554   7.627   7.782   8.814 -0.0288  0.0885  0.0906
   11POPC   PO4  555   7.777   7.694   8.406  0.0428  0.2079  0.1649
   11POPC   GL1  556   8.162   7.655   8.337  0.0108  0.3267  0.4217
   11POPC   GL2  557   8.442   7.585   8.491  0.2109  0.0131 -0.1372
   11POPC   C1A  558   8.390   7.873   7.999  0.0136 -0.1100  0.0482
   11POPC   D2A  559   8.891   8.056   7.929  0.0803  0.0498  0.1209
   11POPC   C3A  560   8.879   8.215   7.453 -0.0284  0.1526 -0.1022
   11POPC   C4A  561   9.026   8.258   7.060  0.1854  0.1128  0.1090
   11POPC   C1B  562   8.552   7.354   8.011 -0.1084  0.3387  0.1450
   11POPC   C2B  563   8.535   7.144   7.664  0.4344  0.0617 -0.1544
   11POPC   C3B  564   8.819   7.259   7.329 -0.1177 -0.1773  0.0339
   11POPC   C4B  565   8.829   7.223   6.892  0.2790  0.1591  0.2316
   12POPC   NC3  566   8.285   2.573   8.061 -0.1122  0.0589 -0.1671
   12POPC   PO4  567   8.668   2.538   8.089  0.0088  0.0937 -0.2507
   12POPC   GL1  568   8.502   2.386   7.663  0.3895 -0.0239 -0.0153
   12POPC   GL2  569   8.346   2.127   7.668 -0.3589 -0.2874  0.1493
   12POPC   C1A  570   8.508   2.633   7.331  0.1365 -0.1878  0.4430
   12POPC   D2A  571   8.496   2.959   7.173  0.0616 -0.1001 -0.1488
   12POPC   C3A  572   8.604   3.024   6.717  0.2242 -0.0943 -0.3443
   12POPC   C4A  573   8.555   3.003   6.333  0.1241  0.1540 -0.0947
   12POPC   C1B  574   8.460   2.057   7.247  0.2852  0.0445  0.0597
   12POPC   C2B  575   8.323   2.107   6.847  0.1343  0.1281 -0.1266
   12POPC   C3B  576   8.114   2.027   6.463 -0.4805 -0.1087 -0.5225
   12POPC   C4B  577   8.076   2.167   6.094  0.0760 -0.1398 -0.1467
   13POPC   NC3  578   2.800   2.319   9.557  0.1741 -0.2214 -0.1176
   13POPC   PO4  579   3.168   2.254   9.242 -0.3335 -0.1287 -0.1338
   13POPC   GL1  580   3.279   2.404   8.930  0.1399 -0.2754  0.2777
   13POPC   GL2  581   2.928   2.564   8.720  0.2146  0.4486  0.0601
   13POPC   C1A  582   3.505   2.406   8.525  0.0435  0.1929 -0.2370
   13POPC   D2A  583   3.483   2.144   8.128 -0.0934  0.2065  0.2797
   13POPC   C3A  584   3.456   2.315   7.750 -0.0336 -0.3527  0.0052
   13POPC   C4A  585   3.329   2.582   7.470  0.1527 -0.1244  0.2010
   13POPC   C1B  586   3.088   2.425   8.250 -0.2052 -0.0115  0.0077
   13POPC   C2B  587   3.116   2.676   7.943  0.0802  0.2615 -0.0576
   13POPC   C3B  588   3.297   3.094   7.706 -0.3969  0.0878 -0.1606
   13POPC   C4B  589   3.683   3.355   7.687  0.1437  0.2514 -0.0040
   14POPC   NC3  590   6.519   5.343   9.118  0.0985 -0.0421  0.1646
   14POPC   PO4  591   6.920   5.066   8.914 -0.0188  0.1140 -0.2680
   14POPC   GL1  592   6.839   4.947   8.531  0.3889  0.0216 -0.2017
   14POPC   GL2  593   7.004   5.133   8.364  0.1646 -0.1279  0.1371
   14POPC   C1A  594   6.689   4.758   8.173  0.1824  0.0825  0.1052
   14POPC   D2A  595   6.735   4.562   7.786 -0.0765  0.0688  0.0050
   14POPC   C3A  596   6.982   4.670   7.450  0.0405 -0.3864  0.0763
   14POPC   C4A  597   7.478   4.779   7.522 -0.2933 -0.0396  0.2193
   14POPC   C1B  598   7.063   5.007   7.927 -0.1431 -0.0625 -0.0182
   14POPC   C2B  599   7.148   5.168   7.513 -0.0333 -0.0609  0.1776
   14POPC   C3B  600   7.235   5.114   7.070  0.2688  0.2703 -0.0372
   14POPC   C4B  601   7.337   5.072   6.593  0.0311 -0.2873  0.0140
   15POPC   NC3  602   7.817   3.318   8.719  0.2523  0.0493  0.0031
   15POPC   PO4  603   7.597   3.153   8.434  0.1274  0.0337  0.2703
   15POPC   GL1  604   7.385   3.180   8.140 -0.1105  0.3834 -0.4706
   15POPC   GL2  605   7.403   3.577   8.164  0.2531  0.0528  0.0496
   15POPC   C1A  606   7.274   3.075   7.750 -0.2322  0.1918  0.2085
   15POPC   D2A  607   7.168   3.132   7.345  0.2424  0.0984 -0.0019
   15POPC   C3A  608   6.832   2.975   7.228  0.1327  0.1678 -0.0204
   15POPC   C4A  609   6.405   2.765   7.238 -0.2718 -0.0596  0.2063
   15POPC   C1B  610   6.954   3.727   7.997  0.0576  0.0043 -0.1314
   15POPC   C2B  611   6.568   3.932   7.795 -0.0509 -0.1993 -0.1344
   15POPC   C3B  612   6.453   4.282   7.516  0.3300 -0.5438  0.0535
   15POPC   C4B  613   6.586   4.479   7.158  0.4985 -0.1761 -0.1574
   16POPC   NC3  614   2.690   8.220   8.416  0.0622  0.0465  0.0070
   16POPC   PO4  615   2.581   7.799   8.319 -0.0346 -0.1104  0.0332
   16POPC   GL1  616   2.851   7.678   8.065  0.0308 -0.2058  0.0766
   16POPC   GL2  617   2.576   7.438   7.981  0.2741  0.2059  0.0203
   16POPC   C1A  618   3.166   7.681   7.695  0.1396 -0.1283 -0.4965
   16POPC   D2A  619   3.519   7.719   7.335 -0.1112 -0.0491  0.1847
   16POPC   C3A  620   3.796   7.415   7.299  0.0485 -0.0158  0.1586
   16POPC   C4A  621   3.959   7.029   7.362  0.0034  0.4448  0.0718
   16POPC   C1B  622   2.878   7.265   7.627  0.2386  0.2413 -0.1091
   16POPC   C2B  623   2.947   6.900   7.298 -0.2264  0.2678  0.0303
   16POPC   C3B  624   3.303   6.852   6.959  0.0565  0.0776  0.2000
   16POPC   C4B  625   3.647   7.028   6.936  0.2555  0.2349  0.2930
   17POPC   NC3  626   5.022   0.687   8.972  0.0388  0.2271  0.1494
   17POPC   PO4  627   5.204   0.485   8.598  0.1614  0.2090  0.4363
   17POPC   GL1  628   4.969   0.193   8.317 -0.0970 -0.1165 -0.1836
   17POPC   GL2  629   4.912  -0.122   8.392 -0.0312  0.5917 -0.0045
   17POPC   C1A  630   4.506   0.192   8.241 -0.3759 -0.1431  0.0731
   17POPC   D2A  631   4.528   0.598   7.995 -0.2149 -0.1223 -0.0299
   17POPC   C3A  632   4.300   0.940   7.795  0.0007  0.0839 -0.0997
   17POPC   C4A  633   4.551   1.169   7.435  0.2139  0.0293 -0.2475
   17POPC   C1B  634   4.831  -0.304   7.912  0.1274 -0.0623  0.0022
   17POPC   C2B  635   4.784  -0.208   7.468  0.2720  0.2786  0.0606
   17POPC   C3B  636   4.760   0.105   7.235  0.0427 -0.1289 -0.2257
   17POPC   C4B  637   4.547   0.129   6.801 -0.1106  0.2855 -0.0407
   18POPC   NC3  638   1.402   7.559   8.279  0.1338  0.0493  0.4888
   18POPC   PO4  639   1.195   7.304   8.648  0.0217  0.0680  0.3238
   18POPC   GL1  640   1.365   7.017   8.187 -0.1450 -0.1374  0.0629
   18POPC   GL2  641   1.633   6.939   8.204 -0.0478 -0.4771 -0.0504
   18POPC   C1A  642   1.397   6.897   7.729 -0.0932  0.0565 -0.0247
   18POPC   D2A  643   1.534   6.984   7.309 -0.1300  0.1240  0.0161
   18POPC   C3A  644   1.673   7.339   7.253 -0.1265 -0.1121 -0.0434
   18POPC   C4A  645   2.135   7.459   7.242 -0.0746  0.1103 -0.1017
   18POPC   C1B  646   1.793   6.676   7.861  0.0753 -0.0120 -0.2031
   18POPC   C2B  647   1.966   6.772   7.387 -0.2182  0.0008 -0.1117
   18POPC   C3B  648   1.919   6.844   6.962 -0.0246 -0.0171  0.3156
   18POPC   C4B  649   2.005   7.068   6.536 -0.0734  0.0845 -0.0935
   19POPC   NC3  650   5.261   1.645   8.991 -0.2583  0.0080 -0.1168
   19POPC   PO4  651   5.536   1.412   8.710  0.0051 -0.1241 -0.0894
   19POPC   GL1  652   5.903   1.218   8.617 -0.2703  0.2351  0.1256
   19POPC   GL2  653   6.215   1.395   8.500  0.2079 -0.1525  0.1083
   19POPC   C1A  654   6.059   1.001   8.214 -0.0868 -0.0341  0.0084
   19POPC   D2A  655   5.725   0.996   7.881 -0.0955 -0.2136 -0.3449
   19POPC   C3A  656   5.888   1.275   7.542  0.2254 -0.0092 -0.0733
   19POPC   C4A  657   6.119   1.381   7.274  0.0193 -0.1485 -0.0276
   19POPC   C1B  658   6.052   1.561   8.128  0.0228 -0.1421  0.1357
   19POPC   C2B  659   5.720   1.692   7.844 -0.1748  0.0441 -0.4066
   19POPC   C3B  660   5.586   1.750   7.417 -0.1103 -0.1075  0.0791
   19POPC   C4B  661   5.134   1.877   7.375  0.1608 -0.1163 -0.0938
   20POPC   NC3  662   8.515   5.397   8.657  0.0348  0.0724 -0.3102
   20POPC   PO4  663   8.717   5.691   8.417  0.0801  0.2661  0.1964
   20POPC   GL1  664   8.565   6.033   8.090 -0.1787  0.3116  0.1596
   20POPC   GL2  665   8.801   6.265   8.145 -0.2803  0.3288  0.0027
   20POPC   C1A  666   8.233   6.272   7.820 -0.2769  0.0344 -0.1065
   20POPC   D2A  667   7.937   6.515   7.555  0.0576  0.0480  0.2178
   20POPC   C3A  668   7.836   6.961   7.215  0.1726 -0.0777  0.1362
   20POPC   C4A  669   7.578   7.356   7.365 -0.1767  0.0262  0.0240
   20POPC   C1B  670   8.715   6.198   7.658 -0.1106  0.4007 -0.1256
   20POPC   C2B  671   8.355   6.096   7.397  0.0428  0.0382  0.3103
   20POPC   C3B  672   8.070   6.163   7.041 -0.0460  0.1902  0.1501
   20POPC   C4B  673   7.972   5.880   6.766 -0.2422  0.1518  0.2722
   21POPC   NC3  674   1.555   3.258   8.975  0.0810  0.1357 -0.1829
   21POPC   PO4  675   1.480   3.305   8.500 -0.0187  0.2283  0.0117
   21POPC   GL1  676   1.896   3.170   8.235 -0.0592  0.1112  0.0585
   21POPC   GL2  677   1.731   3.091   7.971 -0.1315  0.1629  0.1402
   21POPC   C1A  678   2.272   3.099   8.205 -0.1110 -0.3380 -0.0938
   21POPC   D2A  679   2.682   3.226   8.413 -0.3041 -0.2596  0.0659
   21POPC   C3A  680   3.029   3.019   8.298 -0.1916  0.1497 -0.0608
   21POPC   C4A  681   3.347   2.843   8.600 -0.1126 -0.2414 -0.2572
   21POPC   C1B  682   1.923   3.261   7.619 -0.0043 -0.1064 -0.0045
   21POPC   C2B  683   2.013   3.582   7.431 -0.0443 -0.3009 -0.1342
   21POPC   C3B  684   2.006   3.751   7.018  0.0467  0.2472 -0.2363
   21POPC   C4B  685   2.221   3.680   6.724 -0.3711  0.3526 -0.2835
   22POPC   NC3  686   4.585   8.852   8.873 -0.0505  0.1046 -0.0084
   22POPC   PO4  687   4.602   8.769   8.450  0.0418  0.2545 -0.0707
   22POPC   GL1  688   4.525   8.549   8.133  0.0536 -0.2033  0.0383
   22POPC   GL2  689   4.732   8.382   8.039  0.2466 -0.2701  0.2009
   22POPC   C1A  690   4.449   8.704   7.742  0.0692 -0.4075 -0.1507
   22POPC   D2A  691   4.320   8.598   7.277  0.0365 -0.0885  0.1569
   22POPC   C3A  692   4.105   8.591   6.913 -0.0927 -0.0669  0.1381
   22POPC   C4A  693   4.181   8.829   6.488  0.0935  0.0015 -0.0905
   22POPC   C1B  694   4.970   8.454   7.647 -0.3178  0.0122  0.2477
   22POPC   C2B  695   4.864   8.707   7.336 -0.1142 -0.0567 -0.2869
   22POPC   C3B  696   4.626   8.867   7.004 -0.0549  0.1021 -0.0856
   22POPC   C4B  697   4.611   9.045   6.606  0.1923 -0.1073 -0.0676
   23POPC   NC3  698   6.242   1.307   9.009 -0.1939 -0.0090 -0.0661
   23POPC   PO4  699   6.514   1.680   8.939 -0.2032  0.1432  0.0524
   23POPC   GL1  700   6.288   1.860   8.505  0.0899 -0.0519 -0.2421
   23POPC   GL2  701   6.493   1.742   8.279  0.0728  0.1153  0.1634
   23POPC   C1A  702   6.281   2.139   8.079  0.3159  0.1247  0.0948
   23POPC   D2A  703   6.389   2.381   7.680  0.1364 -0.0658  0.1281
   23POPC   C3A  704   6.268   2.238   7.283 -0.2085  0.0845 -0.0002
   23POPC   C4A  705   6.262   2.271   6.760  0.1075  0.0140  0.0656
   23POPC   C1B  706   6.528   1.548   7.818 -0.0052 -0.0800  0.0999
   23POPC   C2B  707   6.655   1.515   7.455 -0.3791  0.2231  0.1246
   23POPC   C3B  708   6.988   1.346   7.193  0.1038 -0.0341 -0.2918
   23POPC   C4B  709   7.296   0.984   7.033 -0.1373 -0.0729 -0.3141
   24POPC   NC3  710   2.321   5.583   8.661 -0.2525  0.0843 -0.0982
   24POPC   PO4  711   2.036   5.223   8.688  0.0112  0.3359  0.0752
   24POPC   GL1  712   1.993   5.207   8.268  0.0723  0.2155  0.2002
   24POPC   GL2  713   2.347   5.139   8.219 -0.4797  0.1953  0.1148
   24POPC   C1A  714   1.970   5.132   7.864 -0.0204  0.0087 -0.0293
   24POPC   D2A  715   2.076   5.087   7.471  0.3024  0.1662  0.1781
   24POPC   C3A  716   2.358   5.341   7.344 -0.2483 -0.1233 -0.0745
   24POPC   C4A  717   2.644   5.561   7.103  0.2099  0.0051 -0.0906
   24POPC   C1B  718   2.406   5.495   7.831 -0.2315  0.1550  0.2680
   24POPC   C2B  719   2.720   5.684   7.663  0.0649 -0.1019  0.1606
   24POPC   C3B  720   3.103   5.736   7.368 -0.1321  0.2724 -0.0937
   24POPC   C4B  721   3.457   5.978   7.210 -0.2487 -0.0201 -0.0220
   25POPC   NC3  722   0.759   4.452   8.075  0.0280  0.2288 -0.4630
   25POPC   PO4  723   0.434   4.766   8.232 -0.4269 -0.2880  0.0036
   25POPC   GL1  724   0.358   5.067   8.052 -0.1572 -0.1482  0.1734
   25POPC   GL2  725   0.099   5.039   7.858 -0.1593  0.1081 -0.1323
   25POPC   C1A  726   0.436   5.457   7.672  0.0092  0.0881 -0.1035
   25POPC   D2A  727   0.397   5.399   7.324  0.0047 -0.2190 -0.2301
   25POPC   C3A  728   0.042   5.606   7.213  0.0603 -0.2460  0.0142
   25POPC   C4A  729  -0.178   5.886   7.000  0.1105 -0.0769 -0.0687
   25POPC   C1B  730  -0.082   4.967   7.446 -0.0371 -0.2213  0.3079
   25POPC   C2B  731   0.076   5.126   7.090 -0.1235 -0.1487 -0.1337
   25POPC   C3B  732  -0.122   5.079   6.632 -0.4421  0.1666 -0.1539
   25POPC   C4B  733  -0.216   4.680   6.473  0.0193 -0.1390  0.0342
   26POPC   NC3  734   4.792   2.430   9.867  0.1118  0.0431 -0.0364
   26POPC   PO4  735   4.732   2.314   9.558  0.2265 -0.0946  0.1391
   26POPC   GL1  736   4.480   2.156   9.194  0.0680  0.1881  0.0744
   26POPC   GL2  737   4.321   2.416   9.090  0.0782  0.0633  0.0528
   26POPC   C1A  738   4.709   1.997   8.837  0.3016 -0.1101 -0.1492
   26POPC   D2A  739   4.820   1.702   8.531 -0.0401 -0.0478  0.1095
   26POPC   C3A  740   4.572   1.375   8.283 -0.2250 -0.0510  0.4746
   26POPC   C4A  741   4.775   1.045   7.887  0.2161 -0.1550  0.0182
   26POPC   C1B  742   4.056   2.365   8.731  0.0767  0.1064 -0.0419
   26POPC   C2B  743   3.942   2.227   8.290  0.0033  0.2238  0.0149
   26POPC   C3B  744   3.837   2.559   8.082  0.1385 -0.0520  0.2773
   26POPC   C4B  745   3.574   2.824   8.157 -0.0295 -0.1568  0.3793
   27POPC   NC3  746   2.170   1.123   8.982 -0.3251 -0.0310  0.0992
   27POPC   PO4  747   1.964   0.999   8.571  0.1801 -0.1566  0.1844
   27POPC   GL1  748   2.070   1.229   8.229  0.1030 -0.3582  0.0753
   27POPC   GL2  749   2.352   1.246   8.341 -0.3003  0.5677 -0.2565
   27POPC   C1A  750   1.984   1.176   7.821  0.3455 -0.0702 -0.0977
   27POPC   D2A  751   2.023   1.158   7.360  0.2349 -0.5179 -0.1220
   27POPC   C3A  752   1.623   1.087   7.192  0.0425 -0.1315  0.1461
   27POPC   C4A  753   1.106   1.149   7.325 -0.3321  0.3244  0.0541
   27POPC   C1B  754   2.452   1.359   7.918 -0.0157  0.3364  0.1396
   27POPC   C2B  755   2.800   1.485   7.739 -0.0051  0.0499  0.0072
   27POPC   C3B  756   3.151   1.342   7.673 -0.1120 -0.0557  0.2838
   27POPC   C4B  757   3.572   1.494   7.568 -0.2270 -0.0058 -0.0917
   28POPC   NC3  758   7.542   9.404   8.209 -0.0259 -0.0579 -0.0396
   28POPC   PO4  759   7.232   9.553   8.363  0.3153  0.0994 -0.1981
   28POPC   GL1  760   7.012   9.421   8.083 -0.0834 -0.1579  0.1987
   28POPC   GL2  761   7.182   9.195   7.938 -0.3376  0.0358  0.0057
   28POPC   C1A  762   6.865   9.560   7.706 -0.2171  0.0616 -0.1470
   28POPC   D2A  763   6.677   9.471   7.336  0.1656  0.0672  0.2128
   28POPC   C3A  764   6.653   9.168   7.003  0.1518  0.0856 -0.0160
   28POPC   C4A  765   6.886   9.084   6.654 -0.0760  0.2090  0.0144
   28POPC   C1B  766   7.187   9.119   7.458  0.0662 -0.0030  0.2358
   28POPC   C2B  767   7.192   9.283   6.993  0.3119  0.0862 -0.3378
   28POPC   C3B  768   7.521   9.461   6.821  0.2398  0.3155  0.1088
   28POPC   C4B  769   7.782   9.296   6.504  0.0144  0.0431 -0.3032
   29POPC   NC3  770   8.916   1.189   8.674 -0.3832 -0.0435  0.5226
   29POPC   PO4  771   9.150   0.959   8.255 -0.0396 -0.1179 -0.3837
   29POPC   GL1  772   9.624   1.006   8.284  0.0928  0.0057  0.1518
   29POPC   GL2  773   9.968   0.944   8.082 -0.2707  0.2217 -0.0100
   29POPC   C1A  774   9.706   1.299   7.860 -0.0368  0.2484  0.2748
   29POPC   D2A  775   9.971   1.201   7.424  0.0421 -0.0415  0.2642
   29POPC   C3A  776  10.141   0.958   7.217  0.1387 -0.1124 -0.0943
   29POPC   C4A  777  10.183   0.870   6.721  0.2208 -0.1337 -0.1122
   29POPC   C1B  778   9.785   0.780   7.734 -0.1423 -0.2065 -0.0529
   29POPC   C2B  779   9.785   0.587   7.334 -0.0654 -0.0349  0.2439
   29POPC   C3B  780   9.824   0.567   6.854 -0.1031 -0.2478 -0.0932
   29POPC   C4B  781   9.866   0.244   6.481  0.0527 -0.0232  0.3349
   30POPC   NC3  782   9.359   1.798   8.793  0.1567 -0.0164 -0.0465
   30POPC   PO4  783   9.506   1.993   8.328  0.0034  0.0130 -0.0956
   30POPC   GL1  784   9.492   2.066   7.966 -0.4049  0.0245  0.2581
   30POPC   GL2  785   9.746   2.048   7.817  0.0845 -0.1746  0.1042
   30POPC   C1A  786   9.269   2.118   7.551  0.0286 -0.3406  0.2087
   30POPC   D2A  787   8.914   2.306   7.406  0.0270 -0.1081 -0.1323
   30POPC   C3A  788   8.743   2.495   6.959  0.2004  0.3341 -0.0749
   30POPC   C4A  789   8.576   2.463   6.592 -0.0859  0.0320  0.2982
   30POPC   C1B  790  10.051   1.788   7.563 -0.3017 -0.4005 -0.1013
   30POPC   C2B  791  10.142   1.647   7.204  0.0715 -0.1821 -0.0286
   30POPC   C3B  792   9.901   1.456   6.959 -0.0163  0.3354  0.0137
   30POPC   C4B  793   9.902   1.231   6.563  0.2255  0.3424 -0.0502
   31POPC   NC3  794   8.541   3.435   8.257  0.2841 -0.1531 -0.0713
   31POPC   PO4  795   8.762   3.049   8.320 -0.0959 -0.3142 -0.0998
   31POPC   GL1  796   8.675   3.149   7.869 -0.0504 -0.1583  0.1751
   31POPC   GL2  797   8.619   2.943   7.700 -0.4402 -0.1081  0.2716
   31POPC   C1A  798   8.703   3.379   7.473  0.3494  0.0021 -0.0564
   31POPC   D2A  799   8.912   3.253   7.002  0.0842 -0.2149  0.2065
   31POPC   C3A  800   9.071   2.859   6.756  0.0309  0.1802 -0.0611
   31POPC   C4A  801   9.289   2.981   6.353 -0.1053  0.5300 -0.1969
   31POPC   C1B  802   8.943   2.866   7.355  0.2997 -0.2648 -0.0238
   31POPC   C2B  803   9.348   3.080   7.123 -0.2138 -0.2517 -0.0806
   31POPC   C3B  804   9.648   3.235   6.987  0.3032 -0.2712  0.0260
   31POPC   C4B  805  10.068   3.459   6.987  0.1522 -0.2133 -0.1841
   32POPC   NC3  806   0.883   7.273   9.035 -0.1936 -0.0179  0.2670
   32POPC   PO4  807   0.647   7.234   8.621  0.3580 -0.0209  0.0356
   32POPC   GL1  808   0.467   7.281   8.310  0.1681 -0.2272  0.1685
   32POPC   GL2  809   0.156   7.067   8.355  0.0572 -0.1537 -0.0610
   32POPC   C1A  810   0.619   7.450   7.910  0.2875 -0.3566  0.0895
   32POPC   D2A  811   0.670   7.415   7.537 -0.0739  0.2380  0.1063
   32POPC   C3A  812   1.148   7.485   7.363  0.2469 -0.1390 -0.0819
   32POPC   C4A  813   1.249   7.449   6.986  0.2114  0.0479 -0.0123
   32POPC   C1B  814   0.325   7.066   7.902  0.1818  0.1087  0.2222
   32POPC   C2B  815   0.469   6.841   7.446  0.2578  0.0152  0.0121
   32POPC   C3B  816   0.381   6.738   6.993 -0.2241 -0.0316 -0.2275
   32POPC   C4B  817   0.089   6.818   6.727  0.2998  0.4863 -0.2367
   33POPC   NC3  818   6.722   7.212   9.513  0.3219  0.0859  0.0997
   33POPC   PO4  819   6.793   7.321   9.074 -0.1829 -0.1026  0.2613
   33POPC   GL1  820   6.564   7.361   8.650 -0.4261  0.2594 -0.3315
   33POPC   GL2  821   6.624   7.677   8.501 -0.2492 -0.0570 -0.3581
   33POPC   C1A  822   6.546   7.262   8.205 -0.0065  0.0883 -0.0322
   33POPC   D2A  823   6.513   7.127   7.755  0.0589 -0.0519  0.3525
   33POPC   C3A  824   6.337   7.377   7.451 -0.0339  0.0334 -0.0256
   33POPC   C4A  825   6.164   7.673   7.240 -0.1869 -0.0613 -0.0544
   33POPC   C1B  826   6.400   7.720   8.086  0.2228 -0.0249  0.0790
   33POPC   C2B  827   6.460   7.821   7.679  0.0995 -0.0067  0.0667
   33POPC   C3B  828   6.697   7.858   7.294  0.2489 -0.1754  0.3423
   33POPC   C4B  829   6.924   7.804   6.938  0.1613 -0.0341 -0.0031
   34POPC   NC3  830   2.478   6.873   8.951  0.1491  0.0293 -0.1027
   34POPC   PO4  831   2.199   7.020   8.635  0.0740 -0.2552  0.0638
   34POPC   GL1  832   2.155   6.999   8.142 -0.4545 -0.1661 -0.2278
   34POPC   GL2  833   2.330   6.791   7.939  0.2348  0.2471 -0.1356
   34POPC   C1A  834   2.044   7.127   7.767  0.0969  0.0760  0.3532
   34POPC   D2A  835   1.679   7.298   7.768 -0.1429  0.4166 -0.0797
   34POPC   C3A  836   1.676   7.697   7.610  0.1997  0.1417  0.1944
   34POPC   C4A  837   1.612   7.802   7.111  0.0284 -0.1182 -0.1250
   34POPC   C1B  838   2.453   6.852   7.518 -0.0850  0.2063 -0.1626
   34POPC   C2B  839   2.473   6.903   7.109  0.1750 -0.1041 -0.0433
   34POPC   C3B  840   2.453   6.918   6.613 -0.0658 -0.0619  0.0789
   34POPC   C4B  841   2.549   6.810   6.117  0.0916 -0.1343  0.1242
   35POPC   NC3  842   2.549   3.511   9.845 -0.2985  0.1348  0.0657
   35POPC   PO4  843   2.743   3.730   9.460  0.1252 -0.3162 -0.0508
   35POPC   GL1  844   3.107   3.833   9.259 -0.2501  0.0655  0.0542
   35POPC   GL2  845   3.212   4.123   9.166  0.1137 -0.2661  0.0117
   35POPC   C1A  846   3.271   3.725   8.883 -0.0237  0.1540 -0.0447
   35POPC   D2A  847   3.243   3.433   8.577  0.3181 -0.1372 -0.0200
   35POPC   C3A  848   3.652   3.202   8.489  0.1598 -0.0339 -0.0545
   35POPC   C4A  849   3.862   2.790   8.527 -0.1748 -0.2574  0.0528
   35POPC   C1B  850   3.571   4.445   8.984  0.0303 -0.1113 -0.2751
   35POPC   C2B  851   3.810   4.742   8.671 -0.1229 -0.3495 -0.1388
   35POPC   C3B  852   3.725   5.129   8.552  0.2322 -0.2815  0.0272
   35POPC   C4B  853   3.562   5.567   8.569 -0.0233 -0.1041 -0.5442
   36POPC   NC3  854   5.380   0.034   8.480  0.3510  0.0429 -0.3873
   36POPC   PO4  855   5.615  -0.319   8.430 -0.4522 -0.0082 -0.0342
   36POPC   GL1  856   5.542  -0.226   7.971  0.0457  0.1568  0.0619
   36POPC   GL2  857   5.784  -0.224   7.721  0.1268  0.3289 -0.0842
   36POPC   C1A  858   5.247  -0.305   7.567  0.1388 -0.1116  0.1033
   36POPC   D2A  859   5.270  -0.159   7.089  0.1023 -0.0128  0.0613
   36POPC   C3A  860   4.986  -0.412   6.963  0.2370  0.2471 -0.0054
   36POPC   C4A  861   4.619  -0.322   6.657 -0.2189 -0.2503  0.0194
   36POPC   C1B  862   5.719   0.085   7.424 -0.3860  0.0239  0.0648
   36POPC   C2B  863   5.638   0.501   7.194 -0.2449  0.3419  0.0892
   36POPC   C3B  864   5.346   0.883   6.962  0.1385  0.1371 -0.0936
   36POPC   C4B  865   5.352   1.242   6.690  0.0637  0.3676  0.1962
   37POPC   NC3  866   5.261   6.909   9.518 -0.1213 -0.3256 -0.1256
   37POPC   PO4  867   5.497   7.166   9.190  0.3448  0.4083 -0.1913
   37POPC   GL1  868   5.457   7.183   8.785  0.2101  0.0168 -0.1493
   37POPC   GL2  869   5.668   6.976   8.634  0.1802 -0.2050 -0.1720
   37POPC   C1A  870   5.237   6.889   8.471  0.2765 -0.1620 -0.2131
   37POPC   D2A  871   5.036   6.712   8.032  0.2764  0.0114 -0.0997
   37POPC   C3A  872   4.823   6.428   7.682 -0.2246  0.0796  0.1765
   37POPC   C4A  873   4.879   6.084   7.391 -0.1325  0.1368  0.0197
   37POPC   C1B  874   5.682   6.835   8.212 -0.1397  0.0951 -0.1742
   37POPC   C2B  875   5.453   6.708   7.854  0.1173  0.1336  0.0287
   37POPC   C3B  876   5.290   6.924   7.596 -0.2637  0.2212  0.1346
   37POPC   C4B  877   4.934   6.706   7.296 -0.2218 -0.3578  0.0598
   38POPC   NC3  878   3.443   5.072   9.467  0.2225  0.1323 -0.2691
   38POPC   PO4  879   3.803   5.468   9.419 -0.2327 -0.0117  0.0383
   38POPC   GL1  880   3.573   5.299   9.061 -0.1044  0.0565  0.1229
   38POPC   GL2  881   3.901   5.408   8.892  0.1102  0.2422 -0.6092
   38POPC   C1A  882   3.266   5.201   8.740  0.0644  0.0479 -0.0332
   38POPC   D2A  883   3.308   5.313   8.252 -0.0818 -0.0306  0.0648
   38POPC   C3A  884   3.733   5.310   8.094  0.1440  0.1208 -0.3049
   38POPC   C4A  885   3.993   5.551   7.976 -0.1059 -0.1168  0.0457
   38POPC   C1B  886   4.209   5.014   8.869  0.0573 -0.0657  0.3345
   38POPC   C2B  887   4.382   4.650   8.627 -0.0085 -0.1312 -0.0212
   38POPC   C3B  888   4.519   4.464   8.293  0.0700 -0.1990  0.0702
   38POPC   C4B  889   4.617   4.168   8.087  0.0212  0.0496 -0.1187
   39POPC   NC3  890   6.473   6.393   9.125  0.1453 -0.1855  0.0853
   39POPC   PO4  891   6.202   6.596   8.873  0.3338 -0.0705 -0.1581
   39POPC   GL1  892   5.957   6.588   8.509 -0.2610 -0.0203  0.1734
   39POPC   GL2  893   5.880   6.324   8.495  0.1579 -0.2651 -0.1518
   39POPC   C1A  894   5.753   6.368   8.023  0.1241 -0.1832 -0.0733
   39POPC   D2A  895   5.809   6.181   7.571  0.1054 -0.0178 -0.1653
   39POPC   C3A  896   5.748   6.147   7.134 -0.0824  0.2451 -0.0255
   39POPC   C4A  897   6.013   5.884   6.834 -0.2507 -0.0677 -0.2355
   39POPC   C1B  898   6.229   6.269   8.236 -0.0857  0.2291  0.2691
   39POPC   C2B  899   6.238   6.321   7.812 -0.0110 -0.1346  0.2554
   39POPC   C3B  900   6.441   6.584   7.603 -0.1116 -0.1401  0.1565
   39POPC   C4B  901   6.351   6.925   7.319  0.1340  0.0919 -0.4441
   40POPC   NC3  902   5.793   8.088   9.199 -0.0909  0.2685  0.1290
   40POPC   PO4  903   5.494   7.815   9.038 -0.3263  0.0312  0.2114
   40POPC   GL1  904   5.551   7.791   8.598  0.1317  0.4116 -0.1671
   40POPC   GL2  905   5.507   7.509   8.374  0.0427 -0.0897 -0.2591
   40POPC   C1A  906   5.904   7.788   8.237  0.1014  0.1865  0.1429
   40POPC   D2A  907   5.994   7.722   7.783  0.1880 -0.0117  0.0764
   40POPC   C3A  908   5.701   7.742   7.397  0.1067 -0.2523  0.1044
   40POPC   C4A  909   5.883   7.901   6.953  0.1777  0.0314 -0.0705
   40POPC   C1B  910   5.558   7.779   7.949  0.1430  0.1500  0.2786
   40POPC   C2B  911   5.077   7.935   7.754 -0.2461  0.2477 -0.0953
   40POPC   C3B  912   4.753   8.003   7.432 -0.1678 -0.1292  0.0550
   40POPC   C4B  913   4.395   8.128   7.144 -0.2986 -0.3556  0.1361
   41POPC   NC3  914   8.935   8.976   9.210 -0.3182 -0.1501  0.3882
   41POPC   PO4  915   8.640   8.737   8.844  0.2888 -0.1128  0.0881
   41POPC   GL1  916   8.497   8.576   8.458 -0.7714 -0.1867  0.0538
   41POPC   GL2  917   8.257   8.765   8.326 -0.0459  0.1913 -0.1757
   41POPC   C1A  918   8.509   8.409   8.066  0.1635  0.1990  0.2708
   41POPC   D2A  919   8.446   8.246   7.702  0.0137  0.1607  0.0278
   41POPC   C3A  920   8.387   8.224   7.346  0.1054 -0.2120  0.1116
   41POPC   C4A  921   8.479   8.242   6.904  0.1001  0.0051 -0.0526
   41POPC   C1B  922   8.331   8.810   7.907  0.1367 -0.2043  0.4042
   41POPC   C2B  923   8.398   8.707   7.498  0.0038 -0.1866  0.0895
   41POPC   C3B  924   8.486   8.849   7.072  0.3288  0.3334  0.5066
   41POPC   C4B  925   8.812   8.662   6.772  0.1319  0.1567  0.1505
   42POPC   NC3  926   0.521   8.544   8.689  0.2932  0.1374 -0.1153
   42POPC   PO4  927   0.859   8.712   8.800  0.1593 -0.1438  0.1798
   42POPC   GL1  928   0.829   8.855   8.339 -0.0768 -0.1155  0.0293
   42POPC   GL2  929   0.572   8.543   8.151  0.0273  0.1170 -0.0901
   42POPC   C1A  930   0.850   8.934   7.911  0.0289  0.0774  0.0732
   42POPC   D2A  931   0.751   8.876   7.439 -0.2721  0.1653 -0.0271
   42POPC   C3A  932   0.246   8.803   7.357 -0.1870 -0.1305  0.0902
   42POPC   C4A  933  -0.092   8.510   7.555  0.3166 -0.2480  0.1486
   42POPC   C1B  934   0.375   8.873   8.007  0.1196  0.2625  0.3141
   42POPC   C2B  935   0.423   9.231   7.732 -0.0032 -0.0794 -0.1048
   42POPC   C3B  936   0.406   9.264   7.306  0.1605  0.1975  0.1885
   42POPC   C4B  937   0.524   8.938   6.973  0.0364 -0.2419 -0.1678
   43POPC   NC3  938   9.391   6.689   8.956  0.3366 -0.1695  0.2460
   43POPC   PO4  939   9.391   6.279   8.769 -0.3014  0.0839  0.1265
   43POPC   GL1  940   9.517   6.150   8.423 -0.0910 -0.3886  0.0226
   43POPC   GL2  941   9.249   6.105   8.236 -0.0436  0.1537  0.0312
   43POPC   C1A  942   9.895   6.017   8.099 -0.0487 -0.0716  0.2435
   43POPC   D2A  943   9.932   5.944   7.693  0.1063  0.0689  0.0371
   43POPC   C3A  944   9.522   5.823   7.451 -0.1188 -0.0623 -0.3035
   43POPC   C4A  945   9.238   5.809   7.082  0.1841 -0.0766  0.2665
   43POPC   C1B  946   9.138   6.018   7.795 -0.2144  0.3272  0.0686
   43POPC   C2B  947   8.921   5.789   7.444  0.3087 -0.4598  0.2000
   43POPC   C3B  948   8.707   5.723   7.128  0.0111  0.2540 -0.1771
   43POPC   C4B  949   8.646   5.580   6.775  0.4460  0.1798 -0.1923
   44POPC   NC3  950   3.519   1.947   9.366 -0.1089 -0.3670  0.4647
   44POPC   PO4  951   3.894   1.829   9.021 -0.0354  0.0937 -0.2186
   44POPC   GL1  952   4.124   1.845   8.661  0.1449  0.1475  0.0458
   44POPC   GL2  953   4.108   1.697   8.338 -0.1809  0.3434 -0.3434
   44POPC   C1A  954   4.461   2.166   8.414  0.4567 -0.1000 -0.1793
   44POPC   D2A  955   4.872   2.140   8.278 -0.1308 -0.1804 -0.0142
   44POPC   C3A  956   5.098   2.415   8.077  0.0557  0.3556  0.1200
   44POPC   C4A  957   5.504   2.599   7.812  0.1700  0.1534 -0.0681
   44POPC   C1B  958   3.971   1.805   7.917  0.1409 -0.2274 -0.0099
   44POPC   C2B  959   3.774   2.012   7.503 -0.1550  0.2251  0.1055
   44POPC   C3B  960   3.850   2.174   7.067  0.2446  0.2235 -0.0165
   44POPC   C4B  961   3.971   2.327   6.686  0.2538  0.0581 -0.0046
   45POPC   NC3  962   4.346   7.908   8.725  0.2139 -0.1371  0.3505
   45POPC   PO4  963   4.653   7.646   8.851  0.0414 -0.3762 -0.1148
   45POPC   GL1  964   4.874   7.373   8.565 -0.0327  0.2101 -0.1063
   45POPC   GL2  965   4.742   7.017   8.534 -0.1317 -0.1200  0.2211
   45POPC   C1A  966   5.044   7.223   8.144 -0.4033 -0.0943  0.0485
   45POPC   D2A  967   5.381   7.265   7.905  0.1736 -0.1952 -0.1851
   45POPC   C3A  968   5.264   7.424   7.450 -0.1460 -0.0233 -0.1790
   45POPC   C4A  969   5.441   7.359   7.047  0.0659 -0.3927 -0.1945
   45POPC   C1B  970   4.521   7.190   8.219  0.1050 -0.3025  0.0283
   45POPC   C2B  971   4.292   7.479   8.149 -0.1876 -0.0630  0.2044
   45POPC   C3B  972   4.102   7.764   7.777  0.0519  0.2913  0.1846
   45POPC   C4B  973   3.960   7.976   7.368  0.2773 -0.0359  0.1677
   46POPC   NC3  974   1.508   0.769   8.504 -0.0930  0.2034 -0.2973
   46POPC   PO4  975   1.542   1.301   8.495 -0.0361  0.2693 -0.1331
   46POPC   GL1  976   1.327   1.495   7.974 -0.2098 -0.2371 -0.1450
   46POPC   GL2  977   1.081   1.576   8.003  0.2396  0.1281  0.0399
   46POPC   C1A  978   1.602   1.478   7.560  0.0546  0.5041 -0.0137
   46POPC   D2A  979   1.801   1.582   7.160 -0.2646 -0.0941  0.2035
   46POPC   C3A  980   1.535   1.520   6.863  0.1834  0.3054 -0.1003
   46POPC   C4A  981   1.236   1.241   6.836  0.1894 -0.0753 -0.4073
   46POPC   C1B  982   1.150   1.637   7.510  0.3695  0.2072  0.1520
   46POPC   C2B  983   1.015   1.668   7.005  0.1366 -0.2779 -0.0164
   46POPC   C3B  984   0.785   1.750   6.592  0.1156  0.0419 -0.0999
   46POPC   C4B  985   0.598   1.560   6.270 -0.0942  0.2210 -0.2496
   47POPC   NC3  986   3.572   4.325  10.036 -0.0443  0.2693  0.1646
   47POPC   PO4  987   3.806   4.607  10.177 -0.0158 -0.1255 -0.2967
   47POPC   GL1  988   4.045   4.387   9.879  0.0587  0.1547  0.3383
   47POPC   GL2  989   4.179   4.132   9.846 -0.0051  0.1824  0.0683
   47POPC   C1A  990   4.127   4.430   9.396 -0.0970 -0.1631  0.1063
   47POPC   D2A  991   4.158   4.329   8.888  0.0718  0.1325  0.1775
   47POPC   C3A  992   4.495   4.135   8.701  0.0548 -0.2739  0.1014
   47POPC   C4A  993   4.890   4.369   8.607 -0.2625  0.1756  0.0720
   47POPC   C1B  994   4.336   3.930   9.435 -0.0781  0.0694  0.1943
   47POPC   C2B  995   4.576   3.796   9.153 -0.0469 -0.2137  0.1330
   47POPC   C3B  996   4.635   3.573   8.843 -0.3468  0.1589  0.0255
   47POPC   C4B  997   4.743   3.344   8.510 -0.1221  0.0353 -0.2284
   48POPC   NC3  998   8.177   8.840   8.822  0.0056 -0.1015  0.0749
   48POPC   PO4  999   7.890   8.562   8.670  0.0267  0.0623  0.4402
   48POPC   GL1 1000   8.001   8.373   8.142 -0.2738  0.2420  0.1424
   48POPC   GL2 1001   7.930   8.003   8.021 -0.4919  0.0696 -0.0734
   48POPC   C1A 1002   7.992   8.410   7.751 -0.1039 -0.2714 -0.1036
   48POPC   D2A 1003   7.828   8.292   7.438  0.1237 -0.0355 -0.0461
   48POPC   C3A 1004   7.975   8.084   6.949  0.1497 -0.3341  0.1370
   48POPC   C4A 1005   8.180   8.084   6.505 -0.2462  0.0593 -0.1287
   48POPC   C1B 1006   7.506   8.186   7.962  0.0635  0.0621  0.0475
   48POPC   C2B 1007   7.297   8.288   7.527 -0.4717  0.0775  0.0134
   48POPC   C3B 1008   7.249   8.314   7.087 -0.3254 -0.3230 -0.2073
   48POPC   C4B 1009   7.226   8.168   6.653 -0.1271 -0.4633 -0.0915
   49POPC   NC3 1010   1.857   1.974   8.716 -0.0421  0.0710  0.0232
   49POPC   PO4 1011   1.455   2.149   8.754 -0.1964 -0.1355  0.1178
   49POPC   GL1 1012   1.583   1.990   8.308 -0.1684  0.0407 -0.2875
   49POPC   GL2 1013   1.874   1.713   8.289 -0.1281  0.0549  0.4036
   49POPC   C1A 1014   1.550   1.911   7.799  0.2493 -0.1724 -0.1394
   49POPC   D2A 1015   1.800   2.002   7.407  0.0152 -0.2408  0.2473
   49POPC   C3A 1016   1.682   2.389   7.140 -0.1733  0.0484  0.1000
   49POPC   C4A 1017   1.237   2.576   7.041  0.1893  0.3734 -0.1973
   49POPC   C1B 1018   1.973   1.714   7.870 -0.1992  0.1514  0.1352
   49POPC   C2B 1019   2.226   1.602   7.468 -0.1699 -0.3420 -0.2655
   49POPC   C3B 1020   2.397   1.464   7.127  0.1911 -0.3108  0.0235
   49POPC   C4B 1021   2.459   1.189   6.842  0.0937  0.0112  0.0131
   50POPC   NC3 1022   2.070   8.746   8.519  0.1375  0.0498 -0.0051
   50POPC   PO4 1023   1.677   8.789   8.549 -0.2672 -0.0759 -0.3051
   50POPC   GL1 1024   1.359   8.828   8.213 -0.1027  0.0514 -0.2261
   50POPC   GL2 1025   1.255   9.156   8.083 -0.0226  0.0515 -0.0272
   50POPC   C1A 1026   1.348   8.762   7.725  0.0985 -0.1392 -0.2028
   50POPC   D2A 1027   1.260   9.037   7.341  0.0330 -0.1235  0.0509
   50POPC   C3A 1028   1.062   8.908   6.967 -0.0945  0.1098  0.2986
   50POPC   C4A 1029   1.126   8.569   6.766 -0.1194 -0.1611  0.0818
   50POPC   C1B 1030   1.388   9.522   7.807 -0.0475  0.1703  0.0376
   50POPC   C2B 1031   1.315   9.616   7.404 -0.3024  0.1248  0.1623
   50POPC   C3B 1032   1.112   9.777   6.908  0.1603 -0.0221  0.1993
   50POPC   C4B 1033   0.978  10.211   6.823 -0.3912 -0.2373  0.0470
   51POPC   NC3 1034   1.280   0.490   8.171 -0.2622  0.2662  0.0096
   51POPC   PO4 1035   1.605   0.277   8.330 -0.1708 -0.1992 -0.0159
   51POPC   GL1 1036   1.633   0.088   7.927 -0.0455 -0.1162 -0.2360
   51POPC   GL2 1037   1.245   0.105   7.718 -0.1750 -0.2770 -0.1619
   51POPC   C1A 1038   1.854  -0.208   7.637 -0.0852  0.3288 -0.2039
   51POPC   D2A 1039   2.181  -0.456   7.828  0.0659 -0.0991  0.1826
   51POPC   C3A 1040   2.629  -0.643   7.659 -0.0189 -0.1009 -0.2750
   51POPC   C4A 1041   2.986  -0.555   7.563  0.1777  0.0597 -0.0968
   51POPC   C1B 1042   1.642   0.208   7.415  0.2774  0.3021 -0.1491
   51POPC   C2B 1043   2.016  -0.020   7.179 -0.0808  0.0957 -0.2713
   51POPC   C3B 1044   2.305   0.266   6.855  0.0081 -0.1411 -0.0528
   51POPC   C4B 1045   2.560   0.698   6.843  0.2789  0.0225  0.0137
   52POPC   NC3 1046   7.501   2.707   8.705  0.3985  0.3301 -0.4240
   52POPC   PO4 1047   7.907   2.689   8.377  0.0721 -0.1335 -0.1992
   52POPC   GL1 1048   7.891   2.944   8.060  0.2724  0.3621  0.1811
   52POPC   GL2 1049   7.706   2.885   7.847  0.2028  0.0785 -0.1540
   52POPC   C1A 1050   8.141   3.125   7.828 -0.0915  0.0505  0.2306
   52POPC   D2A 1051   8.150   2.952   7.492  0.2879 -0.0014 -0.0418
   52POPC   C3A 1052   8.028   2.474   7.474  0.1282 -0.0194 -0.3288
   52POPC   C4A 1053   7.985   2.171   7.227  0.2853 -0.0626  0.0728
   52POPC   C1B 1054   7.606   2.733   7.376  0.1178  0.0150  0.0765
   52POPC   C2B 1055   7.669   2.800   6.941  0.2375  0.2448 -0.3835
   52POPC   C3B 1056   7.379   3.053   6.661 -0.3657 -0.0397  0.0503
   52POPC   C4B 1057   7.008   3.190   6.811  0.1878 -0.0874  0.1744
   53POPC   NC3 1058   4.033   1.375   8.880 -0.1199  0.0482  0.1363
   53POPC   PO4 1059   4.070   0.928   8.786  0.1032 -0.1516 -0.1109
   53POPC   GL1 1060   3.824   0.977   8.516 -0.1073  0.0978 -0.1607
   53POPC   GL2 1061   3.719   1.302   8.449 -0.1537 -0.0314 -0.2799
   53POPC   C1A 1062   3.719   0.862   8.082  0.3155  0.0155  0.1599
   53POPC   D2A 1063   3.744   0.722   7.690  0.0096 -0.1938 -0.0481
   53POPC   C3A 1064   3.926   0.984   7.420 -0.2194  0.3390 -0.1445
   53POPC   C4A 1065   4.147   1.097   7.051  0.1395 -0.0512 -0.0034
   53POPC   C1B 1066   4.006   1.293   8.101  0.1882 -0.0927 -0.0265
   53POPC   C2B 1067   4.054   1.432   7.476 -0.1647 -0.0885  0.0617
   53POPC   C3B 1068   4.082   1.688   7.115 -0.0291 -0.4355  0.0716
   53POPC   C4B 1069   4.322   2.018   6.935 -0.0776 -0.0588  0.0726
   54POPC   NC3 1070   2.875   4.211   9.602  0.1148  0.1503  0.1530
   54POPC   PO4 1071   2.543   4.511   9.641  0.0982  0.1518  0.0169
   54POPC   GL1 1072   2.785   4.513   9.246 -0.0730 -0.4546  0.1094
   54POPC   GL2 1073   2.749   4.246   9.114  0.1475  0.2764  0.0127
   54POPC   C1A 1074   3.109   4.602   8.959  0.0676  0.1432  0.1280
   54POPC   D2A 1075   3.351   4.572   8.574  0.2798  0.0993 -0.1068
   54POPC   C3A 1076   3.471   4.824   8.244  0.1460 -0.0206  0.1017
   54POPC   C4A 1077   3.443   4.981   7.761  0.1027  0.1531  0.0635
   54POPC   C1B 1078   2.910   4.172   8.704  0.0307  0.1837 -0.0279
   54POPC   C2B 1079   2.770   4.214   8.298  0.1565  0.3352 -0.0073
   54POPC   C3B 1080   2.824   4.098   7.821  0.3190  0.1780  0.0671
   54POPC   C4B 1081   2.611   3.747   7.706  0.0854  0.1925 -0.0208
   55POPC   NC3 1082   5.622   5.642   9.002  0.0391  0.3883  0.3776
   55POPC   PO4 1083   6.074   5.527   9.183 -0.1260  0.1004 -0.7328
   55POPC   GL1 1084   6.091   5.618   8.759  0.3280  0.1130 -0.2016
   55POPC   GL2 1085   5.824   5.561   8.583 -0.5104  0.2525  0.1237
   55POPC   C1A 1086   6.222   5.814   8.436 -0.0670  0.3275 -0.1003
   55POPC   D2A 1087   6.268   5.673   8.022 -0.1426 -0.1994  0.1963
   55POPC   C3A 1088   6.207   5.865   7.552  0.0514  0.2949  0.0511
   55POPC   C4A 1089   6.200   6.118   7.242  0.0837  0.1477 -0.4919
   55POPC   C1B 1090   5.811   5.419   8.170 -0.1113  0.0046 -0.1572
   55POPC   C2B 1091   5.563   5.188   7.893 -0.0047 -0.0493  0.0477
   55POPC   C3B 1092   5.353   4.884   8.113  0.0727  0.0128  0.0258
   55POPC   C4B 1093   5.091   4.948   8.449 -0.0013 -0.0991  0.1383
   56POPC   NC3 1094   0.188   3.199   7.862 -0.0019 -0.1833  0.2968
   56POPC   PO4 1095   0.536   3.364   8.089  0.3509  0.0710  0.3670
   56POPC   GL1 1096   0.477   3.616   7.704 -0.2729 -0.1814  0.4179
   56POPC   GL2 1097   0.503   3.403   7.568  0.0603 -0.1504  0.0535
   56POPC   C1A 1098   0.290   3.840   7.334  0.1218  0.1580 -0.0775
   56POPC   D2A 1099   0.171   3.953   6.874  0.0542  0.1756  0.0069
   56POPC   C3A 1100  -0.190   4.286   6.868 -0.1010 -0.1638  0.0839
   56POPC   C4A 1101  -0.118   4.706   6.948  0.1242 -0.0152  0.0309
   56POPC   C1B 1102   0.677   3.346   7.170 -0.3299 -0.0955 -0.4125
   56POPC   C2B 1103   0.689   3.184   6.771  0.1643  0.2990  0.1344
   56POPC   C3B 1104   0.583   2.933   6.482 -0.2132  0.1418  0.2063
   56POPC   C4B 1105   0.884   2.729   6.201 -0.0246 -0.1281  0.1350
   57POPC   NC3 1106   1.134   8.306   9.026 -0.1099  0.0591 -0.0158
   57POPC   PO4 1107   0.753   8.146   8.861 -0.1607 -0.1734 -0.1425
   57POPC   GL1 1108   0.922   8.205   8.464 -0.0008  0.0023  0.0531
   57POPC   GL2 1109   0.743   8.019   8.271  0.2590 -0.2969  0.0037
   57POPC   C1A 1110   1.042   8.446   8.020 -0.0497  0.4307  0.0339
   57POPC   D2A 1111   0.929   8.459   7.609  0.0396 -0.1864  0.1530
   57POPC   C3A 1112   1.278   8.516   7.269  0.0290 -0.0327 -0.0015
   57POPC   C4A 1113   1.617   8.336   6.985  0.0769  0.2091 -0.2384
   57POPC   C1B 1114   0.658   7.948   7.823 -0.0225 -0.0575 -0.1069
   57POPC   C2B 1115   0.678   7.991   7.425  0.2813 -0.1990 -0.5303
   57POPC   C3B 1116   0.762   7.593   7.036 -0.1254  0.1167  0.0479
   57POPC   C4B 1117   0.665   7.187   7.044  0.3684 -0.1747 -0.3606
   58POPC   NC3 1118   5.102   8.700   8.328 -0.2180  0.1397  0.2215
   58POPC   PO4 1119   5.192   8.239   8.293  0.2075 -0.0866  0.2022
   58POPC   GL1 1120   5.446   8.250   8.018 -0.0800 -0.4087 -0.3132
   58POPC   GL2 1121   5.730   8.231   8.098 -0.0729  0.2921  0.0093
   58POPC   C1A 1122   5.534   8.215   7.509  0.3397  0.0300  0.1136
   58POPC   D2A 1123   5.796   8.276   7.224  0.2400  0.3100 -0.2731
   58POPC   C3A 1124   5.927   8.414   6.819  0.2480  0.0602  0.1964
   58POPC   C4A 1125   5.981   8.646   6.445 -0.0021 -0.3213 -0.0059
   58POPC   C1B 1126   5.838   8.480   7.801  0.0324  0.1348 -0.0977
   58POPC   C2B 1127   5.822   8.740   7.384  0.0766  0.3847 -0.1244
   58POPC   C3B 1128   5.765   8.839   7.016  0.0298 -0.0790 -0.0009
   58POPC   C4B 1129   5.539   8.736   6.713 -0.0724  0.0200 -0.1771
   59POPC   NC3 1130   0.732   0.450   8.724  0.2788  0.0293  0.1739
   59POPC   PO4 1131   0.940   0.806   8.526 -0.0982 -0.1133 -0.1661
   59POPC   GL1 1132   1.110   0.978   8.166  0.0515  0.1169  0.1092
   59POPC   GL2 1133   1.384   0.997   8.096  0.2357 -0.1530  0.0076
   59POPC   C1A 1134   1.002   1.140   7.801 -0.0354 -0.1021  0.1233
   59POPC   D2A 1135   0.621   1.180   7.540 -0.1022  0.1984  0.2144
   59POPC   C3A 1136   0.586   1.281   7.042 -0.1368  0.0365  0.0772
   59POPC   C4A 1137   0.655   1.261   6.648  0.1470  0.4458  0.1441
   59POPC   C1B 1138   1.494   0.912   7.654  0.1082 -0.0994 -0.0506
   59POPC   C2B 1139   1.343   0.672   7.373  0.0105  0.1306  0.0931
   59POPC   C3B 1140   1.089   0.469   7.363  0.0239  0.0890 -0.0104
   59POPC   C4B 1141   0.910   0.064   7.302 -0.1175  0.2821 -0.0063
   60POPC   NC3 1142   1.980   2.662   9.465 -0.1533  0.0110 -0.3712
   60POPC   PO4 1143   1.929   2.957   9.156 -0.1100 -0.6068  0.3097
   60POPC   GL1 1144   2.094   3.160   8.750  0.0078 -0.2029 -0.2673
   60POPC   GL2 1145   2.064   2.808   8.609  0.1950  0.0050  0.1546
   60POPC   C1A 1146   2.306   3.525   8.488  0.3208  0.0326 -0.0136
   60POPC   D2A 1147   2.560   3.678   8.297  0.1569  0.0591 -0.4136
   60POPC   C3A 1148   2.935   3.544   8.107  0.0333  0.2141 -0.1168
   60POPC   C4A 1149   3.411   3.356   8.133 -0.2163  0.1867  0.3346
   60POPC   C1B 1150   2.409   2.608   8.597  0.3648 -0.1583  0.1559
   60POPC   C2B 1151   2.646   2.737   8.146  0.0584 -0.1427 -0.0593
   60POPC   C3B 1152   2.758   3.093   7.940  0.0919  0.0851  0.0606
   60POPC   C4B 1153   2.807   3.377   7.548 -0.1474 -0.1408 -0.0024
   61POPC   NC3 1154   2.010   9.367   9.143 -0.0205  0.2885  0.2390
   61POPC   PO4 1155   1.969   9.190   8.692  0.4804  0.0912  0.0123
   61POPC   GL1 1156   1.970   9.174   8.226  0.0734  0.0324 -0.0891
   61POPC   GL2 1157   2.158   8.945   8.007 -0.0037 -0.2208  0.0930
   61POPC   C1A 1158   1.697   9.103   7.765 -0.1889  0.0697 -0.1339
   61POPC   D2A 1159   1.723   9.288   7.290 -0.0174  0.0151  0.0827
   61POPC   C3A 1160   1.628   9.700   7.044  0.0451  0.3221  0.1219
   61POPC   C4A 1161   1.498  10.058   6.947 -0.1121  0.1766  0.1234
   61POPC   C1B 1162   2.185   8.972   7.593  0.0521  0.0398 -0.1708
   61POPC   C2B 1163   2.125   8.932   7.166 -0.0912 -0.0846  0.1716
   61POPC   C3B 1164   1.960   8.684   6.755  0.0959  0.1094  0.2064
   61POPC   C4B 1165   1.607   8.609   6.498  0.2086  0.2604 -0.2147
   62POPC   NC3 1166   9.473   2.465   8.175 -0.3197  0.1261  0.0253
   62POPC   PO4 1167   9.895   2.368   8.219  0.3031 -0.1092  0.2135
   62POPC   GL1 1168   9.854   2.536   7.727  0.2572  0.0958 -0.2585
   62POPC   GL2 1169   9.731   2.812   7.825  0.1940 -0.1232 -0.0548
   62POPC   C1A 1170   9.746   2.266   7.348 -0.0080  0.0844  0.0175
   62POPC   D2A 1171   9.433   2.052   7.082 -0.2760  0.0103  0.0043
   62POPC   C3A 1172   9.030   2.052   6.878 -0.0985  0.0246 -0.0965
   62POPC   C4A 1173   8.771   1.922   6.698 -0.0641  0.3284 -0.0020
   62POPC   C1B 1174   9.408   2.776   7.535  0.1934 -0.0644 -0.0917
   62POPC   C2B 1175   9.298   2.558   7.085  0.0535  0.2652 -0.1787
   62POPC   C3B 1176   9.314   2.374   6.655  0.0131  0.0514  0.4716
   62POPC   C4B 1177   9.501   2.520   6.199 -0.1684  0.0460  0.0187
   63POPC   NC3 1178   3.084   7.918   8.423  0.1659 -0.0093  0.1208
   63POPC   PO4 1179   3.524   7.855   8.351 -0.0337 -0.3419 -0.1008
   63POPC   GL1 1180   3.379   8.158   8.009 -0.0367 -0.2380 -0.0755
   63POPC   GL2 1181   3.054   8.189   8.031  0.1205  0.0161 -0.0400
   63POPC   C1A 1182   3.461   8.076   7.630 -0.2075  0.2115  0.2095
   63POPC   D2A 1183   3.571   8.273   7.177 -0.0412 -0.1310 -0.0855
   63POPC   C3A 1184   3.712   8.711   7.186  0.3469 -0.0827  0.2863
   63POPC   C4A 1185   3.697   9.086   7.138 -0.0401 -0.1156 -0.1485
   63POPC   C1B 1186   2.954   8.085   7.558 -0.1641  0.0721  0.1241
   63POPC   C2B 1187   3.037   7.866   7.218 -0.2101 -0.4853  0.0605
   63POPC   C3B 1188   3.039   7.648   6.908 -0.0212  0.5251  0.0384
   63POPC   C4B 1189   2.867   7.182   6.823  0.1742 -0.3383  0.0004
   64POPC   NC3 1190   3.822   8.181   8.506  0.1062 -0.0254 -0.0523
   64POPC   PO4 1191   4.051   8.560   8.430  0.0980 -0.1395  0.0386
   64POPC   GL1 1192   4.000   8.734   8.064 -0.2020 -0.1987  0.1332
   64POPC   GL2 1193   3.766   8.841   7.973 -0.0290  0.3088  0.0068
   64POPC   C1A 1194   4.188   9.142   7.934  0.0911 -0.0398  0.1033
   64POPC   D2A 1195   4.275   9.505   7.651  0.1843  0.0559  0.0349
   64POPC   C3A 1196   4.386   9.862   7.827  0.2812 -0.0288 -0.2158
   64POPC   C4A 1197   4.759  10.042   7.831 -0.0728  0.0281 -0.0854
   64POPC   C1B 1198   3.825   9.078   7.602  0.1814  0.1205 -0.0107
   64POPC   C2B 1199   4.189   9.050   7.456 -0.1503  0.0544  0.3948
   64POPC   C3B 1200   4.183   9.075   7.027  0.2503  0.1648  0.0477
   64POPC   C4B 1201   4.153   9.352   6.720  0.2511  0.2657  0.3221
   65POPC   NC3 1202   6.705   3.089   8.818  0.1932 -0.0914 -0.2089
   65POPC   PO4 1203   6.958   2.678   8.930  0.0299  0.3341  0.3909
   65POPC   GL1 1204   6.945   2.810   8.495  0.0725 -0.1998  0.2164
   65POPC   GL2 1205   6.602   2.966   8.381 -0.3625 -0.0144  0.1742
   65POPC   C1A 1206   6.998   2.750   8.045  0.0751 -0.0855  0.1563
   65POPC   D2A 1207   6.682   2.841   7.736  0.1692  0.2897 -0.2562
   65POPC   C3A 1208   6.336   3.091   7.825 -0.3167 -0.0101  0.0668
   65POPC   C4A 1209   5.980   3.300   7.916  0.0687 -0.2585  0.1688
   65POPC   C1B 1210   6.774   3.250   8.070  0.0112 -0.1472  0.0420
   65POPC   C2B 1211   6.760   3.364   7.600 -0.0610 -0.1284  0.4217
   65POPC   C3B 1212   7.218   3.595   7.540  0.1371 -0.0855 -0.1970
   65POPC   C4B 1213   7.563   3.781   7.293  0.0570 -0.2374  0.1343
   66POPC   NC3 1214   7.077   7.497   8.735  0.2723 -0.1453 -0.1770
   66POPC   PO4 1215   7.132   7.989   8.554 -0.1479 -0.4654  0.0844
   66POPC   GL1 1216   7.152   7.904   8.234 -0.0008  0.0700  0.1155
   66POPC   GL2 1217   6.819   7.982   8.076 -0.0681  0.1948  0.4003
   66POPC   C1A 1218   7.389   7.686   7.853  0.3273  0.3250  0.0776
   66POPC   D2A 1219   7.685   7.813   7.492 -0.0620 -0.4887 -0.0534
   66POPC   C3A 1220   8.110   7.886   7.547  0.0537  0.1953  0.1528
   66POPC   C4A 1221   8.519   7.646   7.555  0.3626  0.2604 -0.0303
   66POPC   C1B 1222   6.995   7.928   7.685 -0.0145  0.1487  0.2146
   66POPC   C2B 1223   7.174   7.816   7.343  0.1251  0.0177 -0.0731
   66POPC   C3B 1224   7.462   7.876   6.981 -0.0953 -0.2305  0.1840
   66POPC   C4B 1225   7.487   7.689   6.530  0.0238  0.2688 -0.2404
   67POPC   NC3 1226   4.421   6.854   8.863  0.0798  0.3168  0.0142
   67POPC   PO4 1227   4.082   7.040   9.094  0.1577 -0.1544  0.1495
   67POPC   GL1 1228   3.972   6.766   8.660  0.1589  0.1850  0.2796
   67POPC   GL2 1229   4.142   6.975   8.349  0.0402 -0.1339 -0.0052
   67POPC   C1A 1230   4.008   6.492   8.389 -0.3041  0.0429 -0.2126
   67POPC   D2A 1231   3.818   6.412   8.012 -0.0051  0.0310  0.3938
   67POPC   C3A 1232   3.460   6.111   8.033 -0.0528  0.1573  0.0246
   67POPC   C4A 1233   3.481   5.731   8.035  0.1211 -0.0198  0.0791
   67POPC   C1B 1234   4.208   6.864   7.854 -0.2616  0.1031 -0.0355
   67POPC   C2B 1235   4.281   7.298   7.699  0.1856  0.1862 -0.0469
   67POPC   C3B 1236   4.400   7.620   7.268  0.2527  0.0369 -0.1511
   67POPC   C4B 1237   4.434   7.715   6.835 -0.1995  0.0667 -0.1182
   68POPC   NC3 1238   5.091   7.894   8.748  0.0507 -0.2553 -0.0421
   68POPC   PO4 1239   4.759   8.139   8.511 -0.1988 -0.0673 -0.0340
   68POPC   GL1 1240   4.991   7.725   8.234  0.1116  0.0933  0.0359
   68POPC   GL2 1241   4.722   7.671   8.198 -0.4488 -0.3680  0.0046
   68POPC   C1A 1242   4.833   7.407   7.734  0.2877 -0.0266 -0.1003
   68POPC   D2A 1243   4.749   7.060   7.728 -0.1405  0.3592 -0.1260
   68POPC   C3A 1244   4.437   6.828   7.436  0.0431 -0.1087  0.0273
   68POPC   C4A 1245   4.456   6.846   6.987 -0.1177  0.0794  0.0911
   68POPC   C1B 1246   4.559   7.903   7.887  0.0931  0.2250  0.1815
   68POPC   C2B 1247   4.330   8.198   7.702 -0.0907 -0.1130  0.1190
   68POPC   C3B 1248   3.934   8.506   7.605  0.0787  0.0362  0.2121
   68POPC   C4B 1249   3.482   8.566   7.587 -0.0513 -0.1222 -0.2298
   69POPC   NC3 1250   2.034   0.494   8.512 -0.1218  0.4378  0.1611
   69POPC   PO4 1251   2.100   0.249   8.165  0.1816 -0.1080 -0.3132
   69POPC   GL1 1252   1.981   0.482   7.737  0.2408  0.0583 -0.0162
   69POPC   GL2 1253   2.131   0.228   7.607  0.0125 -0.0511  0.0967
   69POPC   C1A 1254   2.036   0.651   7.297 -0.1308  0.5197 -0.1043
   69POPC   D2A 1255   2.039   0.967   6.943 -0.0663  0.1447  0.0937
   69POPC   C3A 1256   2.042   0.884   6.532 -0.4287  0.0316 -0.0521
   69POPC   C4A 1257   2.397   0.896   6.256  0.3803 -0.1547 -0.1556
   69POPC   C1B 1258   2.433   0.362   7.383 -0.1768 -0.0753  0.4444
   69POPC   C2B 1259   2.881   0.311   7.136 -0.3416 -0.1723  0.2780
   69POPC   C3B 1260   3.093   0.491   6.731 -0.2671 -0.0423  0.4468
   69POPC   C4B 1261   3.463   0.429   6.641  0.3797 -0.0532 -0.2387
   70POPC   NC3 1262   9.369   8.017   9.015  0.3178 -0.1407  0.0667
   70POPC   PO4 1263   9.120   7.941   8.609  0.1005  0.0906 -0.2542
   70POPC   GL1 1264   9.412   7.949   8.197 -0.3708 -0.0464  0.1754
   70POPC   GL2 1265   9.363   7.617   8.105 -0.1071  0.0654  0.1217
   70POPC   C1A 1266   9.339   8.046   7.745  0.3792  0.0227  0.0516
   70POPC   D2A 1267   9.545   7.871   7.371  0.0717  0.0438  0.0385
   70POPC   C3A 1268   9.789   8.079   7.084  0.1352 -0.0011 -0.2572
   70POPC   C4A 1269  10.120   8.275   6.954  0.2693  0.1007  0.0297
   70POPC   C1B 1270   9.465   7.450   7.687  0.0149  0.1666 -0.0354
   70POPC   C2B 1271   9.349   7.266   7.323 -0.3974 -0.0276  0.0820
   70POPC   C3B 1272   9.247   7.509   6.987 -0.1820 -0.0711 -0.2123
   70POPC   C4B 1273   9.280   7.908   6.925  0.1397  0.3094  0.1161
   71POPC   NC3 1274   2.554   0.408   8.467  0.3781  0.2842  0.2492
   71POPC   PO4 1275   2.422   0.821   8.570 -0.1264  0.4100  0.1921
   71POPC   GL1 1276   2.342   0.780   8.111  0.1571 -0.0868 -0.1302
   71POPC   GL2 1277   2.623   0.749   8.131 -0.3418 -0.1125  0.1187
   71POPC   C1A 1278   2.348   0.759   7.682 -0.1245 -0.1569  0.1099
   71POPC   D2A 1279   2.485   1.064   7.360 -0.1260  0.1626 -0.0152
   71POPC   C3A 1280   2.821   1.310   7.241  0.2850 -0.1946  0.0159
   71POPC   C4A 1281   2.948   1.712   7.064 -0.1780 -0.1983  0.2130
   71POPC   C1B 1282   2.810   0.945   7.779  0.0943 -0.0513  0.0263
   71POPC   C2B 1283   2.977   0.878   7.396  0.1136  0.0350 -0.5290
   71POPC   C3B 1284   2.987   0.890   6.994 -0.0534 -0.1490 -0.0093
   71POPC   C4B 1285   2.864   0.927   6.488 -0.1155 -0.1454  0.0264
   72POPC   NC3 1286   1.284   3.810   8.421 -0.4052 -0.0061 -0.4386
   72POPC   PO4 1287   1.094   4.201   8.322  0.1669 -0.0275 -0.1161
   72POPC   GL1 1288   1.052   4.248   7.757  0.2333 -0.3001  0.0655
   72POPC   GL2 1289   0.934   4.626   7.622  0.1970 -0.1091 -0.1574
   72POPC   C1A 1290   1.210   4.241   7.353  0.0978 -0.1528 -0.1626
   72POPC   D2A 1291   1.154   4.200   6.882 -0.1040  0.3390  0.2114
   72POPC   C3A 1292   0.916   4.587   6.685  0.0069  0.1480  0.0726
   72POPC   C4A 1293   0.939   5.024   6.690 -0.2416 -0.4944  0.0224
   72POPC   C1B 1294   0.926   4.627   7.194  0.1607 -0.0076  0.1586
   72POPC   C2B 1295   1.348   4.607   6.980  0.1119  0.2091  0.0388
   72POPC   C3B 1296   1.685   4.440   6.755 -0.2479  0.0366  0.0486
   72POPC   C4B 1297   1.654   4.223   6.427 -0.0814 -0.0509  0.2973
   73POPC   NC3 1298   9.364   0.474   8.347  0.1767  0.0127  0.0202
   73POPC   PO4 1299   9.752   0.559   8.603 -0.1582  0.1395 -0.3300
   73POPC   GL1 1300   9.876   0.379   8.103 -0.2926  0.1007  0.1482
   73POPC   GL2 1301  10.169   0.397   7.998 -0.1997  0.1021 -0.0686
   73POPC   C1A 1302   9.901   0.206   7.634  0.0506  0.0376  0.1480
   73POPC   D2A 1303   9.937  -0.038   7.152 -0.2313 -0.1280 -0.1200
   73POPC   C3A 1304   9.618  -0.316   7.165  0.0828  0.0309  0.1633
   73POPC   C4A 1305   9.751  -0.764   7.338 -0.0230  0.0438 -0.2460
   73POPC   C1B 1306  10.282   0.707   7.648  0.0157 -0.0526  0.0513
   73POPC   C2B 1307  10.596   0.775   7.260  0.1061 -0.2431  0.2001
   73POPC   C3B 1308  10.781   0.817   6.902 -0.0521 -0.0421  0.1710
   73POPC   C4B 1309  11.167   0.736   6.777  0.0827  0.0131  0.2171
   74POPC   NC3 1310   0.509   7.740   8.623 -0.0849 -0.4865 -0.0494
   74POPC   PO4 1311   0.288   8.084   8.482  0.1796 -0.0873  0.0266
   74POPC   GL1 1312   0.276   7.732   8.133 -0.0703  0.0642 -0.0002
   74POPC   GL2 1313  -0.042   7.566   8.225 -0.0251  0.2236  0.2189
   74POPC   C1A 1314   0.147   7.476   7.723  0.1248  0.0448 -0.0942
   74POPC   D2A 1315   0.222   7.232   7.317 -0.1072 -0.2081  0.2251
   74POPC   C3A 1316  -0.151   7.473   7.074 -0.1239  0.1346  0.0868
   74POPC   C4A 1317  -0.047   7.637   6.641 -0.0537 -0.3233 -0.2673
   74POPC   C1B 1318  -0.156   7.872   7.818 -0.0533  0.4296 -0.2083
   74POPC   C2B 1319   0.145   7.985   7.523 -0.2439 -0.0060  0.1197
   74POPC   C3B 1320   0.313   7.818   7.099  0.1016  0.0714 -0.3781
   74POPC   C4B 1321   0.682   8.054   6.903 -0.0481  0.1130 -0.1517
   75POPC   NC3 1322   4.136   5.871   9.034 -0.2309 -0.1173  0.1777
   75POPC   PO4 1323   4.495   5.986   8.839  0.1531  0.1695 -0.0325
   75POPC   GL1 1324   4.689   5.904   8.476 -0.1613 -0.0370 -0.0717
   75POPC   GL2 1325   4.559   5.741   8.194  0.4297  0.0613 -0.1226
   75POPC   C1A 1326   5.032   5.817   8.181  0.0825  0.0910  0.2050
   75POPC   D2A 1327   5.344   5.734   7.898  0.0227 -0.1671  0.1238
   75POPC   C3A 1328   5.287   5.465   7.510 -0.0895  0.0925  0.0864
   75POPC   C4A 1329   5.283   5.303   7.082 -0.2917 -0.2419 -0.1179
   75POPC   C1B 1330   4.403   5.813   7.871  0.0580 -0.2114 -0.0196
   75POPC   C2B 1331   4.411   5.922   7.467 -0.0117 -0.0434 -0.0857
   75POPC   C3B 1332   4.202   5.942   7.132 -0.4217  0.0486 -0.0100
   75POPC   C4B 1333   3.914   6.195   6.973  0.0623  0.0791 -0.1907
   76POPC   NC3 1334   9.774   9.241   8.878  0.2620  0.3573 -0.1838
   76POPC   PO4 1335   9.563   8.875   8.643 -0.1681 -0.3027 -0.0769
   76POPC   GL1 1336   9.476   8.706   8.294  0.3498 -0.1517  0.1095
   76POPC   GL2 1337   9.199   8.773   8.059  0.0237 -0.0536  0.0100
   76POPC   C1A 1338   9.651   8.381   8.001  0.1110 -0.1126  0.0706
   76POPC   D2A 1339  10.049   8.258   7.974  0.4397  0.1354 -0.2444
   76POPC   C3A 1340  10.355   8.437   7.631  0.4257  0.0098 -0.1048
   76POPC   C4A 1341  10.532   8.445   7.145 -0.0739  0.0572 -0.0989
   76POPC   C1B 1342   9.321   8.554   7.647  0.1059  0.4506  0.0535
   76POPC   C2B 1343   9.437   8.361   7.295  0.1866 -0.0447  0.0291
   76POPC   C3B 1344   9.350   8.575   6.854 -0.0753  0.4684 -0.0793
   76POPC   C4B 1345   9.194   8.907   6.594 -0.1243 -0.1035 -0.2038
   77POPC   NC3 1346   6.749   1.262   9.187 -0.4421 -0.1781 -0.2399
   77POPC   PO4 1347   6.649   1.161   8.758  0.2105  0.1596 -0.1247
   77POPC   GL1 1348   6.685   1.061   8.324 -0.0861 -0.3606  0.2343
   77POPC   GL2 1349   6.481   1.191   8.146 -0.2726 -0.3960  0.2189
   77POPC   C1A 1350   6.927   1.117   7.855 -0.0468 -0.3249  0.1953
   77POPC   D2A 1351   7.292   0.960   7.495  0.0202  0.1230 -0.2029
   77POPC   C3A 1352   7.317   0.614   7.396  0.0332  0.0327  0.2252
   77POPC   C4A 1353   7.088   0.308   7.293  0.0303  0.1544  0.0624
   77POPC   C1B 1354   6.415   1.104   7.624  0.1376 -0.1944 -0.0561
   77POPC   C2B 1355   6.393   1.001   7.173 -0.1351 -0.0054  0.0349
   77POPC   C3B 1356   6.441   1.355   6.877 -0.3190  0.3259  0.0700
   77POPC   C4B 1357   6.420   1.758   6.953  0.2899  0.0372 -0.0332
   78POPC   NC3 1358   6.745   6.789   8.690  0.1884 -0.2064 -0.0587
   78POPC   PO4 1359   7.088   6.999   8.803 -0.1342  0.2810  0.1335
   78POPC   GL1 1360   7.008   7.124   8.403 -0.2622 -0.2230  0.0174
   78POPC   GL2 1361   7.272   7.366   8.280  0.1319  0.1598  0.2101
   78POPC   C1A 1362   6.889   6.973   8.015  0.3828  0.1351 -0.3465
   78POPC   D2A 1363   6.954   6.964   7.595 -0.0822 -0.0591 -0.0606
   78POPC   C3A 1364   6.826   6.686   7.280 -0.0710  0.1395 -0.0920
   78POPC   C4A 1365   6.947   6.399   6.919  0.1296 -0.2399  0.2663
   78POPC   C1B 1366   6.987   7.445   7.921  0.1404  0.2123  0.1309
   78POPC   C2B 1367   6.826   7.469   7.543  0.2873  0.0485 -0.2133
   78POPC   C3B 1368   6.680   7.364   7.107  0.0190  0.0590 -0.2527
   78POPC   C4B 1369   6.437   7.657   6.774  0.0702  0.0712 -0.1073
   79POPC   NC3 1370   0.213   2.721   8.496  0.1609 -0.3117  0.3066
   79POPC   PO4 1371   0.388   2.833   8.086  0.4979 -0.0079 -0.1848
   79POPC   GL1 1372   0.554   2.824   7.726  0.0853  0.2600 -0.2084
   79POPC   GL2 1373   0.374   2.930   7.491 -0.2355 -0.3118 -0.1220
   79POPC   C1A 1374   0.798   2.593   7.408 -0.2390 -0.2673 -0.0980
   79POPC   D2A 1375   0.812   2.692   6.838  0.0673 -0.0868 -0.1208
   79POPC   C3A 1376   1.181   2.516   6.544  0.3782  0.1021 -0.0847
   79POPC   C4A 1377   1.462   2.500   6.213  0.2983 -0.2192 -0.1129
   79POPC   C1B 1378   0.410   2.889   7.050  0.0654 -0.0940 -0.3830
   79POPC   C2B 1379   0.167   3.066   6.648 -0.0832  0.1128 -0.1556
   79POPC   C3B 1380  -0.146   3.308   6.459  0.1150  0.0899  0.1981
   79POPC   C4B 1381  -0.282   3.336   5.974  0.2685 -0.0102  0.1874
   80POPC   NC3 1382   0.747   3.692   8.516  0.1443 -0.0851 -0.1139
   80POPC   PO4 1383   0.955   3.387   8.385 -0.2719 -0.3197 -0.0250
   80POPC   GL1 1384   1.199   3.263   8.033 -0.1105 -0.0897  0.1088
   80POPC   GL2 1385   0.961   3.173   7.854 -0.2645  0.3767 -0.0194
   80POPC   C1A 1386   1.404   3.275   7.615  0.1222  0.1645  0.0587
   80POPC   D2A 1387   1.574   3.387   7.232  0.0788  0.0197 -0.1831
   80POPC   C3A 1388   1.927   3.204   7.090 -0.2071 -0.3548  0.1291
   80POPC   C4A 1389   2.082   2.791   7.138 -0.3245  0.2103 -0.0667
   80POPC   C1B 1390   1.002   3.504   7.576 -0.0559 -0.3108 -0.0479
   80POPC   C2B 1391   1.031   3.751   7.242  0.1920 -0.0319  0.2384
   80POPC   C3B 1392   1.122   3.663   6.879 -0.1696 -0.1194  0.2784
   80POPC   C4B 1393   1.305   3.825   6.413 -0.0584  0.0852  0.0520
   81POPC   NC3 1394   6.056   2.800   9.264 -0.4173  0.1337  0.1820
   81POPC   PO4 1395   5.789   3.131   9.349  0.0812  0.0430 -0.1261
   81POPC   GL1 1396   5.704   3.025   8.996 -0.1773 -0.3662 -0.1708
   81POPC   GL2 1397   5.752   2.717   8.847 -0.1457  0.0933  0.1232
   81POPC   C1A 1398   5.365   2.967   8.704 -0.3769 -0.0838  0.1401
   81POPC   D2A 1399   5.264   2.931   8.328  0.0153 -0.0017 -0.0190
   81POPC   C3A 1400   5.584   2.989   8.078 -0.0663 -0.1262 -0.0623
   81POPC   C4A 1401   5.676   3.067   7.553  0.0731  0.0294  0.1785
   81POPC   C1B 1402   5.695   2.516   8.419 -0.1854  0.2008  0.1874
   81POPC   C2B 1403   5.799   2.283   8.070 -0.0010  0.0292 -0.0714
   81POPC   C3B 1404   5.922   2.128   7.683 -0.2822  0.0379  0.0597
   81POPC   C4B 1405   6.140   1.838   7.520 -0.1830 -0.5506  0.1737
   82POPC   NC3 1406   8.045   4.203   8.628 -0.0061 -0.3131  0.1844
   82POPC   PO4 1407   8.182   3.889   8.237  0.0657 -0.0441 -0.1975
   82POPC   GL1 1408   8.036   3.992   7.846 -0.2513  0.0013 -0.0350
   82POPC   GL2 1409   7.751   3.845   7.809  0.1707  0.3202 -0.0691
   82POPC   C1A 1410   8.085   3.958   7.455  0.1931 -0.0163 -0.1149
   82POPC   D2A 1411   8.293   4.085   7.093 -0.0414  0.2162 -0.1161
   82POPC   C3A 1412   8.218   3.810   6.714  0.0656 -0.1925 -0.2101
   82POPC   C4A 1413   8.067   3.792   6.277  0.1247 -0.0491 -0.0328
   82POPC   C1B 1414   7.638   3.393   7.699  0.0016 -0.2241  0.3542
   82POPC   C2B 1415   7.660   3.212   7.398  0.0041  0.0029 -0.1755
   82POPC   C3B 1416   7.460   3.392   7.031  0.3278  0.1271  0.0102
   82POPC   C4B 1417   7.162   3.664   7.004  0.1913 -0.0089  0.0465
   83POPC   NC3 1418   7.435   8.634   8.605  0.0127  0.0081 -0.1077
   83POPC   PO4 1419   7.315   9.056   8.427  0.1030  0.0548 -0.0078
   83POPC   GL1 1420   6.965   8.860   8.295  0.1881  0.1294 -0.2735
   83POPC   GL2 1421   7.073   8.487   8.233 -0.4215  0.0997 -0.1900
   83POPC   C1A 1422   6.620   8.630   8.005 -0.2373 -0.0042  0.1977
   83POPC   D2A 1423   6.383   8.577   7.657 -0.0913  0.0330  0.1504
   83POPC   C3A 1424   6.392   8.686   7.244 -0.1635  0.0588  0.1166
   83POPC   C4A 1425   6.339   8.694   6.900 -0.0675 -0.2301 -0.0067
   83POPC   C1B 1426   7.095   8.582   7.801  0.4598 -0.2307  0.1906
   83POPC   C2B 1427   6.799   8.383   7.451  0.0223  0.0099 -0.1286
   83POPC   C3B 1428   6.741   8.305   7.004  0.2387 -0.1332  0.1149
   83POPC   C4B 1429   6.747   8.577   6.680 -0.1760 -0.2163 -0.0526
   84POPC   NC3 1430   5.069   5.197   9.892 -0.0918  0.0756 -0.1029
   84POPC   PO4 1431   5.178   5.325   9.474  0.0148  0.1250 -0.5583
   84POPC   GL1 1432   5.180   5.453   9.017  0.1376 -0.1566 -0.4508
   84POPC   GL2 1433   5.345   5.297   8.774 -0.1837 -0.1076 -0.3574
   84POPC   C1A 1434   4.856   5.391   8.693 -0.0616 -0.1963  0.1289
   84POPC   D2A 1435   4.726   5.344   8.379  0.1534  0.0978  0.2332
   84POPC   C3A 1436   4.626   4.961   8.336  0.0836 -0.1017  0.1761
   84POPC   C4A 1437   4.874   4.651   8.057  0.0977 -0.0250  0.2516
   84POPC   C1B 1438   5.622   5.056   8.502 -0.1061  0.0839  0.3844
   84POPC   C2B 1439   5.868   4.889   8.318 -0.1048 -0.0004  0.0516
   84POPC   C3B 1440   6.188   4.681   8.385 -0.3804  0.1122  0.1642
   84POPC   C4B 1441   6.486   4.366   8.559  0.0237  0.0578 -0.0434
   85POPC   NC3 1442   2.060   5.286   9.368  0.2080  0.0139  0.1255
   85POPC   PO4 1443   2.473   5.386   9.143 -0.2588  0.1206  0.2452
   85POPC   GL1 1444   2.836   5.481   8.808  0.1652 -0.0255 -0.3084
   85POPC   GL2 1445   3.065   5.695   8.804  0.1623  0.1271 -0.0109
   85POPC   C1A 1446   2.889   5.401   8.404  0.2185  0.0509 -0.0079
   85POPC   D2A 1447   2.810   5.377   8.047 -0.1503 -0.3202  0.0207
   85POPC   C3A 1448   3.091   5.426   7.782 -0.3545  0.1555 -0.1167
   85POPC   C4A 1449   3.532   5.434   7.566  0.0641 -0.1443  0.2726
   85POPC   C1B 1450   3.118   5.810   8.393 -0.2818  0.0037  0.1739
   85POPC   C2B 1451   3.006   5.851   8.039 -0.1606 -0.2038 -0.1970
   85POPC   C3B 1452   3.098   6.108   7.688  0.1950 -0.0865  0.1431
   85POPC   C4B 1453   3.207   6.491   7.296 -0.1311 -0.3416 -0.1500
   86POPC   NC3 1454   2.100   9.717   8.341 -0.1690 -0.0338  0.2699
   86POPC   PO4 1455   2.572   9.812   8.361 -0.3418  0.1982 -0.1413
   86POPC   GL1 1456   2.465   9.814   8.010 -0.0140 -0.1532  0.1638
   86POPC   GL2 1457   2.547  10.175   7.943 -0.0497  0.2107  0.1057
   86POPC   C1A 1458   2.515   9.743   7.627 -0.1565 -0.1469  0.0077
   86POPC   D2A 1459   2.573   9.829   7.280  0.0312  0.0845  0.0579
   86POPC   C3A 1460   2.556   9.553   6.871  0.2968 -0.0625 -0.1589
   86POPC   C4A 1461   2.781   9.538   6.493  0.0975  0.3209  0.1389
   86POPC   C1B 1462   2.945  10.286   7.705 -0.0743 -0.2079  0.1608
   86POPC   C2B 1463   3.291  10.356   7.574 -0.0085 -0.0473  0.2110
   86POPC   C3B 1464   3.405  10.541   7.175 -0.1266  0.0285  0.0411
   86POPC   C4B 1465   3.669  10.740   6.983  0.1893 -0.0008  0.1869
   87POPC   NC3 1466   3.737   7.055   9.460  0.0223 -0.1915 -0.1567
   87POPC   PO4 1467   3.801   6.657   9.203 -0.1184  0.0914  0.2863
   87POPC   GL1 1468   3.559   6.419   8.828  0.0219 -0.1767  0.0166
   87POPC   GL2 1469   3.440   6.614   8.500 -0.1005  0.0988  0.1408
   87POPC   C1A 1470   3.670   6.113   8.539  0.0102  0.1043 -0.0595
   87POPC   D2A 1471   4.061   6.014   8.230  0.1975 -0.0859  0.1923
   87POPC   C3A 1472   3.879   5.958   7.696 -0.0435 -0.1908 -0.1746
   87POPC   C4A 1473   3.839   5.720   7.338 -0.0599 -0.0307  0.0258
   87POPC   C1B 1474   3.703   6.886   8.182 -0.0145  0.1032 -0.4061
   87POPC   C2B 1475   3.744   7.076   7.803 -0.2179  0.1300 -0.1925
   87POPC   C3B 1476   3.423   7.070   7.440 -0.1722 -0.0209  0.2049
   87POPC   C4B 1477   3.268   7.348   7.181 -0.3619  0.2094 -0.1182
   88POPC   NC3 1478   1.678   4.732   8.547 -0.1429  0.1111 -0.1223
   88POPC   PO4 1479   1.714   4.229   8.434 -0.0334  0.1889  0.0003
   88POPC   GL1 1480   1.672   4.060   8.033 -0.2167  0.0596  0.1363
   88POPC   GL2 1481   1.502   3.740   7.941 -0.2491 -0.0106  0.3366
   88POPC   C1A 1482   1.841   4.073   7.620 -0.2156 -0.0428  0.0401
   88POPC   D2A 1483   2.276   3.982   7.399  0.1117 -0.2087 -0.1818
   88POPC   C3A 1484   2.478   3.526   7.202 -0.2730  0.0079  0.3143
   88POPC   C4A 1485   2.494   3.069   7.184 -0.1090 -0.0288 -0.1587
   88POPC   C1B 1486   1.394   3.792   7.556 -0.0090  0.0338 -0.1298
   88POPC   C2B 1487   1.513   3.931   7.173 -0.0983 -0.0117  0.2548
   88POPC   C3B 1488   1.587   3.933   6.808  0.1862  0.0011  0.1128
   88POPC   C4B 1489   1.704   3.553   6.653 -0.2675  0.1149  0.1420
   89POPC   NC3 1490   0.129   1.084   8.658  0.0579  0.0024 -0.0065
   89POPC   PO4 1491   0.350   1.472   8.578 -0.0392  0.1184  0.0715
   89POPC   GL1 1492   0.369   1.313   8.236 -0.2897  0.6416  0.1868
   89POPC   GL2 1493   0.365   1.444   8.046  0.1912 -0.3415  0.0308
   89POPC   C1A 1494   0.625   0.966   8.009 -0.1960 -0.2470  0.0459
   89POPC   D2A 1495   0.957   0.600   7.805 -0.1522  0.0037 -0.0970
   89POPC   C3A 1496   0.682   0.328   7.649 -0.1903 -0.2902  0.0155
   89POPC   C4A 1497   0.455   0.330   7.255  0.1155  0.0633 -0.0530
   89POPC   C1B 1498   0.643   1.633   7.826  0.0023  0.2449 -0.2163
   89POPC   C2B 1499   0.632   1.774   7.500  0.1810  0.1904 -0.1340
   89POPC   C3B 1500   0.811   2.044   7.212 -0.0129 -0.1326 -0.0908
   89POPC   C4B 1501   0.945   2.205   6.842 -0.0971 -0.1811 -0.2910
   90POPC   NC3 1502   7.973   1.327   8.070 -0.4114  0.1409  0.0303
   90POPC   PO4 1503   8.318   1.565   8.312  0.0821 -0.1439  0.2331
   90POPC   GL1 1504   8.416   1.656   7.888 -0.1108  0.2527  0.1505
   90POPC   GL2 1505   8.055   1.671   7.728  0.0006  0.2102 -0.2590
   90POPC   C1A 1506   8.581   1.420   7.563 -0.0385  0.1742 -0.2862
   90POPC   D2A 1507   8.970   1.251   7.535  0.1240  0.0308  0.0872
   90POPC   C3A 1508   8.923   0.885   7.353  0.0255  0.0344 -0.4519
   90POPC   C4A 1509   9.322   0.641   7.392  0.0398  0.2852 -0.3126
   90POPC   C1B 1510   8.035   1.635   7.400 -0.1132  0.1649 -0.0595
   90POPC   C2B 1511   8.355   1.638   7.007  0.4170  0.1047  0.1916
   90POPC   C3B 1512   8.418   1.451   6.717  0.2521 -0.2254  0.1016
   90POPC   C4B 1513   8.784   1.244   6.580  0.0511 -0.1871  0.0029
   91POPC   NC3 1514   8.963   6.141   8.616  0.1404 -0.3580 -0.1468
   91POPC   PO4 1515   8.975   6.547   8.692  0.0948  0.1241 -0.2436
   91POPC   GL1 1516   8.939   6.647   8.366 -0.0119 -0.1671  0.1716
   91POPC   GL2 1517   8.641   6.883   8.295  0.2402  0.1248  0.0977
   91POPC   C1A 1518   9.206   6.528   7.931  0.1250  0.0113 -0.3498
   91POPC   D2A 1519   9.537   6.264   7.755 -0.2084  0.0708  0.1833
   91POPC   C3A 1520   9.640   6.252   7.286  0.2067  0.0887 -0.2456
   91POPC   C4A 1521   9.956   6.348   7.028  0.1780 -0.1778  0.1601
   91POPC   C1B 1522   8.516   6.648   7.964 -0.1703 -0.1577 -0.3948
   91POPC   C2B 1523   8.401   6.565   7.500  0.0115 -0.0209  0.3829
   91POPC   C3B 1524   8.506   6.484   7.077  0.0139 -0.0138 -0.0900
   91POPC   C4B 1525   8.798   6.722   6.711 -0.1086 -0.3120 -0.0223
   92POPC   NC3 1526   5.011   6.090   8.968 -0.2915 -0.2440  0.1575
   92POPC   PO4 1527   5.476   6.112   8.985 -0.1465 -0.1156  0.2052
   92POPC   GL1 1528   5.473   6.003   8.695  0.0687  0.0067  0.2179
   92POPC   GL2 1529   5.266   5.763   8.626 -0.1206  0.1705  0.0310
   92POPC   C1A 1530   5.543   5.982   8.295 -0.2790  0.2129 -0.0299
   92POPC   D2A 1531   5.840   5.886   7.953 -0.1575 -0.0612  0.0626
   92POPC   C3A 1532   5.793   5.591   7.631  0.1462  0.2724 -0.0996
   92POPC   C4A 1533   5.856   5.591   7.228 -0.2161 -0.0660 -0.0145
   92POPC   C1B 1534   5.332   5.451   8.333  0.0355  0.2319  0.2420
   92POPC   C2B 1535   5.088   5.278   8.002 -0.2314 -0.2856  0.0544
   92POPC   C3B 1536   5.094   5.024   7.726  0.0595  0.1229 -0.3230
   92POPC   C4B 1537   5.205   4.611   7.737  0.0880  0.0703 -0.1427
   93POPC   NC3 1538   7.573   0.016   8.265 -0.1663 -0.2461  0.2994
   93POPC   PO4 1539   7.472   0.469   8.061  0.3904  0.0079  0.0030
   93POPC   GL1 1540   7.776   0.474   7.698  0.2654  0.1586 -0.2537
   93POPC   GL2 1541   8.102   0.358   7.551  0.1767  0.1791  0.0293
   93POPC   C1A 1542   7.807   0.752   7.266 -0.2801 -0.1385 -0.4124
   93POPC   D2A 1543   7.703   0.778   6.847  0.0560 -0.2186  0.2457
   93POPC   C3A 1544   7.597   0.698   6.402  0.3016 -0.1411 -0.0337
   93POPC   C4A 1545   7.234   0.472   6.230 -0.3992  0.5563 -0.0110
   93POPC   C1B 1546   8.220   0.255   7.084  0.0582 -0.0202  0.0615
   93POPC   C2B 1547   8.258  -0.207   6.892  0.0076 -0.2632 -0.2824
   93POPC   C3B 1548   8.406  -0.570   6.840  0.2334  0.1014  0.0992
   93POPC   C4B 1549   8.302  -0.799   6.533  0.1711 -0.0957  0.0376
   94POPC   NC3 1550   2.882   9.014   8.484  0.1034  0.1222 -0.2136
   94POPC   PO4 1551   2.548   8.817   8.361  0.1355 -0.1417 -0.4599
   94POPC   GL1 1552   2.634   8.791   7.970 -0.3000  0.2701  0.1857
   94POPC   GL2 1553   2.885   8.990   7.962  0.2037  0.1790 -0.1837
   94POPC   C1A 1554   2.509   8.536   7.557 -0.2495  0.0324 -0.2041
   94POPC   D2A 1555   2.116   8.446   7.326  0.0433  0.4011  0.1750
   94POPC   C3A 1556   2.369   8.520   6.979  0.0858  0.0818  0.0326
   94POPC   C4A 1557   2.392   8.530   6.530 -0.0136 -0.0755  0.0238
   94POPC   C1B 1558   3.000   8.619   7.656 -0.0692 -0.0733  0.0612
   94POPC   C2B 1559   3.023   8.457   7.237  0.0389  0.1028  0.2253
   94POPC   C3B 1560   3.257   8.523   6.849 -0.2767  0.1861  0.0564
   94POPC   C4B 1561   3.393   8.397   6.393 -0.2700  0.0327  0.0811
   95POPC   NC3 1562   6.156   4.304   9.746 -0.0530 -0.0307  0.1442
   95POPC   PO4 1563   6.499   4.153   9.359  0.0796 -0.2035 -0.2527
   95POPC   GL1 1564   6.199   3.865   9.168 -0.1712 -0.5246  0.1052
   95POPC   GL2 1565   5.988   3.647   9.282 -0.1482  0.0155  0.1191
   95POPC   C1A 1566   6.017   3.575   8.806  0.1596  0.2515  0.3739
   95POPC   D2A 1567   6.292   3.363   8.553  0.2380 -0.0594  0.2990
   95POPC   C3A 1568   6.335   3.528   8.139  0.1987 -0.0132  0.1384
   95POPC   C4A 1569   6.305   3.545   7.628 -0.2445  0.1628 -0.1424
   95POPC   C1B 1570   5.584   3.613   9.006  0.1539 -0.2740  0.3584
   95POPC   C2B 1571   5.170   3.390   8.880 -0.2030  0.1174 -0.2163
   95POPC   C3B 1572   4.859   3.045   8.876  0.1058 -0.0557  0.2400
   95POPC   C4B 1573   4.604   2.945   9.091 -0.2324  0.4493  0.3442
   96POPC   NC3 1574   3.272   9.758   8.869 -0.2660  0.1789 -0.3145
   96POPC   PO4 1575   3.237  10.210   8.751  0.0458  0.0132 -0.0322
   96POPC   GL1 1576   3.432  10.341   8.425  0.0702 -0.2596  0.0922
   96POPC   GL2 1577   3.763  10.337   8.373  0.1354 -0.0842  0.1251
   96POPC   C1A 1578   3.247  10.532   8.019 -0.1302 -0.3154 -0.1697
   96POPC   D2A 1579   3.323  10.824   7.811 -0.0977  0.1158 -0.2231
   96POPC   C3A 1580   3.221  11.078   8.199  0.1580  0.1099 -0.0292
   96POPC   C4A 1581   2.835  11.103   8.204  0.1531  0.2145 -0.1795
   96POPC   C1B 1582   4.058  10.370   8.122 -0.2794  0.0227 -0.3546
   96POPC   C2B 1583   4.143  10.350   7.661 -0.3275 -0.0202  0.3827
   96POPC   C3B 1584   3.849  10.388   7.274 -0.0751  0.0632 -0.2865
   96POPC   C4B 1585   4.039  10.381   6.831  0.0232  0.0563  0.2829
   97POPC   NC3 1586   9.800   6.888   8.757 -0.0143 -0.4388 -0.0258
   97POPC   PO4 1587  10.094   6.521   9.005  0.0482 -0.5836  0.1071
   97POPC   GL1 1588  10.231   6.522   8.675  0.0060  0.0396  0.0520
   97POPC   GL2 1589  10.487   6.739   8.419 -0.0179 -0.2880 -0.3364
   97POPC   C1A 1590   9.966   6.498   8.260  0.0505 -0.0608  0.3712
   97POPC   D2A 1591   9.920   6.594   7.933  0.2720 -0.6538  0.2201
   97POPC   C3A 1592  10.095   6.428   7.486  0.1156 -0.0104 -0.3502
   97POPC   C4A 1593  10.541   6.338   7.221 -0.4035 -0.0489  0.5679
   97POPC   C1B 1594  10.419   6.605   8.020  0.3313 -0.2205 -0.1715
   97POPC   C2B 1595  10.651   6.487   7.683  0.2191  0.0789 -0.0973
   97POPC   C3B 1596  11.128   6.562   7.440  0.0785  0.1871 -0.6371
   97POPC   C4B 1597  11.537   6.465   7.428 -0.1068 -0.1957 -0.1999
   98POPC   NC3 1598   7.567   0.930   8.507 -0.1374  0.2616 -0.0494
   98POPC   PO4 1599   7.950   0.791   8.033  0.0541  0.1344  0.0707
   98POPC   GL1 1600   8.082   0.935   7.679  0.0025 -0.3092  0.1993
   98POPC   GL2 1601   8.401   0.750   7.539 -0.0206  0.4951  0.2322
   98POPC   C1A 1602   8.227   1.190   7.290 -0.1001 -0.2273 -0.1185
   98POPC   D2A 1603   8.582   1.140   7.084  0.1436 -0.1393 -0.0433
   98POPC   C3A 1604   8.663   0.837   6.811  0.2396  0.1553 -0.1120
   98POPC   C4A 1605   8.673   0.485   7.009  0.0674 -0.2073  0.0323
   98POPC   C1B 1606   8.255   0.724   7.178 -0.1559 -0.0071  0.0448
   98POPC   C2B 1607   8.190   0.666   6.800  0.0005 -0.4104  0.3334
   98POPC   C3B 1608   8.279   0.627   6.352 -0.0889  0.4013  0.1452
   98POPC   C4B 1609   8.056   0.633   6.034 -0.1830 -0.0750 -0.2234
   99POPC   NC3 1610   2.655   7.069   8.506 -0.0577  0.2160  0.1155
   99POPC   PO4 1611   2.890   6.625   8.703 -0.1875  0.0773 -0.2463
   99POPC   GL1 1612   2.918   6.492   8.294  0.1643  0.1564  0.0980
   99POPC   GL2 1613   2.717   6.441   8.056  0.0319  0.1668  0.0170
   99POPC   C1A 1614   3.098   6.674   7.856  0.0502  0.0736  0.0108
   99POPC   D2A 1615   3.543   6.633   7.696  0.3794 -0.0355  0.0461
   99POPC   C3A 1616   3.735   6.613   7.160  0.1645  0.1019 -0.1520
   99POPC   C4A 1617   4.021   6.723   6.735 -0.1590  0.4429  0.2074
   99POPC   C1B 1618   2.657   6.382   7.634  0.1335 -0.1360 -0.2883
   99POPC   C2B 1619   2.728   6.438   7.277 -0.0549 -0.1792  0.1559
   99POPC   C3B 1620   2.852   6.654   6.900 -0.1438  0.3016  0.0691
   99POPC   C4B 1621   2.915   6.858   6.500  0.1559 -0.2012  0.2486
  100POPC   NC3 1622   8.779   7.223   8.732  0.1419 -0.3022 -0.0212
  100POPC   PO4 1623   9.134   7.035   8.648  0.2548 -0.1936 -0.1361
  100POPC   GL1 1624   9.133   7.152   8.184  0.0097 -0.0414  0.1387
  100POPC   GL2 1625   8.977   6.968   7.920 -0.0818  0.0051 -0.2542
  100POPC   C1A 1626   8.979   7.479   7.789  0.2506 -0.1560 -0.0228
  100POPC   D2A 1627   9.089   7.721   7.454  0.0095  0.4710 -0.1855
  100POPC   C3A 1628   8.773   7.822   7.129 -0.0740  0.1518 -0.2601
  100POPC   C4A 1629   8.462   7.677   7.064 -0.0977  0.3253 -0.1247
  100POPC   C1B 1630   8.837   6.773   7.537  0.0164  0.1773 -0.0108
  100POPC   C2B 1631   9.011   6.834   7.207 -0.1414 -0.1950  0.1166
  100POPC   C3B 1632   9.253   6.513   6.992  0.1968  0.0731  0.1075
  100POPC   C4B 1633   9.571   6.514   6.647 -0.0340 -0.1671  0.0919
  101POPC   NC3 1634   9.135   4.460   8.569  0.2566  0.2376  0.1743
  101POPC   PO4 1635   9.309   4.782   8.349 -0.1408 -0.3334 -0.1166
  101POPC   GL1 1636   9.312   4.757   7.961  0.0424  0.3028 -0.0955
  101POPC   GL2 1637   9.443   4.989   7.902 -0.1736 -0.0477 -0.0656
  101POPC   C1A 1638   9.039   4.465   7.669 -0.0103 -0.0217 -0.2481
  101POPC   D2A 1639   9.121   4.018   7.465  0.2013 -0.1143 -0.0833
  101POPC   C3A 1640   9.024   3.704   7.684  0.1094 -0.0886 -0.3925
  101POPC   C4A 1641   9.124   3.245   7.662  0.1419  0.2289  0.1853
  101POPC   C1B 1642   9.346   4.790   7.479 -0.1014  0.0483  0.0336
  101POPC   C2B 1643   9.366   4.425   7.254 -0.0091 -0.0671  0.2364
  101POPC   C3B 1644   9.233   4.116   6.997  0.0676 -0.0598  0.2300
  101POPC   C4B 1645   9.290   3.953   6.709 -0.5244 -0.0558 -0.2160
  102POPC   NC3 1646   1.814   7.768   8.703 -0.4641  0.0683  0.7798
  102POPC   PO4 1647   2.191   7.947   8.607  0.0844 -0.0989  0.1555
  102POPC   GL1 1648   1.995   7.905   8.225  0.0221 -0.1697 -0.2114
  102POPC   GL2 1649   1.828   7.650   8.072 -0.2641  0.1916 -0.0108
  102POPC   C1A 1650   2.072   8.138   7.797  0.2083  0.0782  0.1319
  102POPC   D2A 1651   1.906   8.603   7.786 -0.2846  0.0832  0.2730
  102POPC   C3A 1652   1.685   8.770   7.378  0.2060 -0.4432  0.1699
  102POPC   C4A 1653   1.541   8.862   6.981  0.2492  0.1769 -0.1205
  102POPC   C1B 1654   2.153   7.663   7.714 -0.1613  0.3740 -0.2964
  102POPC   C2B 1655   2.549   7.642   7.573 -0.0762 -0.0040 -0.0734
  102POPC   C3B 1656   2.656   7.410   7.206 -0.3620  0.2466  0.2317
  102POPC   C4B 1657   2.502   7.546   6.813  0.1832 -0.2467 -0.0222
  103POPC   NC3 1658   8.725   9.624   8.299 -0.2936 -0.0165 -0.0485
  103POPC   PO4 1659   9.226   9.770   8.375 -0.0042  0.3914  0.1576
  103POPC   GL1 1660   8.965  10.017   8.056  0.3258  0.1731 -0.0135
  103POPC   GL2 1661   8.636   9.869   7.878 -0.0787 -0.1628  0.1825
  103POPC   C1A 1662   9.105  10.337   7.773 -0.0272  0.1245 -0.2620
  103POPC   D2A 1663   9.330  10.814   7.826  0.2022  0.5563  0.1669
  103POPC   C3A 1664   9.414  11.023   7.369 -0.1094  0.1661 -0.1866
  103POPC   C4A 1665   9.667  10.892   7.045 -0.0907 -0.4131 -0.4683
  103POPC   C1B 1666   8.840   9.743   7.512 -0.1533  0.2202  0.1069
  103POPC   C2B 1667   8.645   9.727   7.163 -0.1622 -0.2101 -0.0186
  103POPC   C3B 1668   8.795   9.791   6.726  0.0112 -0.1384 -0.1028
  103POPC   C4B 1669   9.136   9.646   6.509  0.1071  0.1443  0.2331
  104POPC   NC3 1670   0.281   4.009   8.647  0.1980  0.0241  0.5957
  104POPC   PO4 1671   0.219   4.330   8.298 -0.0401  0.0252 -0.1925
  104POPC   GL1 1672   0.308   4.487   7.829  0.0222 -0.3126 -0.0218
  104POPC   GL2 1673   0.351   4.111   7.735  0.0006 -0.0797  0.1810
  104POPC   C1A 1674   0.415   4.928   7.480 -0.2748 -0.0122  0.0751
  104POPC   D2A 1675   0.570   4.939   6.991 -0.1629  0.3113  0.0772
  104POPC   C3A 1676   0.354   4.852   6.564 -0.0340  0.2481 -0.0959
  104POPC   C4A 1677   0.294   5.146   6.268 -0.0713  0.0237  0.3161
  104POPC   C1B 1678   0.625   4.188   7.506  0.1752 -0.2269  0.0988
  104POPC   C2B 1679   0.704   4.151   7.068 -0.1298 -0.0570  0.3474
  104POPC   C3B 1680   0.614   3.814   6.747 -0.1705 -0.2504  0.3662
  104POPC   C4B 1681   0.624   3.510   6.405  0.0341 -0.3014 -0.0713
  105POPC   NC3 1682   0.943   4.894   8.102 -0.0318  0.0869  0.1368
  105POPC   PO4 1683   1.152   4.745   8.407 -0.1285 -0.0044  0.1489
  105POPC   GL1 1684   1.407   4.556   8.127  0.1853 -0.4362  0.2928
  105POPC   GL2 1685   1.751   4.736   8.048  0.2468 -0.0378 -0.1287
  105POPC   C1A 1686   1.483   4.420   7.685 -0.2050  0.3512 -0.1914
  105POPC   D2A 1687   1.664   4.444   7.289 -0.4457  0.5446  0.0351
  105POPC   C3A 1688   1.996   4.233   7.113 -0.1898 -0.0235  0.3992
  105POPC   C4A 1689   2.523   4.384   7.008  0.0103  0.0828 -0.4021
  105POPC   C1B 1690   1.952   4.601   7.694  0.0061  0.3134  0.0303
  105POPC   C2B 1691   2.183   4.660   7.296 -0.0233 -0.1512  0.2235
  105POPC   C3B 1692   2.157   4.576   6.801  0.1967 -0.0266 -0.0964
  105POPC   C4B 1693   2.154   4.260   6.638  0.2165 -0.1367 -0.3711
  106POPC   NC3 1694   6.827   9.330   8.551 -0.0838  0.1400 -0.3008
  106POPC   PO4 1695   6.441   8.951   8.616  0.0931  0.2479  0.2140
  106POPC   GL1 1696   6.532   9.144   8.082 -0.0077 -0.1160 -0.0109
  106POPC   GL2 1697   6.460   9.554   8.054  0.0239  0.0869 -0.0909
  106POPC   C1A 1698   6.759   9.048   7.730 -0.0264  0.2114  0.1639
  106POPC   D2A 1699   6.740   8.930   7.456  0.0670  0.1358  0.0783
  106POPC   C3A 1700   6.966   8.728   7.145  0.0880  0.0704  0.2606
  106POPC   C4A 1701   7.419   8.794   7.191 -0.0923  0.2037 -0.2287
  106POPC   C1B 1702   6.277   9.580   7.632 -0.1599 -0.2037  0.0906
  106POPC   C2B 1703   6.139   9.741   7.137 -0.0686 -0.0075  0.0155
  106POPC   C3B 1704   6.110  10.077   7.021  0.0694 -0.1214  0.1469
  106POPC   C4B 1705   6.215  10.357   7.107 -0.2613  0.1654  0.0333
  107POPC   NC3 1706   3.745   9.005   8.542  0.0748  0.0098  0.0076
  107POPC   PO4 1707   3.362   9.283   8.581  0.1270 -0.2738  0.0164
  107POPC   GL1 1708   3.341   9.269   8.204  0.1138  0.1140 -0.0368
  107POPC   GL2 1709   3.693   9.405   8.186 -0.2394 -0.0822 -0.1826
  107POPC   C1A 1710   3.392   9.084   7.800 -0.1393 -0.3211  0.1900
  107POPC   D2A 1711   3.316   8.993   7.394 -0.2672  0.3038  0.0916
  107POPC   C3A 1712   2.871   9.015   7.161  0.0247 -0.0979  0.0606
  107POPC   C4A 1713   2.535   9.014   6.878 -0.0875  0.0695 -0.1014
  107POPC   C1B 1714   3.556   9.606   7.798 -0.1344  0.2392  0.3459
  107POPC   C2B 1715   3.466   9.505   7.358 -0.1501  0.0093 -0.1557
  107POPC   C3B 1716   3.153   9.397   7.007 -0.1146 -0.1263  0.0140
  107POPC   C4B 1717   3.233   9.043   6.731 -0.3329 -0.1858 -0.2190
  108POPC   NC3 1718   8.128   5.087   8.474 -0.1530 -0.0585  0.1574
  108POPC   PO4 1719   8.571   4.907   8.590 -0.1032  0.0418 -0.1814
  108POPC   GL1 1720   8.552   5.048   8.231  0.2250  0.0071  0.1231
  108POPC   GL2 1721   8.836   5.119   7.922 -0.4607 -0.3049 -0.3091
  108POPC   C1A 1722   8.379   5.139   7.743  0.2353 -0.3314 -0.0780
  108POPC   D2A 1723   8.509   5.289   7.375  0.0449  0.0056  0.5638
  108POPC   C3A 1724   8.888   5.217   7.080  0.1064  0.0427  0.1647
  108POPC   C4A 1725   8.815   5.120   6.630  0.1774  0.2151  0.0543
  108POPC   C1B 1726   8.718   4.856   7.585 -0.5421  0.1102  0.2091
  108POPC   C2B 1727   8.488   4.824   7.175  0.2084  0.0652  0.2720
  108POPC   C3B 1728   8.216   4.651   6.957 -0.1639  0.1199  0.5210
  108POPC   C4B 1729   8.206   4.312   6.683 -0.0508 -0.0157  0.3880
  109POPC   NC3 1730   8.180   7.791   8.909 -0.0390  0.0753  0.1545
  109POPC   PO4 1731   8.087   7.382   8.729 -0.2144  0.1225  0.1526
  109POPC   GL1 1732   7.888   7.198   8.379  0.3736  0.2047  0.1297
  109POPC   GL2 1733   7.781   7.380   8.009  0.0398 -0.2680 -0.3414
  109POPC   C1A 1734   7.613   6.881   8.175  0.0817  0.0866 -0.2212
  109POPC   D2A 1735   7.335   6.658   8.364  0.1388 -0.2413  0.1649
  109POPC   C3A 1736   7.108   6.374   8.249  0.0408  0.3980  0.0466
  109POPC   C4A 1737   6.683   6.507   8.022 -0.0586 -0.0865  0.0750
  109POPC   C1B 1738   8.065   7.487   7.817  0.0153  0.2135  0.3394
  109POPC   C2B 1739   8.084   7.468   7.372 -0.0167  0.0810  0.3799
  109POPC   C3B 1740   7.977   7.520   6.933 -0.4229  0.2472 -0.1853
  109POPC   C4B 1741   7.697   7.190   6.729  0.0705  0.1648 -0.1940
  110POPC   NC3 1742   5.497   6.299   9.491 -0.2681  0.1066 -0.2462
  110POPC   PO4 1743   5.297   6.522   9.244  0.0928 -0.0178 -0.2287
  110POPC   GL1 1744   5.142   6.500   8.741 -0.1459 -0.1844 -0.2313
  110POPC   GL2 1745   5.435   6.473   8.427  0.1158  0.1391  0.0335
  110POPC   C1A 1746   4.930   6.355   8.371  0.0259  0.0734 -0.1603
  110POPC   D2A 1747   4.640   6.203   8.073  0.2774  0.0691 -0.1032
  110POPC   C3A 1748   4.327   6.309   7.880  0.0932 -0.2846 -0.0333
  110POPC   C4A 1749   4.102   6.384   7.493 -0.0420  0.1187  0.0755
  110POPC   C1B 1750   5.303   6.271   7.986  0.1063  0.2880  0.0923
  110POPC   C2B 1751   5.304   6.263   7.543  0.3495 -0.2640  0.0728
  110POPC   C3B 1752   5.313   6.370   7.134 -0.0869 -0.0877 -0.1372
  110POPC   C4B 1753   5.530   6.555   6.780  0.3433 -0.1294 -0.1645
  111POPC   NC3 1754   3.665   0.626   8.861  0.2526  0.1482 -0.0991
  111POPC   PO4 1755   3.542   1.106   9.094  0.4462 -0.0953  0.2284
  111POPC   GL1 1756   3.494   1.571   8.932  0.0081 -0.0322  0.0275
  111POPC   GL2 1757   3.284   1.849   8.882  0.3385 -0.1359  0.2251
  111POPC   C1A 1758   3.467   1.801   8.449 -0.0228 -0.1731 -0.1775
  111POPC   D2A 1759   3.477   1.617   8.025  0.0431  0.0374 -0.1583
  111POPC   C3A 1760   3.232   1.843   7.604 -0.1674 -0.0816 -0.0229
  111POPC   C4A 1761   3.325   2.091   7.296 -0.3551 -0.1659  0.0709
  111POPC   C1B 1762   2.895   2.031   8.585  0.0547  0.3368 -0.1663
  111POPC   C2B 1763   2.618   2.274   8.350 -0.3827  0.0966  0.5170
  111POPC   C3B 1764   2.176   2.241   8.230  0.1078  0.0734 -0.0327
  111POPC   C4B 1765   1.881   2.191   7.921 -0.2104 -0.0186  0.2400
  112POPC   NC3 1766   6.844   2.190   9.084  0.2064 -0.4677  0.0261
  112POPC   PO4 1767   6.437   2.222   8.955  0.0177  0.0664  0.2650
  112POPC   GL1 1768   6.377   2.381   8.479  0.0079  0.0479  0.2530
  112POPC   GL2 1769   6.574   2.463   8.512 -0.0288  0.1584  0.3317
  112POPC   C1A 1770   6.275   2.665   8.114  0.0316 -0.2292  0.0028
  112POPC   D2A 1771   5.976   2.714   7.892 -0.0486 -0.0980 -0.3212
  112POPC   C3A 1772   5.899   2.639   7.454  0.0562 -0.1129  0.0685
  112POPC   C4A 1773   5.860   2.842   7.051 -0.0603 -0.0340 -0.3613
  112POPC   C1B 1774   6.750   2.278   8.156 -0.2288 -0.0446  0.1389
  112POPC   C2B 1775   6.943   2.331   7.772 -0.0687 -0.0925 -0.2331
  112POPC   C3B 1776   7.064   2.569   7.494 -0.0070 -0.2130 -0.3615
  112POPC   C4B 1777   7.189   2.711   7.038  0.2198 -0.0238 -0.1506
  113POPC   NC3 1778   7.378   4.867   8.673  0.0323 -0.0015 -0.0230
  113POPC   PO4 1779   7.608   5.212   8.404  0.0398 -0.0965 -0.3241
  113POPC   GL1 1780   7.355   5.483   8.094  0.0825 -0.0292  0.0362
  113POPC   GL2 1781   7.202   5.858   8.217 -0.0905  0.1289  0.2953
  113POPC   C1A 1782   7.171   5.553   7.801  0.1298 -0.2681  0.3699
  113POPC   D2A 1783   6.785   5.639   7.586  0.0516  0.2021 -0.0530
  113POPC   C3A 1784   6.756   5.392   7.137 -0.0536 -0.0601  0.0269
  113POPC   C4A 1785   6.499   5.523   6.760 -0.1559  0.2911  0.0721
  113POPC   C1B 1786   7.125   6.088   7.860 -0.0219  0.0836 -0.2066
  113POPC   C2B 1787   7.200   6.244   7.475 -0.0270  0.3634  0.0379
  113POPC   C3B 1788   7.469   6.533   7.204 -0.1703 -0.2429 -0.3764
  113POPC   C4B 1789   7.466   6.741   6.822 -0.0080 -0.1760 -0.0878
  114POPC   NC3 1790   7.292   3.965   9.057  0.0723 -0.0209 -0.0964
  114POPC   PO4 1791   7.499   4.182   8.717 -0.2510  0.2068  0.1302
  114POPC   GL1 1792   7.682   4.081   8.271 -0.1246 -0.1143  0.2960
  114POPC   GL2 1793   7.777   4.430   8.167 -0.0558  0.0426  0.3320
  114POPC   C1A 1794   7.298   4.064   7.969  0.1287 -0.1290  0.0150
  114POPC   D2A 1795   7.041   4.119   7.613  0.0602  0.1217 -0.0780
  114POPC   C3A 1796   6.834   3.905   7.291  0.1927 -0.0919 -0.2386
  114POPC   C4A 1797   6.634   4.063   6.913  0.0133  0.0639  0.1229
  114POPC   C1B 1798   7.825   4.430   7.778 -0.1665 -0.0867  0.1992
  114POPC   C2B 1799   7.903   4.455   7.340 -0.3222 -0.0449 -0.0095
  114POPC   C3B 1800   7.795   4.176   7.080 -0.5138 -0.1997 -0.1369
  114POPC   C4B 1801   7.641   3.903   6.824 -0.1096  0.0466  0.0318
  115POPC   NC3 1802   7.826   5.983   8.809  0.4324 -0.2500  0.0377
  115POPC   PO4 1803   8.027   5.555   8.739 -0.1638 -0.2331  0.3207
  115POPC   GL1 1804   8.128   5.601   8.323  0.0693  0.0434  0.2327
  115POPC   GL2 1805   8.309   5.451   8.218  0.1373  0.0292  0.2112
  115POPC   C1A 1806   8.019   5.812   7.995  0.2640 -0.0782 -0.0156
  115POPC   D2A 1807   7.666   5.947   7.686 -0.1458  0.1166 -0.3881
  115POPC   C3A 1808   7.650   5.844   7.282 -0.1432 -0.0327  0.3234
  115POPC   C4A 1809   7.596   5.464   6.993 -0.2775 -0.0418 -0.3407
  115POPC   C1B 1810   7.944   5.318   7.915 -0.2004 -0.0789  0.0588
  115POPC   C2B 1811   7.581   5.427   7.523 -0.0298  0.3936 -0.2479
  115POPC   C3B 1812   7.197   5.600   7.265  0.1771 -0.1293 -0.1636
  115POPC   C4B 1813   7.136   5.522   6.869  0.0544  0.0503  0.1274
  116POPC   NC3 1814   4.554   9.352   8.666  0.2826  0.0286 -0.0584
  116POPC   PO4 1815   4.873   9.166   8.512 -0.2417 -0.0043  0.1879
  116POPC   GL1 1816   4.727   9.083   8.058  0.1705  0.0012  0.1069
  116POPC   GL2 1817   4.894   8.887   7.926 -0.3268  0.1848 -0.1871
  116POPC   C1A 1818   4.625   9.172   7.653  0.1021 -0.0512  0.2237
  116POPC   D2A 1819   4.728   9.196   7.316 -0.0349  0.0304 -0.0902
  116POPC   C3A 1820   4.466   9.541   7.116 -0.0959 -0.2043 -0.0704
  116POPC   C4A 1821   4.272   9.990   7.199  0.3837  0.2037 -0.1447
  116POPC   C1B 1822   5.120   9.124   7.668  0.0218 -0.0869  0.0314
  116POPC   C2B 1823   5.315   9.089   7.332 -0.0138  0.0042 -0.3379
  116POPC   C3B 1824   5.108   8.928   6.947 -0.1801 -0.1188 -0.3931
  116POPC   C4B 1825   5.022   8.739   6.554 -0.0363  0.1145  0.2716
  117POPC   NC3 1826   4.067   0.356   8.760 -0.0891 -0.4358  0.1407
  117POPC   PO4 1827   3.713   0.066   8.691  0.6916  0.1383 -0.0405
  117POPC   GL1 1828   3.492  -0.074   8.418  0.0275 -0.2460 -0.0232
  117POPC   GL2 1829   3.199  -0.124   8.340 -0.1148 -0.2069 -0.3925
  117POPC   C1A 1830   3.430   0.159   8.050  0.2413 -0.1663 -0.1096
  117POPC   D2A 1831   3.745   0.235   7.839  0.0906  0.1006 -0.0509
  117POPC   C3A 1832   3.902  -0.041   7.572  0.1548 -0.2500  0.0096
  117POPC   C4A 1833   3.994  -0.409   7.244  0.1587 -0.1422  0.1667
  117POPC   C1B 1834   3.058  -0.096   7.883  0.2444  0.0616 -0.0765
  117POPC   C2B 1835   3.040  -0.055   7.400  0.0030 -0.0168  0.1799
  117POPC   C3B 1836   3.397   0.149   7.150  0.1042 -0.0373  0.3174
  117POPC   C4B 1837   3.734   0.012   7.103 -0.3240 -0.0032  0.1115
  118POPC   NC3 1838   9.102   3.496   8.298  0.1248 -0.2313  0.1937
  118POPC   PO4 1839   8.767   3.822   8.434 -0.1115  0.2497  0.0129
  118POPC   GL1 1840   8.646   3.855   7.944  0.1537  0.1411 -0.1793
  118POPC   GL2 1841   8.384   3.608   7.850  0.2517  0.3189  0.0058
  118POPC   C1A 1842   8.636   3.931   7.503  0.0310  0.1772 -0.0873
  118POPC   D2A 1843   8.710   3.817   7.148  0.1389  0.0026  0.0968
  118POPC   C3A 1844   8.447   3.456   7.010  0.2752 -0.3929 -0.0344
  118POPC   C4A 1845   8.106   3.143   6.953 -0.2871 -0.0359 -0.2984
  118POPC   C1B 1846   8.154   3.481   7.441  0.1647  0.0827 -0.1032
  118POPC   C2B 1847   7.969   3.611   7.074  0.2104  0.4462 -0.1365
  118POPC   C3B 1848   7.810   3.441   6.683 -0.1618  0.0348 -0.0928
  118POPC   C4B 1849   7.810   3.033   6.463  0.0321  0.0062  0.2741
  119POPC   NC3 1850   2.871   1.412   9.584  0.0596  0.0415 -0.0552
  119POPC   PO4 1851   2.457   1.457   9.234  0.1040 -0.2703  0.0677
  119POPC   GL1 1852   2.493   1.465   8.752 -0.0622 -0.2949 -0.3284
  119POPC   GL2 1853   2.794   1.504   8.618 -0.4256  0.0930  0.0003
  119POPC   C1A 1854   2.435   1.718   8.298  0.1913  0.1118  0.0218
  119POPC   D2A 1855   2.490   1.914   7.929  0.0248 -0.1140  0.0193
  119POPC   C3A 1856   2.360   2.324   7.785  0.2899  0.0291 -0.4580
  119POPC   C4A 1857   2.100   2.430   7.497  0.0016  0.0235 -0.1057
  119POPC   C1B 1858   2.971   1.697   8.203 -0.2920 -0.3184  0.2487
  119POPC   C2B 1859   2.970   2.086   7.978  0.2445  0.0721 -0.0401
  119POPC   C3B 1860   2.889   2.274   7.669 -0.1082  0.1611  0.0366
  119POPC   C4B 1861   2.691   2.650   7.579 -0.0425 -0.0286 -0.5511
  120POPC   NC3 1862   5.821   7.473   8.887 -0.4082  0.0539 -0.0792
  120POPC   PO4 1863   6.096   7.746   8.875 -0.1602 -0.2112 -0.2993
  120POPC   GL1 1864   6.072   7.393   8.498 -0.2269  0.0991 -0.1039
  120POPC   GL2 1865   6.183   7.053   8.527 -0.0568 -0.0615 -0.2858
  120POPC   C1A 1866   5.993   7.271   8.052  0.3081 -0.2102 -0.0417
  120POPC   D2A 1867   5.774   7.222   7.597 -0.0238  0.0980 -0.0077
  120POPC   C3A 1868   5.924   7.255   7.161  0.1133  0.1591  0.1668
  120POPC   C4A 1869   5.891   7.438   6.755  0.1890  0.0759 -0.4545
  120POPC   C1B 1870   6.351   6.829   8.178  0.2679  0.0747  0.1168
  120POPC   C2B 1871   6.027   6.792   7.818  0.1012  0.1551  0.1037
  120POPC   C3B 1872   5.780   6.753   7.429 -0.0890  0.1931  0.1763
  120POPC   C4B 1873   5.484   6.890   7.135  0.1515 -0.2058  0.1567
  121POPC   NC3 1874   1.452   2.866   8.303  0.0987  0.0379  0.0537
  121POPC   PO4 1875   1.237   2.555   8.472 -0.2366 -0.0217  0.0310
  121POPC   GL1 1876   1.482   2.414   8.055 -0.0747 -0.0064  0.1847
  121POPC   GL2 1877   1.190   2.567   7.928 -0.0263  0.1226 -0.4539
  121POPC   C1A 1878   1.671   2.535   7.641  0.1088  0.0090 -0.1166
  121POPC   D2A 1879   1.655   2.902   7.354 -0.1988  0.2802 -0.2785
  121POPC   C3A 1880   1.665   2.802   6.925 -0.0937 -0.3530 -0.0396
  121POPC   C4A 1881   1.657   2.390   6.656  0.0422  0.1046  0.0957
  121POPC   C1B 1882   1.219   2.770   7.583 -0.1424 -0.1314 -0.1056
  121POPC   C2B 1883   1.034   3.003   7.210 -0.0005 -0.1924 -0.1354
  121POPC   C3B 1884   1.278   3.137   6.863  0.0986 -0.0143 -0.3436
  121POPC   C4B 1885   1.345   2.954   6.537  0.0294  0.2743  0.3090
  122POPC   NC3 1886   0.888   6.396   8.642 -0.3747  0.3825 -0.3937
  122POPC   PO4 1887   1.116   5.926   8.705  0.1568  0.1131 -0.2338
  122POPC   GL1 1888   1.309   5.972   8.301  0.2181 -0.0809 -0.0099
  122POPC   GL2 1889   1.510   5.946   8.181  0.0089  0.1864 -0.3084
  122POPC   C1A 1890   0.960   6.010   8.016 -0.2668 -0.1275  0.1600
  122POPC   D2A 1891   0.497   6.061   7.832  0.1836 -0.2124  0.1027
  122POPC   C3A 1892   0.475   5.900   7.402  0.1744 -0.1129  0.4679
  122POPC   C4A 1893   0.321   5.894   6.873  0.3457 -0.0760 -0.0316
  122POPC   C1B 1894   1.825   6.190   7.882  0.0564 -0.0087  0.0484
  122POPC   C2B 1895   2.182   6.400   7.593 -0.1369 -0.2089 -0.1063
  122POPC   C3B 1896   2.240   6.444   7.150 -0.0177 -0.2651 -0.1800
  122POPC   C4B 1897   2.462   6.361   6.703  0.1448  0.0516 -0.1799
  123POPC   NC3 1898   4.056   2.640   9.964 -0.2153  0.1755 -0.0747
  123POPC   PO4 1899   4.134   3.096   9.968 -0.2403 -0.0530  0.2030
  123POPC   GL1 1900   4.242   3.244   9.597  0.2666 -0.2311 -0.0418
  123POPC   GL2 1901   4.635   3.269   9.604  0.3609  0.0067 -0.2348
  123POPC   C1A 1902   4.233   3.405   9.229 -0.4803  0.1176 -0.0804
  123POPC   D2A 1903   4.151   3.799   8.813 -0.2745  0.4352  0.1266
  123POPC   C3A 1904   3.803   3.697   8.629 -0.0566 -0.1490 -0.1653
  123POPC   C4A 1905   3.640   3.828   8.239 -0.3246 -0.1145  0.1583
  123POPC   C1B 1906   4.862   3.414   9.277 -0.0581 -0.0185 -0.2385
  123POPC   C2B 1907   5.101   3.792   9.165  0.4184 -0.4115 -0.4366
  123POPC   C3B 1908   4.995   3.923   8.800  0.2294 -0.2390  0.4009
  123POPC   C4B 1909   4.854   3.889   8.422 -0.0512 -0.1524  0.1088
  124POPC   NC3 1910   1.915   3.920   9.278 -0.0339 -0.1083 -0.2173
  124POPC   PO4 1911   2.195   4.424   9.258 -0.3929 -0.3559 -0.1923
  124POPC   GL1 1912   2.484   4.559   8.838 -0.0345  0.0088 -0.3472
  124POPC   GL2 1913   2.252   4.634   8.479 -0.0546  0.3192 -0.0870
  124POPC   C1A 1914   2.799   4.656   8.517  0.1208 -0.0175  0.0064
  124POPC   D2A 1915   2.934   4.870   8.348 -0.0872 -0.0527 -0.1479
  124POPC   C3A 1916   2.973   4.910   7.913 -0.2119  0.2805 -0.1709
  124POPC   C4A 1917   3.090   4.624   7.585 -0.0880 -0.3587 -0.0735
  124POPC   C1B 1918   2.434   4.624   8.136 -0.0022  0.0209  0.1281
  124POPC   C2B 1919   2.525   4.865   7.755  0.3902  0.1738  0.0597
  124POPC   C3B 1920   2.764   5.156   7.541  0.0093 -0.1930  0.1728
  124POPC   C4B 1921   3.086   5.234   7.301 -0.1264 -0.2013 -0.0050
  125POPC   NC3 1922   1.336   8.467   8.626 -0.0617 -0.0769  0.0856
  125POPC   PO4 1923   1.437   8.010   8.515  0.1665 -0.0209 -0.0562
  125POPC   GL1 1924   1.355   8.010   8.101 -0.0524 -0.2181  0.1962
  125POPC   GL2 1925   1.158   7.844   7.973  0.1820  0.2112  0.0420
  125POPC   C1A 1926   1.481   8.291   7.814  0.0647  0.1332  0.0315
  125POPC   D2A 1927   1.684   8.267   7.483 -0.0902  0.0408 -0.1426
  125POPC   C3A 1928   2.028   7.974   7.335 -0.4520  0.1270  0.1502
  125POPC   C4A 1929   2.532   7.962   7.220  0.0036 -0.1194  0.1539
  125POPC   C1B 1930   1.196   7.961   7.538  0.2116  0.0757 -0.1339
  125POPC   C2B 1931   1.133   8.000   7.109 -0.0642  0.2052  0.1367
  125POPC   C3B 1932   1.408   8.048   6.694 -0.0029  0.1816 -0.2304
  125POPC   C4B 1933   1.211   7.816   6.308  0.2666  0.1940  0.2281
  126POPC   NC3 1934   1.452   4.346   9.282 -0.1067 -0.0132  0.1089
  126POPC   PO4 1935   1.499   3.990   9.035 -0.4211  0.1862 -0.0470
  126POPC   GL1 1936   1.954   3.883   8.755  0.4151 -0.2653  0.0333
  126POPC   GL2 1937   1.863   3.720   8.372 -0.0842  0.3532  0.3316
  126POPC   C1A 1938   2.363   4.074   8.612 -0.2533  0.3481  0.0164
  126POPC   D2A 1939   2.243   4.120   8.244 -0.0927 -0.0711  0.2895
  126POPC   C3A 1940   2.347   4.231   7.836  0.0842 -0.3131  0.1118
  126POPC   C4A 1941   2.682   4.452   7.519 -0.0519  0.1514 -0.2860
  126POPC   C1B 1942   2.105   3.629   7.999 -0.2267 -0.0363 -0.0510
  126POPC   C2B 1943   2.376   3.336   7.737 -0.0253 -0.1541 -0.0696
  126POPC   C3B 1944   2.276   2.891   7.697 -0.2044  0.1958 -0.1893
  126POPC   C4B 1945   2.017   2.669   8.015 -0.1954  0.1734  0.0718
  127POPC   NC3 1946   2.750   2.844  10.231  0.1454 -0.0921  0.0959
  127POPC   PO4 1947   2.783   3.033   9.741  0.3228 -0.3691 -0.0039
  127POPC   GL1 1948   2.724   3.250   9.381 -0.2077  0.2803  0.1906
  127POPC   GL2 1949   2.509   3.311   9.227  0.1468  0.0438 -0.3384
  127POPC   C1A 1950   2.980   3.272   9.075 -0.1241 -0.1569 -0.1613
  127POPC   D2A 1951   3.359   3.166   9.052 -0.1215 -0.1986 -0.0120
  127POPC   C3A 1952   3.590   2.839   9.059  0.0753 -0.1859  0.2238
  127POPC   C4A 1953   4.030   2.857   9.071  0.2036 -0.0637 -0.1005
  127POPC   C1B 1954   2.533   3.470   8.956  0.0144 -0.2054  0.1028
  127POPC   C2B 1955   2.809   3.696   8.734  0.1373  0.0892 -0.1279
  127POPC   C3B 1956   3.162   3.883   8.379 -0.0908 -0.0591  0.1607
  127POPC   C4B 1957   3.258   3.882   7.943 -0.0499 -0.0770  0.3376
  128POPC   NC3 1958   6.867   4.212   9.017 -0.1725  0.0517  0.4606
  128POPC   PO4 1959   7.129   4.519   8.991  0.1283  0.2127 -0.1613
  128POPC   GL1 1960   7.054   4.388   8.583 -0.0220  0.2108  0.1220
  128POPC   GL2 1961   7.302   4.443   8.354  0.1072 -0.0790  0.2373
  128POPC   C1A 1962   6.858   4.248   8.234 -0.0352 -0.2808  0.1026
  128POPC   D2A 1963   6.377   4.320   8.059  0.1275  0.1215 -0.2337
  128POPC   C3A 1964   6.208   4.662   7.877 -0.2606 -0.1250 -0.0975
  128POPC   C4A 1965   6.155   5.098   7.906  0.1113  0.1728 -0.0327
  128POPC   C1B 1966   7.322   4.538   7.881 -0.1664  0.0414 -0.1401
  128POPC   C2B 1967   7.477   4.268   7.443  0.0881 -0.0440 -0.1239
  128POPC   C3B 1968   7.204   4.177   7.085  0.1714 -0.0659 -0.0905
  128POPC   C4B 1969   7.267   3.897   6.532  0.2490  0.0809  0.1105
  129POPC   NC3 1970   1.630   6.037   8.683 -0.0933  0.1038  0.1208
  129POPC   PO4 1971   1.373   6.417   8.616  0.1924 -0.0276  0.1010
  129POPC   GL1 1972   1.334   6.493   8.243 -0.1038  0.4736  0.1803
  129POPC   GL2 1973   0.960   6.539   8.148  0.0335 -0.0866 -0.0580
  129POPC   C1A 1974   1.350   6.295   7.863 -0.0176 -0.0916  0.0973
  129POPC   D2A 1975   1.510   5.994   7.590 -0.0070  0.0722 -0.2749
  129POPC   C3A 1976   1.823   6.065   7.263 -0.0516  0.2610  0.2276
  129POPC   C4A 1977   2.148   5.680   7.027 -0.2788 -0.2107  0.2780
  129POPC   C1B 1978   0.945   6.861   8.021  0.0200 -0.0853 -0.2952
  129POPC   C2B 1979   0.937   6.945   7.503 -0.0118 -0.2090 -0.1773
  129POPC   C3B 1980   1.098   6.970   7.078 -0.0925 -0.3608  0.0609
  129POPC   C4B 1981   1.466   6.999   6.791 -0.1109 -0.2599 -0.2798
  130POPC   NC3 1982   6.503   3.660   9.497 -0.0215  0.1338 -0.2195
  130POPC   PO4 1983   6.656   3.643   9.023  0.0830  0.0797 -0.4815
  130POPC   GL1 1984   6.545   3.898   8.739 -0.0599  0.4520 -0.0556
  130POPC   GL2 1985   6.626   3.807   8.385  0.3268  0.0447 -0.2270
  130POPC   C1A 1986   6.147   4.248   8.830  0.4414  0.1589  0.2515
  130POPC   D2A 1987   5.835   4.592   8.729  0.1449 -0.2338  0.2344
  130POPC   C3A 1988   5.363   4.450   8.614  0.0916 -0.0232 -0.0751
  130POPC   C4A 1989   5.192   4.289   8.190  0.1520  0.1326 -0.2158
  130POPC   C1B 1990   6.176   3.999   8.347  0.2150  0.0282 -0.2548
  130POPC   C2B 1991   6.005   4.232   8.370 -0.0455  0.2987  0.1666
  130POPC   C3B 1992   5.684   4.453   8.148  0.1781 -0.1886  0.0969
  130POPC   C4B 1993   5.732   4.750   7.769 -0.0108  0.0119  0.1742
  131POPC   NC3 1994   8.067   0.270   8.070 -0.1019 -0.0118 -0.1699
  131POPC   PO4 1995   7.964  -0.061   7.894  0.1382  0.1678  0.0326
  131POPC   GL1 1996   7.640  -0.032   7.744  0.0184 -0.0398  0.0029
  131POPC   GL2 1997   7.421  -0.288   7.692 -0.1639 -0.2337 -0.0878
  131POPC   C1A 1998   7.564   0.168   7.308  0.2893 -0.1738 -0.0445
  131POPC   D2A 1999   7.431   0.334   6.900  0.2379 -0.0349 -0.0364
  131POPC   C3A 2000   7.033   0.225   6.669  0.0623  0.0287  0.1122
  131POPC   C4A 2001   6.694   0.081   6.552 -0.2142 -0.2203  0.3010
  131POPC   C1B 2002   7.712  -0.686   7.658 -0.1996  0.3233  0.2594
  131POPC   C2B 2003   7.890  -1.049   7.511  0.2533  0.0187 -0.2861
  131POPC   C3B 2004   7.939  -1.203   7.167  0.0264 -0.0655  0.4441
  131POPC   C4B 2005   8.139  -1.334   6.792 -0.1993 -0.1476  0.0571
  132POPC   NC3 2006   6.721   0.642   8.624  0.0510  0.1956 -0.1407
  132POPC   PO4 2007   6.589   0.349   8.768 -0.0603  0.1259 -0.0210
  132POPC   GL1 2008   6.550   0.428   8.246 -0.3087 -0.2610 -0.0427
  132POPC   GL2 2009   6.586   0.673   8.075 -0.3592 -0.0012  0.2210
  132POPC   C1A 2010   6.558   0.175   7.831 -0.0746  0.2047 -0.1298
  132POPC   D2A 2011   6.565   0.075   7.370  0.0856 -0.0889 -0.1334
  132POPC   C3A 2012   6.693   0.365   7.036  0.0403 -0.1986  0.0373
  132POPC   C4A 2013   6.634   0.749   6.741  0.1853 -0.2958 -0.1561
  132POPC   C1B 2014   6.241   0.673   7.895 -0.3836 -0.1299  0.0547
  132POPC   C2B 2015   5.988   0.766   7.417 -0.1576 -0.0123  0.0995
  132POPC   C3B 2016   5.800   0.963   7.129  0.1586 -0.0294  0.0441
  132POPC   C4B 2017   5.855   1.079   6.792 -0.0769  0.0665  0.1092
  133POPC   NC3 2018   9.796   4.664   8.095  0.1662  0.0999 -0.0108
  133POPC   PO4 2019   9.528   4.314   8.199  0.3412  0.0524 -0.1610
  133POPC   GL1 2020   9.681   4.303   7.745  0.0476 -0.1294 -0.1570
  133POPC   GL2 2021   9.675   4.096   7.603 -0.1639 -0.3900  0.0077
  133POPC   C1A 2022   9.960   4.431   7.409  0.1807 -0.3718 -0.1256
  133POPC   D2A 2023  10.253   4.466   7.052  0.5467  0.1291 -0.0469
  133POPC   C3A 2024  10.298   4.356   6.512 -0.1047  0.1407 -0.0606
  133POPC   C4A 2025  10.163   3.926   6.395 -0.0425 -0.1833 -0.1665
  133POPC   C1B 2026   9.615   3.899   7.199 -0.2688  0.3018 -0.1687
  133POPC   C2B 2027   9.715   3.722   6.687 -0.0269  0.2587 -0.0942
  133POPC   C3B 2028   9.480   3.743   6.295 -0.1088  0.0331  0.2684
  133POPC   C4B 2029   9.084   3.809   6.103 -0.0324 -0.1015  0.1020
  134POPC   NC3 2030   9.509   5.799   9.011 -0.1631  0.0646  0.3231
  134POPC   PO4 2031   9.711   5.628   8.603  0.2817 -0.0579 -0.0086
  134POPC   GL1 2032   9.733   5.475   8.180  0.1551 -0.2042  0.0674
  134POPC   GL2 2033   9.383   5.400   8.202  0.3405  0.0316 -0.1289
  134POPC   C1A 2034   9.663   5.436   7.769  0.1748  0.0549 -0.2787
  134POPC   D2A 2035   9.425   5.287   7.344  0.1979 -0.0386  0.2688
  134POPC   C3A 2036   9.572   5.392   6.945 -0.0506 -0.0110 -0.0923
  134POPC   C4A 2037   9.322   5.404   6.548  0.1278  0.1907 -0.2236
  134POPC   C1B 2038   9.195   5.530   7.916  0.2343  0.0653  0.0930
  134POPC   C2B 2039   8.751   5.664   7.841 -0.0024  0.2899 -0.0392
  134POPC   C3B 2040   8.348   5.651   7.651 -0.1175 -0.0475  0.1353
  134POPC   C4B 2041   8.117   5.617   7.193  0.0696 -0.1459 -0.1270
  135POPC   NC3 2042   0.485   8.856   9.120  0.0302  0.1005 -0.2387
  135POPC   PO4 2043   0.196   8.954   8.662 -0.2141  0.1434 -0.0010
  135POPC   GL1 2044  -0.051   9.032   8.216 -0.1291 -0.1218  0.0053
  135POPC   GL2 2045  -0.016   9.344   7.994  0.0783  0.3055 -0.0057
  135POPC   C1A 2046  -0.305   8.943   7.819  0.1524 -0.1658 -0.2157
  135POPC   D2A 2047  -0.718   9.070   7.670  0.1573 -0.2158  0.0780
  135POPC   C3A 2048  -0.683   9.442   7.410  0.1401 -0.1496  0.3064
  135POPC   C4A 2049  -0.710   9.636   7.016  0.3116 -0.0396 -0.1912
  135POPC   C1B 2050  -0.222   9.578   7.686 -0.0292  0.1485 -0.0638
  135POPC   C2B 2051  -0.453   9.990   7.447 -0.2754 -0.0413  0.2043
  135POPC   C3B 2052  -0.786  10.159   7.180 -0.2577 -0.2182  0.3115
  135POPC   C4B 2053  -0.855  10.179   6.792 -0.1043  0.0282 -0.0421
  136POPC   NC3 2054   9.087   8.781   8.554  0.1073  0.1727  0.0996
  136POPC   PO4 2055   8.869   9.097   8.517  0.1262 -0.2328  0.1384
  136POPC   GL1 2056   8.737   8.949   8.195 -0.0266 -0.0412  0.0911
  136POPC   GL2 2057   8.672   9.181   8.041  0.2460  0.0316  0.1837
  136POPC   C1A 2058   8.808   8.706   7.747  0.1813  0.0970  0.0042
  136POPC   D2A 2059   8.906   8.711   7.331  0.2705  0.0361 -0.0695
  136POPC   C3A 2060   9.256   8.941   7.209 -0.3449 -0.1741 -0.1582
  136POPC   C4A 2061   9.533   9.201   6.891 -0.2116 -0.0108 -0.1142
  136POPC   C1B 2062   8.675   9.286   7.604  0.0203  0.1224 -0.2457
  136POPC   C2B 2063   8.795   9.300   7.156 -0.1404  0.1274  0.1421
  136POPC   C3B 2064   8.913   9.219   6.834  0.0349  0.1345  0.0477
  136POPC   C4B 2065   8.794   9.113   6.352 -0.1604  0.3698  0.1234
  137POPC   NC3 2066   8.078   6.920   8.712 -0.2543  0.3450  0.1253
  137POPC   PO4 2067   8.120   6.464   8.878 -0.0947  0.2135 -0.1147
  137POPC   GL1 2068   7.919   6.407   8.519  0.1541  0.0841 -0.0785
  137POPC   GL2 2069   8.087   6.124   8.375 -0.1119  0.3681  0.3934
  137POPC   C1A 2070   8.010   6.594   8.173 -0.2452 -0.0066  0.2398
  137POPC   D2A 2071   8.118   6.952   8.017 -0.0228 -0.2925  0.0602
  137POPC   C3A 2072   8.075   6.965   7.589  0.0216 -0.2936 -0.1610
  137POPC   C4A 2073   8.324   7.077   7.123 -0.3106  0.2867  0.2456
  137POPC   C1B 2074   7.681   6.181   8.107  0.0018  0.0357 -0.3571
  137POPC   C2B 2075   7.495   6.485   7.842  0.0745 -0.0058  0.0539
  137POPC   C3B 2076   7.534   6.854   7.601  0.0189 -0.2114 -0.0678
  137POPC   C4B 2077   7.398   7.184   7.768 -0.1884 -0.1347 -0.0196
  138POPC   NC3 2078   8.020   2.032   8.143  0.1989 -0.2949 -0.0061
  138POPC   PO4 2079   7.682   1.903   8.013 -0.1500  0.1209 -0.3806
  138POPC   GL1 2080   7.605   1.969   7.684 -0.0137  0.1143  0.3592
  138POPC   GL2 2081   7.429   2.249   7.605 -0.0366 -0.2767  0.3819
  138POPC   C1A 2082   7.542   1.869   7.276  0.3208  0.2747  0.1144
  138POPC   D2A 2083   7.381   1.600   6.963 -0.0135  0.1874 -0.6023
  138POPC   C3A 2084   7.375   1.784   6.621 -0.2354 -0.1092 -0.3881
  138POPC   C4A 2085   7.654   1.994   6.326  0.0534  0.2245 -0.2279
  138POPC   C1B 2086   7.197   2.204   7.212 -0.1674  0.0381  0.0867
  138POPC   C2B 2087   6.930   1.926   6.965 -0.1309 -0.2658  0.0302
  138POPC   C3B 2088   6.806   1.977   6.608  0.3256 -0.0203 -0.1513
  138POPC   C4B 2089   6.497   1.895   6.453 -0.1185 -0.0854  0.1539
  139POPC   NC3 2090   0.944   5.045   8.961 -0.0830 -0.1029  0.0547
  139POPC   PO4 2091   1.249   5.414   8.704 -0.1204  0.0229 -0.2289
  139POPC   GL1 2092   1.229   5.329   8.356  0.0776 -0.0522  0.3575
  139POPC   GL2 2093   1.522   5.124   8.287  0.0273 -0.1037 -0.1531
  139POPC   C1A 2094   1.354   5.536   7.975 -0.0418 -0.0047 -0.0550
  139POPC   D2A 2095   1.374   5.479   7.527  0.2652 -0.0308 -0.0195
  139POPC   C3A 2096   1.202   5.638   7.203  0.2826  0.0706  0.1956
  139POPC   C4A 2097   1.144   5.515   6.756 -0.1157  0.2098  0.2691
  139POPC   C1B 2098   1.500   5.081   7.812 -0.0732  0.1783  0.0849
  139POPC   C2B 2099   1.349   4.859   7.406 -0.1160 -0.1071  0.1428
  139POPC   C3B 2100   1.314   5.110   7.030 -0.1431  0.2866 -0.1057
  139POPC   C4B 2101   1.568   5.208   6.599  0.0434 -0.0130 -0.0358
  140POPC   NC3 2102   4.514   0.794   8.920  0.0666 -0.1810  0.0402
  140POPC   PO4 2103   4.793   0.827   8.530  0.4613  0.1527 -0.1271
  140POPC   GL1 2104   5.028   0.709   8.164 -0.2553  0.0942 -0.2033
  140POPC   GL2 2105   5.343   0.519   8.118 -0.0524 -0.2507 -0.2937
  140POPC   C1A 2106   5.016   0.603   7.773  0.3672 -0.2396  0.1892
  140POPC   D2A 2107   4.629   0.521   7.522  0.3744 -0.0540 -0.0245
  140POPC   C3A 2108   4.570   0.590   7.040 -0.2143 -0.0708 -0.1675
  140POPC   C4A 2109   4.442   0.788   6.744 -0.0421 -0.0064 -0.2254
  140POPC   C1B 2110   5.302   0.209   7.792  0.2466 -0.0161  0.0816
  140POPC   C2B 2111   5.169   0.217   7.452 -0.2759  0.4215 -0.0656
  140POPC   C3B 2112   5.135   0.410   7.085 -0.3354  0.0717  0.0977
  140POPC   C4B 2113   4.965   0.689   6.702 -0.0964  0.1585  0.0067
  141POPC   NC3 2114   5.450   0.900   8.494 -0.2523 -0.1146  0.0804
  141POPC   PO4 2115   5.048   1.245   8.723  0.2240 -0.1344 -0.1152
  141POPC   GL1 2116   5.213   1.344   8.350  0.0100 -0.1778  0.4523
  141POPC   GL2 2117   5.519   1.342   8.174  0.2164  0.1137  0.0935
  141POPC   C1A 2118   5.029   1.560   8.035  0.0356 -0.1475 -0.0141
  141POPC   D2A 2119   4.923   1.491   7.549  0.1566 -0.1340 -0.0132
  141POPC   C3A 2120   4.628   1.720   7.252 -0.0966  0.0044 -0.2552
  141POPC   C4A 2121   4.474   1.438   6.858 -0.1691  0.0285 -0.2637
  141POPC   C1B 2122   5.228   1.100   7.914  0.0806  0.0196 -0.3047
  141POPC   C2B 2123   5.406   1.341   7.569  0.1108 -0.2452  0.0268
  141POPC   C3B 2124   5.357   1.372   7.154 -0.1254  0.0338 -0.2612
  141POPC   C4B 2125   4.889   1.247   7.061  0.0133  0.1827 -0.2742
  142POPC   NC3 2126   3.030   6.181   8.912  0.5535 -0.2231 -0.2050
  142POPC   PO4 2127   2.591   6.018   8.715 -0.2101 -0.1387  0.2209
  142POPC   GL1 2128   2.450   5.878   8.267  0.0317  0.0618  0.3029
  142POPC   GL2 2129   2.111   5.732   8.219  0.0729  0.2410  0.0213
  142POPC   C1A 2130   2.454   6.037   7.866  0.0179 -0.1114  0.1194
  142POPC   D2A 2131   2.276   5.902   7.470  0.0792  0.4142 -0.2508
  142POPC   C3A 2132   2.526   6.021   7.176 -0.0142 -0.3540  0.3512
  142POPC   C4A 2133   3.018   6.125   7.054  0.3680  0.0418  0.0275
  142POPC   C1B 2134   1.884   5.629   7.920  0.2300 -0.1685 -0.1769
  142POPC   C2B 2135   1.858   5.603   7.473  0.1690  0.1144  0.0318
  142POPC   C3B 2136   1.779   5.298   7.171  0.0422 -0.3346  0.3022
  142POPC   C4B 2137   1.770   4.901   6.992  0.0991  0.0502  0.3273
  143POPC   NC3 2138   9.772   3.917   8.300 -0.2638  0.3795 -0.6774
  143POPC   PO4 2139   9.993   3.758   7.928  0.4001 -0.0524 -0.0441
  143POPC   GL1 2140   9.844   3.623   7.667  0.0240 -0.1894 -0.3708
  143POPC   GL2 2141   9.913   3.375   7.429 -0.0026 -0.1966  0.1227
  143POPC   C1A 2142   9.449   3.509   7.404  0.0791  0.0824 -0.1998
  143POPC   D2A 2143   9.225   3.632   7.083 -0.2589  0.1919  0.0490
  143POPC   C3A 2144   9.300   3.454   6.641  0.0371 -0.1382  0.4791
  143POPC   C4A 2145   8.946   3.363   6.315 -0.2219 -0.0226  0.1127
  143POPC   C1B 2146   9.808   2.955   7.343  0.2457  0.2233  0.2016
  143POPC   C2B 2147   9.863   2.647   7.068 -0.3866 -0.0658  0.0607
  143POPC   C3B 2148   9.832   2.253   6.813  0.3913  0.1817 -0.3373
  143POPC   C4B 2149   9.650   1.830   6.715 -0.1482  0.0865 -0.2715
  144POPC   NC3 2150   0.754   2.495   8.236  0.2439 -0.1059 -0.0261
  144POPC   PO4 2151   0.447   2.238   8.443  0.0113 -0.1232 -0.0297
  144POPC   GL1 2152   0.389   2.199   7.900  0.1730  0.1554  0.1153
  144POPC   GL2 2153   0.737   2.263   7.729 -0.0055  0.0982 -0.0953
  144POPC   C1A 2154   0.325   2.418   7.430  0.1125  0.4497 -0.0134
  144POPC   D2A 2155   0.428   2.407   6.980  0.2374 -0.1803 -0.1880
  144POPC   C3A 2156   0.364   2.018   6.797  0.0634 -0.3682 -0.3205
  144POPC   C4A 2157   0.166   1.669   6.514 -0.3310  0.1441  0.1404
  144POPC   C1B 2158   1.128   2.232   7.585 -0.0360 -0.3575  0.2588
  144POPC   C2B 2159   1.308   1.979   7.251  0.0447  0.1387  0.1390
  144POPC   C3B 2160   1.438   2.041   6.975  0.0118  0.4649  0.0496
  144POPC   C4B 2161   1.281   1.990   6.510  0.0125 -0.0326  0.4576
  145POPC   NC3 2162   8.357   9.213   8.503 -0.0739  0.1371  0.2130
  145POPC   PO4 2163   8.208   9.579   8.220 -0.2514 -0.0341  0.0179
  145POPC   GL1 2164   8.281   9.505   7.746 -0.3844  0.4855  0.1230
  145POPC   GL2 2165   8.278   9.748   7.560 -0.3362 -0.0117 -0.1208
  145POPC   C1A 2166   8.256   9.204   7.347  0.2490 -0.1790  0.1370
  145POPC   D2A 2167   7.904   9.189   6.963 -0.0976  0.1247 -0.0563
  145POPC   C3A 2168   7.661   8.901   6.777 -0.1731  0.2598 -0.1246
  145POPC   C4A 2169   7.652   8.456   6.815 -0.0068  0.1953  0.0088
  145POPC   C1B 2170   7.815   9.583   7.300 -0.0110 -0.3601 -0.2307
  145POPC   C2B 2171   7.235   9.661   7.241  0.0443 -0.0138  0.0994
  145POPC   C3B 2172   6.916   9.795   7.047  0.1494  0.0385 -0.0887
  145POPC   C4B 2173   6.478   9.599   6.830  0.1885 -0.1000  0.1787
  146POPC   NC3 2174   6.298   8.250   8.932  0.0727 -0.0779 -0.1054
  146POPC   PO4 2175   6.121   8.577   8.782  0.0443 -0.1991  0.1030
  146POPC   GL1 2176   5.979   8.514   8.383 -0.2601 -0.2500 -0.1924
  146POPC   GL2 2177   6.137   8.778   8.158  0.2608 -0.1366  0.0540
  146POPC   C1A 2178   6.223   8.304   8.046  0.2356 -0.1934  0.1641
  146POPC   D2A 2179   6.170   8.172   7.576 -0.1063 -0.0387  0.3217
  146POPC   C3A 2180   6.256   8.230   7.105 -0.3312  0.1390 -0.0852
  146POPC   C4A 2181   6.338   8.144   6.590  0.0401 -0.1140 -0.2453
  146POPC   C1B 2182   6.199   8.999   7.726 -0.2263 -0.0413 -0.1456
  146POPC   C2B 2183   6.188   9.154   7.255 -0.1156 -0.0023 -0.1895
  146POPC   C3B 2184   6.164   9.182   6.811  0.0792 -0.0342  0.1995
  146POPC   C4B 2185   6.377   8.985   6.361 -0.2746 -0.3282  0.1483
  147POPC   NC3 2186   0.976   9.432   8.581 -0.1237 -0.0859 -0.2274
  147POPC   PO4 2187   0.789   9.820   8.658 -0.1490 -0.2027 -0.0313
  147POPC   GL1 2188   0.700   9.656   8.145  0.0711  0.4198 -0.1210
  147POPC   GL2 2189   0.903   9.520   8.027 -0.1178 -0.1048  0.1023
  147POPC   C1A 2190   0.525   9.828   7.850 -0.0938  0.2940  0.2296
  147POPC   D2A 2191   0.398   9.770   7.472 -0.0616 -0.0195 -0.0589
  147POPC   C3A 2192   0.529   9.700   6.974  0.3135  0.1055  0.0614
  147POPC   C4A 2193   0.279   9.692   6.569 -0.1002 -0.1823  0.0014
  147POPC   C1B 2194   0.867   9.417   7.609  0.1743  0.1379 -0.1282
  147POPC   C2B 2195   0.935   9.371   7.193 -0.1590 -0.0100  0.0030
  147POPC   C3B 2196   1.327   9.342   6.908 -0.0374  0.3540 -0.0721
  147POPC   C4B 2197   1.253   9.097   6.493  0.0800  0.0979  0.2094
  148POPC   NC3 2198   0.782   5.647   8.514 -0.1882  0.1313  0.0795
  148POPC   PO4 2199   0.687   5.192   8.428  0.0006  0.1468  0.0347
  148POPC   GL1 2200   0.816   5.357   7.943 -0.2171 -0.0446  0.2471
  148POPC   GL2 2201   0.997   5.197   7.720 -0.1320  0.0510 -0.3874
  148POPC   C1A 2202   0.888   5.613   7.570 -0.0554  0.2090  0.0732
  148POPC   D2A 2203   0.973   6.050   7.455  0.1672 -0.2289  0.0719
  148POPC   C3A 2204   1.348   6.102   7.127 -0.0551  0.0528 -0.0243
  148POPC   C4A 2205   1.540   6.501   6.921 -0.0065 -0.1727 -0.4491
  148POPC   C1B 2206   0.911   5.152   7.359 -0.2548  0.2451  0.1654
  148POPC   C2B 2207   0.742   5.478   7.024  0.1087  0.0794  0.1774
  148POPC   C3B 2208   0.284   5.358   6.722 -0.1519 -0.2570 -0.0136
  148POPC   C4B 2209  -0.002   5.624   6.545  0.0367 -0.0146 -0.1585
  149POPC   NC3 2210   9.020   2.634   8.481 -0.0191  0.1884 -0.1228
  149POPC   PO4 2211   9.005   2.253   8.339 -0.5009  0.2912 -0.1963
  149POPC   GL1 2212   9.042   1.875   8.054 -0.0210 -0.2219 -0.1698
  149POPC   GL2 2213   8.856   1.973   7.858  0.1724  0.0485  0.1565
  149POPC   C1A 2214   9.245   1.636   7.723  0.1386  0.0022  0.1195
  149POPC   D2A 2215   9.569   1.636   7.421 -0.1771  0.5181  0.3880
  149POPC   C3A 2216   9.371   1.512   7.000  0.0405  0.0970  0.0863
  149POPC   C4A 2217   9.386   1.287   6.635 -0.1327 -0.0588 -0.1688
  149POPC   C1B 2218   8.874   1.784   7.398  0.2360 -0.1053 -0.2471
  149POPC   C2B 2219   8.840   1.564   7.079  0.1458  0.0698 -0.2896
  149POPC   C3B 2220   9.055   1.167   6.971  0.0985  0.0654  0.0368
  149POPC   C4B 2221   9.212   0.763   6.924  0.0869 -0.0198 -0.1677
  150POPC   NC3 2222   2.210   7.569   4.341  0.0042 -0.0007  0.1030
  150POPC   PO4 2223   2.487   7.185   4.453 -0.1557  0.0876 -0.1152
  150POPC   GL1 2224   2.495   7.155   4.839 -0.5019 -0.2100  0.0508
  150POPC   GL2 2225   2.847   7.084   5.157  0.1215  0.3469 -0.0029
  150POPC   C1A 2226   2.343   6.893   5.198 -0.1429  0.0060 -0.0106
  150POPC   D2A 2227   1.983   6.782   5.426  0.1299 -0.1122 -0.0823
  150POPC   C3A 2228   2.004   6.916   5.891 -0.0858 -0.0884  0.2451
  150POPC   C4A 2229   2.094   6.592   6.267  0.0106  0.2807  0.0210
  150POPC   C1B 2230   3.045   6.707   5.353 -0.0598 -0.2214  0.0918
  150POPC   C2B 2231   3.346   6.523   5.702  0.1835 -0.0485  0.2702
  150POPC   C3B 2232   3.457   6.525   6.117  0.0410  0.0883 -0.1315
  150POPC   C4B 2233   3.502   6.732   6.504  0.0266  0.0095  0.2601
  151POPC   NC3 2234   5.673   1.711   3.590 -0.1221  0.0949  0.0639
  151POPC   PO4 2235   5.626   1.684   4.046 -0.2878 -0.0927 -0.1513
  151POPC   GL1 2236   5.599   2.018   4.409  0.0807  0.1168 -0.1373
  151POPC   GL2 2237   5.914   2.126   4.332 -0.1449 -0.0353  0.0888
  151POPC   C1A 2238   5.762   1.914   4.808 -0.1538 -0.1255  0.1396
  151POPC   D2A 2239   5.860   2.052   5.146 -0.2311 -0.0851 -0.2917
  151POPC   C3A 2240   5.677   2.298   5.463 -0.0686  0.0800  0.0370
  151POPC   C4A 2241   5.731   2.672   5.641 -0.2254  0.1344 -0.1156
  151POPC   C1B 2242   6.038   2.418   4.736 -0.1473 -0.0218  0.1627
  151POPC   C2B 2243   5.878   2.645   5.069 -0.0575  0.0150  0.2969
  151POPC   C3B 2244   5.802   3.017   5.263 -0.0347 -0.3324 -0.0820
  151POPC   C4B 2245   5.544   3.397   5.478 -0.2298 -0.1954  0.1126
  152POPC   NC3 2246   3.508   2.134   3.443 -0.0414 -0.2780 -0.0779
  152POPC   PO4 2247   3.379   2.108   3.866  0.1143  0.1996 -0.2773
  152POPC   GL1 2248   3.469   2.111   4.229 -0.2952  0.2486  0.3246
  152POPC   GL2 2249   3.481   1.898   4.511  0.0222 -0.0356 -0.3160
  152POPC   C1A 2250   3.405   2.366   4.538 -0.2820 -0.0412 -0.2574
  152POPC   D2A 2251   3.036   2.577   4.823  0.3640 -0.0357  0.3258
  152POPC   C3A 2252   3.286   2.545   5.256  0.1282 -0.0450  0.2941
  152POPC   C4A 2253   3.621   2.592   5.472 -0.1002  0.1984 -0.0636
  152POPC   C1B 2254   3.749   1.692   4.704  0.1464 -0.0084 -0.2147
  152POPC   C2B 2255   3.798   1.615   5.074  0.1461  0.2315 -0.1254
  152POPC   C3B 2256   4.128   1.555   5.377 -0.1548  0.2184 -0.1563
  152POPC   C4B 2257   4.539   1.386   5.352 -0.2137 -0.2715 -0.1406
  153POPC   NC3 2258   2.897   8.882   4.314 -0.1483 -0.2062  0.2812
  153POPC   PO4 2259   2.804   9.097   4.694  0.2906 -0.2324  0.4116
  153POPC   GL1 2260   2.846   9.236   5.076 -0.2387 -0.2065  0.0801
  153POPC   GL2 2261   3.058   8.977   5.319  0.2895 -0.0723  0.0865
  153POPC   C1A 2262   2.943   9.568   5.331  0.0489 -0.0776  0.4179
  153POPC   D2A 2263   2.762   9.773   5.678 -0.0565 -0.0663  0.2725
  153POPC   C3A 2264   2.795   9.964   6.117  0.2257 -0.1128 -0.0250
  153POPC   C4A 2265   3.167  10.028   6.333  0.0121 -0.2327  0.1739
  153POPC   C1B 2266   3.156   8.928   5.591  0.2265  0.3129 -0.1160
  153POPC   C2B 2267   3.449   8.627   5.967 -0.3499  0.0763  0.0445
  153POPC   C3B 2268   3.686   8.780   6.284 -0.1432  0.1506  0.1742
  153POPC   C4B 2269   3.664   8.743   6.707 -0.2771  0.0376 -0.3437
  154POPC   NC3 2270   1.615   9.234   4.938 -0.5228 -0.0405 -0.1621
  154POPC   PO4 2271   1.398   9.314   5.258 -0.3353  0.2394  0.1077
  154POPC   GL1 2272   1.223   9.285   5.565 -0.3793  0.0771  0.0391
  154POPC   GL2 2273   1.260   9.034   5.700 -0.1251  0.0285  0.2850
  154POPC   C1A 2274   0.984   9.272   6.096  0.2173 -0.1525  0.2490
  154POPC   D2A 2275   0.631   9.348   6.249  0.0884  0.1679 -0.1219
  154POPC   C3A 2276   0.343   9.179   6.484  0.3085 -0.0776 -0.2978
  154POPC   C4A 2277   0.103   9.317   6.906 -0.0580  0.3684  0.0961
  154POPC   C1B 2278   0.844   9.020   5.696  0.3067  0.0095  0.0557
  154POPC   C2B 2279   0.408   8.582   5.592 -0.0820 -0.1891  0.1478
  154POPC   C3B 2280   0.332   8.113   5.690  0.0243 -0.0857  0.1017
  154POPC   C4B 2281   0.037   7.920   5.960 -0.0365  0.2881  0.0176
  155POPC   NC3 2282   8.101   1.692   4.384 -0.1257  0.2733  0.1455
  155POPC   PO4 2283   7.826   1.879   4.651 -0.2001  0.0995  0.0876
  155POPC   GL1 2284   7.775   2.015   5.135  0.0028  0.2916  0.0568
  155POPC   GL2 2285   8.066   1.925   5.340 -0.1781 -0.0037  0.1826
  155POPC   C1A 2286   7.532   2.234   5.491  0.1392  0.0620 -0.0442
  155POPC   D2A 2287   7.460   2.201   5.915 -0.2403  0.1269  0.4024
  155POPC   C3A 2288   7.281   2.607   5.992 -0.0893  0.0471  0.0959
  155POPC   C4A 2289   7.023   2.793   6.382  0.1007 -0.0904 -0.0535
  155POPC   C1B 2290   8.346   1.853   5.766 -0.0828  0.2815  0.2150
  155POPC   C2B 2291   8.581   1.962   6.116 -0.0549 -0.0758 -0.0534
  155POPC   C3B 2292   8.882   1.652   6.286 -0.3337  0.3631 -0.1249
  155POPC   C4B 2293   9.243   1.747   6.492  0.0796 -0.0904 -0.1712
  156POPC   NC3 2294   0.633   3.220   3.614  0.1006 -0.0766 -0.2744
  156POPC   PO4 2295   0.751   2.885   4.032 -0.0491 -0.2780  0.2835
  156POPC   GL1 2296   0.798   2.975   4.450  0.1164  0.1861  0.1656
  156POPC   GL2 2297   0.547   3.097   4.580 -0.1008 -0.1361 -0.1736
  156POPC   C1A 2298   0.974   3.211   4.860  0.1809 -0.1274  0.1898
  156POPC   D2A 2299   0.975   3.356   5.194  0.3471  0.0196 -0.0181
  156POPC   C3A 2300   0.766   3.385   5.618  0.3043  0.1020 -0.1604
  156POPC   C4A 2301   0.754   3.225   6.042 -0.0420  0.1933 -0.2138
  156POPC   C1B 2302   0.620   2.863   4.952  0.4909  0.1029  0.0860
  156POPC   C2B 2303   0.608   2.943   5.419 -0.2784  0.2150  0.0586
  156POPC   C3B 2304   0.288   3.276   5.643  0.0734  0.1434 -0.0286
  156POPC   C4B 2305   0.251   3.396   6.131 -0.2105 -0.1373  0.3024
  157POPC   NC3 2306   7.600   1.395   4.748  0.0030 -0.0029 -0.0978
  157POPC   PO4 2307   7.339   1.680   4.500 -0.1615  0.1088 -0.2997
  157POPC   GL1 2308   7.307   1.925   4.940 -0.3968  0.2144 -0.1709
  157POPC   GL2 2309   7.404   1.677   5.069 -0.3462  0.0213  0.0016
  157POPC   C1A 2310   7.012   2.193   5.270 -0.0847 -0.1700  0.1121
  157POPC   D2A 2311   7.037   2.156   5.697  0.0212  0.1635 -0.1472
  157POPC   C3A 2312   6.754   2.359   5.922  0.0783 -0.0984 -0.1908
  157POPC   C4A 2313   6.663   2.347   6.322 -0.0183  0.2311  0.2303
  157POPC   C1B 2314   7.486   1.700   5.450 -0.0206 -0.0404  0.0118
  157POPC   C2B 2315   7.245   1.740   5.881  0.0639 -0.0434  0.0924
  157POPC   C3B 2316   7.165   2.053   6.244  0.1471  0.0194  0.0977
  157POPC   C4B 2317   7.130   2.353   6.591 -0.1053  0.4690 -0.0067
  158POPC   NC3 2318   7.156   6.118   4.883  0.6273 -0.1105 -0.0005
  158POPC   PO4 2319   7.355   6.424   4.804  0.1773  0.0441  0.0760
  158POPC   GL1 2320   7.470   6.556   5.177 -0.1179 -0.2021  0.0656
  158POPC   GL2 2321   7.566   6.855   5.157 -0.3732  0.1353  0.3332
  158POPC   C1A 2322   7.470   6.378   5.601 -0.6464 -0.1761 -0.0490
  158POPC   D2A 2323   7.259   6.468   6.020  0.1000 -0.0628 -0.1805
  158POPC   C3A 2324   7.190   6.252   6.423 -0.2133 -0.1045  0.2747
  158POPC   C4A 2325   6.912   5.965   6.562 -0.0552  0.2821  0.2813
  158POPC   C1B 2326   7.522   6.891   5.606 -0.0313 -0.1074 -0.1257
  158POPC   C2B 2327   7.474   6.910   6.083 -0.0882  0.0339  0.1264
  158POPC   C3B 2328   7.573   6.650   6.348  0.0370 -0.0447  0.2373
  158POPC   C4B 2329   7.693   6.256   6.562 -0.3002  0.5559  0.3198
  159POPC   NC3 2330   0.122   5.983   4.842 -0.0855  0.2782 -0.2100
  159POPC   PO4 2331   0.124   6.320   5.033  0.2283 -0.5302  0.2988
  159POPC   GL1 2332   0.314   6.352   5.461 -0.3155 -0.0900  0.1451
  159POPC   GL2 2333   0.604   6.607   5.632  0.3113  0.0801 -0.2726
  159POPC   C1A 2334   0.353   6.149   5.921  0.1719 -0.1057  0.3262
  159POPC   D2A 2335   0.370   5.855   6.237  0.0625  0.0720 -0.0084
  159POPC   C3A 2336   0.694   5.920   6.538 -0.0935  0.0031 -0.0281
  159POPC   C4A 2337   1.083   6.044   6.650 -0.3214  0.0689  0.2036
  159POPC   C1B 2338   0.589   6.532   6.130 -0.3571 -0.2387 -0.1906
  159POPC   C2B 2339   0.513   6.778   6.487 -0.1758  0.2485  0.1620
  159POPC   C3B 2340   0.802   7.103   6.577 -0.0626 -0.1479  0.3716
  159POPC   C4B 2341   0.849   7.653   6.570 -0.0564  0.0012 -0.0926
  160POPC   NC3 2342   0.746   0.309   4.757  0.3325 -0.0636  0.2192
  160POPC   PO4 2343   0.465   0.572   4.514  0.0760  0.1600  0.0345
  160POPC   GL1 2344   0.260   0.587   4.836 -0.2865  0.0706  0.2070
  160POPC   GL2 2345  -0.048   0.707   4.959  0.0511  0.2956  0.1348
  160POPC   C1A 2346   0.349   0.642   5.325  0.0704 -0.1317 -0.3408
  160POPC   D2A 2347   0.387   0.761   5.757 -0.1060 -0.0816  0.1242
  160POPC   C3A 2348   0.080   1.132   5.862 -0.1250  0.1635 -0.3345
  160POPC   C4A 2349  -0.235   1.319   6.178 -0.0788 -0.0899  0.0045
  160POPC   C1B 2350  -0.393   0.502   5.188 -0.1020  0.1294  0.1560
  160POPC   C2B 2351  -0.527   0.443   5.641 -0.2345  0.2055  0.0700
  160POPC   C3B 2352  -0.372   0.394   6.025  0.2147  0.0086  0.1645
  160POPC   C4B 2353  -0.543   0.278   6.406  0.2412  0.4425 -0.0471
  161POPC   NC3 2354   3.006   7.977   5.064  0.1294 -0.2888  0.0601
  161POPC   PO4 2355   3.270   7.559   5.057 -0.0130 -0.0297 -0.0384
  161POPC   GL1 2356   3.184   7.595   5.429 -0.4634  0.0005 -0.0759
  161POPC   GL2 2357   3.021   7.336   5.690 -0.1087  0.0939  0.0549
  161POPC   C1A 2358   3.176   7.761   5.875  0.0035 -0.1133  0.0812
  161POPC   D2A 2359   3.133   8.016   6.193 -0.1458 -0.4302  0.0732
  161POPC   C3A 2360   2.856   7.699   6.412  0.0560 -0.0321  0.0488
  161POPC   C4A 2361   2.909   7.272   6.210 -0.0315 -0.0447 -0.0663
  161POPC   C1B 2362   3.043   6.839   5.974 -0.3690 -0.0053  0.0408
  161POPC   C2B 2363   3.047   6.285   6.095 -0.0658 -0.3884  0.2008
  161POPC   C3B 2364   2.890   5.889   6.153  0.1999  0.4815 -0.1409
  161POPC   C4B 2365   2.524   5.650   6.296 -0.3081 -0.2434  0.0455
  162POPC   NC3 2366   6.986   2.009   4.225 -0.0112 -0.2452 -0.4061
  162POPC   PO4 2367   6.829   1.919   4.658 -0.0311  0.2343 -0.1466
  162POPC   GL1 2368   6.802   1.782   5.085 -0.1267  0.0234 -0.1164
  162POPC   GL2 2369   6.447   1.811   5.262 -0.0742 -0.0719  0.1121
  162POPC   C1A 2370   6.929   1.662   5.501  0.2378  0.0369 -0.1387
  162POPC   D2A 2371   6.960   1.333   5.776  0.0391 -0.1054 -0.1198
  162POPC   C3A 2372   6.740   1.297   6.051  0.1846  0.1618 -0.1283
  162POPC   C4A 2373   6.560   1.162   6.440 -0.2181  0.3932  0.3080
  162POPC   C1B 2374   6.516   1.987   5.673 -0.1739  0.3710 -0.1544
  162POPC   C2B 2375   6.787   1.860   6.072  0.0308  0.2696  0.1311
  162POPC   C3B 2376   6.962   1.576   6.393 -0.1599  0.1282  0.1820
  162POPC   C4B 2377   7.009   1.241   6.755 -0.0654 -0.1516 -0.0023
  163POPC   NC3 2378   3.836   9.157   4.479 -0.1669  0.1159  0.4916
  163POPC   PO4 2379   3.739   8.963   4.753 -0.0376 -0.0301  0.0539
  163POPC   GL1 2380   3.571   9.006   5.163 -0.0923  0.0081 -0.0532
  163POPC   GL2 2381   3.404   9.313   5.259  0.1335  0.0230 -0.1493
  163POPC   C1A 2382   3.637   9.097   5.683  0.0508 -0.2338 -0.1040
  163POPC   D2A 2383   3.553   9.264   6.106  0.0660  0.2802  0.1389
  163POPC   C3A 2384   3.721   9.327   6.472  0.2429 -0.0803  0.2928
  163POPC   C4A 2385   3.640   9.476   6.861  0.1687  0.0497 -0.0627
  163POPC   C1B 2386   3.239   9.410   5.686 -0.1860  0.2156  0.1075
  163POPC   C2B 2387   3.108   9.547   6.074 -0.0282  0.1103 -0.0368
  163POPC   C3B 2388   3.241   9.426   6.405  0.5468 -0.3020  0.0453
  163POPC   C4B 2389   3.227   9.824   6.737 -0.0681  0.1771 -0.3329
  164POPC   NC3 2390   2.345   6.671   4.048  0.0970  0.1324  0.1467
  164POPC   PO4 2391   2.657   6.366   4.081  0.0666 -0.4618  0.0074
  164POPC   GL1 2392   2.651   6.276   4.482 -0.0206 -0.2484  0.3311
  164POPC   GL2 2393   2.312   6.181   4.492 -0.2529  0.1096  0.0413
  164POPC   C1A 2394   2.669   6.357   4.856 -0.0132  0.0945 -0.1621
  164POPC   D2A 2395   2.646   6.379   5.262 -0.0145 -0.0330  0.1562
  164POPC   C3A 2396   2.359   6.455   5.635  0.2290 -0.0227  0.2505
  164POPC   C4A 2397   2.118   6.210   5.861 -0.3228  0.0112 -0.2659
  164POPC   C1B 2398   2.388   5.878   4.876  0.0400  0.1342 -0.4825
  164POPC   C2B 2399   2.721   5.889   5.273 -0.1565  0.1774  0.2492
  164POPC   C3B 2400   2.835   5.617   5.586 -0.0370 -0.0844 -0.2803
  164POPC   C4B 2401   2.734   5.369   5.930  0.1398  0.1598  0.0482
  165POPC   NC3 2402   9.575   6.700   4.806 -0.1443 -0.2046 -0.3241
  165POPC   PO4 2403   9.493   6.280   4.877 -0.3426 -0.2925  0.5208
  165POPC   GL1 2404   9.610   6.471   5.304  0.0026  0.0270  0.2073
  165POPC   GL2 2405   9.805   6.735   5.372  0.3796  0.0322 -0.0003
  165POPC   C1A 2406   9.774   6.243   5.672 -0.1654 -0.1656  0.1045
  165POPC   D2A 2407  10.056   5.824   5.656  0.0956  0.2224  0.2513
  165POPC   C3A 2408  10.560   5.906   5.675 -0.0289  0.0357  0.1490
  165POPC   C4A 2409  10.776   6.112   6.058 -0.0190  0.3431 -0.2172
  165POPC   C1B 2410   9.911   6.832   5.827  0.2430 -0.0958 -0.1275
  165POPC   C2B 2411   9.958   6.540   6.147  0.0417  0.2213 -0.0789
  165POPC   C3B 2412  10.123   6.330   6.525 -0.2050 -0.3533 -0.3427
  165POPC   C4B 2413  10.474   6.343   6.700 -0.0901 -0.1106  0.0294
  166POPC   NC3 2414   5.397   6.277   4.534  0.0361  0.2472  0.0584
  166POPC   PO4 2415   5.732   6.010   4.673 -0.3014 -0.0758 -0.0744
  166POPC   GL1 2416   5.572   6.024   5.037 -0.1905  0.2739  0.2943
  166POPC   GL2 2417   5.275   6.285   5.112  0.1599 -0.1477 -0.0678
  166POPC   C1A 2418   5.760   6.172   5.439  0.2862  0.2058  0.0093
  166POPC   D2A 2419   5.864   6.061   5.873 -0.1433  0.1965 -0.0306
  166POPC   C3A 2420   5.673   6.100   6.148 -0.1769 -0.1813 -0.4548
  166POPC   C4A 2421   5.653   5.854   6.486 -0.1507  0.2642  0.3839
  166POPC   C1B 2422   5.086   5.960   5.351 -0.3237 -0.2039  0.0504
  166POPC   C2B 2423   4.901   5.737   5.709 -0.1178  0.2698  0.3048
  166POPC   C3B 2424   4.906   5.542   6.132  0.0828 -0.1024  0.1250
  166POPC   C4B 2425   4.916   5.474   6.549  0.0336 -0.1382 -0.0377
  167POPC   NC3 2426   5.177   8.437   5.001  0.1014  0.3979  0.2253
  167POPC   PO4 2427   5.347   8.042   5.020  0.2745 -0.1753  0.1736
  167POPC   GL1 2428   5.373   8.230   5.436  0.1905  0.0076  0.5199
  167POPC   GL2 2429   5.702   8.275   5.410  0.0926  0.1512  0.0474
  167POPC   C1A 2430   5.200   8.267   5.905  0.0016 -0.3778  0.2150
  167POPC   D2A 2431   5.239   8.358   6.372  0.2782 -0.0902 -0.0919
  167POPC   C3A 2432   5.466   8.236   6.793  0.2331 -0.3122 -0.0521
  167POPC   C4A 2433   5.358   7.894   7.065 -0.3818  0.1558  0.0699
  167POPC   C1B 2434   6.079   7.926   5.585 -0.0309  0.0586  0.0288
  167POPC   C2B 2435   6.402   7.682   5.835 -0.0181  0.1844  0.3032
  167POPC   C3B 2436   6.558   7.742   6.221 -0.2077  0.0352 -0.0797
  167POPC   C4B 2437   6.962   7.689   6.460 -0.1910 -0.5067  0.3003
  168POPC   NC3 2438   4.179   7.496   4.971 -0.3178 -0.1813 -0.1442
  168POPC   PO4 2439   4.218   7.025   4.765 -0.0851 -0.0536 -0.1110
  168POPC   GL1 2440   4.152   6.700   5.047 -0.1880  0.0210 -0.0062
  168POPC   GL2 2441   4.337   6.515   4.908 -0.0715 -0.1147  0.0760
  168POPC   C1A 2442   4.119   6.170   5.119 -0.0322  0.0486 -0.0337
  168POPC   D2A 2443   3.948   5.807   5.372  0.1523  0.3581  0.1593
  168POPC   C3A 2444   3.742   5.511   5.242 -0.2664 -0.1942 -0.1423
  168POPC   C4A 2445   3.728   5.118   5.326 -0.2188 -0.1633 -0.2196
  168POPC   C1B 2446   4.612   6.485   5.333 -0.0820  0.0309 -0.3994
  168POPC   C2B 2447   4.809   6.249   5.610  0.0386 -0.3165  0.1006
  168POPC   C3B 2448   4.697   6.082   5.994  0.1675  0.2992  0.1086
  168POPC   C4B 2449   4.763   6.062   6.356  0.1878 -0.1968  0.0458
  169POPC   NC3 2450   4.713   1.473   4.149  0.1476  0.1096 -0.2248
  169POPC   PO4 2451   4.697   1.931   4.158  0.3905 -0.0895  0.3043
  169POPC   GL1 2452   4.823   2.225   4.474  0.0809 -0.2350  0.0432
  169POPC   GL2 2453   5.138   2.273   4.411  0.2641  0.0099 -0.2088
  169POPC   C1A 2454   4.829   2.266   4.958  0.2126  0.0834 -0.1422
  169POPC   D2A 2455   4.660   2.334   5.335 -0.5174 -0.0185 -0.1792
  169POPC   C3A 2456   4.242   2.325   5.598  0.1352 -0.1478 -0.0445
  169POPC   C4A 2457   4.059   2.643   5.706 -0.0049 -0.1280  0.2526
  169POPC   C1B 2458   5.009   2.698   4.632  0.0049 -0.1424  0.0416
  169POPC   C2B 2459   5.013   3.112   4.652 -0.0037  0.1257 -0.0062
  169POPC   C3B 2460   5.162   3.446   4.695 -0.1653  0.1418  0.0426
  169POPC   C4B 2461   5.531   3.788   4.621 -0.3946 -0.0277 -0.1228
  170POPC   NC3 2462   5.966   0.865   4.650 -0.1791  0.0007  0.1223
  170POPC   PO4 2463   5.732   0.595   4.919  0.0083  0.2111  0.1178
  170POPC   GL1 2464   5.790   0.578   5.296 -0.2431 -0.1987  0.0231
  170POPC   GL2 2465   6.024   0.781   5.402  0.2244 -0.0846 -0.1191
  170POPC   C1A 2466   5.725   0.339   5.612  0.1344 -0.0897  0.0398
  170POPC   D2A 2467   5.910   0.204   5.907 -0.0819  0.1648  0.3189
  170POPC   C3A 2468   5.857   0.464   6.237 -0.2066  0.0574 -0.0129
  170POPC   C4A 2469   5.867   0.511   6.755  0.2357  0.0693 -0.0388
  170POPC   C1B 2470   5.843   0.811   5.828 -0.0339  0.0344  0.0834
  170POPC   C2B 2471   5.509   0.646   5.942  0.1536  0.0676 -0.1559
  170POPC   C3B 2472   5.104   0.890   6.078 -0.1305 -0.0803  0.1668
  170POPC   C4B 2473   4.998   1.170   6.332  0.0342  0.1192  0.1449
  171POPC   NC3 2474   7.211   5.006   4.779 -0.0259  0.1103 -0.0137
  171POPC   PO4 2475   7.191   5.491   4.810 -0.1085 -0.2791  0.0117
  171POPC   GL1 2476   7.392   5.400   5.198  0.1058 -0.3726  0.1817
  171POPC   GL2 2477   7.644   5.193   5.153 -0.0149 -0.2639 -0.0042
  171POPC   C1A 2478   7.699   5.557   5.511 -0.0050  0.5150  0.2833
  171POPC   D2A 2479   7.715   5.694   5.946 -0.0338  0.0254  0.2498
  171POPC   C3A 2480   8.144   5.936   6.117  0.1557  0.1751 -0.0372
  171POPC   C4A 2481   8.512   6.213   5.983 -0.2929 -0.0123  0.2296
  171POPC   C1B 2482   7.238   4.973   5.454 -0.0010  0.1903  0.2278
  171POPC   C2B 2483   7.118   4.704   5.770  0.1579  0.1397 -0.0230
  171POPC   C3B 2484   6.852   4.415   6.078  0.1023 -0.3708  0.1368
  171POPC   C4B 2485   6.845   4.252   6.474 -0.0319 -0.2858 -0.1838
  172POPC   NC3 2486   5.920   3.065   3.088  0.0196  0.2999 -0.2687
  172POPC   PO4 2487   5.730   3.212   3.440  0.4822 -0.2097  0.5330
  172POPC   GL1 2488   5.419   3.267   3.774  0.4792 -0.0870 -0.0777
  172POPC   GL2 2489   5.556   2.973   3.868  0.0090 -0.1205 -0.0113
  172POPC   C1A 2490   5.245   3.648   3.878  0.0267 -0.3552  0.3033
  172POPC   D2A 2491   5.028   4.040   3.856 -0.0127 -0.1472  0.1422
  172POPC   C3A 2492   5.098   4.433   4.190  0.0259  0.4233 -0.1598
  172POPC   C4A 2493   5.240   4.487   4.539  0.0193  0.0489 -0.0002
  172POPC   C1B 2494   5.786   2.950   4.192  0.1697 -0.1003 -0.1714
  172POPC   C2B 2495   5.968   2.935   4.526  0.1580 -0.0716 -0.1922
  172POPC   C3B 2496   6.129   3.038   4.857 -0.0181 -0.3096 -0.0124
  172POPC   C4B 2497   6.490   3.020   5.096 -0.2577 -0.3671 -0.0811
  173POPC   NC3 2498   4.331   8.488   4.756  0.3437  0.2166  0.1893
  173POPC   PO4 2499   4.187   8.358   5.202 -0.1215 -0.6370 -0.2186
  173POPC   GL1 2500   4.153   7.898   5.438 -0.0802  0.3579  0.3946
  173POPC   GL2 2501   4.437   8.067   5.488 -0.0314 -0.2602  0.0034
  173POPC   C1A 2502   4.103   7.700   5.799  0.4631 -0.1081  0.3545
  173POPC   D2A 2503   4.139   7.705   6.207  0.1250  0.3142 -0.0710
  173POPC   C3A 2504   4.395   8.104   6.480  0.2716  0.1359 -0.0887
  173POPC   C4A 2505   4.573   8.479   6.720  0.1193  0.0260  0.0045
  173POPC   C1B 2506   4.215   8.198   5.880  0.1560  0.1526 -0.0093
  173POPC   C2B 2507   4.105   8.480   6.144 -0.0532 -0.2708 -0.1214
  173POPC   C3B 2508   3.879   8.359   6.555  0.0506 -0.0314 -0.1683
  173POPC   C4B 2509   4.008   8.048   6.878  0.2452  0.1353 -0.0504
  174POPC   NC3 2510   1.346   0.673   4.825  0.1771  0.2280  0.1647
  174POPC   PO4 2511   1.205   1.042   4.705  0.1291 -0.0537  0.2050
  174POPC   GL1 2512   1.328   1.055   5.175  0.2545 -0.0840  0.1212
  174POPC   GL2 2513   1.319   0.693   5.363 -0.0858 -0.0496 -0.0233
  174POPC   C1A 2514   1.344   1.115   5.583 -0.0449 -0.1596 -0.1313
  174POPC   D2A 2515   1.262   1.263   5.984 -0.4179 -0.1035 -0.0835
  174POPC   C3A 2516   1.614   1.221   6.238  0.2201  0.0408  0.2425
  174POPC   C4A 2517   1.629   1.064   6.548  0.3663  0.1824 -0.0660
  174POPC   C1B 2518   1.655   0.487   5.660  0.3314 -0.0524 -0.2246
  174POPC   C2B 2519   1.996   0.139   5.718 -0.3430 -0.2840  0.3001
  174POPC   C3B 2520   2.202  -0.191   5.760 -0.1660  0.3115 -0.5130
  174POPC   C4B 2521   2.567  -0.369   6.034 -0.1612  0.0266 -0.0664
  175POPC   NC3 2522   9.401   5.731   4.577  0.1571  0.1642 -0.0744
  175POPC   PO4 2523   9.759   5.508   4.605  0.1949 -0.1682 -0.0481
  175POPC   GL1 2524   9.897   5.559   5.065 -0.0345  0.3377 -0.0488
  175POPC   GL2 2525   9.894   5.321   5.332 -0.0249 -0.0781  0.2374
  175POPC   C1A 2526   9.595   5.847   5.363  0.0179  0.0070 -0.2318
  175POPC   D2A 2527   9.393   5.881   5.790 -0.3849 -0.3054  0.0522
  175POPC   C3A 2528   9.282   6.236   5.963  0.0228  0.1218 -0.0164
  175POPC   C4A 2529   9.114   6.377   6.322  0.2045  0.0835  0.1465
  175POPC   C1B 2530   9.579   5.358   5.597  0.0837  0.2004  0.0143
  175POPC   C2B 2531   9.268   5.469   5.978  0.1574  0.1688  0.1455
  175POPC   C3B 2532   9.306   5.815   6.327  0.0688 -0.4312  0.0627
  175POPC   C4B 2533   9.352   6.063   6.686 -0.2447 -0.2495  0.2588
  176POPC   NC3 2534   7.899   2.971   4.645  0.1256 -0.1902  0.0651
  176POPC   PO4 2535   7.520   2.818   4.465 -0.1389 -0.1891 -0.2150
  176POPC   GL1 2536   7.409   2.822   4.904  0.2451  0.1638 -0.1066
  176POPC   GL2 2537   7.611   3.085   5.040 -0.0050  0.0720 -0.1217
  176POPC   C1A 2538   7.355   2.695   5.302  0.4049 -0.0122  0.0256
  176POPC   D2A 2539   6.957   2.641   5.536 -0.1041  0.3109 -0.0544
  176POPC   C3A 2540   6.844   2.893   5.856 -0.2144 -0.0490 -0.1469
  176POPC   C4A 2541   6.471   2.827   6.156 -0.1004  0.1221 -0.0311
  176POPC   C1B 2542   7.745   3.110   5.525  0.0931 -0.0077  0.2363
  176POPC   C2B 2543   7.851   3.143   5.924 -0.2090  0.2727 -0.6105
  176POPC   C3B 2544   8.125   3.312   6.179 -0.0974  0.0012 -0.0341
  176POPC   C4B 2545   8.382   3.447   6.496 -0.1882  0.1203 -0.2830
  177POPC   NC3 2546   2.966   2.792   3.446 -0.1646  0.2088  0.0699
  177POPC   PO4 2547   2.863   3.213   3.630  0.0547 -0.2409  0.0070
  177POPC   GL1 2548   2.719   3.388   3.979 -0.3071 -0.2691  0.1294
  177POPC   GL2 2549   2.455   3.370   4.129 -0.1005  0.0734 -0.1605
  177POPC   C1A 2550   2.941   3.687   4.233 -0.0245  0.0376  0.0820
  177POPC   D2A 2551   3.007   3.826   4.706 -0.2290 -0.2441 -0.0807
  177POPC   C3A 2552   3.429   3.688   4.770 -0.1773  0.4131  0.0538
  177POPC   C4A 2553   3.840   3.735   4.932  0.1310  0.0634 -0.3153
  177POPC   C1B 2554   2.651   3.449   4.558 -0.0532 -0.0152 -0.2164
  177POPC   C2B 2555   2.904   3.463   5.058  0.0849 -0.0488 -0.3196
  177POPC   C3B 2556   3.150   3.519   5.239 -0.0267  0.3245  0.0529
  177POPC   C4B 2557   3.521   3.681   5.280  0.0583  0.0747 -0.2203
  178POPC   NC3 2558   9.651   1.790   4.542 -0.1830  0.2860  0.3300
  178POPC   PO4 2559   9.329   2.045   4.618 -0.1620 -0.0863  0.1309
  178POPC   GL1 2560   9.385   2.082   4.949  0.1282  0.3034  0.1065
  178POPC   GL2 2561   9.779   1.991   5.010  0.0016  0.0709  0.0749
  178POPC   C1A 2562   9.473   2.183   5.403  0.2880 -0.0030 -0.0125
  178POPC   D2A 2563   9.612   2.163   5.847 -0.0082 -0.1262 -0.0820
  178POPC   C3A 2564   9.579   1.897   6.163 -0.3139 -0.0179 -0.1594
  178POPC   C4A 2565   9.043   2.108   6.237  0.2003  0.0858 -0.0164
  178POPC   C1B 2566   9.976   2.276   5.209  0.2464 -0.1019  0.0413
  178POPC   C2B 2567  10.242   2.555   5.521  0.2222 -0.4209  0.0995
  178POPC   C3B 2568  10.502   2.449   5.858 -0.3710 -0.1597 -0.0249
  178POPC   C4B 2569  10.831   2.246   6.125 -0.1405  0.3339 -0.0225
  179POPC   NC3 2570   2.376   7.910   5.236 -0.0782  0.1302  0.2419
  179POPC   PO4 2571   2.551   8.344   5.204  0.1306 -0.0919 -0.2058
  179POPC   GL1 2572   2.654   8.263   5.588  0.0422 -0.0073  0.1887
  179POPC   GL2 2573   2.838   8.040   5.579  0.3437  0.1052  0.1892
  179POPC   C1A 2574   2.913   8.560   5.995 -0.1661 -0.1685  0.1484
  179POPC   D2A 2575   2.942   8.577   6.422 -0.0583  0.0253 -0.0349
  179POPC   C3A 2576   2.970   8.099   6.680  0.3622  0.1666 -0.2131
  179POPC   C4A 2577   3.366   7.987   6.809 -0.2343 -0.0945  0.4903
  179POPC   C1B 2578   3.205   8.223   5.714 -0.0521 -0.0456 -0.0668
  179POPC   C2B 2579   3.604   8.088   6.063  0.0399 -0.0756  0.2589
  179POPC   C3B 2580   3.666   7.901   6.443 -0.1865  0.0502 -0.3919
  179POPC   C4B 2581   3.662   7.558   6.797  0.1156  0.0727 -0.1137
  180POPC   NC3 2582   5.521   4.928   3.277 -0.0794 -0.1469 -0.4255
  180POPC   PO4 2583   5.799   5.169   3.591 -0.2101 -0.0813  0.2039
  180POPC   GL1 2584   5.628   4.934   3.943 -0.0850 -0.0949 -0.0483
  180POPC   GL2 2585   5.951   4.986   4.111 -0.1539  0.0951  0.4027
  180POPC   C1A 2586   5.478   4.940   4.316 -0.1003  0.1312 -0.0802
  180POPC   D2A 2587   5.892   5.094   4.561 -0.0744 -0.2712 -0.3033
  180POPC   C3A 2588   5.961   5.068   5.084  0.3658 -0.3053  0.0524
  180POPC   C4A 2589   5.820   5.223   5.383  0.0098 -0.1727 -0.1276
  180POPC   C1B 2590   6.023   4.564   4.225  0.1283 -0.1512  0.1704
  180POPC   C2B 2591   6.131   4.084   4.231 -0.0037 -0.0939  0.3295
  180POPC   C3B 2592   6.026   3.912   4.613 -0.4009  0.0451  0.2332
  180POPC   C4B 2593   6.172   3.945   4.984 -0.0567  0.1538 -0.2330
  181POPC   NC3 2594   1.227   9.769   5.110  0.1928 -0.1144  0.0926
  181POPC   PO4 2595   1.122  10.214   5.140  0.0449  0.0607  0.4791
  181POPC   GL1 2596   1.148  10.144   5.587 -0.1184  0.1661  0.0865
  181POPC   GL2 2597   1.100   9.814   5.565  0.0192  0.2438  0.2834
  181POPC   C1A 2598   1.103  10.174   6.062  0.0584 -0.0649 -0.2042
  181POPC   D2A 2599   1.336  10.087   6.466  0.5000 -0.1194 -0.0427
  181POPC   C3A 2600   1.685  10.384   6.571  0.1961  0.2409 -0.0325
  181POPC   C4A 2601   1.695  10.545   6.944  0.3537  0.1293  0.1382
  181POPC   C1B 2602   0.944   9.732   5.906  0.1375  0.0515 -0.1031
  181POPC   C2B 2603   1.029   9.747   6.304  0.2009  0.0233  0.1204
  181POPC   C3B 2604   0.740   9.921   6.542  0.0890 -0.1335 -0.7159
  181POPC   C4B 2605   0.427  10.171   6.722 -0.0338  0.0412 -0.0174
  182POPC   NC3 2606   5.348   9.876   4.634 -0.2525 -0.1759  0.2363
  182POPC   PO4 2607   5.582   9.502   4.468 -0.1816 -0.0113 -0.3205
  182POPC   GL1 2608   5.608   9.585   4.945  0.5565 -0.1160  0.1063
  182POPC   GL2 2609   5.760   9.981   5.015  0.3922  0.1401 -0.0498
  182POPC   C1A 2610   5.448   9.348   5.340  0.2258  0.1863  0.1666
  182POPC   D2A 2611   5.463   9.244   5.760 -0.0945 -0.1175  0.0309
  182POPC   C3A 2612   5.471   9.437   6.158  0.0494 -0.3836 -0.1656
  182POPC   C4A 2613   5.341   9.693   6.514  0.0960  0.2478 -0.3376
  182POPC   C1B 2614   5.775   9.821   5.361  0.0326  0.1715 -0.3626
  182POPC   C2B 2615   5.808   9.666   5.743  0.0860  0.0321  0.1192
  182POPC   C3B 2616   5.862   9.704   6.189  0.0605  0.0101  0.0629
  182POPC   C4B 2617   6.112   9.456   6.425 -0.1921  0.0718 -0.1574
  183POPC   NC3 2618   0.790   6.858   5.095 -0.0491 -0.0254 -0.2027
  183POPC   PO4 2619   0.958   7.314   5.105  0.0069 -0.2302  0.2772
  183POPC   GL1 2620   1.213   7.258   5.388 -0.0532 -0.1233 -0.1773
  183POPC   GL2 2621   1.314   6.960   5.388 -0.0427  0.0030 -0.3239
  183POPC   C1A 2622   1.253   7.243   5.935 -0.0168  0.0833  0.0907
  183POPC   D2A 2623   1.296   7.322   6.456  0.1427  0.1008 -0.1656
  183POPC   C3A 2624   1.664   7.462   6.700 -0.0424 -0.0717  0.1232
  183POPC   C4A 2625   1.917   7.773   6.634 -0.3145  0.0501 -0.1192
  183POPC   C1B 2626   1.485   6.799   5.706  0.1752  0.0201 -0.2228
  183POPC   C2B 2627   1.593   6.495   5.930  0.2457  0.2516  0.2048
  183POPC   C3B 2628   1.562   6.045   6.176 -0.1310  0.0715 -0.1024
  183POPC   C4B 2629   1.614   5.739   6.592 -0.0680 -0.1347  0.0121
  184POPC   NC3 2630   0.111   3.464   4.515 -0.0036  0.2930 -0.2113
  184POPC   PO4 2631  -0.236   3.714   4.298  0.1480 -0.0026  0.0510
  184POPC   GL1 2632  -0.084   3.915   4.546  0.2029 -0.0812  0.0966
  184POPC   GL2 2633  -0.257   4.245   4.648 -0.1981  0.1771 -0.0859
  184POPC   C1A 2634   0.126   3.931   4.983  0.2204 -0.0255  0.0975
  184POPC   D2A 2635   0.303   4.088   5.358 -0.0710  0.0727 -0.0866
  184POPC   C3A 2636   0.018   4.290   5.772  0.2569 -0.0893 -0.0248
  184POPC   C4A 2637   0.036   4.616   5.985  0.1892  0.2509 -0.3674
  184POPC   C1B 2638  -0.095   4.336   4.985  0.2217 -0.2005 -0.1380
  184POPC   C2B 2639   0.150   4.554   5.354  0.2826  0.0305  0.2084
  184POPC   C3B 2640  -0.014   4.951   5.584 -0.0588  0.0196 -0.0712
  184POPC   C4B 2641  -0.181   5.068   6.060 -0.1200  0.0437 -0.0671
  185POPC   NC3 2642   7.794   8.299   3.971 -0.0246 -0.0311  0.1662
  185POPC   PO4 2643   7.720   8.160   4.364  0.0907 -0.3410  0.1881
  185POPC   GL1 2644   7.809   8.179   4.731  0.2800 -0.0193  0.0374
  185POPC   GL2 2645   8.051   8.308   4.930  0.3497 -0.2228  0.0773
  185POPC   C1A 2646   7.592   8.060   5.089  0.1311  0.0511  0.1624
  185POPC   D2A 2647   7.476   8.173   5.497 -0.2447 -0.0821 -0.0969
  185POPC   C3A 2648   7.139   8.012   5.615 -0.0076  0.0368 -0.1156
  185POPC   C4A 2649   6.947   7.877   5.960 -0.1139  0.0834  0.0988
  185POPC   C1B 2650   7.992   8.258   5.430 -0.2692  0.0714 -0.1316
  185POPC   C2B 2651   7.811   8.158   5.845 -0.0359 -0.0332  0.0715
  185POPC   C3B 2652   7.891   7.807   6.214  0.2075  0.3348  0.0004
  185POPC   C4B 2653   7.920   7.453   6.405  0.1456  0.1315  0.3878
  186POPC   NC3 2654   9.446   2.921   4.295  0.0491  0.2110  0.3217
  186POPC   PO4 2655   9.511   3.296   4.554 -0.2480  0.0229  0.0214
  186POPC   GL1 2656   9.218   3.199   4.958 -0.1301  0.0248  0.1369
  186POPC   GL2 2657   9.089   2.892   4.999 -0.1978 -0.0480 -0.1250
  186POPC   C1A 2658   9.064   3.252   5.406  0.0423 -0.3591  0.0601
  186POPC   D2A 2659   9.074   3.212   5.776 -0.1159 -0.2352 -0.2002
  186POPC   C3A 2660   9.205   2.843   5.904 -0.1382  0.0955  0.0793
  186POPC   C4A 2661   9.231   2.474   5.790  0.2201 -0.2385 -0.2102
  186POPC   C1B 2662   9.342   2.772   5.377 -0.0906  0.2875  0.5577
  186POPC   C2B 2663   9.695   2.556   5.525  0.0237  0.0793 -0.1025
  186POPC   C3B 2664   9.893   2.571   5.869 -0.1030 -0.0427  0.0002
  186POPC   C4B 2665  10.289   2.834   6.026 -0.1287  0.0559  0.0065
  187POPC   NC3 2666   5.483   8.621   4.481  0.2074 -0.1351 -0.0469
  187POPC   PO4 2667   5.988   8.688   4.556  0.2969 -0.1492 -0.1129
  187POPC   GL1 2668   6.338   8.698   4.860  0.0694  0.0372 -0.0111
  187POPC   GL2 2669   6.085   8.789   5.128  0.2054 -0.0304  0.1043
  187POPC   C1A 2670   6.645   8.886   5.162  0.2036 -0.0729 -0.1043
  187POPC   D2A 2671   6.590   8.869   5.665 -0.1822  0.2340 -0.0410
  187POPC   C3A 2672   6.633   9.305   5.988  0.1613  0.2219 -0.0692
  187POPC   C4A 2673   6.666   9.479   6.384 -0.0271 -0.1572  0.1882
  187POPC   C1B 2674   5.717   8.857   5.269  0.0736  0.1943 -0.0361
  187POPC   C2B 2675   5.563   8.673   5.640  0.2390 -0.1628  0.4297
  187POPC   C3B 2676   5.642   8.494   6.020  0.2260 -0.3896 -0.1507
  187POPC   C4B 2677   5.727   8.202   6.341  0.1771 -0.1266 -0.0160
  188POPC   NC3 2678   2.440   9.704   4.500  0.2149 -0.0915 -0.0653
  188POPC   PO4 2679   2.325   9.965   4.843 -0.1475  0.1436  0.0824
  188POPC   GL1 2680   2.125  10.121   5.248  0.1028  0.1216 -0.4590
  188POPC   GL2 2681   2.391  10.252   5.229  0.2889 -0.1993 -0.3231
  188POPC   C1A 2682   2.090  10.541   5.449 -0.2262  0.2732  0.0424
  188POPC   D2A 2683   2.219  10.531   5.782 -0.3351 -0.0211 -0.1208
  188POPC   C3A 2684   2.346  10.100   6.008 -0.1551 -0.1856  0.1595
  188POPC   C4A 2685   2.321   9.790   6.409  0.2635 -0.1995 -0.0313
  188POPC   C1B 2686   2.630  10.292   5.548  0.1455 -0.1100 -0.1747
  188POPC   C2B 2687   2.701  10.585   5.967  0.3445  0.2392  0.1465
  188POPC   C3B 2688   2.721  10.368   6.391  0.2622  0.0629  0.0388
  188POPC   C4B 2689   2.730   9.980   6.621  0.0878 -0.1506  0.2434
  189POPC   NC3 2690   6.558   9.552   4.582 -0.0467  0.2265 -0.1999
  189POPC   PO4 2691   6.946   9.754   4.595 -0.0603 -0.0714  0.1294
  189POPC   GL1 2692   7.271   9.745   4.902  0.0795  0.0263 -0.2702
  189POPC   GL2 2693   7.097   9.743   5.226 -0.0939  0.1611  0.4081
  189POPC   C1A 2694   7.526   9.508   5.238  0.0228  0.1035 -0.0961
  189POPC   D2A 2695   7.674   9.481   5.587  0.0576  0.0738  0.0235
  189POPC   C3A 2696   7.758   9.427   5.995 -0.1254  0.0997 -0.0509
  189POPC   C4A 2697   8.065   9.199   6.094 -0.0770  0.0535 -0.0854
  189POPC   C1B 2698   7.265   9.786   5.551  0.0073 -0.2419  0.2054
  189POPC   C2B 2699   7.355   9.783   5.922 -0.3672  0.0403  0.1374
  189POPC   C3B 2700   7.449   9.709   6.311 -0.2816  0.1130 -0.1382
  189POPC   C4B 2701   7.827   9.764   6.565 -0.2903 -0.0457 -0.2389
  190POPC   NC3 2702   3.093   1.006   4.683 -0.0442 -0.1115  0.0310
  190POPC   PO4 2703   3.068   0.568   4.669 -0.0455 -0.2400 -0.0953
  190POPC   GL1 2704   3.201   0.523   5.002  0.1891  0.0961  0.1563
  190POPC   GL2 2705   3.403   0.781   4.964  0.0308 -0.1511 -0.0723
  190POPC   C1A 2706   3.171   0.480   5.483  0.1024  0.1859 -0.0467
  190POPC   D2A 2707   3.131   0.443   5.899  0.2587  0.0514 -0.1038
  190POPC   C3A 2708   3.236   0.659   6.273  0.0267 -0.3451  0.0440
  190POPC   C4A 2709   3.352   0.990   6.616 -0.1531  0.3159 -0.1586
  190POPC   C1B 2710   3.567   0.709   5.302 -0.1782  0.0582  0.2471
  190POPC   C2B 2711   3.560   0.775   5.781  0.0656 -0.5703 -0.1843
  190POPC   C3B 2712   3.626   1.076   6.125  0.0324  0.0732  0.1140
  190POPC   C4B 2713   3.676   1.477   6.231  0.0711 -0.1069  0.0553
  191POPC   NC3 2714   6.105   7.901   4.686 -0.2099  0.0664 -0.0067
  191POPC   PO4 2715   6.272   8.261   4.566 -0.0598 -0.1420 -0.1691
  191POPC   GL1 2716   6.256   8.255   5.032 -0.2619  0.1095  0.0899
  191POPC   GL2 2717   6.504   8.297   5.130 -0.0968 -0.4280 -0.0385
  191POPC   C1A 2718   6.136   8.445   5.544  0.1423  0.2505  0.0995
  191POPC   D2A 2719   6.128   8.610   5.865 -0.1873 -0.1066 -0.0180
  191POPC   C3A 2720   6.461   8.573   6.125  0.1560  0.0170  0.0404
  191POPC   C4A 2721   6.731   8.246   6.350 -0.0274  0.1791 -0.0872
  191POPC   C1B 2722   6.825   8.407   5.431 -0.2237 -0.3127  0.5246
  191POPC   C2B 2723   6.966   8.402   5.871  0.2369 -0.1671  0.1035
  191POPC   C3B 2724   7.160   8.576   6.328  0.0745 -0.1144  0.1860
  191POPC   C4B 2725   7.230   8.733   6.734 -0.2453 -0.1817 -0.0229
  192POPC   NC3 2726   4.274   9.709   4.294  0.0000  0.3463  0.1549
  192POPC   PO4 2727   4.224   9.456   4.681 -0.0540 -0.2174 -0.0125
  192POPC   GL1 2728   4.371   9.314   5.097  0.2214 -0.2919 -0.2196
  192POPC   GL2 2729   4.196   9.480   5.450 -0.2353 -0.1248  0.0429
  192POPC   C1A 2730   4.514   9.098   5.483  0.1446  0.0577 -0.3227
  192POPC   D2A 2731   4.501   8.684   5.691  0.3050 -0.1258 -0.1455
  192POPC   C3A 2732   4.590   8.504   6.121  0.0830 -0.1799 -0.0299
  192POPC   C4A 2733   4.794   8.154   6.164  0.0561 -0.0099 -0.6073
  192POPC   C1B 2734   4.484   9.483   5.827  0.4434 -0.0587  0.0340
  192POPC   C2B 2735   4.811   9.401   6.117  0.1354  0.0138 -0.0197
  192POPC   C3B 2736   5.062   9.254   6.457 -0.0833  0.0567  0.0740
  192POPC   C4B 2737   5.446   9.249   6.726 -0.1066  0.0524 -0.2911
  193POPC   NC3 2738   4.605   5.694   3.404  0.1456 -0.0098 -0.1706
  193POPC   PO4 2739   4.806   5.563   3.780  0.1291 -0.0062  0.2350
  193POPC   GL1 2740   4.718   5.581   4.164  0.0329  0.1160 -0.0511
  193POPC   GL2 2741   4.329   5.646   4.258  0.1441 -0.0378  0.0508
  193POPC   C1A 2742   4.886   5.407   4.615 -0.1834 -0.0060 -0.0808
  193POPC   D2A 2743   5.153   5.065   4.783 -0.2770  0.0679 -0.1616
  193POPC   C3A 2744   5.074   4.620   5.002  0.0176  0.0327  0.1120
  193POPC   C4A 2745   5.262   4.216   4.985 -0.0041  0.2606 -0.0471
  193POPC   C1B 2746   4.283   5.498   4.642  0.0349  0.1272  0.2576
  193POPC   C2B 2747   4.300   5.591   5.108 -0.1396  0.0907  0.2297
  193POPC   C3B 2748   4.546   5.445   5.451  0.2514  0.1370  0.3374
  193POPC   C4B 2749   4.595   5.229   5.834 -0.2406 -0.0652  0.0193
  194POPC   NC3 2750   2.411   8.737   4.552  0.3596  0.1234  0.0325
  194POPC   PO4 2751   2.039   8.966   4.760 -0.0310  0.0125  0.0347
  194POPC   GL1 2752   1.988   9.161   5.198  0.1724  0.0803 -0.0065
  194POPC   GL2 2753   1.787   8.908   5.358 -0.0347 -0.0926 -0.1832
  194POPC   C1A 2754   2.213   9.413   5.369 -0.3094  0.0155  0.2742
  194POPC   D2A 2755   2.474   9.220   5.652 -0.2232 -0.2241 -0.1384
  194POPC   C3A 2756   2.824   9.213   5.821  0.0225  0.2598 -0.0695
  194POPC   C4A 2757   3.148   9.003   6.106  0.2236 -0.1504 -0.1158
  194POPC   C1B 2758   2.026   8.904   5.766 -0.0629 -0.2628  0.3987
  194POPC   C2B 2759   2.085   9.248   6.047 -0.1113 -0.1572 -0.3156
  194POPC   C3B 2760   1.885   9.619   6.183  0.2948 -0.1246 -0.0152
  194POPC   C4B 2761   1.711  10.023   6.098  0.0829 -0.1220 -0.4485
  195POPC   NC3 2762   1.812   8.155   5.077  0.0105 -0.0467  0.2186
  195POPC   PO4 2763   1.373   8.256   5.019  0.0835 -0.0850  0.0120
  195POPC   GL1 2764   1.318   8.035   5.454 -0.0094  0.0073  0.1168
  195POPC   GL2 2765   1.359   7.709   5.513 -0.2639 -0.0879  0.1359
  195POPC   C1A 2766   1.305   8.185   5.910  0.0511  0.0192 -0.2667
  195POPC   D2A 2767   1.230   8.367   6.326 -0.0800  0.0122  0.1594
  195POPC   C3A 2768   0.883   8.311   6.439 -0.2699  0.1287  0.1200
  195POPC   C4A 2769   0.483   8.437   6.577  0.0916 -0.1862  0.0133
  195POPC   C1B 2770   1.516   7.749   5.956  0.0933  0.0136  0.3561
  195POPC   C2B 2771   1.652   7.974   6.300  0.1921 -0.1985 -0.4119
  195POPC   C3B 2772   1.987   8.243   6.433  0.0744  0.3510 -0.1255
  195POPC   C4B 2773   2.045   8.194   6.850  0.1402  0.3046 -0.0709
  196POPC   NC3 2774   4.272   0.256   4.646  0.0876 -0.2858  0.0282
  196POPC   PO4 2775   3.998   0.609   4.372  0.0124  0.1100  0.2584
  196POPC   GL1 2776   3.874   0.947   4.705 -0.0709  0.3982  0.2039
  196POPC   GL2 2777   3.593   1.165   4.617 -0.1625  0.3013  0.0750
  196POPC   C1A 2778   3.934   0.980   5.178  0.0411 -0.1383 -0.0358
  196POPC   D2A 2779   3.766   1.219   5.565  0.1358 -0.2287  0.2272
  196POPC   C3A 2780   3.723   1.738   5.663  0.0840 -0.2310  0.1249
  196POPC   C4A 2781   3.831   2.026   5.419  0.0319 -0.1045  0.0852
  196POPC   C1B 2782   3.452   1.274   5.101 -0.1651 -0.0695 -0.2190
  196POPC   C2B 2783   3.226   1.169   5.444  0.0558 -0.0335  0.0862
  196POPC   C3B 2784   3.281   1.452   5.772 -0.1684 -0.0232 -0.0704
  196POPC   C4B 2785   3.323   1.766   6.000  0.0432 -0.1322 -0.2626
  197POPC   NC3 2786   1.226   2.920   4.146  0.3371 -0.1849 -0.1572
  197POPC   PO4 2787   1.423   2.476   4.198 -0.0349  0.0550  0.1639
  197POPC   GL1 2788   1.299   2.417   4.648 -0.1634 -0.1542  0.3007
  197POPC   GL2 2789   1.017   2.203   4.741  0.1727 -0.3959 -0.1590
  197POPC   C1A 2790   1.104   2.689   4.904 -0.0753 -0.0665 -0.0871
  197POPC   D2A 2791   1.166   2.898   5.209  0.0489  0.1584 -0.2721
  197POPC   C3A 2792   1.473   2.912   5.495  0.1194  0.1793 -0.1497
  197POPC   C4A 2793   1.758   3.226   5.644  0.2331 -0.1824  0.1414
  197POPC   C1B 2794   1.216   2.291   5.193  0.0711 -0.0605  0.0374
  197POPC   C2B 2795   1.326   2.389   5.555  0.2677 -0.1564  0.0182
  197POPC   C3B 2796   1.427   2.098   5.898 -0.1246 -0.0241 -0.1452
  197POPC   C4B 2797   1.344   1.664   5.754 -0.4965  0.0843 -0.1465
  198POPC   NC3 2798   8.991   0.079   4.336  0.1304 -0.0604 -0.2210
  198POPC   PO4 2799   8.741  -0.224   4.644 -0.0417  0.3257 -0.1837
  198POPC   GL1 2800   8.615  -0.363   5.093 -0.0898  0.1263  0.1242
  198POPC   GL2 2801   8.531  -0.107   5.158 -0.0270  0.3895  0.1765
  198POPC   C1A 2802   8.546  -0.740   5.315 -0.0466 -0.1910 -0.2602
  198POPC   D2A 2803   8.520  -0.742   5.766  0.0639  0.0061 -0.0833
  198POPC   C3A 2804   8.462  -1.122   5.994 -0.1006 -0.0372 -0.0050
  198POPC   C4A 2805   8.257  -1.356   6.002  0.3715  0.1372  0.0601
  198POPC   C1B 2806   8.363   0.161   5.332  0.0450 -0.0700 -0.2663
  198POPC   C2B 2807   8.337   0.212   5.698  0.4484  0.0922 -0.4196
  198POPC   C3B 2808   8.570   0.433   5.974  0.1032 -0.0723  0.1610
  198POPC   C4B 2809   8.699   0.843   6.340 -0.1959  0.1594  0.0046
  199POPC   NC3 2810   6.094   5.944   4.080 -0.0102  0.2023  0.0328
  199POPC   PO4 2811   6.033   5.629   4.369  0.0241 -0.0399 -0.0139
  199POPC   GL1 2812   6.088   5.566   4.785  0.0119  0.2518 -0.0409
  199POPC   GL2 2813   6.325   5.433   4.983 -0.1460 -0.5946 -0.1037
  199POPC   C1A 2814   6.033   5.793   5.216  0.1474  0.1935  0.0133
  199POPC   D2A 2815   6.113   5.717   5.637 -0.2564  0.0651  0.2220
  199POPC   C3A 2816   5.757   5.547   5.820 -0.0484  0.2589 -0.3059
  199POPC   C4A 2817   5.441   5.451   6.063  0.1010 -0.1685 -0.0354
  199POPC   C1B 2818   6.306   5.365   5.357 -0.1881 -0.4988 -0.0399
  199POPC   C2B 2819   6.281   5.196   5.779  0.1789  0.4749 -0.1917
  199POPC   C3B 2820   6.147   5.447   6.064 -0.2132 -0.0606 -0.0795
  199POPC   C4B 2821   6.144   5.554   6.457 -0.0251 -0.3041 -0.1591
  200POPC   NC3 2822   0.919   9.385   5.201 -0.2921 -0.0401 -0.3087
  200POPC   PO4 2823   0.792   9.740   4.923  0.4061 -0.1270  0.0029
  200POPC   GL1 2824   0.668   9.851   5.222 -0.2115 -0.0731 -0.1432
  200POPC   GL2 2825   0.327  10.053   5.198 -0.0745  0.6295 -0.1358
  200POPC   C1A 2826   0.633  10.132   5.615  0.3118 -0.1570 -0.0131
  200POPC   D2A 2827   0.593  10.087   5.997  0.0184  0.1665 -0.0870
  200POPC   C3A 2828   0.309  10.465   6.168 -0.1018  0.0888  0.1168
  200POPC   C4A 2829  -0.014  10.638   6.178  0.1380  0.0494  0.4479
  200POPC   C1B 2830   0.080   9.897   5.595 -0.0490  0.1648  0.2963
  200POPC   C2B 2831  -0.113   9.864   5.955  0.1850 -0.4636  0.2143
  200POPC   C3B 2832  -0.390   9.701   6.176 -0.0709  0.0694 -0.0816
  200POPC   C4B 2833  -0.420   9.289   6.390  0.1886 -0.2955  0.1959
  201POPC   NC3 2834   2.743   1.425   4.605  0.0729 -0.2202 -0.3262
  201POPC   PO4 2835   3.227   1.434   4.505  0.0299 -0.1560  0.0096
  201POPC   GL1 2836   3.197   1.642   4.851 -0.2538  0.2189 -0.3027
  201POPC   GL2 2837   2.916   1.436   5.133  0.0751 -0.3870  0.1492
  201POPC   C1A 2838   3.303   1.729   5.339  0.0642 -0.1780 -0.1309
  201POPC   D2A 2839   3.374   2.128   5.532  0.0676 -0.1694 -0.0934
  201POPC   C3A 2840   3.747   2.253   5.859 -0.3504  0.3248  0.1595
  201POPC   C4A 2841   3.824   1.990   6.102 -0.4429  0.4244 -0.2078
  201POPC   C1B 2842   2.801   1.456   5.585  0.0233  0.2999  0.1387
  201POPC   C2B 2843   2.797   1.623   5.958 -0.1480 -0.0026 -0.0989
  201POPC   C3B 2844   2.888   1.859   6.255 -0.2481  0.1563  0.1844
  201POPC   C4B 2845   3.135   2.176   6.210  0.0716  0.1036  0.0405
  202POPC   NC3 2846   6.238   6.054   4.574  0.1078  0.0087  0.2042
  202POPC   PO4 2847   6.515   6.239   4.747 -0.4012  0.1527 -0.0979
  202POPC   GL1 2848   6.573   6.130   5.224 -0.0064 -0.1517 -0.3644
  202POPC   GL2 2849   6.336   6.185   5.473 -0.2587  0.2203  0.0730
  202POPC   C1A 2850   6.681   5.891   5.577 -0.2834  0.1299  0.0077
  202POPC   D2A 2851   6.631   5.554   5.763  0.2450  0.0682  0.1999
  202POPC   C3A 2852   6.582   5.594   6.165  0.1652  0.1933  0.1245
  202POPC   C4A 2853   6.909   5.452   6.375  0.2263  0.1659 -0.2691
  202POPC   C1B 2854   6.361   6.026   5.951 -0.1857 -0.0610 -0.0928
  202POPC   C2B 2855   6.341   6.052   6.424 -0.1952  0.0589 -0.0904
  202POPC   C3B 2856   6.477   6.165   6.779  0.1164  0.1820  0.0042
  202POPC   C4B 2857   6.432   6.513   7.057  0.2336  0.3375  0.1654
  203POPC   NC3 2858   2.807   5.490   3.676 -0.0967  0.0614 -0.2036
  203POPC   PO4 2859   2.823   5.135   3.356  0.2494 -0.1454 -0.0028
  203POPC   GL1 2860   3.145   5.135   3.672 -0.2087  0.1161  0.0570
  203POPC   GL2 2861   3.026   4.977   4.006 -0.1349 -0.1530 -0.1767
  203POPC   C1A 2862   3.465   5.268   4.013 -0.2159 -0.0986  0.1512
  203POPC   D2A 2863   3.757   5.469   4.316  0.0088  0.2107  0.0884
  203POPC   C3A 2864   3.791   5.304   4.739  0.0096  0.1593 -0.1092
  203POPC   C4A 2865   4.171   5.113   5.013  0.1745 -0.0163 -0.0773
  203POPC   C1B 2866   3.153   4.736   4.336  0.0484 -0.2023 -0.2775
  203POPC   C2B 2867   3.395   4.614   4.667 -0.0865  0.0146  0.0967
  203POPC   C3B 2868   3.487   4.954   4.934 -0.0867 -0.1701 -0.0028
  203POPC   C4B 2869   3.289   5.257   5.153  0.2821 -0.0309 -0.0420
  204POPC   NC3 2870   1.529   1.892   3.952 -0.1306 -0.1131 -0.1563
  204POPC   PO4 2871   1.852   1.648   4.310  0.2188 -0.1372  0.2768
  204POPC   GL1 2872   1.902   1.749   4.719  0.2137  0.0985 -0.2747
  204POPC   GL2 2873   1.777   1.577   5.096 -0.2550  0.1312  0.0164
  204POPC   C1A 2874   2.073   2.000   5.124  0.1425 -0.0142 -0.0011
  204POPC   D2A 2875   2.335   1.836   5.372 -0.2518 -0.1168 -0.0506
  204POPC   C3A 2876   2.780   1.847   5.375  0.0151 -0.0004  0.0159
  204POPC   C4A 2877   2.956   2.156   5.211 -0.0643 -0.1230  0.0887
  204POPC   C1B 2878   1.738   1.483   5.580  0.2466  0.1261  0.3090
  204POPC   C2B 2879   1.785   1.653   6.075  0.2048 -0.0047 -0.3275
  204POPC   C3B 2880   1.741   1.806   6.479  0.1049 -0.2354 -0.0033
  204POPC   C4B 2881   1.904   1.914   6.788  0.0976 -0.1534  0.0595
  205POPC   NC3 2882   0.343   2.710   4.361  0.0530  0.1908  0.0608
  205POPC   PO4 2883  -0.000   2.979   4.523  0.2383  0.3508 -0.0523
  205POPC   GL1 2884   0.181   2.729   4.869  0.0558  0.1605 -0.0195
  205POPC   GL2 2885   0.432   2.437   4.791  0.0986  0.1346  0.0378
  205POPC   C1A 2886   0.043   2.958   5.272  0.2658 -0.2355 -0.1141
  205POPC   D2A 2887  -0.294   2.997   5.674 -0.2163 -0.0174 -0.0135
  205POPC   C3A 2888  -0.126   2.891   6.203 -0.0796  0.0449  0.1630
  205POPC   C4A 2889  -0.262   2.848   6.711 -0.0483 -0.0928 -0.2926
  205POPC   C1B 2890   0.660   2.338   5.160  0.2227  0.4183  0.0449
  205POPC   C2B 2891   0.854   2.550   5.400  0.0152 -0.0887 -0.0879
  205POPC   C3B 2892   0.963   2.801   5.719  0.1029  0.2263 -0.0746
  205POPC   C4B 2893   1.222   3.017   5.995 -0.2159 -0.3613  0.1747
  206POPC   NC3 2894   3.748   7.649   4.760  0.2745  0.0196  0.1796
  206POPC   PO4 2895   3.595   7.976   4.905 -0.0052 -0.0096  0.2416
  206POPC   GL1 2896   3.722   7.747   5.254  0.2863  0.0235  0.4868
  206POPC   GL2 2897   3.722   7.383   5.263 -0.0050  0.0055 -0.1669
  206POPC   C1A 2898   3.631   7.678   5.616 -0.0707 -0.0727  0.3780
  206POPC   D2A 2899   3.655   7.572   5.982  0.2204  0.2344 -0.0610
  206POPC   C3A 2900   3.312   7.533   6.323  0.0896  0.0194  0.2482
  206POPC   C4A 2901   3.275   7.195   6.611 -0.4689  0.0429 -0.0320
  206POPC   C1B 2902   3.973   7.251   5.574 -0.0038 -0.1336  0.0456
  206POPC   C2B 2903   4.308   7.222   5.896 -0.0655  0.3280  0.0990
  206POPC   C3B 2904   4.418   7.047   6.237  0.0529 -0.1913 -0.1471
  206POPC   C4B 2905   4.851   7.047   6.329  0.2799  0.3537 -0.1656
  207POPC   NC3 2906   6.405   1.879   4.266  0.2505 -0.2636 -0.0511
  207POPC   PO4 2907   6.080   1.607   4.366  0.1174 -0.0169  0.1866
  207POPC   GL1 2908   6.045   1.438   4.787 -0.0344  0.0137  0.0210
  207POPC   GL2 2909   5.811   1.217   4.936  0.0405  0.1680  0.0943
  207POPC   C1A 2910   6.011   1.596   5.168  0.2271 -0.1436  0.0163
  207POPC   D2A 2911   6.026   1.913   5.632  0.1677  0.0824 -0.0563
  207POPC   C3A 2912   6.122   2.021   6.063  0.2142 -0.0332  0.0154
  207POPC   C4A 2913   6.012   1.968   6.470  0.2415 -0.1391  0.1085
  207POPC   C1B 2914   5.719   1.196   5.358 -0.1093 -0.1322 -0.2481
  207POPC   C2B 2915   5.902   1.407   5.692  0.3639 -0.1154 -0.1654
  207POPC   C3B 2916   5.761   1.646   6.041  0.1127 -0.1118  0.1511
  207POPC   C4B 2917   5.703   1.466   6.430 -0.0065 -0.1263 -0.0067
  208POPC   NC3 2918   4.979   6.987   4.448 -0.3471  0.2752 -0.0602
  208POPC   PO4 2919   4.764   6.887   4.759  0.2895 -0.3778  0.2505
  208POPC   GL1 2920   4.619   6.931   5.102 -0.5032  0.1128 -0.1610
  208POPC   GL2 2921   4.604   7.274   5.246 -0.0955 -0.1955  0.1735
  208POPC   C1A 2922   4.259   6.838   5.523  0.0804 -0.0717  0.3860
  208POPC   D2A 2923   3.893   6.749   5.848  0.0905 -0.2290 -0.1694
  208POPC   C3A 2924   3.983   6.660   6.221 -0.0329 -0.0449 -0.1640
  208POPC   C4A 2925   3.849   6.366   6.398 -0.0010  0.0308  0.1856
  208POPC   C1B 2926   4.533   7.571   5.581 -0.1240 -0.0323 -0.0110
  208POPC   C2B 2927   4.572   7.747   5.977 -0.2269  0.0346  0.6043
  208POPC   C3B 2928   4.642   7.499   6.299 -0.0661 -0.0393 -0.0926
  208POPC   C4B 2929   4.582   7.301   6.684  0.1992  0.1534  0.3498
  209POPC   NC3 2930   6.693   0.644   4.135 -0.1141  0.0335  0.0413
  209POPC   PO4 2931   6.409   0.596   4.495 -0.1388 -0.0327 -0.2111
  209POPC   GL1 2932   6.489   0.210   4.763 -0.0906 -0.0309  0.0555
  209POPC   GL2 2933   6.768   0.183   5.047 -0.0292  0.1870 -0.1376
  209POPC   C1A 2934   6.257  -0.019   5.035 -0.1675  0.1159  0.0922
  209POPC   D2A 2935   6.194   0.269   5.347  0.2339 -0.0480 -0.2833
  209POPC   C3A 2936   6.366   0.345   5.748 -0.2206 -0.0446  0.0645
  209POPC   C4A 2937   6.720   0.309   6.136  0.0175 -0.1607 -0.0173
  209POPC   C1B 2938   6.666  -0.055   5.386  0.2846  0.0356 -0.0728
  209POPC   C2B 2939   6.828  -0.171   5.794  0.1433 -0.0434 -0.0708
  209POPC   C3B 2940   6.974  -0.088   6.202 -0.2727  0.0706 -0.2061
  209POPC   C4B 2941   7.094  -0.297   6.638  0.0127  0.1262  0.0276
  210POPC   NC3 2942   1.436   7.364   4.868  0.1150 -0.1736  0.2470
  210POPC   PO4 2943   1.651   7.682   5.099 -0.2703  0.0507  0.1384
  210POPC   GL1 2944   1.934   7.725   5.471  0.0396 -0.0752  0.0779
  210POPC   GL2 2945   1.803   8.037   5.573  0.0986  0.0566 -0.0667
  210POPC   C1A 2946   2.091   7.582   5.835  0.0162  0.0641 -0.2409
  210POPC   D2A 2947   2.110   7.452   6.178  0.0339 -0.0496 -0.1386
  210POPC   C3A 2948   2.328   7.874   6.314 -0.2861 -0.2338  0.2060
  210POPC   C4A 2949   2.493   8.100   6.714  0.1053 -0.0908 -0.0076
  210POPC   C1B 2950   2.130   8.085   5.885  0.3405 -0.2366 -0.0232
  210POPC   C2B 2951   2.317   8.458   5.950 -0.1508  0.2725 -0.1233
  210POPC   C3B 2952   2.539   8.907   6.184  0.0156 -0.0810 -0.0869
  210POPC   C4B 2953   2.774   9.044   6.477 -0.2781 -0.2934 -0.0141
  211POPC   NC3 2954   4.097   0.899   3.974  0.0917  0.0777 -0.1106
  211POPC   PO4 2955   3.954   1.375   4.169  0.3197  0.0710  0.1223
  211POPC   GL1 2956   4.234   1.561   4.539  0.0362  0.1763  0.0787
  211POPC   GL2 2957   4.306   1.795   4.441  0.2220 -0.1407  0.1165
  211POPC   C1A 2958   4.241   1.363   4.924 -0.0635  0.0179  0.1325
  211POPC   D2A 2959   4.444   0.956   5.117  0.2043  0.0301  0.2672
  211POPC   C3A 2960   4.236   1.024   5.606 -0.1676  0.2238 -0.1068
  211POPC   C4A 2961   4.082   1.329   5.919 -0.1491 -0.0265 -0.3479
  211POPC   C1B 2962   4.305   2.050   4.745 -0.2037 -0.1528 -0.3870
  211POPC   C2B 2963   4.217   1.948   5.126 -0.0857  0.1182  0.1527
  211POPC   C3B 2964   4.456   1.865   5.536 -0.5226  0.2911  0.1992
  211POPC   C4B 2965   4.234   1.877   5.861  0.1737 -0.1903  0.0148
  212POPC   NC3 2966   6.553   7.425   4.683  0.0780 -0.0187 -0.5985
  212POPC   PO4 2967   6.988   7.298   4.791  0.0413 -0.0389 -0.0830
  212POPC   GL1 2968   7.133   7.176   5.251 -0.3485 -0.3417 -0.0197
  212POPC   GL2 2969   7.091   6.927   5.347 -0.1530  0.4037  0.0887
  212POPC   C1A 2970   7.294   7.274   5.693 -0.1637  0.2583  0.2094
  212POPC   D2A 2971   7.248   7.391   6.156 -0.0418 -0.1534  0.2223
  212POPC   C3A 2972   7.265   7.233   6.547 -0.1458 -0.1000  0.2802
  212POPC   C4A 2973   7.263   7.415   6.930  0.0419  0.1061 -0.0002
  212POPC   C1B 2974   6.990   6.820   5.849 -0.0551 -0.0244 -0.2189
  212POPC   C2B 2975   7.013   6.820   6.357 -0.0573  0.6458 -0.2622
  212POPC   C3B 2976   7.001   6.921   6.819 -0.1084  0.0371  0.0176
  212POPC   C4B 2977   7.284   7.012   7.163  0.0428 -0.0046 -0.1324
  213POPC   NC3 2978   7.332   0.194   4.572 -0.2403  0.2035 -0.3419
  213POPC   PO4 2979   6.890   0.444   4.621  0.1325  0.1642 -0.0287
  213POPC   GL1 2980   6.739   0.741   4.922 -0.1547 -0.1841 -0.0754
  213POPC   GL2 2981   6.841   0.963   5.101 -0.0958  0.2675  0.1832
  213POPC   C1A 2982   6.729   0.551   5.422 -0.0414 -0.1912 -0.2233
  213POPC   D2A 2983   7.035   0.265   5.727  0.0862  0.0175 -0.3143
  213POPC   C3A 2984   7.430   0.396   5.663  0.2505  0.0034 -0.2225
  213POPC   C4A 2985   7.564   0.683   5.920  0.0988 -0.0682 -0.1683
  213POPC   C1B 2986   7.090   0.860   5.483  0.3209 -0.2224 -0.2952
  213POPC   C2B 2987   7.105   0.808   5.888  0.1630  0.0581 -0.1899
  213POPC   C3B 2988   7.314   1.040   6.216  0.3225  0.1627  0.0666
  213POPC   C4B 2989   7.479   1.250   6.556  0.0872 -0.1088  0.1054
  214POPC   NC3 2990   3.180   6.495   4.209  0.0808 -0.3418  0.2786
  214POPC   PO4 2991   3.668   6.429   4.115 -0.1168 -0.1532 -0.1754
  214POPC   GL1 2992   3.436   6.066   4.340 -0.1421  0.0660 -0.1191
  214POPC   GL2 2993   3.261   6.125   4.658  0.0526 -0.0488  0.1192
  214POPC   C1A 2994   3.292   5.618   4.513 -0.0542 -0.0092  0.0418
  214POPC   D2A 2995   3.258   5.203   4.492  0.2630  0.0760  0.0129
  214POPC   C3A 2996   3.690   4.950   4.395  0.1549  0.1744  0.2956
  214POPC   C4A 2997   3.900   4.770   4.760 -0.3166  0.3328 -0.0091
  214POPC   C1B 2998   3.110   6.197   5.102 -0.0676 -0.1742 -0.0131
  214POPC   C2B 2999   3.016   6.174   5.611 -0.3155  0.1015  0.1257
  214POPC   C3B 3000   2.806   6.456   5.723  0.2874  0.1635  0.0056
  214POPC   C4B 3001   2.680   6.855   5.667 -0.2599  0.0288  0.2678
  215POPC   NC3 3002   3.523   0.584   4.513 -0.0488  0.2565 -0.1655
  215POPC   PO4 3003   3.771   0.377   4.810 -0.1179  0.3627 -0.3052
  215POPC   GL1 3004   3.623   0.210   5.219 -0.1465  0.0936  0.1120
  215POPC   GL2 3005   3.407  -0.017   5.130  0.3666 -0.2331 -0.2146
  215POPC   C1A 3006   3.625   0.267   5.667  0.4466  0.0258 -0.0842
  215POPC   D2A 3007   3.646   0.400   6.115 -0.0618  0.0229  0.3479
  215POPC   C3A 3008   3.721   0.006   6.478  0.1813 -0.1623 -0.1831
  215POPC   C4A 3009   4.092  -0.042   6.736  0.2283  0.2498 -0.2027
  215POPC   C1B 3010   3.704  -0.253   5.527 -0.1357 -0.0449 -0.3228
  215POPC   C2B 3011   4.001  -0.418   5.876  0.2460  0.3232 -0.4049
  215POPC   C3B 3012   4.174  -0.298   6.214  0.0140 -0.0218 -0.1880
  215POPC   C4B 3013   4.413  -0.046   6.261  0.1402 -0.0524  0.2298
  216POPC   NC3 3014   9.812   4.176   4.108 -0.0154 -0.0063 -0.0339
  216POPC   PO4 3015  10.215   4.253   4.398 -0.0337  0.1088  0.1183
  216POPC   GL1 3016  10.390   4.198   4.789 -0.1295 -0.1274  0.3005
  216POPC   GL2 3017  10.358   4.488   5.010 -0.1397  0.4407 -0.0271
  216POPC   C1A 3018  10.722   4.038   4.993 -0.2243 -0.0568 -0.2636
  216POPC   D2A 3019  10.762   3.843   5.397  0.1052  0.2457  0.1096
  216POPC   C3A 3020  10.890   4.142   5.722 -0.0483  0.4155 -0.0378
  216POPC   C4A 3021  11.169   4.220   6.070 -0.1098  0.3514  0.0656
  216POPC   C1B 3022  10.563   4.403   5.423  0.1672  0.0351  0.2854
  216POPC   C2B 3023  10.910   4.655   5.630 -0.0109 -0.0725  0.2091
  216POPC   C3B 3024  10.809   4.741   6.061 -0.1478 -0.2343  0.1366
  216POPC   C4B 3025  11.020   5.162   6.202  0.0876 -0.0916 -0.1656
  217POPC   NC3 3026   9.785   0.493   4.436  0.3500 -0.1470  0.1595
  217POPC   PO4 3027   9.473   0.057   4.395 -0.0004  0.0778  0.1504
  217POPC   GL1 3028   9.280   0.056   4.804  0.3062 -0.1086 -0.0405
  217POPC   GL2 3029   9.161  -0.184   4.868 -0.1738  0.2165 -0.0049
  217POPC   C1A 3030   9.406   0.042   5.202 -0.0075  0.1384 -0.2057
  217POPC   D2A 3031   9.436  -0.036   5.540  0.0966 -0.2724  0.0601
  217POPC   C3A 3032   9.289  -0.352   5.758  0.2800 -0.0629  0.1263
  217POPC   C4A 3033   9.000  -0.491   6.042 -0.2968  0.0061  0.1727
  217POPC   C1B 3034   9.030  -0.264   5.294 -0.0057  0.1621 -0.1045
  217POPC   C2B 3035   8.713  -0.291   5.559 -0.2301  0.0300 -0.0638
  217POPC   C3B 3036   8.586  -0.181   5.909  0.3379 -0.0680  0.0665
  217POPC   C4B 3037   8.543  -0.372   6.386 -0.5036 -0.0114 -0.0093
  218POPC   NC3 3038   5.741   5.443   4.033 -0.3969  0.1270  0.0394
  218POPC   PO4 3039   5.529   5.892   4.144  0.0666  0.2008 -0.2694
  218POPC   GL1 3040   5.321   5.734   4.508  0.0066 -0.1571  0.0277
  218POPC   GL2 3041   5.528   5.536   4.591  0.1612  0.1339 -0.2390
  218POPC   C1A 3042   5.154   5.706   4.935 -0.1916  0.1409  0.1683
  218POPC   D2A 3043   5.127   5.372   5.148  0.1584  0.0517  0.3069
  218POPC   C3A 3044   5.048   5.001   5.314  0.3309  0.1967  0.0093
  218POPC   C4A 3045   4.917   4.853   5.731  0.1515 -0.3485  0.0228
  218POPC   C1B 3046   5.610   5.533   5.058 -0.2291  0.2324 -0.1976
  218POPC   C2B 3047   5.503   5.636   5.438  0.0254 -0.0370  0.0774
  218POPC   C3B 3048   5.384   5.892   5.815 -0.0188  0.1669 -0.1367
  218POPC   C4B 3049   5.168   6.189   6.007 -0.0603 -0.0457  0.4746
  219POPC   NC3 3050   8.417   4.786   4.661  0.0756  0.1329 -0.2506
  219POPC   PO4 3051   7.955   4.735   4.622  0.1935 -0.0418  0.1337
  219POPC   GL1 3052   7.768   4.625   5.035 -0.3027  0.3636 -0.0067
  219POPC   GL2 3053   7.464   4.698   5.108 -0.4664 -0.2244 -0.3014
  219POPC   C1A 3054   8.066   4.573   5.440  0.1143  0.2346  0.3307
  219POPC   D2A 3055   8.266   4.800   5.781 -0.0428  0.2311 -0.0008
  219POPC   C3A 3056   8.346   4.539   6.183 -0.1073 -0.1074 -0.0633
  219POPC   C4A 3057   8.549   4.626   6.560  0.0378 -0.3027  0.0678
  219POPC   C1B 3058   7.516   4.462   5.617  0.1629  0.1494  0.0458
  219POPC   C2B 3059   7.866   4.169   5.843  0.2296 -0.0057 -0.1629
  219POPC   C3B 3060   7.955   4.247   6.212 -0.0612  0.0946  0.1284
  219POPC   C4B 3061   7.704   4.294   6.521 -0.2415  0.0885  0.0766
  220POPC   NC3 3062   3.688   4.715   3.229 -0.0463  0.3113  0.1544
  220POPC   PO4 3063   4.126   4.830   3.130  0.0671 -0.0574  0.2307
  220POPC   GL1 3064   4.072   4.624   3.533  0.0791  0.0222  0.0034
  220POPC   GL2 3065   4.064   4.893   3.825 -0.1868 -0.1723 -0.1003
  220POPC   C1A 3066   4.148   4.287   3.789 -0.1972  0.1755  0.1298
  220POPC   D2A 3067   4.507   4.087   3.949  0.0097  0.0358 -0.0933
  220POPC   C3A 3068   4.786   4.082   4.345  0.0625  0.0057  0.0716
  220POPC   C4A 3069   5.034   3.886   4.664 -0.2681  0.0296 -0.0398
  220POPC   C1B 3070   3.993   4.642   4.203  0.0260 -0.0815 -0.0099
  220POPC   C2B 3071   4.242   4.259   4.331 -0.0041 -0.1840  0.0731
  220POPC   C3B 3072   4.370   3.758   4.312 -0.0943 -0.1223  0.2718
  220POPC   C4B 3073   4.436   3.319   4.109  0.1515 -0.2674 -0.5924
  221POPC   NC3 3074   0.775   4.576   4.556  0.0417  0.4395 -0.0373
  221POPC   PO4 3075   0.844   4.228   4.373 -0.2330  0.0486 -0.1329
  221POPC   GL1 3076   1.176   4.350   4.743 -0.2105  0.2403  0.5102
  221POPC   GL2 3077   0.982   4.590   5.044  0.3739 -0.2033  0.2181
  221POPC   C1A 3078   1.447   4.603   4.818  0.1426  0.1281 -0.1562
  221POPC   D2A 3079   1.827   4.655   4.747  0.1387  0.3509 -0.3085
  221POPC   C3A 3080   2.087   4.866   5.049  0.0174 -0.0525 -0.0241
  221POPC   C4A 3081   2.526   4.847   5.160  0.1908 -0.2106 -0.0541
  221POPC   C1B 3082   1.163   4.271   5.261 -0.0519  0.1326 -0.1339
  221POPC   C2B 3083   1.434   3.961   5.384 -0.0390  0.2246 -0.0041
  221POPC   C3B 3084   1.545   3.821   5.689  0.0385 -0.0952 -0.1019
  221POPC   C4B 3085   1.707   3.979   5.998  0.2126  0.1256  0.0533
  222POPC   NC3 3086   8.963   1.182   4.326 -0.0204  0.0971  0.0888
  222POPC   PO4 3087   8.590   1.450   4.324 -0.0285  0.0708 -0.2093
  222POPC   GL1 3088   8.655   1.666   4.797  0.4018 -0.2480  0.0212
  222POPC   GL2 3089   8.814   1.909   4.841 -0.1337  0.1205 -0.2009
  222POPC   C1A 3090   8.604   1.759   5.272 -0.0165  0.0097 -0.0306
  222POPC   D2A 3091   8.520   2.194   5.325  0.0778  0.3771  0.0115
  222POPC   C3A 3092   8.594   2.322   5.742 -0.1261  0.1021 -0.0349
  222POPC   C4A 3093   8.805   2.639   6.127 -0.0158 -0.0926  0.0605
  222POPC   C1B 3094   9.046   1.726   5.139 -0.1783  0.1251 -0.1993
  222POPC   C2B 3095   9.355   1.577   5.356 -0.2433 -0.2220 -0.0521
  222POPC   C3B 3096   9.532   1.273   5.626  0.1628  0.1418 -0.1968
  222POPC   C4B 3097   9.475   0.897   5.927 -0.0363  0.0692  0.2297
  223POPC   NC3 3098   5.731   1.296   4.447  0.4212 -0.1935  0.2545
  223POPC   PO4 3099   5.427   0.937   4.563  0.1055 -0.2756 -0.2546
  223POPC   GL1 3100   5.320   0.925   5.081  0.1825  0.1307  0.0113
  223POPC   GL2 3101   5.096   0.772   5.185 -0.1346 -0.1862 -0.2178
  223POPC   C1A 3102   5.376   0.917   5.564 -0.0246  0.2192  0.2383
  223POPC   D2A 3103   5.362   1.265   5.843  0.0473 -0.2879  0.0241
  223POPC   C3A 3104   5.554   1.082   6.184 -0.1198  0.3085 -0.1789
  223POPC   C4A 3105   5.487   0.801   6.487 -0.0958 -0.3330  0.3924
  223POPC   C1B 3106   4.778   0.932   5.447 -0.1705  0.2427  0.3772
  223POPC   C2B 3107   4.580   0.778   5.899  0.5180 -0.1592  0.0316
  223POPC   C3B 3108   4.448   1.028   6.182  0.3294 -0.1036  0.3841
  223POPC   C4B 3109   4.211   1.330   6.413 -0.0452  0.0787  0.1412
  224POPC   NC3 3110   7.203   3.676   4.251 -0.1676 -0.3121  0.0913
  224POPC   PO4 3111   6.757   3.645   4.209  0.0490 -0.0297  0.0837
  224POPC   GL1 3112   6.629   3.273   4.460  0.5625  0.1346 -0.2543
  224POPC   GL2 3113   6.940   3.144   4.452  0.1561 -0.1178  0.1876
  224POPC   C1A 3114   6.389   3.454   4.811  0.2313 -0.1918  0.0209
  224POPC   D2A 3115   6.224   3.392   5.270 -0.0367  0.0431  0.3699
  224POPC   C3A 3116   6.001   3.826   5.584 -0.2165 -0.0918 -0.1068
  224POPC   C4A 3117   5.951   3.802   5.960 -0.1322 -0.3880 -0.1164
  224POPC   C1B 3118   6.888   3.362   4.901  0.0378 -0.2253 -0.2609
  224POPC   C2B 3119   6.749   3.285   5.428 -0.0746  0.0880  0.0704
  224POPC   C3B 3120   6.447   3.422   5.774 -0.5119 -0.4347  0.1865
  224POPC   C4B 3121   6.211   3.255   6.125  0.4203  0.0647 -0.0303
  225POPC   NC3 3122   9.309   2.527   4.699  0.3416  0.1335 -0.1097
  225POPC   PO4 3123   8.919   2.716   4.619 -0.1363  0.0290 -0.0495
  225POPC   GL1 3124   8.866   2.405   4.839  0.0553 -0.2791 -0.2027
  225POPC   GL2 3125   8.588   2.489   4.958  0.3249  0.3840 -0.0994
  225POPC   C1A 3126   9.029   2.309   5.272 -0.3341  0.1834  0.0861
  225POPC   D2A 3127   8.934   1.989   5.566 -0.4607 -0.2079  0.0482
  225POPC   C3A 3128   9.252   1.876   5.795  0.1945  0.1757 -0.0531
  225POPC   C4A 3129   9.242   1.493   5.962  0.0873  0.0763  0.1517
  225POPC   C1B 3130   8.487   2.719   5.249  0.0345  0.1622 -0.0211
  225POPC   C2B 3131   8.610   3.187   5.198 -0.0465 -0.0613  0.3757
  225POPC   C3B 3132   8.655   3.543   5.515  0.1462  0.0039  0.0823
  225POPC   C4B 3133   8.881   3.966   5.642  0.2460 -0.1512  0.1038
  226POPC   NC3 3134   7.484   9.557   4.459 -0.1844  0.0399  0.1138
  226POPC   PO4 3135   7.916   9.817   4.461  0.0709  0.0834 -0.0230
  226POPC   GL1 3136   7.880   9.842   4.860 -0.2407 -0.1031  0.2535
  226POPC   GL2 3137   7.638  10.133   5.013 -0.2042 -0.0693 -0.1874
  226POPC   C1A 3138   7.854   9.848   5.330 -0.0086 -0.2371 -0.1428
  226POPC   D2A 3139   7.861   9.906   5.738  0.2027 -0.1545 -0.2493
  226POPC   C3A 3140   7.732  10.118   6.116  0.1479  0.3227  0.0071
  226POPC   C4A 3141   7.919  10.285   6.517  0.3866  0.0257  0.2063
  226POPC   C1B 3142   7.898  10.344   5.426 -0.2786  0.1628  0.2186
  226POPC   C2B 3143   8.320  10.579   5.350  0.1925 -0.3329  0.0910
  226POPC   C3B 3144   8.462  10.927   5.537  0.1299 -0.1723 -0.3350
  226POPC   C4B 3145   8.468  10.929   5.904 -0.1654 -0.1085  0.1080
  227POPC   NC3 3146   2.150   6.220   4.019 -0.1335  0.0173  0.1684
  227POPC   PO4 3147   1.890   6.445   4.353 -0.1220  0.0974 -0.0358
  227POPC   GL1 3148   1.652   6.422   4.780 -0.1002 -0.1637  0.1823
  227POPC   GL2 3149   1.555   6.059   4.937 -0.1116  0.3202 -0.2503
  227POPC   C1A 3150   1.445   6.559   5.154 -0.0886  0.2312  0.0844
  227POPC   D2A 3151   1.095   6.529   5.358 -0.1743 -0.3544  0.0294
  227POPC   C3A 3152   1.047   6.511   5.784 -0.0784  0.0260  0.2596
  227POPC   C4A 3153   1.229   6.415   6.221 -0.1937  0.1993 -0.1590
  227POPC   C1B 3154   1.698   6.015   5.404 -0.0794 -0.0470  0.1331
  227POPC   C2B 3155   1.790   5.778   5.746  0.2018 -0.1042  0.1683
  227POPC   C3B 3156   2.173   5.668   5.924  0.1702  0.1403 -0.1662
  227POPC   C4B 3157   2.333   5.484   5.661 -0.0810 -0.0279 -0.2549
  228POPC   NC3 3158   4.737   8.061   4.691  0.0223  0.2425 -0.0984
  228POPC   PO4 3159   4.715   7.688   5.010 -0.2096 -0.3237 -0.0595
  228POPC   GL1 3160   4.943   7.729   5.308  0.0088  0.1350  0.1177
  228POPC   GL2 3161   5.048   7.353   5.470 -0.0876  0.0210  0.2541
  228POPC   C1A 3162   5.023   7.768   5.781 -0.2799 -0.0362 -0.1945
  228POPC   D2A 3163   5.328   7.924   6.202  0.1646  0.3941  0.4403
  228POPC   C3A 3164   5.563   7.762   6.499  0.0508  0.0292 -0.0336
  228POPC   C4A 3165   6.058   7.772   6.476  0.0199  0.2534 -0.0291
  228POPC   C1B 3166   4.992   7.309   5.925  0.0402 -0.2100  0.2642
  228POPC   C2B 3167   5.104   7.490   6.313  0.0956 -0.1718  0.0303
  228POPC   C3B 3168   5.119   7.553   6.707  0.0993  0.1098  0.2297
  228POPC   C4B 3169   4.885   7.612   7.099 -0.0851 -0.0055 -0.0290
  229POPC   NC3 3170   5.247   2.022   3.979 -0.0270 -0.1315 -0.2541
  229POPC   PO4 3171   5.088   1.583   3.909 -0.0773 -0.3849  0.1455
  229POPC   GL1 3172   5.130   1.667   4.372 -0.1680 -0.2606  0.1130
  229POPC   GL2 3173   5.213   1.418   4.612 -0.1636  0.2770  0.0284
  229POPC   C1A 3174   5.247   1.952   4.753  0.1705  0.0956  0.2075
  229POPC   D2A 3175   5.340   2.087   5.110 -0.3341 -0.2135 -0.1981
  229POPC   C3A 3176   5.193   2.332   5.403 -0.1787 -0.1173 -0.2597
  229POPC   C4A 3177   5.251   2.555   5.771 -0.1033  0.3734  0.1536
  229POPC   C1B 3178   5.409   1.497   5.030 -0.2452 -0.4244  0.2561
  229POPC   C2B 3179   5.541   1.775   5.445  0.0795 -0.0142 -0.2676
  229POPC   C3B 3180   5.472   1.986   5.769 -0.0748 -0.0651 -0.2510
  229POPC   C4B 3181   5.269   2.183   6.141 -0.0963 -0.0748  0.0670
  230POPC   NC3 3182   0.226   6.698   4.798  0.0660 -0.4536  0.0201
  230POPC   PO4 3183   0.336   6.836   5.209 -0.0912 -0.1187 -0.0568
  230POPC   GL1 3184   0.370   7.068   5.556  0.0039 -0.0101  0.2925
  230POPC   GL2 3185   0.673   7.245   5.549 -0.1282  0.0285 -0.2437
  230POPC   C1A 3186   0.481   7.075   6.054 -0.2934  0.2273 -0.0362
  230POPC   D2A 3187   0.829   7.387   6.149  0.0108  0.1451  0.1498
  230POPC   C3A 3188   0.923   7.667   5.844 -0.1619  0.3534  0.2738
  230POPC   C4A 3189   0.836   8.141   5.722 -0.0557  0.1936 -0.0634
  230POPC   C1B 3190   0.880   6.996   5.765 -0.1250  0.3013 -0.0686
  230POPC   C2B 3191   0.975   6.831   6.160 -0.0050 -0.4201  0.0148
  230POPC   C3B 3192   1.151   6.653   6.674 -0.0550  0.2473  0.1375
  230POPC   C4B 3193   1.045   6.463   6.985 -0.1316 -0.1138 -0.2532
  231POPC   NC3 3194   4.712   9.283   4.766 -0.0481 -0.2257  0.0542
  231POPC   PO4 3195   4.628   9.778   4.676 -0.0478  0.2289  0.3359
  231POPC   GL1 3196   4.436   9.882   5.042  0.1020  0.2506  0.2487
  231POPC   GL2 3197   4.054   9.891   5.038  0.1069 -0.1305 -0.2015
  231POPC   C1A 3198   4.607   9.771   5.436  0.1545 -0.0079  0.1665
  231POPC   D2A 3199   4.869   9.897   5.820 -0.0554  0.0044 -0.2063
  231POPC   C3A 3200   4.941   9.818   6.273  0.1372  0.0826  0.3104
  231POPC   C4A 3201   5.001  10.101   6.609  0.3263  0.1059  0.0280
  231POPC   C1B 3202   4.090  10.003   5.470 -0.1805 -0.2444 -0.0862
  231POPC   C2B 3203   3.995  10.446   5.619  0.1444 -0.1212  0.2293
  231POPC   C3B 3204   4.008  10.621   6.072  0.1734  0.0579  0.0360
  231POPC   C4B 3205   3.955  10.781   6.451  0.1464 -0.0132  0.1002
  232POPC   NC3 3206   1.862   6.867   4.721 -0.5273 -0.0236  0.0259
  232POPC   PO4 3207   1.846   7.401   4.619  0.0643  0.2560 -0.1130
  232POPC   GL1 3208   2.010   7.346   5.108 -0.0215 -0.1022 -0.0879
  232POPC   GL2 3209   1.769   7.224   5.289  0.0311 -0.2403  0.0175
  232POPC   C1A 3210   2.214   7.258   5.473 -0.0768 -0.1212  0.2206
  232POPC   D2A 3211   2.544   7.275   5.868  0.2702 -0.0761 -0.2575
  232POPC   C3A 3212   2.666   7.724   5.930 -0.1051  0.0378  0.0989
  232POPC   C4A 3213   2.717   8.116   6.144  0.3880  0.0070  0.3909
  232POPC   C1B 3214   1.649   7.317   5.680 -0.2496 -0.0956  0.1962
  232POPC   C2B 3215   1.646   7.067   6.134 -0.1396  0.0423  0.1417
  232POPC   C3B 3216   1.603   6.693   6.396 -0.0047  0.3161  0.2013
  232POPC   C4B 3217   1.791   6.255   6.549  0.0396  0.1891  0.2635
  233POPC   NC3 3218   6.096   9.043   4.260  0.3807 -0.0680 -0.1729
  233POPC   PO4 3219   6.266   9.138   4.581 -0.2813  0.1347 -0.0416
  233POPC   GL1 3220   6.252   9.254   5.004 -0.1072 -0.1162 -0.2112
  233POPC   GL2 3221   6.028   9.407   5.151  0.0086  0.3196 -0.2698
  233POPC   C1A 3222   6.438   9.274   5.430  0.2669 -0.4264  0.1361
  233POPC   D2A 3223   6.301   9.627   5.655  0.2977 -0.0722 -0.0093
  233POPC   C3A 3224   6.348   9.714   6.040  0.1770 -0.1992 -0.0902
  233POPC   C4A 3225   6.251  10.027   6.255  0.0062 -0.1114  0.0371
  233POPC   C1B 3226   5.983   9.185   5.543 -0.1783  0.1317 -0.0349
  233POPC   C2B 3227   6.050   9.217   6.018  0.1270 -0.1549  0.0384
  233POPC   C3B 3228   5.782   9.064   6.296 -0.2621  0.1664 -0.0113
  233POPC   C4B 3229   5.365   8.911   6.257 -0.1267 -0.1855  0.0605
  234POPC   NC3 3230   9.258   1.930   4.080  0.1998 -0.0194  0.2486
  234POPC   PO4 3231   9.061   1.632   4.391  0.2442  0.0079  0.0208
  234POPC   GL1 3232   9.127   1.426   4.729 -0.0618  0.1964 -0.2911
  234POPC   GL2 3233   9.451   1.461   4.886  0.0563 -0.1890 -0.0150
  234POPC   C1A 3234   9.195   1.079   4.908  0.0308  0.0493 -0.1039
  234POPC   D2A 3235   9.339   0.928   5.338  0.2644  0.0365  0.0003
  234POPC   C3A 3236   9.759   0.857   5.468 -0.1163  0.1943  0.2628
  234POPC   C4A 3237   9.902   0.459   5.673 -0.0865  0.0902  0.1441
  234POPC   C1B 3238   9.690   1.154   5.074 -0.0256 -0.1198  0.0440
  234POPC   C2B 3239   9.859   1.504   5.309 -0.0324 -0.0335  0.1387
  234POPC   C3B 3240   9.769   1.718   5.640 -0.0639 -0.1128 -0.2864
  234POPC   C4B 3241  10.029   1.668   6.011 -0.2280 -0.2500 -0.2927
  235POPC   NC3 3242   1.661   0.131   4.856  0.2867  0.1637 -0.2534
  235POPC   PO4 3243   1.670  -0.051   5.209  0.1007  0.1287 -0.0383
  235POPC   GL1 3244   1.664  -0.271   5.692 -0.1158 -0.1974  0.0204
  235POPC   GL2 3245   1.726  -0.610   5.654 -0.0902 -0.0039 -0.2455
  235POPC   C1A 3246   1.400  -0.260   6.040  0.4027 -0.1464  0.2397
  235POPC   D2A 3247   1.523  -0.228   6.505 -0.3315 -0.1197 -0.0469
  235POPC   C3A 3248   1.922   0.010   6.695  0.0451  0.1094  0.2539
  235POPC   C4A 3249   2.110   0.351   6.388 -0.2382 -0.4469 -0.0992
  235POPC   C1B 3250   1.634  -0.777   6.118  0.1208 -0.0019  0.1042
  235POPC   C2B 3251   1.742  -0.777   6.610  0.0419  0.2298  0.4256
  235POPC   C3B 3252   2.048  -0.474   6.911  0.1336 -0.1886  0.0938
  235POPC   C4B 3253   2.205  -0.445   7.279  0.0884 -0.2747 -0.0429
  236POPC   NC3 3254   0.087   5.104   4.405 -0.0800 -0.1203 -0.1708
  236POPC   PO4 3255   0.571   4.981   4.417 -0.2853 -0.1840 -0.0271
  236POPC   GL1 3256   0.470   4.957   4.842 -0.0096 -0.2522 -0.0652
  236POPC   GL2 3257   0.240   5.019   5.071 -0.1595  0.1656  0.1634
  236POPC   C1A 3258   0.654   4.923   5.267  0.0921 -0.1871  0.0473
  236POPC   D2A 3259   0.501   4.781   5.769  0.1297  0.0487 -0.0802
  236POPC   C3A 3260   0.535   4.291   5.887  0.0136  0.0895 -0.0446
  236POPC   C4A 3261   0.801   3.994   6.235 -0.2268 -0.1641 -0.1479
  236POPC   C1B 3262  -0.173   4.864   5.027 -0.0214  0.2479  0.3115
  236POPC   C2B 3263  -0.486   4.647   5.242 -0.1251  0.1733  0.1740
  236POPC   C3B 3264  -0.365   4.572   5.698 -0.0770 -0.0252  0.0740
  236POPC   C4B 3265  -0.494   4.500   6.111  0.2117  0.1495  0.0045
  237POPC   NC3 3266   1.011   4.709   3.698 -0.0105  0.1205  0.0672
  237POPC   PO4 3267   1.138   4.409   3.943 -0.0143 -0.1776 -0.0980
  237POPC   GL1 3268   1.300   4.085   4.304  0.4193  0.0388 -0.0763
  237POPC   GL2 3269   1.374   3.749   4.216  0.0781 -0.1570 -0.1874
  237POPC   C1A 3270   1.650   4.226   4.549  0.0371  0.0842  0.3095
  237POPC   D2A 3271   1.734   4.233   5.159 -0.1200  0.0498  0.0742
  237POPC   C3A 3272   1.928   3.931   5.424  0.0246  0.0335  0.1612
  237POPC   C4A 3273   2.085   3.645   5.792  0.2212 -0.1956  0.1092
  237POPC   C1B 3274   1.519   3.425   4.612 -0.3177 -0.1220 -0.0137
  237POPC   C2B 3275   1.477   3.294   5.111 -0.0735  0.1452  0.0883
  237POPC   C3B 3276   1.310   3.409   5.559 -0.0926  0.0264  0.2756
  237POPC   C4B 3277   1.080   3.681   5.890 -0.0175  0.0440 -0.0582
  238POPC   NC3 3278   7.521   8.999   4.336 -0.0916  0.1553 -0.0429
  238POPC   PO4 3279   7.442   8.551   4.247 -0.2261  0.1968  0.2084
  238POPC   GL1 3280   7.467   8.520   4.705  0.1591  0.1250 -0.0130
  238POPC   GL2 3281   7.265   8.314   4.775 -0.1362 -0.3413  0.0930
  238POPC   C1A 3282   7.659   8.521   5.166 -0.0523  0.0003  0.1806
  238POPC   D2A 3283   8.005   8.790   5.183  0.1807 -0.1819  0.1063
  238POPC   C3A 3284   8.342   8.680   5.459  0.0247  0.2387  0.2561
  238POPC   C4A 3285   8.705   8.693   5.576 -0.0987  0.0525 -0.0007
  238POPC   C1B 3286   7.159   8.716   5.067  0.0469  0.2361 -0.0234
  238POPC   C2B 3287   7.231   8.709   5.459 -0.1438 -0.2921 -0.1417
  238POPC   C3B 3288   7.064   8.865   5.742  0.3247 -0.2698  0.2924
  238POPC   C4B 3289   6.873   8.890   6.100 -0.4086 -0.3946 -0.2298
  239POPC   NC3 3290   5.855   9.169   4.741  0.2475 -0.0040  0.0589
  239POPC   PO4 3291   5.452   9.082   4.792 -0.1095  0.4179 -0.3480
  239POPC   GL1 3292   5.154   8.900   5.119  0.1039  0.0138  0.1179
  239POPC   GL2 3293   4.992   9.120   5.238 -0.0139  0.0507  0.0549
  239POPC   C1A 3294   4.978   8.898   5.684 -0.0733  0.3666 -0.0060
  239POPC   D2A 3295   4.848   8.905   6.126  0.2798  0.2173 -0.1977
  239POPC   C3A 3296   4.483   9.038   6.073 -0.0862 -0.1564 -0.1254
  239POPC   C4A 3297   4.147   8.988   5.906 -0.0032 -0.1371 -0.0352
  239POPC   C1B 3298   4.964   9.428   5.546 -0.0515 -0.3055  0.1012
  239POPC   C2B 3299   5.350   9.797   5.633  0.1538  0.1078 -0.1768
  239POPC   C3B 3300   5.347  10.012   5.973 -0.3562 -0.1052 -0.1621
  239POPC   C4B 3301   5.408  10.203   6.401 -0.1639  0.3351  0.1229
  240POPC   NC3 3302   8.127   6.751   4.625 -0.1786  0.0134  0.0349
  240POPC   PO4 3303   7.985   7.085   4.805 -0.2421 -0.1291  0.0527
  240POPC   GL1 3304   8.065   7.049   5.238 -0.1424  0.1415  0.1897
  240POPC   GL2 3305   7.861   7.230   5.488 -0.0529  0.1973 -0.0467
  240POPC   C1A 3306   8.302   6.840   5.527  0.0917 -0.2568 -0.1719
  240POPC   D2A 3307   8.396   6.742   5.929 -0.0273 -0.2532  0.0985
  240POPC   C3A 3308   8.276   6.920   6.238 -0.1062  0.1769  0.3561
  240POPC   C4A 3309   8.186   7.272   5.977 -0.4160 -0.4798  0.5158
  240POPC   C1B 3310   7.674   7.435   5.936 -0.0145  0.1990  0.0086
  240POPC   C2B 3311   7.478   7.751   5.832 -0.1452 -0.2692 -0.1001
  240POPC   C3B 3312   7.377   8.041   6.160  0.0255 -0.1539  0.4192
  240POPC   C4B 3313   7.699   8.306   6.316  0.2645 -0.0288  0.0215
  241POPC   NC3 3314   7.707   2.442   4.817 -0.1447  0.1795 -0.1071
  241POPC   PO4 3315   8.064   2.495   4.724  0.1598 -0.4841  0.2880
  241POPC   GL1 3316   8.084   2.445   5.170 -0.2462  0.3354  0.1098
  241POPC   GL2 3317   7.873   2.689   5.334  0.0722 -0.3682 -0.0974
  241POPC   C1A 3318   8.199   2.564   5.651  0.2278 -0.0496  0.2680
  241POPC   D2A 3319   8.303   2.654   6.102  0.1713 -0.0660  0.2041
  241POPC   C3A 3320   8.041   2.610   6.525  0.2316 -0.2065 -0.1022
  241POPC   C4A 3321   8.167   2.616   6.900 -0.1112 -0.2223  0.1079
  241POPC   C1B 3322   7.724   2.655   5.710  0.1424 -0.2851  0.0151
  241POPC   C2B 3323   7.752   2.554   6.171 -0.1598 -0.1962 -0.0945
  241POPC   C3B 3324   7.576   2.547   6.530 -0.0355  0.1760 -0.1625
  241POPC   C4B 3325   7.546   2.228   6.881 -0.1090  0.2406  0.0984
  242POPC   NC3 3326   1.035   3.875   3.855 -0.2780  0.1531  0.0024
  242POPC   PO4 3327   0.664   3.692   3.745 -0.0148 -0.2608 -0.1044
  242POPC   GL1 3328   0.776   3.669   4.247 -0.0635  0.0377  0.0816
  242POPC   GL2 3329   0.553   3.761   4.471  0.0919  0.1424  0.0633
  242POPC   C1A 3330   1.009   3.597   4.553 -0.1438  0.4554 -0.3090
  242POPC   D2A 3331   1.272   3.762   4.857  0.1208  0.1357  0.1666
  242POPC   C3A 3332   1.766   3.704   5.005 -0.1120  0.2330  0.1381
  242POPC   C4A 3333   1.993   3.443   5.293 -0.2583 -0.0603  0.2357
  242POPC   C1B 3334   0.622   3.609   4.884 -0.1721  0.2935 -0.2034
  242POPC   C2B 3335   0.410   3.624   5.298  0.1560  0.0908 -0.3438
  242POPC   C3B 3336   0.073   3.524   5.302 -0.3174 -0.1515 -0.0682
  242POPC   C4B 3337  -0.269   3.305   5.238 -0.2521 -0.1441  0.0230
  243POPC   NC3 3338   5.469   4.111   2.941 -0.0695  0.0029 -0.2951
  243POPC   PO4 3339   5.434   4.424   3.291  0.1544 -0.1315 -0.0587
  243POPC   GL1 3340   5.342   4.654   3.632 -0.1648  0.1370  0.1608
  243POPC   GL2 3341   5.477   4.481   3.867 -0.1704 -0.2131 -0.4687
  243POPC   C1A 3342   5.032   4.879   3.928 -0.1452 -0.0589  0.1371
  243POPC   D2A 3343   4.918   4.882   4.383 -0.1147  0.1555 -0.1587
  243POPC   C3A 3344   4.537   5.081   4.468  0.0694  0.1803  0.1307
  243POPC   C4A 3345   4.118   5.135   4.283 -0.0971 -0.2047 -0.0324
  243POPC   C1B 3346   5.629   4.237   4.260  0.0692  0.0480  0.1323
  243POPC   C2B 3347   5.715   4.446   4.607  0.0444  0.2765 -0.1538
  243POPC   C3B 3348   5.659   4.789   4.860  0.2424 -0.1521 -0.1444
  243POPC   C4B 3349   5.477   4.873   5.163 -0.3336  0.1084 -0.0125
  244POPC   NC3 3350   8.005   7.530   4.526  0.0700  0.4803  0.4602
  244POPC   PO4 3351   8.301   7.133   4.409  0.3095  0.3317  0.0503
  244POPC   GL1 3352   8.525   6.980   4.890 -0.1604 -0.0014  0.0906
  244POPC   GL2 3353   8.697   7.026   5.111 -0.1459 -0.0996 -0.1339
  244POPC   C1A 3354   8.501   6.629   5.119 -0.1290 -0.0339 -0.1554
  244POPC   D2A 3355   8.473   6.389   5.508 -0.3345  0.0573 -0.0103
  244POPC   C3A 3356   8.850   6.213   5.607  0.0783 -0.1871  0.1371
  244POPC   C4A 3357   9.162   6.412   5.455 -0.0058  0.1697 -0.0224
  244POPC   C1B 3358   8.861   6.813   5.543  0.2786  0.2838  0.1347
  244POPC   C2B 3359   8.875   6.663   5.969 -0.1564  0.1083  0.1141
  244POPC   C3B 3360   8.529   6.521   6.379  0.0279 -0.0230  0.2994
  244POPC   C4B 3361   8.376   6.093   6.578  0.1491  0.0249  0.2670
  245POPC   NC3 3362   8.048   6.588   4.179 -0.2425 -0.1951  0.2426
  245POPC   PO4 3363   7.779   6.427   4.392  0.1186 -0.0827  0.2278
  245POPC   GL1 3364   7.830   6.386   4.846  0.0258  0.0013 -0.2803
  245POPC   GL2 3365   7.977   6.596   5.026  0.0595  0.1968 -0.1044
  245POPC   C1A 3366   7.780   6.112   5.225  0.1660  0.1281 -0.1046
  245POPC   D2A 3367   7.364   5.958   5.331  0.1471  0.1246 -0.0949
  245POPC   C3A 3368   7.257   5.940   5.726 -0.4394 -0.0449  0.0204
  245POPC   C4A 3369   7.064   5.842   6.085 -0.0887 -0.0211  0.0363
  245POPC   C1B 3370   7.920   6.632   5.462  0.1796  0.0329  0.0805
  245POPC   C2B 3371   7.864   6.675   5.877 -0.1211  0.3045 -0.0479
  245POPC   C3B 3372   8.094   6.394   6.265  0.0808  0.2173  0.3408
  245POPC   C4B 3373   8.120   6.503   6.713  0.2434  0.2279  0.3071
  246POPC   NC3 3374   1.600   1.326   4.640 -0.2072  0.0347  0.1398
  246POPC   PO4 3375   1.729   0.972   4.871 -0.0338  0.2116 -0.2013
  246POPC   GL1 3376   1.873   1.082   5.278 -0.0588 -0.0196 -0.4768
  246POPC   GL2 3377   2.091   1.313   5.314  0.1362  0.3799  0.1049
  246POPC   C1A 3378   1.914   1.039   5.730  0.1548 -0.1396  0.3561
  246POPC   D2A 3379   1.820   0.753   6.131  0.3227 -0.1151  0.2337
  246POPC   C3A 3380   1.325   0.747   6.163 -0.2416  0.0277  0.0115
  246POPC   C4A 3381   1.078   0.987   6.363 -0.1406  0.8571 -0.0001
  246POPC   C1B 3382   2.201   1.602   5.770  0.1767  0.1720  0.1538
  246POPC   C2B 3383   2.339   1.689   6.157 -0.0170  0.0502  0.2105
  246POPC   C3B 3384   2.551   1.391   6.342 -0.1709  0.0830 -0.3734
  246POPC   C4B 3385   2.902   1.383   6.681  0.0309  0.1801 -0.0266
  247POPC   NC3 3386   2.993   4.421   2.890  0.2034  0.2071  0.0858
  247POPC   PO4 3387   3.080   4.119   3.199 -0.1146 -0.1433 -0.0603
  247POPC   GL1 3388   3.078   4.106   3.653  0.3383 -0.2171  0.1159
  247POPC   GL2 3389   3.160   4.409   3.787 -0.1689 -0.1777 -0.2384
  247POPC   C1A 3390   3.411   4.013   3.924 -0.4031  0.3283 -0.1620
  247POPC   D2A 3391   3.769   4.004   4.133 -0.0501 -0.0648  0.1086
  247POPC   C3A 3392   3.863   3.802   4.429 -0.1874  0.2791 -0.1724
  247POPC   C4A 3393   4.143   3.478   4.692  0.0516  0.1993  0.1207
  247POPC   C1B 3394   3.533   4.460   4.119  0.0835  0.1473  0.1471
  247POPC   C2B 3395   3.808   4.356   4.485  0.0805  0.2858  0.1193
  247POPC   C3B 3396   3.793   4.243   4.919  0.0280 -0.0134 -0.1287
  247POPC   C4B 3397   3.460   4.084   5.027 -0.0704  0.1450 -0.1629
  248POPC   NC3 3398   1.892   6.003   4.561 -0.3029 -0.2481 -0.4520
  248POPC   PO4 3399   1.625   5.649   4.541  0.1431  0.3900 -0.2473
  248POPC   GL1 3400   1.759   5.525   4.944  0.0156  0.1255  0.0280
  248POPC   GL2 3401   2.036   5.671   5.111 -0.3203 -0.0024 -0.4384
  248POPC   C1A 3402   1.852   5.310   5.387 -0.2605 -0.1548 -0.0971
  248POPC   D2A 3403   1.874   5.302   5.817 -0.2453  0.0603 -0.2073
  248POPC   C3A 3404   1.677   4.973   6.167 -0.3514 -0.3215 -0.4013
  248POPC   C4A 3405   1.389   4.764   6.458  0.0959 -0.2311 -0.1796
  248POPC   C1B 3406   2.174   5.906   5.465  0.1496  0.2632 -0.2016
  248POPC   C2B 3407   2.556   5.964   5.790 -0.1560  0.2155  0.2015
  248POPC   C3B 3408   2.485   6.130   6.242 -0.1914 -0.0908  0.1706
  248POPC   C4B 3409   2.172   5.984   6.461  0.1950  0.4285 -0.4049
  249POPC   NC3 3410   0.630   1.321   4.067 -0.0500 -0.1043  0.2883
  249POPC   PO4 3411   0.989   1.471   4.393 -0.2486  0.0674 -0.0300
  249POPC   GL1 3412   1.208   1.699   4.631  0.3335  0.2247 -0.0423
  249POPC   GL2 3413   1.280   1.578   4.937  0.1324  0.0467  0.1904
  249POPC   C1A 3414   1.526   2.047   4.921 -0.0841  0.1966  0.0050
  249POPC   D2A 3415   1.540   1.981   5.411 -0.0843 -0.4639 -0.4788
  249POPC   C3A 3416   1.812   2.025   5.586 -0.2614  0.2331  0.1193
  249POPC   C4A 3417   2.011   2.199   5.905 -0.0432 -0.1980 -0.0420
  249POPC   C1B 3418   1.290   1.537   5.282  0.2058  0.0608  0.0932
  249POPC   C2B 3419   0.952   1.393   5.608 -0.1899 -0.1582 -0.1382
  249POPC   C3B 3420   0.771   1.209   5.985 -0.0695  0.0192  0.3093
  249POPC   C4B 3421   0.406   1.047   6.258  0.1729  0.3170  0.0145
  250POPC   NC3 3422   0.734   1.876   4.516  0.2287  0.0447  0.1477
  250POPC   PO4 3423   0.208   1.882   4.625  0.1664 -0.3944 -0.1995
  250POPC   GL1 3424   0.402   1.937   4.970 -0.1814 -0.0882  0.0974
  250POPC   GL2 3425   0.349   1.729   5.115  0.1998 -0.0002 -0.0241
  250POPC   C1A 3426   0.414   2.055   5.488 -0.0152  0.3972 -0.0098
  250POPC   D2A 3427   0.204   2.145   5.800  0.3551  0.1652 -0.1479
  250POPC   C3A 3428   0.130   2.242   6.237 -0.2861  0.0189 -0.3923
  250POPC   C4A 3429   0.129   2.567   6.504 -0.0162  0.0472 -0.0343
  250POPC   C1B 3430   0.559   1.474   5.363  0.2673 -0.3174 -0.0912
  250POPC   C2B 3431   0.543   1.602   5.783 -0.2526 -0.1133  0.1721
  250POPC   C3B 3432   0.533   1.977   6.076  0.1448 -0.1472  0.1641
  250POPC   C4B 3433   0.595   2.316   6.434 -0.0509  0.0097  0.0782
  251POPC   NC3 3434   0.287   6.016   3.975  0.1634 -0.0867  0.1670
  251POPC   PO4 3435   0.478   5.941   4.518  0.2164  0.0752 -0.0114
  251POPC   GL1 3436   0.737   5.888   4.908  0.0958 -0.1273  0.2724
  251POPC   GL2 3437   0.815   5.463   4.929 -0.0678  0.4652  0.1777
  251POPC   C1A 3438   1.032   6.013   5.341 -0.1358 -0.3062 -0.2010
  251POPC   D2A 3439   1.223   6.055   5.718  0.0255 -0.0234  0.0567
  251POPC   C3A 3440   1.189   5.674   6.008  0.3126 -0.0582  0.0505
  251POPC   C4A 3441   1.555   5.513   6.074  0.1394 -0.2146  0.2795
  251POPC   C1B 3442   0.607   5.387   5.357 -0.0696 -0.0595 -0.1469
  251POPC   C2B 3443   0.312   5.342   5.746  0.0681  0.0720 -0.0498
  251POPC   C3B 3444  -0.056   5.585   6.018  0.3825  0.0037  0.2389
  251POPC   C4B 3445  -0.100   6.028   6.142 -0.5397  0.2825 -0.1721
  252POPC   NC3 3446   6.933   4.970   3.989 -0.1191  0.0499 -0.0541
  252POPC   PO4 3447   6.876   4.833   4.379 -0.3009 -0.0357  0.2464
  252POPC   GL1 3448   6.522   4.752   4.590 -0.2301  0.0818  0.0675
  252POPC   GL2 3449   6.354   4.855   4.929 -0.0181 -0.0950 -0.0006
  252POPC   C1A 3450   6.388   4.430   4.589 -0.1567 -0.0886  0.2910
  252POPC   D2A 3451   6.595   4.052   4.542 -0.1579  0.0510  0.2203
  252POPC   C3A 3452   6.654   3.855   4.889 -0.2249 -0.3941  0.0032
  252POPC   C4A 3453   6.532   3.789   5.314  0.0912  0.1631  0.2355
  252POPC   C1B 3454   6.104   4.468   4.967 -0.1978  0.4333 -0.1853
  252POPC   C2B 3455   5.774   4.248   5.044 -0.1728  0.0009  0.0225
  252POPC   C3B 3456   5.697   4.188   5.473 -0.0710 -0.0183  0.1206
  252POPC   C4B 3457   5.501   3.889   5.750  0.0512 -0.0333  0.2465
  253POPC   NC3 3458   7.235   0.510   4.954  0.1926 -0.0330  0.0321
  253POPC   PO4 3459   7.269   0.973   4.791 -0.0980 -0.2455  0.1517
  253POPC   GL1 3460   7.415   1.140   5.141 -0.3778 -0.3279  0.0062
  253POPC   GL2 3461   7.218   1.296   5.250  0.3476 -0.2327 -0.0363
  253POPC   C1A 3462   7.617   0.905   5.407  0.0816 -0.1355  0.1114
  253POPC   D2A 3463   7.951   1.040   5.701 -0.3456 -0.0161 -0.0536
  253POPC   C3A 3464   7.980   1.385   5.821 -0.1472 -0.2156  0.0330
  253POPC   C4A 3465   7.827   1.834   5.842 -0.0891 -0.4594  0.1619
  253POPC   C1B 3466   7.429   1.240   5.673  0.2738  0.0835  0.1439
  253POPC   C2B 3467   7.536   1.464   6.126  0.3541  0.2588  0.0086
  253POPC   C3B 3468   7.857   1.578   6.471 -0.1623  0.0990  0.0163
  253POPC   C4B 3469   7.903   1.781   6.888  0.2052 -0.0422 -0.0537
  254POPC   NC3 3470   8.425   3.675   4.171  0.0596 -0.0371 -0.0361
  254POPC   PO4 3471   8.899   3.724   4.230 -0.1614  0.1039  0.4787
  254POPC   GL1 3472   9.186   3.694   4.604  0.0039 -0.0651 -0.1549
  254POPC   GL2 3473   8.997   3.875   4.833  0.1205 -0.1753  0.2573
  254POPC   C1A 3474   9.510   3.828   5.012 -0.1318  0.3445  0.1353
  254POPC   D2A 3475   9.554   4.119   5.386 -0.3072  0.1978  0.0340
  254POPC   C3A 3476   9.496   4.116   5.870 -0.1966  0.3920  0.0011
  254POPC   C4A 3477   9.742   4.176   6.288  0.0488 -0.0775 -0.0623
  254POPC   C1B 3478   9.038   3.701   5.244 -0.0621  0.2162  0.1418
  254POPC   C2B 3479   9.349   3.684   5.585  0.4093 -0.0249  0.3241
  254POPC   C3B 3480   9.805   3.790   5.711 -0.1426  0.0712  0.3839
  254POPC   C4B 3481  10.209   3.830   5.873 -0.1629  0.0848  0.0704
  255POPC   NC3 3482   0.167   9.119   4.751 -0.5021 -0.0313  0.1754
  255POPC   PO4 3483   0.380   9.406   5.103 -0.2912  0.0315 -0.1529
  255POPC   GL1 3484   0.426   9.619   5.556  0.1335  0.0814  0.1608
  255POPC   GL2 3485   0.664   9.444   5.630 -0.0033 -0.2012 -0.2781
  255POPC   C1A 3486   0.347   9.644   6.004  0.0851  0.0897 -0.0600
  255POPC   D2A 3487   0.037   9.429   6.247  0.0991 -0.2053  0.2123
  255POPC   C3A 3488  -0.213   9.692   6.621  0.1989 -0.2045 -0.1160
  255POPC   C4A 3489  -0.346  10.072   6.868  0.1286 -0.1869  0.0115
  255POPC   C1B 3490   0.385   9.202   5.799  0.0448 -0.0191  0.0095
  255POPC   C2B 3491   0.453   8.817   6.072  0.2015  0.1676 -0.0654
  255POPC   C3B 3492   0.578   8.373   6.021  0.1833 -0.0639  0.0121
  255POPC   C4B 3493   0.570   7.948   6.200  0.1297  0.1093 -0.2055
  256POPC   NC3 3494   3.889   1.863   4.024  0.1136 -0.0278  0.1933
  256POPC   PO4 3495   4.280   1.921   3.865  0.2010  0.3535 -0.0290
  256POPC   GL1 3496   4.280   2.285   4.084 -0.0804  0.0228 -0.3066
  256POPC   GL2 3497   4.376   2.493   3.876  0.0084  0.0929  0.0644
  256POPC   C1A 3498   4.380   2.500   4.497 -0.0471 -0.0907 -0.0671
  256POPC   D2A 3499   4.417   2.534   4.914  0.2425 -0.2139  0.1227
  256POPC   C3A 3500   3.994   2.538   5.184 -0.1534 -0.3020  0.0214
  256POPC   C4A 3501   3.695   2.636   4.916 -0.0107 -0.1574 -0.2208
  256POPC   C1B 3502   4.181   2.876   4.150  0.1381  0.2785  0.1230
  256POPC   C2B 3503   4.006   2.884   4.625  0.3428  0.1439  0.2677
  256POPC   C3B 3504   4.101   3.003   4.983  0.0328 -0.0849 -0.0463
  256POPC   C4B 3505   3.876   3.021   5.302  0.0623 -0.3281  0.1478
  257POPC   NC3 3506   6.851   4.148   4.037 -0.1798  0.3244  0.0758
  257POPC   PO4 3507   7.055   4.237   4.401 -0.0244 -0.1566 -0.2536
  257POPC   GL1 3508   6.968   4.315   4.747 -0.2671 -0.2504 -0.0608
  257POPC   GL2 3509   7.039   4.534   4.858 -0.1622 -0.0161 -0.0237
  257POPC   C1A 3510   6.597   4.312   5.067  0.2712 -0.0911 -0.0126
  257POPC   D2A 3511   6.257   4.246   5.409 -0.0719  0.0223 -0.1734
  257POPC   C3A 3512   6.030   4.364   5.751 -0.3050  0.1594  0.2075
  257POPC   C4A 3513   5.845   4.506   6.118 -0.1185  0.1474 -0.0473
  257POPC   C1B 3514   6.821   4.672   5.290  0.1072  0.0156 -0.3286
  257POPC   C2B 3515   6.323   4.809   5.417  0.0936 -0.3070 -0.1601
  257POPC   C3B 3516   6.050   4.835   5.583 -0.2103  0.2751 -0.1477
  257POPC   C4B 3517   5.842   4.994   5.919 -0.0353  0.0368 -0.1884
  258POPC   NC3 3518   2.641   0.532   4.892 -0.1014 -0.2570  0.1359
  258POPC   PO4 3519   2.585   0.887   4.642  0.0646 -0.2553  0.1248
  258POPC   GL1 3520   2.633   1.066   5.067 -0.2483 -0.0102  0.0421
  258POPC   GL2 3521   2.854   0.901   5.131  0.1014 -0.2406  0.3493
  258POPC   C1A 3522   2.437   1.131   5.505  0.1596  0.0650  0.1239
  258POPC   D2A 3523   2.500   1.249   5.911 -0.0174 -0.2249 -0.0617
  258POPC   C3A 3524   2.114   1.280   6.201  0.1215  0.0667  0.2102
  258POPC   C4A 3525   1.992   1.407   6.645  0.0356  0.0176  0.1762
  258POPC   C1B 3526   2.897   0.867   5.553 -0.1434 -0.1928 -0.2014
  258POPC   C2B 3527   2.998   1.065   5.977  0.0621  0.1073  0.1201
  258POPC   C3B 3528   3.128   1.347   6.255 -0.3464 -0.0503 -0.0711
  258POPC   C4B 3529   3.246   1.668   6.544  0.1149  0.2276 -0.0741
  259POPC   NC3 3530   1.325   5.790   4.058 -0.0835  0.1816 -0.2401
  259POPC   PO4 3531   1.738   6.000   4.064  0.2048 -0.2951  0.0094
  259POPC   GL1 3532   2.132   5.730   4.222 -0.4207 -0.2285 -0.1472
  259POPC   GL2 3533   2.100   5.477   4.525 -0.0287 -0.3027  0.0671
  259POPC   C1A 3534   2.662   5.808   4.424  0.2379 -0.0503 -0.0846
  259POPC   D2A 3535   2.885   5.679   4.797  0.1197 -0.2405 -0.1089
  259POPC   C3A 3536   2.803   5.305   5.084 -0.0642  0.2114 -0.1840
  259POPC   C4A 3537   2.889   5.139   5.506  0.2860  0.2115 -0.4816
  259POPC   C1B 3538   2.334   5.394   4.836 -0.1217 -0.4180  0.2796
  259POPC   C2B 3539   2.312   5.283   5.164  0.1975 -0.0360  0.1154
  259POPC   C3B 3540   2.183   4.973   5.537  0.3177  0.2588  0.0583
  259POPC   C4B 3541   1.827   4.847   5.583  0.2565  0.0596 -0.1268
  260POPC   NC3 3542   7.833   0.840   4.113  0.2592 -0.2432 -0.2900
  260POPC   PO4 3543   7.675   0.949   4.454  0.0548 -0.0896 -0.0996
  260POPC   GL1 3544   8.046   1.137   4.824 -0.2916  0.0464  0.2981
  260POPC   GL2 3545   8.415   1.165   4.783  0.1393 -0.1147  0.1251
  260POPC   C1A 3546   8.144   1.150   5.202  0.0110  0.1169  0.0754
  260POPC   D2A 3547   8.230   1.449   5.422 -0.3026  0.0302  0.3816
  260POPC   C3A 3548   8.697   1.508   5.752  0.2846  0.1037  0.3033
  260POPC   C4A 3549   8.446   1.484   6.164  0.1522 -0.0059  0.0119
  260POPC   C1B 3550   8.618   1.261   5.127  0.2200 -0.1765 -0.1471
  260POPC   C2B 3551   8.979   1.228   5.421 -0.1654  0.0495 -0.0811
  260POPC   C3B 3552   8.981   1.017   5.819 -0.2039 -0.0439 -0.0071
  260POPC   C4B 3553   9.158   1.095   6.238  0.2415  0.1389 -0.2328
  261POPC   NC3 3554   6.731   8.361   4.691 -0.0181  0.1256 -0.3252
  261POPC   PO4 3555   6.882   8.046   4.832 -0.2886  0.0165 -0.2023
  261POPC   GL1 3556   6.975   7.760   5.085 -0.0551 -0.1763 -0.3101
  261POPC   GL2 3557   7.247   7.692   4.987 -0.1116  0.3199  0.1154
  261POPC   C1A 3558   6.772   7.451   5.349 -0.0303 -0.3933 -0.3182
  261POPC   D2A 3559   6.645   7.087   5.593 -0.1975  0.2860  0.1693
  261POPC   C3A 3560   6.675   7.201   6.035 -0.0247 -0.0887  0.1983
  261POPC   C4A 3561   6.712   7.244   6.506  0.0920  0.1080 -0.0868
  261POPC   C1B 3562   7.383   7.638   5.367 -0.1573 -0.1406 -0.1160
  261POPC   C2B 3563   7.810   7.758   5.494 -0.1247  0.0343 -0.3670
  261POPC   C3B 3564   8.247   7.782   5.721 -0.2050  0.0678  0.1010
  261POPC   C4B 3565   8.272   8.018   6.010 -0.3263  0.1239  0.2960
  262POPC   NC3 3566   1.866   3.710   3.718  0.0776  0.0959 -0.2977
  262POPC   PO4 3567   1.869   3.271   3.622 -0.0635  0.4137 -0.0700
  262POPC   GL1 3568   1.975   3.340   4.057 -0.0774 -0.0672  0.0846
  262POPC   GL2 3569   1.931   3.577   4.255  0.1976 -0.0724  0.0321
  262POPC   C1A 3570   2.109   3.169   4.466  0.3260  0.2058  0.0747
  262POPC   D2A 3571   1.947   3.240   4.862 -0.0467 -0.0675 -0.1328
  262POPC   C3A 3572   1.744   2.863   5.021 -0.2593  0.0455 -0.3509
  262POPC   C4A 3573   1.674   2.476   5.158  0.0778 -0.0068  0.0013
  262POPC   C1B 3574   2.137   3.611   4.645  0.0362 -0.0486  0.3848
  262POPC   C2B 3575   2.410   3.397   4.991 -0.2601  0.2216 -0.0679
  262POPC   C3B 3576   2.508   3.574   5.307  0.0291 -0.3350  0.0774
  262POPC   C4B 3577   2.379   3.960   5.346  0.1227  0.1058 -0.0486
  263POPC   NC3 3578   4.376   0.838   4.634  0.0804  0.0991 -0.0662
  263POPC   PO4 3579   4.384   1.114   4.335  0.1433 -0.0482  0.0473
  263POPC   GL1 3580   4.639   1.335   4.642 -0.1295 -0.0433  0.2873
  263POPC   GL2 3581   4.730   1.715   4.659  0.1233  0.0363  0.0850
  263POPC   C1A 3582   4.885   1.290   4.993  0.1495  0.0693 -0.0455
  263POPC   D2A 3583   5.055   1.379   5.440  0.0778 -0.1777  0.1398
  263POPC   C3A 3584   4.801   1.267   5.809 -0.0645 -0.0128  0.2367
  263POPC   C4A 3585   4.536   1.478   5.905 -0.2812 -0.0794  0.1253
  263POPC   C1B 3586   4.689   1.779   5.096  0.2632 -0.3295 -0.3580
  263POPC   C2B 3587   4.959   1.910   5.442 -0.1166 -0.3703  0.1819
  263POPC   C3B 3588   4.980   1.731   5.860  0.1026 -0.2646  0.1022
  263POPC   C4B 3589   5.271   1.605   6.217 -0.1370  0.2855 -0.0108
  264POPC   NC3 3590   0.910   8.554   4.968  0.0171  0.2227  0.0271
  264POPC   PO4 3591   1.064   8.905   4.998  0.2559  0.0080 -0.0504
  264POPC   GL1 3592   1.329   8.717   5.326  0.2411 -0.0610  0.1729
  264POPC   GL2 3593   1.076   8.612   5.519  0.1602  0.2240 -0.4096
  264POPC   C1A 3594   1.592   8.465   5.583  0.0671 -0.2419 -0.0921
  264POPC   D2A 3595   1.606   8.593   5.991  0.1037  0.1887 -0.2213
  264POPC   C3A 3596   1.998   8.800   6.278 -0.1928  0.2366  0.2144
  264POPC   C4A 3597   2.279   9.201   6.519 -0.2398 -0.0934  0.2948
  264POPC   C1B 3598   1.032   8.607   5.910 -0.0830  0.0718  0.0286
  264POPC   C2B 3599   0.930   8.743   6.273  0.2524 -0.0260  0.4322
  264POPC   C3B 3600   0.790   8.984   6.562  0.1684  0.5154  0.2941
  264POPC   C4B 3601   0.850   9.392   6.689 -0.0526 -0.4496 -0.1705
  265POPC   NC3 3602   6.240   0.711   4.992  0.0224  0.0141 -0.0895
  265POPC   PO4 3603   6.378   1.052   4.849  0.2146  0.0553 -0.0925
  265POPC   GL1 3604   6.341   1.162   5.286  0.0015 -0.4052 -0.2890
  265POPC   GL2 3605   6.658   1.336   5.263 -0.0695  0.0993 -0.0082
  265POPC   C1A 3606   6.583   1.024   5.646  0.2324  0.5098  0.0416
  265POPC   D2A 3607   6.477   0.773   5.987 -0.0372 -0.1934  0.2092
  265POPC   C3A 3608   6.826   0.755   6.294 -0.1751 -0.1009 -0.1240
  265POPC   C4A 3609   7.109   0.752   6.617 -0.6018 -0.2895  0.2263
  265POPC   C1B 3610   6.434   1.505   5.668  0.0216 -0.1919  0.2695
  265POPC   C2B 3611   6.231   1.295   6.062  0.3644 -0.1718  0.1651
  265POPC   C3B 3612   6.046   1.060   6.247 -0.2900  0.0121 -0.2154
  265POPC   C4B 3613   6.244   0.685   6.442 -0.1047 -0.0904  0.3533
  266POPC   NC3 3614   7.071   6.826   4.868  0.1828 -0.1488  0.1537
  266POPC   PO4 3615   6.825   6.584   5.048  0.0529  0.0294 -0.2287
  266POPC   GL1 3616   6.702   6.525   5.549 -0.1352  0.1951  0.1241
  266POPC   GL2 3617   6.941   6.371   5.689 -0.2666  0.1683  0.3432
  266POPC   C1A 3618   6.427   6.609   5.837 -0.2650 -0.1619 -0.3319
  266POPC   D2A 3619   6.330   6.893   6.226  0.4084  0.0127 -0.1283
  266POPC   C3A 3620   6.250   7.310   6.311 -0.1747  0.0902  0.0867
  266POPC   C4A 3621   5.952   7.612   6.038 -0.0680  0.0909 -0.1750
  266POPC   C1B 3622   6.801   6.264   6.092  0.1238  0.2039  0.0073
  266POPC   C2B 3623   6.594   6.478   6.307  0.2891 -0.3894 -0.1806
  266POPC   C3B 3624   6.556   6.770   6.668  0.2239  0.3233 -0.1314
  266POPC   C4B 3625   6.353   7.139   6.820 -0.0263 -0.1758 -0.4483
  267POPC   NC3 3626   8.289   9.574   4.655  0.3197  0.4326 -0.1157
  267POPC   PO4 3627   7.862   9.256   4.598 -0.0788  0.0108 -0.0456
  267POPC   GL1 3628   7.942   9.335   5.058  0.1210  0.0417 -0.2522
  267POPC   GL2 3629   8.158   9.446   5.223  0.2101 -0.0572 -0.1682
  267POPC   C1A 3630   8.001   9.123   5.554 -0.0518  0.0189  0.1798
  267POPC   D2A 3631   8.019   8.898   5.732 -0.3683  0.1306  0.0158
  267POPC   C3A 3632   7.803   8.627   5.651  0.2308  0.0206 -0.0006
  267POPC   C4A 3633   7.463   8.523   5.888  0.3235  0.0473  0.3437
  267POPC   C1B 3634   8.198   9.556   5.641  0.1218  0.0488  0.0014
  267POPC   C2B 3635   8.102   9.732   6.136 -0.3253 -0.1919  0.0265
  267POPC   C3B 3636   8.284  10.039   6.254 -0.0057 -0.0201  0.2441
  267POPC   C4B 3637   8.455  10.135   6.602  0.0989 -0.2800  0.2536
  268POPC   NC3 3638   5.033   7.209   4.986 -0.0139  0.0434  0.3835
  268POPC   PO4 3639   5.107   6.844   5.302  0.0558 -0.0500 -0.0940
  268POPC   GL1 3640   5.229   6.637   5.607  0.1039 -0.2448  0.0266
  268POPC   GL2 3641   5.468   6.813   5.728  0.0173  0.2074  0.4507
  268POPC   C1A 3642   5.005   6.626   5.992 -0.0583 -0.0396  0.1544
  268POPC   D2A 3643   5.115   6.627   6.470  0.1945  0.3280 -0.0588
  268POPC   C3A 3644   4.852   6.447   6.907 -0.1972  0.1244  0.1171
  268POPC   C4A 3645   4.493   6.331   7.196 -0.1307  0.0289  0.1160
  268POPC   C1B 3646   5.318   6.985   6.154 -0.1508  0.1217  0.1323
  268POPC   C2B 3647   5.363   7.020   6.560  0.1676  0.2162 -0.2003
  268POPC   C3B 3648   5.057   7.055   6.910  0.7168 -0.0437 -0.1561
  268POPC   C4B 3649   4.731   7.174   7.219  0.0398 -0.0305 -0.0844
  269POPC   NC3 3650   8.436   5.631   4.498 -0.0808 -0.2202 -0.0294
  269POPC   PO4 3651   8.903   5.675   4.596  0.1613 -0.2600 -0.1384
  269POPC   GL1 3652   8.797   5.500   4.974 -0.0093  0.2032  0.1510
  269POPC   GL2 3653   8.948   5.329   5.008 -0.4269 -0.2024 -0.1660
  269POPC   C1A 3654   8.601   5.373   5.312  0.0139  0.3109  0.1363
  269POPC   D2A 3655   8.600   5.625   5.594  0.1476 -0.1716 -0.3116
  269POPC   C3A 3656   8.470   5.549   6.027 -0.0848 -0.1802  0.1915
  269POPC   C4A 3657   8.823   5.476   6.320 -0.3269 -0.3450  0.1553
  269POPC   C1B 3658   9.166   5.139   5.352 -0.0224  0.1780 -0.0881
  269POPC   C2B 3659   9.277   5.028   5.854  0.1661  0.1554  0.0917
  269POPC   C3B 3660   9.196   5.002   6.250 -0.2218  0.0844  0.2203
  269POPC   C4B 3661   9.041   4.714   6.495  0.0128 -0.0209 -0.1324
  270POPC   NC3 3662   6.259   2.308   3.705  0.1533 -0.0441 -0.1903
  270POPC   PO4 3663   5.832   2.263   3.797 -0.0432  0.2319  0.3387
  270POPC   GL1 3664   5.537   2.440   3.917  0.0158  0.0628 -0.2548
  270POPC   GL2 3665   5.618   2.525   4.339  0.1392 -0.2610  0.1086
  270POPC   C1A 3666   5.217   2.730   4.180 -0.1515  0.5454  0.0742
  270POPC   D2A 3667   5.142   3.171   4.183  0.0178 -0.0351  0.0731
  270POPC   C3A 3668   5.519   3.390   4.321  0.0370  0.1606 -0.0487
  270POPC   C4A 3669   5.732   3.701   4.181  0.2953 -0.1052 -0.1981
  270POPC   C1B 3670   5.456   2.912   4.589 -0.3514  0.0341 -0.1769
  270POPC   C2B 3671   5.510   3.213   4.901  0.0196  0.3825  0.0657
  270POPC   C3B 3672   5.143   3.204   5.153  0.0134 -0.1198  0.3447
  270POPC   C4B 3673   4.818   3.316   5.397  0.1484 -0.1274 -0.1774
  271POPC   NC3 3674   6.717   9.102   4.234 -0.1601 -0.0831 -0.5210
  271POPC   PO4 3675   7.063   9.253   4.469  0.0677  0.0200  0.0082
  271POPC   GL1 3676   7.125   9.310   4.800  0.0801  0.3318  0.0829
  271POPC   GL2 3677   7.485   9.146   4.889 -0.1717  0.3986  0.3075
  271POPC   C1A 3678   7.048   9.177   5.210  0.2007  0.1494  0.3247
  271POPC   D2A 3679   6.972   9.304   5.537 -0.3587  0.1413  0.0690
  271POPC   C3A 3680   7.195   9.349   6.015 -0.2091 -0.0070  0.2116
  271POPC   C4A 3681   7.320   9.227   6.372 -0.0464  0.1522 -0.0995
  271POPC   C1B 3682   7.566   9.015   5.332  0.0676 -0.1559  0.1638
  271POPC   C2B 3683   7.534   9.020   5.805 -0.0539  0.0124  0.0387
  271POPC   C3B 3684   7.674   8.883   6.128  0.2614  0.0747 -0.3629
  271POPC   C4B 3685   7.937   8.759   6.373 -0.0093 -0.0019 -0.1630
  272POPC   NC3 3686   0.719   1.015   4.617  0.3242 -0.1068  0.1848
  272POPC   PO4 3687   0.459   1.399   4.550  0.1653 -0.1562  0.0292
  272POPC   GL1 3688   0.709   1.480   4.906 -0.2504  0.2343 -0.3641
  272POPC   GL2 3689   0.870   1.271   5.034  0.0191  0.0012  0.0797
  272POPC   C1A 3690   0.857   1.849   5.233  0.1119 -0.1489  0.0327
  272POPC   D2A 3691   0.966   2.010   5.680  0.1702 -0.0447 -0.0046
  272POPC   C3A 3692   1.008   1.768   6.124 -0.2780  0.0553  0.1032
  272POPC   C4A 3693   1.200   1.500   6.390  0.0363 -0.2813  0.0965
  272POPC   C1B 3694   0.724   0.983   5.438  0.0918  0.2717 -0.2021
  272POPC   C2B 3695   0.862   0.685   5.690  0.1304  0.1219 -0.0237
  272POPC   C3B 3696   0.790   0.651   6.065  0.0177 -0.2850  0.2759
  272POPC   C4B 3697   0.701   0.646   6.483  0.0991  0.0253  0.1320
  273POPC   NC3 3698   9.235   7.546   4.392  0.1188  0.1629  0.5104
  273POPC   PO4 3699   9.429   7.129   4.517  0.0091  0.1804 -0.1538
  273POPC   GL1 3700   9.218   7.059   4.913  0.0291 -0.0562 -0.1734
  273POPC   GL2 3701   9.095   7.397   4.893 -0.0457 -0.1613  0.0984
  273POPC   C1A 3702   9.361   6.977   5.270 -0.0818 -0.1683 -0.3681
  273POPC   D2A 3703   9.416   6.761   5.700  0.2954  0.1362  0.1524
  273POPC   C3A 3704   9.530   6.770   6.182  0.1094  0.2127  0.1847
  273POPC   C4A 3705   9.859   7.060   6.329  0.0924  0.0138 -0.1441
  273POPC   C1B 3706   9.071   7.368   5.332 -0.2029  0.1351 -0.0206
  273POPC   C2B 3707   9.162   7.291   5.751 -0.0721 -0.0751  0.1695
  273POPC   C3B 3708   9.181   7.228   6.176 -0.1660  0.0206  0.2262
  273POPC   C4B 3709   9.478   7.365   6.361  0.0729 -0.0006 -0.2475
  274POPC   NC3 3710   5.268   0.493   4.785  0.2253  0.0776 -0.0360
  274POPC   PO4 3711   4.707   0.516   4.913 -0.2783  0.2441  0.2647
  274POPC   GL1 3712   4.787   0.427   5.360 -0.0814  0.2425 -0.1136
  274POPC   GL2 3713   4.561   0.443   5.491 -0.0888  0.0925  0.2205
  274POPC   C1A 3714   5.060   0.478   5.717  0.1249 -0.0906  0.1875
  274POPC   D2A 3715   4.872   0.394   6.101 -0.2630  0.0997 -0.2699
  274POPC   C3A 3716   4.522   0.486   6.330 -0.2542 -0.0389  0.2188
  274POPC   C4A 3717   4.143   0.370   6.365 -0.3658 -0.2290 -0.0812
  274POPC   C1B 3718   4.369   0.307   5.872 -0.0281  0.3390 -0.0797
  274POPC   C2B 3719   4.004   0.117   5.994  0.0328 -0.2065  0.5227
  274POPC   C3B 3720   3.581  -0.102   5.995 -0.0117  0.1228 -0.0682
  274POPC   C4B 3721   3.211  -0.002   5.690  0.0880 -0.4718  0.0266
  275POPC   NC3 3722   8.526   7.560   4.237 -0.1300 -0.1062 -0.0377
  275POPC   PO4 3723   8.835   7.821   4.393  0.2215 -0.3045  0.0290
  275POPC   GL1 3724   8.799   7.825   4.882  0.6655  0.3195 -0.1965
  275POPC   GL2 3725   8.563   7.537   4.897  0.2719 -0.0374  0.0924
  275POPC   C1A 3726   8.788   7.735   5.378 -0.2424  0.1673 -0.1412
  275POPC   D2A 3727   8.771   7.703   5.756  0.0204 -0.1495  0.2073
  275POPC   C3A 3728   8.549   7.621   6.140 -0.0232 -0.0948  0.1457
  275POPC   C4A 3729   8.394   7.618   6.529 -0.1215 -0.2961 -0.2960
  275POPC   C1B 3730   8.411   7.411   5.324 -0.0543  0.1752  0.2131
  275POPC   C2B 3731   8.564   7.250   5.668 -0.0270  0.1956 -0.1023
  275POPC   C3B 3732   8.741   7.176   6.067 -0.3693  0.2083  0.1056
  275POPC   C4B 3733   8.584   7.175   6.498  0.2657 -0.0027  0.1275
  276POPC   NC3 3734   8.459   8.052   4.609 -0.3799 -0.0560  0.1579
  276POPC   PO4 3735   8.206   7.853   4.804 -0.0233 -0.1745  0.1450
  276POPC   GL1 3736   8.369   8.009   5.124  0.1738  0.3711 -0.0715
  276POPC   GL2 3737   8.486   8.292   5.093 -0.0337  0.4620  0.1811
  276POPC   C1A 3738   8.515   8.162   5.581  0.0896  0.0911 -0.1674
  276POPC   D2A 3739   8.737   8.282   5.872 -0.0939 -0.0908 -0.0751
  276POPC   C3A 3740   8.771   8.086   6.167 -0.0180 -0.0992  0.0622
  276POPC   C4A 3741   8.913   8.171   6.576 -0.2241 -0.0625  0.0259
  276POPC   C1B 3742   8.892   8.221   5.205  0.0614  0.1337 -0.0137
  276POPC   C2B 3743   9.126   8.158   5.485 -0.1596 -0.0469 -0.2106
  276POPC   C3B 3744   9.251   8.127   5.856  0.0816  0.2239 -0.1161
  276POPC   C4B 3745   9.570   8.029   6.290  0.1559  0.2600 -0.1997
  277POPC   NC3 3746   6.337   6.596   5.109 -0.0359 -0.1789  0.2149
  277POPC   PO4 3747   6.102   6.921   4.906 -0.1012 -0.0804 -0.3456
  277POPC   GL1 3748   6.005   7.135   5.204  0.1676  0.0939  0.1623
  277POPC   GL2 3749   6.071   6.884   5.426  0.0976  0.1724  0.2146
  277POPC   C1A 3750   5.811   7.423   5.512  0.1242 -0.1177  0.0977
  277POPC   D2A 3751   5.472   7.410   5.873 -0.1025  0.0016  0.0368
  277POPC   C3A 3752   5.677   7.309   6.283 -0.1652 -0.1733 -0.2161
  277POPC   C4A 3753   5.881   6.986   6.502  0.0296  0.1495  0.0295
  277POPC   C1B 3754   5.981   6.512   5.713 -0.0920 -0.1660 -0.0975
  277POPC   C2B 3755   6.099   6.437   6.155  0.2595  0.0198 -0.3464
  277POPC   C3B 3756   5.970   6.401   6.603  0.2172 -0.2086  0.0521
  277POPC   C4B 3757   6.019   6.642   6.895  0.1442 -0.3779 -0.0120
  278POPC   NC3 3758   0.668   7.694   4.879  0.1009  0.0766 -0.0541
  278POPC   PO4 3759   0.379   8.115   4.775 -0.4269  0.2206 -0.1249
  278POPC   GL1 3760   0.129   7.945   5.053  0.2477 -0.2696  0.5283
  278POPC   GL2 3761   0.124   7.602   5.015 -0.0861 -0.2143 -0.1630
  278POPC   C1A 3762  -0.164   7.938   5.406  0.0449  0.1588 -0.3601
  278POPC   D2A 3763  -0.423   7.703   5.740  0.0146  0.0737 -0.0730
  278POPC   C3A 3764  -0.737   7.706   6.104  0.1113  0.3554 -0.1282
  278POPC   C4A 3765  -0.926   7.626   6.519  0.0616  0.3014  0.0582
  278POPC   C1B 3766   0.243   7.648   5.562  0.1220  0.1548  0.0176
  278POPC   C2B 3767   0.411   7.593   5.818 -0.5540 -0.0726  0.0497
  278POPC   C3B 3768   0.290   7.539   6.295 -0.0312 -0.1261 -0.0153
  278POPC   C4B 3769   0.349   7.311   6.688  0.1485  0.2768  0.0804
  279POPC   NC3 3770   5.151   2.910   3.493  0.3887  0.0770  0.2982
  279POPC   PO4 3771   4.745   3.097   3.360 -0.0897 -0.3083 -0.1505
  279POPC   GL1 3772   4.896   3.239   3.772  0.0331 -0.4682 -0.2417
  279POPC   GL2 3773   4.733   2.952   3.845  0.2721 -0.1567 -0.0204
  279POPC   C1A 3774   4.831   3.618   4.091 -0.1893 -0.0442 -0.0045
  279POPC   D2A 3775   4.732   3.508   4.476 -0.1194 -0.2441  0.2656
  279POPC   C3A 3776   4.593   3.741   4.769  0.0908  0.1930  0.1724
  279POPC   C4A 3777   4.314   4.039   4.725  0.2301 -0.2752 -0.2391
  279POPC   C1B 3778   4.681   2.863   4.294  0.2774  0.1179  0.1290
  279POPC   C2B 3779   4.546   3.056   4.562 -0.0254 -0.2479 -0.3909
  279POPC   C3B 3780   4.559   3.227   4.948  0.2348 -0.2244 -0.1283
  279POPC   C4B 3781   4.438   3.601   5.167  0.0798  0.3398 -0.1052
  280POPC   NC3 3782   8.946   6.410   4.168  0.2000 -0.0739 -0.1480
  280POPC   PO4 3783   8.609   6.038   4.315 -0.0669 -0.2494 -0.2283
  280POPC   GL1 3784   8.553   5.978   4.794  0.1364 -0.2785  0.1670
  280POPC   GL2 3785   8.320   6.218   4.926 -0.1263 -0.0316 -0.0212
  280POPC   C1A 3786   8.782   5.994   5.152 -0.2361  0.2772 -0.0904
  280POPC   D2A 3787   9.037   5.783   5.465 -0.0264 -0.0663 -0.1279
  280POPC   C3A 3788   8.921   5.846   5.922  0.1112  0.0555  0.4919
  280POPC   C4A 3789   8.761   5.986   6.284 -0.0662  0.1724 -0.0329
  280POPC   C1B 3790   8.293   5.925   5.206 -0.1211  0.1269 -0.0520
  280POPC   C2B 3791   8.218   5.927   5.592 -0.0778  0.1452 -0.4662
  280POPC   C3B 3792   7.910   6.178   5.723 -0.0340  0.1615 -0.0358
  280POPC   C4B 3793   7.649   6.159   6.038 -0.1893  0.1019 -0.2715
  281POPC   NC3 3794   7.780   4.293   4.580  0.1836  0.3482 -0.0586
  281POPC   PO4 3795   7.562   3.871   4.586 -0.2965 -0.1390  0.1513
  281POPC   GL1 3796   7.205   3.725   4.819 -0.2247 -0.0337  0.1941
  281POPC   GL2 3797   7.447   3.614   5.076  0.2667  0.2896 -0.0493
  281POPC   C1A 3798   7.007   3.822   5.230  0.0493 -0.2343  0.0958
  281POPC   D2A 3799   6.828   3.746   5.693  0.1811  0.2347  0.1371
  281POPC   C3A 3800   6.454   4.005   5.802  0.2176  0.2538  0.0111
  281POPC   C4A 3801   6.354   4.240   6.103 -0.3555  0.0611 -0.0742
  281POPC   C1B 3802   7.331   3.525   5.494 -0.0027 -0.0990  0.2968
  281POPC   C2B 3803   7.213   3.460   5.917  0.1614  0.0480  0.0639
  281POPC   C3B 3804   6.834   3.277   6.164  0.0677 -0.0728  0.0913
  281POPC   C4B 3805   6.585   3.111   6.530 -0.0919  0.2290  0.1176
  282POPC   NC3 3806   6.476   5.251   4.566 -0.2320 -0.3858 -0.1115
  282POPC   PO4 3807   6.767   5.178   4.782 -0.2494 -0.0028  0.2812
  282POPC   GL1 3808   6.817   5.184   5.161  0.1199 -0.2678  0.0522
  282POPC   GL2 3809   6.783   5.582   5.178 -0.1751  0.0294  0.0088
  282POPC   C1A 3810   6.739   5.045   5.598  0.1154  0.0014 -0.2066
  282POPC   D2A 3811   6.903   5.066   6.034 -0.1867  0.1863  0.3397
  282POPC   C3A 3812   6.881   4.875   6.452 -0.0157 -0.2846 -0.0191
  282POPC   C4A 3813   6.451   4.572   6.461 -0.0679  0.1207  0.0772
  282POPC   C1B 3814   7.028   5.462   5.520  0.1822 -0.2941 -0.0000
  282POPC   C2B 3815   7.328   5.286   5.819  0.0542  0.4696  0.3745
  282POPC   C3B 3816   7.421   5.407   6.236 -0.0249  0.1337 -0.1308
  282POPC   C4B 3817   7.467   5.748   6.513 -0.0541 -0.0388 -0.2773
  283POPC   NC3 3818   2.131   2.694   3.808  0.1199  0.0649  0.0766
  283POPC   PO4 3819   2.310   2.295   3.720  0.3476 -0.0758  0.0951
  283POPC   GL1 3820   2.504   2.391   4.218  0.0576  0.2163 -0.0743
  283POPC   GL2 3821   2.295   2.659   4.321 -0.1544  0.0136  0.1957
  283POPC   C1A 3822   2.588   2.418   4.582 -0.1487 -0.2533 -0.0626
  283POPC   D2A 3823   2.503   2.256   5.018  0.2622  0.0068  0.1344
  283POPC   C3A 3824   2.282   2.399   5.369  0.0331  0.2643 -0.0779
  283POPC   C4A 3825   1.883   2.617   5.582  0.0788 -0.0431 -0.2448
  283POPC   C1B 3826   2.222   2.693   4.793 -0.1185 -0.0527 -0.2453
  283POPC   C2B 3827   2.249   2.930   5.171  0.1094  0.3385 -0.1036
  283POPC   C3B 3828   2.649   3.124   5.358  0.0248 -0.1416  0.3729
  283POPC   C4B 3829   2.687   3.257   5.671  0.3274  0.0888 -0.1353
  284POPC   NC3 3830   8.772   9.281   4.276  0.2028  0.1698  0.1526
  284POPC   PO4 3831   8.743   9.106   4.679  0.0632 -0.0626  0.0346
  284POPC   GL1 3832   9.136   9.192   4.931  0.2193 -0.0734 -0.3101
  284POPC   GL2 3833   8.976   9.058   5.167 -0.1831  0.0589  0.0531
  284POPC   C1A 3834   9.486   9.391   5.105  0.1679 -0.2271 -0.1808
  284POPC   D2A 3835   9.845   9.492   5.279  0.0647  0.0108 -0.2651
  284POPC   C3A 3836   9.810   9.370   5.695  0.0958  0.0801 -0.2546
  284POPC   C4A 3837   9.465   9.130   5.917  0.1855  0.2090 -0.0121
  284POPC   C1B 3838   9.034   9.184   5.568  0.3326  0.2440 -0.2830
  284POPC   C2B 3839   9.015   8.908   5.967  0.1457 -0.0505  0.0419
  284POPC   C3B 3840   8.882   8.622   6.213 -0.4070 -0.5951  0.2312
  284POPC   C4B 3841   8.487   8.578   6.405 -0.1625  0.3490  0.2931
  285POPC   NC3 3842   9.502   8.510   4.452  0.0400 -0.3261  0.1862
  285POPC   PO4 3843   9.790   8.690   4.746 -0.0274  0.0700 -0.0933
  285POPC   GL1 3844   9.668   8.898   5.104  0.1391 -0.0621  0.0679
  285POPC   GL2 3845   9.973   9.016   5.345  0.2259  0.2886 -0.3435
  285POPC   C1A 3846   9.460   8.957   5.453 -0.2603 -0.1429 -0.4809
  285POPC   D2A 3847   9.281   8.605   5.692  0.1491 -0.0346 -0.0315
  285POPC   C3A 3848   9.372   8.613   6.130 -0.1613  0.0127 -0.3327
  285POPC   C4A 3849   9.678   8.447   6.551 -0.0082  0.1247  0.1944
  285POPC   C1B 3850   9.856   8.822   5.801  0.1838  0.2675  0.1716
  285POPC   C2B 3851   9.802   8.901   6.158 -0.0312  0.2776 -0.2612
  285POPC   C3B 3852   9.828   8.944   6.575 -0.1473 -0.2447  0.3583
  285POPC   C4B 3853   9.836   8.778   6.936  0.0832 -0.0194  0.0279
  286POPC   NC3 3854   2.855   1.472   4.029 -0.1955 -0.2853  0.1092
  286POPC   PO4 3855   2.551   1.836   3.864  0.1038  0.1906  0.1741
  286POPC   GL1 3856   2.911   2.035   4.153 -0.0856 -0.0815 -0.1695
  286POPC   GL2 3857   2.958   1.862   4.378  0.0265  0.0171  0.0117
  286POPC   C1A 3858   3.019   2.488   4.231  0.2716 -0.0514 -0.1061
  286POPC   D2A 3859   2.904   2.866   4.425  0.1310  0.1268 -0.1401
  286POPC   C3A 3860   2.681   2.939   4.837 -0.3385 -0.0676  0.3012
  286POPC   C4A 3861   2.685   2.677   5.123  0.2788 -0.2088  0.0942
  286POPC   C1B 3862   3.001   2.086   4.708 -0.2086  0.2543  0.3219
  286POPC   C2B 3863   3.464   2.090   5.003 -0.0855  0.2430 -0.1519
  286POPC   C3B 3864   3.782   2.161   4.898  0.1148  0.3954 -0.0653
  286POPC   C4B 3865   3.904   2.338   4.457 -0.0236  0.1048 -0.1619
  287POPC   NC3 3866   9.810   8.113   4.537  0.0259  0.1171 -0.3735
  287POPC   PO4 3867   9.342   8.045   4.392  0.0589  0.0185 -0.1772
  287POPC   GL1 3868   9.283   8.114   4.879 -0.0916 -0.0957  0.1697
  287POPC   GL2 3869   9.593   8.211   5.007  0.4567 -0.1673 -0.0408
  287POPC   C1A 3870   9.277   7.816   5.184  0.1143 -0.0168  0.0092
  287POPC   D2A 3871   9.660   7.465   5.302 -0.1029  0.2096 -0.1720
  287POPC   C3A 3872   9.757   7.256   5.599  0.0365  0.0499 -0.0787
  287POPC   C4A 3873   9.835   7.436   6.005 -0.2396  0.0217 -0.0723
  287POPC   C1B 3874   9.523   8.370   5.308 -0.1703  0.0954  0.1286
  287POPC   C2B 3875   9.714   8.337   5.678  0.2806  0.0096  0.0086
  287POPC   C3B 3876   9.940   8.413   6.110  0.1352  0.0094 -0.4198
  287POPC   C4B 3877  10.052   8.099   6.431  0.0653 -0.0826 -0.0100
  288POPC   NC3 3878   4.176   6.489   4.010 -0.1929  0.2502  0.1517
  288POPC   PO4 3879   4.652   6.307   3.976  0.3293 -0.0329  0.0922
  288POPC   GL1 3880   4.566   6.084   4.247  0.3151  0.3303  0.0698
  288POPC   GL2 3881   4.792   5.949   4.528  0.2541  0.2499 -0.1512
  288POPC   C1A 3882   4.293   5.987   4.692 -0.1275 -0.2340 -0.1989
  288POPC   D2A 3883   3.924   5.807   4.764 -0.1035  0.0710 -0.0920
  288POPC   C3A 3884   3.700   6.183   4.879 -0.1032  0.0077 -0.2818
  288POPC   C4A 3885   3.450   6.524   5.028  0.0952 -0.3729 -0.0038
  288POPC   C1B 3886   4.668   5.894   5.011 -0.2180  0.0063 -0.0835
  288POPC   C2B 3887   4.484   5.924   5.443 -0.0349  0.2069  0.1258
  288POPC   C3B 3888   4.304   6.352   5.644 -0.1894  0.2770 -0.0764
  288POPC   C4B 3889   4.454   6.577   5.972 -0.2520 -0.0839  0.2207
  289POPC   NC3 3890   8.580   0.913   4.296  0.1544  0.4248 -0.0214
  289POPC   PO4 3891   9.012   0.612   4.333  0.2924  0.3856  0.1023
  289POPC   GL1 3892   8.710   0.532   4.761 -0.3831 -0.2272 -0.0304
  289POPC   GL2 3893   8.571   0.743   4.960  0.0928 -0.0334 -0.1365
  289POPC   C1A 3894   8.818   0.293   4.985 -0.1114 -0.1861  0.0743
  289POPC   D2A 3895   8.928   0.190   5.425  0.1056  0.0565 -0.1894
  289POPC   C3A 3896   8.964   0.145   5.845  0.2364  0.1560  0.3145
  289POPC   C4A 3897   8.804   0.099   6.271  0.2532 -0.0183  0.2917
  289POPC   C1B 3898   8.850   0.795   5.234  0.4233 -0.0123  0.0251
  289POPC   C2B 3899   8.841   0.627   5.602 -0.1435 -0.2090 -0.0977
  289POPC   C3B 3900   9.076   0.645   6.078 -0.0197 -0.0401 -0.2323
  289POPC   C4B 3901   9.448   0.770   6.470 -0.3643  0.1980  0.2307
  290POPC   NC3 3902   4.202   3.206   3.153 -0.1053  0.0073 -0.1198
  290POPC   PO4 3903   3.740   3.399   3.099  0.1948 -0.0985  0.1724
  290POPC   GL1 3904   3.832   3.150   3.519  0.0785 -0.1312  0.1011
  290POPC   GL2 3905   3.705   3.300   3.900 -0.4258 -0.0060 -0.1905
  290POPC   C1A 3906   3.813   2.832   3.830 -0.0491 -0.0202  0.0043
  290POPC   D2A 3907   3.645   2.669   4.161 -0.6510 -0.0790 -0.1342
  290POPC   C3A 3908   3.421   2.872   4.480  0.0815 -0.3219 -0.0560
  290POPC   C4A 3909   3.146   3.246   4.552  0.1905 -0.0699  0.0451
  290POPC   C1B 3910   3.911   3.297   4.321  0.0985  0.0543 -0.0415
  290POPC   C2B 3911   3.726   3.255   4.679 -0.1303 -0.1304  0.0594
  290POPC   C3B 3912   3.466   3.185   5.000 -0.0096 -0.1554 -0.0796
  290POPC   C4B 3913   3.111   3.016   5.047 -0.1004  0.2489 -0.0287
  291POPC   NC3 3914   8.538   3.916   4.587  0.1711  0.0152 -0.0147
  291POPC   PO4 3915   8.077   3.877   4.720 -0.1655 -0.0883 -0.2151
  291POPC   GL1 3916   7.761   4.080   5.043 -0.2675  0.3113 -0.4480
  291POPC   GL2 3917   7.458   4.190   4.972 -0.2812  0.1241  0.2738
  291POPC   C1A 3918   7.582   3.966   5.456 -0.1462  0.4147  0.0965
  291POPC   D2A 3919   7.216   4.006   5.822 -0.2247 -0.2211  0.1342
  291POPC   C3A 3920   7.278   4.314   6.201  0.2307  0.1847  0.0312
  291POPC   C4A 3921   7.308   4.654   6.271 -0.2117  0.1206  0.0527
  291POPC   C1B 3922   7.180   4.295   5.346 -0.0349 -0.1752  0.0408
  291POPC   C2B 3923   6.800   4.203   5.529 -0.0040  0.0414 -0.0221
  291POPC   C3B 3924   6.572   4.517   5.730 -0.0005  0.0051 -0.0081
  291POPC   C4B 3925   6.458   4.795   6.026 -0.3524 -0.0726  0.1768
  292POPC   NC3 3926   2.724   3.738   3.639 -0.0355 -0.0778 -0.0041
  292POPC   PO4 3927   2.325   3.646   3.765 -0.2339  0.0881  0.1057
  292POPC   GL1 3928   2.297   3.894   4.124  0.2027 -0.0444  0.2126
  292POPC   GL2 3929   2.080   4.132   4.215 -0.1837 -0.0875 -0.0048
  292POPC   C1A 3930   2.636   4.115   4.422  0.0076  0.0837 -0.2101
  292POPC   D2A 3931   2.996   4.281   4.439  0.0924  0.1848 -0.1382
  292POPC   C3A 3932   3.388   4.051   4.492  0.0972 -0.4122  0.2937
  292POPC   C4A 3933   3.463   3.560   4.288  0.1435  0.4583 -0.2962
  292POPC   C1B 3934   2.139   4.055   4.668  0.1006  0.1408 -0.0945
  292POPC   C2B 3935   2.534   3.932   4.882 -0.1647 -0.2664  0.0827
  292POPC   C3B 3936   2.868   3.931   5.221  0.2555  0.0907 -0.1237
  292POPC   C4B 3937   3.144   4.170   5.541 -0.3052 -0.0828 -0.1897
  293POPC   NC3 3938   1.731   5.440   4.109  0.1129  0.1750 -0.3195
  293POPC   PO4 3939   2.151   5.173   4.112  0.0475 -0.1085 -0.2853
  293POPC   GL1 3940   2.083   5.016   4.438 -0.0012 -0.1922 -0.1625
  293POPC   GL2 3941   1.799   5.114   4.630  0.2567 -0.0960 -0.1969
  293POPC   C1A 3942   2.372   4.792   4.621  0.0690  0.2008 -0.1866
  293POPC   D2A 3943   2.554   4.481   4.812 -0.1854 -0.1742  0.0941
  293POPC   C3A 3944   2.272   4.351   5.038 -0.2062 -0.1862  0.1214
  293POPC   C4A 3945   2.176   4.479   5.391 -0.0658  0.1580  0.1540
  293POPC   C1B 3946   1.608   5.057   5.073 -0.0246  0.1707 -0.5502
  293POPC   C2B 3947   1.444   4.726   5.328 -0.1363  0.3906  0.2344
  293POPC   C3B 3948   1.700   4.359   5.614  0.2236 -0.3653 -0.0096
  293POPC   C4B 3949   2.114   4.203   5.815  0.2154 -0.0440 -0.1594
  294POPC   NC3 3950   6.772   2.715   4.147 -0.3731 -0.2276  0.2478
  294POPC   PO4 3951   6.625   2.335   4.080 -0.0548  0.1272  0.1931
  294POPC   GL1 3952   6.556   2.428   4.530 -0.2988  0.0568  0.4144
  294POPC   GL2 3953   6.459   2.748   4.618  0.1643 -0.1073  0.5259
  294POPC   C1A 3954   6.561   2.457   5.024 -0.1442 -0.1321  0.0933
  294POPC   D2A 3955   6.237   2.403   5.364  0.1106  0.0421 -0.1348
  294POPC   C3A 3956   6.072   2.398   5.768  0.1892  0.0652  0.3535
  294POPC   C4A 3957   5.735   2.339   5.989 -0.2193  0.2314 -0.0645
  294POPC   C1B 3958   6.856   2.824   4.840  0.0888  0.1820 -0.3991
  294POPC   C2B 3959   7.133   3.119   5.206 -0.1635  0.0373 -0.0485
  294POPC   C3B 3960   7.225   3.065   5.631  0.1010 -0.0786 -0.1086
  294POPC   C4B 3961   7.343   3.038   6.116  0.1653  0.1099  0.1524
  295POPC   NC3 3962   5.993   7.019   4.373 -0.2683  0.1970 -0.0934
  295POPC   PO4 3963   6.027   7.441   4.676  0.0461 -0.1265 -0.1079
  295POPC   GL1 3964   6.196   7.538   5.020  0.2134 -0.1333 -0.2676
  295POPC   GL2 3965   6.398   7.743   5.092  0.0893  0.0214  0.1972
  295POPC   C1A 3966   6.309   7.400   5.450 -0.0185  0.2130 -0.2058
  295POPC   D2A 3967   6.155   7.183   5.849  0.1163  0.1612 -0.1207
  295POPC   C3A 3968   5.897   6.950   5.982  0.1651  0.0469 -0.0383
  295POPC   C4A 3969   5.618   6.603   6.213 -0.2257 -0.0915  0.1631
  295POPC   C1B 3970   6.644   7.918   5.470 -0.1799  0.1188 -0.0183
  295POPC   C2B 3971   6.550   8.175   5.833 -0.0933 -0.2092  0.0074
  295POPC   C3B 3972   6.142   8.094   6.038  0.0477  0.0357 -0.1325
  295POPC   C4B 3973   5.707   8.041   5.861 -0.1077  0.0126 -0.2275
  296POPC   NC3 3974   0.793   5.414   4.450 -0.0878  0.0217  0.4865
  296POPC   PO4 3975   1.270   5.300   4.301  0.0391 -0.1135  0.3023
  296POPC   GL1 3976   1.296   5.260   4.701  0.5261 -0.0998 -0.0524
  296POPC   GL2 3977   1.044   4.988   4.733 -0.1680 -0.1414  0.0182
  296POPC   C1A 3978   1.258   5.597   5.095 -0.1731 -0.0108 -0.2309
  296POPC   D2A 3979   1.370   5.487   5.527  0.3478  0.1778  0.1484
  296POPC   C3A 3980   1.361   5.105   5.750 -0.0323 -0.2126 -0.1038
  296POPC   C4A 3981   1.393   4.653   5.937 -0.1703 -0.2365  0.0531
  296POPC   C1B 3982   1.154   5.109   5.241  0.1664 -0.2752 -0.0493
  296POPC   C2B 3983   0.881   5.123   5.725  0.1531 -0.3077  0.0870
  296POPC   C3B 3984   0.745   5.495   6.107  0.0421 -0.0382 -0.2321
  296POPC   C4B 3985   0.673   5.489   6.489  0.0851  0.2016  0.1334
  297POPC   NC3 3986   9.039   4.820   4.295 -0.0153  0.0286  0.0484
  297POPC   PO4 3987   8.863   4.879   4.842  0.0126  0.1527  0.0198
  297POPC   GL1 3988   8.562   4.862   5.214 -0.0612 -0.1920  0.1867
  297POPC   GL2 3989   8.563   4.530   5.416  0.1402  0.4326  0.3104
  297POPC   C1A 3990   8.758   5.013   5.656 -0.0023  0.2755  0.1315
  297POPC   D2A 3991   8.758   5.048   5.998 -0.2687 -0.1923 -0.0406
  297POPC   C3A 3992   8.465   5.091   6.242 -0.1320  0.1376 -0.1434
  297POPC   C4A 3993   8.301   5.255   6.635 -0.3911  0.0632  0.2962
  297POPC   C1B 3994   8.457   4.290   5.703 -0.3209 -0.2026 -0.0526
  297POPC   C2B 3995   8.455   4.089   6.031 -0.1274 -0.2452 -0.2673
  297POPC   C3B 3996   8.578   3.905   6.381  0.0053 -0.2203  0.0366
  297POPC   C4B 3997   8.765   3.689   6.658  0.0858 -0.0656  0.1092
  298POPC   NC3 3998   7.738   5.689   4.031 -0.2021  0.0489  0.1099
  298POPC   PO4 3999   7.904   5.608   4.434  0.4849  0.2674 -0.1981
  298POPC   GL1 4000   8.074   5.418   4.839 -0.0877  0.1647  0.3754
  298POPC   GL2 4001   8.393   5.270   4.870  0.0130  0.0180  0.0250
  298POPC   C1A 4002   8.076   5.020   5.162 -0.1749 -0.2129 -0.0615
  298POPC   D2A 4003   7.751   4.992   5.569  0.0096 -0.1772 -0.0455
  298POPC   C3A 4004   7.771   4.769   6.080 -0.0039 -0.2805  0.1143
  298POPC   C4A 4005   8.074   4.832   6.415  0.0706  0.1250 -0.1704
  298POPC   C1B 4006   8.145   5.475   5.305 -0.0136  0.1421 -0.1111
  298POPC   C2B 4007   8.152   5.332   5.720 -0.2050  0.0214  0.0437
  298POPC   C3B 4008   8.012   5.434   6.209 -0.0647  0.1408  0.0148
  298POPC   C4B 4009   7.847   5.325   6.630  0.3945  0.3280  0.0231
  299POPC   NC3 4010   3.212   7.183   4.643 -0.0351 -0.0192  0.1425
  299POPC   PO4 4011   3.683   7.129   4.661  0.1249 -0.3559 -0.2657
  299POPC   GL1 4012   3.688   6.947   4.978 -0.1232 -0.1598  0.0272
  299POPC   GL2 4013   3.342   7.017   5.135  0.1594 -0.0000  0.0371
  299POPC   C1A 4014   3.759   6.748   5.355  0.0111 -0.4629 -0.0596
  299POPC   D2A 4015   3.785   6.342   5.470 -0.0466 -0.2026 -0.2083
  299POPC   C3A 4016   3.495   6.098   5.412  0.2230 -0.1456 -0.0654
  299POPC   C4A 4017   3.292   5.772   5.266  0.0255 -0.0768 -0.0560
  299POPC   C1B 4018   3.449   7.108   5.622 -0.1275  0.2507  0.0732
  299POPC   C2B 4019   3.657   7.126   6.159  0.0196  0.0518 -0.3792
  299POPC   C3B 4020   3.926   7.177   6.526  0.0333  0.0883 -0.1495
  299POPC   C4B 4021   4.108   7.292   6.923  0.0684  0.1846  0.2738
  300POPC   NC3 4022   9.009   4.163   4.346 -0.1314 -0.1110  0.0691
  300POPC   PO4 4023   8.806   4.415   4.521  0.0162 -0.2454  0.1269
  300POPC   GL1 4024   8.790   4.311   4.943  0.0131  0.1764  0.4014
  300POPC   GL2 4025   9.032   4.266   5.097  0.0241 -0.2686  0.0282
  300POPC   C1A 4026   8.612   4.054   5.246  0.1118  0.1543 -0.0492
  300POPC   D2A 4027   8.178   4.051   5.374 -0.1621  0.0248 -0.0321
  300POPC   C3A 4028   8.225   3.761   5.716  0.1355 -0.1716 -0.0532
  300POPC   C4A 4029   8.569   3.564   5.966  0.1930  0.3642  0.0450
  300POPC   C1B 4030   9.034   4.451   5.568  0.0735  0.0149  0.1322
  300POPC   C2B 4031   8.831   4.560   5.965  0.0409 -0.0948  0.1279
  300POPC   C3B 4032   8.864   4.317   6.285 -0.0711  0.1146 -0.0628
  300POPC   C4B 4033   8.850   4.282   6.670  0.0406 -0.2231 -0.2301
  301POPC   NC3 4034   8.568   2.953   4.359 -0.4215 -0.0245  0.0213
  301POPC   PO4 4035   8.248   3.275   4.435 -0.1739  0.0846  0.1363
  301POPC   GL1 4036   8.232   3.336   4.888  0.2271  0.2268  0.0798
  301POPC   GL2 4037   8.333   3.610   5.063  0.0742  0.1329 -0.0941
  301POPC   C1A 4038   8.135   3.067   5.215  0.0805  0.0768  0.0662
  301POPC   D2A 4039   8.233   3.199   5.597  0.1732  0.1116  0.0331
  301POPC   C3A 4040   8.595   2.966   5.753 -0.1343 -0.1430  0.4756
  301POPC   C4A 4041   8.875   2.708   5.552 -0.0133 -0.0029  0.0884
  301POPC   C1B 4042   7.962   3.565   5.347  0.1021 -0.0268  0.1058
  301POPC   C2B 4043   7.717   3.660   5.818  0.4784 -0.0108 -0.2285
  301POPC   C3B 4044   7.574   3.519   6.268 -0.1180  0.1626  0.2069
  301POPC   C4B 4045   7.219   3.470   6.412  0.2542  0.0469  0.1440
  302W        W 4046   3.590   2.331  10.592 -0.2156 -0.0906  0.1860
  303W        W 4047   3.789   7.268   8.573  0.1215 -0.0235 -0.0517
  304W        W 4048   6.947   8.255   4.208 -0.1610  0.0861 -0.5107
  305W        W 4049   5.263   2.480   3.070 -0.0819  0.0167 -0.1377
  306W        W 4050   0.676   7.856  12.694  0.0700  0.0589  0.0138
  307W        W 4051   4.176   3.633   9.868  0.0440 -0.0163  0.1939
  308W        W 4052   6.511   3.232   0.109 -0.0312 -0.1556 -0.0819
  309W        W 4053   0.947   9.830   2.995 -0.2899 -0.2083 -0.3283
  310W        W 4054   9.295   3.200  11.910  0.2571 -0.1949  0.0426
  311W        W 4055   0.625   7.810  10.473  0.0901 -0.1579 -0.0989
  312W        W 4056   0.229   2.721   0.766 -0.1660  0.1803  0.3578
  313W        W 4057   1.973   5.341   2.918  0.0155 -0.2268  0.2097
  314W        W 4058   8.385   4.261  12.384  0.0940 -0.1418  0.0177
  315W        W 4059   7.641   1.094   9.534  0.0266  0.3128 -0.2374
  316W        W 4060   2.632   8.722   2.190 -0.2576  0.2770 -0.0323
  317W        W 4061   2.755   5.296  12.420 -0.1230  0.1778  0.1011
  318W        W 4062   1.217   8.362  10.243 -0.0987 -0.2143 -0.0391
  319W        W 4063   6.871   0.416   2.386 -0.2383 -0.0065  0.0465
  320W        W 4064   8.025   8.176   1.340 -0.0367 -0.2107  0.1542
  321W        W 4065   0.581   8.663  12.830  0.3715 -0.0548  0.0307
  322W        W 4066   7.869   0.934   0.467 -0.1716  0.1779 -0.2973
  323W        W 4067   9.636   2.176  10.374 -0.3908 -0.0582  0.0552
  324W        W 4068   3.614   9.878  12.171 -0.2529  0.0078 -0.4381
  325W        W 4069   2.460   4.824   1.528  0.0882 -0.1006  0.2838
  326W        W 4070   4.331   3.727  11.651 -0.2419 -0.0078  0.0292
  327W        W 4071   0.601   8.250   3.955 -0.0096  0.0728 -0.1590
  328W        W 4072   6.302   7.837  12.137  0.0430 -0.0242  0.0246
  329W        W 4073   7.850   3.513   9.630 -0.3976  0.3193  0.0417
  330W        W 4074   4.659   0.865   2.676  0.1132  0.0864 -0.0354
  331W        W 4075   4.784   9.058  12.195  0.2563  0.0123  0.0373
  332W        W 4076   1.534   8.550  10.668  0.1388 -0.2517  0.3339
  333W        W 4077   2.514   4.928  10.681  0.2505  0.1219 -0.0786
  334W        W 4078   3.662   1.809   1.255  0.0808  0.0331  0.0339
  335W        W 4079   2.182   3.084   1.029  0.1875  0.0403 -0.2124
  336W        W 4080   1.607   3.907  11.314 -0.0241  0.1820  0.0489
  337W        W 4081   2.808   6.465   1.504 -0.3022  0.1887  0.1640
  338W        W 4082   7.178   2.229  12.001 -0.5091  0.0462 -0.0223
  339W        W 4083   5.905   8.211   9.743  0.1421  0.1199 -0.0696
  340W        W 4084   6.221   3.919   1.865  0.0494  0.2783  0.1152
  341W        W 4085   1.366   1.133  10.750 -0.0760  0.1417 -0.1125
  342W        W 4086   0.721   1.062  12.816  0.3225 -0.2243 -0.0031
  343W        W 4087   7.462   6.158   2.453  0.5562  0.0134  0.2765
  344W        W 4088   3.626   1.584   1.750  0.0599 -0.0812  0.1383
  345W        W 4089   8.492   0.313   9.919 -0.0702 -0.1950 -0.0117
  346W        W 4090   5.627   4.998  11.918  0.0716  0.0710 -0.2630
  347W        W 4091   2.783   3.553  10.757  0.2878  0.0925  0.2727
  348W        W 4092   1.029   6.842   0.239 -0.2074  0.4111 -0.0982
  349W        W 4093   0.196   3.452   3.683 -0.1958  0.0442 -0.2705
  350W        W 4094   2.346   5.161   9.758  0.1435 -0.0098 -0.2334
  351W        W 4095   6.731   8.202   0.632  0.3339 -0.3449 -0.1675
  352W        W 4096   1.894   7.980   3.730  0.0124  0.0097  0.2926
  353W        W 4097   7.859   8.224   9.693  0.2806  0.1274 -0.5301
  354W        W 4098   6.531   2.813   3.725 -0.1788  0.3703 -0.0520
  355W        W 4099   1.744   2.376   1.854 -0.0339 -0.2546 -0.4492
  356W        W 4100   8.118   1.172  12.024  0.3245 -0.0804  0.0755
  357W        W 4101   7.192   1.418   9.423 -0.0744  0.0687  0.0034
  358W        W 4102   8.806   0.015  12.541 -0.1311 -0.0327  0.0764
  359W        W 4103   9.485   2.128   1.716  0.2199 -0.2152 -0.2194
  360W        W 4104   2.792   5.746  12.312 -0.0510  0.1460 -0.0530
  361W        W 4105   7.284   8.782   2.215 -0.1176  0.0291 -0.3140
  362W        W 4106   3.648   1.078   1.764 -0.0837 -0.1406 -0.1462
  363W        W 4107   5.086   7.179   0.915 -0.2331  0.1337 -0.0648
  364W        W 4108   4.161   6.648  11.667  0.0768 -0.1941 -0.1793
  365W        W 4109   1.214   7.085   0.723 -0.0244 -0.2333 -0.0685
  366W        W 4110   7.865   9.882  12.285 -0.2040  0.6637 -0.1386
  367W        W 4111   1.870   6.502   3.695 -0.1986 -0.3910 -0.0086
  368W        W 4112   9.427   7.021  10.581 -0.3007  0.0449 -0.2238
  369W        W 4113   8.121   5.804  10.137 -0.2276 -0.2413 -0.0313
  370W        W 4114   7.779   1.422   3.261 -0.1432  0.0647 -0.2616
  371W        W 4115   9.254   4.786   2.926 -0.1453 -0.2395 -0.0283
  372W        W 4116   3.839   0.638   0.192 -0.1363  0.0170  0.2440
  373W        W 4117   1.551   1.925  12.643  0.1745  0.3210 -0.0014
  374W        W 4118   0.642   6.053   8.871  0.0300  0.0917 -0.1619
  375W        W 4119   0.082   8.207   0.414  0.3357  0.1101 -0.3437
  376W        W 4120   9.301   3.934   3.995 -0.0918  0.1800 -0.0669
  377W        W 4121   0.922   6.255  12.509 -0.1082  0.0008 -0.3117
  378W        W 4122   3.034   1.083   2.937  0.1046  0.0200  0.0161
  379W        W 4123   8.819   9.438   0.166 -0.2169 -0.0416 -0.2675
  380W        W 4124   2.339   7.040  10.570 -0.0603 -0.1518  0.0903
  381W        W 4125   4.089   0.180  11.133  0.1305 -0.4309 -0.0275
  382W        W 4126   6.243   7.636   3.355 -0.1595  0.0577  0.4866
  383W        W 4127   0.995   4.516   9.019  0.4131 -0.1175  0.3130
  384W        W 4128   5.527   5.467   0.288 -0.2213 -0.4094  0.0908
  385W        W 4129   1.977   1.503   8.766 -0.0854  0.1181  0.0255
  386W        W 4130   7.823   9.394   0.938  0.0387  0.0546  0.0424
  387W        W 4131   5.191   9.161   1.278  0.2086 -0.0631  0.0564
  388W        W 4132   4.917   3.227  10.479  0.3135 -0.3781  0.0031
  389W        W 4133   8.454   6.355  10.872  0.0275 -0.1096  0.1411
  390W        W 4134   9.206   7.948   0.871 -0.0139  0.2541  0.1887
  391W        W 4135   5.225   0.686  11.045 -0.2967  0.1325  0.0179
  392W        W 4136   7.759   0.109  11.112 -0.0794  0.0149 -0.0478
  393W        W 4137   8.029   4.726   0.537  0.0996  0.0438 -0.0264
  394W        W 4138   6.891   6.267   1.834 -0.3272  0.3037  0.0125
  395W        W 4139   2.327   3.940   9.604  0.1824  0.0990  0.0907
  396W        W 4140   5.092   6.794   3.961 -0.4645  0.1172  0.1725
  397W        W 4141   8.098   9.838   1.084  0.1325  0.2934  0.0923
  398W        W 4142   2.859   8.276   3.428 -0.0305  0.1432 -0.0254
  399W        W 4143   7.386   2.984   1.434  0.1292  0.1131 -0.0132
  400W        W 4144   1.882   8.220  10.734  0.0133 -0.4265 -0.0427
  401W        W 4145   2.451   8.820  11.166 -0.1048 -0.1186  0.1133
  402W        W 4146   3.730   8.216   5.456 -0.1178  0.0808  0.0628
  403W        W 4147   3.825   1.468   9.874 -0.0677  0.0924 -0.0478
  404W        W 4148   3.113   2.985   1.662 -0.0867 -0.3732 -0.4462
  405W        W 4149   2.757   5.631  12.850  0.0187 -0.0073  0.0295
  406W        W 4150   9.076   7.464  12.432  0.0421 -0.3375  0.0677
  407W        W 4151   7.992   2.359   2.135 -0.0126 -0.0911  0.2061
  408W        W 4152   5.673   1.286  11.947 -0.1931  0.1987  0.0073
  409W        W 4153   6.104   9.037   9.036 -0.0611 -0.2356 -0.2219
  410W        W 4154   6.090   9.845   3.774 -0.1220  0.0941  0.3488
  411W        W 4155   8.842   3.147   1.765  0.2923 -0.5046  0.4619
  412W        W 4156   2.835   5.844  11.819 -0.0224  0.0261  0.0818
  413W        W 4157   5.064   7.958   2.749 -0.1764 -0.0475  0.1581
  414W        W 4158   4.055   5.530   0.518  0.0818  0.1865 -0.2891
  415W        W 4159   9.473   5.797  11.329 -0.0937  0.2189  0.2435
  416W        W 4160   1.903   0.394  11.170 -0.1412  0.0740  0.0197
  417W        W 4161   4.434   9.401   2.399  0.0031  0.1744 -0.0857
  418W        W 4162   9.166   1.910   3.111  0.0765 -0.0565 -0.2572
  419W        W 4163   2.444   2.831   3.343 -0.0879  0.1738  0.0623
  420W        W 4164   6.817   0.398  10.733 -0.0864 -0.1979  0.0043
  421W        W 4165   7.323   0.342  10.948 -0.0879  0.0549  0.2297
  422W        W 4166   3.387   0.678  10.981 -0.0718 -0.0029  0.0029
  423W        W 4167   3.358   6.653   2.030  0.0826 -0.2290  0.2011
  424W        W 4168   9.078   0.971   9.178 -0.2287  0.0462  0.0676
  425W        W 4169   4.302   5.448  10.324 -0.4224  0.0542 -0.1759
  426W        W 4170   6.752   7.959  10.344 -0.1198 -0.2230  0.1655
  427W        W 4171   2.641   8.190  12.312 -0.0697 -0.1069 -0.2350
  428W        W 4172   6.207   7.424   9.293  0.2222 -0.0494 -0.2732
  429W        W 4173   6.663   7.707   2.980  0.3392  0.2070  0.0034
  430W        W 4174   9.169   1.539  10.772  0.2222  0.2293 -0.0494
  431W        W 4175   9.101   0.343  11.789 -0.1882  0.1175 -0.0839
  432W        W 4176   0.060   0.304  12.902  0.0777 -0.2260  0.4887
  433W        W 4177   2.350   0.597  10.223 -0.0699 -0.2561  0.4074
  434W        W 4178   2.601   9.216   0.871 -0.1355  0.2476  0.0056
  435W        W 4179   7.040   1.418  12.078 -0.3585 -0.0269  0.0589
  436W        W 4180   3.229   4.039  10.324 -0.0555  0.1358  0.3626
  437W        W 4181   2.349   2.521  10.302 -0.3210 -0.0467  0.2427
  438W        W 4182   8.752   2.575   0.357 -0.1412  0.1636  0.0400
  439W        W 4183   1.573   7.989   4.624 -0.0347 -0.0002 -0.0184
  440W        W 4184   5.630   1.432   9.880 -0.1086  0.1831 -0.1453
  441W        W 4185   8.990   5.379  12.643  0.5254 -0.1491 -0.1241
  442W        W 4186   4.347   1.773   3.246  0.0224  0.2061 -0.0760
  443W        W 4187   3.397   1.629   3.469 -0.1695  0.1778  0.0451
  444W        W 4188   2.550   8.883  10.664 -0.0703 -0.0432 -0.0302
  445W        W 4189   6.743   0.547   3.090  0.1754 -0.0388 -0.0127
  446W        W 4190   1.070   1.880  10.418  0.4183  0.0690 -0.1659
  447W        W 4191   3.249   6.434   9.941  0.1102  0.1015 -0.2287
  448W        W 4192   8.728   8.009  10.361  0.0587 -0.1791 -0.2635
  449W        W 4193   6.103   8.756  11.722 -0.0744  0.1149 -0.0412
  450W        W 4194   4.282   2.882  12.193 -0.0867  0.1311  0.1623
  451W        W 4195   4.423   7.506  10.656  0.0347 -0.0893 -0.0100
  452W        W 4196   4.160   1.796  10.095  0.1819  0.0249  0.0984
  453W        W 4197   0.671   3.308   9.049 -0.2119  0.1188 -0.2442
  454W        W 4198   5.380   5.968   3.561  0.1158  0.1675  0.1059
  455W        W 4199   6.544   0.853  10.754  0.0476 -0.0720 -0.0835
  456W        W 4200   3.406   1.692   9.932  0.1645  0.0360  0.0973
  457W        W 4201   1.062   9.814  12.584 -0.2020 -0.1490  0.0749
  458W        W 4202   5.761   7.170   2.650  0.1011 -0.0162 -0.0748
  459W        W 4203   6.996   7.381  11.033 -0.3414  0.3250  0.2276
  460W        W 4204   2.659   1.496   2.847  0.0151  0.1242  0.1550
  461W        W 4205   0.264   5.908  12.359 -0.0304 -0.1974  0.1832
  462W        W 4206   0.160   7.411   9.581 -0.1036 -0.0481 -0.0892
  463W        W 4207   1.868   2.881   9.991  0.2934 -0.1026  0.2244
  464W        W 4208   8.179   2.930   2.892 -0.2324  0.0612  0.2663
  465W        W 4209   4.834   3.139   2.347  0.0091  0.1835  0.2007
  466W        W 4210   6.270   4.275   2.901 -0.0344 -0.0538  0.0474
  467W        W 4211   5.597   0.698  10.328 -0.0971  0.2747  0.1596
  468W        W 4212   2.780   4.783   0.222 -0.0708 -0.1979 -0.2229
  469W        W 4213   5.400   0.526   2.228  0.2393 -0.0276 -0.0230
  470W        W 4214   6.417   5.365   0.325 -0.0332 -0.1454  0.1122
  471W        W 4215   9.647   3.962  10.934  0.2450  0.1103  0.2036
  472W        W 4216   1.677   7.133   2.272 -0.0505 -0.0105  0.0145
  473W        W 4217   7.695   5.595   1.179  0.0951  0.0108  0.0128
  474W        W 4218   6.878   9.201  11.510 -0.0281 -0.1352  0.0275
  475W        W 4219   1.237   5.312   1.037  0.4363  0.3538  0.0127
  476W        W 4220   3.595   5.859   9.106 -0.2598  0.1662 -0.3394
  477W        W 4221   6.674   8.360  11.431  0.0863 -0.2131  0.1554
  478W        W 4222   5.951   2.768  11.438 -0.0654  0.2620  0.0504
  479W        W 4223   6.761   8.880  10.567 -0.1714 -0.0866 -0.3130
  480W        W 4224   4.717   8.411  12.725  0.0850 -0.0798  0.2780
  481W        W 4225   9.378   6.335   2.075  0.1082  0.0411  0.1739
  482W        W 4226   6.731   8.417  10.114  0.2372  0.3115 -0.1014
  483W        W 4227   2.484   1.711   0.180 -0.0976  0.2576 -0.0202
  484W        W 4228   2.498   4.760  12.829  0.0629 -0.2463 -0.0033
  485W        W 4229   4.635   0.240   1.244 -0.4514 -0.2172  0.1246
  486W        W 4230   2.773   6.511   9.922  0.1031 -0.3096  0.0985
  487W        W 4231   9.215   4.299   9.099 -0.0868 -0.3050  0.0429
  488W        W 4232   1.418   6.088  10.057 -0.0018  0.2342 -0.0967
  489W        W 4233   1.479   9.056   2.109  0.0369 -0.1102  0.0944
  490W        W 4234   5.636   7.053   4.828 -0.1220 -0.1822  0.3056
  491W        W 4235   7.338   6.479   4.244 -0.0058  0.1672 -0.0562
  492W        W 4236   9.463   8.722  10.511  0.1542 -0.1295  0.0091
  493W        W 4237   5.750   1.016   2.345 -0.0702 -0.1608 -0.0211
  494W        W 4238   4.806   6.681   3.587  0.2201  0.0492  0.0026
  495W        W 4239   1.301   4.112   1.328  0.4860 -0.0183  0.0759
  496W        W 4240   7.905   1.404   2.256 -0.0728  0.2320  0.0104
  497W        W 4241   3.903   2.870   9.562 -0.0564 -0.1029  0.1733
  498W        W 4242   1.387   9.044   3.412  0.3091  0.1620 -0.0447
  499W        W 4243   6.053   8.403  12.391  0.1081 -0.1400  0.1150
  500W        W 4244   7.393   8.545   3.705  0.1146 -0.0856  0.2060
  501W        W 4245   3.494   7.760   2.891 -0.1581 -0.0316  0.0503
  502W        W 4246   7.972   8.590   1.611  0.0378 -0.1297 -0.0387
  503W        W 4247   9.064   4.813  12.676 -0.1574 -0.0629  0.0198
  504W        W 4248   7.575   7.584   2.234 -0.0168  0.0175  0.1306
  505W        W 4249   1.979   6.156   2.492  0.1175 -0.3452  0.1125
  506W        W 4250   8.492   2.483  10.165 -0.1289  0.1151 -0.0061
  507W        W 4251   2.541   9.728  11.671 -0.0524  0.4733 -0.1083
  508W        W 4252   0.102   2.981   1.627  0.0528 -0.0240 -0.0688
  509W        W 4253   0.411   2.602   1.740  0.0841  0.0277  0.0041
  510W        W 4254   6.389   4.736   1.333 -0.3558 -0.0552 -0.1261
  511W        W 4255   7.263   3.933  11.864  0.2528  0.0907  0.1548
  512W        W 4256   4.344   7.196  11.745  0.0635 -0.2720  0.1106
  513W        W 4257   6.683   8.868  10.076  0.1230 -0.1987  0.0149
  514W        W 4258   7.877   8.005   2.253 -0.2199  0.2953 -0.1834
  515W        W 4259   6.439   4.845  12.435  0.1105 -0.0612 -0.0300
  516W        W 4260   2.192   6.528  10.567 -0.0045 -0.2785  0.0288
  517W        W 4261   0.133   4.995   2.414  0.0400 -0.0068  0.2799
  518W        W 4262   6.080   9.088  11.335  0.0974 -0.1308 -0.1400
  519W        W 4263   7.498   0.869  11.293  0.0541  0.3597  0.0851
  520W        W 4264   2.225   4.922   0.430  0.4496  0.1102 -0.1558
  521W        W 4265   8.154   1.493  10.996  0.0895 -0.2070  0.0231
  522W        W 4266   4.369   6.480  12.261 -0.0913  0.0082 -0.3335
  523W        W 4267   6.077   4.909   0.884  0.0627  0.1517  0.0767
  524W        W 4268   2.005   3.260  11.922 -0.0493 -0.0207  0.0109
  525W        W 4269   5.877   0.984   1.525 -0.0404 -0.1064  0.1936
  526W        W 4270   5.390   6.510   3.577  0.3280 -0.2087  0.0072
  527W        W 4271   8.416   3.623  11.846  0.2274  0.0364 -0.0130
  528W        W 4272   5.012   5.483  11.272 -0.1910  0.1291  0.2087
  529W        W 4273   2.989   1.843   3.632  0.1289 -0.1440  0.0157
  530W        W 4274   7.182   6.947   0.501  0.0897 -0.1292 -0.3132
  531W        W 4275   4.914   8.472   8.874 -0.1337  0.2920  0.1313
  532W        W 4276   6.309   7.025   1.815 -0.0706  0.2418 -0.2516
  533W        W 4277   7.716   6.054   0.062  0.1694  0.1974  0.1714
  534W        W 4278   1.640   4.648  11.931 -0.1583  0.0868  0.0339
  535W        W 4279   6.355   2.063   2.906 -0.0760  0.0826 -0.0525
  536W        W 4280   2.598   4.195   3.891 -0.2907 -0.3720 -0.2419
  537W        W 4281   8.623   5.593   1.030  0.0836  0.0560 -0.0804
  538W        W 4282   2.782   7.558   3.844 -0.1068 -0.2378 -0.0115
  539W        W 4283   1.990   8.916   2.154 -0.0255  0.1728  0.1416
  540W        W 4284   5.200   6.498  10.293 -0.1792 -0.0185  0.2154
  541W        W 4285   4.030   1.647  12.901  0.1509  0.1300  0.1794
  542W        W 4286   5.692   2.672   2.865  0.0097  0.0756 -0.0155
  543W        W 4287   6.353   1.449   9.457  0.1312  0.1392 -0.1752
  544W        W 4288   5.648   1.213  12.939  0.0421  0.1322 -0.3204
  545W        W 4289   1.132   3.511   8.849 -0.0594 -0.0390 -0.1479
  546W        W 4290   6.893   6.548   1.183 -0.0895  0.1034  0.1046
  547W        W 4291   5.107   4.538   1.998  0.3310  0.0993  0.2204
  548W        W 4292   5.805   2.329  10.169  0.0277  0.3121  0.4090
  549W        W 4293   9.267   0.841  12.905  0.2400  0.0619 -0.0500
  550W        W 4294   0.527   9.526   9.123 -0.0794  0.4444  0.0621
  551W        W 4295   1.947   4.310   1.479  0.1323 -0.3784  0.1719
  552W        W 4296   2.693   1.712   0.734 -0.1949 -0.5210 -0.0996
  553W        W 4297   9.357   8.018  11.188 -0.0484  0.1029  0.1697
  554W        W 4298   9.597   0.721   9.067  0.1524 -0.0496  0.2379
  555W        W 4299   3.995   2.176   0.136 -0.3287 -0.0283 -0.1022
  556W        W 4300   2.236   7.553  11.385 -0.0053 -0.0031 -0.0559
  557W        W 4301   1.271   0.883   0.180  0.1997  0.0753 -0.0474
  558W        W 4302   1.450   5.082   2.738  0.4126  0.0082 -0.3420
  559W        W 4303   7.438   8.213   9.394  0.2223 -0.2224 -0.1018
  560W        W 4304   7.439   1.415  12.560 -0.4134  0.0202  0.0042
  561W        W 4305   3.528   2.164  11.942  0.0596 -0.0508 -0.0649
  562W        W 4306   8.434   1.580  10.113  0.1350  0.1227 -0.0132
  563W        W 4307   3.454   4.569  11.499 -0.3556 -0.0888 -0.1122
  564W        W 4308   4.636   5.434  11.619 -0.2078 -0.6006  0.1466
  565W        W 4309   0.373   7.760   0.682  0.0268 -0.2325 -0.4413
  566W        W 4310   9.584   5.884  10.434 -0.0451  0.1936  0.1612
  567W        W 4311   6.849   5.733   0.319 -0.1124 -0.0290  0.0468
  568W        W 4312   9.463   4.127   0.852  0.1071  0.0560  0.0127
  569W        W 4313   1.331   6.654   4.422 -0.0679  0.2026  0.1733
  570W        W 4314   5.625   1.842   1.958  0.1005 -0.1302  0.1077
  571W        W 4315   5.300   2.264  10.199  0.2232  0.0081  0.2169
  572W        W 4316   6.359   2.704  12.515 -0.1881 -0.2424 -0.1029
  573W        W 4317   3.304   1.304   1.428  0.1038  0.1489 -0.0996
  574W        W 4318   4.115   0.911   9.698  0.0572  0.1420  0.2697
  575W        W 4319   1.314   1.264  11.923 -0.1970  0.0350  0.2886
  576W        W 4320   7.689   5.197   4.609 -0.1267  0.2090  0.1184
  577W        W 4321   8.981   6.207   2.382  0.1094 -0.3018  0.1536
  578W        W 4322   7.306   2.013   2.479  0.1542  0.1041 -0.3145
  579W        W 4323   5.744   8.402   0.897  0.1499  0.0553 -0.0507
  580W        W 4324   7.607   0.878  12.209 -0.0800 -0.4304  0.2320
  581W        W 4325   9.636   2.430  11.265 -0.3000  0.0886 -0.0601
  582W        W 4326   8.546   1.412  11.897  0.2662 -0.2169 -0.0310
  583W        W 4327   8.702   2.203  12.965  0.0283 -0.0454  0.1216
  584W        W 4328   4.674   7.428   1.749 -0.2059 -0.2214 -0.0995
  585W        W 4329   6.196   3.941   2.445  0.1447  0.4485  0.0132
  586W        W 4330   2.103   7.504   9.172 -0.1568 -0.1101  0.0533
  587W        W 4331   9.793   0.136   3.750  0.0997  0.0007 -0.0656
  588W        W 4332   1.338   7.132  12.758  0.1598  0.1549 -0.1710
  589W        W 4333   7.035   1.670   9.000 -0.1352  0.2172 -0.0289
  590W        W 4334   0.648   4.334   2.688 -0.1824  0.0457 -0.2758
  591W        W 4335   7.619   4.624  11.125 -0.3881 -0.1242  0.1007
  592W        W 4336   9.164   2.893   0.438 -0.4170  0.1021  0.0321
  593W        W 4337   0.048   5.303   2.866  0.1743  0.1638 -0.1445
  594W        W 4338   6.466   5.915   8.879  0.2189 -0.1280  0.2154
  595W        W 4339   6.408   4.676   9.533 -0.3124  0.2048  0.0144
  596W        W 4340   0.392   3.228   0.684  0.0072  0.1039 -0.2457
  597W        W 4341   3.505   8.452   0.952 -0.3469  0.1648 -0.2807
  598W        W 4342   5.852   1.607  10.281 -0.0912 -0.0742 -0.1050
  599W        W 4343   3.045   5.528   4.111  0.1712  0.1287  0.1168
  600W        W 4344   6.900   0.287  11.237 -0.3008  0.0442 -0.0150
  601W        W 4345   5.545   9.181  12.671 -0.2729  0.3990 -0.0864
  602W        W 4346   6.462   6.283  10.118 -0.2243 -0.0890  0.0563
  603W        W 4347   2.821   4.481  11.790  0.0888 -0.0867  0.0621
  604W        W 4348   2.820   6.947   1.742  0.0113  0.1853  0.0579
  605W        W 4349   0.911   6.955  10.718 -0.0489 -0.3409 -0.3084
  606W        W 4350   1.182   0.231  12.930 -0.0833 -0.2626  0.1341
  607W        W 4351   1.612   8.003  10.272  0.3341  0.0031 -0.0195
  608W        W 4352   1.074   3.332   2.118  0.1358 -0.1992  0.1435
  609W        W 4353   5.473   9.307  10.236 -0.1510  0.1740  0.0695
  610W        W 4354   2.271   8.409   8.187 -0.0262 -0.3720 -0.2547
  611W        W 4355   8.798   6.552   9.492 -0.3214 -0.2186  0.2327
  612W        W 4356   8.610   3.162   0.953 -0.1065 -0.1163  0.3402
  613W        W 4357   7.709   3.019  12.071 -0.0342  0.1291 -0.2832
  614W        W 4358   6.178   6.923  10.657  0.1170 -0.1656  0.1473
  615W        W 4359   2.834   2.398   3.785 -0.2317  0.0500 -0.0563
  616W        W 4360   1.247   2.331  10.539 -0.1220 -0.1945  0.1511
  617W        W 4361   9.068   5.992  10.537  0.2093  0.0882 -0.1384
  618W        W 4362   8.919   0.119   1.781 -0.2753  0.1979  0.0796
  619W        W 4363   5.900   9.793  10.937  0.1348  0.0553  0.1191
  620W        W 4364   7.999   5.168   3.022  0.2373  0.0057  0.1551
  621W        W 4365   5.207   6.019  10.529  0.0532  0.0895 -0.0808
  622W        W 4366   2.847   2.711  11.100  0.2294 -0.2728  0.0630
  623W        W 4367   9.229   8.284   9.418  0.1871  0.1018  0.4595
  624W        W 4368   5.398   7.481   3.351 -0.0316  0.0820 -0.0422
  625W        W 4369   6.668   6.207  12.532 -0.0777  0.0111  0.3635
  626W        W 4370   8.855   6.949  12.639 -0.0912  0.1814 -0.0472
  627W        W 4371   0.083   6.954   0.154  0.1328 -0.1046 -0.0456
  628W        W 4372   5.733   2.744  12.922  0.3163 -0.1541  0.2073
  629W        W 4373   5.658   9.244  11.574 -0.6016 -0.0139  0.0637
  630W        W 4374   9.707   7.644   4.343  0.0787  0.2357  0.2525
  631W        W 4375   2.631   9.222  11.385 -0.0637 -0.0384 -0.0664
  632W        W 4376   8.968   8.981   1.776  0.0929  0.2529  0.0263
  633W        W 4377   9.465   5.237  10.846  0.0108 -0.0532  0.1466
  634W        W 4378   1.201   8.642   1.060 -0.1561 -0.0704  0.3171
  635W        W 4379   0.708   9.286  12.688  0.3165  0.0023  0.1402
  636W        W 4380   3.177   2.484   1.847  0.4708 -0.7640 -0.0219
  637W        W 4381   0.612   8.913   5.273 -0.0478 -0.0329 -0.3301
  638W        W 4382   0.929   1.204  12.191 -0.1088  0.2707 -0.1357
  639W        W 4383   2.003   7.023   4.266  0.2148 -0.1297  0.0784
  640W        W 4384   9.568   2.303   8.715 -0.0628  0.0421 -0.0887
  641W        W 4385   3.388   7.965   2.342 -0.2442 -0.0484  0.0634
  642W        W 4386   6.871   0.069   0.598  0.1882  0.2297 -0.3400
  643W        W 4387   2.323   0.077   2.689 -0.1611 -0.2256 -0.2101
  644W        W 4388   8.073   9.815   1.866  0.3299  0.1798  0.0634
  645W        W 4389   8.396   2.731   2.488 -0.2769 -0.1363 -0.0109
  646W        W 4390   4.904   7.533   3.052 -0.2763 -0.1093  0.1300
  647W        W 4391   2.202   6.618  10.024  0.0705  0.0480 -0.2041
  648W        W 4392   1.840   9.673   8.744  0.1441 -0.0200 -0.1157
  649W        W 4393   9.790   3.091   8.262  0.1325  0.1816  0.3557
  650W        W 4394   7.966   8.146  12.463 -0.0123  0.0132 -0.0494
  651W        W 4395   4.674   8.521   3.874  0.2709 -0.1200  0.2678
  652W        W 4396   4.920   7.134   1.373 -0.0961  0.3039 -0.3772
  653W        W 4397   2.188   0.813   5.011  0.1254  0.0592 -0.0508
  654W        W 4398   3.596   3.832   0.795 -0.3111  0.1588  0.0833
  655W        W 4399   4.827   4.415   1.058 -0.3382 -0.3022 -0.0480
  656W        W 4400   3.699   4.697   0.626  0.0682 -0.3063 -0.1353
  657W        W 4401   9.569   0.857   3.295 -0.2503  0.1173  0.1702
  658W        W 4402   2.222   8.913  12.211  0.1698 -0.2936 -0.1838
  659W        W 4403   7.195   0.057  10.437 -0.1181 -0.0680 -0.0594
  660W        W 4404   0.602   4.791   8.685  0.2002  0.0860 -0.0930
  661W        W 4405   0.074   5.514   3.875 -0.1079 -0.0830  0.1105
  662W        W 4406   4.944   4.288   1.610 -0.3209  0.1264 -0.0520
  663W        W 4407   1.779   7.344   2.985 -0.0470  0.0534 -0.0612
  664W        W 4408   7.973   9.361  12.163 -0.1636  0.2658 -0.4244
  665W        W 4409   9.438   6.401   1.118  0.0877 -0.4439  0.0562
  666W        W 4410   8.492   2.780  12.867 -0.2234 -0.2759 -0.0199
  667W        W 4411   6.896   5.748  12.521  0.0397 -0.2130  0.1020
  668W        W 4412   8.710   3.301   9.377  0.1133 -0.0217  0.0475
  669W        W 4413   7.623   9.019  12.453 -0.2201 -0.0887 -0.1127
  670W        W 4414   8.825   2.321   3.342  0.2061 -0.0416  0.1406
  671W        W 4415   5.884   7.897  10.855 -0.0344  0.0669 -0.3574
  672W        W 4416   7.070   3.912   0.130  0.2452  0.2181  0.0800
  673W        W 4417   8.012   1.454   8.881 -0.0088 -0.0568  0.0591
  674W        W 4418   5.757   8.728  11.379 -0.0094  0.0455  0.0162
  675W        W 4419   9.882   2.362   9.475  0.1680 -0.1572 -0.1771
  676W        W 4420   4.008   7.721   8.409 -0.0274 -0.0374  0.5195
  677W        W 4421   6.465   8.632  12.595 -0.0635  0.1956 -0.2887
  678W        W 4422   2.088   7.484   2.137 -0.3566 -0.1167  0.3286
  679W        W 4423   4.164   8.269  10.122  0.0396  0.1050 -0.1096
  680W        W 4424   4.989   9.713   1.221  0.0422 -0.0401 -0.3590
  681W        W 4425   5.911   8.991   3.760  0.1087  0.0230  0.0298
  682W        W 4426   6.956   6.136   0.024  0.0880 -0.3020  0.3231
  683W        W 4427   9.640   8.677   9.729  0.0865 -0.2603  0.2720
  684W        W 4428   6.526   8.743  12.161  0.1891  0.2174 -0.2245
  685W        W 4429   5.400   2.531  11.300 -0.0397  0.0831 -0.1430
  686W        W 4430   1.579   2.075  10.211  0.1943  0.0764  0.2666
  687W        W 4431   8.133   9.680  10.955 -0.1749  0.0174 -0.0749
  688W        W 4432   3.525   7.910   0.649 -0.1168 -0.2322 -0.2122
  689W        W 4433   2.836   3.207   3.170 -0.0614 -0.1269  0.0686
  690W        W 4434   9.769   4.297   8.677  0.0302  0.1610  0.3065
  691W        W 4435   9.061   1.710  11.676  0.0429 -0.1152 -0.0985
  692W        W 4436   7.395   1.613   2.146 -0.1194 -0.1795 -0.1332
  693W        W 4437   0.195   1.428   3.712  0.0490 -0.1184 -0.1773
  694W        W 4438   0.485   2.263   3.308  0.0987  0.1255 -0.3592
  695W        W 4439   1.931   2.386   2.936 -0.0287  0.1079 -0.2753
  696W        W 4440   2.620   8.893   9.665 -0.0929 -0.3646  0.1851
  697W        W 4441   5.085   7.447   9.070 -0.2173 -0.0896 -0.0753
  698W        W 4442   3.035   8.302   2.268  0.1988  0.1291 -0.4078
  699W        W 4443   5.317   5.803   1.397 -0.2061 -0.2972  0.4553
  700W        W 4444   3.556   9.607   1.275 -0.0527 -0.0038 -0.1104
  701W        W 4445   8.070   2.814   8.919 -0.1073 -0.1401  0.1463
  702W        W 4446   4.883   0.270  11.268  0.0699  0.0798  0.2008
  703W        W 4447   0.693   9.543   2.486  0.2280 -0.1296  0.0156
  704W        W 4448   4.683   6.911  10.668 -0.1132  0.2549 -0.1664
  705W        W 4449   7.939   9.840   3.787  0.3744 -0.2691  0.1859
  706W        W 4450   0.339   8.995  11.469 -0.1312  0.0747  0.2334
  707W        W 4451   6.344   4.749  10.078  0.0232  0.0031 -0.0983
  708W        W 4452   7.354   4.760   9.357  0.0215 -0.0665 -0.3816
  709W        W 4453   2.896   9.515   8.654 -0.0738  0.1492  0.0745
  710W        W 4454   5.617   7.159   1.193  0.0552  0.2075  0.1184
  711W        W 4455   6.005   0.647   0.741  0.1032 -0.0594 -0.1367
  712W        W 4456   5.757   0.283  11.275 -0.1058 -0.2061  0.3690
  713W        W 4457   3.755   5.151   3.444  0.2383 -0.0566 -0.0286
  714W        W 4458   5.445   7.404  11.629  0.1658 -0.1269 -0.1262
  715W        W 4459   6.524   9.056   9.448 -0.1635 -0.3286 -0.2999
  716W        W 4460   5.250   7.717   1.041  0.0001  0.1348  0.0969
  717W        W 4461   1.177   0.219  11.329  0.2261  0.3918 -0.0336
  718W        W 4462   7.728   5.619  12.721 -0.0405  0.0405 -0.2171
  719W        W 4463   2.698   2.568   1.673 -0.2301  0.1008  0.0955
  720W        W 4464   6.810   7.470  10.368 -0.0468  0.2783 -0.1011
  721W        W 4465   0.026   6.074  12.782 -0.1732 -0.1343  0.0187
  722W        W 4466   4.196   2.126  12.603  0.0020 -0.1233  0.2728
  723W        W 4467   2.944   5.092  12.837 -0.1617 -0.0211  0.3021
  724W        W 4468   5.673   8.548   4.944 -0.0143  0.0239  0.2207
  725W        W 4469   0.931   6.325  10.350  0.3110 -0.0625 -0.2027
  726W        W 4470   9.243   1.479   8.447  0.2291 -0.2615 -0.0811
  727W        W 4471   8.722   3.924   0.217  0.0216 -0.3060 -0.1905
  728W        W 4472   0.109   3.212   2.884  0.1921  0.1220  0.1839
  729W        W 4473   1.566   3.135  12.434 -0.2634  0.1134 -0.2054
  730W        W 4474   6.428   3.208  10.805  0.4721 -0.3400  0.0597
  731W        W 4475   6.868   8.816   3.004  0.0633  0.1653 -0.0831
  732W        W 4476   3.611   6.318   2.881  0.0701 -0.0013  0.3298
  733W        W 4477   0.059   0.430   0.444 -0.4464 -0.0069  0.1624
  734W        W 4478   6.917   1.150  10.575 -0.1336 -0.3401 -0.0387
  735W        W 4479   6.937   1.089   3.298  0.1245  0.1577  0.2375
  736W        W 4480   0.026   1.700  12.289 -0.1200  0.1394 -0.1481
  737W        W 4481   3.281   2.993  12.922 -0.3484  0.1675  0.1561
  738W        W 4482   6.712   3.197   9.506  0.0412 -0.0611 -0.3648
  739W        W 4483   9.598   3.100  12.323  0.1405 -0.3279  0.1110
  740W        W 4484   7.282   6.048   1.970  0.0250  0.0060  0.1044
  741W        W 4485   4.722   5.365   1.976  0.0571 -0.0396  0.0877
  742W        W 4486   8.771   4.631   1.338  0.0718 -0.1216 -0.1780
  743W        W 4487   1.860   4.186  11.578  0.0635 -0.2933 -0.1545
  744W        W 4488   4.584   1.910  11.135 -0.1202  0.2729  0.0979
  745W        W 4489   8.156   5.334   0.565 -0.1779  0.1721  0.1828
  746W        W 4490   8.763   2.707   3.688 -0.1040 -0.2899 -0.2645
  747W        W 4491   6.925   4.489   9.459 -0.1372 -0.1610 -0.0372
  748W        W 4492   0.333   7.566   3.251  0.3835 -0.1305 -0.1773
  749W        W 4493   9.791   2.597   2.480  0.1979 -0.3217  0.1404
  750W        W 4494   1.417   6.115   4.427  0.0468  0.0278  0.0271
  751W        W 4495   1.541   8.555  12.034 -0.2482  0.0785 -0.1551
  752W        W 4496   3.010   9.745  11.795 -0.1496  0.1120 -0.3535
  753W        W 4497   4.037   9.187   9.886 -0.1756 -0.2228 -0.0683
  754W        W 4498   7.259   4.262  12.206  0.1875 -0.0430 -0.1315
  755W        W 4499   6.791   6.717   1.620  0.1798 -0.1993 -0.1559
  756W        W 4500   2.573   3.639  12.661  0.1470 -0.1323 -0.1809
  757W        W 4501   7.265   3.565  10.250 -0.0040  0.0929  0.2183
  758W        W 4502   1.411   0.564  11.103  0.0966  0.2795 -0.0597
  759W        W 4503   6.504   0.087   4.296 -0.0716  0.0677  0.1300
  760W        W 4504   7.426   2.078  12.704  0.2173  0.0571 -0.1774
  761W        W 4505   3.191   3.466   0.273  0.0111 -0.2017  0.2813
  762W        W 4506   4.272   4.212   2.666  0.0542 -0.2292  0.0252
  763W        W 4507   1.213   6.434   2.851 -0.0532 -0.0228  0.0551
  764W        W 4508   0.434   0.702   8.414  0.3277  0.2155 -0.2897
  765W        W 4509   6.473   9.749  10.027  0.2766  0.1466 -0.1312
  766W        W 4510   8.575   3.693   9.620 -0.1035  0.1152 -0.3734
  767W        W 4511   9.498   7.571  11.588  0.2348  0.1180 -0.0039
  768W        W 4512   4.292   8.712   2.967  0.0791 -0.0539 -0.1920
  769W        W 4513   9.825   8.780  11.390 -0.0327  0.0182  0.1933
  770W        W 4514   2.886   7.017  10.721  0.1852  0.0162 -0.1918
  771W        W 4515   2.358   6.579   9.519 -0.1819  0.4019 -0.0777
  772W        W 4516   7.014   2.165   1.823  0.1787 -0.0073 -0.2689
  773W        W 4517   6.968   6.440   2.587  0.0860  0.0230  0.3449
  774W        W 4518   7.212   7.851  11.784  0.3372 -0.0862 -0.0590
  775W        W 4519   5.245   2.428   9.647  0.1456  0.0883  0.0060
  776W        W 4520   7.753   2.187   9.953 -0.1981 -0.0083  0.2085
  777W        W 4521   7.726   3.560  10.160 -0.0664  0.2320 -0.2111
  778W        W 4522   7.281   2.076   1.422  0.0049  0.0031  0.1384
  779W        W 4523   5.866   8.292   0.326  0.2330 -0.2698  0.1877
  780W        W 4524   1.086   6.168   9.193 -0.0157  0.3246 -0.1627
  781W        W 4525   1.540   6.762  10.766  0.0579 -0.0149 -0.0587
  782W        W 4526   0.433   3.321   4.133  0.0109 -0.0031 -0.0584
  783W        W 4527   4.341   3.768  11.125  0.0246 -0.3527 -0.0913
  784W        W 4528   5.784   7.643   1.274 -0.0518  0.1216 -0.3661
  785W        W 4529   6.271   1.927   1.275  0.1366 -0.4158  0.0264
  786W        W 4530   7.656   0.605   3.687  0.2462  0.1609  0.0699
  787W        W 4531   5.357   1.484  10.758 -0.2382  0.0417 -0.3282
  788W        W 4532   2.803   2.186   0.293  0.2239  0.2190  0.0744
  789W        W 4533   5.001   7.333   0.330  0.1907 -0.3388  0.0040
  790W        W 4534   1.271   2.627  11.799  0.4191  0.3276  0.2130
  791W        W 4535   1.395   6.609   0.700 -0.3137 -0.2802  0.1277
  792W        W 4536   4.907   3.637   2.288 -0.0927  0.0837 -0.1655
  793W        W 4537   4.821   3.896   0.699 -0.3938 -0.0441 -0.2634
  794W        W 4538   7.195   3.082   0.626  0.0403  0.1516 -0.1525
  795W        W 4539   1.214   5.702  11.021  0.0522  0.0166 -0.0546
  796W        W 4540   5.375   6.079   9.963 -0.1257 -0.0938 -0.0413
  797W        W 4541   0.897   5.194  10.005  0.1854 -0.0265 -0.3340
  798W        W 4542   1.586   2.816   2.730 -0.0353  0.0965 -0.1612
  799W        W 4543   8.742   0.648  12.985 -0.1244 -0.0435 -0.0739
  800W        W 4544   7.026   8.350   3.296 -0.0959 -0.1003 -0.0622
  801W        W 4545   9.565   8.936   3.316 -0.0091  0.1627 -0.1197
  802W        W 4546   0.197   3.779   4.102 -0.1431  0.0639 -0.0519
  803W        W 4547   0.042   7.877  11.372  0.0913  0.0174  0.0533
  804W        W 4548   7.182   9.002  10.843 -0.1958 -0.0512 -0.4556
  805W        W 4549   2.781   6.412   1.028  0.1936  0.1618 -0.3709
  806W        W 4550   9.278   5.477  10.299 -0.5053 -0.2456 -0.0927
  807W        W 4551   5.058   1.959   2.309  0.0034 -0.1196  0.1008
  808W        W 4552   2.138   1.148  12.355 -0.2358  0.1958 -0.1174
  809W        W 4553   8.111   5.803  11.600  0.0215  0.1365 -0.4709
  810W        W 4554   0.794   4.321  12.001 -0.0567  0.0723  0.2363
  811W        W 4555   3.060   9.810   1.407 -0.1360 -0.0750 -0.2805
  812W        W 4556   3.533   0.852  11.495  0.1941  0.0879 -0.1878
  813W        W 4557   5.723   7.588   4.033  0.1724 -0.1972  0.0625
  814W        W 4558   2.962   5.942   9.847  0.2507 -0.0083  0.4903
  815W        W 4559   0.281   3.540  11.314  0.3594  0.4890 -0.1507
  816W        W 4560   9.707   9.759   9.950 -0.0799  0.0892 -0.2534
  817W        W 4561   1.598   9.090  12.843  0.2417 -0.0997  0.0292
  818W        W 4562   8.306   6.147   9.678 -0.0455  0.1828  0.1704
  819W        W 4563   3.810   3.472  10.760 -0.4201  0.0002 -0.1795
  820W        W 4564   1.073   6.487  10.800 -0.1458  0.0350 -0.5249
  821W        W 4565   1.001   3.327   3.919 -0.3212  0.0006  0.0789
  822W        W 4566   7.574   5.712   0.726  0.3421  0.1663 -0.0654
  823W        W 4567   4.483   6.398   8.497  0.1964  0.0201  0.0371
  824W        W 4568   5.200   7.806  11.670 -0.3940  0.1770  0.2690
  825W        W 4569   1.560   6.330   9.121 -0.2141  0.3471  0.0607
  826W        W 4570   1.631   6.922  11.908 -0.1216  0.1506  0.1345
  827W        W 4571   5.130   0.100  11.728 -0.1769 -0.2969 -0.2260
  828W        W 4572   9.647   2.031  11.998 -0.2898  0.1406  0.2222
  829W        W 4573   8.942   6.248   3.317 -0.1254 -0.0837 -0.2154
  830W        W 4574   1.418   6.644   2.390  0.0446  0.3721  0.0304
  831W        W 4575   8.426   0.125   3.535  0.2114  0.3007 -0.0210
  832W        W 4576   9.789   3.543   3.266  0.0703 -0.0616  0.2116
  833W        W 4577   9.883   4.600   0.001  0.0189  0.2083 -0.2147
  834W        W 4578   9.289   4.006   8.570 -0.1484  0.1030  0.4688
  835W        W 4579   2.811   5.348  10.645 -0.1995 -0.1904 -0.1097
  836W        W 4580   1.874   1.339   1.292  0.2070  0.1921 -0.0040
  837W        W 4581   4.969   6.699  10.986 -0.1092  0.0230 -0.1703
  838W        W 4582   0.911   6.647   2.442  0.0438  0.1780 -0.1820
  839W        W 4583   8.292   6.736  11.161  0.5173  0.2181 -0.1537
  840W        W 4584   8.842   0.904   0.412 -0.0831 -0.0791  0.1748
  841W        W 4585   5.360   7.950   1.755  0.0489 -0.1828 -0.1436
  842W        W 4586   4.485   6.267   0.254  0.0444 -0.1044 -0.1979
  843W        W 4587   0.266   5.580   0.219 -0.1141 -0.1458  0.0212
  844W        W 4588   8.767   7.784  12.663  0.0060 -0.0708  0.1298
  845W        W 4589   3.151   5.471   9.662 -0.1746  0.1084 -0.1877
  846W        W 4590   5.544   3.182   1.712  0.1687 -0.2710 -0.1906
  847W        W 4591   8.822   2.822   1.341  0.3617  0.1290 -0.1564
  848W        W 4592   2.113   0.889  12.812 -0.2166 -0.0191 -0.0106
  849W        W 4593   0.857   2.467   1.999  0.0465 -0.0296  0.2422
  850W        W 4594   2.405   1.562  12.215  0.0571 -0.0475 -0.3265
  851W        W 4595   0.898   4.275  11.484  0.1682 -0.1348  0.0787
  852W        W 4596   7.476   2.485  10.266  0.0827 -0.1616  0.0815
  853W        W 4597   8.868   1.490   9.072  0.0264 -0.0324 -0.1505
  854W        W 4598   6.507   9.003   1.882  0.1599 -0.2800 -0.3096
  855W        W 4599   6.445   2.135  12.361 -0.0583 -0.1417 -0.0587
  856W        W 4600   0.438   9.256   8.283  0.6545  0.1838 -0.0044
  857W        W 4601   8.392   5.956   8.749 -0.0289 -0.1716  0.6230
  858W        W 4602   8.688   6.294   0.889  0.2583  0.0569 -0.0155
  859W        W 4603   5.157   0.198   1.612 -0.1283  0.0786  0.1465
  860W        W 4604   5.749   9.689   2.579  0.2043  0.0714  0.0626
  861W        W 4605   1.974   4.481  12.534 -0.4881  0.1566 -0.2320
  862W        W 4606   2.395   8.393   3.134  0.4018  0.3088  0.0728
  863W        W 4607   8.204   8.101  11.272  0.0654  0.1014 -0.0812
  864W        W 4608   6.949   8.401  11.859 -0.5183 -0.0872 -0.0687
  865W        W 4609   9.317   4.447   3.295 -0.0453  0.1812  0.0006
  866W        W 4610   7.934   3.362   2.890  0.2352 -0.2589  0.2278
  867W        W 4611   8.563   5.242   2.522  0.5655  0.0147 -0.0573
  868W        W 4612   3.195   5.482  11.919  0.1873  0.2691 -0.1815
  869W        W 4613   8.374   5.984   1.280  0.3596 -0.0726  0.0277
  870W        W 4614   7.594   4.139  10.252 -0.3147 -0.2075  0.1207
  871W        W 4615   9.593   5.596   9.493  0.0847 -0.1258  0.3504
  872W        W 4616   2.597   9.613   3.733 -0.4594 -0.2119  0.0531
  873W        W 4617   8.653   2.465  11.219 -0.0062  0.2929  0.0952
  874W        W 4618   2.692   0.852   0.473 -0.3362 -0.0301 -0.2227
  875W        W 4619   4.680   8.385   2.780 -0.0712 -0.2364  0.0114
  876W        W 4620   0.677   4.584   4.044  0.2577  0.3763  0.1441
  877W        W 4621   4.817   4.817   1.500 -0.1192  0.1839 -0.3363
  878W        W 4622   6.202   2.199  11.886 -0.0210 -0.1572 -0.1181
  879W        W 4623   1.630   3.081  10.502  0.0660  0.0557  0.0946
  880W        W 4624   9.402   0.493  10.285  0.0385 -0.3246  0.3829
  881W        W 4625   3.248   1.151   8.688 -0.0334  0.0682 -0.2669
  882W        W 4626   5.622   4.817  11.189  0.2090 -0.1308  0.4733
  883W        W 4627   2.809   8.729   0.778 -0.0077 -0.0708  0.1168
  884W        W 4628   6.362   5.927   9.394 -0.0059  0.0335 -0.0234
  885W        W 4629   9.573   4.798   9.641 -0.1623  0.0135 -0.0164
  886W        W 4630   9.558   1.241   0.091 -0.1082 -0.0774 -0.0961
  887W        W 4631   6.273   2.316   1.608  0.0217  0.1879 -0.1992
  888W        W 4632   0.568   1.459   0.166  0.0535  0.1712 -0.2146
  889W        W 4633   2.539   7.837   1.079 -0.1564  0.0028 -0.1699
  890W        W 4634   4.051   3.704   3.858  0.0343  0.3295  0.3622
  891W        W 4635   4.594   7.042   2.238  0.0584  0.1110 -0.0521
  892W        W 4636   0.531   0.993   9.781 -0.4551 -0.1510 -0.2724
  893W        W 4637   6.894   5.232  10.473 -0.1854 -0.1812  0.1213
  894W        W 4638   3.896   1.831   3.493 -0.4499 -0.3564  0.0865
  895W        W 4639   9.425   3.857   9.350 -0.0355 -0.0271 -0.0531
  896W        W 4640   7.148   2.303   3.217  0.4198  0.1112 -0.2109
  897W        W 4641   8.897   7.202   1.089  0.1497  0.0072  0.0776
  898W        W 4642   0.818   6.821  12.605 -0.1925  0.1325 -0.1581
  899W        W 4643   4.834   9.188   0.978 -0.1797 -0.1056 -0.2718
  900W        W 4644   2.199   6.990   1.681  0.0826 -0.1903  0.1731
  901W        W 4645   4.707   2.065   3.664  0.1722 -0.2318 -0.0638
  902W        W 4646   1.266   5.691   1.333 -0.2325 -0.0505 -0.4705
  903W        W 4647   0.376   5.223  11.781 -0.0532  0.1860  0.1196
  904W        W 4648   8.489   3.484  12.350 -0.2457  0.0852 -0.0089
  905W        W 4649   3.268   7.486  11.849 -0.2297 -0.0841  0.0890
  906W        W 4650   2.424   2.653   9.812  0.3675 -0.1521  0.0105
  907W        W 4651   3.948   8.196   0.822 -0.2834 -0.1594 -0.2637
  908W        W 4652   1.856   7.839   9.470 -0.0373  0.0981  0.0338
  909W        W 4653   6.064   9.065   3.283  0.0688 -0.0186  0.0685
  910W        W 4654   5.570   6.148  11.163 -0.0695  0.0982  0.2290
  911W        W 4655   6.657   2.744  12.917 -0.0964  0.0174 -0.0991
  912W        W 4656   0.162   4.264   0.949 -0.2061 -0.0068 -0.0478
  913W        W 4657   9.169   3.718   2.826 -0.0181 -0.0257 -0.0941
  914W        W 4658   2.107   7.526   0.976 -0.3019  0.0445  0.2937
  915W        W 4659   1.800   3.574   3.216 -0.3811 -0.0741 -0.0399
  916W        W 4660   1.539   9.802   4.107 -0.0010  0.1205 -0.0690
  917W        W 4661   1.053   7.517   4.551  0.0931 -0.0009 -0.0348
  918W        W 4662   3.291   1.607  11.072  0.3282 -0.1284 -0.0118
  919W        W 4663   5.705   6.199   1.233 -0.1075 -0.2089 -0.1743
  920W        W 4664   4.447   0.584  11.049 -0.2365  0.2571  0.0341
  921W        W 4665   2.509   4.773  10.046  0.0574  0.1300  0.2311
  922W        W 4666   8.905   8.253   3.248  0.4904 -0.1875  0.1859
  923W        W 4667   1.530   6.836   1.821  0.5348 -0.4336 -0.3187
  924W        W 4668   3.676   7.127  10.604 -0.2326 -0.0669  0.0223
  925W        W 4669   8.994   9.723   2.378 -0.0515  0.0415 -0.2334
  926W        W 4670   3.347   2.610  12.128  0.1881  0.0659 -0.2013
  927W        W 4671   2.844   9.437   8.164 -0.3134 -0.1261 -0.0635
  928W        W 4672   1.132   4.031  10.583 -0.1920 -0.3084  0.3878
  929W        W 4673   8.061   7.335   2.962 -0.3508 -0.5937  0.1394
  930W        W 4674   6.449   0.421   9.860 -0.0443  0.0662 -0.4018
  931W        W 4675   3.076   9.539   3.795 -0.5392  0.1616  0.0145
  932W        W 4676   9.457   9.884  11.879 -0.2485 -0.2265  0.2201
  933W        W 4677   2.099   6.344   5.007  0.2008 -0.0870 -0.0254
  934W        W 4678   2.529   1.548  10.028  0.1862  0.1150  0.3263
  935W        W 4679   0.255   7.907  10.850 -0.1458  0.0502 -0.1151
  936W        W 4680   7.735   8.491  10.137  0.0397  0.2772 -0.0845
  937W        W 4681   3.495   4.669   1.559  0.1414  0.0522 -0.2254
  938W        W 4682   8.295   4.544   1.040  0.2616 -0.1665 -0.0249
  939W        W 4683   1.280   4.628   0.207  0.1446  0.0734 -0.1032
  940W        W 4684   3.765   8.162  12.947  0.0586 -0.0081 -0.1582
  941W        W 4685   2.698   5.972   2.974 -0.0030  0.2287 -0.2257
  942W        W 4686   8.657   6.873   4.106  0.4162  0.0056  0.2746
  943W        W 4687   1.868   5.800  12.522  0.3706  0.0827  0.0316
  944W        W 4688   3.205   5.022   1.419 -0.0985 -0.1711  0.1766
  945W        W 4689   5.604   6.519   9.962  0.0757 -0.0820  0.1377
  946W        W 4690   4.334   4.325   0.895 -0.1727  0.0333 -0.1428
  947W        W 4691   0.646   2.572  11.667 -0.1476  0.2056 -0.0184
  948W        W 4692   4.442   5.149   0.237 -0.1451 -0.0397 -0.5228
  949W        W 4693   0.016   0.934   0.682 -0.0174  0.0937  0.1827
  950W        W 4694   2.436   5.659  11.556 -0.0942 -0.0138 -0.0335
  951W        W 4695   1.836   5.139  11.729  0.1681 -0.2401 -0.0845
  952W        W 4696   4.336   0.847   8.370 -0.0705  0.1949 -0.0219
  953W        W 4697   7.354   3.605   8.734 -0.1128  0.0832  0.1997
  954W        W 4698   0.497   4.975   2.850  0.1114 -0.1432 -0.0748
  955W        W 4699   8.589   6.323   9.016 -0.0814 -0.1634  0.1280
  956W        W 4700   9.279   6.757   2.331 -0.1014  0.1712  0.0098
  957W        W 4701   0.621   4.786   9.263  0.2672  0.6001 -0.2143
  958W        W 4702   0.876   3.566   0.807 -0.2254 -0.0255  0.2290
  959W        W 4703   0.199   8.321  11.576  0.2110 -0.0858  0.0814
  960W        W 4704   6.090   6.658   9.881 -0.0800 -0.0793 -0.0740
  961W        W 4705   5.372   7.297   4.466 -0.0243 -0.1196  0.0523
  962W        W 4706   8.185   2.888   0.805 -0.1149 -0.1335  0.0106
  963W        W 4707   8.894   2.300  10.748 -0.0113 -0.1157 -0.1543
  964W        W 4708   7.240   2.888   4.044 -0.1967  0.1793  0.1161
  965W        W 4709   4.886   6.382  12.281 -0.6460  0.2724  0.1814
  966W        W 4710   8.066   7.774   2.692  0.1308 -0.2182  0.1194
  967W        W 4711   1.044   8.854   0.476  0.0987  0.1337  0.0749
  968W        W 4712   8.074   8.885   0.870 -0.2861 -0.0718 -0.0062
  969W        W 4713   7.261   0.704   3.236 -0.1099  0.1486 -0.0740
  970W        W 4714   1.554   4.679   2.495  0.3557  0.0939  0.0169
  971W        W 4715   3.688   0.511   3.965  0.1796 -0.0599  0.1252
  972W        W 4716   3.836   8.260   3.582  0.0366 -0.0193  0.2013
  973W        W 4717   2.327   2.060   0.517  0.1278 -0.1568  0.0409
  974W        W 4718   0.557   7.001   3.871  0.2253  0.3576  0.0858
  975W        W 4719   1.109   7.269   9.800  0.1827 -0.0495 -0.0123
  976W        W 4720   5.978   5.592   1.677  0.0159 -0.0874  0.0781
  977W        W 4721   0.066   3.770   2.811  0.0743 -0.0515 -0.1435
  978W        W 4722   4.474   5.685   0.238 -0.0702 -0.3030  0.1872
  979W        W 4723   3.691   9.827  12.728  0.2483 -0.2569  0.0887
  980W        W 4724   7.756   4.706  12.935 -0.1845 -0.0175 -0.1908
  981W        W 4725   4.558   5.077   3.077  0.2160  0.0453  0.0034
  982W        W 4726   6.480   7.211   2.926  0.1674 -0.0439 -0.3465
  983W        W 4727   0.013   5.601  12.794  0.1577  0.1426 -0.1298
  984W        W 4728   5.513   0.200   0.117  0.4792 -0.1074  0.4259
  985W        W 4729   0.188   8.962   2.008 -0.2442  0.2398  0.0972
  986W        W 4730   9.702   0.527   2.227  0.0355 -0.0472 -0.0868
  987W        W 4731   1.574   7.794  11.111 -0.2038  0.0448  0.0374
  988W        W 4732   0.801   0.701   1.481  0.1484  0.2645  0.1140
  989W        W 4733   0.165   3.861  10.000  0.0159 -0.2548  0.1747
  990W        W 4734   1.143   3.197   9.285 -0.6979  0.1387  0.0090
  991W        W 4735   0.276   0.988   9.242  0.0149  0.2216 -0.2164
  992W        W 4736   4.433   0.329   9.128 -0.0196  0.0534  0.2134
  993W        W 4737   8.557   9.682   1.960  0.1059  0.3503 -0.2626
  994W        W 4738   1.721   2.855  12.090 -0.1826  0.0749 -0.0597
  995W        W 4739   9.687   2.075   9.130  0.0343  0.1311 -0.2568
  996W        W 4740   0.161   3.323   9.971 -0.0560  0.2207  0.0833
  997W        W 4741   4.437   6.124   9.322 -0.1230 -0.5478 -0.0943
  998W        W 4742   2.126   6.646  12.761 -0.1299  0.0750  0.0492
  999W        W 4743   4.942   1.161   3.678 -0.1832  0.1967  0.5342
 1000W        W 4744   0.826   8.539   9.897  0.1863 -0.0422 -0.2142
 1001W        W 4745   8.673   5.246   9.850 -0.0330 -0.0298  0.2307
 1002W        W 4746   2.852   2.058   1.950 -0.2011  0.2129  0.4060
 1003W        W 4747   4.493   7.496  12.499 -0.2217  0.1309 -0.1729
 1004W        W 4748   6.202   5.369   3.915 -0.0037 -0.1346  0.0648
 1005W        W 4749   2.870   9.392   0.054  0.3495 -0.0327 -0.3489
 1006W        W 4750   8.535   0.441   4.183 -0.1586  0.0572  0.0577
 1007W        W 4751   2.299   8.004   9.599 -0.3355 -0.1620  0.0653
 1008W        W 4752   6.600   1.924   3.325 -0.3801 -0.0162  0.0875
 1009W        W 4753   3.778   8.415   4.658  0.1076 -0.0487  0.1201
 1010W        W 4754   2.593   9.708  12.180  0.0193 -0.2813 -0.1200
 1011W        W 4755   6.579   9.190  11.917 -0.0734  0.0153  0.0037
 1012W        W 4756   7.467   3.712   3.839 -0.4412  0.0073 -0.0000
 1013W        W 4757   0.415   6.927   4.336  0.0832  0.0402 -0.0859
 1014W        W 4758   2.720   6.760  11.969  0.2229 -0.1737 -0.3874
 1015W        W 4759   9.463   2.870  12.976 -0.1058 -0.2354  0.2490
 1016W        W 4760   3.437   2.237   2.974  0.0209  0.1107  0.1071
 1017W        W 4761   7.987   9.811   3.261  0.0930 -0.0779 -0.1218
 1018W        W 4762   6.927   6.404   9.989  0.1812 -0.1096 -0.1890
 1019W        W 4763   1.554   2.588   9.732 -0.1084 -0.5016 -0.5379
 1020W        W 4764   3.217   8.972  10.980  0.2431  0.0935  0.1422
 1021W        W 4765   3.710   8.812   3.412  0.1628  0.0418  0.1517
 1022W        W 4766   5.060   8.841  12.548  0.1408 -0.2428  0.3040
 1023W        W 4767   8.176   5.473  12.527  0.3125 -0.1690  0.3258
 1024W        W 4768   9.191   8.200  10.315  0.6017 -0.1769  0.0153
 1025W        W 4769   6.898   8.108  12.768 -0.0012 -0.0208  0.0097
 1026W        W 4770   0.596   9.285  11.018 -0.0041 -0.0451 -0.2566
 1027W        W 4771   6.166   6.590   4.053 -0.2084  0.2835  0.1910
 1028W        W 4772   5.271   7.174  11.150  0.4072  0.1601  0.1236
 1029W        W 4773   9.233   9.165   4.069  0.1331 -0.2950 -0.2945
 1030W        W 4774   3.863   6.637   9.763  0.0024  0.1157  0.1348
 1031W        W 4775   0.249   7.343   4.106  0.0188  0.2627  0.2018
 1032W        W 4776   9.221   9.032  12.430  0.1825  0.0110  0.1609
 1033W        W 4777   2.371   0.737  11.892  0.4538  0.0734 -0.1520
 1034W        W 4778   3.021   6.038   4.050 -0.1043  0.0658 -0.0804
 1035W        W 4779   5.977   3.823   2.930  0.0628 -0.5525 -0.3001
 1036W        W 4780   7.725   6.553   2.926  0.3382 -0.1928 -0.2829
 1037W        W 4781   5.080   4.794   9.455 -0.3847  0.0829  0.0076
 1038W        W 4782   8.149   8.454  10.396  0.2945  0.2019 -0.0259
 1039W        W 4783   0.484   3.932   8.173 -0.2227  0.1274  0.3980
 1040W        W 4784   3.201   3.844   2.808  0.0815  0.0214 -0.1401
 1041W        W 4785   2.452   6.802   3.022  0.0216 -0.3211 -0.1519
 1042W        W 4786   6.911   6.927   2.966 -0.1200  0.1131  0.1940
 1043W        W 4787   1.785   7.779  11.591 -0.3416 -0.0282  0.0473
 1044W        W 4788   3.049   9.714   0.512 -0.0435 -0.1350 -0.1895
 1045W        W 4789   3.151   0.697   0.629 -0.1054 -0.2462 -0.1938
 1046W        W 4790   3.092   0.267  12.083 -0.2655 -0.0295 -0.2748
 1047W        W 4791   6.689   7.888   8.934  0.2319  0.2579  0.2699
 1048W        W 4792   3.048   0.041   1.895  0.1718  0.2223  0.2375
 1049W        W 4793   9.225   9.706   3.958 -0.2679 -0.2597  0.2862
 1050W        W 4794   7.186   9.639   1.483 -0.0195  0.0979 -0.1339
 1051W        W 4795   4.445   1.613   1.825 -0.0859 -0.1786 -0.1207
 1052W        W 4796   7.072   2.326   8.512  0.1876  0.2382 -0.0450
 1053W        W 4797   2.394   1.434  12.686 -0.0125 -0.4109 -0.3491
 1054W        W 4798   6.611   3.477  11.261  0.3812 -0.0764  0.3554
 1055W        W 4799   8.590   9.289   0.686 -0.4359 -0.1099  0.0075
 1056W        W 4800   2.186   4.456   2.166 -0.4815 -0.2050  0.2367
 1057W        W 4801   0.630   4.572   0.927 -0.1025 -0.0474 -0.0245
 1058W        W 4802   2.710   8.659  12.194 -0.1247  0.1113  0.0695
 1059W        W 4803   8.367   8.819   0.452  0.1608 -0.1274  0.2548
 1060W        W 4804   6.878   1.501  12.515  0.3228 -0.1219  0.0362
 1061W        W 4805   3.848   7.512   0.556  0.0483  0.1677  0.0789
 1062W        W 4806   2.834   0.526  10.216  0.1185 -0.1531  0.2398
 1063W        W 4807   8.754   8.772  11.186  0.0365 -0.0144  0.1940
 1064W        W 4808   6.553   8.530   8.420 -0.3160  0.1456  0.0449
 1065W        W 4809   8.006   0.555  11.239 -0.3211  0.2380 -0.2551
 1066W        W 4810   1.041   1.292   9.830  0.0455 -0.1181  0.1085
 1067W        W 4811   7.734   1.496   9.797 -0.0753  0.1542  0.1447
 1068W        W 4812   5.962   5.463  10.532 -0.0847  0.1049  0.1891
 1069W        W 4813   4.768   5.181   9.263  0.0190 -0.2911  0.1804
 1070W        W 4814   8.376   2.100   3.425 -0.0874  0.0128  0.3982
 1071W        W 4815   9.401   4.056  11.490  0.4886  0.0106 -0.1735
 1072W        W 4816   0.007   5.348   9.768  0.1828  0.1320  0.1413
 1073W        W 4817   6.433   7.026   8.962  0.0808  0.0717  0.0882
 1074W        W 4818   2.744   6.079  11.329 -0.0060 -0.0876  0.1655
 1075W        W 4819   4.076   1.710   0.950  0.4076  0.2253 -0.0888
 1076W        W 4820   7.433   7.406   1.733  0.0538 -0.1685  0.1333
 1077W        W 4821   9.089   5.192   3.297 -0.2299 -0.1199 -0.0674
 1078W        W 4822   5.931   8.090   4.192 -0.0212 -0.1360 -0.2030
 1079W        W 4823   1.114   7.331   7.883  0.0922 -0.1789  0.0604
 1080W        W 4824   1.383   0.651   8.982 -0.3584  0.0911 -0.2583
 1081W        W 4825   5.935   2.783  12.180  0.0793 -0.1254 -0.0141
 1082W        W 4826   9.550   9.600   9.412 -0.0899 -0.0513  0.0026
 1083W        W 4827   7.400   1.194   3.048  0.3023 -0.1335 -0.0317
 1084W        W 4828   6.848   7.937   0.201  0.0867  0.0229 -0.0409
 1085W        W 4829   1.383   4.339  11.524 -0.4560 -0.1048 -0.2113
 1086W        W 4830   8.158   4.978   9.852 -0.0538  0.0665 -0.1421
 1087W        W 4831   6.827   0.793   9.074 -0.0918  0.1752 -0.1113
 1088W        W 4832   4.301   7.706   4.562 -0.0764  0.2018  0.0246
 1089W        W 4833   4.816   0.394  10.262  0.1578  0.1818  0.0413
 1090W        W 4834   8.588   9.215   8.962 -0.0484  0.1177  0.2102
 1091W        W 4835   8.533   5.127  12.533 -0.1616 -0.1438  0.2284
 1092W        W 4836   3.538   6.915  10.148  0.0877  0.1098  0.1598
 1093W        W 4837   7.701   5.460  11.464 -0.2568  0.2371  0.1310
 1094W        W 4838   0.268   3.078   2.078 -0.1668  0.5507  0.0206
 1095W        W 4839   9.735   9.196   3.719  0.1531 -0.0346 -0.2875
 1096W        W 4840   8.314   6.679   9.332 -0.0522  0.1473 -0.1047
 1097W        W 4841   8.907   7.542   8.371  0.0645 -0.3814 -0.2270
 1098W        W 4842   7.959   4.794   2.420 -0.0799 -0.1725  0.0261
 1099W        W 4843   2.071   6.361   3.239  0.5052  0.3203 -0.1451
 1100W        W 4844   0.147   6.125  10.654  0.1793 -0.0921 -0.3030
 1101W        W 4845   6.339   4.829   0.451  0.2074  0.1269 -0.1693
 1102W        W 4846   0.495   1.304   3.261 -0.3152  0.1531 -0.0836
 1103W        W 4847   5.545   7.361   0.755 -0.0387 -0.3308  0.4240
 1104W        W 4848   5.499   9.066  11.101 -0.2050  0.0238 -0.1242
 1105W        W 4849   8.727   0.694   1.335  0.1878  0.2820 -0.0210
 1106W        W 4850   4.324   5.899  12.805 -0.3348  0.0688 -0.0537
 1107W        W 4851   7.753   6.647   2.392  0.0628  0.1265 -0.0758
 1108W        W 4852   8.475   0.664   3.328  0.0042  0.0710  0.0389
 1109W        W 4853   0.828   9.022   2.122  0.3152 -0.4331  0.0251
 1110W        W 4854   6.488   0.062  10.902 -0.0322 -0.1699 -0.1292
 1111W        W 4855   1.358   1.772  11.870 -0.0104 -0.2032  0.0014
 1112W        W 4856   8.450   8.179  12.626 -0.0102  0.0304 -0.1111
 1113W        W 4857   2.404   0.571  11.406 -0.0833 -0.0613 -0.2038
 1114W        W 4858   0.559   4.701   9.834  0.0375  0.0721 -0.1762
 1115W        W 4859   7.685   0.589  10.304 -0.2272  0.1075  0.0325
 1116W        W 4860   7.264   2.162   8.029  0.2066 -0.0558 -0.1248
 1117W        W 4861   9.428   7.600   9.819 -0.0879  0.0078  0.1822
 1118W        W 4862   9.817   6.058   1.427  0.2185  0.0056 -0.1273
 1119W        W 4863   7.866   8.466   0.658  0.2471  0.1366 -0.0056
 1120W        W 4864   3.081   1.064  11.329  0.1730  0.1851  0.2995
 1121W        W 4865   6.784   9.626   3.047 -0.0590  0.2797  0.0730
 1122W        W 4866   6.748   9.685  11.274 -0.1729 -0.0203  0.1071
 1123W        W 4867   9.443   1.177   8.787  0.2951  0.2199 -0.0889
 1124W        W 4868   6.905   1.516   4.220 -0.2199  0.0354  0.2810
 1125W        W 4869   4.313   5.273  12.518 -0.1866 -0.1199 -0.0468
 1126W        W 4870   9.088   6.290   0.148 -0.1077 -0.3364  0.0160
 1127W        W 4871   1.231   3.509   2.902  0.0730 -0.3185 -0.3360
 1128W        W 4872   1.083   3.705   1.770  0.1451 -0.0310  0.0242
 1129W        W 4873   7.595   6.404  11.524 -0.1158 -0.1289  0.0307
 1130W        W 4874   9.722   7.296  12.367 -0.0291 -0.2675  0.0356
 1131W        W 4875   0.474   5.710  10.617  0.1992 -0.2418  0.0824
 1132W        W 4876   0.251   4.543   1.386 -0.0387 -0.1611 -0.2340
 1133W        W 4877   5.581   4.766  10.192  0.4790  0.2255 -0.2812
 1134W        W 4878   0.185   9.378   3.247  0.1081  0.1187  0.2581
 1135W        W 4879   9.201   6.786  10.975  0.0625  0.2290  0.0254
 1136W        W 4880   5.230   9.376   8.212  0.0093 -0.0698  0.1411
 1137W        W 4881   2.874   2.907   2.066 -0.2311 -0.0690 -0.1949
 1138W        W 4882   6.578   0.692  11.242  0.1015  0.0413  0.1730
 1139W        W 4883   7.829   9.480   9.643 -0.1410 -0.0992 -0.1836
 1140W        W 4884   2.711   8.110  11.784 -0.5912 -0.2590 -0.2453
 1141W        W 4885   9.731   6.792  12.140 -0.0884 -0.1326  0.0535
 1142W        W 4886   9.530   4.701  10.250 -0.0559  0.1898 -0.0328
 1143W        W 4887   2.829   0.149   4.477  0.1801  0.4581 -0.2742
 1144W        W 4888   5.685   7.550   0.332  0.1380  0.2094 -0.0298
 1145W        W 4889   3.460   5.926  11.674  0.1155 -0.0517  0.0700
 1146W        W 4890   1.333   8.412   9.780  0.0377 -0.2880 -0.0796
 1147W        W 4891   4.198   8.148  12.662  0.3894 -0.1062 -0.2146
 1148W        W 4892   6.652   3.465  12.061 -0.1033  0.2564 -0.1302
 1149W        W 4893   8.103   4.825   3.837  0.0434 -0.0957 -0.0389
 1150W        W 4894   3.160   0.127   9.307 -0.1733 -0.0354  0.0753
 1151W        W 4895   0.911   8.082   4.712  0.0317 -0.2298 -0.0955
 1152W        W 4896   9.591   3.074  10.656  0.0106 -0.1722  0.0704
 1153W        W 4897   9.203   4.778  10.920 -0.1633  0.1866  0.2740
 1154W        W 4898   7.468   0.389  12.218 -0.1832 -0.0140 -0.0825
 1155W        W 4899   5.425   3.267   0.387  0.0209  0.0817  0.0354
 1156W        W 4900   9.632   0.716  11.220 -0.1408 -0.1691  0.0498
 1157W        W 4901   8.118   6.581   2.120  0.1755 -0.2968 -0.0686
 1158W        W 4902   3.759   2.053   1.679  0.2333  0.1044  0.0020
 1159W        W 4903   2.650   8.269   9.164  0.1226 -0.1587 -0.2532
 1160W        W 4904   4.068   8.216   4.042 -0.1397  0.2252  0.0187
 1161W        W 4905   7.857   7.992   9.255 -0.0126  0.2052 -0.0637
 1162W        W 4906   7.190   6.139  11.345  0.2651  0.2387 -0.3186
 1163W        W 4907   8.363   5.565  10.673 -0.3403  0.0928 -0.2107
 1164W        W 4908   8.799   6.085   1.856  0.1250  0.1635  0.0788
 1165W        W 4909   0.102   4.343   9.832  0.1275 -0.0259 -0.0195
 1166W        W 4910   5.316   5.084   0.609  0.0247 -0.1519 -0.0703
 1167W        W 4911   4.724   1.934   2.721  0.3868 -0.0388 -0.0612
 1168W        W 4912   5.577   1.039  10.864 -0.0421 -0.0668 -0.0400
 1169W        W 4913   0.626   9.161   8.766  0.1230  0.0421  0.0473
 1170W        W 4914   0.545   1.543  12.178 -0.1035 -0.1280  0.0677
 1171W        W 4915   8.402   2.997   0.378 -0.1075  0.0435 -0.1968
 1172W        W 4916   3.624   8.363   0.455 -0.3439  0.1654 -0.1249
 1173W        W 4917   3.950   9.671   2.221 -0.3068  0.2060 -0.0115
 1174W        W 4918   9.778   5.902   0.930 -0.1545 -0.0081 -0.3030
 1175W        W 4919   1.581   5.395  11.291  0.1722  0.1284 -0.0047
 1176W        W 4920   0.414   9.799   1.734  0.0572  0.1034  0.1648
 1177W        W 4921   2.027   3.412  10.474  0.1846  0.0247  0.0888
 1178W        W 4922   5.320   2.072   1.620 -0.1529 -0.0006  0.0668
 1179W        W 4923   1.873   3.855   0.110 -0.0443 -0.0896 -0.2213
 1180W        W 4924   2.702   2.334  10.646  0.0999 -0.0431 -0.2576
 1181W        W 4925   0.132   9.346  10.168 -0.0985  0.0090  0.0385
 1182W        W 4926   8.359   4.012   3.586 -0.0587 -0.0357 -0.2553
 1183W        W 4927   0.519   6.652   0.331 -0.1727  0.2793  0.1015
 1184W        W 4928   8.303   9.867   4.182 -0.0119 -0.0641 -0.0299
 1185W        W 4929   1.013   8.091   9.858 -0.0533  0.0423  0.0508
 1186W        W 4930   5.175   8.580  12.023 -0.0033  0.0743 -0.3492
 1187W        W 4931   0.762   9.522   1.961 -0.0098  0.4969 -0.0686
 1188W        W 4932   4.402   8.325   9.680 -0.2595 -0.2044  0.1621
 1189W        W 4933   4.987   5.744   9.755 -0.2174  0.0694 -0.3520
 1190W        W 4934   9.719   2.062  12.620  0.0472 -0.1977  0.2633
 1191W        W 4935   9.845   5.412   0.773  0.0039  0.0585 -0.0955
 1192W        W 4936   5.703   3.672   2.432 -0.1912 -0.0541 -0.0105
 1193W        W 4937   6.372   9.083  10.809 -0.1013 -0.0580 -0.2427
 1194W        W 4938   8.887   9.678   3.460 -0.0347 -0.0440 -0.1218
 1195W        W 4939   2.299   9.536   3.345 -0.3700  0.1005  0.1217
 1196W        W 4940   8.297   7.803   3.274 -0.1744 -0.3557 -0.0655
 1197W        W 4941   8.866   2.398  12.541  0.0281  0.1832  0.0549
 1198W        W 4942   4.859   2.167   3.191  0.2193 -0.1994  0.2417
 1199W        W 4943   1.398   3.060  10.085 -0.2357 -0.1058 -0.0301
 1200W        W 4944   1.609   4.029  10.784 -0.5079  0.3016 -0.1919
 1201W        W 4945   3.092   8.165   9.563 -0.0550  0.0133  0.2127
 1202W        W 4946   6.274   9.585  10.634 -0.0279 -0.1311  0.2329
 1203W        W 4947   5.491   5.327  11.478 -0.0451  0.0999 -0.0673
 1204W        W 4948   3.925   0.408   2.323  0.1526 -0.2569  0.0516
 1205W        W 4949   3.126   7.547   0.058  0.2105  0.0659 -0.0688
 1206W        W 4950   5.387   3.042   3.048  0.0990  0.2721  0.2063
 1207W        W 4951   9.306   9.113   9.917  0.4848  0.0029  0.1732
 1208W        W 4952   0.036   4.737   0.797  0.1604 -0.1926  0.2420
 1209W        W 4953   4.281   0.262   9.598  0.3036 -0.0718  0.1360
 1210W        W 4954   4.794   2.065  10.224  0.1485  0.1751 -0.1673
 1211W        W 4955   8.633   1.881   2.865  0.1179  0.0062 -0.0511
 1212W        W 4956   9.311   3.033   8.193  0.0557 -0.0042  0.0822
 1213W        W 4957   0.060   0.304   0.933 -0.4865  0.1417  0.1877
 1214W        W 4958   3.252   6.780   3.746  0.1511 -0.3383 -0.1991
 1215W        W 4959   1.861   4.245   9.672  0.1151 -0.1746  0.1030
 1216W        W 4960   7.831   6.381  10.394  0.3218 -0.1866  0.1828
 1217W        W 4961   5.196   9.430  12.328  0.0029  0.0720 -0.1715
 1218W        W 4962   8.044   1.212   1.399 -0.1437 -0.0041  0.1464
 1219W        W 4963   9.068   4.992   1.835 -0.0771  0.1851  0.0267
 1220W        W 4964   0.280   6.563   1.443  0.3725  0.0016  0.0265
 1221W        W 4965   1.359   2.510   0.380 -0.0315  0.1362 -0.2185
 1222W        W 4966   4.063   4.143   0.007  0.0863  0.1661 -0.0968
 1223W        W 4967   8.801   2.141   8.860 -0.3730  0.1502  0.0481
 1224W        W 4968   3.885   9.489  11.800 -0.1931 -0.0269  0.3984
 1225W        W 4969   4.776   3.223  12.577 -0.0864 -0.0491  0.0447
 1226W        W 4970   5.169   9.719   0.271  0.1616 -0.0878  0.1450
 1227W        W 4971   0.717   4.279  10.091  0.0813  0.0075  0.2510
 1228W        W 4972   9.114   7.683   0.369  0.1419 -0.0058  0.0395
 1229W        W 4973   2.436   0.168  12.526  0.0152 -0.0690 -0.4135
 1230W        W 4974   3.163   9.636  10.114  0.1450 -0.0541  0.0215
 1231W        W 4975   8.064   6.342   3.195 -0.2811 -0.0493 -0.2639
 1232W        W 4976   9.469   2.599   3.307  0.0254 -0.2380  0.3547
 1233W        W 4977   1.956   1.904   9.647  0.1508 -0.1997  0.0256
 1234W        W 4978   2.425   9.245   9.344  0.0163  0.5198 -0.0576
 1235W        W 4979   5.125   8.101  12.090 -0.4951  0.2108  0.0802
 1236W        W 4980   3.911   8.681   2.555 -0.0558  0.2761  0.1788
 1237W        W 4981   7.813   0.077   9.980  0.1924  0.0812  0.0824
 1238W        W 4982   6.917   5.999   9.668 -0.0250  0.1896 -0.1427
 1239W        W 4983   6.577   7.484   0.091 -0.0381  0.0127  0.0422
 1240W        W 4984   4.687   5.894  12.422 -0.2616  0.0146 -0.0137
 1241W        W 4985   7.237   4.907  10.164 -0.0231 -0.0291  0.1336
 1242W        W 4986   3.375   9.350   4.762  0.1038  0.0531 -0.1671
 1243W        W 4987   9.362   4.001   2.040 -0.0712  0.1387 -0.2410
 1244W        W 4988   8.159   8.464   2.161 -0.0863  0.3484  0.2007
 1245W        W 4989   0.375   0.108  10.896  0.1592 -0.0608  0.3783
 1246W        W 4990   1.818   5.638   3.305  0.0286  0.0379  0.1143
 1247W        W 4991   0.074   8.285   9.810  0.3376 -0.2188 -0.5822
 1248W        W 4992   2.568   2.959   8.821 -0.1344 -0.1748  0.1135
 1249W        W 4993   9.565   3.457   8.503  0.2266  0.1705  0.3166
 1250W        W 4994   9.482   9.680   8.907  0.0779  0.0770  0.2316
 1251W        W 4995   0.784   8.100  11.808 -0.1755 -0.0939  0.1565
 1252W        W 4996   3.591   9.486   9.916 -0.0575 -0.1101 -0.3418
 1253W        W 4997   6.800   6.986   3.451  0.2774 -0.1352 -0.0424
 1254W        W 4998   1.173   7.147   1.615 -0.0884 -0.0731  0.0323
 1255W        W 4999   5.745   1.364   9.185  0.1912 -0.0701 -0.1807
 1256W        W 5000   6.831   0.045  11.709  0.1529  0.0395  0.2473
 1257W        W 5001   1.060   1.039  11.186  0.0732 -0.1969 -0.2208
 1258W        W 5002   4.003   5.800   9.714  0.3609  0.2916 -0.1072
 1259W        W 5003   6.637   2.805   2.390  0.1916  0.0621 -0.0773
 1260W        W 5004   2.490   0.090   4.092 -0.0365  0.3311  0.1096
 1261W        W 5005   8.497   1.756  11.537 -0.0332 -0.2597  0.1189
 1262W        W 5006   0.702   3.748   9.888  0.0400  0.3557  0.2029
 1263W        W 5007   3.020   8.486   5.313  0.0499 -0.0755 -0.0552
 1264W        W 5008   4.182   1.073   3.453 -0.0219 -0.1584  0.0918
 1265W        W 5009   0.686   9.580   3.287 -0.0197 -0.3919 -0.2073
 1266W        W 5010   0.937   9.734  11.121 -0.0632 -0.3091  0.2660
 1267W        W 5011   9.032   5.684   3.181  0.0686 -0.0560  0.0092
 1268W        W 5012   4.845   7.860   0.750 -0.0507  0.4263  0.4844
 1269W        W 5013   5.699   9.880  12.617  0.0373  0.0418  0.3600
 1270W        W 5014   1.246   9.461   2.186 -0.0833  0.0459  0.1335
 1271W        W 5015   7.162   2.244  11.528 -0.3245  0.3824  0.0447
 1272W        W 5016   5.180   0.183   2.948  0.0042 -0.0880 -0.0808
 1273W        W 5017   8.672   5.438   3.557  0.2925 -0.0470 -0.0246
 1274W        W 5018   5.184   1.149   4.172  0.1353  0.3301 -0.2158
 1275W        W 5019   6.716   2.454  11.125  0.2166 -0.0771 -0.0531
 1276W        W 5020   6.075   8.913  12.254  0.1744  0.3047 -0.1825
 1277W        W 5021   3.190   2.076  10.830  0.1109  0.1734  0.0975
 1278W        W 5022   8.800   5.726   2.633 -0.0190  0.2555 -0.0546
 1279W        W 5023   6.024   5.218   0.074  0.1958 -0.3066 -0.4097
 1280W        W 5024   3.325   4.637   1.020 -0.3196  0.0252 -0.2357
 1281W        W 5025   6.175   1.821   0.249  0.0658  0.0656  0.2200
 1282W        W 5026   4.699   1.596   3.561  0.1233 -0.2359  0.1368
 1283W        W 5027   3.407   5.045  11.407 -0.0018 -0.2138 -0.1199
 1284W        W 5028   8.392   1.806   0.135 -0.1556 -0.0494  0.2673
 1285W        W 5029   4.616   1.371  11.710  0.1857 -0.1405 -0.1757
 1286W        W 5030   2.043   8.072   1.762  0.1707  0.1265 -0.3911
 1287W        W 5031   8.815   1.339   8.136  0.1192 -0.0824 -0.0405
 1288W        W 5032   4.557   7.506  11.412  0.0795 -0.0983  0.0714
 1289W        W 5033   7.259   2.271   9.774 -0.1178 -0.1112  0.4369
 1290W        W 5034   8.493   6.388   8.501 -0.2129  0.1215 -0.1086
 1291W        W 5035   4.378   5.843   2.603 -0.0038  0.0808  0.0140
 1292W        W 5036   3.169   7.778   4.095  0.0840 -0.0313 -0.0819
 1293W        W 5037   9.485   9.617   2.239 -0.0361 -0.0524 -0.1490
 1294W        W 5038   2.715   4.430   2.218  0.3172  0.0487  0.0899
 1295W        W 5039   9.831   7.570  10.503  0.0266  0.2896  0.0471
 1296W        W 5040   4.176   5.724  11.687 -0.0317 -0.0295  0.1245
 1297W        W 5041   4.312   9.325  10.814  0.1081  0.3345  0.0160
 1298W        W 5042   4.616   2.899  10.030  0.0948  0.0030 -0.1739
 1299W        W 5043   2.640   0.267   9.330  0.0497  0.0072 -0.0770
 1300W        W 5044   7.351   4.174   3.583 -0.1400 -0.0642 -0.0755
 1301W        W 5045   7.658   6.812   0.541 -0.3182  0.0591 -0.1015
 1302W        W 5046   3.917   6.111  10.590  0.0191 -0.0237  0.0779
 1303W        W 5047   6.792   3.827  10.240 -0.0240  0.0865 -0.0402
 1304W        W 5048   9.881   9.810  11.530 -0.1136  0.0723  0.0803
 1305W        W 5049   9.080   9.503   7.840 -0.3507 -0.0364  0.1173
 1306W        W 5050   3.136   4.644   3.331 -0.4060 -0.3232  0.2659
 1307W        W 5051   1.798   8.917  10.918  0.1391  0.1381  0.0639
 1308W        W 5052   1.654   0.238   3.787  0.0609  0.0135 -0.2112
 1309W        W 5053   9.311   1.411  10.320 -0.0777 -0.1202 -0.0316
 1310W        W 5054   5.652   0.816  11.357  0.1539 -0.0070 -0.1814
 1311W        W 5055   3.454   4.165   1.211  0.1470 -0.0399 -0.2190
 1312W        W 5056   6.616   9.171   3.249 -0.0461 -0.1482 -0.1171
 1313W        W 5057   0.270   1.312   1.824 -0.0225  0.0696  0.2233
 1314W        W 5058   5.589   5.816  11.925  0.0681 -0.0131 -0.3662
 1315W        W 5059   5.822   0.685   2.003  0.0002 -0.2059  0.1924
 1316W        W 5060   0.368   8.325   1.432  0.0227  0.1100 -0.2681
 1317W        W 5061   6.290   9.508   4.131  0.0592  0.0512 -0.1037
 1318W        W 5062   3.914   7.397   3.876  0.0429  0.0732 -0.0481
 1319W        W 5063   1.239   3.347  11.411 -0.1028  0.1126 -0.1002
 1320W        W 5064   9.555   3.392   2.803 -0.2182 -0.1492 -0.1992
 1321W        W 5065   1.307   6.522   9.533 -0.0477 -0.1108 -0.0944
 1322W        W 5066   5.932   9.705  12.989  0.0907 -0.1187  0.3609
 1323W        W 5067   0.964   2.202   0.397  0.2753  0.2633 -0.1918
 1324W        W 5068   7.373   8.863   2.791  0.0837  0.0843  0.1147
 1325W        W 5069   1.625   4.708   9.830 -0.4276  0.0866  0.0044
 1326W        W 5070   5.902   5.678  11.267 -0.2603 -0.4274 -0.2235
 1327W        W 5071   7.992   3.560   3.803 -0.1328  0.0657  0.1013
 1328W        W 5072   7.615   5.233   2.346 -0.0260 -0.0519 -0.1691
 1329W        W 5073   1.333   0.729   2.689  0.0756  0.1868 -0.1669
 1330W        W 5074   2.900   4.451  12.800 -0.1628 -0.0163 -0.2171
 1331W        W 5075   3.979   1.336   0.609 -0.1689 -0.0434 -0.0958
 1332W        W 5076   8.467   4.080   2.450  0.1430 -0.0863  0.0682
 1333W        W 5077   6.357   5.248   1.751  0.1694 -0.0525 -0.1720
 1334W        W 5078   1.062   0.425   3.053 -0.0978 -0.0127  0.1561
 1335W        W 5079   4.260   2.639   3.145  0.0229  0.1534 -0.2041
 1336W        W 5080   2.110   8.084   9.080  0.1050  0.1219 -0.0684
 1337W        W 5081   8.908   0.190   1.264  0.1031 -0.0645 -0.0017
 1338W        W 5082   2.194   1.087  10.213 -0.1015  0.0625 -0.2128
 1339W        W 5083   1.627   1.196   0.287 -0.2333 -0.0376  0.2812
 1340W        W 5084   6.929   1.442   2.989 -0.0286 -0.1763 -0.1139
 1341W        W 5085   8.712   2.627   0.886  0.0022  0.0124  0.0163
 1342W        W 5086   4.465   6.576   0.708  0.2680 -0.1351  0.1324
 1343W        W 5087   9.605   5.169  10.111  0.1463 -0.0229  0.1495
 1344W        W 5088   7.558   3.019   0.161 -0.0375 -0.1660 -0.1120
 1345W        W 5089   7.106   0.202   1.966  0.1686 -0.0079  0.0635
 1346W        W 5090   8.760   1.847  10.804 -0.0051 -0.1678 -0.0481
 1347W        W 5091   5.490   1.086   1.855 -0.0999 -0.3054 -0.1620
 1348W        W 5092   1.998   3.126   1.895  0.0547  0.2302  0.2512
 1349W        W 5093   0.801   7.135   2.254  0.1533 -0.1438  0.3288
 1350W        W 5094   3.554   1.501   0.838  0.0620 -0.2918 -0.0739
 1351W        W 5095   9.893   7.939  11.875  0.0549  0.1524  0.0871
 1352W        W 5096   7.959   0.570  12.110 -0.1643  0.1169 -0.0217
 1353W        W 5097   4.121   7.958  11.246  0.0154 -0.0547  0.1597
 1354W        W 5098   5.942   7.008   0.814  0.0279  0.1491  0.0284
 1355W        W 5099   9.823   0.110   2.492 -0.0912 -0.0733 -0.1150
 1356W        W 5100   9.497   7.404   0.175 -0.0534 -0.2507  0.0408
 1357W        W 5101   7.674   5.400   3.538 -0.2297  0.1708 -0.2123
 1358W        W 5102   1.202   6.203  11.200  0.3017  0.1108  0.1073
 1359W        W 5103   7.966   9.887   9.083 -0.0938  0.0505  0.0119
 1360W        W 5104   3.676   8.821  11.224  0.2892 -0.0818  0.3652
 1361W        W 5105   4.964   2.363   2.652 -0.3357 -0.0456  0.1370
 1362W        W 5106   1.870   5.352  10.370  0.0009 -0.0120  0.0285
 1363W        W 5107   1.923   1.634  10.029  0.0618  0.1132 -0.3132
 1364W        W 5108   4.397   2.844  11.396 -0.2284  0.0142  0.0125
 1365W        W 5109   5.490   3.504   1.187  0.0337  0.0404 -0.0139
 1366W        W 5110   5.416   3.246  10.143 -0.1461  0.0231 -0.1915
 1367W        W 5111   6.277   0.153  12.968  0.0622 -0.1829 -0.0146
 1368W        W 5112   0.714   8.222  12.321 -0.0267 -0.0346 -0.1360
 1369W        W 5113   6.625   8.244  12.299  0.4263 -0.1844 -0.0110
 1370W        W 5114   8.009   2.716   4.192  0.0935 -0.0256 -0.2763
 1371W        W 5115   1.595   9.588   8.295  0.0929 -0.0349  0.0608
 1372W        W 5116   2.525   8.786   5.481 -0.0058  0.3976  0.1412
 1373W        W 5117   3.382   1.977   2.046 -0.2037  0.1464  0.1082
 1374W        W 5118   3.299   7.264   2.013  0.0179 -0.2341 -0.1730
 1375W        W 5119   7.770   9.456   4.078 -0.1449 -0.0921 -0.2825
 1376W        W 5120   5.104   4.137  11.879 -0.2959 -0.0118 -0.3246
 1377W        W 5121   7.160   6.928   4.345  0.1067 -0.3571 -0.0341
 1378W        W 5122   2.717   3.252  12.314  0.0358 -0.0074 -0.2968
 1379W        W 5123   2.415   1.452  10.880  0.0277  0.1485  0.3803
 1380W        W 5124   4.590   0.790  10.543 -0.3242  0.0828 -0.0789
 1381W        W 5125   6.607   1.866   3.826 -0.2432 -0.1518  0.3916
 1382W        W 5126   5.232   7.769   0.474 -0.2531 -0.3893  0.2976
 1383W        W 5127   3.604   9.355   0.046 -0.0916  0.0419  0.1427
 1384W        W 5128   1.051   7.774   8.775 -0.1482 -0.0526  0.1585
 1385W        W 5129   0.478   5.957  12.755 -0.0074  0.3148  0.1773
 1386W        W 5130   3.545   4.278  10.646 -0.0680 -0.1945 -0.1423
 1387W        W 5131   8.165   8.031   0.004  0.1237 -0.1051  0.1437
 1388W        W 5132   6.312   2.814  11.870 -0.0177  0.0744 -0.0135
 1389W        W 5133   7.229   5.777   2.674  0.3244 -0.1328 -0.0013
 1390W        W 5134   8.536   0.155   8.366  0.2185 -0.4701 -0.0421
 1391W        W 5135   7.843   0.574  12.580 -0.1597  0.0336  0.3520
 1392W        W 5136   1.433   0.599  11.842 -0.1566  0.1225 -0.1586
 1393W        W 5137   1.216   8.120   1.237  0.0959  0.0683  0.0500
 1394W        W 5138   8.719   8.675   3.603 -0.0402  0.0571 -0.1291
 1395W        W 5139   1.246   1.028   9.393  0.3253  0.2017 -0.0450
 1396W        W 5140   8.618   4.924  10.268 -0.4267 -0.0747 -0.0824
 1397W        W 5141   5.058   3.776   1.727  0.2247 -0.0817 -0.2091
 1398W        W 5142   7.834   4.068   3.676 -0.4155  0.0225 -0.1355
 1399W        W 5143   5.612   0.718  11.946  0.0130 -0.2562 -0.4185
 1400W        W 5144   9.803   5.423  12.291 -0.3035 -0.2611  0.3031
 1401W        W 5145   1.145   2.503   8.995 -0.0786  0.2199  0.2988
 1402W        W 5146   3.349   6.276   1.712 -0.1528 -0.1845 -0.2167
 1403W        W 5147   5.920   9.251  10.798  0.0083  0.1506  0.0060
 1404W        W 5148   4.862   7.989   1.574  0.2881  0.0312  0.1191
 1405W        W 5149   0.051   7.418   0.937 -0.1976  0.1698  0.0284
 1406W        W 5150   9.253   9.047   0.103  0.1742  0.0757 -0.0147
 1407W        W 5151   8.816   0.096   9.587  0.0512 -0.0803  0.0671
 1408W        W 5152   4.198   9.082   8.387 -0.1093  0.0797  0.3100
 1409W        W 5153   8.746   0.525   2.881 -0.2155 -0.2135  0.2862
 1410W        W 5154   8.290   6.280  10.223 -0.3176  0.3754  0.0584
 1411W        W 5155   2.905   7.466   1.626 -0.2745  0.1979  0.3291
 1412W        W 5156   3.624   2.760   1.572 -0.1120 -0.1160  0.0875
 1413W        W 5157   7.456   2.814   0.970  0.2996 -0.2662  0.1639
 1414W        W 5158   7.472   4.066  12.645 -0.0457 -0.2771  0.0376
 1415W        W 5159   2.109   6.543  11.213  0.3161  0.0397 -0.1077
 1416W        W 5160   2.895   5.002   2.839 -0.2102  0.1092 -0.3431
 1417W        W 5161   6.567   3.871  11.679  0.0802  0.2173 -0.3187
 1418W        W 5162   7.584   9.493   3.556  0.1836 -0.3285 -0.1011
 1419W        W 5163   6.804   7.515   3.401  0.1032 -0.0045 -0.2010
 1420W        W 5164   0.224   2.410   0.357 -0.1414  0.0463  0.0506
 1421W        W 5165   2.303   2.080   1.102  0.0184  0.4258  0.2228
 1422W        W 5166   9.782   0.197   4.812 -0.0003  0.0752  0.0576
 1423W        W 5167   9.716   6.532   9.768  0.2207  0.0145  0.1239
 1424W        W 5168   3.126   3.734   2.310 -0.1925 -0.1095 -0.0540
 1425W        W 5169   4.645   9.295  11.255  0.1841 -0.1792 -0.1201
 1426W        W 5170   3.140   3.824   1.107  0.2598 -0.1563 -0.1457
 1427W        W 5171   3.146   6.424   0.024  0.2579 -0.0743 -0.4186
 1428W        W 5172   8.517   4.004  10.041 -0.1177 -0.3833  0.0971
 1429W        W 5173   1.951   0.507   4.649 -0.0140 -0.2983 -0.0744
 1430W        W 5174   0.457   8.428  10.739 -0.0969 -0.3123 -0.3058
 1431W        W 5175   4.227   5.029   9.465  0.0462 -0.0578  0.1823
 1432W        W 5176   0.254   2.003  10.345 -0.0441  0.1310 -0.3125
 1433W        W 5177   1.503   7.662   2.402  0.2064 -0.0757 -0.1871
 1434W        W 5178   6.465   3.786  12.974 -0.1260 -0.0539  0.1015
 1435W        W 5179   9.129   5.643   3.664  0.0560 -0.1518  0.2009
 1436W        W 5180   9.244   0.437   1.492 -0.2722 -0.1829 -0.1670
 1437W        W 5181   5.330   2.705   1.700 -0.3547  0.0978 -0.1150
 1438W        W 5182   8.992   4.990   0.543 -0.5218  0.2159 -0.1554
 1439W        W 5183   4.580   5.826   2.143 -0.0461 -0.3286  0.3312
 1440W        W 5184   5.298   7.459   9.590  0.2888 -0.0869  0.1293
 1441W        W 5185   2.297   4.997  12.430  0.0699 -0.3816 -0.0299
 1442W        W 5186   5.700   0.305   3.272 -0.1202 -0.1311  0.1645
 1443W        W 5187   4.603   6.544   3.033  0.1364 -0.0897 -0.1309
 1444W        W 5188   6.266   9.466   1.872 -0.0985 -0.0790 -0.0102
 1445W        W 5189   0.444   6.420  12.495  0.2717 -0.3425  0.0511
 1446W        W 5190   3.075   3.606  12.380 -0.1518 -0.1196  0.2971
 1447W        W 5191   1.139   9.260  11.126  0.0879  0.2185 -0.0068
 1448W        W 5192   2.048   7.039   2.616  0.2678 -0.1965 -0.2361
 1449W        W 5193   6.693   0.951   2.138  0.0445 -0.2220 -0.0225
 1450W        W 5194   8.049   1.691  11.893  0.1114 -0.0692  0.2138
 1451W        W 5195   4.278   3.252   1.744  0.3025 -0.0229  0.0559
 1452W        W 5196   5.305   2.961   2.194  0.1289 -0.1374  0.2148
 1453W        W 5197   1.571   1.828  11.269  0.0037  0.0265 -0.1674
 1454W        W 5198   1.380   9.639   3.647 -0.0090  0.0004  0.0871
 1455W        W 5199   5.567   6.709   2.999 -0.2752  0.1990  0.1612
 1456W        W 5200   3.016   5.193   9.226 -0.4231 -0.1159  0.0213
 1457W        W 5201   3.771   8.200   2.619  0.3205 -0.0505 -0.1781
 1458W        W 5202   2.383   0.565   0.165  0.0254  0.2596 -0.0036
 1459W        W 5203   8.021   8.714   3.013 -0.2693  0.0871 -0.0714
 1460W        W 5204   8.334   0.220   2.978  0.0019 -0.0159 -0.0330
 1461W        W 5205   2.608   0.995  11.520 -0.4258 -0.0720  0.0069
 1462W        W 5206   0.820   9.620   9.744 -0.2455  0.0785  0.0737
 1463W        W 5207   9.598   8.290   0.814 -0.0168 -0.2157  0.0550
 1464W        W 5208   6.436   8.829   3.895  0.0829  0.1073 -0.2130
 1465W        W 5209   4.802   9.716   4.133 -0.0993 -0.0440 -0.0267
 1466W        W 5210   2.519   8.411  11.426  0.4268  0.3452 -0.0042
 1467W        W 5211   9.603   7.907   0.326 -0.0712  0.3958 -0.1225
 1468W        W 5212   8.955   8.351   8.860 -0.0635 -0.0263 -0.2110
 1469W        W 5213   6.157   2.266   0.501  0.2928 -0.0912 -0.1585
 1470W        W 5214   0.397   8.846   1.286 -0.1937 -0.0411 -0.0761
 1471W        W 5215   7.855   2.385  12.542  0.0150  0.2665  0.0034
 1472W        W 5216   0.451   4.387  12.393  0.1465  0.0256  0.2678
 1473W        W 5217   8.914   4.219  12.761  0.0563  0.0922  0.2543
 1474W        W 5218   0.226   7.874   2.348 -0.1387  0.0843 -0.2957
 1475W        W 5219   9.012   4.221   8.134  0.0832  0.0823  0.2922
 1476W        W 5220   2.921   0.617   9.565  0.3150  0.1432 -0.0930
 1477W        W 5221   1.680   9.000  10.419  0.1856 -0.2867 -0.1178
 1478W        W 5222   7.956   6.182   2.363  0.1505  0.0585 -0.0534
 1479W        W 5223   2.879   8.027   4.565 -0.3519 -0.2207 -0.3459
 1480W        W 5224   6.580   0.192  12.239 -0.0257 -0.2255  0.4512
 1481W        W 5225   6.930   8.377   8.815 -0.0558 -0.0076 -0.0263
 1482W        W 5226   3.207   1.932  12.225 -0.2486  0.0124 -0.1510
 1483W        W 5227   8.010   0.383   2.142 -0.3148 -0.1733 -0.0167
 1484W        W 5228   8.346   5.026   9.431 -0.0018  0.0474  0.0744
 1485W        W 5229   6.913   3.030   1.119 -0.0960 -0.0742  0.3498
 1486W        W 5230   0.198   2.244  12.848  0.0286 -0.2158 -0.2164
 1487W        W 5231   1.793   4.013   1.029  0.3430 -0.1247 -0.2444
 1488W        W 5232   8.335   8.892   3.403 -0.2324 -0.2260 -0.2713
 1489W        W 5233   6.729   1.795   9.435 -0.5844 -0.1440 -0.0842
 1490W        W 5234   2.436   1.092   1.994  0.0174  0.0636 -0.1048
 1491W        W 5235   5.108   2.815  10.073  0.1637  0.2601  0.1044
 1492W        W 5236   7.057   2.382   2.226 -0.1604  0.2184 -0.0425
 1493W        W 5237   3.546   4.278   3.468 -0.2026  0.1449 -0.3490
 1494W        W 5238   3.500   9.624  10.508 -0.2262  0.3498 -0.0504
 1495W        W 5239   7.493   9.863   4.046 -0.2525  0.1217 -0.0426
 1496W        W 5240   8.057   6.548   3.633  0.2908 -0.0239  0.1408
 1497W        W 5241   5.809   7.111  11.984 -0.0666  0.1032 -0.0210
 1498W        W 5242   0.216   2.696   2.932  0.0608 -0.3124  0.0973
 1499W        W 5243   0.949   2.161   8.654  0.0236 -0.3459 -0.0834
 1500W        W 5244   4.940   7.234   3.437  0.3600  0.1317 -0.2963
 1501W        W 5245   4.023   7.254   1.024 -0.0650 -0.1740  0.1566
 1502W        W 5246   3.190   1.004   9.812 -0.1601  0.2522 -0.1266
 1503W        W 5247   2.106   4.283   3.721  0.2743  0.1645 -0.1260
 1504W        W 5248   5.077   0.722   0.799  0.1596 -0.0900 -0.0722
 1505W        W 5249   4.280   9.582   3.359 -0.0683 -0.0083 -0.1519
 1506W        W 5250   8.429   1.124   3.875 -0.0585  0.2769 -0.1856
 1507W        W 5251   6.286   0.553  12.136 -0.0446 -0.1848 -0.1381
 1508W        W 5252   5.817   8.356  11.081 -0.3939  0.0209  0.3378
 1509W        W 5253   4.990   5.346   1.527 -0.1133 -0.1149 -0.2736
 1510W        W 5254   0.993   4.557   1.243  0.0227  0.0012 -0.2735
 1511W        W 5255   8.304   4.798   1.467 -0.0141 -0.1008  0.0222
 1512W        W 5256   6.359   4.008   3.327 -0.0492  0.1274  0.0587
 1513W        W 5257   0.491   1.231  11.778 -0.1053 -0.0427  0.2859
 1514W        W 5258   8.208   0.785  10.697  0.1384  0.1343 -0.0011
 1515W        W 5259   9.247   1.250   1.828 -0.0294  0.1835  0.2111
 1516W        W 5260   7.179   6.516  11.081 -0.0244  0.2391 -0.3066
 1517W        W 5261   1.555   3.518  10.661  0.1491  0.0011 -0.1271
 1518W        W 5262   2.008   9.415   4.423  0.0123 -0.0006 -0.0328
 1519W        W 5263   6.761   0.572   1.436  0.0919 -0.1609 -0.2264
 1520W        W 5264   4.456   3.034   2.722  0.0553 -0.1258  0.0932
 1521W        W 5265   0.442   7.425  10.162 -0.0073  0.0422 -0.0372
 1522W        W 5266   3.594   2.930   2.525  0.2867  0.1385  0.0818
 1523W        W 5267   6.943   4.107   1.157 -0.1140  0.2132  0.0583
 1524W        W 5268   2.040   2.423  12.111  0.1150 -0.1435  0.0754
 1525W        W 5269   7.468   1.396   8.823 -0.4024 -0.0019 -0.0040
 1526W        W 5270   9.179   7.756   9.423 -0.0314 -0.2645 -0.0771
 1527W        W 5271   4.596   9.728  11.493  0.1228 -0.3928 -0.0524
 1528W        W 5272   7.886   2.087   0.594  0.3002  0.2079 -0.1729
 1529W        W 5273   1.880   1.216   0.714 -0.2026 -0.1094 -0.3899
 1530W        W 5274   5.079   9.144   4.043  0.1121  0.1882  0.1832
 1531W        W 5275   9.245   9.160   2.926  0.0952 -0.0422 -0.0354
 1532W        W 5276   6.071   8.035   2.575  0.3501 -0.2815  0.3828
 1533W        W 5277   5.389   5.816  12.840 -0.2501  0.1249 -0.0405
 1534W        W 5278   1.201   9.436   4.152 -0.1122 -0.1466  0.2262
 1535W        W 5279   8.015   2.589  12.128  0.2429 -0.0449 -0.1785
 1536W        W 5280   2.377   2.567  12.466  0.0105 -0.3613 -0.2764
 1537W        W 5281   5.009   2.651   0.969  0.1938 -0.0773 -0.0196
 1538W        W 5282   6.738   7.420   2.430 -0.3258 -0.2613  0.0431
 1539W        W 5283   3.438   8.558   2.858 -0.1597 -0.0527 -0.0957
 1540W        W 5284   0.818   2.845   9.218 -0.0521 -0.2633  0.4647
 1541W        W 5285   0.054   1.442   4.793  0.1204 -0.1761 -0.0755
 1542W        W 5286   2.891   7.946   1.476 -0.0997 -0.0916 -0.1579
 1543W        W 5287   1.376   2.160   3.090 -0.4683 -0.1433  0.0578
 1544W        W 5288   3.913   4.275   0.492 -0.0304 -0.0431  0.0601
 1545W        W 5289   1.498   5.508   3.662 -0.2845 -0.1548  0.0533
 1546W        W 5290   2.933   4.053   1.925  0.1655 -0.0613  0.2765
 1547W        W 5291   7.039   9.848   3.795  0.2509  0.3264  0.0539
 1548W        W 5292   4.852   1.030  10.899 -0.1467  0.1599 -0.1989
 1549W        W 5293   8.621   7.461  10.418  0.3692  0.0339  0.2356
 1550W        W 5294   4.427   6.330   3.481  0.1747 -0.0962  0.0594
 1551W        W 5295   5.316   3.383   2.491  0.0438 -0.1781  0.0343
 1552W        W 5296   8.904   8.665   1.395 -0.1281  0.0222 -0.0774
 1553W        W 5297   8.118   1.691   1.512  0.1214 -0.0299 -0.1353
 1554W        W 5298   6.204   5.753   1.102  0.4566 -0.0964  0.1178
 1555W        W 5299   8.284   8.613  11.101 -0.1778  0.0565  0.2000
 1556W        W 5300   4.855   8.259  10.193  0.0302 -0.0562  0.1286
 1557W        W 5301   0.909   0.725   9.101 -0.1325  0.0171 -0.1641
 1558W        W 5302   8.923   1.720   0.112 -0.0658  0.1245  0.0741
 1559W        W 5303   7.346   7.691  11.246 -0.0743  0.0614  0.2641
 1560W        W 5304   8.351   9.657  12.323 -0.0967  0.0695  0.4107
 1561W        W 5305   4.652   1.587  10.259  0.1419 -0.0616  0.3801
 1562W        W 5306   4.573   2.633   2.466 -0.1296 -0.1077  0.1438
 1563W        W 5307   6.949   1.524   1.276 -0.0615 -0.1375 -0.2685
 1564W        W 5308   9.125   8.713  10.127  0.1667  0.2471  0.1247
 1565W        W 5309   5.339   2.445  10.786 -0.0549 -0.0243  0.2149
 1566W        W 5310   8.154   5.139  10.750 -0.3104 -0.2304 -0.1130
 1567W        W 5311   9.566   3.418  11.494  0.1652 -0.1994 -0.2966
 1568W        W 5312   7.098   2.653   0.232  0.0581  0.1777 -0.0732
 1569W        W 5313   3.520   6.003   3.298 -0.1512  0.1379  0.1515
 1570W        W 5314   7.632   8.247   0.263  0.2013 -0.0343 -0.0621
 1571W        W 5315   8.958   4.667  11.771 -0.1344  0.1904  0.1743
 1572W        W 5316   0.925   7.147   3.532  0.0138 -0.1033  0.0490
 1573W        W 5317   8.588   5.374   3.063  0.1072  0.2189  0.1370
 1574W        W 5318   0.188   3.547   8.377  0.1225  0.0019  0.1261
 1575W        W 5319   9.510   2.362   9.893 -0.1903 -0.0156 -0.0318
 1576W        W 5320   6.193   2.782  10.955 -0.0766 -0.1752  0.1947
 1577W        W 5321   7.551   7.288   4.842  0.0967  0.0232 -0.0687
 1578W        W 5322   0.128   5.623   1.244  0.0362 -0.0081  0.0149
 1579W        W 5323   5.306   4.496   2.716 -0.0027 -0.1812  0.1357
 1580W        W 5324   6.235   6.329   2.973 -0.3704  0.0865 -0.0738
 1581W        W 5325   1.911   8.445   0.422  0.5734  0.0375  0.1041
 1582W        W 5326   1.574   3.370   2.526 -0.3095  0.2552 -0.2456
 1583W        W 5327   8.955   4.410  12.235  0.3551  0.0311 -0.0133
 1584W        W 5328   3.935   1.539   2.582  0.0158 -0.1186  0.0041
 1585W        W 5329   5.450   4.626  11.608  0.3567  0.1350  0.3343
 1586W        W 5330   5.812   4.634   2.979 -0.0619 -0.0801  0.0357
 1587W        W 5331   5.749   7.876   3.354 -0.2383 -0.0642  0.1124
 1588W        W 5332   1.186   8.490   2.329  0.2919  0.0040  0.0094
 1589W        W 5333   3.772   3.033  12.963 -0.2850 -0.1950 -0.2019
 1590W        W 5334   7.407   3.784   9.514  0.0412  0.1257 -0.0140
 1591W        W 5335   7.872   7.348  10.054  0.1431  0.2234  0.1602
 1592W        W 5336   1.510   5.535   2.829  0.2298  0.0689  0.0032
 1593W        W 5337   6.148   2.434   2.620 -0.1339 -0.2511  0.3133
 1594W        W 5338   7.903   3.508   1.301 -0.2871  0.3739  0.2680
 1595W        W 5339   4.809   2.253   0.732 -0.4152 -0.0072 -0.2040
 1596W        W 5340   5.877   3.610   0.583  0.1950 -0.1172 -0.2763
 1597W        W 5341   8.104   1.936   1.983  0.2111  0.1375  0.0911
 1598W        W 5342   8.150   6.088   4.494  0.1086 -0.0701  0.1153
 1599W        W 5343   9.617   7.201   4.041 -0.0682  0.3307 -0.0840
 1600W        W 5344   3.344   5.101   3.212 -0.0571 -0.1209  0.1974
 1601W        W 5345   6.266   6.709  11.095  0.0884  0.2087 -0.2199
 1602W        W 5346   2.006   7.636   2.619 -0.2020  0.1470 -0.3323
 1603W        W 5347   1.990   8.508  11.277  0.0996 -0.0259  0.0961
 1604W        W 5348   9.352   1.208  12.211  0.2284  0.1170 -0.1847
 1605W        W 5349   0.644   3.853   1.906 -0.4340  0.1114  0.2175
 1606W        W 5350   1.586   8.595   3.290  0.1373  0.0839  0.5200
 1607W        W 5351   4.283   5.294   3.481  0.0763  0.0900  0.0395
 1608W        W 5352   4.177   4.072  11.970 -0.3173  0.2550 -0.0751
 1609W        W 5353   4.486   7.263   2.828 -0.0764  0.1256  0.1322
 1610W        W 5354   9.084   9.721  11.044 -0.2827  0.1495 -0.0441
 1611W        W 5355   0.374   0.337  12.238  0.2578  0.0204 -0.1020
 1612W        W 5356   7.533   1.615   1.293 -0.0452 -0.0094 -0.0429
 1613W        W 5357   8.323   9.169  12.509  0.2133  0.0144  0.1506
 1614W        W 5358   3.155   3.665  11.429 -0.1652  0.3188  0.4316
 1615W        W 5359   4.071   8.814   8.924 -0.0971  0.1664 -0.1760
 1616W        W 5360   9.734   3.392   1.856  0.1769  0.0644 -0.1266
 1617W        W 5361   3.588   9.120   1.476  0.0560  0.1359  0.1343
 1618W        W 5362   1.360   8.143  11.620 -0.2291  0.1656 -0.0422
 1619W        W 5363   7.879   1.958   0.047  0.0024 -0.2302 -0.0529
 1620W        W 5364   3.819   9.785   3.335  0.2038  0.0513 -0.0058
 1621W        W 5365   4.266   2.903   3.585  0.2753  0.2662 -0.0387
 1622W        W 5366   1.335   9.378  10.239  0.0848  0.2005  0.2192
 1623W        W 5367   5.304   1.365   3.295 -0.1728  0.2041 -0.0789
 1624W        W 5368   9.104   1.981   1.356  0.1085  0.2249 -0.1828
 1625W        W 5369   6.639   3.414   1.852  0.0497 -0.2740 -0.1864
 1626W        W 5370   1.618   9.405  11.885  0.0957  0.1515  0.0568
 1627W        W 5371   5.093   0.966   2.376  0.3684 -0.0608 -0.0664
 1628W        W 5372   7.783   2.031   1.511  0.2845 -0.2036  0.1056
 1629W        W 5373   9.861   8.903  10.253 -0.0189 -0.1554 -0.0340
 1630W        W 5374   4.155   7.049  10.774 -0.2215 -0.2398 -0.0326
 1631W        W 5375   8.449   3.733   0.627  0.1750  0.1336  0.0984
 1632W        W 5376   1.657   6.358  11.159 -0.1640  0.1168  0.3602
 1633W        W 5377   3.666   2.982  12.459  0.0690  0.3026  0.2562
 1634W        W 5378   5.337   9.639   4.032 -0.3484 -0.1356  0.0376
 1635W        W 5379   7.381   2.147  10.753  0.1209  0.2027 -0.1614
 1636W        W 5380   5.437   3.722   0.738  0.2011 -0.0147 -0.0525
 1637W        W 5381   8.844   0.403  12.228  0.3644  0.0892  0.0271
 1638W        W 5382   7.299   7.242   2.613  0.0736 -0.0258 -0.0949
 1639W        W 5383   5.330   9.349   3.292  0.0989  0.3944 -0.2042
 1640W        W 5384   2.300   3.696   2.827 -0.2681 -0.0854  0.0381
 1641W        W 5385   4.731   4.672  11.217  0.0241 -0.1058 -0.2132
 1642W        W 5386   7.423   5.205   1.488  0.1702  0.0113  0.1475
 1643W        W 5387   6.885   5.904   3.788 -0.1305  0.0782  0.2050
 1644W        W 5388   1.700   2.696   0.090 -0.1283 -0.1828  0.1440
 1645W        W 5389   9.785   2.297   2.045 -0.1036 -0.2973 -0.1636
 1646W        W 5390   9.054   8.741   3.220  0.2363 -0.0068 -0.0850
 1647W        W 5391   1.126   0.682  12.709 -0.2576 -0.0913  0.1728
 1648W        W 5392   8.312   1.759  10.591  0.0704 -0.0172 -0.1764
 1649W        W 5393   8.491   2.433   4.387 -0.1534  0.0492  0.1997
 1650W        W 5394   2.254   7.917  11.682  0.1166 -0.1833  0.1470
 1651W        W 5395   7.982   5.016  11.230 -0.1284 -0.1545 -0.0241
 1652W        W 5396   5.048   6.043  11.870 -0.3746  0.2604  0.1786
 1653W        W 5397   2.660   5.260   1.290  0.1156  0.0394  0.0918
 1654W        W 5398   7.034   4.692  11.312 -0.0056 -0.1069  0.3483
 1655W        W 5399   8.421   7.896   1.059 -0.2006  0.2213 -0.0735
 1656W        W 5400   7.721   7.051   2.820 -0.2453 -0.3866  0.0694
 1657W        W 5401   5.393   9.222   0.192  0.1639 -0.3316  0.1782
 1658W        W 5402   8.952   6.337  12.679 -0.2296  0.1709  0.1655
 1659W        W 5403   5.715   0.564   8.769 -0.1419  0.0915  0.1645
 1660W        W 5404   5.366   1.526  12.553  0.2595  0.1129  0.1092
 1661W        W 5405   4.411   1.279  11.104 -0.0530 -0.2425 -0.1729
 1662W        W 5406   8.895   2.450   9.738  0.0068  0.1633 -0.1134
 1663W        W 5407   6.946   2.629  10.135  0.0788 -0.3566 -0.0608
 1664W        W 5408   5.199   9.875   9.539  0.0604 -0.0587  0.1871
 1665W        W 5409   3.369   2.584  12.668  0.0731 -0.1364 -0.0506
 1666W        W 5410   5.861   0.867   9.149  0.2400 -0.0361 -0.1469
 1667W        W 5411   9.284   7.963   3.106 -0.1745  0.1585 -0.0779
 1668W        W 5412   3.560   6.302  12.023 -0.1562  0.2451  0.1190
 1669W        W 5413   8.282   2.372   0.199 -0.1867  0.0428 -0.3578
 1670W        W 5414   0.368   0.016   4.722  0.4000  0.0586  0.1349
 1671W        W 5415   4.165   5.234  11.425  0.1671 -0.5431  0.0485
 1672W        W 5416   4.750   1.020   1.093 -0.1256  0.0232  0.5585
 1673W        W 5417   8.565   5.225   2.012 -0.1264 -0.0563  0.1883
 1674W        W 5418   9.525   0.773   1.812 -0.0403  0.0865  0.2051
 1675W        W 5419   7.951   7.559   1.928 -0.1494 -0.0785  0.0741
 1676W        W 5420   3.918   7.412   3.018  0.0749 -0.3143  0.2576
 1677W        W 5421   7.959   1.576  10.252 -0.0565  0.1478  0.1513
 1678W        W 5422   6.267   2.745   8.799  0.1400 -0.0226  0.3387
 1679W        W 5423   9.618   3.765   0.144 -0.2929 -0.3284  0.1003
 1680W        W 5424   4.947   9.313  12.814 -0.1333 -0.2182 -0.2269
 1681W        W 5425   9.022   7.262  10.832  0.2470  0.0853 -0.1711
 1682W        W 5426   9.299   3.675   8.883  0.3911 -0.0214 -0.0079
 1683W        W 5427   5.250   5.102  10.394 -0.1690 -0.0309  0.0745
 1684W        W 5428   5.580   9.003   2.469  0.1766  0.3882 -0.1190
 1685W        W 5429   2.272   9.784   9.325  0.0028 -0.0731 -0.0788
 1686W        W 5430   0.256   1.933   3.635 -0.2075  0.0324  0.1066
 1687W        W 5431   7.878   7.201   1.423 -0.1371  0.1592 -0.3516
 1688W        W 5432   6.843   0.208   1.060 -0.3383  0.2207 -0.0343
 1689W        W 5433   0.780   5.732   2.561  0.2894  0.0123  0.4731
 1690W        W 5434   8.839   8.242   1.053  0.1159 -0.1272  0.1336
 1691W        W 5435   8.343   2.332   9.154  0.0618  0.0507 -0.0886
 1692W        W 5436   1.676   6.450  12.060  0.1437 -0.0979 -0.0439
 1693W        W 5437   5.522   6.410   0.267 -0.0499 -0.0835  0.0472
 1694W        W 5438   6.971   3.928   2.663  0.3073 -0.1291 -0.5004
 1695W        W 5439   5.940   7.417  11.574  0.1259  0.0407  0.4534
 1696W        W 5440   3.535   4.775   3.721  0.4200  0.1942  0.0552
 1697W        W 5441   6.246   2.578  10.213  0.2736 -0.3737 -0.0926
 1698W        W 5442   8.897   6.894   3.132 -0.2244  0.0780 -0.1815
 1699W        W 5443   5.528   0.693   0.056 -0.3529  0.2987  0.1121
 1700W        W 5444   0.577   7.375   4.434  0.0682  0.0285 -0.1617
 1701W        W 5445   8.551   1.039   3.008 -0.0070 -0.0739 -0.1185
 1702W        W 5446   5.992   9.347   9.478  0.0648  0.0201  0.1332
 1703W        W 5447   8.092   3.199   9.259 -0.3674 -0.0605  0.4869
 1704W        W 5448   3.129   1.204  10.744  0.0822  0.0341  0.0470
 1705W        W 5449   8.771   3.223  11.919  0.3956 -0.0047 -0.0165
 1706W        W 5450   8.744   3.531  10.090 -0.0301 -0.1247  0.1389
 1707W        W 5451   2.319   7.764   3.858 -0.1630  0.1765 -0.0521
 1708W        W 5452   8.471   6.274   2.240  0.2285 -0.0985  0.0940
 1709W        W 5453   9.173   9.505  12.845  0.2869  0.2069  0.1665
 1710W        W 5454   8.148   3.984  11.976 -0.0206 -0.1544 -0.0255
 1711W        W 5455   6.413   3.007   0.981 -0.3163  0.1814 -0.1041
 1712W        W 5456   7.618   6.242  12.602 -0.1338 -0.0495  0.1244
 1713W        W 5457   1.303   1.664   3.004  0.3159 -0.0373 -0.2303
 1714W        W 5458   1.403   4.814   8.969 -0.0446  0.0994  0.2036
 1715W        W 5459   9.010   4.806   3.634  0.0678 -0.0193 -0.2023
 1716W        W 5460   8.355   7.742   9.384  0.0190 -0.0255 -0.2789
 1717W        W 5461   6.923   0.176   3.376  0.1305  0.3624 -0.0266
 1718W        W 5462   4.502   3.658   0.959  0.1566 -0.2544  0.0636
 1719W        W 5463   1.324   4.781   3.263 -0.3410  0.0018  0.1390
 1720W        W 5464   3.139   2.993  12.401  0.0417  0.1185 -0.0107
 1721W        W 5465   3.263   8.647   3.372  0.0097  0.0058 -0.1397
 1722W        W 5466   4.951   0.284   9.193  0.0171  0.0618 -0.2762
 1723W        W 5467   9.394   5.095  12.309 -0.2212 -0.2770 -0.1582
 1724W        W 5468   8.389   6.796  12.619 -0.4546  0.2639  0.1584
 1725W        W 5469   4.980   6.165   9.451  0.3395 -0.1306  0.1737
 1726W        W 5470   9.063   8.320   8.255  0.0422 -0.0895 -0.2111
 1727W        W 5471   4.708   4.824   0.728 -0.1266 -0.0517 -0.0943
 1728W        W 5472   2.808   2.996   0.194 -0.1801 -0.1585 -0.3315
 1729W        W 5473   3.348   0.185   0.342 -0.1253  0.1233  0.1047
 1730W        W 5474   8.934   1.450   3.051 -0.2179  0.0526 -0.1517
 1731W        W 5475   1.993   4.030   2.957  0.0202  0.1957 -0.0585
 1732W        W 5476   2.332   4.383   0.328 -0.1627 -0.2841 -0.0614
 1733W        W 5477   2.824   9.667  11.123  0.0490  0.0939 -0.1089
 1734W        W 5478   8.525   0.933   8.430 -0.0778  0.3776 -0.0268
 1735W        W 5479   5.284   6.736   4.834 -0.1419 -0.2124  0.0714
 1736W        W 5480   5.595   1.930   9.951 -0.0888 -0.0758  0.1909
 1737W        W 5481   1.648   9.828  11.125  0.0046  0.0907 -0.1273
 1738W        W 5482   0.361   6.400  10.232  0.0299 -0.1323  0.0702
 1739W        W 5483   8.247   6.146   0.833  0.0709  0.2411  0.2053
 1740W        W 5484   0.749   8.054   9.434  0.0648  0.0827  0.0303
 1741W        W 5485   0.278   5.993   3.114 -0.0416 -0.3575  0.4186
 1742W        W 5486   6.775   9.833   8.341  0.0804  0.2331  0.1638
 1743W        W 5487   5.534   5.633  10.545 -0.0832 -0.0567 -0.5346
 1744W        W 5488   2.753   1.879  10.895 -0.1586  0.1530 -0.1325
 1745W        W 5489   7.196   7.375   9.733  0.0068  0.2442 -0.3171
 1746W        W 5490   5.123   2.510  12.806 -0.0098  0.0679 -0.3110
 1747W        W 5491   4.033   7.881   0.289  0.2426  0.1208  0.2661
 1748W        W 5492   5.950   1.129   9.588  0.2424 -0.0228  0.0112
 1749W        W 5493   7.488   8.704   9.198 -0.1328 -0.2296 -0.0137
 1750W        W 5494   9.197   6.184   9.658  0.1668 -0.0420  0.2200
 1751W        W 5495   7.046   8.851   3.949  0.1484 -0.3184 -0.1642
 1752W        W 5496   8.191   9.332  10.487  0.4892  0.4628  0.3155
 1753W        W 5497   6.648   4.382   1.968 -0.3045  0.1326 -0.2542
 1754W        W 5498   0.106   2.352   9.975  0.4328  0.1261  0.3030
 1755W        W 5499   8.645   6.410   0.427 -0.0653 -0.0007 -0.3702
 1756W        W 5500   3.823   1.573  11.222 -0.0657 -0.1342  0.2207
 1757W        W 5501   1.733   8.779   1.055  0.0289 -0.2328 -0.2761
 1758W        W 5502   4.499   8.422  10.528 -0.3315  0.3199  0.1314
 1759W        W 5503   5.876   6.479  10.810 -0.0423 -0.0409  0.2201
 1760W        W 5504   7.659   9.325   0.427  0.0257 -0.1638 -0.1658
 1761W        W 5505   3.358   7.487   8.714  0.1135  0.0140  0.1645
 1762W        W 5506   2.525   6.681  10.931  0.0287 -0.0564 -0.0146
 1763W        W 5507   3.881   7.906   3.137  0.1125  0.0449 -0.1961
 1764W        W 5508   5.927   5.906   2.310 -0.0796 -0.2235 -0.2434
 1765W        W 5509   1.298   4.516   1.669 -0.1986 -0.1698  0.2748
 1766W        W 5510   3.104   4.994  11.890 -0.3718  0.2339 -0.2376
 1767W        W 5511   3.055   8.318   0.727 -0.3682 -0.1262  0.1377
 1768W        W 5512   3.431   8.319   9.948 -0.1334 -0.0650  0.1028
 1769W        W 5513   4.093   1.700   1.529 -0.1012  0.0392 -0.0625
 1770W        W 5514   3.596   0.615   2.642 -0.4098 -0.0804  0.1420
 1771W        W 5515   1.469   7.088   4.419  0.2969  0.0287 -0.1006
 1772W        W 5516   9.474   7.639  12.657  0.0560 -0.0422 -0.1962
 1773W        W 5517   4.499   6.375   2.466 -0.0306 -0.0984 -0.0220
 1774W        W 5518   1.250   5.718  11.516 -0.0075 -0.0976 -0.0017
 1775W        W 5519   0.854   0.007  12.137  0.0444  0.0604  0.0717
 1776W        W 5520   0.901   7.569   8.321  0.2291 -0.2005 -0.1089
 1777W        W 5521   9.611   5.464  11.748  0.3958 -0.2324  0.1114
 1778W        W 5522   2.865   1.156   1.268 -0.0080 -0.0635  0.1553
 1779W        W 5523   1.032   7.703   1.453  0.2774 -0.0388  0.1007
 1780W        W 5524   8.385   3.211   8.810  0.1120 -0.0826 -0.0794
 1781W        W 5525   1.389   0.849   9.869 -0.1391 -0.0123  0.2990
 1782W        W 5526   0.469   3.907  12.224  0.0597  0.0775 -0.2659
 1783W        W 5527   7.647   2.915   9.148 -0.0735  0.0878  0.2171
 1784W        W 5528   7.101   6.479   8.926 -0.1480  0.1842  0.1353
 1785W        W 5529   6.874   6.764  10.782 -0.1080  0.0487  0.3258
 1786W        W 5530   8.991   9.609  10.553 -0.2221 -0.1304 -0.0373
 1787W        W 5531   2.065   8.074  10.266  0.0562  0.0870  0.1603
 1788W        W 5532   5.792   6.267   3.796 -0.3471 -0.2487  0.0291
 1789W        W 5533   3.805   6.105   1.762 -0.0767  0.0223  0.3444
 1790W        W 5534   9.786   5.486   2.480  0.0454 -0.1447  0.0053
 1791W        W 5535   8.518   7.602  12.243 -0.2858  0.0701  0.2607
 1792W        W 5536   5.185   8.133   4.494  0.2436 -0.3132 -0.2257
 1793W        W 5537   0.176   6.386   2.671 -0.2855  0.1503 -0.3265
 1794W        W 5538   2.352   6.636   0.910 -0.1754  0.1970 -0.0859
 1795W        W 5539   0.801   5.850  11.294 -0.2867  0.1126 -0.1691
 1796W        W 5540   1.345   9.751   0.239  0.2080 -0.0599  0.0423
 1797W        W 5541   8.658   8.566   0.043  0.2641  0.0244 -0.1830
 1798W        W 5542   7.462   8.560  11.284 -0.2147  0.0824 -0.0513
 1799W        W 5543   9.573   8.011   2.242 -0.1019 -0.0499 -0.2065
 1800W        W 5544   5.684   2.030   0.443  0.2226 -0.3443 -0.1143
 1801W        W 5545   6.699   6.360  11.153  0.0928 -0.0176 -0.1010
 1802W        W 5546   3.588   0.309  11.244  0.0862  0.2303 -0.0937
 1803W        W 5547   1.381   5.327  10.353  0.1462 -0.4116  0.1186
 1804W        W 5548   3.668   9.294   3.292  0.1384  0.1020  0.0809
 1805W        W 5549   9.826   5.877   4.370  0.1528  0.0483  0.1413
 1806W        W 5550   6.495   4.369   0.234 -0.0465 -0.0627 -0.2536
 1807W        W 5551   1.744   0.228   1.685 -0.3026 -0.1808 -0.0304
 1808W        W 5552   8.384   4.193   2.976 -0.1665  0.1912 -0.0004
 1809W        W 5553   6.768   9.798  10.482  0.0042  0.2025 -0.0598
 1810W        W 5554   0.645   8.194   0.519  0.1220 -0.1494  0.0572
 1811W        W 5555   8.074   1.012   1.892  0.0441  0.1152 -0.2006
 1812W        W 5556   2.030   2.436   8.976  0.1354 -0.2782  0.0115
 1813W        W 5557   0.924   1.577  11.833 -0.2329  0.5448  0.0651
 1814W        W 5558   0.868   2.285  12.666 -0.2148  0.1275  0.0414
 1815W        W 5559   2.954   2.215   2.847 -0.2321 -0.1351  0.0892
 1816W        W 5560   1.485   0.058   3.202 -0.3461 -0.1732 -0.1442
 1817W        W 5561   7.737   1.565   1.765  0.2477 -0.0581 -0.2197
 1818W        W 5562   6.850   9.596  12.075 -0.0320  0.2793 -0.3845
 1819W        W 5563   7.043   8.305  10.552  0.0856  0.0439 -0.5498
 1820W        W 5564   4.525   8.034   1.950  0.0882  0.0364 -0.0110
 1821W        W 5565   3.202   7.195   9.323 -0.0946  0.1180 -0.0413
 1822W        W 5566   0.034   8.773   9.226  0.0155  0.1617  0.1381
 1823W        W 5567   7.389   2.787   9.755  0.3436 -0.1339  0.0842
 1824W        W 5568   0.322   7.018  10.471 -0.0696  0.1582 -0.0112
 1825W        W 5569   5.420   7.793  12.477 -0.2043 -0.4156  0.0748
 1826W        W 5570   6.497   8.389   3.116  0.2214  0.2274 -0.2798
 1827W        W 5571   7.005   3.510   1.305  0.1189 -0.3229  0.1434
 1828W        W 5572   1.593   4.437   3.002  0.2216 -0.0290  0.2579
 1829W        W 5573   1.653   7.977  12.091  0.2054  0.3760 -0.0172
 1830W        W 5574   1.144   9.408   3.219  0.1022 -0.1974 -0.0501
 1831W        W 5575   1.028   3.561  12.005  0.0177 -0.0024  0.1433
 1832W        W 5576   6.892   7.726   0.758 -0.3006 -0.0323  0.1618
 1833W        W 5577   9.128   3.525   9.654 -0.0194  0.1950  0.0016
 1834W        W 5578   7.342   1.962   0.230  0.0640 -0.0846 -0.0009
 1835W        W 5579   7.938   4.529   1.677 -0.1063 -0.2713 -0.2745
 1836W        W 5580   7.175   0.469   3.739  0.1288  0.0312  0.1457
 1837W        W 5581   5.146   8.439   3.004 -0.0232 -0.1378 -0.1540
 1838W        W 5582   4.291   4.631  12.516 -0.0830 -0.2070  0.0434
 1839W        W 5583   2.458   6.176  10.794  0.0559  0.0418  0.1207
 1840W        W 5584   6.854   4.530   1.476 -0.0408  0.0240  0.2416
 1841W        W 5585   9.720   3.918  10.362  0.0734  0.0095 -0.2023
 1842W        W 5586   7.132   5.243  11.491  0.0482 -0.0869 -0.0007
 1843W        W 5587   2.671   1.981  11.467 -0.3025 -0.0797 -0.0120
 1844W        W 5588   2.029   2.484  10.706 -0.1477 -0.2845 -0.0321
 1845W        W 5589   8.029   2.053   3.071  0.3819  0.0070 -0.1249
 1846W        W 5590   8.766   5.418  11.339 -0.1654  0.0290 -0.2071
 1847W        W 5591   7.801   7.749   0.324 -0.1376  0.1381  0.0674
 1848W        W 5592   8.155   1.624   4.941 -0.1310  0.4187 -0.0339
 1849W        W 5593   4.359   4.556   0.321 -0.1532  0.1617  0.2643
 1850W        W 5594   6.773   6.188  10.463  0.0035  0.1798 -0.3447
 1851W        W 5595   1.667   0.240   8.808 -0.0605  0.0468 -0.2488
 1852W        W 5596   4.508   7.412   3.609 -0.0332 -0.4477  0.1196
 1853W        W 5597   8.852   1.118  12.942  0.0613  0.2664  0.0593
 1854W        W 5598   5.529   8.266  10.706 -0.0543 -0.0890 -0.1046
 1855W        W 5599   8.611   1.462  12.745 -0.2097  0.0464  0.0314
 1856W        W 5600   4.831   6.141   2.807 -0.2311  0.1536  0.1455
 1857W        W 5601   8.675   5.538   4.047 -0.1006 -0.0087  0.4875
 1858W        W 5602   5.832   0.521   1.411  0.0382 -0.1025 -0.1597
 1859W        W 5603   0.005   2.126  10.863  0.1324  0.0664  0.0646
 1860W        W 5604   5.382   9.304   0.749 -0.0285  0.0312  0.0298
 1861W        W 5605   6.014   1.203   0.788 -0.0693 -0.0577 -0.0611
 1862W        W 5606   3.788   2.720  10.380 -0.1435 -0.1487 -0.1783
 1863W        W 5607   5.755   8.398  10.166  0.2153 -0.0171  0.1195
 1864W        W 5608   6.106   4.398   1.121  0.1192  0.2630  0.0804
 1865W        W 5609   9.168   2.836  11.532 -0.1295  0.1303  0.2364
 1866W        W 5610   2.244   1.642   1.497  0.0477 -0.0436  0.0604
 1867W        W 5611   7.748   7.007  12.176  0.0159 -0.1578 -0.1907
 1868W        W 5612   3.082   6.031   0.939 -0.1256  0.4139 -0.1017
 1869W        W 5613   7.731   5.736   2.442  0.0542  0.3477 -0.1913
 1870W        W 5614   9.274   5.660   2.589 -0.0905 -0.0070  0.0312
 1871W        W 5615   1.815   5.089   3.561 -0.2146  0.3113 -0.1226
 1872W        W 5616   5.266   4.602  12.069 -0.0234  0.0429  0.1328
 1873W        W 5617   3.487   8.037   4.413  0.1801  0.2257 -0.0581
 1874W        W 5618   0.241   6.995  12.595 -0.1009 -0.0928  0.1623
 1875W        W 5619   8.698   1.115  10.115  0.0584 -0.0400  0.1099
 1876W        W 5620   6.924   3.168   2.181  0.1041  0.0259  0.1842
 1877W        W 5621   6.310   1.828  11.545  0.1470  0.1528 -0.1143
 1878W        W 5622   4.062   6.554   1.041  0.0100  0.1993  0.0913
 1879W        W 5623   2.068   4.047   1.938  0.0636 -0.0915  0.2447
 1880W        W 5624   3.689   1.186  11.863  0.3387  0.0174  0.0437
 1881W        W 5625   4.739   7.671   9.404  0.0091 -0.0773  0.1817
 1882W        W 5626   9.398   6.723   4.081  0.0384 -0.0142 -0.2440
 1883W        W 5627   4.088   8.565  12.867 -0.4344 -0.1850 -0.0551
 1884W        W 5628   0.716   6.484   9.325 -0.2187  0.0003  0.1240
 1885W        W 5629   4.001   9.622  12.361  0.1843 -0.1128 -0.0608
 1886W        W 5630   9.311   4.232  10.129  0.4014  0.1765 -0.1430
 1887W        W 5631   3.149   2.636   9.744  0.3772 -0.2373  0.1186
 1888W        W 5632   5.212   1.094   1.428 -0.2810  0.1549  0.1453
 1889W        W 5633   7.810   6.786   1.774 -0.0981  0.0178 -0.4223
 1890W        W 5634   8.702   3.760  12.735 -0.0394  0.0354  0.2665
 1891W        W 5635   6.431   5.088  11.927 -0.3062 -0.3282  0.0259
 1892W        W 5636   5.684   6.295   2.720  0.0867  0.0849  0.0948
 1893W        W 5637   9.146   1.173   3.504 -0.5770  0.1586 -0.3645
 1894W        W 5638   7.121   7.881   3.462 -0.2195 -0.0216 -0.1820
 1895W        W 5639   9.821   8.483   1.265  0.1898  0.2404  0.0043
 1896W        W 5640   2.220   9.304  11.842 -0.2280  0.6071  0.1795
 1897W        W 5641   0.660   0.263   3.237  0.0844 -0.0811  0.0260
 1898W        W 5642   7.707   3.905  12.209 -0.0998 -0.0615 -0.1492
 1899W        W 5643   2.202   1.595   1.012 -0.0444  0.1458 -0.0120
 1900W        W 5644   5.068   1.288  10.461  0.4559 -0.1461  0.2900
 1901W        W 5645   6.505   7.836   2.475  0.1881  0.0300 -0.0280
 1902W        W 5646   9.507   5.132   8.664 -0.0501  0.1420 -0.2359
 1903W        W 5647   3.731   0.196   9.223 -0.3081  0.0301 -0.0399
 1904W        W 5648   5.643   5.215   9.275 -0.0913 -0.2333 -0.1187
 1905W        W 5649   2.983   4.461  10.062 -0.1272  0.0886 -0.0226
 1906W        W 5650   0.008   8.748  12.450  0.3269  0.2166 -0.0982
 1907W        W 5651   3.707   1.934  10.894  0.0868 -0.2847 -0.1756
 1908W        W 5652   4.930   1.434  11.370  0.1335 -0.0037  0.4392
 1909W        W 5653   4.843   2.557  10.416 -0.0171  0.3826  0.1748
 1910W        W 5654   7.541   4.159   4.108 -0.2144 -0.1127  0.3387
 1911W        W 5655   8.934   1.007  12.433 -0.5492 -0.1635  0.2455
 1912W        W 5656   3.543   8.832  12.535 -0.0180  0.0870  0.1441
 1913W        W 5657   6.885   6.861   9.206 -0.0558 -0.0344  0.0923
 1914W        W 5658   3.705   6.183   9.847 -0.0477  0.1020  0.0785
 1915W        W 5659   6.881   7.211   3.884 -0.1111  0.0898 -0.0264
 1916W        W 5660   4.627   2.319  12.904 -0.1800  0.0955  0.0581
 1917W        W 5661   4.967   6.025   2.337 -0.2817  0.0334 -0.2318
 1918W        W 5662   5.817   2.174   1.399  0.1032 -0.0374  0.1225
 1919W        W 5663   8.594   7.559  11.316 -0.0620  0.0919 -0.1247
 1920W        W 5664   3.758   8.975   4.036  0.0781 -0.1349  0.2673
 1921W        W 5665   1.847   6.622   1.453  0.1535 -0.0890  0.0139
 1922W        W 5666   8.556   7.229  11.786 -0.2232 -0.0348  0.1992
 1923W        W 5667   7.556   8.296   8.940  0.0669 -0.0141 -0.0754
 1924W        W 5668   8.540   6.425   1.643 -0.2181  0.1248  0.3652
 1925W        W 5669   0.684   6.389   5.134 -0.0017 -0.0197  0.2233
 1926W        W 5670   7.919   7.716   9.651 -0.2306  0.2903  0.1089
 1927W        W 5671   1.521   7.492   8.990 -0.1867 -0.1535 -0.1150
 1928W        W 5672   2.082   3.080  10.933 -0.1335 -0.0633  0.2527
 1929W        W 5673   3.008   7.581   9.088  0.0340  0.3075 -0.0659
 1930W        W 5674   6.327   3.139  12.234  0.1639 -0.0175 -0.0289
 1931W        W 5675   1.610   0.802   0.653 -0.2998 -0.3803 -0.0678
 1932W        W 5676   5.480   2.138  12.849 -0.0002  0.1286  0.2651
 1933W        W 5677   8.309   4.042  11.013  0.0947  0.2122 -0.0718
 1934W        W 5678   3.225   2.654  10.733  0.2941  0.0196  0.0157
 1935W        W 5679   2.215   0.182  11.681 -0.1805  0.1171  0.2840
 1936W        W 5680   2.432   0.917   3.506  0.1082  0.0181 -0.0459
 1937W        W 5681   3.732   0.821   3.615 -0.3944  0.0268 -0.0432
 1938W        W 5682   5.440   6.695  11.172 -0.0492 -0.0481 -0.3800
 1939W        W 5683   5.762   7.209   9.727  0.0374  0.1959  0.1408
 1940W        W 5684   8.533   9.548  12.736  0.1352  0.0390 -0.1578
 1941W        W 5685   5.632   7.268   2.093 -0.1507  0.1721  0.0199
 1942W        W 5686   9.452   1.749   0.191  0.1416 -0.3969 -0.2044
 1943W        W 5687   7.404   3.296   9.614  0.0469 -0.0521 -0.1680
 1944W        W 5688   1.780   0.710   8.101 -0.4005 -0.3308 -0.0464
 1945W        W 5689   2.421   0.580   9.700  0.0492 -0.1044  0.0756
 1946W        W 5690   4.349   6.112  11.458 -0.0963 -0.1297 -0.3184
 1947W        W 5691   1.415   0.350   0.369  0.2698 -0.1892 -0.1292
 1948W        W 5692   3.711   0.347   3.426  0.1265 -0.0845 -0.1137
 1949W        W 5693   5.577   6.809  11.671 -0.1127 -0.1867 -0.1217
 1950W        W 5694   8.126   9.288   0.540  0.1771 -0.2729  0.2152
 1951W        W 5695   1.579   6.087   1.499  0.0325 -0.2683 -0.3660
 1952W        W 5696   5.955   7.030   9.123  0.3128 -0.0986 -0.1905
 1953W        W 5697   9.260   5.830   1.072 -0.1365 -0.1857  0.0187
 1954W        W 5698   5.036   3.275   1.919  0.0555 -0.1018 -0.0315
 1955W        W 5699   2.399   8.728   9.203 -0.1065  0.1695 -0.3262
 1956W        W 5700   4.173   0.870   0.487 -0.1999 -0.1096  0.1796
 1957W        W 5701   8.632   6.561   4.577  0.0696  0.0806 -0.0215
 1958W        W 5702   0.728   1.463   2.426  0.2043 -0.1005 -0.3497
 1959W        W 5703   9.859   6.868   1.009 -0.0766 -0.1023  0.2205
 1960W        W 5704   8.258   1.859   8.751 -0.0254  0.2220  0.0158
 1961W        W 5705   8.147   5.650   0.933 -0.0218 -0.0528 -0.0564
 1962W        W 5706   2.301   8.646   0.631 -0.1555  0.1531  0.0531
 1963W        W 5707   4.009   7.348   4.361 -0.0315 -0.0827 -0.0804
 1964W        W 5708   4.074   5.731   3.366  0.0324 -0.3806 -0.0959
 1965W        W 5709   9.265   0.377   3.017 -0.1778  0.2412 -0.1031
 1966W        W 5710   7.959   6.883   9.660  0.0173  0.1291  0.0890
 1967W        W 5711   8.065   5.265   2.492  0.1355 -0.0427 -0.0218
 1968W        W 5712   4.445   8.545   0.768 -0.0558 -0.1053 -0.1499
 1969W        W 5713   4.728   7.727   4.245  0.2097 -0.1108 -0.0603
 1970W        W 5714   1.792   9.222   9.998 -0.1107  0.0638 -0.2556
 1971W        W 5715   4.785   2.724   2.954 -0.0749 -0.0131  0.0754
 1972W        W 5716   5.498   9.501   9.707 -0.2873  0.0324  0.0509
 1973W        W 5717   8.440   9.675   8.710  0.2538 -0.0553  0.0154
 1974W        W 5718   2.079   7.508   1.630 -0.2014 -0.1949  0.0726
 1975W        W 5719   0.428   9.008   2.463  0.0661 -0.1019  0.2246
 1976W        W 5720   9.808   8.010   2.752 -0.1484  0.1553 -0.0664
 1977W        W 5721   1.092   6.719   9.989 -0.0243 -0.1254 -0.1500
 1978W        W 5722   1.915   0.673   8.953  0.2876  0.0844 -0.1661
 1979W        W 5723   7.493   7.791   0.746  0.0047  0.1738  0.3066
 1980W        W 5724   6.157   2.008   2.335 -0.2044 -0.0806  0.3506
 1981W        W 5725   9.257   4.116   1.414 -0.0439 -0.1311 -0.1716
 1982W        W 5726   9.724   0.337   3.282 -0.3834 -0.2644  0.0006
 1983W        W 5727   1.728   5.695   9.929  0.2779  0.2477 -0.2609
 1984W        W 5728   3.850   2.356   3.847  0.1078 -0.0605  0.4168
 1985W        W 5729   3.322   2.770   3.132 -0.3841  0.1470  0.1021
 1986W        W 5730   9.421   8.974   1.955  0.3019  0.0669 -0.2432
 1987W        W 5731   1.100   4.713  11.205 -0.0927 -0.0293 -0.0462
 1988W        W 5732   3.819   2.606   3.391  0.1196  0.0112  0.1202
 1989W        W 5733   0.511   2.230  12.025  0.1261  0.0753  0.0162
 1990W        W 5734   9.814   9.570   4.693  0.2799  0.2047  0.1020
 1991W        W 5735   3.291   8.161  11.979  0.2276  0.1986  0.0790
 1992W        W 5736   1.854   7.721  10.706 -0.2912 -0.3801  0.1387
 1993W        W 5737   9.290   4.095  10.639  0.1014 -0.0373 -0.2464
 1994W        W 5738   9.435   7.330   1.714 -0.0954  0.0895 -0.5274
 1995W        W 5739   2.320   1.924   2.790 -0.1388 -0.0139  0.0291
 1996W        W 5740   7.219   9.658   0.873  0.0768 -0.0193 -0.3324
 1997W        W 5741   0.375   7.272   9.027 -0.0751  0.0266 -0.0737
 1998W        W 5742   3.317   0.850   0.175 -0.1319 -0.1509 -0.0163
 1999W        W 5743   4.309   7.992   1.143 -0.0777 -0.0521 -0.2179
 2000W        W 5744   4.844   6.134  10.130 -0.0516 -0.0113 -0.1909
 2001W        W 5745   2.934   7.299   3.451  0.1750 -0.1073  0.1297
 2002W        W 5746   4.128   9.355   0.175  0.2084 -0.0063  0.2316
 2003W        W 5747   4.103   8.482  11.412 -0.1628  0.2065  0.3274
 2004W        W 5748   4.697   5.215   1.192 -0.0393  0.0347 -0.0029
 2005W        W 5749   5.280   0.302  10.529  0.0099  0.0718 -0.0880
 2006W        W 5750   0.949   1.898   2.171 -0.0734 -0.0363  0.1151
 2007W        W 5751   5.749   3.941   1.113  0.2422  0.2683  0.2302
 2008W        W 5752   8.820   9.087  12.740  0.1210 -0.1449 -0.1765
 2009W        W 5753   6.009   7.394  12.355  0.0958 -0.5098  0.3102
 2010W        W 5754   3.098   0.563   2.776  0.0737  0.0108  0.2007
 2011W        W 5755   5.098   9.733  10.559 -0.0414  0.0727  0.1323
 2012W        W 5756   8.069   2.694  10.601  0.0658 -0.0345 -0.1657
 2013W        W 5757   6.109   3.714  11.537  0.2255 -0.0620  0.1919
 2014W        W 5758   5.605   5.797   3.156 -0.0031  0.0018 -0.1333
 2015W        W 5759   2.675   3.982   1.334  0.0866 -0.0948 -0.3064
 2016W        W 5760   7.428   6.498  10.125  0.3430 -0.2252  0.1234
 2017W        W 5761   5.104   0.768  10.507 -0.0663  0.0817  0.0783
 2018W        W 5762   9.143   6.537   0.655  0.2135 -0.0945  0.2243
 2019W        W 5763   1.206   1.967   0.023  0.0733  0.1154  0.1124
 2020W        W 5764   1.695   9.168   9.433 -0.1192  0.2538  0.1627
 2021W        W 5765   6.008   6.356   9.367 -0.1178 -0.1013 -0.1169
 2022W        W 5766   2.939   3.324  12.809 -0.0741 -0.3151  0.0425
 2023W        W 5767   3.467   3.359  12.685  0.0567  0.0581 -0.1352
 2024W        W 5768   4.810   8.875  11.703  0.2335  0.1756 -0.0407
 2025W        W 5769   9.272   4.570   4.720 -0.2313  0.0660  0.0901
 2026W        W 5770   3.697   6.305  11.063 -0.1092  0.3406 -0.1242
 2027W        W 5771   8.649   5.048   1.039 -0.3438 -0.3491 -0.4698
 2028W        W 5772   3.452   1.367  11.469 -0.0762  0.4226 -0.0688
 2029W        W 5773   0.368   5.494  11.339 -0.0698 -0.2819 -0.2463
 2030W        W 5774   0.248   8.263  12.554 -0.0118 -0.4824 -0.1525
 2031W        W 5775   0.139   9.753   0.785  0.0953  0.1925  0.0192
 2032W        W 5776   8.889   9.500   2.858 -0.0593 -0.1270  0.0328
 2033W        W 5777   1.121   7.574   3.500 -0.0687  0.2716 -0.0811
 2034W        W 5778   0.577   2.124   1.866  0.0166  0.0390  0.1209
 2035W        W 5779   7.686   0.086   9.497 -0.1029  0.1455 -0.2084
 2036W        W 5780   4.364   9.036   1.069 -0.0037  0.2008 -0.0154
 2037W        W 5781   5.663   6.284  12.677  0.2957  0.0788  0.0018
 2038W        W 5782   2.006   8.809   4.290 -0.1335 -0.1299  0.0564
 2039W        W 5783   5.597   2.681   3.420 -0.0395  0.2999 -0.3197
 2040W        W 5784   3.268   6.395   2.541  0.1181  0.0436 -0.0172
 2041W        W 5785   9.729   1.185   9.333  0.2119 -0.0364 -0.2163
 2042W        W 5786   7.088   0.097  12.368  0.0599 -0.0597 -0.0856
 2043W        W 5787   3.218   4.231   2.477 -0.0981  0.2140  0.2498
 2044W        W 5788   4.374   2.359  12.136 -0.0187  0.0378 -0.1368
 2045W        W 5789   5.454   7.164  12.488 -0.0508 -0.2810  0.0544
 2046W        W 5790   2.667   5.401  11.921  0.0206 -0.1496 -0.3480
 2047W        W 5791   7.537   0.927  12.761  0.0358 -0.2886  0.0589
 2048W        W 5792   4.872   4.986   2.702  0.1532 -0.0872  0.3201
 2049W        W 5793   7.967   1.670   1.057  0.1463 -0.1117 -0.3769
 2050W        W 5794   6.544   9.843   2.005  0.2157  0.2107  0.1846
 2051W        W 5795   4.150   1.732  10.702  0.1739 -0.1012 -0.0786
 2052W        W 5796   8.169   2.311   8.574 -0.0256 -0.2191 -0.3242
 2053W        W 5797   4.901   4.584  11.803  0.2161 -0.1317  0.1672
 2054W        W 5798   8.840   9.028   2.653 -0.0329 -0.2030  0.1883
 2055W        W 5799   8.476   3.538   3.695 -0.0509 -0.0849  0.1469
 2056W        W 5800   8.433   2.373   2.935 -0.3751 -0.0249  0.2120
 2057W        W 5801   4.184   3.716   2.781  0.2745 -0.1656 -0.1620
 2058W        W 5802   2.297   0.684   0.689 -0.0927 -0.0957 -0.1598
 2059W        W 5803   4.690   6.390  11.662 -0.1231 -0.1556  0.3219
 2060W        W 5804   2.294   7.499   9.646 -0.0017 -0.3454  0.1113
 2061W        W 5805   7.108   2.442   2.732 -0.0342  0.0516  0.1605
 2062W        W 5806   9.349   2.001  10.942 -0.2857 -0.0664  0.0136
 2063W        W 5807   7.627   5.754   8.418 -0.0430  0.0602  0.2148
 2064W        W 5808   6.911   6.055   2.294  0.0413 -0.1651  0.0167
 2065W        W 5809   8.123   7.460   0.096 -0.0434 -0.4867  0.2382
 2066W        W 5810   9.405   0.833   9.493  0.1236  0.0005 -0.1873
 2067W        W 5811   2.813   1.262   3.367 -0.0916 -0.0367 -0.0172
 2068W        W 5812   2.727   5.905   1.274  0.0732  0.4845 -0.1422
 2069W        W 5813   7.134   1.066   8.728  0.0129 -0.0269 -0.0976
 2070W        W 5814   4.689   8.489   2.269  0.0924 -0.1985  0.2147
 2071W        W 5815   4.307   1.154   9.288 -0.1307 -0.1193 -0.1122
 2072W        W 5816   2.467   7.845   1.647  0.1641 -0.1636  0.5106
 2073W        W 5817   0.635   8.170   5.195  0.0314  0.3518 -0.2139
 2074W        W 5818   5.304   2.812   0.486 -0.0209 -0.0261 -0.1246
 2075W        W 5819   4.951   9.175   0.410  0.1242  0.2702 -0.0048
 2076W        W 5820   2.574   5.124  11.181  0.0777 -0.0426  0.2552
 2077W        W 5821   2.333   8.442  11.903  0.0150  0.2116  0.1784
 2078W        W 5822   4.604   1.416   1.348 -0.4359 -0.1776 -0.2378
 2079W        W 5823   7.671   7.283  11.493 -0.2564  0.0091  0.3030
 2080W        W 5824   4.865   4.787   0.155  0.0137  0.1265 -0.1625
 2081W        W 5825   6.102   6.186   0.892 -0.3826  0.0856  0.1233
 2082W        W 5826   2.668   9.670  10.161  0.0244 -0.1571 -0.1217
 2083W        W 5827   0.185   8.868  10.968  0.0409  0.1256  0.0966
 2084W        W 5828   4.603   5.165  11.188  0.0078  0.2582  0.2641
 2085W        W 5829   9.274   9.167   0.788 -0.0021  0.3141  0.1291
 2086W        W 5830   6.281   9.478   3.175 -0.2244 -0.2401 -0.1474
 2087W        W 5831   0.053   5.431   9.125 -0.0381  0.1469  0.1026
 2088W        W 5832   8.438   9.544  11.356  0.1066  0.1592 -0.1980
 2089W        W 5833   8.075   7.449   4.030  0.1471 -0.1174  0.0821
 2090W        W 5834   5.558   9.801   3.597  0.2389  0.1292 -0.3681
 2091W        W 5835   9.231   6.047   2.924 -0.1396  0.2462  0.1703
 2092W        W 5836   2.796   5.780   0.355 -0.2600 -0.0206  0.2280
 2093W        W 5837   0.519   0.156   0.577 -0.0123 -0.0466  0.2961
 2094W        W 5838   1.634   8.684   2.517  0.5619 -0.2418  0.1225
 2095W        W 5839   7.217   2.494  11.081  0.2080  0.5231 -0.1886
 2096W        W 5840   1.294   8.066  10.752 -0.0309 -0.1126 -0.1009
 2097W        W 5841   3.452   6.999   2.411 -0.2818  0.2180  0.3034
 2098W        W 5842   6.904   6.460  12.108  0.0775 -0.2012 -0.0100
 2099W        W 5843   0.698   4.090  10.927  0.1507 -0.0797 -0.2014
 2100W        W 5844   0.773   8.061  10.886  0.0660 -0.2138 -0.2771
 2101W        W 5845   7.873   3.933   1.626  0.2202 -0.3980  0.1634
 2102W        W 5846   3.483   3.296   1.708  0.2799  0.2388 -0.1968
 2103W        W 5847   3.548   0.021   9.691 -0.0193  0.0673 -0.0915
 2104W        W 5848   2.229   3.363   1.481  0.4319 -0.1137 -0.0274
 2105W        W 5849   4.125   7.596  12.131 -0.2469  0.1898 -0.1219
 2106W        W 5850   3.567   6.832   1.105  0.2027 -0.0419 -0.1270
 2107W        W 5851   6.251   1.078   3.402 -0.0432 -0.1326  0.1137
 2108W        W 5852   6.219   3.463   2.165 -0.1160 -0.2618 -0.0936
 2109W        W 5853   8.230   7.223  12.298 -0.0163 -0.0602 -0.2252
 2110W        W 5854   8.162   3.983   9.607  0.0864  0.2672 -0.3469
 2111W        W 5855   6.560   8.808  11.591  0.2377 -0.0910  0.1697
 2112W        W 5856   6.441   2.302  12.875  0.0355 -0.1707 -0.0337
 2113W        W 5857   8.770   3.948  12.279 -0.0925 -0.1399 -0.2441
 2114W        W 5858   8.360   0.342   1.232 -0.1716  0.0217  0.1307
 2115W        W 5859   7.052   8.919  11.927 -0.3897  0.0643 -0.1006
 2116W        W 5860   3.785   5.723   0.892 -0.0838 -0.0419 -0.2360
 2117W        W 5861   3.981   9.487   8.627 -0.0849  0.3879 -0.1327
 2118W        W 5862   7.987   2.245   4.280  0.0574 -0.3983 -0.1268
 2119W        W 5863   9.473   9.452  11.325  0.2635 -0.0299  0.0257
 2120W        W 5864   2.571   5.058   3.817 -0.1701 -0.0122  0.0438
 2121W        W 5865   7.311   5.923   0.384 -0.0769 -0.0871 -0.4420
 2122W        W 5866   0.197   0.528   4.043  0.0526 -0.1165  0.1035
 2123W        W 5867   0.471   7.074   3.342 -0.0005  0.0026 -0.3159
 2124W        W 5868   4.956   7.286  11.618  0.1989 -0.2058 -0.0770
 2125W        W 5869   2.246   1.543  10.409  0.0176  0.1122  0.0200
 2126W        W 5870   4.128   5.182  10.848  0.1845  0.2248 -0.0371
 2127W        W 5871   3.094   9.289   2.592 -0.2462 -0.0208 -0.0908
 2128W        W 5872   9.597   0.482   9.807 -0.1842  0.0806 -0.2654
 2129W        W 5873   6.859   8.145   2.256  0.2018 -0.2003  0.0328
 2130W        W 5874   5.437   1.652   0.067  0.0606 -0.0575 -0.3701
 2131W        W 5875   2.582   0.442   3.565 -0.1150  0.4636 -0.0470
 2132W        W 5876   8.094   6.386  12.761  0.0056  0.2114 -0.0201
 2133W        W 5877   7.342   6.760   2.674  0.2458  0.0715 -0.0407
 2134W        W 5878   8.727   8.596  11.908 -0.1667 -0.0315  0.0935
 2135W        W 5879   2.139   0.300  12.182 -0.0771 -0.0439 -0.0856
 2136W        W 5880   6.366   9.457  12.907 -0.0332 -0.0495 -0.0383
 2137W        W 5881   0.993   5.196   2.973 -0.0065 -0.1669  0.2167
 2138W        W 5882   8.272   3.307   9.836  0.0275  0.0603  0.3744
 2139W        W 5883   4.660   0.354   8.685  0.2013 -0.3197  0.2705
 2140W        W 5884   9.821   2.621   4.092  0.3782 -0.2265  0.0989
 2141W        W 5885   8.211   7.697  12.622 -0.3757  0.2632 -0.0554
 2142W        W 5886   8.963   4.238  11.366 -0.0282 -0.2748  0.0145
 2143W        W 5887   6.027   0.716  10.510  0.0374  0.4482 -0.0389
 2144W        W 5888   8.473   0.281   1.728 -0.0589 -0.1651 -0.0281
 2145W        W 5889   8.720   7.459   9.764  0.1110  0.1110  0.0635
 2146W        W 5890   5.423   9.196   2.013 -0.0004 -0.3441 -0.0167
 2147W        W 5891   3.477   3.341  12.165  0.0233  0.0326 -0.2577
 2148W        W 5892   2.275   2.346  11.551  0.0872 -0.4138  0.1996
 2149W        W 5893   5.024   1.313   0.191  0.1973 -0.0049 -0.1735
 2150W        W 5894   1.947   0.419   4.111 -0.0010  0.3733  0.0717
 2151W        W 5895   2.593   4.046   0.564  0.3556 -0.0578  0.0401
 2152W        W 5896   6.372   4.990   8.745  0.1456 -0.4378 -0.1621
 2153W        W 5897   6.239   1.429  11.247  0.3210  0.0934  0.0366
 2154W        W 5898   7.905   6.038   2.862  0.2843  0.1587 -0.2206
 2155W        W 5899   7.327   4.869  12.229  0.2190 -0.0635 -0.2356
 2156W        W 5900   5.225   2.817   2.663  0.0612  0.0196 -0.1780
 2157W        W 5901   8.837   0.544   8.364 -0.4584  0.1621 -0.0630
 2158W        W 5902   9.409   4.937   0.794  0.1638 -0.2453 -0.1689
 2159W        W 5903   3.614   2.445   2.321  0.1553 -0.0275  0.2308
 2160W        W 5904   2.828   0.721   3.229  0.1505 -0.0826  0.0462
 2161W        W 5905   3.506   0.512   0.922  0.2381 -0.1180  0.0245
 2162W        W 5906   0.263   3.920   3.548 -0.2276 -0.1667 -0.0632
 2163W        W 5907   6.121   7.794   0.191 -0.4094  0.2879  0.4885
 2164W        W 5908   6.285   8.735  10.393 -0.1480 -0.2193 -0.1442
 2165W        W 5909   9.387   8.250   2.697 -0.0546 -0.0935  0.3748
 2166W        W 5910   1.703   2.167   1.238  0.0505  0.1110 -0.1264
 2167W        W 5911   6.903   4.996   9.399  0.2193 -0.1243 -0.3146
 2168W        W 5912   0.267   1.406   2.824  0.0923  0.0039  0.3326
 2169W        W 5913   2.118   0.811   1.710  0.2002  0.0384  0.0821
 2170W        W 5914   8.291   1.378   9.315  0.0718 -0.2989  0.0791
 2171W        W 5915   6.681   9.769   0.144 -0.2040 -0.1339  0.0442
 2172W        W 5916   1.680   9.803   0.604  0.2897 -0.0945 -0.3019
 2173W        W 5917   8.573   3.200   2.594  0.0415 -0.3889  0.1085
 2174W        W 5918   7.049   7.589  12.864  0.2312  0.2595  0.2827
 2175W        W 5919   4.250   0.722  12.435  0.1778  0.1410 -0.3681
 2176W        W 5920   0.706   2.527   9.843  0.0217 -0.4696 -0.0793
 2177W        W 5921   0.074   6.986   3.785  0.1384 -0.0332  0.1929
 2178W        W 5922   9.070   9.491  10.050 -0.1590 -0.0892 -0.0969
 2179W        W 5923   2.799   3.543   0.627 -0.1489 -0.1259  0.1882
 2180W        W 5924   0.863   1.972   0.880  0.0120 -0.0143 -0.1300
 2181W        W 5925   9.558   0.016   8.009  0.2097 -0.3916 -0.1702
 2182W        W 5926   1.051   5.541  12.865 -0.0884  0.4037 -0.0832
 2183W        W 5927   8.478   8.629   4.677  0.0531 -0.2689 -0.3345
 2184W        W 5928   8.894   4.262   1.757  0.1089  0.4819 -0.0501
 2185W        W 5929   7.217   8.163   0.575 -0.0782 -0.0285  0.2000
 2186W        W 5930   2.619   7.969  11.190  0.1447 -0.1668  0.1465
 2187W        W 5931   2.707   7.430  11.099 -0.0825  0.1354 -0.2614
 2188W        W 5932   1.125   4.735   2.192 -0.0738 -0.0136 -0.2228
 2189W        W 5933   8.110   7.385  11.845 -0.1683 -0.1348 -0.0772
 2190W        W 5934   6.386   9.527  12.244 -0.2232 -0.0984 -0.0618
 2191W        W 5935   0.786   0.040  11.539 -0.1620  0.0687  0.0364
 2192W        W 5936   1.281   0.099  11.812  0.2938 -0.0268 -0.2298
 2193W        W 5937   6.392   6.479  11.589  0.2108  0.1321  0.0267
 2194W        W 5938   9.720   4.998  11.744 -0.0510 -0.0168  0.0869
 2195W        W 5939   7.728   4.709   9.750 -0.1059  0.0977 -0.0769
 2196W        W 5940   7.162   6.782   3.825  0.0079  0.0537  0.0715
 2197W        W 5941   8.488   6.877   3.515 -0.1058 -0.0852  0.2575
 2198W        W 5942   7.585   6.820   4.635  0.2875  0.0480  0.0547
 2199W        W 5943   5.844   2.546  10.616 -0.5783 -0.0355 -0.1780
 2200W        W 5944   8.999   1.040   0.890  0.0934 -0.0477  0.0798
 2201W        W 5945   8.801   7.715   2.021 -0.1251 -0.1155 -0.0973
 2202W        W 5946   0.811   2.467   4.348 -0.1822 -0.0953 -0.1829
 2203W        W 5947   9.590   5.715   9.962  0.2008  0.1517 -0.1190
 2204W        W 5948   5.106   4.234  10.211 -0.1262 -0.0105  0.0444
 2205W        W 5949   7.886   2.799   1.873  0.1644 -0.0684 -0.0042
 2206W        W 5950   0.340   4.603   0.323  0.3524 -0.0413  0.1098
 2207W        W 5951   0.334   2.386   2.228  0.0495 -0.0499 -0.2145
 2208W        W 5952   3.528   4.764  10.918  0.2834 -0.0895 -0.0998
 2209W        W 5953   6.550   5.285   1.259 -0.1139  0.1587  0.2841
 2210W        W 5954   0.103   0.063   4.320 -0.0461  0.0148  0.2223
 2211W        W 5955   0.959   9.164   9.903 -0.0855 -0.2115  0.2092
 2212W        W 5956   4.747   0.812  12.424  0.1765 -0.0009 -0.1795
 2213W        W 5957   5.020   0.760   9.461 -0.1897  0.2091 -0.1102
 2214W        W 5958   1.094   1.629   1.736  0.0593  0.4009  0.2986
 2215W        W 5959   3.166   5.987  12.241 -0.2789 -0.0128  0.2139
 2216W        W 5960   8.287   8.392   0.963  0.2743  0.1377  0.3924
 2217W        W 5961   1.059   5.323   2.542  0.0905  0.0530  0.0688
 2218W        W 5962   8.311   8.392   3.766 -0.1300 -0.1459  0.0834
 2219W        W 5963   0.215   3.097   3.356  0.1745  0.0504  0.0273
 2220W        W 5964   7.240   1.719   3.875 -0.0801 -0.2005 -0.2166
 2221W        W 5965   5.419   9.535  11.885 -0.1599  0.1739  0.1968
 2222W        W 5966   7.628   4.924   8.012  0.0294 -0.0199 -0.0969
 2223W        W 5967   5.166   8.706   9.428 -0.4255  0.0599  0.1159
 2224W        W 5968   7.579   6.972  10.007 -0.3032 -0.1943 -0.0344
 2225W        W 5969   7.919   8.399  11.777  0.0498  0.0888  0.0279
 2226W        W 5970   1.417   9.424   9.752  0.2737 -0.3147  0.3763
 2227W        W 5971   6.408   6.344  12.088 -0.1422 -0.4459 -0.1577
 2228W        W 5972   7.853   8.405  10.994  0.0133  0.0178  0.0882
 2229W        W 5973   9.460   2.831   2.817 -0.1727 -0.1848 -0.1213
 2230W        W 5974   7.702   1.871   8.815 -0.2124 -0.2067  0.3523
 2231W        W 5975   2.492   0.636  10.859 -0.3627 -0.0213 -0.1270
 2232W        W 5976   1.512   0.356   4.336  0.0389  0.0613  0.1340
 2233W        W 5977   7.415   4.405   0.177  0.2908  0.0449 -0.2133
 2234W        W 5978   2.289   3.615   0.523  0.1379 -0.2626 -0.2285
 2235W        W 5979   2.820   9.464   3.259  0.1348 -0.3043  0.0287
 2236W        W 5980   4.613   8.130   9.106 -0.2695  0.3033 -0.1364
 2237W        W 5981   4.589   4.565   2.974  0.0289  0.0419  0.1212
 2238W        W 5982   7.244   1.226   4.352  0.0376  0.5800  0.0170
 2239W        W 5983   0.504   8.715  12.330  0.0066  0.1756 -0.0421
 2240W        W 5984   2.154   8.530   5.014  0.0867 -0.1120  0.0693
 2241W        W 5985   5.449   4.832   1.479  0.2821  0.0248  0.1756
 2242W        W 5986   2.961   0.307  12.637 -0.0299  0.0443 -0.0109
 2243W        W 5987   9.873   3.954   0.580 -0.2574 -0.5615 -0.3173
 2244W        W 5988   7.462   0.750   2.798 -0.2616  0.0824 -0.0262
 2245W        W 5989   2.954   3.200  11.343  0.1212  0.0682  0.1478
 2246W        W 5990   5.747   3.856  11.161  0.3519  0.3863  0.1146
 2247W        W 5991   8.047   1.885   9.191  0.1118 -0.0653  0.1121
 2248W        W 5992   9.536   4.883   3.371  0.0860 -0.1430  0.2535
 2249W        W 5993   2.847   5.150   1.821  0.1003  0.0107  0.1199
 2250W        W 5994   8.463   1.567   1.152  0.1377 -0.0444 -0.0789
 2251W        W 5995   9.706   7.924   8.617 -0.1874 -0.2034  0.1100
 2252W        W 5996   4.021   9.252   3.703  0.1295  0.0324  0.3874
 2253W        W 5997   2.896   1.258   0.725  0.1671 -0.3169  0.2015
 2254W        W 5998   2.871   8.901   1.232 -0.3290  0.1539 -0.2948
 2255W        W 5999   0.121   9.836   0.275 -0.0101 -0.2072  0.1178
 2256W        W 6000   1.556   0.990  11.577 -0.2352  0.1725  0.1818
 2257W        W 6001   5.554   0.439   4.275  0.1271 -0.3879 -0.2264
 2258W        W 6002   6.283   9.317   3.691  0.4577  0.0244  0.1783
 2259W        W 6003   0.959   3.725   8.031 -0.1076 -0.1706 -0.1221
 2260W        W 6004   7.895   1.625   2.767  0.2199  0.4685 -0.1077
 2261W        W 6005   9.426   8.770   0.494  0.0034 -0.0031 -0.3934
 2262W        W 6006   2.773   6.962   3.764  0.2051  0.0601  0.1693
 2263W        W 6007   3.843   4.734   1.980 -0.1794  0.0386  0.2587
 2264W        W 6008   8.143   5.167   4.352 -0.3488 -0.1185  0.3541
 2265W        W 6009   8.791   3.482   2.193  0.1814  0.1429  0.1326
 2266W        W 6010   3.652   2.976  10.891  0.1596  0.1992  0.0277
 2267W        W 6011   0.645   7.875   2.798  0.1525  0.1191 -0.2750
 2268W        W 6012   1.926   5.044   2.418 -0.1776  0.1548  0.0881
 2269W        W 6013   7.666   5.604   0.253  0.0791  0.1256  0.0548
 2270W        W 6014   1.597   2.189   2.609 -0.1436 -0.0452 -0.1917
 2271W        W 6015   1.612   0.617   9.412 -0.0741  0.1393 -0.2773
 2272W        W 6016   1.809   4.920  12.274  0.1815  0.1393 -0.0161
 2273W        W 6017   3.674   7.689  11.063  0.2520 -0.0077 -0.2463
 2274W        W 6018   0.411   6.877   9.408  0.3524  0.1100 -0.0068
 2275W        W 6019   8.933   7.079  10.309  0.0051 -0.2884 -0.0070
 2276W        W 6020   2.052   2.107  10.372  0.0395 -0.2252 -0.0769
 2277W        W 6021   3.190   9.721  12.312  0.2541 -0.1118 -0.0637
 2278W        W 6022   7.551   2.428   2.357  0.1723 -0.1473  0.2222
 2279W        W 6023   0.336   4.446   8.903 -0.2041 -0.1850 -0.1577
 2280W        W 6024   0.542   9.808  12.586 -0.1995  0.1214  0.0438
 2281W        W 6025   6.742   9.229   3.730 -0.3924  0.1024  0.1813
 2282W        W 6026   3.511   7.484   9.154 -0.0676 -0.4227  0.0886
 2283W        W 6027   6.944   6.549  11.586 -0.0241  0.2185  0.0893
 2284W        W 6028   2.576   2.428   9.068  0.3192  0.2875  0.2142
 2285W        W 6029   1.712   8.749   9.665 -0.1259  0.2852 -0.1033
 2286W        W 6030   7.964   9.148   8.029  0.1311 -0.1275 -0.1463
 2287W        W 6031   3.680   4.223   1.666  0.0941  0.0378 -0.0039
 2288W        W 6032   1.400   6.187   0.437 -0.1582 -0.0443  0.1241
 2289W        W 6033   5.334   6.337   0.699 -0.1608 -0.1736 -0.2843
 2290W        W 6034   9.617   1.285   3.615 -0.1925  0.2124 -0.1556
 2291W        W 6035   1.676   6.938   9.790 -0.0519 -0.0465  0.1058
 2292W        W 6036   6.485   7.530   2.002 -0.5359 -0.2548  0.0879
 2293W        W 6037   7.530   8.503   3.093  0.1262 -0.3966  0.0264
 2294W        W 6038   7.723   9.540  11.339 -0.0627  0.1026  0.2329
 2295W        W 6039   1.785   3.452  11.213  0.0932  0.2806 -0.1664
 2296W        W 6040   4.282   0.055   2.491 -0.0389 -0.1039  0.1894
 2297W        W 6041   5.951   4.070  12.300 -0.0030  0.2062 -0.3595
 2298W        W 6042   2.791   6.821   4.314 -0.0773 -0.0262 -0.1756
 2299W        W 6043   9.338   1.392   9.745 -0.2363 -0.1167  0.0448
 2300W        W 6044   1.859   2.362  12.559  0.0559 -0.2359 -0.0717
 2301W        W 6045   1.010   7.565  11.736  0.0244  0.1331  0.3283
 2302W        W 6046   5.143   6.518   9.796  0.0871 -0.1171  0.0525
 2303W        W 6047   0.871   0.117   1.486  0.1774 -0.1671 -0.0740
 2304W        W 6048   6.413   7.459   3.766 -0.0732  0.3151 -0.3221
 2305W        W 6049   8.543   3.344  11.461 -0.4072 -0.0336  0.0594
 2306W        W 6050   3.557   9.484   2.735 -0.0306  0.2906  0.0707
 2307W        W 6051   6.763   3.742  10.735  0.2414  0.0353 -0.1142
 2308W        W 6052   4.901   8.733   0.839 -0.3072 -0.0507  0.1211
 2309W        W 6053   6.375   8.832   2.987 -0.0758 -0.3173  0.1957
 2310W        W 6054   3.216   5.664  10.511 -0.2753  0.1712 -0.1367
 2311W        W 6055   3.108   6.821   0.310 -0.1822  0.2011 -0.0998
 2312W        W 6056   2.875   2.248  12.382  0.4293 -0.2815  0.0654
 2313W        W 6057   7.804   1.934   2.368 -0.2834  0.1718  0.2384
 2314W        W 6058   0.195   4.405   3.729  0.0420 -0.0246  0.0494
 2315W        W 6059   4.588   5.852  11.939  0.2347  0.0209 -0.0888
 2316W        W 6060   6.034   8.594   4.065  0.0014 -0.0873 -0.1899
 2317W        W 6061   4.350   8.863   2.363 -0.1625 -0.2747  0.0498
 2318W        W 6062   0.734   0.278   4.245  0.1694  0.0417 -0.2554
 2319W        W 6063   4.964   9.691  11.088  0.0693 -0.1074 -0.1033
 2320W        W 6064   0.327   1.057   4.935 -0.2965 -0.0392 -0.0301
 2321W        W 6065   9.569   7.708   4.782 -0.2288  0.2069  0.0850
 2322W        W 6066   1.271   5.729   3.228  0.2187 -0.0224  0.3883
 2323W        W 6067   8.990   8.641  10.782  0.0378 -0.0203 -0.2882
 2324W        W 6068   6.570   9.324   8.996  0.3077 -0.2663 -0.2221
 2325W        W 6069   9.045   0.973   3.082 -0.0538  0.0913  0.0685
 2326W        W 6070   2.029   9.533   9.694 -0.0533 -0.1058 -0.0202
 2327W        W 6071   9.327   0.933   0.457 -0.0919 -0.2342 -0.1688
 2328W        W 6072   6.154   8.327  11.450  0.0940 -0.0874 -0.3449
 2329W        W 6073   4.687   6.295  11.100 -0.1073  0.3009  0.1369
 2330W        W 6074   2.239   3.868   1.535 -0.0094  0.2445 -0.0122
 2331W        W 6075   8.826   1.452  12.292  0.0574  0.0828  0.0746
 2332W        W 6076   8.828   0.893   2.272  0.1056  0.1300 -0.4139
 2333W        W 6077   2.181   0.122   3.576 -0.0733 -0.0610 -0.1234
 2334W        W 6078   2.596   9.105  12.732 -0.3923  0.0462 -0.1991
 2335W        W 6079   9.731   6.936   1.950 -0.0234  0.1718 -0.3201
 2336W        W 6080   5.988   7.790  10.344 -0.0052 -0.0540 -0.4828
 2337W        W 6081   9.526   9.536   2.782 -0.2234  0.0708  0.0444
 2338W        W 6082   5.473   8.213   4.154 -0.3485 -0.1324  0.1678
 2339W        W 6083   0.136   1.684  12.916  0.0525  0.0384  0.2396
 2340W        W 6084   2.216   1.380   9.692 -0.0354  0.0455 -0.0843
 2341W        W 6085   0.933   6.890   9.455 -0.0463 -0.0608  0.1812
 2342W        W 6086   0.244   4.752  11.959  0.2138 -0.2079 -0.0994
 2343W        W 6087   6.338   3.022   4.138  0.0951 -0.1610 -0.1520
 2344W        W 6088   8.002   4.290  10.597 -0.2413  0.0792  0.2614
 2345W        W 6089   1.622   7.852   2.861  0.0347  0.1020  0.0538
 2346W        W 6090   6.216   6.593   4.583 -0.1043  0.2099 -0.3270
 2347W        W 6091   8.818   9.878  10.144 -0.0469  0.0388 -0.2412
 2348W        W 6092   4.338   4.076  12.440 -0.1466 -0.0532 -0.2600
 2349W        W 6093   8.793   3.249   4.010  0.1581  0.0248  0.0816
 2350W        W 6094   2.382   8.111  12.752 -0.0404 -0.2474 -0.0263
 2351W        W 6095   7.076   2.566   4.536 -0.0068 -0.1264  0.1741
 2352W        W 6096   2.080   8.933  12.706 -0.3637  0.0191  0.1341
 2353W        W 6097   7.745   3.887  11.709  0.3480 -0.0417 -0.3092
 2354W        W 6098   0.156   9.227   9.360  0.0477 -0.0942  0.2881
 2355W        W 6099   3.944   7.114   9.927  0.3477  0.0698  0.1834
 2356W        W 6100   5.517   8.546   8.572 -0.1545  0.0769  0.3623
 2357W        W 6101   5.435   3.743  10.079  0.1678 -0.1875 -0.2322
 2358W        W 6102   0.251   9.037  12.051  0.0223  0.0359 -0.0593
 2359W        W 6103   2.642   1.904  10.356 -0.2247  0.2363  0.0845
 2360W        W 6104   1.999   5.665   9.055  0.2245 -0.0857 -0.2063
 2361W        W 6105   1.914   0.590   9.926 -0.1454 -0.0229 -0.0380
 2362W        W 6106   7.210   5.423   3.883  0.2089 -0.1835 -0.1057
 2363W        W 6107   4.384   0.532   2.288 -0.1400  0.0825 -0.1089
 2364W        W 6108   1.246   6.902   4.902 -0.3499 -0.1004  0.1525
 2365W        W 6109   7.955   7.379   2.438 -0.1311 -0.1171  0.0921
 2366W        W 6110   6.335   6.942   2.289  0.0137 -0.1863 -0.0371
 2367W        W 6111   8.431   8.908   1.904  0.1459 -0.1163 -0.1404
 2368W        W 6112   1.288   7.299   3.004  0.3405 -0.1336 -0.1403
 2369W        W 6113   7.948   4.045   2.381  0.2723 -0.1560  0.0995
 2370W        W 6114   9.779   9.211  11.660 -0.0168 -0.1676 -0.2560
 2371W        W 6115   4.372   2.185   1.030  0.0183 -0.2319  0.1094
 2372W        W 6116   5.192   2.274   0.311 -0.1581  0.0686 -0.0861
 2373W        W 6117   5.331   9.883  12.236  0.0569  0.0051  0.0062
 2374W        W 6118   2.949   8.402   1.234  0.1087  0.1957  0.0468
 2375W        W 6119   3.228   6.485   1.209 -0.0202 -0.2205  0.2548
 2376W        W 6120   1.876   7.287  11.644 -0.2115 -0.1702  0.1211
 2377W        W 6121   9.602   0.992   9.910  0.0259 -0.0711  0.0149
 2378W        W 6122   7.414   8.964   0.131  0.0409  0.1857  0.0490
 2379W        W 6123   9.528   4.358   3.698  0.3049 -0.0805 -0.2946
 2380W        W 6124   3.192   5.559  11.039 -0.1942 -0.2015  0.1563
 2381W        W 6125   8.163   4.474   9.485  0.0163  0.2898  0.2112
 2382W        W 6126   7.036   1.813   9.829  0.0045 -0.0213 -0.0104
 2383W        W 6127   9.191   2.221  12.040 -0.1518 -0.2879 -0.0453
 2384W        W 6128   9.811   7.377   9.171  0.2384  0.0790  0.2248
 2385W        W 6129   6.754   2.950   0.421  0.2326 -0.1547 -0.0607
 2386W        W 6130   0.857   1.292   8.482  0.3252  0.1049  0.0582
 2387W        W 6131   5.486   0.520   9.194 -0.0841  0.0651  0.0992
 2388W        W 6132   2.487   3.218  10.527 -0.0756  0.1609  0.0049
 2389W        W 6133   8.985   7.476   2.452 -0.0845 -0.1862 -0.1357
 2390W        W 6134   8.151   5.547   2.134 -0.0604  0.2613  0.0596
 2391W        W 6135   3.505   8.435   9.489  0.1437  0.1243 -0.0539
 2392W        W 6136   1.690   2.100  10.743  0.1014  0.0117 -0.0596
 2393W        W 6137   6.702   1.502   0.076 -0.0499  0.0352 -0.3468
 2394W        W 6138   8.685   7.699   8.956  0.1132  0.0037  0.2028
 2395W        W 6139   4.060   2.681   2.572 -0.0559  0.0282 -0.2647
 2396W        W 6140   0.302   5.721   8.723 -0.0228  0.2421  0.2400
 2397W        W 6141   0.872   1.919  12.296 -0.0804  0.0442  0.0128
 2398W        W 6142   3.011   4.847  10.895  0.0027 -0.1386  0.2200
 2399W        W 6143   8.702   4.422   2.741 -0.2635 -0.0515 -0.1629
 2400W        W 6144   9.319   0.127   2.603 -0.0375 -0.0350 -0.3693
 2401W        W 6145   4.569   4.053  10.206  0.1585 -0.2886 -0.0662
 2402W        W 6146   4.360   8.025   0.601  0.1191 -0.2710  0.2562
 2403W        W 6147   8.323   3.554  10.992 -0.1752  0.2103 -0.2542
 2404W        W 6148   3.428   4.856   9.915  0.2368 -0.0416  0.0644
 2405W        W 6149   4.086   2.586  11.774 -0.0715 -0.0177 -0.1206
 2406W        W 6150   3.497   9.767  11.696  0.3188  0.0316  0.0757
 2407W        W 6151   2.344   5.890  11.981 -0.4402 -0.1470 -0.0597
 2408W        W 6152   0.313   3.485   1.781  0.0473 -0.0744 -0.3086
 2409W        W 6153   6.773   9.568   4.135 -0.4668 -0.1351  0.3188
 2410W        W 6154   7.442   3.855   1.834 -0.0206  0.4071  0.2493
 2411W        W 6155   3.241   5.493  12.382  0.0669  0.0075 -0.1912
 2412W        W 6156   3.366   9.305   0.485 -0.2226 -0.0724  0.0556
 2413W        W 6157   4.378   2.607   1.993  0.0153 -0.0042  0.2402
 2414W        W 6158   5.802   9.402   4.028 -0.0154  0.0451 -0.0444
 2415W        W 6159   9.701   8.435  10.202  0.0527  0.2837 -0.2133
 2416W        W 6160   6.055   0.945  12.786  0.0604  0.3198 -0.2045
 2417W        W 6161   9.532   2.301   2.739  0.3077 -0.2072 -0.2440
 2418W        W 6162   2.793   0.217  10.905  0.0277 -0.1639  0.2019
 2419W        W 6163   4.460   9.387  12.747  0.0598 -0.1900 -0.1933
 2420W        W 6164   7.757   9.589  10.330 -0.0225  0.0800 -0.2098
 2421W        W 6165   4.888   3.570  10.871 -0.1363  0.1621  0.0090
 2422W        W 6166   0.730   8.460   4.467 -0.0567 -0.0103  0.1099
 2423W        W 6167   7.554   6.689   8.888  0.2010  0.1541 -0.1594
 2424W        W 6168   9.012   5.286   2.788 -0.1969  0.5977 -0.0693
 2425W        W 6169   8.094   1.477   3.947  0.3273  0.0386 -0.2610
 2426W        W 6170   2.793   0.501   4.045 -0.1184  0.3254 -0.0960
 2427W        W 6171   1.969   3.550   9.633 -0.0115  0.0269 -0.3224
 2428W        W 6172   9.195   9.289   3.431  0.0789 -0.0042 -0.0361
 2429W        W 6173   9.566   6.978  11.605  0.4283  0.1475 -0.3842
 2430W        W 6174   5.450   2.381   2.581 -0.0926  0.2760  0.0998
 2431W        W 6175   8.072   3.951  10.213 -0.2161 -0.0854 -0.0368
 2432W        W 6176   6.944   9.552   9.371  0.0189 -0.2341 -0.4201
 2433W        W 6177   2.291   6.443   1.361  0.1186 -0.1569 -0.1802
 2434W        W 6178   3.296   8.437  11.081  0.2226  0.1051 -0.0891
 2435W        W 6179   8.359   4.396   2.059  0.0374  0.1129  0.0651
 2436W        W 6180   3.862   4.889  11.246 -0.3811 -0.0437  0.2288
 2437W        W 6181   9.554   5.327   1.135  0.0878 -0.1439  0.1834
 2438W        W 6182   7.240   0.839   2.339  0.1152 -0.2949  0.1491
 2439W        W 6183   4.640   4.200  12.012  0.1161  0.1427  0.2190
 2440W        W 6184   9.599   5.113   9.262  0.3524 -0.0900  0.2116
 2441W        W 6185   2.727   7.545   5.349  0.4292 -0.0889  0.0719
 2442W        W 6186   4.368   0.831  11.511  0.1379 -0.1480  0.1567
 2443W        W 6187   2.059   7.193   9.972  0.0479  0.2697 -0.2659
 2444W        W 6188   7.141   7.318   2.142  0.0401  0.0677 -0.0834
 2445W        W 6189   6.449   3.611   0.506  0.2102 -0.1807  0.2585
 2446W        W 6190   7.991   6.871  11.773  0.2078 -0.0908  0.0115
 2447W        W 6191   7.218   9.370   4.020 -0.0703 -0.1350 -0.0641
 2448W        W 6192   1.144   2.218  10.028 -0.4070 -0.0812  0.0133
 2449W        W 6193   9.884   6.165   8.706 -0.0022 -0.1291  0.1716
 2450W        W 6194   1.582   3.620  12.723  0.1776  0.1183  0.0362
 2451W        W 6195   5.794   9.497   0.580 -0.1568 -0.0783  0.0442
 2452W        W 6196   2.823   4.020  12.036 -0.1885  0.1743  0.0489
 2453W        W 6197   6.281   8.192  10.126  0.1207  0.1164  0.0240
 2454W        W 6198   1.567   3.181   9.603 -0.1351 -0.5189  0.0688
 2455W        W 6199   2.540   6.977  10.057 -0.0380  0.1817 -0.2442
 2456W        W 6200   5.558   5.919   1.877 -0.0994  0.0974  0.1579
 2457W        W 6201   4.426   5.503   8.920  0.2491 -0.0029 -0.0107
 2458W        W 6202   6.996   3.780  11.462  0.2616 -0.0441 -0.2093
 2459W        W 6203   5.247   3.474  11.181 -0.0745  0.4105 -0.2724
 2460W        W 6204   6.878   6.653   0.231 -0.0455 -0.0257  0.0670
 2461W        W 6205   3.841   5.490  12.493  0.0289  0.0804 -0.1679
 2462W        W 6206   8.374   2.714   3.295 -0.2673 -0.5009 -0.1402
 2463W        W 6207   0.635   2.837   0.499 -0.0190  0.0166 -0.0037
 2464W        W 6208   8.641   8.113  12.170 -0.5032  0.0268  0.0188
 2465W        W 6209   2.489   3.038   1.862 -0.0963  0.0671  0.0689
 2466W        W 6210   1.289   8.867   3.938 -0.0300 -0.1318  0.0443
 2467W        W 6211   4.154   6.340   8.917 -0.1012 -0.0493 -0.1307
 2468W        W 6212   1.507   0.099   2.199  0.1401 -0.0533  0.1549
 2469W        W 6213   1.067   2.433   0.842 -0.2064 -0.2260 -0.1513
 2470W        W 6214   1.377   2.389  12.821 -0.2250 -0.2824 -0.1141
 2471W        W 6215   6.261   8.367   3.571 -0.0484  0.2117  0.0704
 2472W        W 6216   4.648   6.719   1.333 -0.0913 -0.1905  0.2799
 2473W        W 6217   2.576   5.391   2.862  0.0765 -0.1829 -0.0193
 2474W        W 6218   3.881   7.309   0.096  0.1382 -0.0281 -0.0490
 2475W        W 6219   5.942   9.689  11.536 -0.3891  0.3358  0.0397
 2476W        W 6220   5.718   1.677   3.117 -0.1314  0.0889 -0.1293
 2477W        W 6221   3.588   5.788   2.472  0.1211 -0.1894 -0.0614
 2478W        W 6222   8.349   6.794  12.116 -0.0957  0.2136  0.1901
 2479W        W 6223   7.010   4.415   2.794 -0.0944  0.0088  0.3019
 2480W        W 6224   9.860   2.608  10.745 -0.2604 -0.2586  0.0826
 2481W        W 6225   0.211   5.069   0.400  0.0321 -0.1416  0.3012
 2482W        W 6226   6.300   3.251   9.092  0.1030 -0.1139 -0.0025
 2483W        W 6227   6.743   6.698   4.148 -0.2015  0.0413  0.0704
 2484W        W 6228   0.331   5.614   8.177  0.0097  0.0295 -0.1245
 2485W        W 6229   0.019   3.437   0.874 -0.1628  0.2965  0.1457
 2486W        W 6230   0.645   7.897   4.315  0.1016 -0.0096 -0.0548
 2487W        W 6231   2.415   4.411   1.255  0.0714 -0.0318  0.2920
 2488W        W 6232   1.124   4.014  10.066 -0.1972 -0.1183 -0.0558
 2489W        W 6233   5.317   6.836   1.440  0.1852 -0.0632  0.0795
 2490W        W 6234   1.303   8.442   4.580 -0.1159  0.2255  0.3984
 2491W        W 6235   7.609   4.394   2.646 -0.1987 -0.2050  0.2105
 2492W        W 6236   6.156   3.176  11.237 -0.0605  0.0927 -0.2118
 2493W        W 6237   7.644   2.466   3.989 -0.2406 -0.2599 -0.0643
 2494W        W 6238   2.742   6.123  12.928  0.2264  0.2597  0.0511
 2495W        W 6239   6.044   6.779   2.785  0.2819  0.2257  0.0367
 2496W        W 6240   9.643   2.564   0.519  0.4235 -0.1367  0.3211
 2497W        W 6241   8.123   4.472   3.413 -0.1690 -0.2239 -0.2045
 2498W        W 6242   0.790   5.404  11.023  0.0770 -0.4325  0.0275
 2499W        W 6243   9.180   1.936  10.481 -0.3035 -0.3880  0.0742
 2500W        W 6244   6.106   5.578   9.753  0.0384  0.0231 -0.0107
 2501W        W 6245   0.189   7.891   4.125 -0.3491 -0.0831 -0.2524
 2502W        W 6246   6.439   0.773  10.249  0.0283 -0.0884  0.4409
 2503W        W 6247   9.448   9.621   0.949  0.0158 -0.1548  0.0628
 2504W        W 6248   7.444   3.415  11.387 -0.0087 -0.0337 -0.1451
 2505W        W 6249   0.525   0.680   0.611  0.2776 -0.2980  0.1013
 2506W        W 6250   4.132   9.295   9.051 -0.1691  0.0673 -0.0617
 2507W        W 6251   5.437   9.685  11.366 -0.1377 -0.0566 -0.2197
 2508W        W 6252   5.287   8.591  10.350 -0.1264 -0.1375 -0.0577
 2509W        W 6253   1.070   1.875   3.416 -0.1937  0.2940  0.0353
 2510W        W 6254   3.130   1.744   1.127  0.0712  0.0641  0.0317
 2511W        W 6255   9.692   6.691  12.738 -0.1087  0.2035 -0.1729
 2512W        W 6256   2.035   4.583   2.705 -0.0557  0.0181 -0.0504
 2513W        W 6257   8.273   8.984   4.463 -0.3021 -0.0090  0.1440
 2514W        W 6258   7.876   4.067   3.190 -0.0732 -0.3559 -0.3774
 2515W        W 6259   5.061   4.244  12.447  0.3160 -0.1206  0.0486
 2516W        W 6260   5.893   4.175   3.300  0.1207 -0.0828 -0.0971
 2517W        W 6261   4.379   9.331  11.721 -0.1847 -0.0026  0.2281
 2518W        W 6262   9.225   3.724   1.069 -0.2056 -0.1761  0.1046
 2519W        W 6263   4.682   0.902   3.999 -0.0426 -0.4219  0.1501
 2520W        W 6264   6.643   0.218   3.838 -0.0059  0.0715 -0.2544
 2521W        W 6265   7.490   5.948  10.707  0.3927  0.3536  0.1763
 2522W        W 6266   9.315   3.304  12.785  0.0284  0.1127  0.1645
 2523W        W 6267   8.911   3.023   0.038 -0.1371 -0.0302  0.1008
 2524W        W 6268   8.654   3.725   2.714  0.0205 -0.1886  0.1038
 2525W        W 6269   9.030   5.982  11.343 -0.0667 -0.0452 -0.1268
 2526W        W 6270   2.128   5.203  10.786  0.2371 -0.2106  0.1565
 2527W        W 6271   7.743   8.524  12.286  0.0275  0.0661  0.1406
 2528W        W 6272   8.905   5.796   8.989  0.2262 -0.0439 -0.3327
 2529W        W 6273   2.051   1.510   2.249  0.0618 -0.1815  0.1561
 2530W        W 6274   7.809   4.023   9.241 -0.2066  0.3114 -0.1554
 2531W        W 6275   4.205   3.105  10.485 -0.0432 -0.0513 -0.1119
 2532W        W 6276   6.800   1.664  10.868  0.2439 -0.2939  0.0992
 2533W        W 6277   6.435   8.366   2.517 -0.3114  0.0656 -0.0860
 2534W        W 6278   6.412   1.600  12.364  0.2206  0.0126 -0.0720
 2535W        W 6279   7.626   0.471   1.132 -0.0379  0.1507 -0.1695
 2536W        W 6280   4.365   4.845   1.764 -0.3404  0.1949 -0.0824
 2537W        W 6281   2.536   5.851   3.884 -0.1483  0.0960  0.2211
 2538W        W 6282   3.688   6.450   1.399 -0.2180  0.4563 -0.0337
 2539W        W 6283   6.043   3.513   0.013  0.2388 -0.0629  0.1725
 2540W        W 6284   4.582   5.378  10.719 -0.3891 -0.1108  0.0878
 2541W        W 6285   6.944   0.643   0.743  0.2642 -0.1549 -0.1201
 2542W        W 6286   7.733   8.150  10.533 -0.0258 -0.1097  0.0703
 2543W        W 6287   2.170   7.472   8.383 -0.1174  0.2467  0.1633
 2544W        W 6288   2.737   9.657   9.641  0.2270  0.3365 -0.0027
 2545W        W 6289   9.342   2.599   3.788  0.2886 -0.1726 -0.2503
 2546W        W 6290   6.682   9.212   2.775  0.2230  0.0090 -0.2705
 2547W        W 6291   0.237   6.425   9.459 -0.1613  0.2238 -0.2660
 2548W        W 6292   3.660   9.160  10.277 -0.1083 -0.0661 -0.0027
 2549W        W 6293   1.136   7.455   2.005  0.0249 -0.2392 -0.1822
 2550W        W 6294   1.235   5.201   0.172  0.1147  0.2128 -0.0547
 2551W        W 6295   5.808   0.002   8.747 -0.4061  0.2514  0.0467
 2552W        W 6296   3.172   6.656   9.099  0.0735  0.0687 -0.1901
 2553W        W 6297   0.027   8.591   2.382  0.2882 -0.2582 -0.0783
 2554W        W 6298   6.625   2.548   2.819  0.2853 -0.1357 -0.1359
 2555W        W 6299   3.032   5.321   0.338 -0.0918  0.3046 -0.2531
 2556W        W 6300   8.143   5.833  12.935  0.1145  0.1332  0.0165
 2557W        W 6301   9.061   8.656   0.875 -0.1621  0.1666  0.0202
 2558W        W 6302   6.874   8.640   2.419 -0.0993  0.0590  0.1774
 2559W        W 6303   5.601   0.426   0.652 -0.0343 -0.1423 -0.2074
 2560W        W 6304   3.752   3.265  10.235 -0.1134 -0.2384 -0.1697
 2561W        W 6305   7.402   5.173  12.777  0.3625 -0.2281  0.1060
 2562W        W 6306   9.493   7.504   3.108 -0.0734 -0.1492 -0.1107
 2563W        W 6307   4.842   0.959  11.391 -0.1697 -0.2284  0.0350
 2564W        W 6308   3.008   3.396   1.350 -0.1090 -0.0188  0.0223
 2565W        W 6309   0.107   4.646   4.618  0.2152 -0.2707  0.0138
 2566W        W 6310   6.853   5.389   0.710 -0.3209  0.1122  0.2111
 2567W        W 6311   6.233   9.527  11.163 -0.0234 -0.1366  0.2568
 2568W        W 6312   6.389   4.568   3.264  0.0100 -0.0710  0.1653
 2569W        W 6313   1.071   8.831  12.747 -0.0037  0.0431 -0.2565
 2570W        W 6314   3.826   6.655   2.427  0.2243  0.0992 -0.3046
 2571W        W 6315   5.497   5.312   1.444  0.0909 -0.0380 -0.0850
 2572W        W 6316   2.338   8.412  10.905 -0.0386 -0.0274 -0.4549
 2573W        W 6317   6.213   1.518   3.527  0.2303  0.0316  0.0116
 2574W        W 6318   8.194   1.093   3.358 -0.0466 -0.0915  0.1151
 2575W        W 6319   9.803   9.135   9.766  0.0755 -0.2486 -0.1213
 2576W        W 6320   1.164   5.734   4.669 -0.0174 -0.2965 -0.1086
 2577W        W 6321   6.182   3.448   3.256 -0.0773 -0.1513  0.0507
 2578W        W 6322   7.315   8.138  10.950  0.2384 -0.1752 -0.2037
 2579W        W 6323   7.629   3.433   9.180 -0.1070  0.0561  0.0454
 2580W        W 6324   5.728   7.824  12.015 -0.2575 -0.0937  0.1821
 2581W        W 6325   5.046   8.791   3.587 -0.1042 -0.2335 -0.0436
 2582W        W 6326   5.875   0.039   1.546 -0.3627 -0.0226 -0.1472
 2583W        W 6327   7.764   7.850  10.975  0.0229  0.1326  0.0911
 2584W        W 6328   0.777   0.493   3.667 -0.1497  0.0127  0.0887
 2585W        W 6329   3.874   6.191   9.392 -0.0506 -0.2350  0.0154
 2586W        W 6330   7.680   2.918  12.598 -0.1874  0.1722  0.2223
 2587W        W 6331   7.563   4.911   2.769 -0.2272  0.1662  0.2113
 2588W        W 6332   5.535   6.304  11.718 -0.0571 -0.1172 -0.2282
 2589W        W 6333   0.902   9.498   1.395  0.1237 -0.1305 -0.1122
 2590W        W 6334   2.594   4.608   0.685 -0.0004 -0.1060  0.0290
 2591W        W 6335   9.782   7.017   1.494 -0.0221  0.1906 -0.2479
 2592W        W 6336   7.275   2.882   2.408 -0.4035  0.4065 -0.1977
 2593W        W 6337   3.387   7.647   1.425 -0.3139 -0.2035 -0.2123
 2594W        W 6338   6.403   3.284  11.673  0.1908 -0.1888  0.1121
 2595W        W 6339   5.411   3.602   2.036  0.0108 -0.2782  0.2517
 2596W        W 6340   5.008   6.514   0.429  0.1749 -0.0379  0.0239
 2597W        W 6341   5.579   1.250   1.089 -0.0915 -0.1654  0.0829
 2598W        W 6342   6.026   2.762   0.767 -0.1982  0.1679  0.0021
 2599W        W 6343   7.040   8.301   9.706 -0.3098  0.2183  0.1581
 2600W        W 6344   8.165   2.231   9.722  0.0694 -0.0936  0.1534
 2601W        W 6345   6.411   9.689   1.378 -0.0799  0.0712 -0.1691
 2602W        W 6346   1.202   9.139  11.614  0.1237  0.0384  0.0705
 2603W        W 6347   8.277   2.084   4.808  0.0722 -0.0534  0.2990
 2604W        W 6348   4.761   9.782   1.680 -0.1003 -0.5250 -0.0873
 2605W        W 6349   5.108   4.696   9.948  0.2426 -0.0629 -0.2909
 2606W        W 6350   1.959   8.485   2.881  0.1920 -0.0717 -0.3775
 2607W        W 6351   7.600   7.767   1.244 -0.3199 -0.1662 -0.2909
 2608W        W 6352   7.668   7.728   4.147  0.1888 -0.2281  0.1212
 2609W        W 6353   1.146   1.890   2.584  0.2269 -0.0755  0.0363
 2610W        W 6354   6.768   1.035   4.514  0.0936  0.0312  0.0327
 2611W        W 6355   2.909   7.101   8.929  0.1253 -0.2625  0.0082
 2612W        W 6356   3.837   7.404   1.503 -0.1348 -0.0047 -0.0566
 2613W        W 6357   2.977   3.398  11.921 -0.0743  0.1607 -0.0345
 2614W        W 6358   8.885   9.126   1.132 -0.1368 -0.3299  0.0667
 2615W        W 6359   2.506   2.987  12.711  0.1847 -0.2161 -0.1201
 2616W        W 6360   1.377   4.367   8.750 -0.0005  0.1499 -0.2855
 2617W        W 6361   1.956   6.087  10.764  0.2870 -0.2217  0.0724
 2618W        W 6362   1.621   7.608   3.351  0.2190 -0.0619  0.1523
 2619W        W 6363   2.367   2.111   9.972 -0.0495 -0.0217 -0.1748
 2620W        W 6364   1.039   1.605   3.893  0.0580  0.2883  0.0463
 2621W        W 6365   9.009   3.408   0.682  0.0677  0.0444 -0.0194
 2622W        W 6366   9.124   6.287   9.175 -0.0894  0.2113  0.0993
 2623W        W 6367   9.836   9.870   1.982 -0.3081 -0.0831  0.1111
 2624W        W 6368   0.153   5.517   3.302 -0.3225 -0.0852  0.1256
 2625W        W 6369   9.881   1.959   2.397 -0.2415 -0.2030 -0.0220
 2626W        W 6370   1.422   5.790   9.062 -0.3872  0.3930  0.1037
 2627W        W 6371   1.616   8.403   9.303 -0.1014 -0.0491 -0.0616
 2628W        W 6372   7.991   8.907  10.653 -0.0034  0.0786  0.0366
 2629W        W 6373   4.494   4.027   2.301 -0.0526  0.2710 -0.2324
 2630W        W 6374   0.742   5.778   4.044  0.1335 -0.1288  0.0092
 2631W        W 6375   0.437   3.571   1.139  0.2108 -0.0828 -0.2265
 2632W        W 6376   7.049   0.483   7.823  0.2756  0.1180  0.2816
 2633W        W 6377   7.074   4.575   1.012  0.1285  0.2136 -0.1300
 2634W        W 6378   4.110   7.544  10.008 -0.3414 -0.0360 -0.3679
 2635W        W 6379   6.021   0.486  10.040  0.1763  0.1406 -0.1688
 2636W        W 6380   2.835   7.884   2.490 -0.0607  0.0990  0.0872
 2637W        W 6381   8.520   9.788   1.474  0.1833  0.1279  0.0065
 2638W        W 6382   8.642   4.740   1.823  0.3334 -0.2368 -0.1045
 2639W        W 6383   4.976   4.708   3.265  0.2242 -0.2117 -0.2019
 2640W        W 6384   9.759   2.774   2.017 -0.0355  0.0195 -0.0423
 2641W        W 6385   9.585   4.335   9.519  0.0695  0.0452 -0.0292
 2642W        W 6386   4.430   0.071   3.697  0.4439  0.0010 -0.0850
 2643W        W 6387   7.107   9.438   3.480  0.2763 -0.0440  0.0483
 2644W        W 6388   4.891   6.165   3.456  0.1478  0.2363 -0.1728
 2645W        W 6389   1.393   8.067   3.277  0.0744 -0.0871 -0.3168
 2646W        W 6390   5.082   8.549   4.199 -0.0760  0.2181  0.4654
 2647W        W 6391   3.272   3.835  11.954 -0.2369 -0.1057 -0.4371
 2648W        W 6392   7.010   0.500   9.689 -0.1127 -0.1020 -0.2010
 2649W        W 6393   9.644   4.828   1.210  0.1520  0.1214 -0.0719
 2650W        W 6394   8.778   1.876  12.593 -0.3003  0.0784  0.3577
 2651W        W 6395   2.231   0.485   3.198  0.0562  0.1814  0.0018
 2652W        W 6396   3.781   8.192   2.105 -0.1312  0.1572 -0.2632
 2653W        W 6397   1.210   9.002   8.647 -0.1736  0.0656 -0.0318
 2654W        W 6398   1.694   4.139   2.558  0.3524  0.1229 -0.0143
 2655W        W 6399   0.502   0.622  10.912 -0.3702 -0.1037  0.0282
 2656W        W 6400   9.062   2.599   7.851 -0.1975  0.1561 -0.1343
 2657W        W 6401   0.758   0.430   2.623 -0.3798 -0.0301 -0.4364
 2658W        W 6402   0.454   6.137   2.203 -0.0136  0.0297  0.0670
 2659W        W 6403   5.556   8.762   9.850 -0.2835  0.0060  0.1434
 2660W        W 6404   7.127   0.937  11.998  0.0147 -0.0290  0.0911
 2661W        W 6405   2.347   8.438   8.754  0.2757  0.0642 -0.3663
 2662W        W 6406   1.935   6.625  11.682  0.3042  0.0762  0.0524
 2663W        W 6407   0.476   3.184   0.207 -0.1071 -0.2898 -0.2295
 2664W        W 6408   9.675   2.961  11.659  0.1775  0.2152 -0.3880
 2665W        W 6409   9.275   9.241   8.281  0.0201  0.0906 -0.1401
 2666W        W 6410   0.685   2.748   1.002 -0.3330  0.2718  0.1034
 2667W        W 6411   7.301   4.535   9.831  0.2273 -0.0649 -0.2179
 2668W        W 6412   6.240   3.772   1.356  0.0728 -0.0054  0.0500
 2669W        W 6413   9.640   3.079   0.675  0.2614 -0.1461 -0.1716
 2670W        W 6414   1.590   6.938   2.746  0.3165  0.1513  0.0135
 2671W        W 6415   9.889   4.803   2.848  0.0018 -0.1168  0.0410
 2672W        W 6416   4.060   3.458   0.039  0.0236  0.0446  0.1590
 2673W        W 6417   3.392   0.712   3.180  0.1753  0.1496 -0.2676
 2674W        W 6418   4.710   1.210   9.595 -0.1177  0.0879  0.0658
 2675W        W 6419   3.005   6.506  10.970  0.0980  0.1041 -0.2318
 2676W        W 6420   6.861   4.808   2.269 -0.0574 -0.0070 -0.1442
 2677W        W 6421   1.860   0.720  10.395 -0.2910 -0.0132 -0.2463
 2678W        W 6422   1.836   6.638   9.412  0.0225  0.1697 -0.1755
 2679W        W 6423   5.816   2.002   8.485  0.1849 -0.0320 -0.2404
 2680W        W 6424   6.469   5.778   0.611 -0.2649  0.1762 -0.3202
 2681W        W 6425   0.770   4.329   2.184  0.2316  0.0690  0.1475
 2682W        W 6426   4.367   5.217   0.742 -0.0121 -0.2589  0.2387
 2683W        W 6427   8.972   3.287   1.322 -0.1703 -0.3130 -0.1376
 2684W        W 6428   1.841   0.118   9.727  0.1232 -0.1530  0.0496
 2685W        W 6429   8.947   9.809  12.038 -0.0548 -0.0423 -0.2402
 2686W        W 6430   7.454   6.946   0.103  0.0068 -0.0405  0.1113
 2687W        W 6431   6.860   3.626  12.716  0.0278  0.2443  0.0205
 2688W        W 6432   2.431   6.581   8.530 -0.0091  0.1868  0.1716
 2689W        W 6433   8.132   6.022   1.916  0.0221  0.0086 -0.2954
 2690W        W 6434   0.439   8.599  10.233 -0.1165  0.2014 -0.0381
 2691W        W 6435   5.686   3.698   1.608 -0.2738 -0.3610  0.3281
 2692W        W 6436   7.426   6.183   9.112 -0.0766 -0.0845 -0.0413
 2693W        W 6437   0.161   9.790   8.205 -0.2521 -0.0295 -0.0964
 2694W        W 6438   0.060   5.961  11.465 -0.0148  0.0224  0.1158
 2695W        W 6439   4.842   1.123   9.148  0.1400  0.2243  0.1678
 2696W        W 6440   6.465   8.300   4.071 -0.0571  0.2769  0.1895
 2697W        W 6441   7.982   5.199  12.866  0.1852 -0.0216 -0.0217
 2698W        W 6442   5.424   7.767   5.484  0.0098  0.0105 -0.0644
 2699W        W 6443   6.042   6.181   9.856 -0.0773 -0.1975  0.1047
 2700W        W 6444   8.095   9.337   8.975  0.4447  0.2549  0.1212
 2701W        W 6445   5.826   7.449   3.580  0.0996  0.1456  0.1522
 2702W        W 6446   4.691   1.006   0.595 -0.2328 -0.3288  0.0852
 2703W        W 6447   0.749   6.360  12.981 -0.0892 -0.1446  0.0121
 2704W        W 6448   5.236   8.367  12.620 -0.0497 -0.0424 -0.1855
 2705W        W 6449   9.438   1.417   4.198  0.1060 -0.2291  0.2936
 2706W        W 6450   6.905   4.589   0.014 -0.1113  0.1845  0.0032
 2707W        W 6451   3.250   3.077   3.963  0.4166  0.1837 -0.0418
 2708W        W 6452   4.645   9.278   4.267  0.0455 -0.2554  0.3278
 2709W        W 6453   9.538   5.635   1.485 -0.0098 -0.0217 -0.0783
 2710W        W 6454   0.475   5.404   0.697 -0.4011  0.3407 -0.1315
 2711W        W 6455   9.531   9.111   4.602  0.0903 -0.1011  0.0530
 2712W        W 6456   4.671   8.464   1.684 -0.0819 -0.0393  0.1506
 2713W        W 6457   6.672   8.912   1.094  0.3620  0.0622  0.2710
 2714W        W 6458   3.419   8.475  11.576  0.0587  0.1849  0.2827
 2715W        W 6459   8.405   2.868   4.811 -0.0622  0.2669  0.0041
 2716W        W 6460   3.997   8.089  12.181 -0.1821  0.0312 -0.1879
 2717W        W 6461   8.875   2.634   1.822  0.2138  0.2354  0.2298
 2718W        W 6462   2.930   1.276   0.255 -0.0243  0.0131 -0.3974
 2719W        W 6463   3.862   0.119   0.198  0.2332 -0.1189 -0.0422
 2720W        W 6464   6.646   6.914   4.650 -0.0232 -0.0773 -0.0269
 2721W        W 6465   7.816   3.792   8.811 -0.0587  0.0113  0.0372
 2722W        W 6466   0.804   0.726  12.246 -0.1263 -0.0381 -0.4697
 2723W        W 6467   0.484   1.809   4.079  0.0616  0.2347  0.2672
 2724W        W 6468   0.255   2.559  10.364 -0.2413  0.1161  0.1487
 2725W        W 6469   5.959   8.512   3.171 -0.2497  0.0046 -0.1110
 2726W        W 6470   4.885   2.841   9.571 -0.2868  0.0291 -0.2560
 2727W        W 6471   3.352   0.430  10.027 -0.2396 -0.1446 -0.1377
 2728W        W 6472   1.746   1.452   3.124  0.2200 -0.1986 -0.0983
 2729W        W 6473   5.012   0.247   0.921  0.1366 -0.1243  0.0588
 2730W        W 6474   8.168   7.928   4.234 -0.1260  0.0087  0.2780
 2731W        W 6475   2.584   5.386   4.235 -0.1498  0.4418  0.3166
 2732W        W 6476   0.412   3.733   0.638  0.1446  0.0439  0.0640
 2733W        W 6477   5.161   2.124  11.226  0.2362 -0.0844  0.2546
 2734W        W 6478   5.349   6.359   4.039  0.2446 -0.2027 -0.0879
 2735W        W 6479   5.924   1.214  10.573 -0.1403 -0.3150  0.2370
 2736W        W 6480   3.809   3.805  12.301  0.4409  0.2017 -0.4118
 2737W        W 6481   7.922   2.972   2.402 -0.2297  0.2250 -0.2205
 2738W        W 6482   8.612   3.446   0.288  0.4282  0.4137 -0.0586
 2739W        W 6483   4.856   4.984  10.793 -0.2446 -0.0976 -0.4453
 2740W        W 6484   3.967   7.755   2.613  0.1677  0.0158  0.1073
 2741W        W 6485   3.994   0.361  12.208  0.0829 -0.1447 -0.0362
 2742W        W 6486   8.888   0.151   8.718  0.1134 -0.0913 -0.0845
 2743W        W 6487   7.758   1.178  10.635 -0.0351  0.1543  0.0341
 2744W        W 6488   9.641   7.182   2.775  0.0651  0.0900 -0.1918
 2745W        W 6489   0.242   0.376   1.902 -0.0432  0.3849 -0.1774
 2746W        W 6490   7.465   7.416  11.982 -0.1658  0.0093  0.1478
 2747W        W 6491   6.589   1.791   9.932  0.3011 -0.1284 -0.1492
 2748W        W 6492   1.624   2.864   3.700 -0.4682 -0.0039  0.1656
 2749W        W 6493   1.617   8.297   0.924 -0.0871 -0.1334 -0.1337
 2750W        W 6494   3.734   5.102   1.648  0.2840 -0.4702 -0.2684
 2751W        W 6495   8.190   8.027  12.050  0.1328  0.0895 -0.0399
 2752W        W 6496   1.246   3.696  11.053  0.2421  0.0026 -0.2509
 2753W        W 6497   1.404   7.750   9.833  0.1338  0.0366 -0.1148
 2754W        W 6498   0.258   9.555   9.691 -0.2989  0.0587  0.0588
 2755W        W 6499   1.909   1.085   3.863  0.0852 -0.1643  0.2943
 2756W        W 6500   1.207   1.056   1.797  0.3789 -0.2139  0.1648
 2757W        W 6501   1.487   2.653   3.193 -0.1111 -0.1365  0.0700
 2758W        W 6502   6.772   4.912   1.773  0.2638  0.2639  0.2395
 2759W        W 6503   6.164   6.550   1.716  0.1462 -0.0142  0.1016
 2760W        W 6504   3.378   4.121   0.206 -0.1153  0.0073  0.3117
 2761W        W 6505   1.766   7.360  11.039 -0.0034  0.3489  0.1838
 2762W        W 6506   0.781   6.213   3.772  0.2668  0.0167 -0.0574
 2763W        W 6507   7.795   6.190   3.908 -0.1382 -0.2207 -0.3184
 2764W        W 6508   4.410   4.875  10.627  0.1469 -0.1348 -0.3025
 2765W        W 6509   9.104   5.850   4.176 -0.2564 -0.0773 -0.3145
 2766W        W 6510   9.042   5.804  10.006  0.0779  0.1924  0.0553
 2767W        W 6511   5.301   9.576   1.682 -0.3882 -0.0892 -0.0122
 2768W        W 6512   0.824   3.641  11.328 -0.4731 -0.4176  0.0136
 2769W        W 6513   8.205   2.144   1.237 -0.2725  0.0233 -0.1956
 2770W        W 6514   5.965   5.085   2.659 -0.0313 -0.0221  0.2793
 2771W        W 6515   1.665   8.673   4.900 -0.3459  0.3470  0.3709
 2772W        W 6516   5.472   9.839  10.109  0.0675  0.2093 -0.0710
 2773W        W 6517   4.116   5.156   2.117 -0.1662  0.1133 -0.0995
 2774W        W 6518   0.650   8.571  11.714 -0.1977 -0.1205 -0.0357
 2775W        W 6519   0.287   0.595   2.402 -0.0974  0.3404  0.0150
 2776W        W 6520   0.665   6.840   8.943  0.1277  0.0266 -0.1630
 2777W        W 6521   0.649   4.839   2.321  0.0560  0.1835  0.2142
 2778W        W 6522   3.976   6.076  11.999  0.2211  0.1882  0.3967
 2779W        W 6523   7.905   2.237  11.538 -0.2261 -0.1575 -0.0194
 2780W        W 6524   2.406   6.620   3.516  0.0879 -0.1058  0.3437
 2781W        W 6525   2.504   6.578  12.420  0.2332 -0.1577  0.2207
 2782W        W 6526   0.506   5.776   3.579 -0.0429  0.1887 -0.1451
 2783W        W 6527   8.153   1.274   0.746  0.0769  0.0322  0.1864
 2784W        W 6528   2.016   5.750   9.526 -0.1947 -0.0296  0.0189
 2785W        W 6529   7.416   2.711   8.221 -0.1494 -0.2254 -0.0589
 2786W        W 6530   5.601   0.838  12.469 -0.3441 -0.2777 -0.0865
 2787W        W 6531   1.859   9.242   1.217  0.0638 -0.1213  0.0932
 2788W        W 6532   4.215   2.776   1.544  0.0643  0.2070 -0.1764
 2789W        W 6533   4.889   1.833   1.785  0.1430 -0.0252 -0.4487
 2790W        W 6534   4.239   4.346  10.697 -0.0929 -0.0634  0.1306
 2791W        W 6535   1.137   6.621   9.012  0.1694  0.1544  0.0273
 2792W        W 6536   7.226   8.383   0.034 -0.2010  0.0793  0.0600
 2793W        W 6537   7.901   7.009   9.136  0.0367  0.0124 -0.0185
 2794W        W 6538   7.866   6.413   9.893 -0.0528  0.0795 -0.1281
 2795W        W 6539   4.860   5.325   0.516  0.5980  0.2738 -0.3010
 2796W        W 6540   0.017   9.268  10.685  0.2730  0.0327 -0.2751
 2797W        W 6541   1.147   7.857  10.319  0.0182 -0.2701  0.2233
 2798W        W 6542   0.771   6.057  10.847 -0.1303  0.3445  0.1254
 2799W        W 6543   3.595   2.463  11.062  0.1803 -0.2332 -0.1008
 2800W        W 6544   5.165   1.016  12.231  0.2343  0.0025  0.1591
 2801W        W 6545   9.494   1.063   0.922  0.0342 -0.0806 -0.2695
 2802W        W 6546   6.265   6.895  12.176  0.0553  0.0907 -0.0140
 2803W        W 6547   6.622   4.687   9.092  0.0519  0.2145 -0.1700
 2804W        W 6548   1.371   4.198  12.830 -0.2461 -0.0627 -0.2426
 2805W        W 6549   4.451   1.128   2.247  0.0640 -0.1686  0.1665
 2806W        W 6550   3.689   7.275  12.015 -0.0354 -0.0283  0.0377
 2807W        W 6551   8.560   4.519  11.236  0.1453 -0.1290  0.1296
 2808W        W 6552   3.332   0.838  12.104  0.0597 -0.0118  0.0768
 2809W        W 6553   2.793   0.057   0.080  0.0549 -0.0598  0.1951
 2810W        W 6554   5.500   4.931   2.751  0.3517  0.0554  0.2745
 2811W        W 6555   6.488   7.222   4.254 -0.1167 -0.2400 -0.0416
 2812W        W 6556   7.523   7.304   3.192  0.0262 -0.1339  0.2088
 2813W        W 6557   4.542   4.991  11.951 -0.1423 -0.0610  0.1159
 2814W        W 6558   7.319   5.029   4.272  0.2937 -0.1869  0.0538
 2815W        W 6559   8.058   5.959  10.602 -0.2321  0.2057  0.1650
 2816W        W 6560   1.602   8.191   2.404 -0.0894  0.2765  0.0362
 2817W        W 6561   4.033   2.193  11.108 -0.2876 -0.1174  0.0693
 2818W        W 6562   7.289   2.973  11.089 -0.0955  0.2042 -0.1512
 2819W        W 6563   4.095   0.855   0.980  0.0459 -0.0391  0.1327
 2820W        W 6564   1.457   1.271  10.176  0.2133 -0.0349 -0.2380
 2821W        W 6565   7.600   9.046   3.238  0.3052 -0.1533  0.1910
 2822W        W 6566   6.595   3.473   2.475 -0.2727  0.3019  0.0628
 2823W        W 6567   5.142   5.003   1.865  0.0722 -0.0163 -0.0111
 2824W        W 6568   3.249   9.516   9.449  0.0813  0.3016  0.1624
 2825W        W 6569   2.216   3.558  10.899 -0.4192  0.1561  0.0054
 2826W        W 6570   3.864   1.141   0.159 -0.0679 -0.0302 -0.1534
 2827W        W 6571   2.890   2.188   0.846  0.1471  0.1383  0.1227
 2828W        W 6572   6.121   6.163  11.188  0.5082  0.3417  0.2508
 2829W        W 6573   6.415   5.891   0.015 -0.2673  0.0644 -0.0769
 2830W        W 6574   5.651   8.749  11.879 -0.0723  0.0263 -0.0449
 2831W        W 6575   5.067   8.093  10.813  0.0604 -0.1387  0.1155
 2832W        W 6576   0.429   8.690   4.849  0.0460  0.4178  0.1901
 2833W        W 6577   6.331   7.198  11.077  0.5452  0.2049 -0.1049
 2834W        W 6578   3.331   8.022  12.768  0.0722 -0.0013 -0.0232
 2835W        W 6579   3.169   4.937  12.382 -0.2939  0.1562  0.1446
 2836W        W 6580   9.680   8.703   3.776  0.1954  0.1399  0.2074
 2837W        W 6581   6.426   5.810   3.718  0.0639  0.1456 -0.3739
 2838W        W 6582   4.793   0.442   3.808  0.0181 -0.0511 -0.4019
 2839W        W 6583   4.799   5.638  10.276 -0.0772  0.0756 -0.0607
 2840W        W 6584   6.083   0.973   0.327 -0.1428 -0.1143 -0.2299
 2841W        W 6585   5.529   4.354   1.283  0.1362  0.1726  0.0946
 2842W        W 6586   7.070   8.096  12.270 -0.0032  0.2284  0.0552
 2843W        W 6587   8.822   3.014  11.195  0.0473 -0.2496 -0.0666
 2844W        W 6588   7.806   3.575  11.012 -0.2963  0.2828  0.0278
 2845W        W 6589   7.391   4.756   2.310 -0.2150  0.0865 -0.0200
 2846W        W 6590   3.685   7.417  10.198  0.0783 -0.0364 -0.2798
 2847W        W 6591   1.516   1.916   2.031 -0.0044 -0.4591 -0.0405
 2848W        W 6592   8.346   1.796   0.756 -0.0448  0.3016  0.2335
 2849W        W 6593   6.309   8.044   8.480 -0.1387 -0.1135 -0.0792
 2850W        W 6594   6.018   7.398  10.738 -0.0257  0.1552 -0.1547
 2851W        W 6595   8.146   7.235  10.510 -0.0516 -0.1840 -0.0667
 2852W        W 6596   6.183   2.979   2.590  0.1475  0.3872 -0.0851
 2853W        W 6597   4.333   5.581   9.408  0.0121 -0.1366 -0.1409
 2854W        W 6598   5.689   3.180   0.795  0.1442 -0.1278  0.0947
 2855W        W 6599   0.082   3.992   9.441  0.2113 -0.1129  0.0417
 2856W        W 6600   2.515   5.611   3.309 -0.0539 -0.2992  0.1120
 2857W        W 6601   7.963   6.383   1.517 -0.0224  0.0988  0.3636
 2858W        W 6602   1.933   1.748   0.483 -0.2013 -0.0363 -0.0215
 2859W        W 6603   5.703   5.772  12.460 -0.2320 -0.2728  0.0618
 2860W        W 6604   7.676   8.101  11.400 -0.0567  0.1476  0.1172
 2861W        W 6605   6.312   5.443   2.885  0.0972 -0.1307 -0.2618
 2862W        W 6606   5.197   3.080   9.257 -0.1729  0.1433 -0.0321
 2863W        W 6607   4.311   8.395   3.482 -0.3062 -0.0214 -0.0622
 2864W        W 6608   2.407   7.252   4.001  0.1977  0.0971 -0.2621
 2865W        W 6609   3.326   5.866   2.880 -0.3036 -0.1306  0.1210
 2866W        W 6610   8.976   6.959   2.641  0.3437 -0.1650  0.0582
 2867W        W 6611   0.254   2.253   2.708 -0.0315  0.2007  0.0633
 2868W        W 6612   4.030   9.626   2.895  0.1679  0.1590  0.4254
 2869W        W 6613   0.810   4.778   3.233 -0.1134  0.2097  0.0775
 2870W        W 6614   0.708   0.299   8.197 -0.0531 -0.1144  0.0431
 2871W        W 6615   2.881   9.620   4.740 -0.0693 -0.1788 -0.3546
 2872W        W 6616   2.403   8.277   3.647 -0.1254 -0.0871  0.1256
 2873W        W 6617   0.281   5.858   2.616  0.3091 -0.0344 -0.1511
 2874W        W 6618   7.302   6.466   1.624 -0.1848  0.1130 -0.4547
 2875W        W 6619   7.778   0.382   0.054  0.2450  0.2925  0.1361
 2876W        W 6620   0.420   7.566  11.199  0.0481 -0.0519  0.0586
 2877W        W 6621   3.883   8.210   8.006 -0.0336  0.1241 -0.0534
 2878W        W 6622   8.576   7.333  12.690 -0.1648  0.1618 -0.2314
 2879W        W 6623   1.155   2.960   3.598  0.0592 -0.1491  0.0370
 2880W        W 6624   8.912   2.318  11.664  0.0083 -0.0096 -0.4528
 2881W        W 6625   8.070   5.662   3.175 -0.0411  0.0213 -0.1067
 2882W        W 6626   9.491   4.252  12.968 -0.3431  0.0689 -0.2395
 2883W        W 6627   1.151   3.486   9.796 -0.3259  0.1299  0.1367
 2884W        W 6628   9.713   1.454   2.560 -0.1341 -0.1458  0.1437
 2885W        W 6629   7.829   7.320  12.578 -0.0125 -0.1454 -0.0413
 2886W        W 6630   8.399   9.455   3.535 -0.3604 -0.3344  0.2381
 2887W        W 6631   0.410   6.616   3.055 -0.1530 -0.0893 -0.0459
 2888W        W 6632   0.087   1.699   1.417  0.2393 -0.0998  0.0668
 2889W        W 6633   1.849   6.016  11.990  0.1466  0.1189  0.1116
 2890W        W 6634   8.167   3.689   3.303  0.2005  0.1764 -0.0462
 2891W        W 6635   0.502   6.367   0.768  0.0881 -0.0376  0.0239
 2892W        W 6636   3.828   7.939  10.236 -0.0901 -0.0722 -0.2809
 2893W        W 6637   7.869   5.511  12.125 -0.3666 -0.2657  0.3023
 2894W        W 6638   9.821   6.196  10.073  0.2561 -0.0566 -0.2812
 2895W        W 6639   4.170   8.725   3.783 -0.4306  0.0877  0.0822
 2896W        W 6640   2.602   3.631  11.226  0.0883  0.0704 -0.3278
 2897W        W 6641   1.359   7.346   1.122  0.1737 -0.1621  0.1058
 2898W        W 6642   2.075   8.611   3.448 -0.0107  0.1604 -0.2448
 2899W        W 6643   2.338   1.162   1.434  0.2187 -0.0381  0.1948
 2900W        W 6644   4.107   5.313  11.947 -0.3764  0.0622 -0.1358
 2901W        W 6645   4.103   4.095   1.437 -0.2083 -0.0528 -0.0463
 2902W        W 6646   3.299   9.760   4.244  0.0366  0.1320  0.0586
 2903W        W 6647   6.601   7.596   9.883 -0.1319 -0.0792  0.1631
 2904W        W 6648   3.897   0.681  11.764 -0.2096  0.0033  0.2339
 2905W        W 6649   8.518   8.256  10.723  0.1963  0.1572 -0.3142
 2906W        W 6650   4.442   9.506   8.215  0.1059 -0.2415  0.4939
 2907W        W 6651   7.427   9.108  11.496 -0.1688 -0.1387 -0.0123
 2908W        W 6652   9.644   3.089   2.430  0.0025 -0.0232 -0.1734
 2909W        W 6653   6.067   8.840  12.762  0.4317  0.0703  0.1229
 2910W        W 6654   1.592   2.762   8.813 -0.0330 -0.0934 -0.3920
 2911W        W 6655   5.229   8.592   2.411 -0.2030 -0.1058 -0.2178
 2912W        W 6656   2.071   6.953  10.970  0.0511 -0.1994  0.2053
 2913W        W 6657   2.961   8.770  11.362 -0.0097  0.1380 -0.2723
 2914W        W 6658   0.010   1.341   9.740 -0.1644  0.1884 -0.0264
 2915W        W 6659   0.825   8.611   2.684  0.1889  0.1317  0.2772
 2916W        W 6660   1.277   1.704  10.023 -0.1949 -0.0344  0.0185
 2917W        W 6661   8.146   5.064   0.954 -0.1624  0.0644  0.1565
 2918W        W 6662   6.545   0.414   9.255  0.1406  0.2144  0.3657
 2919W        W 6663   7.484   2.644   3.487  0.2084 -0.0015  0.3159
 2920W        W 6664   5.074   5.505  10.682  0.1902  0.2005 -0.0659
 2921W        W 6665   7.179   9.487  10.611  0.2985 -0.0937  0.0548
 2922W        W 6666   9.138   0.174   0.768  0.4104 -0.1689  0.0212
 2923W        W 6667   3.748   9.316   9.406  0.2552  0.1891 -0.2619
 2924W        W 6668   3.866   2.560  12.230  0.1599 -0.0575  0.0616
 2925W        W 6669   1.481   1.344   3.974 -0.2095 -0.2270 -0.2195
 2926W        W 6670   0.979   2.084  11.804  0.4227  0.2299  0.0803
 2927W        W 6671   1.970   0.211  10.250 -0.1674 -0.2316 -0.1460
 2928W        W 6672   6.366   0.436  12.596  0.2264  0.1364 -0.2815
 2929W        W 6673   9.411   3.722  11.900 -0.3472 -0.4095  0.1280
 2930W        W 6674   4.432   3.912   0.356  0.1693  0.2758 -0.2211
 2931W        W 6675   6.107   1.845   3.890 -0.1599 -0.1364  0.0309
 2932W        W 6676   4.911   1.396  12.666  0.4738  0.1584 -0.1385
 2933W        W 6677   6.879   1.163   3.849  0.0724 -0.3586  0.3054
 2934W        W 6678   9.035   3.212   4.494 -0.2166  0.1365  0.3060
 2935W        W 6679   2.539   8.365  10.459 -0.1248  0.0420  0.0703
 2936W        W 6680   3.997   1.063  10.869  0.0296 -0.3950 -0.1560
 2937W        W 6681   7.720   2.134  12.094  0.2319  0.2378 -0.0405
 2938W        W 6682   8.549   8.788  10.695 -0.1776 -0.1902 -0.1494
 2939W        W 6683   7.201   3.258   3.534  0.1348 -0.1337 -0.2974
 2940W        W 6684   1.107   2.939   9.719  0.0409  0.3033 -0.0386
 2941W        W 6685   5.759   1.294  11.443  0.1583  0.4447  0.1962
 2942W        W 6686   1.671   8.073   4.143  0.2572 -0.1249 -0.0568
 2943W        W 6687   3.900   6.908   2.944  0.1213  0.0967 -0.0602
 2944W        W 6688   3.289   3.979   9.673 -0.1065 -0.1793 -0.1349
 2945W        W 6689   7.060   3.678   2.171 -0.1993 -0.0519  0.1212
 2946W        W 6690   3.808   1.257   1.188  0.2880  0.1777 -0.2269
 2947W        W 6691   4.807   0.326  10.752 -0.0687  0.0727  0.1465
 2948W        W 6692   6.905   0.943  10.047 -0.0892  0.1973 -0.0491
 2949W        W 6693   1.876   2.271  11.147  0.2148  0.2948  0.0802
 2950W        W 6694   5.040   6.570   2.260 -0.0142  0.0685  0.1146
 2951W        W 6695   4.850   7.783  10.445  0.1581 -0.3246 -0.2864
 2952W        W 6696   9.196   4.368   2.586  0.3362 -0.1609  0.0015
 2953W        W 6697   0.481   7.435   2.576  0.0466 -0.3162  0.0814
 2954W        W 6698   7.381   2.158   3.676 -0.1134  0.1063  0.1125
 2955W        W 6699   9.700   9.534  12.982 -0.1381 -0.0708  0.0184
 2956W        W 6700   9.385   6.946   0.902  0.1851 -0.2088  0.0479
 2957W        W 6701   7.873   0.503   9.036 -0.0642 -0.1380  0.2467
 2958W        W 6702   7.862   6.104  11.925 -0.2932 -0.3718 -0.1432
 2959W        W 6703   7.488   0.459   4.130  0.2467  0.0394 -0.0370
 2960W        W 6704   2.518   5.855   9.211 -0.1537 -0.1014 -0.1534
 2961W        W 6705   6.441   3.768   2.852 -0.0700 -0.2384  0.1591
 2962W        W 6706   9.859   1.912   8.656  0.3592 -0.1120  0.2718
 2963W        W 6707   1.442   8.661  12.523  0.0782  0.0537  0.2466
 2964W        W 6708   3.165   7.772   3.585  0.1790  0.2422  0.2989
 2965W        W 6709   9.756   2.686  12.590 -0.1386  0.0759 -0.0419
 2966W        W 6710   2.358   5.642  12.480 -0.3301  0.0649  0.0388
 2967W        W 6711   1.959   1.674  10.892 -0.0852  0.1919  0.0210
 2968W        W 6712   3.512   3.543   1.274 -0.0435 -0.0878 -0.1284
 2969W        W 6713   5.842   7.958  11.459 -0.0765  0.1018  0.1555
 2970W        W 6714   1.319   2.734   1.784 -0.1756  0.0121  0.1157
 2971W        W 6715   1.658   3.457  10.032 -0.0518  0.2953  0.1840
 2972W        W 6716   9.446   2.514   1.031 -0.2581  0.1333  0.1819
 2973W        W 6717   0.287   4.476  10.281 -0.0772  0.1417  0.0957
 2974W        W 6718   6.037   8.302  10.604 -0.0723  0.0163  0.0808
 2975W        W 6719   5.743   3.114  12.467 -0.2432  0.2089  0.1682
 2976W        W 6720   2.549   8.270   0.832 -0.1745 -0.0933  0.3347
 2977W        W 6721   2.402   2.093  12.383 -0.1674 -0.1647  0.0034
 2978W        W 6722   7.349   1.194  10.887 -0.2715  0.0325 -0.1915
 2979W        W 6723   1.623   0.952   1.602 -0.0602 -0.0778  0.1709
 2980W        W 6724   5.501   1.193  10.317  0.1752 -0.0561 -0.0155
 2981W        W 6725   5.803   2.158   2.938 -0.2115 -0.0860  0.1903
 2982W        W 6726   6.487   6.622   2.657 -0.1707 -0.3201  0.2417
 2983W        W 6727   4.294   6.472   1.571  0.0182 -0.1283  0.2610
 2984W        W 6728   0.106   6.654   3.435  0.0421  0.0616 -0.3148
 2985W        W 6729   8.569   0.517  11.726  0.1021 -0.1681 -0.3371
 2986W        W 6730   4.990   3.742  10.346 -0.1085 -0.1586 -0.2801
 2987W        W 6731   0.810   5.605   1.984  0.1722 -0.0508  0.4320
 2988W        W 6732   9.012   9.582   0.664  0.0012  0.1388 -0.4337
 2989W        W 6733   5.989   0.974  12.161  0.0553  0.1790  0.0842
 2990W        W 6734   0.100   4.335  11.211 -0.0183 -0.1937 -0.2381
 2991W        W 6735   5.356   5.434   1.948 -0.1215 -0.0805 -0.1731
 2992W        W 6736   0.502   5.304   8.909  0.3493  0.0352 -0.0208
 2993W        W 6737   1.350   4.450  12.320 -0.2251  0.0772  0.0709
 2994W        W 6738   5.705   9.792   9.279 -0.3397  0.1359 -0.3732
 2995W        W 6739   6.500   2.794   1.431  0.0205  0.1238  0.1222
 2996W        W 6740   7.575   1.781  11.660  0.0117  0.1962  0.2657
 2997W        W 6741   9.701   2.947   3.752  0.0257  0.0848 -0.1504
 2998W        W 6742   2.903   6.306  12.499 -0.2889 -0.1677 -0.0021
 2999W        W 6743   5.019   1.954   1.257  0.0394 -0.2353  0.1239
 3000W        W 6744   0.473   6.852   2.421  0.1627 -0.0825 -0.1458
 3001W        W 6745   0.887   1.584   8.873 -0.0285 -0.1438 -0.1285
 3002W        W 6746   5.996   1.046  10.105  0.1916 -0.0937 -0.2419
 3003W        W 6747   9.178   5.360   9.023 -0.0909 -0.1359  0.0938
 3004W        W 6748   3.233   8.148   0.286 -0.3590 -0.0136  0.1839
 3005W        W 6749   6.690   3.764   1.551  0.0593  0.0066  0.0591
 3006W        W 6750   5.545   2.584  12.461 -0.0438  0.2658 -0.3547
 3007W        W 6751   2.150   2.788   2.700  0.2514  0.1030  0.0245
 3008W        W 6752   0.440   1.430  10.131  0.1821 -0.0487  0.0609
 3009W        W 6753   4.762   7.000   0.595  0.1742 -0.0480  0.1307
 3010W        W 6754   3.093   8.647   9.757 -0.0814  0.0015 -0.0304
 3011W        W 6755   9.181   3.809  12.802 -0.1673 -0.0525  0.4273
 3012W        W 6756   7.223   8.620  12.301  0.0188 -0.2204 -0.0107
 3013W        W 6757   9.627   7.682   0.742 -0.0627 -0.0071  0.2922
 3014W        W 6758   8.359   9.087   2.816  0.4753 -0.1497 -0.0210
 3015W        W 6759   2.772   1.891  11.982  0.1055 -0.1129  0.0393
 3016W        W 6760   6.564   4.310   2.532  0.0121 -0.3309  0.0048
 3017W        W 6761   7.287   1.776  12.298 -0.1080 -0.1813 -0.3803
 3018W        W 6762   1.304   3.923   0.772  0.0132 -0.2391 -0.0889
 3019W        W 6763   2.469   2.341   2.107 -0.0874  0.2176 -0.2059
 3020W        W 6764   1.559   0.886   4.336  0.3710 -0.2640 -0.4937
 3021W        W 6765   6.666   5.119  11.504  0.2862  0.0325  0.2993
 3022W        W 6766   2.693   2.840   3.914 -0.1901  0.4385  0.1328
 3023W        W 6767   3.392   8.946   1.875 -0.0921 -0.3420  0.0613
 3024W        W 6768   2.789   7.221   0.269  0.0915 -0.2713  0.2795
 3025W        W 6769   0.461   6.804   1.036  0.2265 -0.0489  0.2794
 3026W        W 6770   3.043   6.900  10.092  0.0946 -0.0954  0.0154
 3027W        W 6771   9.627   4.062   2.446  0.2146 -0.1836  0.0019
 3028W        W 6772   2.639   9.046   2.793  0.2839  0.0154  0.1432
 3029W        W 6773   1.256   8.755  11.176  0.0600 -0.1045 -0.0197
 3030W        W 6774   1.401   7.524  10.590 -0.0303 -0.1203 -0.0262
 3031W        W 6775   6.147   4.364   2.178  0.0261  0.1923  0.0326
 3032W        W 6776   3.465   7.802   9.956  0.0753  0.1019 -0.1255
 3033W        W 6777   3.369   0.960   1.042  0.3458 -0.2879 -0.0217
 3034W        W 6778   9.023   2.306   2.798 -0.1983  0.0076  0.1100
 3035W        W 6779   2.083   9.088  11.384 -0.1906  0.0667  0.0942
 3036W        W 6780   5.718   2.874  10.982 -0.3863 -0.0278 -0.2577
 3037W        W 6781   6.106   2.572   4.142  0.0257 -0.3403  0.0413
 3038W        W 6782   3.511   0.465  10.527  0.0361  0.3419 -0.0649
 3039W        W 6783   2.344   4.994   0.972 -0.2682 -0.0628  0.1448
 3040W        W 6784   2.551   2.152  12.846 -0.3278  0.0001 -0.0421
 3041W        W 6785   8.728   8.384   0.588  0.3437  0.0239 -0.0051
 3042W        W 6786   3.324   2.037   2.490  0.1100 -0.0215  0.4590
 3043W        W 6787   8.284   4.360   4.468  0.1914 -0.0885 -0.3710
 3044W        W 6788   9.173   5.193   0.112  0.0872 -0.0754  0.2490
 3045W        W 6789   7.621   0.658  11.747  0.0787 -0.2540  0.1236
 3046W        W 6790   6.076   4.474  10.408 -0.4096  0.1085  0.4579
 3047W        W 6791   0.056   9.647   9.114  0.0399  0.1182 -0.2306
 3048W        W 6792   3.007   1.836   9.405 -0.1389  0.0078  0.0631
 3049W        W 6793   2.254   5.614   9.949  0.0825  0.0652  0.1504
 3050W        W 6794   0.736   1.180   1.985  0.2309  0.0989 -0.0983
 3051W        W 6795   0.548   5.424  12.667 -0.0963 -0.0866 -0.1152
 3052W        W 6796   7.379   0.270  10.021  0.0663 -0.1339  0.1107
 3053W        W 6797   9.523   9.396  10.308  0.0272  0.1103  0.0637
 3054W        W 6798   1.979   5.879   0.876 -0.1207  0.1022 -0.1969
 3055W        W 6799   9.248   0.076  12.366  0.2677  0.1879 -0.0403
 3056W        W 6800   2.687   0.329   0.528  0.0362  0.1735 -0.0197
 3057W        W 6801   2.224   3.292  11.432  0.0601  0.1272 -0.0043
 3058W        W 6802   7.813   6.086   1.077  0.0522  0.4548  0.0810
 3059W        W 6803   5.219   8.404   9.884  0.2595  0.0244 -0.1694
 3060W        W 6804   6.787   7.006   2.012  0.2450  0.0420 -0.0017
 3061W        W 6805   4.912   8.193   5.452 -0.0906 -0.1924 -0.0952
 3062W        W 6806   1.811   0.596  12.440 -0.0523 -0.0277  0.1157
 3063W        W 6807   0.004   0.545  10.772  0.2868 -0.2303 -0.0175
 3064W        W 6808   7.727   3.544   2.398 -0.1744  0.0738  0.2509
 3065W        W 6809   4.858   2.455  11.445 -0.2990  0.0376 -0.0922
 3066W        W 6810   2.897   6.207  10.390  0.3330 -0.0123  0.1458
 3067W        W 6811   9.484   6.337   4.325 -0.0783 -0.1555 -0.2321
 3068W        W 6812   1.541   4.912  11.400  0.1829 -0.0440  0.1066
 3069W        W 6813   5.973   8.881   1.757  0.2336 -0.0036 -0.1799
 3070W        W 6814   2.134   7.677   3.307 -0.0021 -0.1839 -0.0280
 3071W        W 6815   5.926   1.850  12.726 -0.0358 -0.0939 -0.1180
 3072W        W 6816   4.861   9.356  10.771  0.2165  0.1063 -0.0057
 3073W        W 6817   4.496   8.146  12.284 -0.0989  0.3308  0.4044
 3074W        W 6818   2.656   0.913  10.433  0.1094 -0.0516 -0.2937
 3075W        W 6819   2.492   2.874   2.375  0.3133 -0.1553 -0.2868
 3076W        W 6820   7.238   7.571   3.931  0.2752  0.0156 -0.3283
 3077W        W 6821   9.067   5.526  11.716  0.0247 -0.0614 -0.2635
 3078W        W 6822   3.235   9.754  12.988  0.0635  0.2796  0.0188
 3079W        W 6823   4.140   8.912  10.456  0.0056 -0.1868  0.0869
 3080W        W 6824   5.557   7.701   9.991  0.0074  0.2683  0.1217
 3081W        W 6825   7.543   1.514   0.075 -0.1739  0.2560  0.0346
 3082W        W 6826   7.988   5.759   1.546 -0.2535 -0.1803 -0.3227
 3083W        W 6827   6.331   9.156   1.415 -0.1428  0.1142 -0.1969
 3084W        W 6828   5.324   3.519  12.449 -0.3363  0.1398 -0.0004
 3085W        W 6829   3.841   8.062   9.739 -0.2051 -0.0509 -0.1684
 3086W        W 6830   6.416   7.706  10.697  0.1136 -0.0248  0.1123
 3087W        W 6831   2.728   0.221  11.531 -0.0973 -0.1707 -0.0234
 3088W        W 6832   0.213   4.118  10.649 -0.1600 -0.0928 -0.0142
 3089W        W 6833   6.436   6.381  12.925  0.2350  0.2587  0.1671
 3090W        W 6834   3.663   1.497  10.706 -0.0688 -0.0802 -0.5802
 3091W        W 6835   7.200   1.716  11.092 -0.0212  0.0527 -0.2978
 3092W        W 6836   9.773   5.844   0.434 -0.1793  0.1637 -0.3065
 3093W        W 6837   8.855   6.580   2.073  0.0343 -0.0593 -0.1322
 3094W        W 6838   1.431   1.479   3.510 -0.2930 -0.4255  0.0044
 3095W        W 6839   7.611   8.686   9.656  0.0837 -0.3788 -0.0640
 3096W        W 6840   9.261   9.756   3.128  0.4226 -0.0236 -0.1465
 3097W        W 6841   7.081   8.742   4.458  0.1611  0.5027 -0.0851
 3098W        W 6842   4.506   0.356   1.706  0.0074  0.0428  0.1930
 3099W        W 6843   6.795   0.265  12.807  0.3598  0.0589 -0.1149
 3100W        W 6844   6.540   0.130   2.929  0.0924  0.0729  0.0938
 3101W        W 6845   1.013   9.754  10.172 -0.0004 -0.1550  0.1138
 3102W        W 6846   6.112   3.978   0.320 -0.4316 -0.2355 -0.0864
 3103W        W 6847   8.795   4.556   0.816  0.3076 -0.1116  0.0459
 3104W        W 6848   7.178   6.008  10.152 -0.1723 -0.1028  0.0742
 3105W        W 6849   8.441   7.377   1.198 -0.0403 -0.1709  0.0621
 3106W        W 6850   0.103   8.390  11.095  0.0925  0.1050  0.1313
 3107W        W 6851   9.518   0.147   1.185  0.0222 -0.0051 -0.1276
 3108W        W 6852   6.111   7.588   2.863 -0.0669  0.1053  0.1020
 3109W        W 6853   8.202   0.832  11.623  0.3002  0.0605  0.0425
 3110W        W 6854   3.196   6.009  12.755  0.0587  0.2105  0.1418
 3111W        W 6855   9.285   7.658   2.009 -0.0422  0.0850 -0.1155
 3112W        W 6856   1.165   2.772   2.340 -0.0968  0.0685 -0.1486
 3113W        W 6857   9.737   0.311   1.603 -0.1293  0.0812 -0.1410
 3114W        W 6858   9.544   3.297  10.217 -0.2224  0.0340  0.0603
 3115W        W 6859   3.860   3.219   1.452  0.1880  0.1978 -0.0686
 3116W        W 6860   5.674   8.211   2.317 -0.0328 -0.1383 -0.0436
 3117W        W 6861   5.237   3.951   1.282  0.1764  0.2399  0.1070
 3118W        W 6862   1.095   8.409   4.099 -0.0027  0.0566 -0.2639
 3119W        W 6863   2.057   2.045   2.293 -0.0931 -0.1925 -0.1966
 3120W        W 6864   4.566   6.905   1.757  0.0014  0.4121 -0.1233
 3121W        W 6865   9.332   0.942   2.242  0.2593 -0.0618 -0.0010
 3122W        W 6866   5.672   0.366   3.812  0.1416  0.2630 -0.2291
 3123W        W 6867   8.784   9.093   9.757  0.0187 -0.0418 -0.1164
 3124W        W 6868   3.467   9.855   0.795 -0.1207  0.0914 -0.0023
 3125W        W 6869   6.558   5.611  10.410 -0.2786  0.1221 -0.2446
 3126W        W 6870   1.967   8.464  12.371  0.0954 -0.2148 -0.0488
 3127W        W 6871   8.367   8.838   1.388 -0.0918  0.3741 -0.2427
 3128W        W 6872   5.983   6.613   0.046 -0.0220 -0.0561  0.0104
 3129W        W 6873   0.783   5.467  11.665  0.2317 -0.0410  0.3107
 3130W        W 6874   7.930   3.004   1.192  0.1983  0.3243 -0.0996
 3131W        W 6875   7.304   1.581  10.578 -0.1219 -0.0193 -0.0424
 3132W        W 6876   2.315   7.277   2.990  0.1005  0.0053  0.0856
 3133W        W 6877   2.078   1.967  12.754  0.0812 -0.0202 -0.1052
 3134W        W 6878   1.643   5.476  10.801 -0.1701 -0.1436 -0.2138
 3135W        W 6879   1.023   4.410   0.594  0.0388  0.0441 -0.3655
 3136W        W 6880   5.341   0.478  11.519 -0.1691 -0.2444  0.1302
 3137W        W 6881   4.323   5.982   1.619 -0.0132  0.0106 -0.1496
 3138W        W 6882   5.858   3.818  10.606  0.1461  0.0549 -0.2122
 3139W        W 6883   3.311   5.676   0.588 -0.0691  0.1628 -0.0581
 3140W        W 6884   8.130   3.574   1.917 -0.1449 -0.1142 -0.3120
 3141W        W 6885   0.973   1.022   1.017  0.0891 -0.0295  0.1084
 3142W        W 6886   7.237   5.349   0.385 -0.0741  0.0627  0.2447
 3143W        W 6887   7.451   4.290   9.437  0.0786  0.1607  0.1644
 3144W        W 6888   3.222   8.907   4.843 -0.0166 -0.0558 -0.0681
 3145W        W 6889   1.670   0.232  12.167  0.0739  0.2068 -0.2122
 3146W        W 6890   4.207   8.998   3.343 -0.3569 -0.2566  0.0202
 3147W        W 6891   3.528   7.510   2.380 -0.0628  0.0903 -0.0749
 3148W        W 6892   6.966   8.692   9.297 -0.0064 -0.0627  0.1215
 3149W        W 6893   0.328   5.281  10.260  0.0238  0.0033 -0.1193
 3150W        W 6894   2.744   5.699   2.110 -0.0165 -0.0871 -0.0805
 3151W        W 6895   0.992   5.375   0.600 -0.0765  0.1920  0.0533
 3152W        W 6896   6.334   0.319   0.454  0.0305  0.1060  0.3491
 3153W        W 6897   6.704   2.614   0.840  0.4380  0.0670  0.2797
 3154W        W 6898   4.487   5.163   3.954  0.1569 -0.2254 -0.0100
 3155W        W 6899   6.207   0.843   1.152 -0.0830  0.2728  0.1331
 3156W        W 6900   3.536   5.177  12.132 -0.1247 -0.0515 -0.0496
 3157W        W 6901   1.027   7.580   2.542 -0.2600 -0.0696 -0.2307
 3158W        W 6902   8.107   2.745  11.676 -0.0005 -0.0948  0.1361
 3159W        W 6903   6.644   4.291  10.406  0.1993 -0.2483  0.1534
 3160W        W 6904   5.439   6.762   0.979 -0.0693  0.4234  0.1460
 3161W        W 6905   3.693   4.364   9.523  0.0828 -0.1202  0.0219
 3162W        W 6906   3.436   6.100   0.333  0.2969 -0.0125 -0.0873
 3163W        W 6907   3.560   1.352   2.189 -0.1650  0.1732 -0.2301
 3164W        W 6908   1.609   9.331   0.801 -0.0913  0.1666 -0.2028
 3165W        W 6909   7.384   6.240   9.701  0.0181 -0.2385 -0.4008
 3166W        W 6910   5.892   1.699   9.512 -0.1607  0.3422  0.2118
 3167W        W 6911   9.377   2.163   2.272 -0.1421 -0.2535 -0.0955
 3168W        W 6912   5.521   6.745  12.854 -0.1297 -0.3571 -0.0501
 3169W        W 6913   4.206   8.560   2.020 -0.1820  0.0147 -0.3346
 3170W        W 6914   5.274   0.871   3.299 -0.2759  0.1682 -0.1348
 3171W        W 6915   4.586   3.419   0.158 -0.0590 -0.0126  0.2062
 3172W        W 6916   0.037   1.379   3.256 -0.0709  0.0004  0.2331
 3173W        W 6917   0.455   9.810   2.870 -0.0080  0.1155  0.1227
 3174W        W 6918   1.987   4.093   0.529 -0.0498 -0.1170  0.1372
 3175W        W 6919   8.954   0.609   1.888 -0.2873 -0.0107 -0.0986
 3176W        W 6920   6.664   6.108   3.381  0.0351 -0.3333  0.2097
 3177W        W 6921   8.395   6.123  12.470  0.0181 -0.1255 -0.0159
 3178W        W 6922   5.870   2.291   0.938  0.1599 -0.1365  0.1453
 3179W        W 6923   7.701   5.061   0.303 -0.0967 -0.0901  0.0089
 3180W        W 6924   0.470   4.937  12.342 -0.2322 -0.0237  0.5628
 3181W        W 6925   9.138   3.182   2.487  0.0253 -0.1972 -0.0328
 3182W        W 6926   0.761   4.316   3.497 -0.0019  0.2366  0.4740
 3183W        W 6927   8.575   5.624  11.749  0.0515 -0.1152  0.2766
 3184W        W 6928   6.634   8.709   3.443 -0.1557 -0.2676 -0.1399
 3185W        W 6929   5.167   3.191   0.842  0.0452  0.1576 -0.3470
 3186W        W 6930   9.109   7.137   4.123 -0.3263  0.1377  0.0143
 3187W        W 6931   1.662   1.096  12.560 -0.1833  0.2078 -0.0479
 3188W        W 6932   1.584   3.985   1.727  0.1933 -0.0831  0.1763
 3189W        W 6933   3.215   7.292  10.397  0.2232 -0.2111 -0.1540
 3190W        W 6934   8.717   5.143  11.767 -0.0312  0.0453  0.1545
 3191W        W 6935   2.034   0.302   9.244 -0.1993 -0.1250 -0.0338
 3192W        W 6936   2.834   5.036   9.780 -0.1485 -0.1397  0.0080
 3193W        W 6937   4.982   7.731   3.577  0.2131  0.0369 -0.2158
 3194W        W 6938   0.432   8.335   9.204  0.2296 -0.3532 -0.1028
 3195W        W 6939   9.744   9.412   1.280 -0.3209  0.0007 -0.0931
 3196W        W 6940   7.720   9.415   1.980 -0.1375 -0.0078 -0.0631
 3197W        W 6941   7.392   5.132  11.095  0.1003 -0.2833  0.3896
 3198W        W 6942   0.027   0.701  12.344 -0.0110 -0.2617  0.0357
 3199W        W 6943   7.532   2.087  11.219  0.1509  0.2526 -0.0719
 3200W        W 6944   6.763   4.985  10.990  0.1439 -0.0299 -0.3849
 3201W        W 6945   6.457   7.562   1.478 -0.1287  0.0236 -0.1710
 3202W        W 6946   6.956   7.430   4.341  0.0910 -0.0880  0.2067
 3203W        W 6947   1.778   6.449   2.843 -0.0145  0.2047  0.1618
 3204W        W 6948   1.586   2.327   9.262  0.1258  0.0280 -0.0301
 3205W        W 6949   0.700   7.365   1.727  0.0520 -0.0490  0.0397
 3206W        W 6950   9.398   1.801   2.690  0.1689  0.0751  0.0048
 3207W        W 6951   9.838   0.946   2.515 -0.4454 -0.0464 -0.2167
 3208W        W 6952   2.631   5.651  11.059  0.1390 -0.2555 -0.0258
 3209W        W 6953   9.636   6.377   9.229 -0.0371 -0.1652 -0.0719
 3210W        W 6954   9.334   3.424   3.291  0.0593 -0.0654 -0.0439
 3211W        W 6955   6.278   5.276  10.101 -0.1275 -0.4965  0.3433
 3212W        W 6956   2.394   2.562   0.578  0.0916  0.3379  0.0700
 3213W        W 6957   8.776   4.504   3.262  0.0207  0.1526 -0.2182
 3214W        W 6958   8.743   8.593   9.811  0.1846  0.1507 -0.1604
 3215W        W 6959   9.518   4.977   4.576 -0.3298 -0.0696  0.0356
 3216W        W 6960   9.491   5.465   3.095  0.0800  0.0182 -0.0772
 3217W        W 6961   8.582   6.744   2.444 -0.0903 -0.0410  0.0562
 3218W        W 6962   7.086   1.174  12.934 -0.1559  0.1133  0.0398
 3219W        W 6963   3.178   8.179   2.752 -0.1474  0.1627  0.1726
 3220W        W 6964   0.766   3.337   1.738 -0.1394 -0.1837 -0.0486
 3221W        W 6965   6.528   0.673   2.671  0.3871 -0.1579  0.3788
 3222W        W 6966   1.182   2.161   1.739  0.3078 -0.2862  0.0078
 3223W        W 6967   5.182   7.664  12.916 -0.0048  0.1212  0.5473
 3224W        W 6968   8.760   6.985  11.286  0.1295  0.0227 -0.1106
 3225W        W 6969   3.235   9.015  12.980  0.1781 -0.0080  0.2013
 3226W        W 6970   2.589   9.236  10.343  0.3955  0.1713  0.1811
 3227W        W 6971   6.576   2.128   0.814 -0.2810 -0.1695 -0.2744
 3228W        W 6972   7.472   8.618  10.765  0.0951  0.0054  0.0338
 3229W        W 6973   7.242   2.605  12.768 -0.0078  0.0497  0.2638
 3230W        W 6974   2.729   6.264   0.392 -0.4104  0.1929  0.0433
 3231W        W 6975   6.264   1.969   4.725 -0.2049 -0.1312  0.1324
 3232W        W 6976   1.574   9.374  10.827 -0.2380  0.0660 -0.2401
 3233W        W 6977   4.689   8.406  11.083  0.2054  0.3114 -0.3289
 3234W        W 6978   9.121   5.250   4.490 -0.1360  0.2410  0.0227
 3235W        W 6979   2.648   6.671  10.422  0.0661  0.0291 -0.1798
 3236W        W 6980   6.916   5.376   1.582  0.1277  0.0611  0.3390
 3237W        W 6981   3.776   7.038   2.041 -0.2841  0.0398 -0.1660
 3238W        W 6982   6.540   2.056   1.953 -0.0649  0.2123 -0.1079
 3239W        W 6983   3.092   1.575   2.138  0.2992  0.0257  0.2139
 3240W        W 6984   1.743   3.647   0.610  0.2586 -0.2166 -0.3165
 3241W        W 6985   8.418   7.223   9.067 -0.3719 -0.0852  0.0838
 3242W        W 6986   4.780   5.565   2.889  0.3463  0.0019  0.0579
 3243W        W 6987   7.011   9.107   0.711 -0.2309  0.0572 -0.4647
 3244W        W 6988   4.430   1.229  12.614  0.6205 -0.1539 -0.1961
 3245W        W 6989   7.495   4.393  10.691  0.2585 -0.2424  0.0822
 3246W        W 6990   0.785   6.640  11.712 -0.0467 -0.2049 -0.0372
 3247W        W 6991   6.434   4.675  11.338 -0.1132 -0.2375 -0.0740
 3248W        W 6992   8.639   4.148   1.241 -0.3494 -0.1734 -0.1869
 3249W        W 6993   2.125   2.673   1.997 -0.0430  0.0624  0.0146
 3250W        W 6994   0.166   3.568  12.375  0.0140  0.0971  0.2179
 3251W        W 6995   8.347   0.271  12.195  0.2067 -0.2351  0.0005
 3252W        W 6996   3.278   1.475   2.654 -0.2767  0.3196 -0.1443
 3253W        W 6997   1.161   2.520   2.803  0.1054 -0.0238  0.2168
 3254W        W 6998   8.093   6.842   3.117 -0.3367  0.1229  0.1109
 3255W        W 6999   0.761   6.675   3.503 -0.1618 -0.3317 -0.1612
 3256W        W 7000   4.312   1.678  11.482  0.3886  0.3061  0.0396
 3257W        W 7001   7.442   3.716   1.339 -0.0755  0.3175  0.0317
 3258W        W 7002   3.528   6.653   0.391 -0.2587  0.0434 -0.0810
 3259W        W 7003   9.286   9.349  11.802 -0.2697  0.1203 -0.2850
 3260W        W 7004   0.849   7.346  12.576 -0.0457  0.5154 -0.1534
 3261W        W 7005   2.909   4.804  11.411 -0.0294  0.4082  0.1566
 3262W        W 7006   1.863   0.895  12.022 -0.0204  0.0274 -0.0220
 3263W        W 7007   4.595   2.529   1.246  0.0665  0.0344 -0.0823
 3264W        W 7008   3.353   6.197  10.650 -0.0932  0.0131 -0.1727
 3265W        W 7009   9.820   0.245   9.017 -0.1466 -0.0415  0.2085
 3266W        W 7010   2.409   6.594   1.833 -0.4170  0.0991 -0.0680
 3267W        W 7011   7.328   1.089  10.359 -0.2135 -0.0520 -0.2471
 3268W        W 7012   6.162   0.162   9.027 -0.2941 -0.1261 -0.0560
 3269W        W 7013   4.354   1.281   0.932  0.0971  0.0516  0.0733
 3270W        W 7014   8.714   1.429  10.508  0.2411  0.3857  0.2020
 3271W        W 7015   0.380   5.638   9.572 -0.0684  0.3153 -0.0446
 3272W        W 7016   3.123   8.344  12.421 -0.0841 -0.0257 -0.1238
 3273W        W 7017   5.740   6.283   3.290  0.1182  0.1597 -0.0857
 3274W        W 7018   7.670   5.961  10.160  0.1041 -0.3204 -0.2508
 3275W        W 7019   1.317   9.618   2.708  0.1316  0.0578 -0.0133
 3276W        W 7020   7.766   3.726   0.837  0.0459  0.1857 -0.0242
 3277W        W 7021   2.396   5.113  11.638  0.0202  0.0622 -0.0446
 3278W        W 7022   3.344   2.130   0.282 -0.1693  0.0028 -0.2273
 3279W        W 7023   1.672   1.051   9.151  0.1278 -0.3988 -0.2477
 3280W        W 7024   3.117   2.591   1.143  0.0784 -0.1378  0.1565
 3281W        W 7025   2.443   9.311   9.833  0.0419  0.2245  0.0078
 3282W        W 7026   7.147   8.901   3.465  0.1114 -0.1989  0.3241
 3283W        W 7027   3.473   7.260   2.869 -0.0002 -0.0371  0.0438
 3284W        W 7028   9.189   0.758   8.724 -0.3098  0.2514 -0.0510
 3285W        W 7029   5.579   0.707   9.648 -0.0055  0.0221  0.0790
 3286W        W 7030   9.727   4.231   1.840 -0.2499  0.1510 -0.1035
 3287W        W 7031   1.386   7.404  11.447  0.6734  0.3844  0.1077
 3288W        W 7032   6.079   7.516   0.766 -0.0055  0.1130  0.3315
 3289W        W 7033   9.105   9.175  10.992  0.0384 -0.2967  0.0220
 3290W        W 7034   9.387   0.224   2.022 -0.1252 -0.0856  0.0314
 3291W        W 7035   2.054   9.724   3.995 -0.1467 -0.4369 -0.1443
 3292W        W 7036   0.285   3.693  11.819 -0.1640 -0.0261  0.1383
 3293W        W 7037   2.181   9.594   0.962  0.0570 -0.2997  0.3523
 3294W        W 7038   0.927   8.314   3.076 -0.1159  0.1823 -0.2490
 3295W        W 7039   7.480   8.181  12.007 -0.0847  0.1364 -0.1090
 3296W        W 7040   8.824   2.784   2.802 -0.0554  0.0722 -0.3829
 3297W        W 7041   8.971   1.884   2.430  0.2599 -0.1284  0.1964
 3298W        W 7042   1.125   8.709   1.900 -0.0745 -0.2740 -0.2371
 3299W        W 7043   3.932   7.578  10.594  0.1334  0.1521 -0.1235
 3300W        W 7044   8.812   4.407  10.064 -0.1416 -0.1497 -0.1788
 3301W        W 7045   4.780   7.753   0.188  0.3227  0.0075 -0.0858
 3302W        W 7046   6.974   5.510   9.990 -0.0210 -0.0488  0.2135
 3303W        W 7047   7.701   0.195  10.568  0.5861  0.0474 -0.0354
 3304W        W 7048   2.077   1.497   2.759  0.1211  0.0666  0.0949
 3305W        W 7049   3.572   9.344  12.499 -0.0619  0.0049  0.1180
 3306W        W 7050   4.534   7.976   3.667  0.1432  0.2236 -0.0075
 3307W        W 7051   3.324   2.863  11.249 -0.2180  0.0942 -0.0691
 3308W        W 7052   5.743   6.949   1.648  0.1247 -0.0907 -0.0099
 3309W        W 7053   0.333   2.826   9.013 -0.1376  0.2319  0.5343
 3310W        W 7054   2.295   4.969   2.782  0.1407 -0.3195 -0.4149
 3311W        W 7055   8.338   2.175   2.461 -0.0944  0.0291 -0.2863
 3312W        W 7056   3.119   0.202  10.390 -0.3021 -0.0893 -0.3120
 3313W        W 7057   7.145   8.362   1.880  0.0938 -0.0931 -0.1137
 3314W        W 7058   3.367   4.671  10.412  0.1985  0.0092 -0.2084
 3315W        W 7059   4.216   0.291   4.077  0.1058  0.2669  0.2493
 3316W        W 7060   2.323   9.372   1.877  0.0961  0.0502  0.0100
 3317W        W 7061   1.093   8.354  12.688 -0.0351 -0.3391 -0.1608
 3318W        W 7062   2.475   6.027   9.713  0.4755  0.0229  0.0975
 3319W        W 7063   5.232   3.938   2.498 -0.1819  0.0958  0.2186
 3320W        W 7064   6.499   8.690   4.394  0.2208 -0.5439  0.1455
 3321W        W 7065   3.350   3.151   3.458  0.0890  0.0518  0.4344
 3322W        W 7066   4.318   7.666   4.010 -0.1294  0.0410 -0.1846
 3323W        W 7067   0.053   7.217  11.324 -0.3192 -0.1020  0.2201
 3324W        W 7068   8.775   1.246   1.391  0.0010  0.0492 -0.2303
 3325W        W 7069   7.272   6.745   0.941 -0.1402 -0.0151  0.0297
 3326W        W 7070   8.977   2.129   1.849 -0.2008 -0.1607 -0.1484
 3327W        W 7071   6.920   5.459   2.935 -0.0403  0.0326 -0.1139
 3328W        W 7072   6.272   8.678  11.139  0.2657 -0.0157  0.0759
 3329W        W 7073   1.705   0.537   5.125  0.0434  0.1685 -0.2353
 3330W        W 7074   1.673   9.600   1.950  0.2176 -0.1672 -0.1994
 3331W        W 7075   7.853   5.496   9.780  0.0686  0.0416  0.1229
 3332W        W 7076   7.258   0.065  11.937  0.2394  0.1520  0.2990
 3333W        W 7077   4.940   9.389  10.218 -0.0780 -0.3051  0.1798
 3334W        W 7078   5.844   6.492  11.396 -0.1236  0.1357 -0.0260
 3335W        W 7079   1.706   5.554   8.452  0.0086 -0.1553  0.0171
 3336W        W 7080   2.368   3.892   9.118  0.1419  0.0283  0.1274
 3337W        W 7081   4.343   6.995   3.793 -0.0651  0.2085  0.3658
 3338W        W 7082   6.248   0.054  11.889  0.4595  0.2169 -0.0060
 3339W        W 7083   7.437   4.134   1.022 -0.0726 -0.0510 -0.1372
 3340W        W 7084   2.287   6.929   2.172 -0.0882  0.2760 -0.1077
 3341W        W 7085   4.813   0.797   3.388 -0.0170 -0.0648  0.3206
 3342W        W 7086   7.278   9.411  11.113  0.2590  0.1483  0.1676
 3343W        W 7087   5.904   3.095   2.123  0.0750  0.0999 -0.0014
 3344W        W 7088   9.181   8.852   3.709 -0.5531 -0.2120 -0.2237
 3345W        W 7089   2.942   9.694  10.647  0.0244 -0.1109  0.0816
 3346W        W 7090   9.153   8.751   9.592 -0.3179 -0.1039  0.1587
 3347W        W 7091   9.826   1.318  10.272 -0.0082 -0.2554 -0.5122
 3348W        W 7092   7.069   3.404  11.022 -0.1842 -0.2461 -0.0857
 3349W        W 7093   1.979   9.410  12.878  0.0124 -0.2133  0.0022
 3350W        W 7094   9.193   3.295  10.960 -0.0108  0.2307  0.2426
 3351W        W 7095   7.634   4.360  11.883  0.0649 -0.0097  0.4014
 3352W        W 7096   3.122   0.871   4.183  0.2956  0.3286  0.0338
 3353W        W 7097   0.364   0.073  11.799 -0.0913 -0.3268  0.1715
 3354W        W 7098   3.954   3.155  11.531 -0.1979  0.2256 -0.3293
 3355W        W 7099   4.743   6.505   9.058 -0.2506 -0.4299 -0.0762
 3356W        W 7100   6.675   5.460  12.845  0.0905  0.3042  0.3305
 3357W        W 7101   2.574   8.076   7.932  0.1376  0.1044 -0.2212
 3358W        W 7102   0.789   9.026  11.954 -0.1013 -0.1654  0.0298
 3359W        W 7103   2.605   3.122  11.723  0.3240  0.1039 -0.3514
 3360W        W 7104   0.814   2.889  12.594  0.1383 -0.0474 -0.1162
 3361W        W 7105   3.655   3.750   3.550 -0.0004 -0.2723  0.1310
 3362W        W 7106   9.891   9.135   2.837 -0.1644 -0.0047 -0.1315
 3363W        W 7107   4.330   8.841  12.011  0.0310 -0.1414 -0.3083
 3364W        W 7108   1.057   5.207   2.070  0.1581 -0.1857 -0.4021
 3365W        W 7109   8.992   7.632  11.954  0.0025 -0.1409 -0.1304
 3366W        W 7110   5.813   2.287   9.646 -0.5034 -0.3962 -0.0000
 3367W        W 7111   6.112   0.051   3.266 -0.1427 -0.1547  0.1432
 3368W        W 7112   4.157   9.814   9.192 -0.1934 -0.2989 -0.0092
 3369W        W 7113   1.943   3.676   2.491 -0.0774 -0.0995 -0.3171
 3370W        W 7114   0.895   7.335  11.242 -0.0223 -0.1658  0.0520
 3371W        W 7115   0.854   4.333  12.623 -0.3038 -0.1514  0.2275
 3372W        W 7116   8.912   9.551   8.797 -0.1273 -0.2377  0.0288
 3373W        W 7117   3.158   7.461   0.575  0.2048 -0.3463 -0.0730
 3374W        W 7118   0.411   3.924   2.423  0.1274  0.0811 -0.0293
 3375W        W 7119   3.209   7.674   9.550  0.0176  0.2144 -0.1009
 3376W        W 7120   0.118   4.564   9.385  0.3083  0.1155  0.2135
 3377W        W 7121   5.014   8.971   4.522 -0.0998  0.1203  0.1567
 3378W        W 7122   7.102   0.978   9.596 -0.0245  0.2252  0.1934
 3379W        W 7123   3.813   4.615   0.101 -0.2143  0.2667  0.1773
 3380W        W 7124   9.861   7.477   1.480  0.0752  0.1203  0.1032
 3381W        W 7125   9.161   0.909   1.467  0.1030  0.1227 -0.4364
 3382W        W 7126   8.294   1.978  12.661  0.0836 -0.0194  0.1782
 3383W        W 7127   9.458   3.601   0.604  0.0641  0.0908  0.2798
 3384W        W 7128   4.965   0.137  12.508 -0.1570 -0.1053  0.2235
 3385W        W 7129   0.758   2.370   2.457 -0.0162 -0.0557  0.1301
 3386W        W 7130   7.866   1.843  12.504  0.2802 -0.1548 -0.0069
 3387W        W 7131   6.262   7.159   9.761 -0.0766 -0.1315  0.0323
 3388W        W 7132   7.199   4.985   0.753 -0.3966 -0.1227 -0.0003
 3389W        W 7133   7.373   9.778   2.594  0.0003  0.1838 -0.0066
 3390W        W 7134   6.166   4.706  10.859  0.1110  0.0255  0.0813
 3391W        W 7135   4.217   9.119   4.133  0.4001 -0.0020 -0.1561
 3392W        W 7136   3.321   0.099   4.666 -0.0384  0.0064 -0.3998
 3393W        W 7137   9.084   3.533   0.217 -0.0892 -0.0874  0.0483
 3394W        W 7138   3.653   5.916   3.874  0.0763  0.0819 -0.2559
 3395W        W 7139   0.652   5.140   0.079  0.1925 -0.2639  0.0537
 3396W        W 7140   7.468   3.172   2.080  0.0175  0.5092 -0.1951
 3397W        W 7141   5.852   4.171   3.809  0.1453  0.1082 -0.1687
 3398W        W 7142   9.571   2.812   8.613 -0.1161  0.1314  0.0839
 3399W        W 7143   8.729   9.167   3.273  0.0479  0.0745  0.0964
 3400W        W 7144   4.758   7.305  12.085 -0.2366  0.0671 -0.1533
 3401W        W 7145   6.617   0.453   1.902 -0.1803 -0.0019 -0.1745
 3402W        W 7146   0.749   4.457  10.554 -0.0172  0.0448  0.0297
 3403W        W 7147   0.281   7.754   1.791 -0.4134 -0.0487  0.2474
 3404W        W 7148   3.215   2.064  10.275 -0.3215 -0.0675 -0.0876
 3405W        W 7149   7.038   5.726  10.510  0.2501 -0.1485  0.3066
 3406W        W 7150   8.076   1.513  12.805 -0.2915 -0.2017 -0.1093
 3407W        W 7151   5.578   3.687   0.217  0.1371  0.3887  0.0863
 3408W        W 7152   1.709   4.064  12.437  0.1253 -0.0029  0.1579
 3409W        W 7153   4.349   1.263   0.176  0.0518  0.1342 -0.1343
 3410W        W 7154   3.607   5.480   1.274  0.0021 -0.0806 -0.3058
 3411W        W 7155   5.242   0.961  11.702 -0.2845  0.3209 -0.1775
 3412W        W 7156   4.553   8.732   4.297  0.2505  0.0108  0.0984
 3413W        W 7157   8.733   3.056   9.908 -0.1620 -0.0380 -0.1729
 3414W        W 7158   6.720   0.032   9.592  0.2953 -0.2138  0.1217
 3415W        W 7159   4.358   9.294  12.213 -0.0074 -0.0535  0.1882
 3416W        W 7160   1.114   2.007   4.208 -0.1076 -0.2241  0.0938
 3417W        W 7161   9.798   7.486   3.632  0.2223  0.3315 -0.0856
 3418W        W 7162   0.329   0.492   3.539  0.1505  0.0915 -0.0974
 3419W        W 7163   2.082   2.601   1.082  0.0074  0.2151  0.1005
 3420W        W 7164   6.189   5.878   3.270  0.0948 -0.1103  0.2888
 3421W        W 7165   6.710   9.674  12.588 -0.1064 -0.0503  0.0633
 3422W        W 7166   5.954   1.851  12.206  0.0299 -0.1885 -0.0288
 3423W        W 7167   9.789   1.484   8.938 -0.1936 -0.1742 -0.0287
 3424W        W 7168   1.038   1.418   0.043 -0.0098  0.2057 -0.1129
 3425W        W 7169   0.492   8.065   9.969  0.3622  0.3009 -0.1030
 3426W        W 7170   9.450   6.252  12.669  0.2094 -0.0268 -0.0792
 3427W        W 7171   5.500   5.007   9.688 -0.1182  0.2111  0.0627
 3428W        W 7172   0.080   9.308  11.179  0.0928 -0.2920 -0.0091
 3429W        W 7173   9.813   4.452  11.669 -0.0639 -0.1169 -0.3676
 3430W        W 7174   5.145   3.747   3.001 -0.2276  0.2981 -0.0910
 3431W        W 7175   4.682   0.381   2.846  0.2493 -0.0673 -0.1435
 3432W        W 7176   7.089   2.158  10.224 -0.0958  0.1168  0.0522
 3433W        W 7177   6.951   1.771   8.109 -0.0496 -0.0954  0.0356
 3434W        W 7178   8.227   0.741   1.520  0.2021 -0.2053 -0.0886
 3435W        W 7179   5.659   7.883   0.818  0.2560  0.1802  0.4512
 3436W        W 7180   8.635   9.288   1.494  0.2380  0.3094 -0.1348
 3437W        W 7181   0.009   3.508  10.539 -0.1379 -0.3572 -0.3503
 3438W        W 7182   5.740   2.311  12.101 -0.2253  0.0229  0.3101
 3439W        W 7183   2.665   3.357   2.223 -0.0527  0.0039  0.0763
 3440W        W 7184   8.667   2.045   1.015 -0.2252 -0.1713  0.2333
 3441W        W 7185   8.742   8.537  10.330  0.3681  0.0323  0.3037
 3442W        W 7186   5.940   5.115  11.509 -0.3122  0.0543  0.7661
 3443W        W 7187   9.422   9.496   0.412  0.0936 -0.0133 -0.0011
 3444W        W 7188   0.879   9.680   0.072  0.1843 -0.0759  0.2617
 3445W        W 7189   0.726   9.648   3.831  0.2719  0.0124  0.1817
 3446W        W 7190   5.541   7.390  10.383 -0.6291  0.0976 -0.1242
 3447W        W 7191   5.082   6.520  11.870 -0.1855  0.1537 -0.1041
 3448W        W 7192   2.455   4.040  10.819  0.5140  0.0294  0.1626
 3449W        W 7193   3.302   8.387   4.827 -0.2723 -0.2346 -0.0976
 3450W        W 7194   7.100   8.553   0.921  0.2898 -0.0849 -0.0880
 3451W        W 7195   7.874   3.073  10.277  0.1620 -0.1234 -0.1755
 3452W        W 7196   6.603   5.919   2.892  0.3095  0.0908 -0.1588
 3453W        W 7197   5.809   6.525   0.730 -0.1276 -0.2685  0.2359
 3454W        W 7198   3.060   2.254  11.309  0.0449  0.1661  0.1967
 3455W        W 7199   3.967   4.641   1.518 -0.3380 -0.0810  0.1158
 3456W        W 7200   7.991   2.739   3.628 -0.1793  0.1509  0.2396
 3457W        W 7201   9.351   8.632   9.101 -0.3134 -0.0610 -0.0883
 3458W        W 7202   2.232   3.523  12.289 -0.0477 -0.0538  0.1896
 3459W        W 7203   7.361   7.680  12.424 -0.0480 -0.0224  0.2730
 3460W        W 7204   0.606   6.447   4.618 -0.0874 -0.2712  0.0725
 3461W        W 7205   0.698   7.724   2.188  0.1262 -0.1223  0.1122
 3462W        W 7206   8.271   8.477  12.167  0.1232 -0.4170  0.2033
 3463W        W 7207   6.560   3.031  10.321  0.3722 -0.0891  0.0852
 3464W        W 7208   7.741   2.470   0.010  0.0708  0.1029 -0.0842
 3465W        W 7209   0.554   9.834   1.111  0.0239  0.1423  0.0852
 3466W        W 7210   1.501   4.999   3.970 -0.2886 -0.0690  0.0982
 3467W        W 7211   6.749   3.108   3.295  0.0146  0.4096 -0.1275
 3468W        W 7212   2.578   4.729   3.241  0.0003 -0.0032 -0.0265
 3469W        W 7213   6.724   6.891  11.302 -0.2170  0.0638  0.0238
 3470W        W 7214   7.273   9.826  11.412 -0.2397 -0.3017  0.1754
 3471W        W 7215   0.231   9.139   4.014 -0.2010 -0.0143 -0.1173
 3472W        W 7216   8.242   5.320   1.456 -0.0279  0.2968  0.2646
 3473W        W 7217   0.354   1.478   9.130  0.1194  0.0931 -0.1287
 3474W        W 7218   5.041   1.990  10.653  0.0130  0.0095  0.0692
 3475W        W 7219   0.053   8.701   0.479  0.2423 -0.0179  0.0460
 3476W        W 7220   8.162   1.674   3.493 -0.3383  0.0166 -0.1642
 3477W        W 7221   3.786   6.547   1.843  0.0357 -0.2737  0.0552
 3478W        W 7222   7.075   4.910   2.868  0.2840 -0.1844  0.0480
 3479W        W 7223   6.447   6.876   3.797  0.0223 -0.1331 -0.1309
 3480W        W 7224   2.966   6.976  11.196 -0.0751  0.1986 -0.3252
 3481W        W 7225   1.420   5.190  12.699  0.0387  0.3076  0.1774
 3482W        W 7226   5.121   3.253  11.659  0.0452  0.1281 -0.1481
 3483W        W 7227   2.403   5.645  10.673 -0.2077  0.4492 -0.0456
 3484W        W 7228   5.489   6.964   3.408  0.1885  0.2222 -0.3468
 3485W        W 7229   4.147   0.458   2.761 -0.0696  0.1021  0.0043
 3486W        W 7230   0.762   2.094   3.768  0.1097  0.2485 -0.2595
 3487W        W 7231   2.345   9.316   1.390  0.0445 -0.1555  0.1718
 3488W        W 7232   6.968   2.542   1.518 -0.2215  0.0920  0.1453
 3489W        W 7233   9.314   1.562  11.281 -0.0741  0.1670  0.0907
 3490W        W 7234   0.605   1.507   9.678  0.0344  0.0796 -0.0303
 3491W        W 7235   7.017   8.083   1.090 -0.1012  0.3272 -0.1468
 3492W        W 7236   6.865   4.044   0.612 -0.0685  0.5339  0.0691
 3493W        W 7237   7.495   0.378   2.483 -0.0250 -0.1552 -0.1038
 3494W        W 7238   0.734   3.667  12.539  0.2400  0.3257 -0.0769
 3495W        W 7239   2.454   1.128   0.940  0.1697 -0.0140  0.2014
 3496W        W 7240   6.594   6.746   9.808 -0.1888 -0.0328 -0.2691
 3497W        W 7241   8.278   9.236   9.761  0.1192 -0.3414 -0.0055
 3498W        W 7242   8.531   4.331  10.472  0.2515  0.2551 -0.0927
 3499W        W 7243   8.576   6.197   2.714 -0.0285 -0.2582 -0.2165
 3500W        W 7244   4.829   7.912  12.638  0.0833  0.1604 -0.0513
 3501W        W 7245   9.377   5.232  11.329  0.2477 -0.1977  0.2324
 3502W        W 7246   0.459   0.794   1.098  0.0223  0.0391 -0.0788
 3503W        W 7247   5.342   8.041  10.249 -0.0298 -0.1836  0.0195
 3504W        W 7248   7.800   5.571  10.467  0.0194 -0.2160 -0.0639
 3505W        W 7249   4.707   0.180  11.988  0.1034  0.3135  0.0543
 3506W        W 7250   9.624   2.381   0.045  0.4650 -0.1915 -0.1709
 3507W        W 7251   5.486   6.310   2.197  0.0737 -0.2072  0.2620
 3508W        W 7252   7.217   5.121   1.960 -0.2007 -0.1153 -0.2104
 3509W        W 7253   3.108   6.009   2.208 -0.1430  0.3368  0.1755
 3510W        W 7254   4.071   7.807   3.610  0.1025  0.4484  0.2233
 3511W        W 7255   7.105   0.341   2.803 -0.1163 -0.1777 -0.0938
 3512W        W 7256   5.345   1.449   2.175  0.0904 -0.1564  0.1709
 3513W        W 7257   4.471   9.322   2.935 -0.0011  0.2238 -0.0371
 3514W        W 7258   8.594   4.701  10.786 -0.2848 -0.0096 -0.1730
 3515W        W 7259   6.701   5.722   1.098 -0.0437 -0.0619 -0.0599
 3516W        W 7260   3.833   8.162  11.672 -0.0609 -0.0507 -0.1013
 3517W        W 7261   6.724   7.720  12.431 -0.2886  0.1062  0.0623
 3518W        W 7262   4.222   7.763  11.703  0.3530  0.2663 -0.1095
 3519W        W 7263   7.297   5.646  11.142 -0.1477  0.1524 -0.0613
 3520W        W 7264   2.238   3.171   9.596  0.1749  0.1306 -0.2518
 3521W        W 7265   0.711   5.838   0.292 -0.1651 -0.1302  0.4020
 3522W        W 7266   1.569   9.586   4.560  0.6245  0.1486 -0.1204
 3523W        W 7267   6.776   6.088  11.711  0.1866 -0.0021  0.3036
 3524W        W 7268   2.552   3.166  11.021 -0.2715 -0.3248  0.4845
 3525W        W 7269   3.101   8.412   4.250  0.1161  0.0117 -0.1750
 3526W        W 7270   6.255   9.678   2.725 -0.4892  0.0206 -0.1369
 3527W        W 7271   8.421   4.915   3.419 -0.0162 -0.0494 -0.0648
 3528W        W 7272   3.063   4.365  10.662 -0.1253  0.0673 -0.0304
 3529W        W 7273   4.935   9.638   0.700 -0.0342  0.1176  0.2093
 3530W        W 7274   1.371   5.712  12.451 -0.2772  0.1731  0.1611
 3531W        W 7275   9.457   5.473  12.655  0.0948  0.1310 -0.2572
 3532W        W 7276   8.422   3.875  10.575 -0.0253  0.0164 -0.3442
 3533W        W 7277   2.034   7.980   2.251 -0.0574  0.0653 -0.1815
 3534W        W 7278   3.678   6.428  10.308  0.3720 -0.1702  0.1035
 3535W        W 7279   9.750   2.904   1.119 -0.2084  0.1320 -0.4201
 3536W        W 7280   3.298   8.791   8.691 -0.0937  0.1531  0.0120
 3537W        W 7281   9.337   6.517  11.927 -0.2073 -0.1358  0.2926
 3538W        W 7282   4.494   9.884  10.965 -0.1404 -0.0130  0.0834
 3539W        W 7283   4.104   7.456  11.089  0.2294 -0.0655  0.0308
 3540W        W 7284   4.724   8.270   1.197  0.0164 -0.3530  0.2161
 3541W        W 7285   3.363   3.421   0.779  0.2533  0.1969 -0.0866
 3542W        W 7286   8.011   1.519   0.332 -0.0538 -0.3632 -0.2425
 3543W        W 7287   6.042   1.725   2.682  0.0314  0.1925 -0.0396
 3544W        W 7288   3.282   9.233   4.224  0.0866 -0.0455  0.1953
 3545W        W 7289   7.139   7.301  11.538 -0.2533  0.0398  0.1375
 3546W        W 7290   2.042   4.326  12.097  0.2902 -0.0570  0.1624
 3547W        W 7291   9.497   4.064   2.966 -0.2919  0.1468  0.0859
 3548W        W 7292   7.803   3.027  11.083 -0.2952  0.0219 -0.2560
 3549W        W 7293   2.086   5.839  10.370 -0.3064  0.2907  0.0552
 3550W        W 7294   5.178   6.920  10.566 -0.2683 -0.1690  0.0157
 3551W        W 7295   5.133   2.789  11.759  0.0515  0.0208 -0.0116
 3552W        W 7296   1.347   0.258   9.261  0.1992 -0.0198 -0.0932
 3553W        W 7297   3.441   3.284  11.523  0.2293 -0.2107  0.0522
 3554W        W 7298   3.467   5.809   1.980 -0.0069 -0.0369 -0.1109
 3555W        W 7299   2.483   7.763   2.155  0.0038  0.0672  0.1498
 3556W        W 7300   7.151   2.989   9.320  0.1603  0.0128 -0.2424
 3557W        W 7301   8.632   3.841  11.444  0.1723 -0.2218  0.1436
 3558W        W 7302   7.931   7.571   5.074  0.0247  0.1267 -0.1587
 3559W        W 7303   5.384   0.390  12.582 -0.3828  0.4570  0.4433
 3560W        W 7304   9.060   7.380  12.982 -0.3164 -0.2859 -0.3400
 3561W        W 7305   7.018   0.031   8.781  0.1983 -0.0001 -0.1101
 3562W        W 7306   7.936   3.319  11.631 -0.0033 -0.4349  0.0213
 3563W        W 7307   4.496   4.015   3.089  0.0365  0.0405  0.1915
 3564W        W 7308   1.357   9.754   8.702 -0.1189 -0.1151  0.3011
 3565W        W 7309   2.281   9.404  12.420  0.1892 -0.1475  0.0385
 3566W        W 7310   3.119   4.161  11.534 -0.1578 -0.1927  0.0497
 3567W        W 7311   7.650   1.914   4.090  0.0517 -0.0723  0.0486
 3568W        W 7312   5.308   3.951  10.929  0.1552  0.0416 -0.1088
 3569W        W 7313   6.644   3.199  12.624  0.0921  0.4360  0.4090
 3570W        W 7314   4.658   7.654   1.223  0.0375  0.0737 -0.1071
 3571W        W 7315   5.137   1.848   3.432  0.1583  0.1327 -0.2074
 3572W        W 7316   2.407   3.109   0.582 -0.1164  0.0382  0.1512
 3573W        W 7317   7.595   5.416   2.819 -0.3395  0.2377  0.2085
 3574W        W 7318   2.321   4.479  10.447 -0.1374 -0.1340  0.1245
 3575W        W 7319   6.442   9.525   9.423 -0.1826  0.0052  0.3585
 3576W        W 7320   4.760   9.824  12.877 -0.0228  0.0307  0.3296
 3577W        W 7321   2.724   1.940   9.040 -0.0796 -0.3241  0.3508
 3578W        W 7322   2.223   8.050   0.272  0.2432  0.0694  0.1844
 3579W        W 7323   6.748   7.915   1.749  0.0230 -0.0812 -0.0906
 3580W        W 7324   4.898   3.402   2.779  0.0946  0.3705  0.2103
 3581W        W 7325   6.619   6.234   0.902  0.0132 -0.1238 -0.2316
 3582W        W 7326   0.015   0.306  10.229 -0.0237 -0.2713 -0.1593
 3583W        W 7327   2.841   5.041   0.776 -0.2606  0.3798 -0.0625
 3584W        W 7328   4.630   0.362   3.345  0.0270 -0.0913 -0.4547
 3585W        W 7329   2.999   8.752  12.643 -0.1231 -0.0522 -0.0388
 3586W        W 7330   2.065   4.472   3.259 -0.0072 -0.0984 -0.0261
 3587W        W 7331   8.201   9.294   2.224  0.0705  0.0734  0.2294
 3588W        W 7332   9.095   0.508   0.315 -0.2189  0.2374  0.1602
 3589W        W 7333   9.346   0.165   3.564  0.1632 -0.1825  0.1820
 3590W        W 7334   8.108   2.390   1.664  0.2597  0.0354  0.0106
 3591W        W 7335   8.681   0.066  11.530 -0.1078 -0.0957  0.0001
 3592W        W 7336   9.366   6.724   9.497  0.1817 -0.0491 -0.1933
 3593W        W 7337   3.990   0.347  12.748 -0.2651  0.1143 -0.0246
 3594W        W 7338   8.623   9.464  11.862  0.2684  0.1865  0.1476
 3595W        W 7339   2.738   9.762   0.918 -0.0903  0.3347 -0.2411
 3596W        W 7340   1.040   6.179   3.267 -0.2978  0.1236  0.0203
 3597W        W 7341   7.643   7.239   3.838 -0.0292  0.1172 -0.2974
 3598W        W 7342   9.301   2.653   2.367 -0.0091 -0.2507 -0.2799
 3599W        W 7343   0.229   5.117   1.175 -0.0961  0.0390  0.0363
 3600W        W 7344   3.958   6.900   4.237 -0.1215  0.2265 -0.3761
 3601W        W 7345   1.616   7.430   1.896  0.0652  0.4481 -0.0927
 3602W        W 7346   1.445   2.800   9.292 -0.0944  0.0243  0.0270
 3603W        W 7347   1.340   2.333   2.220 -0.1537  0.0492 -0.1662
 3604W        W 7348   2.089   3.186   2.359  0.2570 -0.1052  0.1620
 3605W        W 7349   8.351   2.776   9.765  0.1720 -0.0424 -0.0463
 3606W        W 7350   4.044   2.191  10.418 -0.5678 -0.3562 -0.0888
 3607W        W 7351   1.897   3.221   2.857  0.3760  0.0033  0.0610
 3608W        W 7352   6.516   2.881  11.421  0.1541  0.3363  0.2230
 3609W        W 7353   9.262   8.530  12.304  0.0278 -0.1417 -0.2009
 3610W        W 7354   2.524   0.188  10.405 -0.0603  0.0452  0.1102
 3611W        W 7355   6.428   8.322  11.864  0.1005 -0.0378  0.1347
 3612W        W 7356   6.378   8.079   2.039  0.0663 -0.0078 -0.1884
 3613W        W 7357   4.119   8.408   0.356 -0.0208  0.3273 -0.2531
 3614W        W 7358   7.245   6.349  10.553 -0.2921 -0.2823 -0.2676
 3615W        W 7359   7.648   4.551   3.743 -0.3418  0.3533  0.2765
 3616W        W 7360   0.999   8.336  11.304  0.0062  0.1947 -0.1750
 3617W        W 7361   8.365   9.613   3.012 -0.2397 -0.2054  0.1568
 3618W        W 7362   7.948   8.834  11.481  0.2575 -0.2351 -0.2210
 3619W        W 7363   1.064   2.973   8.753  0.0327  0.0799 -0.4432
 3620W        W 7364   3.429   7.162   0.186 -0.0271 -0.1674  0.0964
 3621W        W 7365   0.920   1.696   0.473  0.0197  0.1766  0.1353
 3622W        W 7366   7.860   5.284   1.772 -0.0578 -0.0692 -0.5426
 3623W        W 7367   8.448   9.043  12.053  0.0978 -0.0261  0.0249
 3624W        W 7368   9.150   0.009   9.263 -0.2334  0.0690  0.0517
 3625W        W 7369   2.848   8.658   3.086  0.0266 -0.0691 -0.2095
 3626W        W 7370   1.208   3.471  10.328  0.4109 -0.0515 -0.1486
 3627W        W 7371   8.328   7.646  10.033  0.3097 -0.2151  0.0293
 3628W        W 7372   6.677   6.259   0.445  0.2091  0.0578 -0.0781
 3629W        W 7373   9.472   0.344   9.352  0.0664  0.1538  0.0875
 3630W        W 7374   3.704   9.751  11.122 -0.0426 -0.0585 -0.3443
 3631W        W 7375   4.608   6.367   9.796 -0.0206 -0.0141  0.0830
 3632W        W 7376   7.145   5.477   3.398 -0.1487  0.3447  0.0487
 3633W        W 7377   9.735   8.873   4.224 -0.0295  0.0584 -0.2875
 3634W        W 7378   5.911   6.129  12.158 -0.3979 -0.2170  0.0997
 3635W        W 7379   4.510   5.513   1.559 -0.1485  0.0137 -0.0207
 3636W        W 7380   3.222   4.596   9.532  0.3937  0.0194 -0.2220
 3637W        W 7381   7.823   4.124  11.153  0.0033  0.2267  0.2368
 3638W        W 7382   4.932   1.251   1.792  0.0466  0.3092  0.0349
 3639W        W 7383   7.705   5.136  12.356  0.2136 -0.3185  0.3195
 3640W        W 7384   3.414   6.798  10.886  0.0182 -0.0982 -0.0031
 3641W        W 7385   7.058   3.088  12.867  0.0155 -0.0094 -0.1127
 3642W        W 7386   0.895   3.515  10.730  0.1584 -0.2369  0.3052
 3643W        W 7387   3.909   8.675   5.614  0.0201  0.2447 -0.1687
 3644W        W 7388   3.428   9.348   2.198  0.1352  0.2782  0.0905
 3645W        W 7389   4.023   7.726   2.109  0.0038 -0.1707  0.2058
 3646W        W 7390   7.156   7.836   2.013  0.1391 -0.4366 -0.1190
 3647W        W 7391   9.250   6.471  11.386  0.1946  0.0310  0.1191
 3648W        W 7392   4.766   8.065   3.120 -0.1749  0.0581  0.2338
 3649W        W 7393   5.193   0.918  10.003 -0.1815 -0.0108 -0.2925
 3650W        W 7394   6.262   0.664   2.186 -0.0771 -0.0660  0.1966
 3651W        W 7395   1.847   1.076   9.852  0.0731  0.1607 -0.1726
 3652W        W 7396   0.584   7.050   0.022 -0.1103  0.2522  0.0299
 3653W        W 7397   0.535   8.623   0.344  0.0363  0.1117 -0.0828
 3654W        W 7398   9.221   1.040  11.093  0.1893  0.2664  0.0031
 3655W        W 7399   4.039   9.372   1.298 -0.1650  0.2783  0.3024
 3656W        W 7400   3.918   5.400   2.580  0.0250 -0.0176  0.0104
 3657W        W 7401   6.780   2.990  11.930  0.2701  0.0068 -0.0727
 3658W        W 7402   8.358   4.181   9.065  0.1755 -0.1340  0.1729
 3659W        W 7403   3.944   6.222   3.571 -0.0602  0.0857 -0.1068
 3660W        W 7404   2.637   1.582   1.247 -0.3200 -0.0409  0.2954
 3661W        W 7405   3.353   5.161   0.817  0.2053  0.1518  0.1878
 3662W        W 7406   1.470   5.854   0.903  0.2476 -0.0392 -0.0389
 3663W        W 7407   0.081   2.638   3.423  0.0677  0.2200 -0.0477
 3664W        W 7408   9.032   5.217   3.886 -0.0910 -0.0340 -0.0628
 3665W        W 7409   5.367   0.205  11.000  0.0436 -0.2027  0.1092
 3666W        W 7410   8.346   4.306   0.468 -0.0052  0.0175 -0.5005
 3667W        W 7411   0.559   3.696   0.127  0.2038 -0.0050  0.0242
 3668W        W 7412   4.819   7.281   9.680  0.1711  0.1757  0.0377
 3669W        W 7413   7.314   5.239   9.183  0.1817 -0.6988 -0.0808
 3670W        W 7414   1.078   3.756  12.899 -0.3073 -0.0352  0.0018
 3671W        W 7415   0.166   5.758  10.155  0.1362  0.2683  0.0355
 3672W        W 7416   1.513   2.239  12.097 -0.0750 -0.4009  0.3178
 3673W        W 7417   3.439   9.048   9.765 -0.0597  0.0712  0.1026
 3674W        W 7418   4.776   9.177   3.312 -0.4584 -0.2449  0.2160
 3675W        W 7419   7.427   5.110   3.202  0.2570 -0.3177 -0.0952
 3676W        W 7420   8.650   5.202   4.445 -0.1859 -0.0158 -0.0074
 3677W        W 7421   6.212   2.685   0.170 -0.2030  0.1385  0.0032
 3678W        W 7422   8.913   1.643   1.725 -0.1287 -0.0285 -0.0015
 3679W        W 7423   3.520   3.941   2.137 -0.2246  0.2246 -0.0631
 3680W        W 7424   2.076   0.807   9.417 -0.1395 -0.0864  0.5684
 3681W        W 7425   2.224   0.032   0.470  0.2062 -0.1831  0.2961
 3682W        W 7426   1.119   7.581  12.241 -0.0218 -0.0541 -0.0456
 3683W        W 7427   9.527   3.032   9.492  0.1939 -0.0028 -0.0691
 3684W        W 7428   5.686   0.177   9.705 -0.0865  0.0637 -0.2754
 3685W        W 7429   2.051   4.884   1.874  0.0621 -0.0376 -0.0798
 3686W        W 7430   2.102   5.100  11.266  0.0656 -0.0700  0.2004
 3687W        W 7431   6.260   4.039  10.244 -0.4055  0.0145 -0.0217
 3688W        W 7432   9.299   0.641  12.311 -0.0569  0.1878 -0.0750
 3689W        W 7433   0.957   3.671   1.280 -0.0794 -0.1443 -0.0223
 3690W        W 7434   8.321   1.517   3.057 -0.1178 -0.1333  0.2684
 3691W        W 7435   8.028   2.446   2.656 -0.2332  0.1350 -0.0399
 3692W        W 7436   9.540   2.662  12.148 -0.0110  0.3958  0.1593
 3693W        W 7437   4.082   8.395   9.286 -0.0678  0.2028 -0.2311
 3694W        W 7438   9.852   4.924  12.399 -0.1598  0.0424  0.1399
 3695W        W 7439   0.364   4.567   3.081 -0.0638 -0.1894  0.0165
 3696W        W 7440   9.093   6.100   0.624  0.3185  0.4695 -0.0243
 3697W        W 7441   8.679   8.353   2.461  0.0933  0.0642  0.2941
 3698W        W 7442   4.551   6.747   0.176 -0.0002 -0.0984  0.1099
 3699W        W 7443   0.469   9.059  10.560  0.0206  0.0650 -0.3367
 3700W        W 7444   4.159   0.240   3.190 -0.4369 -0.3744  0.0282
 3701W        W 7445   8.753   0.760  10.411 -0.1694  0.1282 -0.0098
 3702W        W 7446   1.553   8.776   1.606 -0.1024  0.0498  0.1547
 3703W        W 7447   2.698   4.656   4.206  0.0664  0.0933  0.0131
 3704W        W 7448   0.503   1.900   8.814  0.2311 -0.1885 -0.0539
 3705W        W 7449   0.178   6.318   4.444 -0.1029  0.0341  0.1666
 3706W        W 7450   2.709   1.413  10.504  0.2369  0.1387  0.1507
 3707W        W 7451   6.930   7.476  11.985 -0.1551  0.4369 -0.2100
 3708W        W 7452   0.768   0.339  12.658  0.0459 -0.0863  0.0264
 3709W        W 7453   7.669   1.346   4.133 -0.0821  0.2146  0.3644
 3710W        W 7454   2.459   8.585  12.602 -0.0679  0.0198 -0.1772
 3711W        W 7455   7.938   2.545   3.119  0.0012  0.2945 -0.2386
 3712W        W 7456   9.727   4.411   0.431  0.3394  0.0696 -0.2413
 3713W        W 7457   4.073   3.917   0.920 -0.2034  0.1059  0.3154
 3714W        W 7458   4.581   9.016   3.764 -0.1543 -0.3131 -0.1489
 3715W        W 7459   3.195   8.521   9.115  0.4200 -0.0061 -0.2829
 3716W        W 7460   7.537   7.280   8.826  0.1170 -0.2269 -0.1980
 3717W        W 7461   0.413   0.657  11.835 -0.1712  0.1334  0.1388
 3718W        W 7462   8.528   4.720   4.193 -0.1693 -0.3256 -0.2085
 3719W        W 7463   0.510   3.157   8.572  0.1224  0.0526  0.1626
 3720W        W 7464   2.306   6.644   0.396  0.1339  0.3097  0.0460
 3721W        W 7465   1.481   3.600   9.358  0.0479  0.0463  0.0619
 3722W        W 7466   2.331   0.756   3.945 -0.0376 -0.2862  0.1071
 3723W        W 7467   4.487   1.267   8.774 -0.2223 -0.2014 -0.2631
 3724W        W 7468   2.529   9.822   1.491 -0.1295 -0.1521  0.0408
 3725W        W 7469   3.004   1.457   9.038  0.2914 -0.3251 -0.0657
 3726W        W 7470   7.734   4.568   9.111 -0.1610  0.5273  0.0336
 3727W        W 7471   5.094   0.475  12.920  0.1874 -0.2099  0.0346
 3728W        W 7472   6.067   9.199  10.331 -0.1367 -0.5395 -0.0876
 3729W        W 7473   8.942   7.908   2.731  0.0046  0.0556  0.0586
 3730W        W 7474   6.588   5.723   4.686  0.3561  0.1937  0.1290
 3731W        W 7475   7.787   6.201   0.586 -0.1445  0.0592 -0.2203
 3732W        W 7476   0.647   0.670   2.085 -0.0541 -0.0844  0.1953
 3733W        W 7477   8.628   2.384   1.441 -0.0350 -0.0695  0.2171
 3734W        W 7478   6.912   8.952   8.899 -0.1094 -0.1664  0.4208
 3735W        W 7479   7.644   9.515   8.743 -0.2849  0.2381  0.0180
 3736W        W 7480   1.368   0.121   1.331  0.2093 -0.0171  0.0363
 3737W        W 7481   5.602   4.686   9.311  0.1387 -0.2384  0.1959
 3738W        W 7482   8.403   8.454  11.556  0.2438  0.0411  0.1889
 3739W        W 7483   4.742   4.154  11.088  0.3051  0.3543  0.0548
 3740W        W 7484   8.380   8.888  10.171  0.0692 -0.1881 -0.1206
 3741W        W 7485   6.942   5.637   9.072 -0.0444  0.0911 -0.2907
 3742W        W 7486   5.775   3.684   3.400 -0.0764 -0.3396 -0.0816
 3743W        W 7487   9.893   8.548  10.640 -0.2474 -0.1222  0.1294
 3744W        W 7488   0.920   7.342  10.329  0.1669  0.2345 -0.0468
 3745W        W 7489   1.687   7.206   1.494 -0.0935  0.0328  0.1641
 3746W        W 7490   1.781   8.334   8.196  0.0309  0.2312  0.2924
 3747W        W 7491   5.802   4.128  10.097  0.0972  0.1353  0.1949
 3748W        W 7492   0.667   9.404  10.238 -0.1290  0.1447  0.0290
 3749W        W 7493   2.750   4.043  10.425  0.3412 -0.0105  0.0367
 3750W        W 7494   1.613   0.626  12.871  0.3283 -0.2630 -0.0859
 3751W        W 7495   0.900   7.141   1.266  0.1585  0.1304 -0.0606
 3752W        W 7496   5.579   2.174   3.361 -0.1465 -0.1359 -0.2785
 3753W        W 7497   7.600   3.367  12.460  0.1807 -0.0023  0.2392
 3754W        W 7498   1.144   4.757   9.531  0.4207 -0.3534  0.1021
 3755W        W 7499   3.420   5.911   1.391  0.0441 -0.1967  0.1087
 3756W        W 7500   4.236   7.721   1.628  0.1384  0.2504 -0.0703
 3757W        W 7501   7.000   5.967  10.897  0.0050 -0.3268  0.2340
 3758W        W 7502   8.588   4.394   8.603 -0.4306 -0.0020  0.0764
 3759W        W 7503   9.045   0.335  11.174 -0.3176  0.2640 -0.3033
 3760W        W 7504   9.066   6.161   4.628 -0.0036  0.0146 -0.3343
 3761W        W 7505   6.561   1.092  12.767 -0.0167 -0.3791 -0.1321
 3762W        W 7506   4.450   4.462   1.472  0.0081 -0.0887  0.2330
 3763W        W 7507   7.542   7.668   2.712 -0.1004 -0.1177  0.3268
 3764W        W 7508   5.291   2.208  11.785 -0.0721  0.2239  0.1965
 3765W        W 7509   6.171   2.439   3.187 -0.0704  0.0350  0.0253
 3766W        W 7510   9.842   9.860   2.943  0.0216 -0.1058 -0.2389
 3767W        W 7511   6.292   7.903   9.374  0.3759 -0.3833  0.0794
 3768W        W 7512   2.331   5.544   0.995  0.1661  0.0808 -0.0016
 3769W        W 7513   0.309   0.411  11.360  0.0304  0.1278  0.1157
 3770W        W 7514   5.425   7.225   0.036 -0.3140  0.1106  0.1970
 3771W        W 7515   9.039   2.869   3.254 -0.1276  0.3260 -0.0167
 3772W        W 7516   3.239   3.258   2.317  0.0792 -0.1097 -0.1872
 3773W        W 7517   7.928   5.518   9.217 -0.1709  0.0517 -0.1583
 3774W        W 7518   6.143   3.732   9.861 -0.0666 -0.0221  0.2030
 3775W        W 7519   5.676   4.921  12.874  0.2258  0.0683  0.0403
 3776W        W 7520   3.092   5.303  10.151  0.0158 -0.0661  0.1114
 3777W        W 7521   4.348   0.755   1.392  0.1328  0.1098  0.0897
 3778W        W 7522   2.553   8.743   1.649 -0.1173 -0.1340  0.3666
 3779W        W 7523   5.706   6.014   0.631 -0.2267  0.0446 -0.1171
 3780W        W 7524   8.324   8.180  10.053  0.0182  0.1285 -0.1575
 3781W        W 7525   5.933   8.338   1.760  0.1700 -0.0526 -0.1731
 3782W        W 7526   7.746   3.270   4.212  0.0498 -0.0448 -0.2634
 3783W        W 7527   8.390   2.247  10.662  0.5601 -0.2405 -0.0181
 3784W        W 7528   2.949   4.010  11.012 -0.0123  0.2064  0.2421
 3785W        W 7529   3.030   4.486  12.281  0.1241 -0.2054 -0.3275
 3786W        W 7530   6.228   4.678   2.534  0.4210 -0.0925  0.1799
 3787W        W 7531   0.312   2.379   3.850 -0.0446 -0.0684 -0.0998
 3788W        W 7532   6.438   9.866   0.849  0.0717 -0.1230  0.2234
 3789W        W 7533   6.344   5.221  10.773  0.1678  0.0291  0.0887
 3790W        W 7534   5.734   2.696   2.307 -0.0335 -0.3500  0.0007
 3791W        W 7535   7.244   0.497   8.812 -0.3468 -0.0980  0.2956
 3792W        W 7536   5.502   8.885   1.586 -0.1925 -0.1442 -0.2078
 3793W        W 7537   9.452   9.571  10.770 -0.0779  0.1264 -0.2622
 3794W        W 7538   8.838   7.187   4.548  0.2829  0.0152 -0.0942
 3795W        W 7539   1.262   5.721   0.393 -0.3219 -0.0181 -0.0573
 3796W        W 7540   2.160   7.033   9.472 -0.4520 -0.2857  0.0762
 3797W        W 7541   2.856   3.474   2.749  0.2080  0.1250  0.2353
 3798W        W 7542   0.565   8.056  11.363  0.0268 -0.0978 -0.3286
 3799W        W 7543   8.681   3.667   1.026 -0.1085 -0.2165 -0.1959
 3800W        W 7544   6.157   1.486   9.922 -0.3834  0.1675  0.1247
 3801W        W 7545   1.774   2.535   4.602  0.1058  0.1121  0.3248
 3802W        W 7546   4.742   8.879   2.747 -0.2111  0.1466  0.0611
 3803W        W 7547   2.837   4.612   1.794  0.1142  0.3232  0.2190
 3804W        W 7548   9.430   6.355   2.616 -0.1570  0.3745  0.0173
 3805W        W 7549   9.052   3.562   3.666  0.2084 -0.2497  0.0406
 3806W        W 7550   6.559   5.140   2.495 -0.0421  0.0587 -0.0461
 3807W        W 7551   6.491   2.808   9.826  0.0554 -0.0268  0.0774
 3808W        W 7552   1.968   3.532   1.088  0.0914  0.0035  0.1765
 3809W        W 7553   2.889   4.287   0.966  0.0853 -0.1237 -0.2803
 3810W        W 7554   5.418   4.111   1.796 -0.0549  0.0814 -0.1335
 3811W        W 7555   8.999   8.086   1.601  0.1701  0.0464  0.0460
 3812W        W 7556   6.356   8.174  11.016  0.0749  0.0307 -0.3446
 3813W        W 7557   0.857   3.605   9.347  0.0599  0.2772 -0.0587
 3814W        W 7558   3.253   6.019  11.160 -0.2037 -0.1780 -0.0397
 3815W        W 7559   7.912   8.715   4.644  0.1982 -0.1907 -0.3404
 3816W        W 7560   4.992   9.867  10.032 -0.1183  0.0505  0.1024
 3817W        W 7561   0.997   4.331   3.047  0.1471 -0.2116  0.0196
 3818W        W 7562   3.363   2.827   2.110  0.0627 -0.1654 -0.0738
 3819W        W 7563   8.615   7.627   0.178  0.3895 -0.0666 -0.3925
 3820W        W 7564   1.029   6.856  11.203  0.0794 -0.0287  0.2825
 3821W        W 7565   3.113   9.830   2.809 -0.0046 -0.0046 -0.1641
 3822W        W 7566   2.170   1.294   4.815  0.1182 -0.0886  0.2273
 3823W        W 7567   9.033   4.531  10.538  0.2472 -0.1451 -0.0104
 3824W        W 7568   8.117   4.577  11.033 -0.1939 -0.1083 -0.1476
 3825W        W 7569   0.545   0.948  11.361  0.0984  0.1326 -0.0528
 3826W        W 7570   3.440   8.641  12.061  0.0694  0.0965  0.0299
 3827W        W 7571   0.003   0.100   9.473 -0.0036 -0.0898 -0.0435
 3828W        W 7572   1.212   4.181  11.074 -0.1703  0.1006  0.0567
 3829W        W 7573   0.740   7.013   2.775 -0.0936  0.2264  0.1251
 3830W        W 7574   8.622   3.241  10.715 -0.0035 -0.1128  0.3436
 3831W        W 7575   7.742   6.936   3.462 -0.1283  0.1023  0.0085
 3832W        W 7576   3.911   2.361   2.971  0.0602  0.1813  0.1394
 3833W        W 7577   9.673   4.360   1.263  0.2281 -0.0303 -0.3128
 3834W        W 7578   2.438   4.311   2.940  0.3424  0.0741  0.0548
 3835W        W 7579   9.540   4.974  12.787  0.0087 -0.2657  0.3463
 3836W        W 7580   0.289   2.881   3.815 -0.2061  0.0425 -0.1965
 3837W        W 7581   0.536   8.559  11.223 -0.3556 -0.0018 -0.2846
 3838W        W 7582   8.753   6.078   9.391  0.1492 -0.0154 -0.1777
 3839W        W 7583   3.686   5.469  11.672 -0.3704  0.1162  0.1852
 3840W        W 7584   3.917   8.563  11.922 -0.0748 -0.2147 -0.1112
 3841W        W 7585   6.229   7.653   4.200  0.0580 -0.1249 -0.0825
 3842W        W 7586   0.424   1.943  12.498 -0.0241  0.2257  0.4273
 3843W        W 7587   1.521   7.619   4.287 -0.0161  0.3558  0.0952
 3844W        W 7588   6.953   5.908   4.405  0.0741  0.0522  0.0896
 3845W        W 7589   1.155   9.286  12.977  0.2663  0.0864  0.1559
 3846W        W 7590   5.420   8.431   9.028  0.0576  0.0410  0.3477
 3847W        W 7591   7.856   2.637   0.464  0.2041 -0.1050  0.0089
 3848W        W 7592   2.414   2.380   2.616 -0.0287 -0.3110  0.1772
 3849W        W 7593   7.465   8.169  12.580  0.0750 -0.3142 -0.3842
 3850W        W 7594   3.168   9.239   9.013 -0.0889  0.0261 -0.0446
 3851W        W 7595   8.119   1.197   4.374  0.0046 -0.0794 -0.0187
 3852W        W 7596   9.468   1.956  11.505  0.0457  0.0920 -0.3721
 3853W        W 7597   6.347   0.887   9.255 -0.1609  0.1190  0.0554
 3854W        W 7598   6.033   6.235   5.008  0.0930 -0.0274 -0.3942
 3855W        W 7599   1.300   8.033   9.427 -0.0489 -0.0611  0.2620
 3856W        W 7600   2.504   5.611   1.625  0.2311  0.1103  0.1072
 3857W        W 7601   7.613   8.476   1.990 -0.2019 -0.1700  0.2088
 3858W        W 7602   9.093   0.719  11.448 -0.1444 -0.3026 -0.0757
 3859W        W 7603   6.764   9.341  10.873  0.0078  0.0189 -0.1585
 3860W        W 7604   1.629   0.346  10.665 -0.1263 -0.0968 -0.0319
 3861W        W 7605   2.512   6.395   9.068 -0.3172 -0.3312 -0.0144
 3862W        W 7606   1.398   4.588   4.312  0.1169 -0.3984 -0.1851
 3863W        W 7607   7.211   9.459  11.789 -0.0078  0.0728 -0.1000
 3864W        W 7608   9.082   5.113   9.430  0.0744 -0.0684 -0.2529
 3865W        W 7609   8.130   4.418   2.632 -0.3050  0.0701 -0.0163
 3866W        W 7610   3.216   3.779  12.804 -0.1018  0.0555  0.2913
 3867W        W 7611   4.030   6.569   0.276 -0.0716 -0.2013 -0.0991
 3868W        W 7612   2.179   8.038  12.186 -0.4050 -0.0074 -0.0428
 3869W        W 7613   4.162   0.260   1.054 -0.1357 -0.1217 -0.1857
 3870W        W 7614   8.961   7.618   3.907  0.1275 -0.1465  0.0039
 3871W        W 7615   7.580   6.574  11.987 -0.1196 -0.1330  0.0209
 3872W        W 7616   6.874   4.566   3.240 -0.0269  0.2623  0.2078
 3873W        W 7617   6.906   7.797   9.441  0.2330 -0.1945  0.2801
 3874W        W 7618   0.991   5.765   3.609  0.1419  0.1368 -0.0533
 3875W        W 7619   2.456   8.199   4.755 -0.1222 -0.0916 -0.0294
 3876W        W 7620   2.443   9.191   4.325 -0.0582 -0.0933 -0.0198
 3877W        W 7621   8.448   0.805   9.772 -0.0532 -0.0971 -0.0711
 3878W        W 7622   1.070   5.801  10.544  0.0417 -0.3201  0.0995
 3879W        W 7623   5.408   6.983  10.128  0.1512 -0.0155  0.1830
 3880W        W 7624   2.142   9.382   2.849  0.1568  0.0857  0.1067
 3881W        W 7625   0.246   8.208   1.963 -0.0095  0.1469  0.0402
 3882W        W 7626   7.692   2.111   9.448  0.0440  0.0194  0.1843
 3883W        W 7627   3.990   9.553  10.345  0.2839 -0.0827 -0.0711
 3884W        W 7628   1.872   1.395  12.001 -0.1602 -0.2405  0.2607
 3885W        W 7629   8.153   8.426   2.637 -0.0625 -0.2156 -0.0898
 3886W        W 7630   3.288   8.175   1.787 -0.2327 -0.0675 -0.1917
 3887W        W 7631   9.111   8.847   4.483  0.2398 -0.3521  0.2143
 3888W        W 7632   7.212   5.598   2.167 -0.0034  0.0656 -0.2357
 3889W        W 7633   7.378   4.250   1.485 -0.3950  0.1171 -0.1566
 3890W        W 7634   0.015   1.985   0.294 -0.3454  0.1036 -0.1520
 3891W        W 7635   6.882   9.115   2.212 -0.0253 -0.0080  0.1359
 3892W        W 7636   8.004   9.519   2.634  0.0336 -0.1263  0.0102
 3893W        W 7637   4.608   4.490   1.965 -0.0646  0.0688 -0.1274
 3894W        W 7638   8.706   3.743   3.251  0.2882  0.2088  0.0497
 3895W        W 7639   9.074   6.769   4.510 -0.2393  0.1775  0.0299
 3896W        W 7640   6.568   4.508   4.138  0.0669 -0.0111 -0.0651
 3897W        W 7641   6.725   1.498   3.505  0.0719 -0.0095  0.1701
 3898W        W 7642   5.818   0.845   4.111 -0.0955 -0.1683  0.5385
 3899W        W 7643   5.305   1.179  11.239 -0.4005  0.1877  0.2367
 3900W        W 7644   1.955   0.044   3.104 -0.4278 -0.3874  0.0011
 3901W        W 7645   0.771   2.306  10.341  0.0907 -0.4158 -0.2317
 3902W        W 7646   4.433   9.486   3.873 -0.0894 -0.0254  0.1718
 3903W        W 7647   9.349   7.375  10.251 -0.0112  0.3375 -0.0683
 3904W        W 7648   6.994   5.663  11.997 -0.1016 -0.0008  0.1380
 3905W        W 7649   5.289   5.572  10.150 -0.1604 -0.0271 -0.2493
 3906W        W 7650   6.644   7.852   4.419 -0.0882 -0.1998 -0.0322
 3907W        W 7651   3.424   1.999   0.803  0.3870  0.2820  0.0941
 3908W        W 7652   4.470   6.997   3.231 -0.0389  0.0128  0.2853
 3909W        W 7653   4.295   7.305   8.681 -0.0569  0.0396  0.1232
 3910W        W 7654   0.580   1.714   1.513 -0.3196 -0.2852 -0.3734
 3911W        W 7655   0.264   2.054   9.223  0.0061  0.1712 -0.1260
 3912W        W 7656   6.089   5.002   3.102 -0.2463  0.0781  0.0963
 3913W        W 7657   8.678   0.969  11.534  0.1475  0.0049 -0.1966
 3914W        W 7658   9.862   3.449   1.391  0.0571 -0.3694 -0.0018
 3915W        W 7659   4.323   8.111   8.277 -0.0382 -0.0169  0.2262
 3916W        W 7660   3.723   7.986   9.309  0.4387 -0.1980 -0.0008
 3917W        W 7661   8.686   7.902   0.646 -0.0757  0.0150 -0.0884
 3918W        W 7662   9.699   0.762   0.154  0.2784  0.0557 -0.3009
 3919W        W 7663   2.056   9.106   0.748  0.2336  0.2409 -0.3389
 3920W        W 7664   1.066   2.652  10.956  0.1775 -0.0597 -0.0110
 3921W        W 7665   2.528   7.536  12.339 -0.0178 -0.2407 -0.1105
 3922W        W 7666   6.336   5.343   0.782 -0.0919  0.0130  0.0213
 3923W        W 7667   5.120   3.264   1.438  0.0760  0.2812 -0.1622
 3924W        W 7668   1.270   4.561  10.748 -0.0388 -0.1761 -0.0819
 3925W        W 7669   1.758   9.791   2.621 -0.1357 -0.1212 -0.2257
 3926W        W 7670   8.218   8.114   0.484 -0.1533 -0.0775 -0.1869
 3927W        W 7671   9.563   3.381   7.962 -0.0784 -0.0166 -0.3244
 3928W        W 7672   2.026   4.773   1.254  0.1779  0.3784  0.1783
 3929W        W 7673   7.050   7.790   2.587  0.0210 -0.0097  0.0600
 3930W        W 7674   1.503   5.322   2.254  0.0242 -0.1838 -0.3760
 3931W        W 7675   7.832   3.423  12.908  0.0468  0.1164 -0.5304
 3932W        W 7676   7.619   0.369   3.110 -0.1630  0.0486  0.0090
 3933W        W 7677   5.990   2.409  12.585 -0.1745  0.1627 -0.2244
 3934W        W 7678   7.302   1.868   8.529  0.3287 -0.1077 -0.0511
 3935W        W 7679   9.330   3.960   3.415 -0.1517 -0.0769 -0.0305
 3936W        W 7680   6.815   9.293   9.823 -0.2173 -0.0134 -0.0391
 3937W        W 7681   2.035   8.371   4.006 -0.1401  0.0118  0.0528
 3938W        W 7682   3.753   3.321   0.378  0.0612  0.1387  0.0804
 3939W        W 7683   5.480   5.629  11.017 -0.2396 -0.0894 -0.3113
 3940W        W 7684   0.788   1.202   9.264 -0.1982  0.0270  0.1569
 3941W        W 7685   0.799   0.592   0.087  0.2953  0.0060 -0.1691
 3942W        W 7686   9.203   1.645   3.577  0.0822 -0.0623 -0.0036
 3943W        W 7687   2.701   8.192   2.877 -0.5858  0.0917 -0.0170
 3944W        W 7688   1.069   0.554   9.589 -0.0326 -0.1780 -0.3825
 3945W        W 7689   9.623   1.222  10.800  0.2771 -0.0360  0.1944
 3946W        W 7690   9.783   9.233   2.341  0.1248  0.2959  0.1437
 3947W        W 7691   6.788   1.937   8.586 -0.2667 -0.4857  0.4022
 3948W        W 7692   1.237   5.239   9.292 -0.3972  0.1939 -0.1229
 3949W        W 7693   8.352   1.444   1.975 -0.1764  0.2554 -0.0597
 3950W        W 7694   7.672   9.637  10.803  0.2561  0.0674 -0.2268
 3951W        W 7695   4.061   8.044   4.788 -0.3885  0.3518 -0.2519
 3952W        W 7696   9.367   6.008   3.382  0.2666  0.2418 -0.0236
 3953W        W 7697   8.486   0.478  11.216  0.1760 -0.1696  0.1545
 3954W        W 7698   1.924   7.054   9.049 -0.0611 -0.1299 -0.1558
 3955W        W 7699   7.171   4.045   9.898 -0.2339 -0.3115  0.1883
 3956W        W 7700   1.204   6.590   1.506  0.0454  0.0598 -0.0873
 3957W        W 7701   8.676   1.358   2.608 -0.1619 -0.0161  0.1510
 3958W        W 7702   3.103   0.233   0.978 -0.1981  0.0221 -0.0936
 3959W        W 7703   2.275   7.107  11.978 -0.3260 -0.1738 -0.0053
 3960W        W 7704   3.289   5.418   1.718  0.4009  0.2132  0.0994
 3961W        W 7705   0.181   5.935   9.186 -0.0179 -0.0461 -0.0654
 3962W        W 7706   3.921   4.816  10.607  0.2003  0.2648  0.0732
 3963W        W 7707   0.935   5.382   1.519  0.2959 -0.3598  0.1172
 3964W        W 7708   7.900   7.516   0.961  0.2333 -0.3790  0.1084
 3965W        W 7709   6.518   5.687   4.207  0.1997  0.0053 -0.0482
 3966W        W 7710   0.657   7.355   0.461  0.0907  0.0020  0.0593
 3967W        W 7711   1.307   6.612  11.547 -0.0366  0.4282 -0.0308
 3968W        W 7712   8.142   6.452   2.736  0.3528  0.0720  0.2873
 3969W        W 7713   1.840   6.625   8.473  0.0824  0.1225  0.0734
 3970W        W 7714   3.672   7.035   0.689  0.0698  0.1695  0.3752
 3971W        W 7715   8.465   8.784   2.419 -0.2332  0.0801  0.1636
 3972W        W 7716   0.355   7.441  12.438  0.2188  0.1004 -0.0700
 3973W        W 7717   1.965   6.996   0.382 -0.0961  0.1107 -0.3809
 3974W        W 7718   3.461   7.393   0.966  0.1027 -0.1097 -0.3639
 3975W        W 7719   0.992   7.554   0.918  0.1248 -0.1002  0.0275
 3976W        W 7720   8.202   7.142  11.380 -0.2637  0.2986 -0.1103
 3977W        W 7721   7.092   4.304  10.959  0.0340 -0.3386  0.0090
 3978W        W 7722   3.798   9.592   0.465  0.0362  0.1777 -0.0544
 3979W        W 7723   7.459   5.294  11.944  0.3344  0.2294 -0.1774
 3980W        W 7724   9.848   4.330   3.276 -0.0112  0.2919 -0.0948
 3981W        W 7725   7.690   5.976  11.315 -0.1701  0.0108 -0.3423
 3982W        W 7726   5.972   9.190   2.168 -0.0014 -0.0632  0.0190
 3983W        W 7727   7.573   9.804   1.141  0.3766 -0.2417 -0.2190
 3984W        W 7728   2.557   4.538  12.350  0.2322  0.0916 -0.2416
 3985W        W 7729   0.802   0.131   1.997 -0.1008  0.2494  0.0405
 3986W        W 7730   5.679   4.518   0.845 -0.2204  0.2127  0.0966
 3987W        W 7731   2.562   9.067   8.846 -0.0553 -0.0640 -0.1569
 3988W        W 7732   2.047   0.352  12.810 -0.1686 -0.2099  0.2757
 3989W        W 7733   0.609   6.538   9.803  0.0838  0.1401 -0.1185
 3990W        W 7734   4.033   0.674   9.234  0.0128  0.3052  0.0835
 3991W        W 7735   0.452   7.636  11.700  0.2785  0.0465  0.2943
 3992W        W 7736   8.541   0.352  10.664 -0.0208 -0.2008 -0.0103
 3993W        W 7737   7.295   5.610   9.549 -0.1266 -0.0358 -0.0265
 3994W        W 7738   0.958   0.973   2.914  0.1245  0.2047 -0.2564
 3995W        W 7739   7.459   8.661  11.820 -0.0562 -0.1683 -0.0064
 3996W        W 7740   1.169   4.094   2.039 -0.3121  0.2874 -0.0090
 3997W        W 7741   0.823   8.903  11.425  0.1226 -0.2786  0.0071
 3998W        W 7742   1.134   1.511   9.356  0.0209 -0.1328 -0.1003
 3999W        W 7743   5.302   3.921  12.785 -0.0572 -0.1148  0.1152
 4000W        W 7744   5.811   2.225  11.574  0.1267 -0.1114  0.2016
 4001W        W 7745   7.571   7.329   0.471  0.1899  0.3400  0.2380
 4002W        W 7746   1.891   1.982  11.727 -0.1492 -0.2598  0.1071
 4003W        W 7747   0.130   5.239   8.567 -0.1003 -0.3169  0.3025
 4004W        W 7748   2.404   0.244   1.037 -0.0771  0.1513 -0.0733
 4005W        W 7749   1.178   1.444   2.197  0.0891 -0.1030 -0.0386
 4006W        W 7750   0.463   0.137   3.842 -0.2389 -0.2570 -0.1274
 4007W        W 7751   8.109   4.704  12.543 -0.1632 -0.1980 -0.0599
 4008W        W 7752   7.352   5.246  10.575 -0.2196  0.2678  0.2450
 4009W        W 7753   8.473   0.592   2.123  0.1690 -0.1811  0.6518
 4010W        W 7754   3.096   9.336  12.631  0.0295 -0.0382  0.0783
 4011W        W 7755   4.382   3.379   3.605  0.2961 -0.0036 -0.1919
 4012W        W 7756   7.928   8.248   3.138 -0.1269 -0.0183  0.0360
 4013W        W 7757   1.444   8.290   2.864  0.1459  0.1514  0.1880
 4014W        W 7758   0.784   6.882   0.667  0.0071 -0.2523  0.1501
 4015W        W 7759   5.304   1.706  10.275 -0.1798  0.1959 -0.1999
 4016W        W 7760   8.548   2.689  10.792 -0.1479  0.2372 -0.1042
 4017W        W 7761   8.776   5.922  12.248 -0.0826  0.0095 -0.2958
 4018W        W 7762   4.151   9.556  11.245 -0.1609  0.0215  0.0359
 4019W        W 7763   8.243   0.732  10.209 -0.1353 -0.1964  0.0356
 4020W        W 7764   1.878   5.165   9.880 -0.2278 -0.0208 -0.2135
 4021W        W 7765   3.217   0.806   1.541 -0.1514 -0.1922 -0.0221
 4022W        W 7766   2.856   1.261   2.449  0.0386 -0.5268  0.2737
 4023W        W 7767   9.477   3.294   1.093 -0.0634 -0.0115  0.2252
 4024W        W 7768   0.835   8.972   1.458  0.0754  0.0944  0.1562
 4025W        W 7769   5.031   4.987  11.577 -0.0127  0.2932 -0.1853
 4026W        W 7770   5.734   2.541   0.445 -0.1455 -0.1043 -0.0145
 4027W        W 7771   5.703   8.312   3.562 -0.0301 -0.1151  0.1775
 4028W        W 7772   4.619   9.825   9.407  0.1467 -0.1440  0.0880
 4029W        W 7773   3.780   7.578   9.535 -0.0757  0.0552  0.1647
 4030W        W 7774   8.924   3.580  10.523 -0.3316 -0.0888 -0.2392
 4031W        W 7775   6.842   8.392   1.448 -0.2242  0.1297  0.2654
 4032W        W 7776   3.290   8.021   8.965 -0.0154 -0.2221 -0.1754
 4033W        W 7777   4.236   4.551   2.250  0.1857  0.4363  0.0833
 4034W        W 7778   3.730   1.785   0.419 -0.3578  0.0907 -0.1311
 4035W        W 7779   3.862   4.829   9.710  0.0124 -0.4197 -0.0758
 4036W        W 7780   9.443   8.562   2.234 -0.1885  0.0558 -0.0375
 4037W        W 7781   2.891   7.285   9.702 -0.1347 -0.1753 -0.1837
 4038W        W 7782   7.420   4.606   4.600  0.3539  0.0186  0.1539
 4039W        W 7783   3.036   1.334  10.112 -0.1083 -0.1081 -0.0089
 4040W        W 7784   3.754   8.891   0.048 -0.1455  0.0956 -0.0377
 4041W        W 7785   3.331   8.803   3.902 -0.0797  0.1008 -0.2257
 4042W        W 7786   2.385   6.442  11.795  0.1906  0.0048 -0.2466
 4043W        W 7787   7.733   4.923  10.714 -0.0442 -0.1182  0.0541
 4044W        W 7788   3.059   1.114  11.819 -0.2597 -0.0955 -0.1270
 4045W        W 7789   9.614   8.945  10.944  0.1153 -0.1972 -0.0244
 4046W        W 7790   2.059   6.593   8.926  0.1229  0.1669  0.0838
 4047W        W 7791   3.565   6.581   4.563  0.0720  0.0540  0.0536
 4048W        W 7792   8.324   1.098   2.361  0.0570 -0.1672  0.0899
 4049W        W 7793   8.349   4.300   1.582 -0.0903 -0.1594  0.2000
 4050W        W 7794   7.675   6.318   1.958 -0.4048 -0.1178 -0.3589
 4051W        W 7795   2.957   9.194   1.571  0.0996 -0.1903 -0.1163
 4052W        W 7796   9.108   1.461  12.713 -0.1434  0.0788  0.3716
 4053W        W 7797   1.914   5.343   1.978 -0.1220 -0.2465 -0.0839
 4054W        W 7798   2.607   2.585   1.128  0.1397  0.0049 -0.0115
 4055W        W 7799   7.165   3.158  12.213 -0.2822  0.3731  0.1486
 4056W        W 7800   1.119   7.797   5.085 -0.0108 -0.1096 -0.1496
 4057W        W 7801   3.079   0.548   1.916  0.0769  0.3092 -0.0955
 4058W        W 7802   8.260   1.235  10.411  0.0938 -0.0231 -0.2801
 4059W        W 7803   4.736   8.606   3.227 -0.0507  0.1252 -0.2703
 4060W        W 7804   5.912   0.052   0.705  0.0681  0.1472 -0.1938
 4061W        W 7805   4.390   0.788   3.066  0.1704 -0.0395  0.0432
 4062W        W 7806   1.090   6.005  12.924  0.2911  0.0286  0.1514
 4063W        W 7807   6.012   0.225   2.806  0.1555  0.2229  0.0900
 4064W        W 7808   4.384   2.338   0.498  0.1480 -0.2647 -0.1877
 4065W        W 7809   0.848   2.991  12.105 -0.0276  0.1846  0.2025
 4066W        W 7810   6.311   2.413   9.533 -0.0851  0.3142 -0.1632
 4067W        W 7811   0.529   7.363   0.934 -0.3641 -0.0413  0.1538
 4068W        W 7812   7.019   3.138   9.888  0.0614  0.0956  0.1764
 4069W        W 7813   5.839   4.752   0.382 -0.2234  0.2004 -0.2584
 4070W        W 7814   3.204   7.062   8.518  0.2642  0.2470 -0.0909
 4071W        W 7815   7.778   4.692   0.966  0.1408  0.0866  0.0388
 4072W        W 7816   4.047   6.427   4.486 -0.0796  0.2833  0.0053
 4073W        W 7817   8.662   5.025   0.104  0.4206  0.2075 -0.0931
 4074W        W 7818   1.637   1.303  11.136  0.2587 -0.1392 -0.2514
 4075W        W 7819   2.989   6.752   4.828 -0.3021 -0.2052 -0.0423
 4076W        W 7820   8.431   7.358   1.725 -0.2375 -0.0015  0.0933
 4077W        W 7821   5.669   9.221   2.945 -0.0912 -0.1096 -0.2571
 4078W        W 7822   1.156   5.436  11.974  0.2594 -0.4247 -0.0618
 4079W        W 7823   3.182   4.741   0.491 -0.1712  0.0101 -0.1990
 4080W        W 7824   7.821   7.044   4.280  0.0999 -0.1516 -0.0509
 4081W        W 7825   8.783   5.436  12.180 -0.2118  0.0243  0.0858
 4082W        W 7826   3.233   0.901   2.404  0.0023  0.3744 -0.3078
 4083W        W 7827   3.381   6.756   9.579 -0.2015  0.2401  0.0417
 4084W        W 7828   1.257   8.994  10.728  0.0334 -0.0701  0.1102
 4085W        W 7829   7.307   3.864  11.126  0.1740  0.1375  0.1486
 4086W        W 7830   1.522   4.721  12.779 -0.1294  0.0991 -0.0009
 4087W        W 7831   6.956   3.387   0.255  0.0097  0.0609 -0.0269
 4088W        W 7832   5.129   6.194   1.886 -0.0496  0.0869 -0.3894
 4089W        W 7833   3.824   7.754   1.131  0.0606 -0.0623  0.1211
 4090W        W 7834   0.409   7.679   1.321 -0.1889  0.4475  0.0008
 4091W        W 7835   1.865   6.258  10.297 -0.1750 -0.0513 -0.1012
 4092W        W 7836   4.078   3.729   3.287  0.2846 -0.1089  0.1961
 4093W        W 7837   2.149   9.154  10.585 -0.0025 -0.0812 -0.1804
 4094W        W 7838   6.764   6.690   0.728  0.1170 -0.3395 -0.0164
 4095W        W 7839   6.758   4.280  11.448 -0.0432  0.0671  0.0621
 4096W        W 7840   8.689   4.621   9.105 -0.2668 -0.1206  0.1487
 4097W        W 7841   8.566   1.877   9.191  0.2936  0.2205  0.2809
 4098W        W 7842   2.839   6.465   2.089  0.0747 -0.0506 -0.0269
 4099W        W 7843   1.406   1.561   1.347 -0.1880  0.1468 -0.3799
 4100W        W 7844   9.162   5.045  10.442 -0.2263  0.2937  0.3261
 4101W        W 7845   2.886   5.385  11.450  0.0866  0.1876  0.1668
 4102W        W 7846   7.967   4.256   0.163 -0.0789  0.1130  0.0810
 4103W        W 7847   4.222   1.872   2.803  0.0830  0.1287  0.1768
 4104W        W 7848   5.715   6.754   3.898  0.3504  0.0241 -0.2723
 4105W        W 7849   4.434   9.331  10.310 -0.0170  0.1331 -0.1861
 4106W        W 7850   3.126   6.399   0.655  0.0730  0.0649 -0.0138
 4107W        W 7851   3.907   0.547  10.799  0.1251  0.1532 -0.1023
 4108W        W 7852   1.958   7.552  12.037  0.2292 -0.0012 -0.0638
 4109W        W 7853   7.386   5.559   4.351  0.2695 -0.3134  0.0806
 4110W        W 7854   4.620   9.473   0.241  0.0671 -0.2770  0.0529
 4111W        W 7855   5.365   6.455  10.768 -0.0270 -0.0713 -0.1326
 4112W        W 7856   4.670   1.483   0.440 -0.0578  0.1180  0.1570
 4113W        W 7857   3.978   5.007   0.393  0.4773  0.0007  0.1204
 4114W        W 7858   1.037   2.500   3.853 -0.1627  0.1824  0.1369
 4115W        W 7859   2.300   9.809  12.941  0.0848  0.2132  0.0084
 4116W        W 7860   8.549   6.605   2.999  0.1411  0.2014 -0.2824
 4117W        W 7861   4.986   0.108   4.997  0.1621  0.0586  0.0348
 4118W        W 7862   8.831   3.265  12.600 -0.0279 -0.0801  0.1730
 4119W        W 7863   5.693   6.192  10.402  0.1098 -0.0861 -0.0401
 4120W        W 7864   5.701   5.252  10.144 -0.1389  0.3155  0.0335
 4121W        W 7865   2.420   0.636   1.339  0.1077  0.0868 -0.2731
 4122W        W 7866   6.109   3.409   1.714 -0.2954  0.1169 -0.0689
 4123W        W 7867   3.728   9.593   9.014  0.2988  0.2072  0.2567
 4124W        W 7868   1.487   8.868   0.625 -0.1937 -0.1909  0.1825
 4125W        W 7869   3.643   7.021  11.614  0.2545 -0.0088 -0.2525
 4126W        W 7870   1.306   3.181  11.948 -0.0229  0.0959 -0.1164
 4127W        W 7871   9.833   6.368  12.324 -0.3601 -0.0166 -0.1434
 4128W        W 7872   9.512   0.797  11.844 -0.0887  0.1386  0.2302
 4129W        W 7873   6.021   8.082   1.173  0.0642  0.1066  0.5417
 4130W        W 7874   7.432   5.149   9.753  0.0931  0.1347 -0.1275
 4131W        W 7875   5.884   4.249  10.862  0.0255 -0.2223 -0.2917
 4132W        W 7876   2.403   7.901  10.744 -0.1479 -0.0389  0.2985
 4133W        W 7877   4.670   4.970  12.662 -0.2560 -0.4631  0.1649
 4134W        W 7878   9.628   4.578   2.498 -0.0857 -0.1316 -0.2908
 4135W        W 7879   3.844   2.735  11.349 -0.0958 -0.1159 -0.0727
 4136W        W 7880   0.674   7.092   9.886  0.0038  0.0715 -0.0149
 4137W        W 7881   1.773   0.565   1.280  0.2207 -0.0614 -0.2017
 4138W        W 7882   0.126   3.493   0.339  0.3120  0.2380  0.1445
 4139W        W 7883   2.796   7.079   2.203 -0.0163 -0.0912  0.0677
 4140W        W 7884   9.884   8.403   3.411 -0.0296 -0.0756 -0.0901
 4141W        W 7885   3.374   5.986  10.180  0.1381 -0.2093  0.2113
 4142W        W 7886   1.509   1.412   1.846 -0.3477  0.0563 -0.0249
 4143W        W 7887   3.674   5.091  10.274  0.1698  0.0234  0.3934
 4144W        W 7888   7.715   0.684  10.808 -0.0826  0.2367 -0.0374
 4145W        W 7889   7.456   7.499  10.797 -0.3081  0.3050 -0.0551
 4146W        W 7890   0.818   3.845   2.861  0.0554  0.2045  0.6136
 4147W        W 7891   9.702   8.040   1.767  0.0193  0.4236  0.3384
 4148W        W 7892   1.722   8.496  10.183 -0.2406 -0.1156 -0.3558
 4149W        W 7893   0.007   6.693   4.177 -0.0396  0.1129  0.0060
 4150W        W 7894   2.764   7.893   8.803 -0.0209  0.0962  0.1022
 4151W        W 7895   1.640   4.487  11.103 -0.0625 -0.2518 -0.1574
 4152W        W 7896   1.389   0.236   2.692  0.1703  0.1622 -0.0666
 4153W        W 7897   5.491   0.240   1.187 -0.0994  0.1246  0.0778
 4154W        W 7898   9.276   7.675  10.677  0.1141 -0.2642  0.2062
 4155W        W 7899   5.070   5.761   3.226  0.1629  0.0010 -0.0433
 4156W        W 7900   0.882   3.276  12.954 -0.2052  0.0112 -0.0093
 4157W        W 7901   1.417   6.294  12.425  0.0746 -0.0548 -0.0462
 4158W        W 7902   2.907   2.356   2.376  0.0018  0.0920  0.1279
 4159W        W 7903   7.482   2.346   0.630  0.2951 -0.2254  0.2453
 4160W        W 7904   1.857   7.687   9.911 -0.2266  0.0689  0.1903
 4161W        W 7905   2.188   2.851   1.476 -0.0410  0.0366  0.2138
 4162W        W 7906   9.051   3.399  11.439 -0.0962  0.0382 -0.1740
 4163W        W 7907   0.208   3.061  12.307  0.0467 -0.0618 -0.0357
 4164W        W 7908   6.591   6.235   4.161  0.2624 -0.0582  0.0785
 4165W        W 7909   2.385   1.208   2.503  0.0543  0.1172  0.3696
 4166W        W 7910   7.391   3.337   3.031 -0.1165  0.5535  0.0057
 4167W        W 7911   6.736   0.718   3.596  0.1796 -0.1490 -0.0317
 4168W        W 7912   4.046   2.292   1.364  0.0461  0.0238  0.2807
 4169W        W 7913   7.272   6.208  11.969 -0.0597 -0.0057  0.0976
 4170W        W 7914   0.500   1.888  11.058 -0.1546 -0.2561 -0.2457
 4171W        W 7915   0.955   7.621   4.022  0.1739  0.0259  0.0815
 4172W        W 7916   3.435   6.966   4.224  0.1699  0.0923 -0.0947
 4173W        W 7917   9.572   5.825   3.933  0.0470 -0.0631  0.1266
 4174W        W 7918   8.562   5.678   1.593 -0.3141 -0.0542  0.1826
 4175W        W 7919   8.130   3.045  12.424  0.0326 -0.2111  0.2560
 4176W        W 7920   8.871   0.261   3.280  0.1133 -0.1731  0.0317
 4177W        W 7921   4.707   2.631   3.483 -0.1467  0.1517 -0.1638
 4178W        W 7922   1.432   6.963   9.322  0.1311 -0.2363 -0.6047
 4179W        W 7923   1.651   5.862  11.198  0.0756  0.0183  0.0096
 4180W        W 7924   2.414   1.361   3.748 -0.0435  0.0787 -0.1708
 4181W        W 7925   0.853   0.193   9.161  0.1033  0.0444  0.0035
 4182W        W 7926   8.685   4.725   9.693 -0.0771  0.1280 -0.1206
 4183W        W 7927   2.333   4.284  12.802 -0.0310  0.3424  0.1006
 4184W        W 7928   3.956   4.009  11.468  0.0361 -0.1119  0.0997
 4185W        W 7929   9.165   2.453  11.203  0.0365  0.2587  0.1756
 4186W        W 7930   2.022   3.904  10.022  0.1226 -0.0168 -0.2100
 4187W        W 7931   6.077   6.493  10.328 -0.3825  0.0466  0.1203
 4188W        W 7932   5.566   0.463   2.811 -0.3122  0.0474 -0.0522
 4189W        W 7933   7.097   2.429   1.043 -0.0017  0.1172 -0.2466
 4190W        W 7934   9.101   7.206   9.785 -0.0776  0.5269  0.2960
 4191W        W 7935   9.682   0.034   8.543  0.1519 -0.1575 -0.0722
 4192W        W 7936   0.427   6.074   9.855 -0.0005 -0.0251 -0.2198
 4193W        W 7937   5.962   3.354   3.907  0.2690 -0.0264 -0.1491
 4194W        W 7938   8.064   3.395   0.370  0.4319 -0.1429 -0.0215
 4195W        W 7939   5.452   6.786   4.349  0.3343  0.0997 -0.0776
 4196W        W 7940   5.407   7.588   2.490  0.1821 -0.2156  0.2129
 4197W        W 7941   6.748   5.502   9.544 -0.1126  0.2186  0.1492
 4198W        W 7942   1.063   1.024   4.195 -0.1465 -0.2549  0.0025
 4199W        W 7943   0.469   1.562   1.084 -0.1289 -0.0263  0.2920
 4200W        W 7944   4.011   9.717   9.713 -0.0668 -0.1851  0.2144
 4201W        W 7945   5.503   9.540   1.235  0.2899 -0.2308  0.3562
 4202W        W 7946   2.788   0.694   0.961  0.1774 -0.1573 -0.1218
 4203W        W 7947   9.008   5.508   1.336 -0.2951  0.3310  0.2016
 4204W        W 7948   8.981   3.938   2.401 -0.1948 -0.1738  0.2775
 4205W        W 7949   5.514   6.588  12.146 -0.1915 -0.3146 -0.4852
 4206W        W 7950   5.795   9.443   1.672 -0.1111  0.2050  0.1196
 4207W        W 7951   9.670   1.820   3.331 -0.1550 -0.3319 -0.0910
 4208W        W 7952   8.603   5.841  10.219  0.0764 -0.0153 -0.1072
 4209W        W 7953   4.339   7.267   1.396  0.2740  0.0140  0.4285
 4210W        W 7954   0.962   7.399   0.076 -0.2540  0.1457  0.0492
 4211W        W 7955   0.717   5.703  10.097 -0.0503 -0.1825  0.0292
 4212W        W 7956   2.545   7.885  10.234  0.0344  0.1092 -0.0025
 4213W        W 7957   1.440   7.294   3.937  0.0652  0.1092 -0.0301
 4214W        W 7958   2.422   0.457   4.432 -0.0739  0.2664  0.2788
 4215W        W 7959   5.087   4.373  12.957 -0.1457  0.1879  0.0491
 4216W        W 7960   3.088   5.537   1.261 -0.2261  0.2806  0.0834
 4217W        W 7961   0.888   5.975   0.778 -0.1284  0.0589 -0.4056
 4218W        W 7962   1.969   0.943   2.259  0.1696  0.4985  0.3073
 4219W        W 7963   7.489   9.177   9.862  0.1001 -0.0803 -0.4234
 4220W        W 7964   2.084   8.009   0.792 -0.0398 -0.1812  0.0483
 4221W        W 7965   5.267   6.243   3.110 -0.2498 -0.3685  0.0003
 4222W        W 7966   1.638   5.316   9.020 -0.0048  0.0119 -0.2242
 4223W        W 7967   6.213   3.966   0.846  0.0186  0.0880  0.1980
 4224W        W 7968   3.302   9.461  10.953  0.0402  0.0700  0.0337
 4225W        W 7969   7.307   0.210   0.787 -0.5165 -0.4264 -0.0977
 4226W        W 7970   4.459   3.883   1.844 -0.1172  0.1997 -0.0503
 4227W        W 7971   2.094   6.207   9.275  0.2083  0.0998  0.1316
 4228W        W 7972   7.574   2.223   2.889 -0.2690 -0.0385  0.0455
 4229W        W 7973   7.222   3.371   2.568 -0.2648  0.2121  0.1590
 4230W        W 7974   6.275   1.104   4.342  0.0825 -0.0340  0.2601
 4231W        W 7975   5.678   0.555  10.829 -0.1894 -0.0047  0.1283
 4232W        W 7976   0.487   4.685  12.813  0.1030  0.1167 -0.2328
 4233W        W 7977   3.038   8.626   1.806  0.1552 -0.1191 -0.1219
 4234W        W 7978   7.713   1.474  12.166 -0.1877  0.0485  0.0515
 4235W        W 7979   6.009   0.289   4.624  0.2590  0.0324 -0.0765
 4236W        W 7980   8.577   4.614  12.652 -0.0971 -0.3956 -0.1980
 4237W        W 7981   7.968   8.458   9.276 -0.3278  0.3009 -0.0512
 4238W        W 7982   6.262   0.122  11.362  0.2440  0.0765  0.2206
 4239W        W 7983   1.667   4.982   9.395  0.2859  0.2780 -0.1480
 4240W        W 7984   7.832   2.599   9.532  0.0738  0.2220 -0.0107
 4241W        W 7985   6.709   6.874  11.882 -0.0858 -0.2829 -0.2733
 4242W        W 7986   8.239   7.274   9.524 -0.0637  0.1965 -0.2158
 4243W        W 7987   0.044   7.421  12.853  0.0343 -0.1771 -0.1412
 4244W        W 7988   3.959   0.795  11.273  0.0236  0.4000  0.2734
 4245W        W 7989   8.611   5.739  12.677  0.2895  0.3099  0.2361
 4246W        W 7990   5.738   3.727  12.670  0.0355  0.1487 -0.3616
 4247W        W 7991   0.329   6.585   1.973 -0.2436 -0.1350 -0.0249
 4248W        W 7992   3.951   9.248   2.494  0.1434 -0.1724 -0.0720
 4249W        W 7993   0.672   9.291   4.727 -0.0915 -0.0035 -0.0890
 4250W        W 7994   7.193   9.470   0.363 -0.2924 -0.0889  0.1238
 4251W        W 7995   7.797   4.887  11.860 -0.3034 -0.0604 -0.2309
 4252W        W 7996   3.328   8.670   1.429 -0.0776 -0.3254 -0.0688
 4253W        W 7997   9.181   1.190  11.668  0.2871 -0.0991  0.3071
 4254W        W 7998   4.891   3.717  12.341 -0.2972 -0.0494 -0.0369
 4255W        W 7999   9.718   7.171   0.580  0.2094  0.3689  0.0253
 4256W        W 8000   4.962   4.189   3.128 -0.0487  0.1156  0.2289
 4257W        W 8001   8.350   8.295   9.547  0.1023  0.1541  0.0384
 4258W        W 8002   4.703   6.976   5.612 -0.3344 -0.1504  0.1202
 4259W        W 8003   5.853   1.432   1.694  0.1063 -0.1430  0.0818
 4260W        W 8004   7.595   8.134   8.437 -0.0690 -0.0425 -0.1945
 4261W        W 8005   4.643   7.271  12.916 -0.3007 -0.0493 -0.0616
 4262W        W 8006   2.493   8.602   2.688  0.0794  0.1612  0.2627
 4263W        W 8007   6.746   2.104   1.279 -0.4338  0.0292  0.1060
 4264W        W 8008   1.071   3.341  12.447  0.1457  0.0839  0.0734
 4265W        W 8009   9.303   1.664   2.140  0.1414 -0.2542 -0.2006
 4266W        W 8010   7.797   6.853  12.633  0.0072  0.1921 -0.2081
 4267W        W 8011   0.851   0.589  11.316  0.0214 -0.0228  0.0179
 4268W        W 8012   1.130   7.782   3.010 -0.1288  0.0147  0.1981
 4269W        W 8013   1.053   7.851  11.276 -0.0136 -0.0837  0.0375
 4270W        W 8014   0.201   7.908   3.669  0.0533  0.1601  0.1784
 4271W        W 8015   2.390   3.991  12.216  0.1663 -0.0633 -0.2802
 4272W        W 8016   3.597   7.541   3.433 -0.0996 -0.1023 -0.0759
 4273W        W 8017   8.177   9.142  11.148 -0.1207 -0.4526  0.0023
 4274W        W 8018   6.178   5.418   3.429  0.1048  0.0641 -0.1496
 4275W        W 8019   1.398   9.030  12.154  0.1190 -0.3029  0.0715
 4276W        W 8020   8.196   2.009  10.178  0.1008 -0.2630 -0.3890
 4277W        W 8021   1.602   2.927   2.172 -0.0945  0.0106 -0.1790
 4278W        W 8022   0.988   3.235   0.442 -0.0823 -0.0958 -0.2267
 4279W        W 8023   9.433   8.447   3.158 -0.3556 -0.2412 -0.0522
 4280W        W 8024   4.732   1.986   0.319  0.1460 -0.6082 -0.5212
 4281W        W 8025   5.796   1.257   3.344  0.2105 -0.2123 -0.1910
 4282W        W 8026   9.334   2.531   1.894 -0.1226  0.0106  0.0566
 4283W        W 8027   8.128   3.766  12.481  0.0656 -0.0621  0.0267
 4284W        W 8028   1.496   7.011   0.304  0.0817  0.0520 -0.1803
 4285W        W 8029   3.216   3.632   3.280 -0.2969 -0.2725 -0.0098
 4286W        W 8030   1.909   8.381   4.583 -0.0766  0.0150 -0.0589
 4287W        W 8031   5.619   4.274  11.363  0.3019  0.4929  0.0864
 4288W        W 8032   8.839   6.630   1.154 -0.0994 -0.0638 -0.3353
 4289W        W 8033   6.065   1.031  11.039  0.0862  0.3850  0.0403
 4290W        W 8034   4.007   2.694   1.063 -0.1426 -0.1674  0.0358
 4291W        W 8035   7.027   0.883   2.838  0.1635  0.0780 -0.3665
 4292W        W 8036   3.409   5.854   9.619  0.1826 -0.3971 -0.0051
 4293W        W 8037   6.124   3.053  10.111 -0.1496  0.0111 -0.2703
 4294W        W 8038   5.128   6.328  11.393  0.0774 -0.4074  0.0835
 4295W        W 8039   5.377   8.328   0.476 -0.0169  0.2751  0.2342
 4296W        W 8040   2.712   1.040   8.886 -0.0176 -0.3022  0.2677
 4297W        W 8041   8.960   1.064   9.634 -0.0644  0.0317  0.1160
 4298W        W 8042   1.538   8.344   3.728  0.3446 -0.0080 -0.3285
 4299W        W 8043   6.371   1.794  10.895  0.0982 -0.0856 -0.1130
 4300W        W 8044   5.293   8.015   3.238  0.0770  0.1472  0.0454
 4301W        W 8045   0.571   8.453   3.464  0.0547  0.0626 -0.3368
 4302W        W 8046   2.859   0.915   3.753 -0.3784 -0.1223 -0.1636
 4303W        W 8047   5.197   6.389  12.832  0.2700 -0.3288  0.1001
 4304W        W 8048   9.371   2.540   9.469  0.0966 -0.0335 -0.0966
 4305W        W 8049   1.059   8.194   3.636  0.3749 -0.0190 -0.0708
 4306W        W 8050   6.322   4.071  10.714  0.0374  0.1873 -0.1421
 4307W        W 8051   1.037   1.833  11.359 -0.0156  0.1418 -0.0989
 4308W        W 8052   6.999   4.228  12.696 -0.3070 -0.0598  0.0144
 4309W        W 8053   6.872   0.998   0.392  0.1771 -0.3460  0.1212
 4310W        W 8054   5.834   8.614   1.340 -0.0634 -0.0066  0.5136
 4311W        W 8055   3.314   5.213   2.686 -0.2324  0.4027 -0.2958
 4312W        W 8056   8.782   0.056   2.729 -0.1346  0.1087 -0.2205
 4313W        W 8057   0.134   8.434   5.183  0.1926 -0.0217  0.0081
 4314W        W 8058   6.402   7.219  12.534  0.0551  0.3044 -0.2228
 4315W        W 8059   5.163   2.392   3.548  0.0448 -0.2451  0.0684
 4316W        W 8060   6.429   8.895   2.365 -0.1048  0.0036 -0.0250
 4317W        W 8061   3.713   0.766  12.688 -0.1990  0.3046  0.0079
 4318W        W 8062   4.517   2.786   0.823  0.1446  0.0955 -0.3169
 4319W        W 8063   6.305   7.390  10.302 -0.1389  0.0267  0.2003
 4320W        W 8064   9.661   9.400   4.197 -0.0961  0.0907  0.2191
 4321W        W 8065   8.298   1.571  12.354  0.0235 -0.1891  0.1195
 4322W        W 8066   0.295   2.749  12.917 -0.0256  0.2013 -0.0849
 4323W        W 8067   7.686   9.780   0.634 -0.1766 -0.0748  0.0272
 4324W        W 8068   4.236   1.743   0.388  0.1559 -0.1664 -0.1171
 4325W        W 8069   1.014   0.429  10.353 -0.0514 -0.1664 -0.0079
 4326W        W 8070   9.362   0.625  10.836 -0.2009  0.2862  0.1895
 4327W        W 8071   3.772   8.879   0.537 -0.1866  0.0256 -0.1639
 4328W        W 8072   7.167   0.006   0.085 -0.2213  0.1205  0.2355
 4329W        W 8073   6.678   4.933   0.900 -0.0379  0.0435 -0.0445
 4330W        W 8074   3.722   5.475  10.558  0.1134 -0.0309 -0.1767
 4331W        W 8075   8.853   1.363   2.135  0.1986  0.2753 -0.0557
 4332W        W 8076   7.198   8.894   1.255 -0.0203  0.0225 -0.1260
 4333W        W 8077   5.005   7.117   1.918  0.3044 -0.0768 -0.4498
 4334W        W 8078   9.010   7.725  11.489  0.0869 -0.1835 -0.1140
 4335W        W 8079   6.962   4.543   0.487 -0.1127 -0.0258 -0.3575
 4336W        W 8080   3.677   3.382   2.158 -0.1333  0.0685  0.1612
 4337W        W 8081   5.095   0.666   4.274 -0.2152 -0.1707 -0.0206
 4338W        W 8082   2.686   7.239  11.566 -0.3308 -0.0614  0.0336
 4339W        W 8083   3.768   7.844  12.558 -0.2432  0.0583 -0.2453
 4340W        W 8084   6.083   9.281  11.917 -0.0453  0.3132  0.2526
 4341W        W 8085   3.331   3.856  10.782 -0.2276 -0.2450  0.1599
 4342W        W 8086   2.276   1.215  11.791  0.0494  0.3557  0.0141
 4343W        W 8087   4.207   3.474   0.557 -0.1630 -0.0414  0.0738
 4344W        W 8088   2.455   1.769   4.374  0.0991  0.1402  0.0165
 4345W        W 8089   2.937   0.638  11.806  0.0809  0.1776  0.0852
 4346W        W 8090   6.453   0.472   0.917  0.1593  0.0547 -0.1433
 4347W        W 8091   3.391   1.581   4.010  0.0355 -0.3621 -0.3972
 4348W        W 8092   0.110   5.008   3.304  0.1401  0.1167 -0.1783
 4349W        W 8093   9.852   3.177  12.778  0.0224  0.0712  0.2562
 4350W        W 8094   0.386   6.072   1.219 -0.1518 -0.3129  0.0109
 4351W        W 8095   1.073   7.981   0.751 -0.0810 -0.1400  0.0487
 4352W        W 8096   7.938   1.793  11.317 -0.1971  0.1856 -0.0133
 4353W        W 8097   7.212   3.726   0.908  0.0821  0.3062  0.1442
 4354W        W 8098   1.886   5.695   1.633  0.2768 -0.4206 -0.1001
 4355W        W 8099   4.678   8.303   5.067  0.1954 -0.0197  0.0616
 4356W        W 8100   3.876   0.027  10.697 -0.2905 -0.3147  0.0200
 4357W        W 8101   1.544   2.502   0.899  0.1443  0.0481  0.0306
 4358W        W 8102   0.896   3.899   3.348 -0.0402  0.3853 -0.0133
 4359W        W 8103   4.660   6.953  12.465  0.0401  0.0456  0.0383
 4360W        W 8104   1.182   5.924  12.060 -0.0421 -0.2354  0.4487
 4361W        W 8105   9.797   7.087   5.015 -0.0540  0.0398 -0.0514
 4362W        W 8106   2.675   4.448  11.009 -0.0156 -0.2577  0.0777
 4363W        W 8107   2.769   3.966   2.578  0.1981 -0.1925  0.2588
 4364W        W 8108   3.017   8.923   9.373  0.0052 -0.2692  0.0733
 4365W        W 8109   0.517   2.119   9.706 -0.1738 -0.1052  0.1935
 4366W        W 8110   6.422   7.352  12.032 -0.2984 -0.0090  0.2265
 4367W        W 8111   4.920   0.203   4.460 -0.0541 -0.0940  0.0719
 4368W        W 8112   8.587   7.824   1.601  0.3845  0.1457  0.0747
 4369W        W 8113   3.641   2.847  11.848 -0.2619  0.0248  0.1498
 4370W        W 8114   8.881   2.778  10.345  0.0269  0.0363  0.2810
 4371W        W 8115   8.677   0.296   0.429  0.0187  0.2710 -0.0642
 4372W        W 8116   4.114   8.561  10.895  0.1392 -0.0209 -0.1320
 4373W        W 8117   2.931   0.636   8.961 -0.2235 -0.1627 -0.1118
 4374W        W 8118   2.465   0.406   1.844 -0.1511  0.1560  0.1552
 4375W        W 8119   2.382   9.375   4.848  0.1282  0.1588  0.1419
 4376W        W 8120   4.080   8.901   5.186  0.0304 -0.0039  0.0397
 4377W        W 8121   9.019   6.741   3.688  0.1344  0.1515 -0.4024
 4378W        W 8122   1.264   1.139   0.579 -0.4941  0.0914  0.0598
 4379W        W 8123   5.821   9.674  12.113  0.1130 -0.0672 -0.0554
 4380W        W 8124   3.143   6.942  11.721  0.1360  0.1729 -0.0276
 4381W        W 8125   7.477   3.286  10.638  0.0715 -0.1237 -0.2048
 4382W        W 8126   1.167   9.220   1.760  0.1224 -0.2852 -0.1326
 4383W        W 8127   3.900   5.769  10.226 -0.0773 -0.1615 -0.3233
 4384W        W 8128   1.114   6.408   4.817 -0.3778  0.4392  0.4081
 4385W        W 8129   1.282   8.781   2.865  0.1927 -0.0964 -0.0334
 4386W        W 8130   5.537   9.125   9.397  0.1648 -0.0382  0.4649
 4387W        W 8131   8.267   4.654   0.071  0.3377  0.0468 -0.0077
 4388W        W 8132   3.785   8.018   1.589  0.1347 -0.0717  0.0193
 4389W        W 8133   7.358   9.716   9.807  0.0353 -0.2278 -0.2202
 4390W        W 8134   2.085   7.908   1.299  0.0069 -0.0434  0.2837
 4391W        W 8135   9.193   2.134   9.149  0.0993 -0.0010 -0.0752
 4392W        W 8136   4.338   1.340   3.895 -0.2420  0.0945  0.0647
 4393W        W 8137   8.383   0.324   8.856  0.0396 -0.0575 -0.0263
 4394W        W 8138   3.681   5.317   2.195  0.2180  0.2195 -0.0991
 4395W        W 8139   6.311   7.169   3.390 -0.0189  0.1613 -0.0597
 4396W        W 8140   0.093   7.501   8.695 -0.2329 -0.0224  0.3082
 4397W        W 8141   6.760   7.810   3.904 -0.1768 -0.0016 -0.4243
 4398W        W 8142   3.795   9.352  10.845  0.2123  0.1361 -0.1330
 4399W        W 8143   7.377   4.070   0.538 -0.0168  0.0401 -0.2161
 4400W        W 8144   3.793   2.077   2.609 -0.4787  0.3074  0.3022
 4401W        W 8145   0.141   4.905   8.964 -0.0547  0.2443 -0.0285
 4402W        W 8146   6.291   2.423   1.078  0.0249 -0.1312  0.0458
 4403W        W 8147   5.393   7.978  11.182  0.2070 -0.1684 -0.0811
 4404W        W 8148   7.853   8.846   0.380 -0.2325 -0.3876 -0.1665
 4405W        W 8149   6.970   2.213  12.485 -0.1356 -0.3883 -0.5814
 4406W        W 8150   6.094   6.048   1.494 -0.0268 -0.1509 -0.0176
 4407W        W 8151   9.844   4.106  12.612 -0.1295 -0.2158  0.2050
 4408W        W 8152   3.292   8.765   0.463  0.2217 -0.2632  0.1689
 4409W        W 8153   5.461   0.635   1.646  0.0360 -0.1255 -0.1828
 4410W        W 8154   7.730   5.140   4.016 -0.1262  0.2695 -0.1507
 4411W        W 8155   2.963   3.083  10.766 -0.3489 -0.1447 -0.1006
 4412W        W 8156   7.173   0.755   4.333  0.1147  0.1220 -0.0964
 4413W        W 8157   4.381   7.568   0.792 -0.1403 -0.1267  0.0633
 4414W        W 8158   7.876   7.945  10.114 -0.1379  0.0529  0.0370
 4415W        W 8159   0.584   7.514   3.667  0.2819 -0.2670  0.2081
 4416W        W 8160   1.968   3.824  11.919 -0.2675 -0.1096 -0.1818
 4417W        W 8161   0.367   2.858  10.000 -0.0874 -0.1389  0.0036
 4418W        W 8162   2.969   0.334   8.232 -0.2108 -0.1585  0.0523
 4419W        W 8163   0.219   3.172  11.634 -0.0235 -0.2542  0.6114
 4420W        W 8164   6.597   6.529   2.159 -0.4802  0.0589 -0.1481
 4421W        W 8165   1.511   4.089  11.947  0.2475 -0.0750 -0.2330
 4422W        W 8166   7.091   8.855   9.775  0.1542  0.1810 -0.1708
 4423W        W 8167   1.918   5.668  11.586 -0.1667  0.1822 -0.4542
 4424W        W 8168   0.444   0.920   2.718  0.3422 -0.2620 -0.1851
 4425W        W 8169   7.316   0.315   1.494 -0.0410 -0.0970 -0.0893
 4426W        W 8170   2.896   2.695   0.582  0.2229  0.1738  0.1615
 4427W        W 8171   8.475   6.417   4.029 -0.0182  0.1328  0.0211
 4428W        W 8172   1.051   2.461   3.375  0.2627  0.1042  0.2727
 4429W        W 8173   2.663   8.820  10.144 -0.0934  0.1500  0.0410
 4430W        W 8174   8.928   8.150   3.813  0.1043  0.1897  0.1576
 4431W        W 8175   1.628   5.106   1.489  0.0016  0.2290  0.1847
 4432W        W 8176   4.416   5.652  11.155 -0.1641  0.0248 -0.2027
 4433W        W 8177   0.172   8.012  10.355  0.0865 -0.1629  0.1501
 4434W        W 8178   1.501   7.376  11.944  0.0875  0.4928 -0.2533
 4435W        W 8179   7.652   3.625   3.361  0.1794  0.2886  0.1890
 4436W        W 8180   8.961   5.655   9.477 -0.4083 -0.0650 -0.0143
 4437W        W 8181   3.589   8.917   9.117 -0.1577 -0.1160 -0.0359
 4438W        W 8182   1.844   1.287  10.543 -0.2068 -0.2145 -0.0597
 4439W        W 8183   9.713   2.546   1.535  0.1156 -0.1308  0.2879
 4440W        W 8184   0.254   1.318   2.341 -0.3668 -0.2983 -0.2079
 4441W        W 8185   4.386   0.306  11.519  0.2088 -0.1244  0.1550
 4442W        W 8186   1.948   0.036   4.435 -0.1469 -0.2651  0.0878
 4443W        W 8187   9.858   5.919   3.531 -0.0115  0.0337  0.0104
 4444W        W 8188   3.653   7.645   7.824 -0.2837 -0.0934 -0.1659
 4445W        W 8189   0.030   5.269   1.687  0.1862  0.0307  0.0509
 4446W        W 8190   9.288   8.267   1.225 -0.0658 -0.1327 -0.2523
 4447W        W 8191   8.643   5.421   0.485 -0.0255  0.2863 -0.3108
 4448W        W 8192   8.996   2.893   9.518 -0.0241 -0.1904  0.0698
 4449W        W 8193   0.483   5.389   2.524  0.2090 -0.0201 -0.0345
 4450W        W 8194   7.651   3.323   1.679 -0.2706 -0.1379  0.2424
 4451W        W 8195   7.339   1.336   3.526 -0.1550  0.2066 -0.0626
 4452W        W 8196   5.256   3.653  11.958 -0.0070  0.1724 -0.0612
 4453W        W 8197   1.553   1.801   9.261 -0.0005  0.1848  0.1468
 4454W        W 8198   3.334   4.723   2.639  0.1036  0.1501  0.1071
 4455W        W 8199   1.399   1.596  12.296 -0.1624  0.2010 -0.2365
 4456W        W 8200   2.343   2.815  11.331 -0.2240 -0.1667  0.0293
 4457W        W 8201   4.624   8.611   9.325  0.2803 -0.2974 -0.0831
 4458W        W 8202   1.298   0.614   1.256  0.1138 -0.2877  0.0478
 4459W        W 8203   5.726   8.838  10.345  0.1022 -0.1929  0.0071
 4460W        W 8204   6.192   0.512  10.962 -0.0618  0.1396  0.0311
 4461W        W 8205   0.694   6.083  12.124 -0.0807  0.0235 -0.4375
 4462W        W 8206   7.540   4.323   1.968 -0.1017  0.0854 -0.0225
 4463W        W 8207   8.499   1.012   1.021  0.2579 -0.1758  0.2559
 4464W        W 8208   8.569   5.111   3.899  0.0825  0.3297  0.2965
 4465W        W 8209   2.924   9.138   0.501  0.1702  0.0044 -0.0356
 4466W        W 8210   1.603   0.725   3.845  0.2017  0.2790 -0.2120
 4467W        W 8211   8.912   4.949  12.253  0.0487 -0.2261 -0.2794
 4468W        W 8212   5.057   5.312  12.545 -0.0045 -0.0337  0.1159
 4469W        W 8213   3.561   7.722   0.116  0.1233  0.0399 -0.2337
 4470W        W 8214   1.760   9.275   2.488 -0.1334 -0.1470 -0.0703
 4471W        W 8215   7.756   4.624  10.236 -0.1038  0.1575 -0.0620
 4472W        W 8216   3.345   7.030  12.276  0.1470 -0.0505  0.0542
 4473W        W 8217   2.681   0.792  12.697 -0.0273  0.0343  0.0118
 4474W        W 8218   4.375   0.593  11.921  0.0972  0.0634 -0.0909
 4475W        W 8219   5.111   1.375  11.897 -0.0001 -0.0440 -0.2523
 4476W        W 8220   5.480   9.525  10.866  0.4393  0.0476  0.0487
 4477W        W 8221   2.921   3.865   9.932 -0.0976 -0.2266  0.1447
 4478W        W 8222   8.483   0.407  12.655  0.0159  0.2769  0.3847
 4479W        W 8223   7.312   8.077   3.914 -0.2088  0.1026  0.2039
 4480W        W 8224   7.505   9.538  12.291 -0.1550  0.1778  0.0477
 4481W        W 8225   1.502   6.865   1.148  0.0180  0.1226  0.1104
 4482W        W 8226   4.855   0.918   4.596  0.1906 -0.0133 -0.2113
 4483W        W 8227   8.052   7.680   1.433  0.0365  0.1579  0.3327
 4484W        W 8228   2.744   2.746  12.205  0.2510 -0.0318  0.1910
 4485W        W 8229   0.981   9.211   3.712 -0.1971 -0.0363 -0.0391
 4486W        W 8230   1.324   7.024  10.391  0.0702 -0.0720  0.0317
 4487W        W 8231   9.432   4.897   3.906 -0.1270  0.0751  0.0808
 4488W        W 8232   5.490   2.969   1.268  0.1318 -0.5049 -0.1343
 4489W        W 8233   8.681   8.710   4.232  0.2005 -0.1974  0.0047
 4490W        W 8234   8.713   9.692   3.961 -0.2066  0.1447  0.1563
 4491W        W 8235   8.524   7.286   3.837  0.1475 -0.0821 -0.0801
 4492W        W 8236   1.821   7.960  12.859  0.0540 -0.2641 -0.0604
 4493W        W 8237   5.109   9.333  11.448 -0.2949 -0.3108 -0.0548
 4494W        W 8238   8.501   7.561   2.807  0.1165  0.1762  0.1559
 4495W        W 8239   9.658   1.809   3.802 -0.3748  0.3891 -0.0230
 4496W        W 8240   7.752   7.825  12.778  0.0736 -0.1872 -0.1450
 4497W        W 8241   2.188   1.904   3.373  0.0157  0.0854 -0.0678
 4498W        W 8242   9.234   3.967   0.372 -0.2727 -0.2987  0.0425
 4499W        W 8243   1.924   2.227   0.776 -0.0021  0.1333 -0.1734
 4500W        W 8244   9.339   8.467   1.749 -0.1495  0.3953 -0.1863
 4501W        W 8245   1.146   5.211  11.513 -0.0468 -0.0259 -0.2006
 4502W        W 8246   1.788   5.906   0.344  0.2345  0.0642  0.1595
 4503W        W 8247   2.655   8.250   1.875  0.1924  0.1892  0.1900
 4504W        W 8248   1.531   9.660  12.307 -0.0202 -0.2736  0.0164
 4505W        W 8249   6.479   4.418  12.742  0.0907 -0.1579 -0.1822
 4506W        W 8250   7.961   3.855   4.241 -0.0782  0.1341  0.2177
 4507W        W 8251   9.826   5.431  10.506  0.0637 -0.3690 -0.0583
 4508W        W 8252   3.146   1.806  11.661  0.1603 -0.0519  0.1173
 4509W        W 8253   1.590   9.323   0.285 -0.1559 -0.3384 -0.0406
 4510W        W 8254   6.425   6.016   2.379  0.0941  0.0705  0.0605
 4511W        W 8255   7.166   9.125   9.394 -0.0330  0.1169  0.2229
 4512W        W 8256   2.811   9.516   1.928  0.2242  0.2551  0.0766
 4513W        W 8257   6.329   6.712   1.020 -0.0547 -0.0155 -0.2368
 4514W        W 8258   3.674   6.758  12.001 -0.4808  0.1286 -0.0265
 4515W        W 8259   0.449   4.054  12.764  0.0515 -0.0910 -0.2059
 4516W        W 8260   6.789   1.699   0.772 -0.1409 -0.1149  0.0098
 4517W        W 8261   2.091   9.462  10.979 -0.1805 -0.0481  0.1714
 4518W        W 8262   5.675   2.832  10.249 -0.0969  0.0102 -0.1433
 4519W        W 8263   8.804   4.054   8.908 -0.2665  0.1302 -0.2794
 4520W        W 8264   6.614   2.274   9.911  0.0013 -0.1376  0.1001
 4521W        W 8265   0.432   5.612   1.606  0.0350  0.0075  0.1130
 4522W        W 8266   4.769   0.888  11.961  0.0583 -0.0431  0.2968
 4523W        W 8267   6.366   2.863   3.241  0.0868 -0.3407 -0.0096
 4524W        W 8268   1.393   0.746  10.388 -0.2426  0.0672  0.0360
 4525W        W 8269   4.186   5.494   1.175  0.1092 -0.1206 -0.0928
 4526W        W 8270   2.695   4.913  12.119  0.0717  0.0591  0.5138
 4527W        W 8271   9.299   2.154   3.530  0.0332 -0.1093  0.1411
 4528W        W 8272   6.883   4.569  12.268  0.1802  0.2279  0.1075
 4529W        W 8273   0.193   9.627   3.895 -0.4453  0.2441 -0.1844
 4530W        W 8274   4.451   6.016   3.064  0.1399  0.0285  0.1318
 4531W        W 8275   0.268   5.059   9.414 -0.2285  0.2874 -0.1986
 4532W        W 8276   9.248   4.636   1.566 -0.1166 -0.0367 -0.2963
 4533W        W 8277   8.101   6.358  11.509 -0.1670  0.0157  0.0859
 4534W        W 8278   2.695   7.810   3.393  0.0665 -0.0867 -0.0584
 4535W        W 8279   6.019   5.632   0.358  0.0672  0.0083 -0.0222
 4536W        W 8280   4.058   4.168   2.009 -0.3040  0.2468 -0.3141
 4537W        W 8281   2.687   8.303   0.337  0.3060  0.2409 -0.1615
 4538W        W 8282   6.273   3.599   4.256  0.2987  0.1040  0.2536
 4539W        W 8283   8.255   7.583   0.549  0.2516 -0.3766  0.1056
 4540W        W 8284   0.969   0.687  10.784  0.1433 -0.1449 -0.1412
 4541W        W 8285   3.726   7.757  11.951  0.2355 -0.1972  0.2689
 4542W        W 8286   4.515   8.893   1.875 -0.4139 -0.1138 -0.3183
 4543W        W 8287   5.676   6.742  10.464  0.0640  0.3778  0.3565
 4544W        W 8288   9.779   3.875   1.147  0.3077  0.0027  0.1008
 4545W        W 8289   8.202   9.844   9.664  0.3195  0.0238  0.1153
 4546W        W 8290   7.820   6.805  11.244 -0.0387 -0.1157  0.0280
 4547W        W 8291   0.523   9.241   2.920  0.0706 -0.1654 -0.3314
 4548W        W 8292   7.972   0.331   4.069 -0.0631  0.0707  0.0113
 4549W        W 8293   9.062   0.229  10.652  0.1860  0.1468 -0.2443
 4550W        W 8294   5.112   0.672   2.883  0.1661 -0.0333  0.1473
 4551W        W 8295   2.915   2.985   2.559  0.2780  0.2221 -0.0086
 4552W        W 8296   0.783   5.316  10.492 -0.0158  0.2291 -0.0666
 4553W        W 8297   3.315   5.585   3.600 -0.1798  0.1576  0.1289
 4554W        W 8298   1.159   7.844   0.241 -0.1661  0.1477 -0.1466
 4555W        W 8299   0.704   4.318   8.579 -0.0701 -0.1382  0.1296
 4556W        W 8300   8.165   7.114   0.767 -0.0566 -0.1611 -0.0320
 4557W        W 8301   9.700   7.801   9.416  0.0018 -0.0281 -0.0593
 4558W        W 8302   0.775   0.398   0.995  0.0952 -0.0221 -0.1953
 4559W        W 8303   6.723   8.901  11.111  0.2190  0.0736  0.0703
 4560W        W 8304   4.716   7.994  11.481 -0.2145  0.2420 -0.0612
 4561W        W 8305   0.991   8.874   4.468  0.1748  0.1218 -0.3714
 4562W        W 8306   4.004   1.334  10.353 -0.1032 -0.0853 -0.1904
 4563W        W 8307   4.089   1.228  11.507  0.1385 -0.0548  0.3653
 4564W        W 8308   3.294   9.689   3.338  0.3904  0.0636 -0.0379
 4565W        W 8309   7.212   8.002   1.503  0.1047  0.0950 -0.2912
 4566W        W 8310   2.993   7.720   2.976 -0.4800  0.0708 -0.0827
 4567W        W 8311   8.228   6.853   1.498  0.3250 -0.1654  0.0775
 4568W        W 8312   2.804   2.339  10.117 -0.0646  0.0087  0.0971
 4569W        W 8313   6.140   1.415  12.908 -0.0527 -0.3804  0.1760
 4570W        W 8314   1.099   3.994   9.458  0.2336  0.1934  0.1575
 4571W        W 8315   0.151   0.720   1.577 -0.1170 -0.1724  0.0492
 4572W        W 8316   2.125   4.910  10.347  0.0041  0.0733  0.3161
 4573W        W 8317   4.612   9.892   2.165  0.1250 -0.2655 -0.2307
 4574W        W 8318   9.810   2.801   9.849 -0.2665 -0.1701 -0.1655
 4575W        W 8319   9.891   8.517   2.876  0.0297  0.2998 -0.0056
 4576W        W 8320   7.360   3.503  12.904  0.0291 -0.0216  0.3026
 4577W        W 8321   5.302   5.798   2.727  0.4449  0.0772 -0.0046
 4578W        W 8322   3.801   3.347   0.917 -0.1239 -0.2965 -0.3929
 4579W        W 8323   9.704   9.380   1.866 -0.1558 -0.1402 -0.2066
 4580W        W 8324   3.078   6.323  11.713  0.1228 -0.0252 -0.2280
 4581W        W 8325   6.017   3.153   1.263  0.0460 -0.0925  0.0502
 4582W        W 8326   6.150   7.222   0.289  0.1399  0.0025 -0.0990
 4583W        W 8327   5.595   0.230   1.898  0.2727  0.2294  0.3413
 4584W        W 8328   5.781   4.691   2.326  0.0270  0.0497  0.3547
 4585W        W 8329   1.950   2.344   9.889  0.0733 -0.3068 -0.0477
 4586W        W 8330   0.425   9.578  10.584 -0.1796 -0.1571 -0.1422
 4587W        W 8331   9.732   0.175  12.261 -0.0256  0.1814 -0.1684
 4588W        W 8332   9.059   4.831   2.345  0.1476 -0.1301  0.2075
 4589W        W 8333   2.575   7.587  11.863 -0.1303 -0.1770 -0.1225
 4590W        W 8334   8.472   4.936   0.565 -0.3943  0.0632 -0.1428
 4591W        W 8335   5.192   9.016   2.925 -0.1227 -0.0645  0.0190
 4592W        W 8336   5.862   4.681   3.540 -0.0108 -0.0917  0.4302
 4593W        W 8337   3.371   7.685  12.286 -0.0475 -0.0554  0.0285
 4594W        W 8338   7.788   5.129  10.187 -0.2530  0.0387  0.0909
 4595W        W 8339   0.144   1.455   0.471  0.1269  0.2506 -0.1145
 4596W        W 8340   3.478   7.060   3.345  0.1912 -0.1335 -0.1725
 4597W        W 8341   3.481   0.439  12.351 -0.0679  0.0871  0.1695
 4598W        W 8342   0.206   6.795  11.584 -0.4215  0.0220  0.0889
 4599W        W 8343   2.746   9.263  12.223 -0.1223  0.2368  0.1699
 4600W        W 8344   9.475   5.295   4.968  0.0342  0.0459 -0.2995
 4601W        W 8345   9.433   5.876   0.024  0.0097 -0.0581  0.2426
 4602W        W 8346   2.026   7.000   1.191 -0.2007 -0.1849  0.1016
 4603W        W 8347   1.293   0.058   9.720 -0.2098  0.1474  0.0814
 4604W        W 8348   7.263   1.335   9.909  0.0013 -0.0320  0.4774
 4605W        W 8349   2.817   8.513  10.962 -0.3231 -0.1666 -0.1174
 4606W        W 8350   5.475   2.970   9.709 -0.0320 -0.1306  0.1898
 4607W        W 8351   1.217   2.630   1.284  0.3517 -0.1414 -0.0162
 4608W        W 8352   9.447   9.874  12.784 -0.0337 -0.2440 -0.4205
 4609W        W 8353   8.644   6.807   0.750  0.2128 -0.0213  0.1614
 4610W        W 8354   7.865   2.551   0.958 -0.3886 -0.0693 -0.0730
 4611W        W 8355   5.090   8.959   8.905 -0.0063 -0.2315 -0.2603
 4612W        W 8356   0.743   9.276   4.185 -0.0496 -0.4394  0.0519
 4613W        W 8357   0.728   2.529   0.082  0.3792  0.3009 -0.0744
 4614W        W 8358   0.676   5.640   1.133 -0.1177 -0.2226  0.0155
 4615W        W 8359   6.971   0.860  11.493  0.0295 -0.1307  0.3060
 4616W        W 8360   9.401   0.410   4.019  0.1255 -0.0523 -0.4772
 4617W        W 8361   6.540   6.717  12.553 -0.1015  0.0392  0.1262
 4618W        W 8362   7.078   0.387   8.356 -0.0459 -0.0058 -0.1669
 4619W        W 8363   5.513   8.334  11.642  0.0231  0.1589 -0.1240
 4620W        W 8364   6.102   4.126  12.787 -0.1223  0.2787  0.1797
 4621W        W 8365   1.237   7.159   2.505 -0.0981 -0.1053 -0.1969
 4622W        W 8366   9.689   1.165   1.503 -0.0662 -0.0917  0.0030
 4623W        W 8367   8.548   1.950   1.629  0.0798  0.0751  0.0553
 4624W        W 8368   1.340   8.832  10.069 -0.2113  0.0199 -0.2198
 4625W        W 8369   4.181   0.861  12.887 -0.0147 -0.1238 -0.2116
 4626W        W 8370   0.715   8.146   1.800  0.1464  0.1677 -0.0371
 4627W        W 8371   7.255   8.395   2.667 -0.2073  0.2105 -0.1303
 4628W        W 8372   4.374   6.141   1.127 -0.2299 -0.0696  0.1643
 4629W        W 8373   5.372   1.386   0.521 -0.1967 -0.0450  0.0652
 4630W        W 8374   5.198   5.371   1.046 -0.3508 -0.2432  0.0358
 4631W        W 8375   5.295   8.754  12.984 -0.0317  0.1956 -0.0117
 4632W        W 8376   1.017   6.184   9.779  0.0552  0.2950 -0.1334
 4633W        W 8377   9.019   0.802  11.939  0.1862 -0.0311  0.0840
 4634W        W 8378   5.045   8.802   1.881  0.2587  0.0794 -0.2348
 4635W        W 8379   0.889   5.605   9.109  0.1014  0.0967  0.2428
 4636W        W 8380   7.850   0.303   1.558 -0.0676 -0.0508  0.3271
 4637W        W 8381   2.174   5.795  11.117  0.0976  0.2448  0.0104
 4638W        W 8382   9.696   9.475   8.437 -0.0622  0.4224 -0.3042
 4639W        W 8383   3.383   8.514  12.964  0.1919 -0.0485  0.2070
 4640W        W 8384   9.799   1.603  10.996 -0.1097 -0.3593 -0.2174
 4641W        W 8385   6.283   0.772   1.659  0.2284  0.2753  0.0828
 4642W        W 8386   4.405   2.579  12.576 -0.0575 -0.1093  0.2082
 4643W        W 8387   7.025   1.031  12.473  0.0033  0.2077 -0.1476
 4644W        W 8388   4.143   9.321   0.665  0.1016 -0.0760 -0.0056
 4645W        W 8389   6.006   2.854   1.692 -0.1590  0.1130 -0.1575
 4646W        W 8390   5.645   3.503   2.995  0.0453  0.2607  0.2418
 4647W        W 8391   9.872   0.426  11.749  0.0450 -0.2236 -0.3380
 4648W        W 8392   0.003   1.675   9.398  0.2653 -0.1944  0.1395
 4649W        W 8393   4.751   2.864  12.893 -0.0771  0.0554 -0.1978
 4650W        W 8394   4.001   6.203   2.486  0.0800 -0.1450  0.0221
 4651W        W 8395   9.616   4.970   0.334  0.0551  0.2790  0.1320
 4652W        W 8396   3.012   7.409  12.545 -0.0040 -0.3550 -0.1535
 4653W        W 8397   4.292   0.373   0.249  0.0333 -0.3006  0.3319
 4654W        W 8398   4.566   4.810   3.557  0.2213 -0.0177  0.2786
 4655W        W 8399   0.757   9.689   4.431 -0.1052  0.0160 -0.0006
 4656W        W 8400   0.716   6.453  11.253 -0.0984 -0.4499 -0.0931
 4657W        W 8401   5.944   7.050  10.176 -0.0955 -0.0009 -0.4675
 4658W        W 8402   9.499   6.778   0.401 -0.0377 -0.4454 -0.1186
 4659W        W 8403   4.337   5.882   3.816 -0.0356  0.0203 -0.0157
 4660W        W 8404   4.582   3.502   3.129 -0.1420 -0.1609  0.0132
 4661W        W 8405   3.225   0.334   4.203  0.0583  0.0999  0.1780
 4662W        W 8406   1.496   6.874   8.825 -0.1420 -0.1126  0.1638
 4663W        W 8407   7.221   0.419  11.621  0.0568 -0.0356 -0.0457
 4664W        W 8408   9.512   3.305   0.205 -0.0171 -0.2777 -0.1820
 4665W        W 8409   2.870   8.671   3.728  0.3351  0.2456  0.3798
 4666W        W 8410   4.963   4.157  10.691 -0.1363  0.2599  0.0739
 4667W        W 8411   0.659   9.189   9.507  0.1295 -0.0008  0.3165
 4668W        W 8412   4.932   3.078   0.302  0.2680  0.2702  0.1348
 4669W        W 8413   9.613   2.065   1.195 -0.0918  0.0062  0.3103
 4670W        W 8414   3.906   2.130  11.591 -0.1320 -0.1158 -0.1315
 4671W        W 8415   8.137   9.332   1.723  0.1108 -0.0634  0.1463
 4672W        W 8416   4.534   5.886   9.741  0.1281 -0.0989  0.2653
 4673W        W 8417   5.787   0.009   4.169  0.0834  0.3052  0.1677
 4674W        W 8418   6.983   6.623  12.738  0.0824 -0.0677 -0.1108
 4675W        W 8419   3.263   5.598   0.014 -0.0971  0.1717  0.0718
 4676W        W 8420   0.645   5.076  11.333 -0.1709 -0.0354  0.2328
 4677W        W 8421   9.789   5.855   1.866  0.1480  0.1078 -0.3359
 4678W        W 8422   6.065   7.889   3.729 -0.1530  0.1952 -0.3282
 4679W        W 8423   3.634   4.269  12.731 -0.0831 -0.1279 -0.2032
 4680W        W 8424   6.442   6.631   3.290 -0.2075  0.2260 -0.1243
 4681W        W 8425   8.545   2.711   8.635  0.1653 -0.3639 -0.2514
 4682W        W 8426   2.875   6.295   9.457 -0.6080  0.1631  0.0683
 4683W        W 8427   4.559   7.222   9.183 -0.3132  0.0143 -0.0977
 4684W        W 8428   6.145   6.234   0.329 -0.1542  0.1022  0.0806
 4685W        W 8429   4.315   2.134   1.806  0.0224  0.1755  0.1205
 4686W        W 8430   6.986   4.064   1.770  0.1251 -0.3546 -0.0575
 4687W        W 8431   4.371   8.436   8.781 -0.0390  0.2582 -0.2055
 4688W        W 8432   1.907   0.630  11.617  0.3676 -0.1685 -0.0859
 4689W        W 8433   0.493   2.770  11.108 -0.2721  0.3982  0.0811
 4690W        W 8434   7.439   0.771   0.790  0.1532  0.0131  0.0090
 4691W        W 8435   6.212   4.166  11.800  0.1607  0.0764 -0.3039
 4692W        W 8436   1.641   6.766   4.046  0.0809  0.2894 -0.1488
 4693W        W 8437   8.836   0.860   7.873  0.1692  0.1263  0.0012
 4694W        W 8438   3.998   6.222   0.666 -0.2917  0.0702 -0.0927
 4695W        W 8439   0.249   6.473  11.182  0.0655  0.0591  0.0749
 4696W        W 8440   7.644   3.269   3.707 -0.0647  0.1346 -0.0671
 4697W        W 8441   4.818   6.364  10.607  0.3609  0.0603  0.1573
 4698W        W 8442   1.903   1.537  12.562 -0.0564 -0.3097 -0.0189
 4699W        W 8443   9.332   2.964   1.505 -0.3296 -0.0121  0.2718
 4700W        W 8444   7.240   3.947  10.627 -0.2024 -0.1845  0.0391
 4701W        W 8445   0.879   5.773  12.472  0.3298  0.4219  0.0681
 4702W        W 8446   6.972   8.891  12.703  0.1913  0.3855  0.4217
 4703W        W 8447   2.628   1.655   2.133  0.3580  0.3226  0.4587
 4704W        W 8448   9.251   5.070  11.815  0.0733  0.3913  0.3155
 4705W        W 8449   2.459   3.357   0.078  0.2210 -0.2797 -0.0344
 4706W        W 8450   5.960   8.297  11.895 -0.0727  0.2569 -0.2755
 4707W        W 8451   8.716   0.699   8.877  0.0561 -0.1286 -0.0330
 4708W        W 8452   2.707   1.431   1.694 -0.0032  0.0254  0.4337
 4709W        W 8453   0.664   1.794   9.283  0.0007  0.0357  0.1728
 4710W        W 8454   4.166   4.776   0.843 -0.1723 -0.1637 -0.1555
 4711W        W 8455   6.465   3.818   3.855  0.1099  0.0645  0.0901
 4712W        W 8456   1.177   0.547   4.010  0.3195  0.0771  0.0385
 4713W        W 8457   0.214   6.837   9.957 -0.1177  0.0264 -0.0659
 4714W        W 8458   6.340   1.408   0.463 -0.2835 -0.0661 -0.0699
 4715W        W 8459   1.828   3.559   1.699  0.2824  0.0161  0.1518
 4716W        W 8460   2.719   5.717  10.225  0.1315 -0.1650  0.2787
 4717W        W 8461   8.999   5.346   2.239 -0.3847 -0.1807 -0.1245
 4718W        W 8462   2.616   0.420   2.914  0.0138  0.0097  0.3740
 4719W        W 8463   1.373   0.861  12.218  0.1238 -0.0663 -0.0031
 4720W        W 8464   4.136   9.019  11.151  0.2590  0.0432 -0.2204
 4721W        W 8465   3.438   2.430  11.546  0.1298  0.1727  0.1048
 4722W        W 8466   2.418   2.370   3.158  0.0407 -0.0656 -0.1972
 4723W        W 8467   3.607   0.979   4.125 -0.0891  0.1614  0.2221
 4724W        W 8468   4.380   1.742   2.313  0.2972  0.0066  0.3195
 4725W        W 8469   2.046   4.455   0.850  0.1919  0.3075 -0.3055
 4726W        W 8470   7.838   1.108   3.648  0.2922  0.2996 -0.0763
 4727W        W 8471   9.729   7.878   3.290 -0.2432 -0.0547 -0.0198
 4728W        W 8472   8.798   3.534  11.038  0.4427 -0.2191 -0.0727
 4729W        W 8473   2.119   5.281   1.512 -0.2241 -0.1240 -0.1243
 4730W        W 8474   7.902   4.255   1.229  0.2841  0.2831 -0.2543
 4731W        W 8475   7.453   7.351   4.359  0.1064 -0.1955  0.0024
 4732W        W 8476   6.240   6.941  11.584  0.1755  0.2414  0.0586
 4733W        W 8477   3.868   1.868   2.174  0.0097  0.1033 -0.1178
 4734W        W 8478   7.078   7.593   1.186 -0.1098  0.1953 -0.0983
 4735W        W 8479   9.393   9.730   1.595 -0.0502 -0.3121  0.2994
 4736W        W 8480   1.781   7.253   8.589  0.3216  0.1300  0.1345
 4737W        W 8481   4.234   5.787  12.317  0.0136 -0.0576  0.0111
 4738W        W 8482   8.722   5.176   9.045 -0.0511  0.0098 -0.2942
 4739W        W 8483   3.131   6.624  10.481 -0.2201 -0.2198  0.0426
 4740W        W 8484   4.170   1.190   1.657  0.2248  0.0257  0.0851
 4741W        W 8485   1.333   6.357   3.990 -0.1217  0.0123  0.1058
 4742W        W 8486   7.237   7.183   3.556  0.2342 -0.3938 -0.0987
 4743W        W 8487   8.483   2.369   1.997 -0.0778  0.1747 -0.0027
 4744W        W 8488   6.113   9.213   2.712 -0.2127 -0.3603  0.1630
 4745W        W 8489   1.234   0.334  12.343 -0.2150  0.0406 -0.0901
 4746W        W 8490   0.917   0.939  11.729  0.0464 -0.0475 -0.1843
 4747W        W 8491   0.072   0.988   4.514 -0.1634 -0.2594  0.1909
 4748W        W 8492   3.982   5.997   4.274  0.1952 -0.0220  0.0114
 4749W        W 8493   0.148   2.747  11.939 -0.0830  0.0073  0.2130
 4750W        W 8494   7.208   5.425   1.075 -0.6548  0.0811  0.0206
 4751W        W 8495   5.835   1.450   0.320 -0.2792 -0.0512 -0.1286
 4752W        W 8496   0.080   2.235  12.280 -0.0621  0.0145 -0.3921
 4753W        W 8497   2.129   6.303   8.252 -0.2720  0.0279  0.3345
 4754W        W 8498   8.089   0.361  11.716 -0.2551  0.1402 -0.0261
 4755W        W 8499   9.119   2.393  10.285 -0.1708 -0.1006 -0.1056
 4756W        W 8500   0.232   3.220   4.969  0.0705  0.1605  0.6058
 4757W        W 8501   3.300   8.950   0.977 -0.2639  0.2022  0.0279
 4758W        W 8502   2.652   0.972   9.893  0.2493  0.2792  0.1368
 4759W        W 8503   2.750   6.220  12.071  0.3302 -0.1787 -0.0529
 4760W        W 8504   7.370   6.785   3.141  0.0495  0.0097  0.2050
 4761W        W 8505   6.865   0.220  10.069  0.2131 -0.0697  0.3667
 4762W        W 8506   8.683   2.039   0.470 -0.3063  0.2098 -0.0490
 4763W        W 8507   9.227   0.688   3.611  0.2076 -0.1772  0.0380
 4764W        W 8508   0.427   9.291   1.666  0.1148  0.0461  0.3600
 4765W        W 8509   6.258   9.679   0.392 -0.0336 -0.0193  0.1532
 4766W        W 8510   1.853   8.969  11.871 -0.2545 -0.0393  0.0534
 4767W        W 8511   2.323   2.028  10.764 -0.0695  0.0123 -0.2183
 4768W        W 8512   8.916   3.712  11.814  0.1486 -0.0648  0.1768
 4769W        W 8513   3.381   2.559   3.740 -0.0225  0.1174  0.3617
 4770W        W 8514   8.979   8.318  12.717  0.1395 -0.4038  0.1709
 4771W        W 8515   6.154   8.659   9.934 -0.1084 -0.1852 -0.1280
 4772W        W 8516   0.059   2.303  11.718 -0.1433  0.1918  0.0043
 4773W        W 8517   5.099   6.756   3.165  0.0090 -0.0881  0.1224
 4774W        W 8518   9.136   8.537  11.361 -0.0358  0.2315 -0.0610
 4775W        W 8519   0.438   7.163   4.853  0.0725 -0.0079 -0.1053
 4776W        W 8520   1.631   7.925   1.955  0.0915  0.0631  0.1579
 4777W        W 8521   7.654   7.236   9.573  0.1886  0.2223 -0.0511
 4778W        W 8522   2.546   9.219   2.323 -0.1391 -0.1720 -0.1790
 4779W        W 8523   7.944   8.902  11.994 -0.0371 -0.0840 -0.1593
 4780W        W 8524   7.146   4.399  10.341  0.1688 -0.3207 -0.0908
 4781W        W 8525   4.153   0.592   3.549 -0.1552 -0.0306  0.1274
 4782W        W 8526   1.333   9.062   1.270 -0.0227  0.0415 -0.0054
 4783W        W 8527   0.749   8.758   4.011 -0.3437  0.4520  0.1226
 4784W        W 8528   8.215   2.064  12.156 -0.0907  0.0415 -0.0938
 4785W        W 8529   7.346   2.160   8.920 -0.1823 -0.2976  0.2131
 4786W        W 8530   7.861   2.178  10.487  0.1080  0.0397  0.0613
 4787W        W 8531   4.508   4.204  11.533  0.1913  0.1325  0.2009
 4788W        W 8532   5.938   0.477   0.247  0.0854 -0.0027 -0.1967
 4789W        W 8533   8.883   0.556   9.794 -0.1947  0.2688  0.2892
 4790W        W 8534   3.045   3.433   1.921  0.0084 -0.1969  0.1302
 4791W        W 8535   9.471   5.099   1.621  0.0434 -0.1968  0.2827
 4792W        W 8536   9.434   1.441   3.113  0.2535 -0.0281 -0.1157
 4793W        W 8537   3.655   2.613   0.174 -0.1070  0.0057 -0.1426
 4794W        W 8538   0.003   1.067   4.025  0.0132 -0.1203 -0.0652
 4795W        W 8539   8.196   0.708   4.535  0.1052  0.2063  0.0181
 4796W        W 8540   7.823   9.086   2.771 -0.0308  0.2739  0.1710
 4797W        W 8541   2.031   6.143  11.505 -0.1010 -0.0317 -0.0383
 4798W        W 8542   5.464   7.193   5.289 -0.4202 -0.3032 -0.1440
 4799W        W 8543   1.654   6.176  12.839 -0.1938  0.1631 -0.1458
 4800W        W 8544   7.786   0.458   0.567  0.3974 -0.4392  0.2065
 4801W        W 8545   4.603   0.865   1.800  0.0556  0.0689  0.1609
 4802W        W 8546   2.935   2.718   9.226 -0.3076 -0.1857 -0.1776
 4803W        W 8547   0.170   3.118   9.319  0.1435  0.1566 -0.1640
 4804W        W 8548   2.038   3.323  12.755  0.0313 -0.0220  0.3532
 4805W        W 8549   0.121   0.803  10.146  0.0004  0.0422  0.1416
 4806W        W 8550   5.242   9.085  11.957  0.1169 -0.2831  0.1931
 4807W        W 8551   1.860   2.408   3.435  0.1150  0.0796 -0.0005
 4808W        W 8552   0.123   8.575   8.370 -0.2911  0.1536  0.1242
 4809W        W 8553   3.668   0.067  10.201  0.0152  0.2515 -0.0931
 4810W        W 8554   1.161   7.072  12.290  0.0221  0.3657  0.0236
 4811W        W 8555   0.029   7.783  12.392 -0.0541  0.4012  0.0066
 4812W        W 8556   2.920   7.842  12.178 -0.1389  0.1078  0.0514
 4813W        W 8557   2.447   4.203  10.049 -0.1370  0.0299  0.1081
 4814W        W 8558   5.703   3.128   2.644 -0.3280 -0.2324 -0.2241
 4815W        W 8559   3.087   9.115   3.520 -0.0306  0.0971  0.2603
 4816W        W 8560   3.394   7.278   9.829 -0.0161  0.0921 -0.0659
 4817W        W 8561   6.797   0.425   0.270  0.1217  0.0302 -0.0568
 4818W        W 8562   9.741   0.642   3.696 -0.4255 -0.0619 -0.2750
 4819W        W 8563   8.373   5.933   3.581  0.0636 -0.0662 -0.2037
 4820W        W 8564   5.987   6.142   8.911  0.4899  0.4304 -0.1351
 4821W        W 8565   0.610   1.636  10.563  0.0745 -0.2837 -0.1082
 4822W        W 8566   1.397   3.510   0.217 -0.3772 -0.0455 -0.2274
 4823W        W 8567   9.310   5.589  12.188  0.0575 -0.1503  0.1961
 4824W        W 8568   2.577   7.270   9.300  0.1927  0.0297  0.2548
 4825W        W 8569   9.225   1.987  12.795  0.0237 -0.0354  0.2312
 4826W        W 8570   0.977   1.575  10.907  0.0761  0.0635 -0.4822
 4827W        W 8571   0.738   5.255   9.522 -0.2737 -0.2074 -0.0550
 4828W        W 8572   7.300   5.661   1.649  0.1084  0.1135  0.2824
 4829W        W 8573   9.593   3.569   3.717  0.1549  0.3551  0.0491
 4830W        W 8574   2.543   2.374  11.975  0.2553  0.0271 -0.2878
 4831W        W 8575   1.468   6.145  10.725  0.1292  0.0007 -0.3557
 4832W        W 8576   5.085   6.965   9.041  0.0794 -0.0121  0.0078
 4833W        W 8577   5.219   4.020   0.310 -0.1245 -0.1278 -0.1954
 4834W        W 8578   7.450   5.739  11.728  0.3111  0.0811 -0.1563
 4835W        W 8579   6.813   0.059   1.618  0.0551 -0.0171  0.3119
 4836W        W 8580   8.198   0.332   0.788  0.0132 -0.1077 -0.1873
 4837W        W 8581   1.047   3.989   8.838 -0.1236  0.1737 -0.1279
 4838W        W 8582   0.829   4.083   0.976  0.0921 -0.2192  0.0742
 4839W        W 8583   6.169   9.889  12.510 -0.0028 -0.0962  0.2351
 4840W        W 8584   2.364   0.019   9.814  0.1322  0.3012  0.2931
 4841W        W 8585   7.077   6.776  10.311 -0.1586 -0.0459 -0.0940
 4842W        W 8586   3.229   8.270   3.740  0.1342  0.0134  0.0618
 4843W        W 8587   3.726   1.791   3.050  0.1895 -0.0985 -0.0506
 4844W        W 8588   1.589   7.993   9.023 -0.0684  0.3826  0.1876
 4845W        W 8589   8.348   3.790   1.488 -0.0644  0.0188 -0.2276
 4846W        W 8590   1.765   1.808   1.596  0.0083  0.0892 -0.2234
 4847W        W 8591   3.680   5.291  11.001  0.0180 -0.0053 -0.2554
 4848W        W 8592   7.115   1.147   0.871  0.0497  0.1529 -0.0321
 4849W        W 8593   7.602   0.592   9.604  0.0712  0.0934 -0.0942
 4850W        W 8594   5.785   0.194  10.404 -0.0384  0.0664  0.2279
 4851W        W 8595   0.060   7.210   4.546 -0.1599 -0.2808  0.0565
 4852W        W 8596   8.687   8.251  11.167 -0.2967 -0.0300  0.1127
 4853W        W 8597   5.044   5.570   0.109  0.1882  0.1160  0.0086
 4854W        W 8598   1.209   5.959   1.870 -0.0967 -0.0995  0.1482
 4855W        W 8599   7.969   4.200  12.611  0.2879 -0.3400 -0.1878
 4856W        W 8600   2.839   8.581   8.755  0.2066  0.0396  0.0502
 4857W        W 8601   3.984   3.987  10.837  0.0163  0.0857 -0.0397
 4858W        W 8602   6.073   0.663   9.571 -0.2846  0.3222  0.2078
 4859W        W 8603   6.281   8.526   0.380 -0.1743 -0.2439  0.1465
 4860W        W 8604   3.515   4.638  12.102  0.0740 -0.0112 -0.1618
 4861W        W 8605   5.910   0.448  12.767 -0.3938 -0.0323  0.0707
 4862W        W 8606   2.889   0.133   5.030  0.3493  0.1888 -0.0599
 4863W        W 8607   9.245   6.678  12.421  0.4233 -0.1388  0.1965
 4864W        W 8608   4.957   1.732  12.299 -0.0286  0.0716  0.0804
 4865W        W 8609   0.460   8.179   0.032 -0.1009 -0.2777  0.0255
 4866W        W 8610   2.577   6.869   1.280 -0.1534  0.1672 -0.1828
 4867W        W 8611   6.609   1.117  12.265 -0.2573 -0.2957  0.1343
 4868W        W 8612   2.023   6.132   9.865  0.0770  0.0857  0.5500
 4869W        W 8613   0.579   9.144   0.338  0.1784  0.0753  0.2592
 4870W        W 8614   0.467   3.364  10.420  0.2461 -0.2158 -0.0436
 4871W        W 8615   0.516   6.522  10.716 -0.4046 -0.0878 -0.0806
 4872W        W 8616   0.637   7.756   0.207  0.1771 -0.1300  0.0138
 4873W        W 8617   4.369   1.929  11.901  0.2663  0.1398 -0.0915
 4874W        W 8618   1.935   1.461   9.264 -0.2887  0.1576 -0.0704
 4875W        W 8619   5.157   9.488   4.990 -0.2044 -0.0095 -0.1956
 4876W        W 8620   9.118   6.501   1.541  0.0757  0.1949 -0.0189
 4877W        W 8621   0.264   2.369  11.212  0.1672  0.3443  0.1434
 4878W        W 8622   3.474   7.749  10.583 -0.2931 -0.2787  0.2790
 4879W        W 8623   6.879   6.110   9.131  0.2290  0.3955  0.0767
 4880W        W 8624   3.019   8.254  10.208  0.3087  0.1641  0.2908
 4881W        W 8625   2.218   3.545   1.984 -0.2944  0.1237  0.1681
 4882W        W 8626   3.052   1.031   9.310 -0.0776 -0.1317  0.2675
 4883W        W 8627   0.038   9.657  12.055 -0.0906  0.1382  0.0581
 4884W        W 8628   3.256   2.991   0.449 -0.0167 -0.0533  0.0426
 4885W        W 8629   7.504   0.101   3.558 -0.0194 -0.2421  0.0936
 4886W        W 8630   9.733   2.708   9.113  0.1214  0.1656  0.2989
 4887W        W 8631   0.556   1.901   2.547 -0.1071  0.0048  0.2944
 4888W        W 8632   8.797   4.501   0.282 -0.1304 -0.2807 -0.0060
 4889W        W 8633   9.887   7.926   1.177 -0.0348 -0.4825 -0.2435
 4890W        W 8634   7.838   9.055   8.510 -0.2299  0.1017 -0.0703
 4891W        W 8635   1.249   8.421   0.598  0.0592  0.1542  0.1674
 4892W        W 8636   0.671   1.018   3.648  0.0449  0.1374  0.0161
 4893W        W 8637   2.955   4.323   0.333 -0.1732 -0.0736  0.0409
 4894W        W 8638   7.535   8.213   1.020 -0.0832 -0.1296 -0.2533
 4895W        W 8639   8.767   0.726   3.814 -0.1644  0.1468  0.4051
 4896W        W 8640   6.059   4.452   9.276  0.3621 -0.2447 -0.0689
 4897W        W 8641   7.027   0.222   4.192  0.0741 -0.1829 -0.1155
 4898W        W 8642   3.338   3.601  10.011 -0.0354 -0.1057  0.1731
 4899W        W 8643   0.673   7.324   9.456 -0.3664  0.0056 -0.1403
 4900W        W 8644   7.603   7.750   4.620  0.1680 -0.1392  0.0639
 4901W        W 8645   2.086   8.455   9.403 -0.2397  0.0323  0.1861
 4902W        W 8646   7.344   7.227  12.508  0.0655  0.1331 -0.0713
 4903W        W 8647   5.948   4.920   9.780 -0.0196  0.1713  0.0365
 4904W        W 8648   9.621   3.055   3.251 -0.3800  0.1798 -0.2246
 4905W        W 8649   7.123   3.746   3.340 -0.0174  0.0402 -0.1119
 4906W        W 8650   1.127   2.980   0.834  0.1187  0.1593 -0.1561
 4907W        W 8651   4.548   3.508  10.184  0.1162  0.1919  0.0376
 4908W        W 8652   1.997   5.400   0.618  0.1803 -0.1122 -0.0601
 4909W        W 8653   7.209   6.950  12.010  0.3021 -0.1516  0.0848
 4910W        W 8654   4.674   1.718   0.933 -0.1526  0.2869  0.0111
 4911W        W 8655   1.383   8.768   9.069 -0.1255 -0.0659 -0.4144
 4912W        W 8656   2.816   6.535   2.918 -0.2103  0.2168  0.2011
 4913W        W 8657   2.384   1.428  11.365 -0.3337 -0.0451  0.3299
 4914W        W 8658   5.958   2.047  10.551 -0.3632  0.0700 -0.0764
 4915W        W 8659   8.957   6.831   9.121 -0.1212 -0.0140  0.0416
 4916W        W 8660   1.161   5.730   9.508 -0.1607  0.2487 -0.0053
 4917W        W 8661   0.062   8.483   8.826 -0.0120  0.0129 -0.1026
 4918W        W 8662   2.608   7.401  12.855 -0.2559  0.3206  0.2111
 4919W        W 8663   3.075   7.749   1.978 -0.2021  0.3103 -0.2490
 4920W        W 8664   3.369   7.288   3.811  0.1688  0.0883  0.1547
 4921W        W 8665   8.556   8.658   2.912  0.3462 -0.1306  0.2100
 4922W        W 8666   9.686   8.215  12.274 -0.1581 -0.1410  0.0150
 4923W        W 8667   8.910   2.363   2.268  0.0679 -0.3906  0.0017
 4924W        W 8668   7.232   9.610   2.097  0.0461  0.1112 -0.1331
 4925W        W 8669   1.851   5.725   2.522 -0.0695  0.1692  0.3093
 4926W        W 8670   2.202   8.998  10.107  0.1767 -0.0377  0.2888
 4927W        W 8671   6.266   0.420   3.589  0.2536 -0.0183  0.0809
 4928W        W 8672   7.717   1.664   3.693  0.0009  0.1372 -0.3068
 4929W        W 8673   0.848   1.513   2.915 -0.1614  0.0706 -0.1018
 4930W        W 8674   5.927   4.789   1.340  0.0870 -0.1719  0.0458
 4931W        W 8675   5.296   2.947   0.013 -0.0620  0.1646  0.1562
 4932W        W 8676   9.404   8.268   3.656  0.2279 -0.1455  0.1339
 4933W        W 8677   9.268   6.009  11.800 -0.1440 -0.0461 -0.1258
 4934W        W 8678   0.621   9.492  12.108 -0.0293 -0.0398  0.3405
 4935W        W 8679   7.502   7.818   9.824  0.1423 -0.0076  0.3124
 4936W        W 8680   0.574   8.095   1.018 -0.0284  0.3544  0.0129
 4937W        W 8681   3.723   5.470   0.144  0.0905 -0.0176  0.0813
 4938W        W 8682   8.338   2.342   0.723  0.1485  0.2901 -0.1365
 4939W        W 8683   6.442   1.838  12.802 -0.0087  0.1376 -0.4539
 4940W        W 8684   1.729   8.280   1.462 -0.1222  0.1561  0.0289
 4941W        W 8685   2.006   6.193   1.777 -0.4066 -0.0721  0.1909
 4942W        W 8686   9.455   4.536  12.507  0.0185 -0.2498  0.1403
 4943W        W 8687   0.101   3.040  10.371  0.2431  0.1501  0.0111
 4944W        W 8688   1.566   6.556   3.297  0.0574 -0.4166 -0.2461
 4945W        W 8689   5.359   0.045   8.965  0.3242  0.0404 -0.1197
 4946W        W 8690   9.843   4.433  12.235  0.0299 -0.1217 -0.1010
 4947W        W 8691   4.252   6.738   2.107  0.0210  0.0600 -0.3955
 4948W        W 8692   6.155   1.419  11.933 -0.0098 -0.0279  0.1710
 4949W        W 8693   0.333   2.081   1.140  0.1842 -0.0585 -0.1913
 4950W        W 8694   7.312   7.413  10.197  0.2382 -0.0632 -0.0151
 4951W        W 8695   9.156   2.449   1.421 -0.0285  0.0642 -0.0314
 4952W        W 8696   2.528   5.243  10.223  0.0482 -0.0451 -0.1186
 4953W        W 8697   8.729   2.063  10.329  0.2215 -0.0928 -0.1012
 4954W        W 8698   7.656   0.168  11.605  0.4608  0.3808 -0.3711
 4955W        W 8699   2.823   6.979   8.031  0.2895 -0.0806 -0.0409
 4956W        W 8700   3.649   4.172  11.922 -0.0321 -0.0600 -0.0092
 4957W        W 8701   1.952   4.692  11.481  0.0152 -0.0214  0.3120
 4958W        W 8702   0.042   9.774  12.622 -0.2307 -0.1351 -0.1231
 4959W        W 8703   4.386   2.677   9.609 -0.3589 -0.3218  0.1997
 4960W        W 8704   6.201   8.798   0.960  0.2158  0.1335 -0.1525
 4961W        W 8705   7.594   7.052   2.188 -0.0655 -0.0714 -0.1542
 4962W        W 8706   4.203   2.290   3.476  0.1486  0.0670 -0.0165
 4963W        W 8707   0.642   0.746   3.184  0.0914  0.2074  0.0882
 4964W        W 8708   5.534   5.387   2.503  0.0279  0.1837  0.0850
 4965W        W 8709   6.738   7.928  11.909 -0.0823  0.0741  0.2962
 4966W        W 8710   2.440   1.825   9.559 -0.1472 -0.2984  0.2291
 4967W        W 8711   7.862   1.072  10.117  0.4386 -0.4303  0.0293
 4968W        W 8712   9.406   7.276  11.134 -0.0799 -0.0752  0.1938
 4969W        W 8713   4.099   6.686   3.405  0.0812  0.0619  0.0958
 4970W        W 8714   5.622   8.886   3.329  0.2675  0.0000  0.2108
 4971W        W 8715   4.498   2.126  10.655  0.1849 -0.0127  0.1516
 4972W        W 8716   0.809   8.885  10.925 -0.1889  0.1140 -0.2335
 4973W        W 8717   3.209   7.657   4.588  0.4555  0.0145 -0.2426
 4974W        W 8718   6.913   6.931   2.483 -0.2370  0.1582 -0.1395
 4975W        W 8719   1.119   9.648   9.172  0.0508 -0.3363 -0.5111
 4976W        W 8720   3.716   0.143   4.305 -0.2414 -0.1297 -0.2472
 4977W        W 8721   7.344   1.190   1.483  0.2115 -0.3137 -0.1405
 4978W        W 8722   0.011   1.742   0.890 -0.0166 -0.1741  0.1785
 4979W        W 8723   1.209   0.083   4.574 -0.2901  0.0935 -0.0048
 4980W        W 8724   0.980   3.872   0.379 -0.2629  0.0676  0.1355
 4981W        W 8725   0.943   5.271  12.424  0.2033 -0.0821 -0.0421
 4982W        W 8726   0.638   5.974   9.356 -0.2247  0.0786 -0.1332
 4983W        W 8727   7.842   3.815  10.577  0.0848  0.0768 -0.3164
 4984W        W 8728   9.717   1.400  11.483  0.0527 -0.1020 -0.0498
 4985W        W 8729   9.104   9.873   0.248  0.1269 -0.1689 -0.7325
 4986W        W 8730   5.262   2.357   2.078  0.2196 -0.2075  0.3157
 4987W        W 8731   0.820   2.012   2.982 -0.2076  0.0381 -0.0588
 4988W        W 8732   8.028   2.862  12.971  0.0422 -0.3460 -0.3780
 4989W        W 8733   2.209   8.909   3.065 -0.5453  0.0263 -0.0686
 4990W        W 8734   0.619   3.861   9.005  0.0176  0.1522  0.0065
 4991W        W 8735   4.511   9.832   3.028  0.1404  0.1703  0.2346
 4992W        W 8736   6.550   2.151  10.376 -0.1693  0.1476  0.1712
 4993W        W 8737   6.093   9.756   2.277  0.0836  0.1001  0.0835
 4994W        W 8738   6.441   4.975   4.165  0.2936 -0.0242  0.1302
 4995W        W 8739   7.226   2.731   1.907  0.2118  0.0057 -0.2054
 4996W        W 8740   8.421   1.253   0.166  0.0005  0.3624 -0.0272
 4997W        W 8741   8.421   3.367   3.002  0.2865 -0.1909 -0.0295
 4998W        W 8742   4.312   7.722  12.909  0.0776  0.1452 -0.2178
 4999W        W 8743   9.054   2.264   0.820  0.1333 -0.1773  0.3070
 5000W        W 8744   5.408   7.883   3.705  0.1655  0.0807  0.0304
 5001W        W 8745   1.531   8.138  12.530 -0.0149 -0.2359 -0.1543
 5002W        W 8746   8.661   1.494   9.641  0.0801  0.1247 -0.1762
 5003W        W 8747   1.777   2.512  11.626  0.2053 -0.1673  0.1171
 5004W        W 8748   5.792   5.290   0.675 -0.2430 -0.1083 -0.0052
 5005W        W 8749   9.797   6.008  11.908  0.0576 -0.1424 -0.2909
 5006W        W 8750   3.894   5.451   3.796  0.0763 -0.0408  0.3542
 5007W        W 8751   4.446   3.617  12.676  0.1089  0.0389 -0.2711
 5008W        W 8752   0.331   6.229   3.511 -0.1059 -0.0417 -0.3679
 5009W        W 8753   1.893   7.433   3.859 -0.1400 -0.0752 -0.0008
 5010W        W 8754   5.733   6.896   0.357 -0.0951  0.1054  0.3027
 5011W        W 8755   1.587   2.073   4.464  0.1136  0.2234 -0.0568
 5012W        W 8756   1.412   3.251   1.804  0.1555  0.0975  0.1703
 5013W        W 8757   5.500   1.848   1.221 -0.1313  0.0781 -0.0945
 5014W        W 8758   5.974   1.194   2.883  0.1300  0.2473 -0.0925
 5015W        W 8759   2.696   5.518   9.758  0.2890  0.1942  0.1589
 5016W        W 8760   4.736   0.960  12.921  0.0210 -0.0308  0.2053
 5017W        W 8761   4.336   0.335  10.580 -0.1095  0.0118  0.0341
 5018W        W 8762   2.983   6.853   3.302 -0.1177  0.1283  0.0507
 5019W        W 8763   1.107   9.288  12.430 -0.2339  0.3114 -0.2515
 5020W        W 8764   2.438   4.595  11.476 -0.0231 -0.1553 -0.2153
 5021W        W 8765   8.620   6.596  12.977 -0.0258  0.3063  0.0773
 5022W        W 8766   6.427   9.585  11.675 -0.0281  0.2487  0.1797
 5023W        W 8767   7.118   0.886   8.247  0.1590  0.0943  0.1208
 5024W        W 8768   4.737   0.089   0.335  0.1252 -0.0283 -0.0138
 5025W        W 8769   9.330   7.559   3.567  0.1327 -0.2566  0.1254
 5026W        W 8770   9.316   9.267   1.519 -0.2422 -0.1797  0.0396
 5027W        W 8771   3.988   9.830   8.293 -0.1146  0.0272  0.0358
 5028W        W 8772   6.369   4.389  12.215 -0.2753  0.0829  0.0257
 5029W        W 8773   6.478   3.442  10.017  0.1177  0.1008  0.1208
 5030W        W 8774   8.109   6.654   0.556 -0.0672  0.2412 -0.0115
 5031W        W 8775   2.261   5.938   1.384 -0.0130  0.0573  0.0622
 5032W        W 8776   2.157   8.507   1.879 -0.0176 -0.3102 -0.1559
 5033W        W 8777   7.434   9.306   1.257  0.1023 -0.0655  0.1732
 5034W        W 8778   4.986   6.441   4.336  0.0972  0.1400  0.1043
 5035W        W 8779   6.696   7.106   0.440  0.2688  0.0552 -0.0622
 5036W        W 8780   6.892   7.128  10.020  0.2114  0.1414  0.1153
 5037W        W 8781   3.624   2.905   0.741  0.1093  0.2356 -0.0379
 5038W        W 8782   2.210   1.026  10.694  0.1704  0.0518 -0.1156
 5039W        W 8783   3.697   1.125   2.712  0.0003  0.0670 -0.1761
 5040W        W 8784   6.651   8.708   0.656 -0.1316 -0.0326  0.1499
 5041W        W 8785   1.290   8.919   9.571  0.1184 -0.1804 -0.2954
 5042W        W 8786   8.861   6.809   9.911 -0.0617 -0.2165 -0.1660
 5043W        W 8787   1.925   9.187   3.362 -0.4199  0.0506 -0.3463
 5044W        W 8788   0.816   5.891   1.519  0.2229  0.1868 -0.1529
 5045W        W 8789   2.674   8.291   9.828  0.2567 -0.1552  0.2158
 5046W        W 8790   6.350   1.531   3.082 -0.1210 -0.1794  0.2289
 5047W        W 8791   2.483   7.356   1.374  0.0310 -0.0278  0.0678
 5048W        W 8792   7.367   6.193   2.949  0.1084  0.1128  0.1512
 5049W        W 8793   9.745   4.685   1.661 -0.0454  0.3518  0.2984
 5050W        W 8794   6.953   3.263  11.550  0.0534 -0.1843 -0.0436
 5051W        W 8795   3.437   7.869  11.532  0.1186  0.0753  0.0322
 5052W        W 8796   4.395   6.693  11.057  0.0891  0.0969 -0.0062
 5053W        W 8797   1.744   3.147   1.445 -0.0077 -0.2501  0.2038
 5054W        W 8798   1.187   9.761   1.768  0.1940 -0.0468  0.1173
 5055W        W 8799   5.552   9.761   3.069 -0.1574  0.0541  0.1737
 5056W        W 8800   1.247   1.311   2.673 -0.1355  0.2083 -0.0298
 5057W        W 8801   6.718   0.664  12.386  0.1099  0.1061  0.0173
 5058W        W 8802   0.624   5.236   3.281  0.1719  0.0824 -0.2463
 5059W        W 8803   2.069   4.065  10.486 -0.4052 -0.0319  0.0396
 5060W        W 8804   3.655   3.782  10.355 -0.4361 -0.1657  0.3071
 5061W        W 8805   3.372   3.046  10.495  0.0142 -0.0464  0.0912
 5062W        W 8806   0.351   5.891  11.065  0.0723  0.0926  0.2885
 5063W        W 8807   4.635   6.830  11.995 -0.0035 -0.0157  0.0925
 5064W        W 8808   7.318   4.596  12.685  0.1494 -0.4661  0.0039
 5065W        W 8809   9.032   8.549   2.748  0.1419 -0.1845  0.0949
 5066W        W 8810   0.701   8.390   2.230  0.1495 -0.1411 -0.1782
 5067W        W 8811   3.197   6.355   3.199 -0.0644  0.1892 -0.1073
 5068W        W 8812   4.712   3.765   3.556  0.1246  0.0767  0.1918
 5069W        W 8813   2.326   3.361   3.208  0.2282  0.3597  0.1313
 5070W        W 8814   8.475   9.522   2.568 -0.0097  0.0673 -0.0128
 5071W        W 8815   1.044   0.018   2.406  0.0133 -0.1194  0.1257
 5072W        W 8816   2.889   4.900  10.321 -0.1717  0.1639 -0.1705
 5073W        W 8817   2.660   4.088  11.410  0.4199 -0.0454  0.2433
 5074W        W 8818   0.970   6.169   2.336 -0.2556  0.2306  0.2455
 5075W        W 8819   5.748   8.945   0.731  0.1808  0.0300  0.0977
 5076W        W 8820   3.388   1.293  12.899  0.3776 -0.1741 -0.1289
 5077W        W 8821   4.818   8.682   0.216 -0.0003 -0.2006 -0.0272
 5078W        W 8822   0.212   4.810  11.406 -0.2364  0.1006 -0.0057
 5079W        W 8823   3.054   5.910   1.696  0.0013 -0.0408  0.0183
 5080W        W 8824   9.461   3.600   2.363 -0.0530  0.1664 -0.0979
 5081W        W 8825   4.215   7.271   1.886  0.0400  0.3089 -0.0092
 5082W        W 8826   8.626   9.614   9.753  0.0559 -0.3174 -0.2056
 5083W        W 8827   5.757   0.789   3.110 -0.0962  0.0610 -0.1708
 5084W        W 8828   0.417   9.822  10.133  0.0764  0.0327  0.0541
 5085W        W 8829   3.776   0.139   1.532 -0.2629  0.0558  0.1262
 5086W        W 8830   1.119   0.071   3.934  0.2477  0.0577 -0.4918
 5087W        W 8831   8.364   5.349  10.200  0.2936 -0.0979 -0.3080
 5088W        W 8832   3.729   5.051   2.867  0.0840  0.0638 -0.2066
 5089W        W 8833   1.558   1.652   2.424 -0.2508  0.0917  0.0549
 5090W        W 8834   5.100   7.669   4.721 -0.2586 -0.0455  0.0532
 5091W        W 8835   1.803   8.900   3.791 -0.0856 -0.0193  0.1002
 5092W        W 8836   0.006   7.190  10.851 -0.0595  0.0925 -0.1283
 5093W        W 8837   9.009   6.502   2.908  0.0450 -0.1934  0.2028
 5094W        W 8838   2.497   8.905  11.789  0.1501 -0.0169 -0.1798
 5095W        W 8839   2.784   1.773  12.552  0.0712 -0.0641  0.2596
 5096W        W 8840   7.231   6.550   2.133  0.0288 -0.0176 -0.0830
 5097W        W 8841   2.354   6.896  11.491  0.0931  0.1431 -0.1824
 5098W        W 8842   9.266   6.872   1.846 -0.2743  0.0202 -0.0826
 5099W        W 8843   2.223   5.758   2.073  0.3010 -0.0197  0.1150
 5100W        W 8844   4.074   9.112  12.623 -0.1676 -0.1556  0.2062
 5101W        W 8845   9.352   0.324   8.889  0.0252 -0.2252 -0.0616
 5102W        W 8846   2.838   9.593   9.173  0.0032 -0.3956  0.0526
 5103W        W 8847   0.544   4.036   9.454  0.1039 -0.0165  0.1723
 5104W        W 8848   8.192   3.719   0.048  0.1726 -0.0865  0.0617
 5105W        W 8849   9.028   2.790  10.802  0.0502  0.2958 -0.1341
 5106W        W 8850   5.108   5.520  11.824  0.0906  0.0792  0.1198
 5107W        W 8851   4.841   9.060   9.464  0.1321  0.0742  0.0160
 5108W        W 8852   8.541   2.852   9.334  0.0740 -0.1210 -0.1731
 5109W        W 8853   6.137   6.271  12.575 -0.0499 -0.0004 -0.2118
 5110W        W 8854   8.816   5.396  10.367  0.0758 -0.2022  0.0277
 5111W        W 8855   3.628   5.709  12.122 -0.2125 -0.3275  0.1831
 5112W        W 8856   3.376   6.316   9.395 -0.0470  0.2093 -0.1683
 5113W        W 8857   2.784   0.378   2.425 -0.0203 -0.2136 -0.1513
 5114W        W 8858   6.185   6.025  11.744 -0.2808 -0.1493 -0.1845
 5115W        W 8859   8.251   1.261   9.802 -0.0709  0.0999  0.0433
 5116W        W 8860   7.332   8.665   0.543 -0.1860  0.2796 -0.4344
 5117W        W 8861   0.973   4.876  12.858  0.1005 -0.0354  0.0279
 5118W        W 8862   6.307   0.868   3.864 -0.3441 -0.1431  0.1542
 5119W        W 8863   0.704   7.742   5.400 -0.3906 -0.2756 -0.1315
 5120W        W 8864   1.363   3.405   0.885  0.1711 -0.1647 -0.2393
 5121W        W 8865   3.896   7.814   4.249 -0.4777  0.0191  0.1221
 5122W        W 8866   6.159   8.050   3.104 -0.0131 -0.2774 -0.0027
 5123W        W 8867   6.488   7.755   0.500  0.0449  0.3082 -0.1296
 5124W        W 8868   9.525   6.343  10.651 -0.6140 -0.2658  0.0783
 5125W        W 8869   8.173   3.126   8.417 -0.0340  0.2508 -0.0451
 5126W        W 8870   2.569   3.495   1.127  0.1569 -0.3138  0.1772
 5127W        W 8871   8.647   0.007  11.052  0.0400 -0.1790  0.2006
 5128W        W 8872   3.898   2.571  12.730  0.2851  0.0053 -0.0735
 5129W        W 8873   4.217   6.232   2.047 -0.1161 -0.1522 -0.0447
 5130W        W 8874   4.365   9.799   8.613 -0.0758  0.1276 -0.2085
 5131W        W 8875   5.989   5.517  12.000 -0.0892 -0.0935 -0.2002
 5132W        W 8876   9.188   1.991   9.984  0.1624  0.0873 -0.0197
 5133W        W 8877   5.131   1.561   2.651 -0.0813 -0.3810  0.2434
 5134W        W 8878   6.301   5.412  11.264 -0.1760 -0.0871 -0.0243
 5135W        W 8879   2.054   9.585  11.486  0.3394  0.0645  0.0867
 5136W        W 8880   6.324   7.894  11.661  0.1246  0.1967  0.0031
 5137W        W 8881   1.109   0.074   0.816 -0.0670 -0.2265 -0.0962
 5138W        W 8882   0.732   4.872  10.850  0.1800  0.0199 -0.0203
 5139W        W 8883   4.840   6.123   0.705  0.0343 -0.1936  0.0010
 5140W        W 8884   6.919   1.855   2.187 -0.1230 -0.2035  0.0248
 5141W        W 8885   9.366   6.998   3.204  0.0499  0.0520  0.0410
 5142W        W 8886   6.950   7.166   0.892  0.0213 -0.0695 -0.1143
 5143W        W 8887   2.219   5.421   2.493  0.3287 -0.0591 -0.1480
 5144W        W 8888   7.918   5.926  12.412 -0.0255  0.0795  0.0494
 5145W        W 8889   3.592   5.539   3.105 -0.0692 -0.0167  0.1475
 5146W        W 8890   7.980   3.460   8.150 -0.0108 -0.2062  0.0731
 5147W        W 8891   6.951   5.019  12.758 -0.1845 -0.0079 -0.0970
 5148W        W 8892   8.044   1.094   8.523 -0.4192 -0.2360 -0.4003
 5149W        W 8893   4.112   6.354   3.019 -0.1480 -0.1479  0.4293
 5150W        W 8894   0.584   1.022   8.832 -0.0213  0.0153  0.1132
 5151W        W 8895   5.760   5.038   1.809 -0.0580 -0.1521  0.0913
 5152W        W 8896   3.639   8.342  12.506  0.0076 -0.1088  0.1359
 5153W        W 8897   0.386   6.131   1.733  0.0213 -0.1480  0.2002
 5154W        W 8898   0.025   2.255   0.824 -0.1419  0.2222  0.0195
 5155W        W 8899   8.171   5.950  11.138  0.1062 -0.2932  0.2677
 5156W        W 8900   7.762   2.979   3.206 -0.1799  0.4103  0.1749
 5157W        W 8901   0.496   4.820   3.621  0.2060 -0.0204  0.0004
 5158W        W 8902   5.598   6.779   2.473 -0.0940  0.1516  0.2066
 5159W        W 8903   1.904   9.188   1.707  0.0702 -0.0756 -0.1329
 5160W        W 8904   4.010   8.641  12.383 -0.0527  0.0594  0.2086
 5161W        W 8905   6.017   5.317   1.225  0.0655  0.1131  0.3110
 5162W        W 8906   3.881   4.549   2.745  0.1096  0.3727  0.0651
 5163W        W 8907   1.033   9.138   9.095 -0.2113 -0.0129  0.0175
 5164W        W 8908   3.710   8.195  11.196 -0.2450 -0.0781 -0.0586
 5165W        W 8909   8.184   3.381   0.917  0.4124 -0.1899  0.1366
 5166W        W 8910   8.790   5.990   3.847  0.1160  0.0814 -0.1113
 5167W        W 8911   3.227   0.861  12.678 -0.0890 -0.1133 -0.1540
 5168W        W 8912   7.040   5.970   1.396  0.3038 -0.1843 -0.0061
 5169W        W 8913   6.395   6.377  10.763  0.1103 -0.2505 -0.1707
 5170W        W 8914   1.665   4.588   3.627  0.0136 -0.1572 -0.0336
 5171W        W 8915   0.779   7.648   9.856  0.1482 -0.4594  0.6017
 5172W        W 8916   7.957   1.000  12.972  0.2358 -0.2533 -0.1448
 5173W        W 8917   2.468   7.347   2.495  0.0468 -0.2751  0.0968
 5174W        W 8918   6.093   4.584   0.030 -0.2017  0.1020  0.3129
 5175W        W 8919   9.600   0.916  10.459  0.0483 -0.3622 -0.3724
 5176W        W 8920   8.081   4.483  11.960 -0.1719 -0.0854 -0.0458
 5177W        W 8921   6.899   2.149  10.777  0.0826  0.1111  0.0458
 5178W        W 8922   1.418   2.911   4.647 -0.2540 -0.2722  0.0316
 5179W        W 8923   3.177   0.046  11.341 -0.0896  0.1790  0.0326
 5180W        W 8924   9.235   6.967   1.386 -0.1021  0.1590 -0.1981
 5181W        W 8925   3.032   8.156  11.396 -0.0759 -0.0436 -0.2389
 5182W        W 8926   0.255   0.252   8.504 -0.2909  0.1070  0.0630
 5183W        W 8927   2.712   1.041  10.967 -0.3381 -0.1975  0.2514
 5184W        W 8928   1.789   8.357   8.697  0.1311  0.0789 -0.0041
 5185W        W 8929   1.188   5.160  10.914 -0.3862  0.4298 -0.0698
 5186W        W 8930   5.329   3.957   3.418  0.1670 -0.0272 -0.1480
 5187W        W 8931   6.877   9.343  12.895 -0.4340  0.0455 -0.2037
 5188W        W 8932   2.622   5.995   0.805  0.1474 -0.1007  0.0254
 5189W        W 8933   2.527   1.757   4.932  0.0862 -0.0649 -0.2723
 5190W        W 8934   4.956   6.621   0.887 -0.0588 -0.1038 -0.0702
 5191W        W 8935   7.246   1.824   0.874 -0.1114  0.0162 -0.0036
 5192W        W 8936   8.862   6.091   1.343 -0.1100  0.0428  0.3252
 5193W        W 8937   0.092   8.557  12.979 -0.0383  0.0140  0.0751
 5194W        W 8938   2.331   6.701   4.543  0.0997  0.2307 -0.0344
 5195W        W 8939   8.333   2.987   3.924  0.2651 -0.2020  0.3515
 5196W        W 8940   4.329   2.213   9.853  0.0354 -0.2155  0.4483
 5197W        W 8941   9.146   3.898  11.075  0.0070 -0.0893 -0.0456
 5198W        W 8942   8.036   7.596  11.359 -0.2092 -0.0783  0.0898
 5199W        W 8943   9.470   2.437  11.694  0.2120 -0.0691  0.1358
 5200W        W 8944   2.491   9.767   5.253  0.1912 -0.0223  0.1430
 5201W        W 8945   2.737   7.770   9.651  0.1004 -0.1376  0.0438
 5202W        W 8946   1.562   8.978   4.495  0.0766  0.1732 -0.0686
 5203W        W 8947   9.783   3.288   4.105 -0.2568 -0.0904  0.0532
 5204W        W 8948   7.582   7.882   1.831 -0.3283  0.0610  0.2187
 5205W        W 8949   5.794   0.756   3.592 -0.2509  0.0789 -0.0558
 5206W        W 8950   9.715   1.297   2.033  0.2947  0.1033 -0.0237
 5207W        W 8951   3.703   4.912   1.164  0.1727 -0.1443 -0.0088
 5208W        W 8952   3.914   0.126  11.658  0.0497  0.1343 -0.0715
 5209W        W 8953   0.489   0.420  10.421  0.1803 -0.0198 -0.0573
 5210W        W 8954   6.578   0.889  11.851 -0.1772  0.2385 -0.0206
 5211W        W 8955   8.499   4.690  12.144  0.4443  0.0603 -0.3321
 5212W        W 8956   3.875   1.372   9.399  0.2736  0.3294  0.0342
 5213W        W 8957   3.371   0.362   1.446 -0.1740 -0.1169  0.1786
 5214W        W 8958   4.010   2.633  10.811  0.1771 -0.3507  0.1371
 5215W        W 8959   2.023   9.719  12.026 -0.2568  0.0551  0.2138
 5216W        W 8960   3.428   8.793   4.399 -0.1110 -0.0105  0.0211
 5217W        W 8961   5.150   4.067   9.754 -0.0733  0.3327 -0.0322
 5218W        W 8962   5.238   5.817   0.852  0.1998  0.1762 -0.3163
 5219W        W 8963   7.092   7.528   3.022 -0.0263  0.1052 -0.1493
 5220W        W 8964   4.521   8.225   4.275  0.1272  0.0105  0.1356
 5221W        W 8965   9.633   3.463   9.700 -0.0173 -0.0610  0.1604
 5222W        W 8966   1.850   2.761  11.179 -0.1254 -0.0641  0.1292
 5223W        W 8967   8.133   6.056   9.190 -0.2090  0.2263  0.2870
 5224W        W 8968   8.538   6.081  11.418 -0.1295 -0.0622 -0.1386
 5225W        W 8969   3.890   1.233  12.662  0.1338  0.2244  0.0844
 5226W        W 8970   1.842   4.420   0.090 -0.1128  0.1163  0.1697
 5227W        W 8971   4.976   7.374  12.589  0.1147  0.1887  0.2846
 5228W        W 8972   0.943   2.470  12.185  0.1411  0.2291  0.0835
 5229W        W 8973   6.317   1.724  10.413 -0.0468 -0.2299 -0.2225
 5230W        W 8974   4.855   8.285   0.536 -0.1176  0.1597  0.0619
 5231W        W 8975   3.370   7.424   8.230  0.0068 -0.2723 -0.2962
 5232W        W 8976   9.154   3.170  10.476  0.0335 -0.2111  0.2343
 5233W        W 8977   6.820   3.362   0.731 -0.1753 -0.2286 -0.1367
 5234W        W 8978   3.901   0.388   0.629  0.3105  0.0393  0.1606
 5235W        W 8979   7.441   0.854   9.945 -0.1540  0.4006  0.2680
 5236W        W 8980   7.607   3.775   2.872 -0.2302 -0.0523  0.3196
 5237W        W 8981   8.294   9.671  10.109 -0.0474 -0.0035 -0.0660
 5238W        W 8982   6.952   6.472   9.482 -0.1817  0.1529  0.2235
 5239W        W 8983   0.447   8.590   2.991  0.1305  0.1128 -0.0974
 5240W        W 8984   9.114   0.341  12.780  0.3399 -0.2493 -0.1654
 5241W        W 8985   0.171   1.224  12.661 -0.1618 -0.0605  0.2256
 5242W        W 8986   3.870   8.686   9.833  0.2836 -0.0835  0.1845
 5243W        W 8987   0.390   4.352   1.819 -0.1197 -0.0795 -0.0093
 5244W        W 8988   0.059   1.588   4.176  0.0500  0.0827 -0.1191
 5245W        W 8989   7.913   7.478   9.202 -0.2165 -0.0725  0.0901
 5246W        W 8990   0.825   4.372   9.555 -0.0478 -0.1155  0.0823
 5247W        W 8991   2.939   3.091   0.938  0.0113 -0.0290 -0.1514
 5248W        W 8992   3.289   3.816   1.631 -0.1953  0.1337  0.0902
 5249W        W 8993   5.096   0.123   2.086 -0.1852  0.1101  0.2775
 5250W        W 8994   9.851   7.150   3.316 -0.0857  0.3109 -0.0754
 5251W        W 8995   6.435   1.417   3.997  0.1380  0.5938  0.0789
 5252W        W 8996   9.228   0.140   9.818  0.0740 -0.0633 -0.3043
 5253W        W 8997   6.363   5.743  10.833 -0.0183  0.0071 -0.1284
 5254W        W 8998   7.026   7.804   9.934 -0.0733 -0.1374  0.0878
 5255W        W 8999   7.779   5.976   9.605  0.1745 -0.0732 -0.2608
 5256W        W 9000   4.998   4.100   2.103  0.0748 -0.1911 -0.1348
 5257W        W 9001   8.019   6.775  10.159 -0.0999  0.0737 -0.1274
 5258W        W 9002   9.415   7.790   1.466 -0.2052 -0.2040  0.1300
 5259W        W 9003   0.518   9.186   3.558  0.0463 -0.2606  0.1422
 5260W        W 9004   8.925   4.010  10.322  0.3430 -0.3754  0.4667
 5261W        W 9005   2.089   0.934   0.300  0.2497  0.1790 -0.2723
 5262W        W 9006   0.776   2.825   1.561 -0.1475 -0.2007  0.2868
 5263W        W 9007   8.626   8.009   8.563  0.1138  0.1426  0.1561
 5264W        W 9008   6.492   5.699   1.549 -0.0221 -0.1252 -0.0640
 5265W        W 9009   0.378   4.082   3.105 -0.1624 -0.0001  0.0816
 5266W        W 9010   0.769   7.284  12.058 -0.0083  0.0012  0.1634
 5267W        W 9011   3.463   6.941   1.609  0.0413 -0.1271  0.1758
 5268W        W 9012   5.522   3.028  11.376  0.0482 -0.1468 -0.2024
 5269W        W 9013   7.110   8.704  10.253  0.3051  0.0434 -0.1200
 5270W        W 9014   5.726   8.158   4.673 -0.0271 -0.1313 -0.1859
 5271W        W 9015   9.093   5.873  12.601  0.2651 -0.2779 -0.3492
 5272W        W 9016   2.629   4.627   2.646 -0.0869 -0.0189 -0.0585
 5273W        W 9017   4.568   8.914  12.640  0.0453  0.1587  0.2491
 5274W        W 9018   2.141   3.753  11.480  0.2038 -0.0073  0.1073
 5275W        W 9019   7.568   0.019   1.841 -0.0065  0.1662 -0.2087
 5276W        W 9020   5.848   9.474   3.423  0.0738 -0.1550 -0.0538
 5277W        W 9021   4.845   2.412  10.892  0.0905 -0.2012  0.0231
 5278W        W 9022   0.580   2.347   0.711 -0.1444 -0.1050 -0.1626
 5279W        W 9023   6.512   7.127   5.100  0.1674 -0.4791 -0.3977
 5280W        W 9024   0.816   7.383   3.102 -0.0928  0.0357  0.2639
 5281W        W 9025   9.087   3.558  12.295  0.2724 -0.0940 -0.0247
 5282W        W 9026   6.610   4.049   9.836 -0.4014  0.2854  0.1612
 5283W        W 9027   4.610   4.462  12.841 -0.0271 -0.2149 -0.0724
 5284W        W 9028   2.302   1.944   1.883  0.1770  0.0387  0.1357
 5285W        W 9029   4.466   5.385   2.430  0.0681 -0.1280  0.1378
 5286W        W 9030   9.655   6.494   1.651  0.1934  0.0611 -0.0823
 5287W        W 9031   5.792   5.932   9.373 -0.1097 -0.1288  0.0854
 5288W        W 9032   6.523   4.173   1.359  0.1908  0.0427 -0.1206
 5289W        W 9033   6.222   7.681  11.210  0.2455  0.1548 -0.4157
 5290W        W 9034   2.218   6.194   0.083  0.0807 -0.0288 -0.1868
 5291W        W 9035   3.747   3.784  12.794 -0.3525  0.2011  0.1802
 5292W        W 9036   5.841   6.351   4.271  0.1460 -0.1050  0.0071
 5293W        W 9037   1.358   2.223  11.096 -0.2200  0.1342 -0.3382
 5294W        W 9038   4.438   7.626   2.290  0.1399 -0.1677  0.1238
 5295W        W 9039   8.506   7.906  11.702  0.3099  0.2981  0.3605
 5296W        W 9040   7.432   6.228   8.619  0.0481 -0.0957 -0.3437
 5297W        W 9041   5.592   2.654  11.782 -0.4404  0.0083  0.0149
 5298W        W 9042   9.505   8.360   8.675  0.1720  0.0050  0.3965
 5299W        W 9043   9.705   9.037   0.202 -0.2990  0.1703  0.1067
 5300W        W 9044   1.724   1.935   3.441  0.1924 -0.1716  0.0229
 5301W        W 9045   4.672   2.235   2.225  0.0081 -0.0426 -0.0644
 5302W        W 9046   4.469   3.192  11.736 -0.1114 -0.0419 -0.1500
 5303W        W 9047   0.069   6.370   1.025 -0.2662 -0.2976 -0.1527
 5304W        W 9048   0.330   3.198  10.932 -0.0115 -0.1498 -0.2829
 5305W        W 9049   9.734   6.042   9.590 -0.0362  0.1524  0.1797
 5306W        W 9050   9.432   4.482   4.225  0.0620  0.0889  0.0208
 5307W        W 9051   0.149   8.884   3.332 -0.0127  0.1747 -0.0257
 5308W        W 9052   2.178   2.801  11.794 -0.2810 -0.2967 -0.4586
 5309W        W 9053   3.575   0.032   2.498  0.1061 -0.0969 -0.0008
 5310W        W 9054   4.684   4.519  10.744  0.1697  0.0871  0.3208
 5311W        W 9055   9.467   8.466  10.985 -0.0072 -0.1803 -0.2527
 5312W        W 9056   6.020   1.738   8.944  0.0243  0.0431 -0.5264
 5313W        W 9057   8.876   0.393   2.356  0.1225 -0.1420  0.0405
 5314W        W 9058   8.959   4.948  11.338 -0.3965  0.0967 -0.0982
 5315W        W 9059   2.928   5.682   2.602 -0.0081  0.0936 -0.1029
 5316W        W 9060   5.197   0.889   0.361  0.0950  0.0606 -0.1906
 5317W        W 9061   5.307   5.858   9.370  0.0094  0.3094  0.0380
 5318W        W 9062   3.911   8.866   1.055  0.1099  0.1219  0.2108
 5319W        W 9063   6.259   0.787   8.705  0.0552  0.2617  0.2853
 5320W        W 9064   3.475   0.014   3.818 -0.1323 -0.2244  0.0759
 5321W        W 9065   6.146   3.054  12.837  0.1478 -0.0459 -0.0972
 5322W        W 9066   5.089   4.340  11.391  0.2502 -0.0395  0.3557
 5323W        W 9067   6.245   2.378  11.347 -0.0745 -0.1495  0.1110
 5324W        W 9068   5.306   8.503  11.158  0.0535  0.3228 -0.1884
 5325W        W 9069   3.927   5.881   2.855  0.0881 -0.0657  0.0534
 5326W        W 9070   2.065   1.845   3.892  0.3939  0.0088 -0.4373
 5327W        W 9071   5.348   4.544   0.461 -0.0181 -0.1993 -0.1908
 5328W        W 9072   3.194   2.200   1.469 -0.2556  0.1588 -0.0415
 5329W        W 9073   2.707   9.579   2.754  0.1379  0.1645 -0.1790
 5330W        W 9074   6.569   9.691   3.527 -0.2605 -0.1065 -0.2004
 5331W        W 9075   8.295   3.105  11.896  0.1778 -0.0794  0.1572
 5332W        W 9076   7.875   4.932   3.437  0.2114 -0.0395 -0.4287
 5333W        W 9077   2.194   7.552  10.337  0.3935 -0.2113 -0.3498
 5334W        W 9078   6.567   1.312  10.178  0.3131  0.1270 -0.1897
 5335W        W 9079   0.756   5.764   3.141  0.1743  0.2071 -0.0500
 5336W        W 9080   9.793   3.390  11.988 -0.0865 -0.0150  0.0615
 5337W        W 9081   2.401   8.776   1.107 -0.2141 -0.0224  0.1126
 5338W        W 9082   1.154   7.932   2.071  0.1531  0.4223 -0.1758
 5339W        W 9083   5.628   3.484  11.581 -0.2466  0.1323 -0.1266
 5340W        W 9084   1.071   2.678  10.177  0.0213 -0.2836  0.0291
 5341W        W 9085   2.693   5.272   2.376 -0.2121  0.1081 -0.2573
 5342W        W 9086   8.200   4.379   4.962  0.1286  0.2054 -0.1887
 5343W        W 9087   4.811   8.658   9.848  0.2126 -0.1661 -0.0173
 5344W        W 9088   7.128   4.591  11.801 -0.0409 -0.0379 -0.2989
 5345W        W 9089   2.530   4.861   2.126 -0.2985 -0.0964  0.0190
 5346W        W 9090   1.271   9.552   1.078 -0.0156  0.4581 -0.0640
 5347W        W 9091   2.898   7.473   8.566  0.2839 -0.0952 -0.0650
 5348W        W 9092   1.982   0.322   0.844 -0.1339  0.1025  0.0747
 5349W        W 9093   9.230   3.503   1.898 -0.0717 -0.0652 -0.1697
 5350W        W 9094   9.738   1.748  10.550 -0.1008  0.0417  0.0469
 5351W        W 9095   3.328   4.612  12.981 -0.3194  0.1159 -0.4719
 5352W        W 9096   4.036   2.226   9.440  0.0054  0.2383 -0.5435
 5353W        W 9097   8.197   5.109  12.165 -0.2055 -0.0202  0.1467
 5354W        W 9098   8.693   7.756  10.832  0.2430 -0.0901 -0.2794
 5355W        W 9099   3.826   0.897  12.218  0.2305  0.1856  0.1265
 5356W        W 9100   5.749   6.739   9.469  0.0157  0.2128  0.1356
 5357W        W 9101   1.394   3.956   3.019  0.2257 -0.4912 -0.2448
 5358W        W 9102   4.886   2.721   2.056 -0.0338 -0.3528  0.4772
 5359W        W 9103   7.176   8.189  11.454  0.2234 -0.2882 -0.1025
 5360W        W 9104   9.161   2.168   0.289  0.0370 -0.0101  0.0888
 5361W        W 9105   8.791   1.670   8.565  0.0160 -0.1423  0.2689
 5362W        W 9106   6.795   6.490   3.675 -0.1586 -0.2135 -0.2050
 5363W        W 9107   0.118   9.805   1.265  0.1975  0.2459 -0.0805
 5364W        W 9108   5.643   6.477   1.660  0.0901  0.3359  0.3833
 5365W        W 9109   4.775   4.257   0.357  0.0425 -0.1148 -0.2561
 5366W        W 9110   7.192   1.971   9.378  0.0773  0.2811  0.1060
 5367W        W 9111   7.586   7.691   3.596 -0.3133 -0.0916 -0.1170
 5368W        W 9112   8.143   3.759   2.794  0.1565 -0.1091  0.0874
 5369W        W 9113   0.293   0.588   8.910  0.0370 -0.1012 -0.0315
 5370W        W 9114   7.153   1.787   3.383 -0.1140  0.2073 -0.0724
 5371W        W 9115   7.181   2.748  11.932 -0.3821 -0.0460  0.1330
 5372W        W 9116   7.844   5.029   1.336  0.0724 -0.0525 -0.1458
 5373W        W 9117   7.253   4.896   0.186  0.0252 -0.0650  0.0588
 5374W        W 9118   8.180   5.437   3.748  0.2078  0.4030  0.2296
 5375W        W 9119   2.277   0.135   8.875  0.1053 -0.1010 -0.4137
 5376W        W 9120   9.211   9.260   2.417  0.0224 -0.0708  0.0727
 5377W        W 9121   4.911   0.457   2.437 -0.1997 -0.0101 -0.0665
 5378W        W 9122   6.290   9.089   0.546 -0.2169 -0.0868 -0.1523
 5379W        W 9123   0.962   0.838  10.082  0.0165 -0.0469  0.0222
 5380W        W 9124   2.695   6.802   0.622 -0.1942  0.3896 -0.2233
 5381W        W 9125   2.644   0.340  12.026  0.3710  0.0689  0.0705
 5382W        W 9126   4.187   3.066   0.265  0.0999  0.1093 -0.3936
 5383W        W 9127   8.825   4.670   8.122  0.0142 -0.3525  0.2933
 5384W        W 9128   2.086   7.941  11.166  0.2658 -0.2217  0.2034
 5385W        W 9129   7.085   1.272   2.068  0.2023 -0.3910  0.1539
 5386W        W 9130   9.814   1.114  12.052  0.0148 -0.0774 -0.0518
 5387W        W 9131   1.664   8.570   2.023 -0.1208  0.2804  0.1114
 5388W        W 9132   5.466   8.062   9.584 -0.2034  0.0770 -0.0478
 5389W        W 9133   3.191   9.078   3.025  0.3082  0.1872 -0.1160
 5390W        W 9134   8.133   1.981   3.932 -0.0477 -0.1496 -0.0665
 5391W        W 9135   2.075   7.697  12.549  0.2012  0.0316 -0.0788
 5392W        W 9136   6.271   2.505   2.159  0.2796  0.0715  0.2244
 5393W        W 9137   5.033   8.264   1.965  0.4193  0.0842 -0.1141
 5394W        W 9138   2.214   3.003  12.266 -0.0136 -0.2597  0.1361
 5395W        W 9139   5.214   7.077   2.404 -0.0632  0.1857  0.2366
 5396W        W 9140   7.831   0.873   2.383 -0.1188 -0.1459 -0.0675
 5397W        W 9141   6.684   9.523   5.069 -0.0393  0.1550  0.0533
 5398W        W 9142   4.738   8.593  12.226  0.0593  0.1136  0.2616
 5399W        W 9143   4.858   0.309   9.705 -0.1691 -0.1633  0.0522
 5400W        W 9144   9.200   5.339   9.864 -0.1343  0.4317  0.0511
 5401W        W 9145   2.076   6.273   0.613  0.2854 -0.0508  0.0295
 5402W        W 9146   5.368   8.750   1.049 -0.0565 -0.1850  0.1594
 5403W        W 9147   1.403   1.052   3.191  0.2574  0.2043 -0.0426
 5404W        W 9148   7.795   4.651   8.608 -0.0599  0.2217 -0.0962
 5405W        W 9149   9.082   4.572   9.495 -0.3059 -0.0086  0.2136
 5406W        W 9150   6.930   3.999   9.446  0.2394  0.0049  0.1771
 5407W        W 9151   9.315   1.826  12.292  0.2083  0.0586  0.1027
 5408W        W 9152   9.718   8.804   0.916  0.1589  0.0025 -0.0111
 5409W        W 9153   0.867   0.234   9.900  0.2749  0.1384  0.0702
 5410W        W 9154   1.827   9.683   3.483 -0.1360  0.4144 -0.0090
 5411W        W 9155   6.811   7.788  11.379 -0.0519 -0.1913 -0.0889
 5412W        W 9156   7.444   1.849  10.070 -0.0879  0.2504  0.0245
 5413W        W 9157   5.456   3.099  12.013 -0.3441  0.3208  0.2236
 5414W        W 9158   1.717   4.148   3.416 -0.1193  0.0115 -0.1435
 5415W        W 9159   3.105   3.924   0.562 -0.1113 -0.4453 -0.2426
 5416W        W 9160   9.080   6.585  10.444 -0.2793  0.1121 -0.2115
 5417W        W 9161   8.098   0.291  10.820  0.2632  0.0601  0.0725
 5418W        W 9162   8.144   0.596   8.477 -0.1839 -0.0575  0.1378
 5419W        W 9163   2.011   1.284   1.804 -0.0192 -0.2458 -0.0396
 5420W        W 9164   6.201   4.515   1.715  0.1823  0.2362  0.0371
 5421W        W 9165   1.992   4.816   9.000 -0.0597 -0.2703  0.1132
 5422W        W 9166   1.477   3.394   3.884 -0.0225 -0.1487 -0.0285
 5423W        W 9167   7.055   4.303   2.233 -0.1748 -0.1537 -0.0479
 5424W        W 9168   8.279   0.611   3.780  0.3121 -0.2181  0.2187
 5425W        W 9169   8.288   9.407   1.111 -0.0836  0.0062 -0.1415
 5426W        W 9170   0.398   0.068   8.952 -0.0016  0.1308  0.2136
 5427W        W 9171   5.459   7.152   3.976 -0.2514 -0.3517 -0.1140
 5428W        W 9172   5.840   8.162   8.696 -0.2039 -0.0134  0.1703
 5429W        W 9173   5.668   5.654   1.089 -0.0610 -0.0804 -0.1638
 5430W        W 9174   6.547   1.669   2.472  0.1728  0.1990 -0.2185
 5431W        W 9175   9.660   9.668   3.424  0.2683  0.1458  0.4642
 5432W        W 9176   6.682   8.426   0.097 -0.1059  0.0449 -0.0975
 5433W        W 9177   6.949   5.002   3.518  0.1394  0.0532 -0.0660
 5434W        W 9178   2.882   1.264  12.733  0.0117 -0.1199 -0.3053
 5435W        W 9179   1.938   7.540   0.482 -0.0787 -0.1195  0.2033
 5436W        W 9180   2.413   9.587   8.849 -0.0193 -0.0366  0.2255
 5437W        W 9181   1.777   0.526   2.931 -0.2468  0.1396  0.0203
 5438W        W 9182   0.147   9.536   2.584 -0.1052 -0.2214  0.0248
 5439W        W 9183   8.304   2.693   1.228  0.1542  0.0021  0.0865
 5440W        W 9184   3.851   4.819   9.157 -0.0055 -0.4252 -0.1350
 5441W        W 9185   2.017   6.019   3.597 -0.1050 -0.1437 -0.0654
 5442W        W 9186   6.153   8.046   0.659  0.1378  0.1876 -0.0854
 5443W        W 9187   5.079   2.599   9.106 -0.0991  0.2323 -0.1485
 5444W        W 9188   1.629   4.183   3.973  0.0729 -0.1057 -0.1058
 5445W        W 9189   1.844   7.173  12.354  0.2109 -0.1002 -0.0669
 5446W        W 9190   9.587   3.959   9.814 -0.1274 -0.1638  0.1599
 5447W        W 9191   8.522   8.314   1.452 -0.2477  0.2774  0.0499
 5448W        W 9192   0.310   1.388  11.330  0.0485 -0.2695  0.5579
 5449W        W 9193   6.911   0.742  12.899  0.0397  0.1751 -0.0087
 5450W        W 9194   9.790   2.263   3.149 -0.0373 -0.1752 -0.3556
 5451W        W 9195   1.959   0.606   3.554  0.1095  0.0589 -0.2120
 5452W        W 9196   6.823   4.070   3.088  0.1186 -0.0325  0.3638
 5453W        W 9197   1.431   8.746   0.134  0.3473  0.2068 -0.0982
 5454W        W 9198   3.546   1.983  11.342 -0.1255  0.1831 -0.1558
 5455W        W 9199   5.282   5.130  11.049  0.1818 -0.0847  0.2473
 5456W        W 9200   7.456   2.556  12.287  0.0802 -0.3006 -0.3394
 5457W        W 9201   9.382   2.386  12.525  0.0231 -0.2156 -0.0935
 5458W        W 9202   9.223   5.859   2.139 -0.1113 -0.1366 -0.1551
 5459W        W 9203   1.698   5.519  12.103 -0.0994 -0.0880  0.1159
 5460W        W 9204   4.815   6.028  12.927  0.0606 -0.1424 -0.1983
 5461W        W 9205   9.276   4.677   0.129 -0.0075 -0.2022  0.1674
 5462W        W 9206   7.329   7.881   0.144  0.2150  0.1726 -0.0665
 5463W        W 9207   1.953   0.452   0.381  0.1528 -0.1295 -0.0206
 5464W        W 9208   3.818   7.473  11.542  0.2224 -0.2585 -0.0340
 5465W        W 9209   1.806   9.265  12.393 -0.0502  0.2009  0.0891
 5466W        W 9210   8.381   6.650   9.822  0.1149 -0.1658  0.2796
 5467W        W 9211   7.169   6.880   9.664  0.1351 -0.2804  0.0568
 5468W        W 9212   9.108   4.995   1.281 -0.0130 -0.0419  0.2827
 5469W        W 9213   0.302   5.285  10.824  0.2833 -0.0904 -0.2985
 5470W        W 9214   9.586   2.888   4.923 -0.0626 -0.0771 -0.3448
 5471W        W 9215   7.378   4.196   3.070 -0.0285  0.0399  0.1321
 5472W        W 9216   5.945   6.749   2.089  0.1014  0.1367  0.0435
 5473W        W 9217   7.156   2.392   4.030 -0.2570  0.0582  0.1200
 5474W        W 9218   9.126   8.479   4.131 -0.0185 -0.0210  0.0619
 5475W        W 9219   3.450   1.225  12.402 -0.1244  0.2526 -0.1180
 5476W        W 9220   3.833   8.442   1.343 -0.0093 -0.3073  0.0944
 5477W        W 9221   2.354   3.879   0.106 -0.1569  0.2954  0.0666
 5478W        W 9222   7.091   1.581   2.575 -0.1622  0.2143  0.3288
 5479W        W 9223   9.675   6.216  11.099  0.1277 -0.2697  0.0326
 5480W        W 9224   7.818   1.015   9.019  0.0478  0.2643  0.2219
 5481W        W 9225   1.257   3.177   1.306 -0.1241  0.1136  0.0328
 5482W        W 9226   9.554   2.033   0.668 -0.0505 -0.1378 -0.0165
 5483W        W 9227   3.889   8.437   3.074 -0.0231  0.1248  0.1058
 5484W        W 9228   0.591   7.133  11.586  0.0572  0.1665  0.1895
 5485W        W 9229   3.743   6.404  11.549  0.1496  0.6981 -0.2267
 5486W        W 9230   7.530   9.046   3.840  0.2295  0.2715  0.0350
 5487W        W 9231   1.510   3.112  12.896 -0.0413 -0.0103  0.2013
 5488W        W 9232   0.330   9.412  11.721  0.0949 -0.1423  0.0573
 5489W        W 9233   9.210   5.684   8.548 -0.0761  0.5313  0.1238
 5490W        W 9234   5.516   7.549   4.928  0.0005  0.2320  0.0560
 5491W        W 9235   6.133   4.996   9.282  0.2272 -0.2960 -0.0367
 5492W        W 9236   5.301   2.977  10.756 -0.2015  0.0716 -0.1133
 5493W        W 9237   3.617   8.445   4.062 -0.3556  0.2032  0.3651
 5494W        W 9238   3.196   6.610  12.093  0.1066 -0.0748  0.0244
 5495W        W 9239   0.806   1.085   0.363 -0.3142  0.2868 -0.3768
 5496W        W 9240   6.685   6.295   8.639  0.2551 -0.4213 -0.0434
 5497W        W 9241   8.421   4.175  12.953 -0.0326 -0.3680  0.0130
 5498W        W 9242   2.845   1.528  11.221 -0.1240  0.2525  0.1577
 5499W        W 9243   8.075   9.286   3.183 -0.2205  0.0203  0.0962
 5500W        W 9244   6.598   2.462   0.390 -0.0976  0.0109  0.2625
 5501W        W 9245   5.428   1.260   3.734 -0.0077  0.0712  0.1417
 5502W        W 9246   3.257   7.961  10.990 -0.1891  0.0165 -0.3092
 5503W        W 9247   6.467   0.821   0.614  0.0029 -0.1302 -0.1443
 5504W        W 9248   9.744   3.494   9.229 -0.4007  0.2056 -0.1084
 5505W        W 9249   5.920   6.226   1.994 -0.1474 -0.0717  0.0006
 5506W        W 9250   2.375   0.654  12.364  0.1987 -0.2171 -0.0971
 5507W        W 9251   2.571   1.014   9.407 -0.1283  0.2055  0.0034
 5508W        W 9252   6.307   5.587   2.093  0.2770 -0.2376 -0.2146
 5509W        W 9253   2.471   8.248   2.312  0.0605 -0.1184 -0.4613
 5510W        W 9254   1.811   6.766  10.330  0.1820 -0.1183 -0.0871
 5511W        W 9255   5.798   9.617  10.492  0.0921  0.1735  0.2919
 5512W        W 9256   2.034   3.456   9.126  0.3505  0.0122 -0.1127
 5513W        W 9257   5.603   8.761   2.065 -0.0615 -0.3871 -0.0863
 5514W        W 9258   9.832   8.951   1.528  0.2981  0.0722 -0.0544
 5515W        W 9259   5.654   0.119  11.807  0.0620 -0.1025 -0.0174
 5516W        W 9260   5.291   4.476  10.956 -0.2204  0.0522  0.1080
 5517W        W 9261   0.484   3.529   2.700 -0.2393 -0.1657  0.0742
 5518W        W 9262   6.680   2.371  11.663 -0.1502 -0.1606  0.1165
 5519W        W 9263   0.195   0.976   3.542  0.2715  0.0352  0.1847
 5520W        W 9264   5.956   3.137  10.598 -0.1264 -0.1272 -0.2122
 5521W        W 9265   6.986   2.735  11.464  0.0704 -0.3196  0.0986
 5522W        W 9266   5.935   6.550  11.893 -0.4005 -0.0695  0.0331
 5523W        W 9267   1.645   2.617  10.331 -0.0747  0.2515  0.3564
 5524W        W 9268   4.791   3.892   2.723 -0.0969  0.0465  0.5361
 5525W        W 9269   4.409   4.723  11.561  0.3007 -0.1205 -0.2073
 5526W        W 9270   8.649   7.038   9.513 -0.2680 -0.1883  0.1599
 5527W        W 9271   1.117   9.356   0.500 -0.1241 -0.0764  0.2050
 5528W        W 9272   9.207   0.635   1.009  0.1919  0.1222 -0.0401
 5529W        W 9273   4.003   3.412  12.522  0.1505 -0.2216 -0.0302
 5530W        W 9274   0.309   9.471   4.405 -0.3702 -0.0810 -0.2212
 5531W        W 9275   8.488   7.075   2.847  0.1214 -0.0701 -0.2004
 5532W        W 9276   2.933   7.065   2.858  0.0301 -0.1155  0.3889
 5533W        W 9277   1.994   1.897  12.197 -0.3700 -0.2620 -0.3478
 5534W        W 9278   0.593   5.160   1.913 -0.1820 -0.0756  0.0752
 5535W        W 9279   5.954   7.867   1.672 -0.0264  0.1655  0.2433
 5536W        W 9280   3.014   2.305  11.879  0.1590  0.1211  0.4375
 5537W        W 9281   8.089   3.732  11.411  0.3972  0.0866  0.0251
 5538W        W 9282   5.311   1.555   1.640  0.1461  0.3009 -0.2300
 5539W        W 9283   5.268   9.726  12.759  0.0328  0.0006 -0.1579
 5540W        W 9284   8.634   1.453   0.561 -0.1025  0.0959 -0.0876
 5541W        W 9285   6.283   1.930   9.300  0.1118  0.0793 -0.0712
 5542W        W 9286   9.688   7.666  10.975  0.0555 -0.2835 -0.2145
 5543W        W 9287   8.578   9.294  10.905  0.2543  0.1625  0.0810
 5544W        W 9288   1.407   2.194  11.578 -0.1380  0.1440 -0.0647
 5545W        W 9289   2.136   2.165   4.524 -0.1259 -0.3837 -0.0222
 5546W        W 9290   9.559   7.188   9.568  0.0224  0.0970  0.3320
 5547W        W 9291   1.401   2.104   0.605  0.6167 -0.0591 -0.1164
 5548W        W 9292   2.707   7.628   4.797  0.0204 -0.4511 -0.1945
 5549W        W 9293   6.054   5.212   2.159  0.3551  0.0404  0.0478
 5550W        W 9294   1.199   0.213  10.840  0.1178  0.3625  0.0517
 5551W        W 9295   1.728   2.444   8.479 -0.1204 -0.0527 -0.0146
 5552W        W 9296   5.895   5.744   3.650  0.0666  0.2030 -0.0076
 5553W        W 9297   2.537   2.345  11.144 -0.0845 -0.3843 -0.0125
 5554W        W 9298   7.910   8.582   3.509 -0.0930  0.0890 -0.1557
 5555W        W 9299   3.480   2.466   0.603  0.0979  0.3170  0.0597
 5556W        W 9300   8.393   2.049  11.083  0.0425  0.2730  0.1631
 5557W        W 9301   5.712   3.522  12.124  0.1084  0.0936 -0.2463
 5558W        W 9302   2.835   1.860   2.541 -0.3426 -0.0168 -0.1713
 5559W        W 9303   4.957   6.641   1.677 -0.0129  0.1745 -0.2498
 5560W        W 9304   4.997   9.034   2.350  0.0096 -0.3609  0.2377
 5561W        W 9305   2.070   9.439   0.387  0.1875 -0.3741  0.1306
 5562W        W 9306   8.758   8.035   9.826 -0.0600 -0.3170  0.1190
 5563W        W 9307   8.502   7.347   3.281  0.0470 -0.2972 -0.1983
 5564W        W 9308   2.642   7.818   0.140 -0.0718 -0.1481  0.1507
 5565W        W 9309   6.679   3.966   2.215 -0.0056  0.2022  0.2622
 5566W        W 9310   6.448   6.157   1.891  0.1276  0.0129  0.0508
 5567W        W 9311   4.597   7.510  10.108  0.1327  0.0540 -0.1801
 5568W        W 9312   3.703   6.308  12.965 -0.0017 -0.2130 -0.0933
 5569W        W 9313   5.076   5.044  12.065 -0.1378  0.0104 -0.1375
 5570W        W 9314   1.031   0.649   0.624 -0.1882  0.0682  0.3972
 5571W        W 9315   7.574   8.167   3.456 -0.1078  0.2516 -0.1297
 5572W        W 9316   6.113   9.544   9.044  0.0207 -0.0720  0.2428
 5573W        W 9317   6.484   3.294   1.365 -0.2927 -0.0142  0.0663
 5574W        W 9318   6.043   0.246   1.091  0.0026  0.2574  0.0429
 5575W        W 9319   5.698   8.413  12.842  0.1236 -0.1825 -0.0493
 5576W        W 9320   2.176   0.298  10.714 -0.0134 -0.4620 -0.4575
 5577W        W 9321   3.312   5.157  10.599 -0.0128 -0.1065 -0.0662
 5578W        W 9322   7.028   8.719  11.442  0.0734 -0.1249 -0.0556
 5579W        W 9323   7.579   5.762   3.120 -0.0870  0.1294 -0.0820
 5580W        W 9324   8.175   1.734   9.733 -0.0302 -0.1103  0.2212
 5581W        W 9325   4.289   3.041  12.653 -0.0260 -0.0166  0.1135
 5582W        W 9326   1.086   9.477  11.967 -0.0125  0.1261  0.1198
 5583W        W 9327   9.410   8.782   1.321 -0.2894  0.4252  0.1494
 5584W        W 9328   7.360   2.971  10.254  0.1917 -0.3232  0.0783
 5585W        W 9329   4.210   7.058  12.186 -0.1835  0.1153 -0.2970
 5586W        W 9330   9.765   2.267   3.683  0.0150 -0.4266  0.0759
 5587W        W 9331   5.140   0.528  12.062 -0.0678  0.0351  0.0964
 5588W        W 9332   3.317   1.416   9.443 -0.0653  0.2585 -0.0876
 5589W        W 9333   3.785   1.955   9.761 -0.0034 -0.2274 -0.2796
 5590W        W 9334   1.460   0.390   0.878 -0.0302 -0.0855  0.0885
 5591W        W 9335   2.947   0.523   0.126  0.0446  0.0874  0.1896
 5592W        W 9336   8.349   0.814   0.510  0.1429  0.2991  0.2408
 5593W        W 9337   5.899   4.256   2.600  0.0430 -0.0460 -0.1367
 5594W        W 9338   7.701   0.851   1.544 -0.2655  0.0966  0.0992
 5595W        W 9339   8.210   9.743  11.777  0.1026 -0.0707 -0.2654
 5596W        W 9340   1.561   7.562   0.022 -0.2173  0.0714 -0.1969
 5597W        W 9341   1.705   1.059   2.701  0.2432  0.1140  0.0966
 5598W        W 9342   3.695   7.165  11.077  0.1948  0.0664 -0.0965
 5599W        W 9343   4.104   6.999  11.318 -0.0952  0.1118  0.0242
 5600W        W 9344   9.678   9.147  12.701 -0.1725  0.0600 -0.1128
 5601W        W 9345   5.675   9.182  12.200  0.0973 -0.0618 -0.1812
 5602W        W 9346   4.763   5.068  10.284  0.2286  0.3157 -0.0514
 5603W        W 9347   0.566   5.465  12.148 -0.1196 -0.0681 -0.3058
 5604W        W 9348   8.452   7.163  10.896 -0.0677  0.0745  0.2941
 5605W        W 9349   9.839   3.928  12.091  0.0648  0.0874  0.1719
 5606W        W 9350   8.832   2.884   2.253  0.0558 -0.2256 -0.3549
 5607W        W 9351   8.855   4.008   3.666  0.1292  0.1510  0.0295
 5608W        W 9352   1.130   7.553   9.361  0.3089  0.2624 -0.1723
 5609W        W 9353   7.254   4.583   4.037 -0.0361  0.0563 -0.2029
 5610W        W 9354   8.170   0.131   0.281  0.1832  0.2108 -0.2613
 5611W        W 9355   4.734   1.076  10.139  0.2206 -0.0041  0.2150
 5612W        W 9356   0.359   0.692  12.751 -0.0972 -0.1673 -0.0608
 5613W        W 9357   1.717   4.938  10.878  0.3037 -0.0204  0.3592
 5614W        W 9358   9.476   1.487   0.608 -0.1920  0.1104  0.2262
 5615W        W 9359   9.442   8.147   9.812 -0.1238  0.1403 -0.0161
 5616W        W 9360   4.890   9.829   2.566 -0.0309  0.2209 -0.0644
 5617W        W 9361   9.187   0.696   2.647 -0.0834 -0.0650 -0.1577
 5618W        W 9362   7.941   9.055  12.848 -0.1417  0.1428 -0.0716
 5619W        W 9363   7.437   3.488   0.472 -0.4176 -0.0198 -0.1513
 5620W        W 9364   6.204   9.365   8.546  0.0236 -0.0383  0.1234
 5621W        W 9365   2.572   0.024   3.200 -0.0273  0.0042  0.1114
 5622W        W 9366   6.925   3.392   8.532  0.2103 -0.1198  0.1617
 5623W        W 9367   6.933   2.558   9.523  0.2430  0.4341 -0.2024
 5624W        W 9368   8.044   0.399   3.358 -0.2155  0.0918 -0.0751
 5625W        W 9369   7.128   9.266   3.023  0.2059  0.3021 -0.3144
 5626W        W 9370   1.144   8.646  11.713 -0.2677  0.2638 -0.0017
 5627W        W 9371   9.213   4.517   1.082  0.2466  0.0537 -0.0774
 5628W        W 9372   0.158   0.966  11.009 -0.1428 -0.1327 -0.1879
 5629W        W 9373   0.197   1.357  10.685  0.0910 -0.1191 -0.3238
 5630W        W 9374   1.195   1.187  12.595 -0.0519 -0.0433  0.1507
 5631W        W 9375   3.263   0.554   3.691  0.0890  0.0456 -0.1560
 5632W        W 9376   2.068   9.683   1.568  0.2079 -0.0876  0.0527
 5633W        W 9377   7.830   5.055   9.423  0.1237 -0.0534  0.1138
 5634W        W 9378   0.867   8.486   1.382  0.0467  0.1140  0.2462
 5635W        W 9379   7.138   9.438   8.921  0.2352  0.2180 -0.0995
 5636W        W 9380   3.182   7.443  10.873  0.0476  0.1141 -0.0921
 5637W        W 9381   7.650   6.751   3.924  0.0536 -0.3192  0.3512
 5638W        W 9382   2.099   6.138   8.705  0.1001  0.4272  0.0400
 5639W        W 9383   1.578   5.775  10.422  0.4757 -0.0584 -0.1942
 5640W        W 9384   5.563   4.463   9.803 -0.1049  0.0073 -0.0784
 5641W        W 9385   1.437   1.672  10.637 -0.1876 -0.0531 -0.2000
 5642W        W 9386   9.854   9.808  10.484 -0.1556  0.3546 -0.3440
 5643W        W 9387   2.828   3.842   0.160  0.0872  0.2085  0.0790
 5644W        W 9388   8.494   8.073   2.832  0.1041 -0.2641  0.1261
 5645W        W 9389   9.136   1.320   0.304  0.2633 -0.2487 -0.2613
 5646W        W 9390   7.213   0.741   1.748  0.3088 -0.0243  0.0428
 5647W        W 9391   9.564   0.531   0.711 -0.0444 -0.0577 -0.0732
 5648W        W 9392   1.313   4.980  12.182  0.3098 -0.0045 -0.3397
 5649W        W 9393   8.730   8.517   9.337  0.1231 -0.2950 -0.0596
 5650W        W 9394   7.595   3.826   0.156 -0.1561  0.0396  0.1325
 5651W        W 9395   8.884   7.672   1.161 -0.2361 -0.1884 -0.3117
 5652W        W 9396   5.252   7.714   4.122 -0.4482 -0.1769 -0.3027
 5653W        W 9397   7.785   9.881   2.297 -0.3538 -0.0880 -0.1145
 5654W        W 9398   7.989   1.063  11.110  0.3207 -0.1152 -0.0918
 5655W        W 9399   1.319   4.334   9.741 -0.0736  0.1113 -0.1074
 5656W        W 9400   9.016   7.378   3.012 -0.0930 -0.0194 -0.0446
 5657W        W 9401   0.943   6.115   4.358  0.0495  0.2710  0.1279
 5658W        W 9402   8.165   0.382   4.935 -0.2024  0.1325 -0.1695
 5659W        W 9403   6.400   3.291   3.678  0.2052 -0.0605  0.0127
 5660W        W 9404   4.259   8.958   4.695  0.1522 -0.1910 -0.3017
 5661W        W 9405   0.053   2.128   4.173 -0.2354 -0.0573 -0.1474
 5662W        W 9406   9.194   4.828   8.945  0.1484 -0.0090  0.1141
 5663W        W 9407   3.472   8.999  11.768 -0.3052  0.0412 -0.0226
 5664W        W 9408   2.980   1.703   0.031  0.1829  0.0048 -0.1586
 5665W        W 9409   6.535   0.427  11.673  0.2522  0.1170 -0.1878
 5666W        W 9410   6.051   1.107   1.982  0.1289  0.0180 -0.4689
 5667W        W 9411   3.776   0.476   9.744 -0.1663  0.0142  0.1806
 5668W        W 9412   8.926   3.690   9.252 -0.1118 -0.1609  0.0493
 5669W        W 9413   6.980   3.592   9.769 -0.2212 -0.0028 -0.0840
 5670W        W 9414   2.687   7.255   0.916  0.0323 -0.4079  0.0007
 5671W        W 9415   6.747   1.231   2.614 -0.0240 -0.0410  0.3694
 5672W        W 9416   9.487   3.675   1.525  0.0681 -0.5079 -0.0570
 5673W        W 9417   3.078   2.561   0.146 -0.0461  0.0432  0.1907
 5674W        W 9418   1.196   5.955   2.763  0.0578  0.1737  0.0740
 5675W        W 9419   2.247   7.478  10.933  0.1197  0.1822 -0.2323
 5676W        W 9420   0.564   4.199   0.574  0.0855  0.1866 -0.0552
 5677W        W 9421   2.112   8.654  10.549 -0.2018  0.0047  0.1272
 5678W        W 9422   6.287   3.096   0.538 -0.1768  0.0351  0.1591
 5679W        W 9423   9.529   9.045   9.374 -0.2778  0.3040 -0.0427
 5680W        W 9424   2.182   5.357  12.048 -0.0789  0.3695  0.1004
 5681W        W 9425   5.278   9.512   9.216  0.3291  0.1412 -0.4491
 5682W        W 9426   5.035   1.193   2.947 -0.1354  0.1850 -0.0154
 5683W        W 9427   1.152   4.976   1.565  0.1111  0.1870 -0.4192
 5684W        W 9428   4.766   2.881   1.597  0.1983 -0.1280  0.1649
 5685W        W 9429   6.573   5.386  12.322  0.0947  0.0495 -0.2803
 5686W        W 9430   6.374   2.283  10.839 -0.0264  0.2968  0.0156
 5687W        W 9431   5.222   4.647  10.500 -0.2006 -0.1347  0.1493
 5688W        W 9432   3.288   4.424   2.002  0.0460 -0.1718  0.4540
 5689W        W 9433   0.196   1.801   9.849 -0.0244 -0.2525 -0.2041
 5690W        W 9434   0.622   2.749   3.395  0.1405 -0.0958 -0.0725
 5691W        W 9435   4.845   7.040  10.151  0.0272 -0.0006 -0.0761
 5692W        W 9436   7.901   4.272   0.747 -0.0550  0.0779  0.2509
 5693W        W 9437   6.928   6.415   4.545 -0.2047 -0.4051  0.0664
 5694W        W 9438   2.119   3.836  12.648 -0.0814 -0.0402 -0.3803
 5695W        W 9439   9.803   6.714   2.424 -0.2538  0.2305  0.3120
 5696W        W 9440   7.421   1.040   0.294 -0.1828  0.1365 -0.2849
 5697W        W 9441   4.557   7.815   2.776 -0.1491  0.2150  0.1413
 5698W        W 9442   0.076   6.607   0.484  0.0666 -0.0785  0.1961
 5699W        W 9443   2.480   0.666   9.095  0.0487  0.0451  0.0043
 5700W        W 9444   9.841   8.267   3.934 -0.2028 -0.2365  0.2647
 5701W        W 9445   1.320   7.195  10.925  0.0092  0.1743  0.0150
 5702W        W 9446   3.875   0.796   3.077  0.3635 -0.0287 -0.0177
 5703W        W 9447   2.667   7.703   4.301 -0.0324  0.0689 -0.0489
 5704W        W 9448   8.430   9.759  10.579 -0.0742  0.1251 -0.1319
 5705W        W 9449   8.940   1.492   1.018 -0.1805 -0.1256  0.1235
 5706W        W 9450   8.424   8.948   9.406 -0.0922  0.2417 -0.1704
 5707W        W 9451   1.572   6.212  11.610  0.2666  0.0927 -0.0114
 5708W        W 9452   9.461   8.648  12.710 -0.1456  0.3663  0.0590
 5709W        W 9453   2.486   1.066   3.036  0.1148 -0.0995  0.1946
 5710W        W 9454   3.684   1.858  10.320  0.1984  0.3453 -0.0766
 5711W        W 9455   3.858   3.645  11.788 -0.2265 -0.1267 -0.0130
 5712W        W 9456   2.908   0.680  12.273 -0.1664 -0.3319 -0.3265
 5713W        W 9457   9.512   5.395   2.070 -0.2193 -0.1052 -0.0614
 5714W        W 9458   5.287   7.200   2.878  0.1993 -0.2410 -0.1117
 5715W        W 9459   3.466   4.322   2.969 -0.1101 -0.1152 -0.1148
 5716W        W 9460   3.795   4.911   2.419 -0.2672  0.0285 -0.0963
 5717W        W 9461   0.930   9.457  10.691 -0.3589  0.2584 -0.0283
 5718W        W 9462   7.280   3.140   8.870  0.0673  0.2370  0.3184
 5719W        W 9463   7.366   6.637  12.415 -0.1919 -0.2849 -0.0675
 5720W        W 9464   5.368   1.689  11.424 -0.0590 -0.1718  0.0390
 5721W        W 9465   5.117   7.471  10.068 -0.1615  0.2595  0.0078
 5722W        W 9466   1.068   0.086   3.487 -0.2313  0.1133  0.0460
 5723W        W 9467   9.624   2.658  10.305 -0.4497  0.1499 -0.1950
 5724W        W 9468   0.753   2.934   2.047  0.0242 -0.2480 -0.1435
 5725W        W 9469   0.856   8.601   9.366  0.0093 -0.3119  0.1203
 5726W        W 9470   5.261   4.189   0.860  0.1520 -0.1367 -0.4548
 5727W        W 9471   2.055   8.435   1.038 -0.0648  0.1781  0.0201
 5728W        W 9472   0.058   6.633  10.758 -0.2485  0.0472  0.0147
 5729W        W 9473   4.769   8.869   1.391  0.2576 -0.2471  0.1350
 5730W        W 9474   1.559   6.148   3.576 -0.1466  0.4247  0.1102
 5731W        W 9475   1.474   2.051   9.679 -0.1010  0.0826 -0.1994
 5732W        W 9476   4.229   6.961  12.750 -0.0212  0.0824  0.1817
 5733W        W 9477   1.531   5.668  12.919 -0.2223 -0.0209 -0.0795
 5734W        W 9478   3.463   6.471  12.504  0.0907 -0.3904  0.1466
 5735W        W 9479   7.280   9.227   1.815 -0.0109 -0.2157  0.3034
 5736W        W 9480   8.931   4.093   3.050 -0.1566  0.0149 -0.4017
 5737W        W 9481   0.420   5.798   5.254 -0.1684 -0.1946 -0.0991
 5738W        W 9482   3.565   2.194  12.488  0.5590 -0.0189  0.2239
 5739W        W 9483   4.454   9.604   0.956  0.0465  0.2827  0.2264
 5740W        W 9484   4.555   9.804  10.443  0.1400 -0.2126  0.0830
 5741W        W 9485   8.913   1.430   3.908  0.3775 -0.2797 -0.0979
 5742W        W 9486   6.165   5.237   8.385 -0.0810  0.1563 -0.3090
 5743W        W 9487   6.849   7.891  10.862  0.0967 -0.1247 -0.0175
 5744W        W 9488   9.034   8.190   2.171  0.0251  0.1451  0.2113
 5745W        W 9489   2.789   6.600  11.458 -0.3028 -0.0756  0.1594
 5746W        W 9490   2.721   9.669  12.654  0.2480  0.2821 -0.1128
 5747W        W 9491   8.205   4.747  10.442 -0.0987  0.1164  0.1005
 5748W        W 9492   6.626   3.775   1.013  0.2218 -0.1206 -0.1608
 5749W        W 9493   4.125   3.602   1.370 -0.1719 -0.2333 -0.0682
 5750W        W 9494   0.593   8.653   1.827  0.2218 -0.1193  0.2517
 5751W        W 9495   1.650   5.873   2.057 -0.1284  0.0570 -0.4995
 5752W        W 9496   8.747   8.022   9.282  0.0414 -0.1141  0.0487
 5753W        W 9497   8.551   7.294   2.366 -0.3874 -0.1864 -0.3670
 5754W        W 9498   5.309   3.885  11.425  0.0727  0.0919  0.0027
 5755W        W 9499   7.545   7.192   0.938  0.0622  0.0983  0.3829
 5756W        W 9500   1.475   9.470   1.500 -0.3473 -0.0448  0.0060
 5757W        W 9501   7.676   0.406   8.533  0.0759 -0.2491  0.1290
 5758W        W 9502   5.271   6.948   0.509  0.1019 -0.1214  0.0826
 5759W        W 9503   6.366   4.853   2.068 -0.3608  0.0820  0.1175
 5760W        W 9504   8.620   9.783   0.982  0.1792  0.0952  0.0170
 5761W        W 9505   5.360   2.097  12.350 -0.1162  0.4147 -0.1335
 5762W        W 9506   7.769   0.758   4.979 -0.3158 -0.0890  0.0166
 5763W        W 9507   1.120   9.477   4.665  0.1190 -0.0609 -0.0976
 5764W        W 9508   8.652   1.267   3.470 -0.1709  0.2370 -0.1376
 5765W        W 9509   2.757   6.845   9.466  0.0735 -0.1651 -0.1286
 5766W        W 9510   2.755   6.239   2.531 -0.0390 -0.3723  0.1774
 5767W        W 9511   0.631   4.879  10.314 -0.0469  0.1946 -0.3710
 5768W        W 9512   5.967   8.844   9.478 -0.2854  0.3412 -0.0011
 5769W        W 9513   5.276   9.060  10.602 -0.3683  0.1594 -0.0946
 5770W        W 9514   5.930   7.062  12.784 -0.0634 -0.1543  0.2806
 5771W        W 9515   7.127   5.883   0.861  0.1887 -0.0340  0.0229
 5772W        W 9516   1.109   2.022   9.159  0.2837 -0.0586 -0.1909
 5773W        W 9517   2.160   5.883   3.000 -0.2162 -0.1831 -0.1062
 5774W        W 9518   4.419   1.220  10.580  0.1540  0.2534  0.0539
 5775W        W 9519   5.868   3.138   0.273  0.0151  0.1474 -0.1167
 5776W        W 9520   4.616   8.857   5.042  0.1034  0.0385 -0.0229
 5777W        W 9521   1.255   4.230   3.533  0.0719 -0.3679  0.1523
 5778W        W 9522   8.633   9.315  10.290  0.1807  0.1571  0.2378
 5779W        W 9523   3.629   6.521   3.333  0.3890  0.0351  0.3436
 5780W        W 9524   1.667   9.687  10.062 -0.0756 -0.0457 -0.0461
 5781W        W 9525   0.996   4.872   4.201 -0.0923  0.0235 -0.1224
 5782W        W 9526   0.315   8.322  12.068  0.1265 -0.2067  0.3154
 5783W        W 9527   7.428   9.272   2.452  0.1726 -0.2478 -0.3482
 5784W        W 9528   0.574   1.192   1.438  0.1605  0.0235  0.0532
 5785W        W 9529   7.799   1.755  10.780 -0.0282  0.5854  0.5377
 5786W        W 9530   5.558   9.054   4.268  0.0802 -0.0706  0.5771
 5787W        W 9531   2.525   5.327   0.451  0.0168 -0.1787  0.1210
 5788W        W 9532   7.880   4.586  11.520 -0.3760 -0.1965 -0.3019
 5789W        W 9533   9.827   7.551   2.050 -0.0561  0.2848  0.0061
 5790W        W 9534   4.792   6.925   2.640 -0.2127  0.4040  0.0870
 5791W        W 9535   5.174   8.533   1.478 -0.0499  0.0791  0.0597
 5792W        W 9536   8.033   5.785   0.432  0.0054 -0.1088  0.0179
 5793W        W 9537   0.334   4.303  11.797 -0.2628 -0.1134 -0.3899
 5794W        W 9538   8.745   0.563   0.856  0.4584 -0.0343  0.1726
 5795W        W 9539   2.122   0.280   1.418 -0.0562  0.1888  0.0823
 5796W        W 9540   4.251   5.000   1.301 -0.2928  0.1095 -0.3047
 5797W        W 9541   9.759   6.694  10.289  0.0881  0.1064  0.0037
 5798W        W 9542   1.737   5.462   1.112  0.1316 -0.0301  0.1427
 5799W        W 9543   0.509   0.011   9.463  0.1985  0.0054  0.1141
 5800W        W 9544   6.428   0.688   0.058  0.1406 -0.0712 -0.1810
 5801W        W 9545   5.643   7.061  10.808  0.0651  0.0380 -0.1197
 5802W        W 9546   1.511   5.318   0.604 -0.1169 -0.1422  0.0702
 5803W        W 9547   2.529   7.689   2.867  0.1851 -0.2851 -0.0939
 5804W        W 9548   1.726   8.965   2.947 -0.2968  0.0327  0.0324
 5805W        W 9549   7.123   3.907   8.475  0.0787 -0.0462  0.0514
 5806W        W 9550   9.647   8.124  10.686  0.0460 -0.0677 -0.1867
 5807W        W 9551   7.486   3.481  11.949 -0.0688 -0.1857 -0.1746
 5808W        W 9552   2.123   8.373   5.489 -0.3866  0.1716  0.1401
 5809W        W 9553   7.972   6.480  12.285  0.1293  0.0440  0.2679
 5810W        W 9554   2.955   0.164   9.831  0.0162 -0.1500 -0.0242
 5811W        W 9555   2.911   6.878  12.446 -0.0065  0.0721  0.1559
 5812W        W 9556   5.005   7.620  11.196 -0.0851  0.1078 -0.1976
 5813W        W 9557   1.044   2.378   9.555  0.0840  0.0769  0.2752
 5814W        W 9558   0.271   0.977   0.184  0.3270  0.2301 -0.1013
 5815W        W 9559   1.920   6.631   2.361  0.0417 -0.2226 -0.3815
 5816W        W 9560   4.294   2.630   0.060 -0.0628  0.2718  0.2545
 5817W        W 9561   4.257   8.132   2.420  0.3369  0.1549 -0.1271
 5818W        W 9562   1.618   6.070   9.575  0.0021 -0.3239 -0.1047
 5819W        W 9563   8.406   9.053   0.029 -0.1564 -0.2262  0.0868
 5820W        W 9564   0.616   7.720   9.094 -0.1973  0.3190 -0.0559
 5821W        W 9565   2.043   6.966   3.772 -0.2897  0.0992  0.0303
 5822W        W 9566   7.583   8.648  12.801  0.0156 -0.0970 -0.1553
 5823W        W 9567   7.185   4.605   1.843  0.2942 -0.0146  0.0378
 5824W        W 9568   8.895   7.350   9.249  0.2016  0.1197  0.1389
 5825W        W 9569   4.270   1.065  11.965  0.2194 -0.0102 -0.0686
 5826W        W 9570   8.899   3.336   2.985 -0.2780 -0.0703 -0.3469
 5827W        W 9571   0.963   7.606  10.805 -0.0024 -0.0571  0.0380
 5828W        W 9572   5.077   1.413   9.923 -0.2172  0.0020  0.2761
 5829W        W 9573   1.659   4.461   2.020 -0.0554  0.0011 -0.5370
 5830W        W 9574   0.149   5.118  12.862 -0.5216 -0.0782  0.3129
 5831W        W 9575   2.408   1.239   4.205 -0.1568  0.0634 -0.1565
 5832W        W 9576   8.123   8.673   9.758 -0.1292 -0.2239 -0.2180
 5833W        W 9577   1.951   8.813   9.046  0.1097  0.0165  0.0290
 5834W        W 9578   8.467   9.714   0.485  0.2572 -0.3007  0.0236
 5835W        W 9579   0.584   7.753  12.147  0.1705  0.2239 -0.0335
 5836W        W 9580   1.373   7.811   3.858 -0.2103  0.1692 -0.4005
 5837W        W 9581   8.254   7.892  10.503 -0.1834 -0.3385  0.2588
 5838W        W 9582   7.337   0.695   9.224  0.1266 -0.0568 -0.1296
 5839W        W 9583   5.660   4.681  10.677  0.1149  0.4375 -0.1635
 5840W        W 9584   9.226   8.595   4.901 -0.1612  0.0748  0.0330
 5841W        W 9585   6.965   2.248   0.001  0.1704 -0.0536  0.3153
 5842W        W 9586   3.524   9.305   3.764 -0.2490  0.0985 -0.4482
 5843W        W 9587   0.544   0.125   0.047  0.0476 -0.3287  0.2340
 5844W        W 9588   3.588   7.853   3.848 -0.1030 -0.2980  0.0142
 5845W        W 9589   5.296   0.459  10.002  0.1397 -0.1409  0.0088
 5846W        W 9590   6.955   2.981   2.775  0.4457 -0.3913  0.0976
 5847W        W 9591   7.453   9.385  12.889  0.0227  0.2553 -0.0759
 5848W        W 9592   8.373   2.430  12.500  0.1471 -0.0620 -0.3210
 5849W        W 9593   6.779   1.191  11.082 -0.0015  0.3715  0.3453
 5850W        W 9594   5.910   7.942  12.551 -0.2518  0.0108  0.0954
 5851W        W 9595   3.110   2.935  11.819  0.1247 -0.1976 -0.1705
 5852W        W 9596   3.079   1.730   1.634 -0.0312 -0.0042 -0.0965
 5853W        W 9597   1.446   3.163  11.005 -0.0087  0.1444  0.1214
 5854W        W 9598   5.135   0.181   4.052 -0.2064  0.0080  0.0719
 5855W        W 9599   2.440   6.124  12.509  0.0553  0.0526  0.0037
 5856W        W 9600   0.776   6.405   1.349 -0.1266  0.2575 -0.1303
 5857W        W 9601   6.549   3.958  11.190  0.2693  0.1234 -0.0222
 5858W        W 9602   0.705   2.641   8.722 -0.1161 -0.1199  0.7827
 5859W        W 9603   6.035   7.162   3.908 -0.2531  0.2766 -0.0211
 5860W        W 9604   1.467   1.726   0.372 -0.0176  0.0632  0.1415
 5861W        W 9605   7.139   2.712  10.591  0.0838  0.0420  0.0105
 5862W        W 9606   8.397   1.146   7.993 -0.0041 -0.1023  0.0360
 5863W        W 9607   1.099   1.132   8.904  0.0296 -0.2319  0.2918
 5864W        W 9608   6.147   4.394   0.604  0.0086 -0.1237 -0.1206
 5865W        W 9609   1.373   3.732   3.540 -0.1543  0.0547  0.0018
 5866W        W 9610   1.384   9.842  10.447  0.0684 -0.3160  0.1737
 5867W        W 9611   8.699   8.110   0.150  0.2709  0.3427  0.0226
 5868W        W 9612   3.589   0.969  10.622 -0.2359 -0.0821  0.1374
 5869W        W 9613   0.094   4.897   9.976  0.3364 -0.2238  0.1898
 5870W        W 9614   3.428   1.292   0.385  0.0759  0.1142  0.0500
 5871W        W 9615   5.922   1.573   1.239  0.5088  0.0691 -0.0124
 5872W        W 9616   2.265   3.910   0.999  0.0232 -0.0171 -0.0172
 5873W        W 9617   2.452   6.193  10.200 -0.3211  0.0039 -0.2207
 5874W        W 9618   3.298   3.426  11.005 -0.3726  0.2891  0.0457
 5875W        W 9619   7.644   2.601  11.295  0.1466 -0.0072  0.0436
 5876W        W 9620   7.534   1.258   2.591  0.0054 -0.2209  0.1518
 5877W        W 9621   5.841   0.317   2.354 -0.1241 -0.1364  0.0754
 5878W        W 9622   7.336   0.489  12.737  0.3716 -0.0024  0.2617
 5879W        W 9623   4.572   6.843  11.452 -0.1428 -0.0139  0.1816
 5880W        W 9624   7.508   2.950  11.607  0.3543 -0.0541 -0.0718
 5881W        W 9625   8.945   0.272   3.877 -0.1282  0.0407  0.2795
 5882W        W 9626   6.668   5.404   8.639  0.1514  0.1893  0.5111
 5883W        W 9627   8.240   4.439   9.985  0.0498 -0.1952 -0.2894
 5884W        W 9628   7.564   9.114  10.475  0.0697  0.1469 -0.1334
 5885W        W 9629   3.158   3.441   9.567 -0.2144 -0.3293 -0.0410
 5886W        W 9630   9.807   9.242   0.823  0.0466  0.1904  0.0081
 5887W        W 9631   8.407   7.139   9.998  0.0297  0.1504 -0.0252
 5888W        W 9632   4.799   9.372   9.072 -0.1286  0.0747 -0.0786
 5889W        W 9633   9.432   0.901   4.009 -0.2000 -0.0023 -0.0436
 5890W        W 9634   6.290   3.548  12.541 -0.1903  0.0092 -0.1607
 5891W        W 9635   6.851   1.687  10.358 -0.4887 -0.1275 -0.2416
 5892W        W 9636   2.865   5.535   0.830 -0.2701 -0.0552 -0.1998
 5893W        W 9637   8.930   6.777  11.774 -0.0828  0.1432  0.3631
 5894W        W 9638   2.442   2.842   9.324  0.1753  0.1323  0.0427
 5895W        W 9639   7.474   6.718  10.715 -0.2335  0.0065 -0.0263
 5896W        W 9640   3.474   0.375  12.874  0.1699 -0.0973 -0.3624
 5897W        W 9641   5.613   7.634   2.948  0.0817  0.2084  0.2898
 5898W        W 9642   6.396   1.470   2.015  0.2220  0.0525  0.0342
 5899W        W 9643   9.126   4.188  11.862  0.0078  0.0883 -0.3070
 5900W        W 9644   0.585   3.890  10.437  0.1002 -0.0897  0.1244
 5901W        W 9645   1.244   2.070   1.233 -0.0339  0.3635 -0.2120
 5902W        W 9646   0.888   0.732   5.064  0.0142  0.0362  0.1597
 5903W        W 9647   6.155   0.418   4.095 -0.0887  0.2303 -0.1280
 5904W        W 9648   2.913   5.952  10.781 -0.1409  0.1134  0.0430
 5905W        W 9649   9.372   5.528   0.581 -0.0373  0.1249  0.0448
 5906W        W 9650   6.169   7.097   1.336  0.0236  0.2671  0.0999
 5907W        W 9651   4.285   7.874  10.394 -0.2262 -0.1126  0.1992
 5908W        W 9652   6.956   7.421   1.714  0.0259 -0.0630 -0.1485
 5909W        W 9653   2.439   5.846   2.557  0.0570 -0.0096  0.3334
 5910W        W 9654   7.944   7.976   0.876  0.1068  0.1032 -0.2200
 5911W        W 9655   4.884   9.505   9.671  0.0609 -0.0757  0.0680
 5912W        W 9656   3.966   3.251  12.029  0.0327 -0.0069  0.1177
 5913W        W 9657   8.473   1.347   8.739 -0.0456 -0.0515 -0.0343
 5914W        W 9658   0.242   9.549   8.658 -0.0692 -0.2449  0.0766
 5915W        W 9659   2.131   0.996  11.294  0.0035  0.4390 -0.1163
 5916W        W 9660   7.392   7.622   9.343  0.1203  0.0092 -0.2404
 5917W        W 9661   6.534   1.505   4.629 -0.0197 -0.1882  0.4541
 5918W        W 9662   5.479   8.695   3.850 -0.1340  0.1146 -0.0335
 5919W        W 9663   4.690   3.961   1.310 -0.1469  0.1314 -0.2143
 5920W        W 9664   0.759   8.230  10.320  0.0735 -0.0529  0.1131
 5921W        W 9665   8.191   6.214   0.273 -0.2756  0.0784 -0.2954
 5922W        W 9666   2.538   9.014   3.399  0.0448  0.0324 -0.0966
 5923W        W 9667   0.249   4.865   1.880 -0.1354  0.2665  0.1288
 5924W        W 9668   7.485   9.075   8.887 -0.1080  0.0622 -0.1830
 5925W        W 9669   0.916   0.452  11.794  0.0249 -0.2966  0.2727
 5926W        W 9670   1.990   6.890   3.143 -0.0166 -0.2853  0.1862
 5927W        W 9671   3.717   8.566   1.789 -0.0693  0.1347  0.0322
 5928W        W 9672   0.903   0.979   2.446  0.2272 -0.0794  0.1852
 5929W        W 9673   3.571   2.484   9.469 -0.0044  0.2399  0.2597
 5930W        W 9674   8.586   0.037   0.008 -0.0783  0.2936  0.3181
 5931W        W 9675   6.387   1.045   9.797  0.1851 -0.0478  0.2532
 5932W        W 9676   4.772   3.089   1.152 -0.0334  0.1547 -0.0768
 5933W        W 9677   3.735   6.835  12.969  0.0560  0.0382  0.0708
 5934W        W 9678   9.211   7.434   0.786 -0.1197  0.1320  0.0248
 5935W        W 9679   6.273   1.119   2.421 -0.0577 -0.0217 -0.3395
 5936W        W 9680   2.963   7.280   4.212  0.1174 -0.2513 -0.0655
 5937W        W 9681   3.583   7.734   1.917  0.6550  0.0915  0.2598
 5938W        W 9682   1.047   8.114   2.562  0.0480  0.1064 -0.1704
 5939W        W 9683   7.735   4.565  12.310  0.2058  0.1594  0.0087
 5940W        W 9684   9.363   4.686  11.474 -0.2736  0.0535  0.6555
 5941W        W 9685   4.141   0.721   1.864  0.0317 -0.1036  0.1235
 5942W        W 9686   4.413   2.325   2.835 -0.1626 -0.0254  0.2532
 5943W        W 9687   9.347   2.889   9.914  0.1416 -0.3274  0.1633
 5944W        W 9688   7.471   5.505  10.119 -0.0333 -0.4385 -0.2877
 5945W        W 9689   2.795   0.114   8.873 -0.3412  0.4297  0.1235
 5946W        W 9690   0.019   7.769   9.974 -0.6368  0.0537 -0.0657
 5947W        W 9691   8.995   7.006   0.404 -0.0319 -0.4630  0.2157
 5948W        W 9692   9.387   3.862   8.009  0.1145  0.5786 -0.0009
 5949W        W 9693   4.528   4.321   3.481  0.1326 -0.1203 -0.1876
 5950W        W 9694   8.888   5.669   0.102  0.0888 -0.3473  0.1557
 5951W        W 9695   0.163   4.519   2.240  0.2223 -0.1814 -0.2804
 5952W        W 9696   5.434   3.488  10.638 -0.4950  0.1930  0.3363
 5953W        W 9697   4.020   7.340  12.591  0.1528  0.2346 -0.1393
 5954W        W 9698   6.604   4.717   2.812 -0.3257  0.1586 -0.1953
 5955W        W 9699   4.482   3.955  10.689  0.0998  0.4606  0.0122
 5956W        W 9700   2.027   4.896  12.887  0.0755  0.0340  0.0758
 5957W        W 9701   8.967   4.439   3.950 -0.0372  0.2501 -0.0032
 5958W        W 9702   7.444   5.724  12.268 -0.0002  0.0741 -0.0096
 5959W        W 9703   3.640   0.976   9.617 -0.0719  0.1948  0.1682
 5960W        W 9704   5.293   9.408   2.574  0.0759 -0.1257 -0.4330
 5961W        W 9705   7.738   5.233   0.796  0.3000  0.1688  0.1245
 5962W        W 9706   9.125   0.922  10.058 -0.0643  0.3627  0.0043
 5963W        W 9707   9.059   2.784  12.035  0.0386 -0.0294 -0.2060
 5964W        W 9708   5.959   7.377   1.749  0.3179  0.0459  0.0607
 5965W        W 9709   5.509   4.138  10.506  0.3864 -0.0333  0.0598
 5966W        W 9710   2.527   7.757   9.230  0.2203  0.0687  0.3242
 5967W        W 9711   2.228   8.543   9.892 -0.1360  0.1515 -0.1469
 5968W        W 9712   3.813   2.936   2.987 -0.1969 -0.4705  0.0681
 5969W        W 9713   1.851   4.880   3.033  0.0096  0.0522 -0.0628
 5970W        W 9714   3.700   0.932  10.112  0.0797  0.0563  0.0180
 5971W        W 9715   2.245   8.122   2.739 -0.2397  0.0103  0.1166
 5972W        W 9716   6.090   1.925   3.349  0.1782 -0.0791  0.1089
 5973W        W 9717   0.659   6.171   2.806 -0.0830 -0.1097  0.1977
 5974W        W 9718   1.623   3.566  11.685  0.0445 -0.1208 -0.0314
 5975W        W 9719   6.083   6.441   2.424 -0.0742  0.0835  0.0359
 5976W        W 9720   9.887   0.628   9.427  0.1504 -0.1276 -0.0447
 5977W        W 9721   8.578   3.893   1.993  0.1433 -0.3142  0.2385
 5978W        W 9722   0.462   3.287  12.717  0.3289  0.1680 -0.1846
 5979W        W 9723   4.911   5.174   3.437  0.1642 -0.3754  0.2060
 5980W        W 9724   7.504   5.678   9.064  0.2166  0.0177  0.1120
 5981W        W 9725   4.993   9.569   2.973  0.0933  0.1966  0.1175
 5982W        W 9726   7.076   7.490   0.351 -0.2435  0.0726  0.0207
 5983W        W 9727   4.197   6.196  11.011 -0.1343 -0.0309  0.0528
 5984W        W 9728   9.501   7.671  12.110 -0.2270 -0.0116 -0.0080
 5985W        W 9729   1.667   6.472   9.885 -0.0126  0.2612 -0.0439
 5986W        W 9730   6.629   2.405   3.303  0.3578 -0.1803  0.2162
 5987W        W 9731   8.601   2.854  12.380  0.1059 -0.1099  0.2160
 5988W        W 9732   4.561   3.348  11.240 -0.2320 -0.2088 -0.1316
 5989W        W 9733   8.520   4.535   3.704 -0.1846  0.0541  0.0226
 5990W        W 9734   1.486   9.308   8.962 -0.1589 -0.0640  0.2120
 5991W        W 9735   9.343   6.056   1.637 -0.1268  0.3412  0.1678
 5992W        W 9736   5.623   5.375  12.751 -0.2010 -0.0993  0.0703
 5993W        W 9737   7.787   8.601   1.156  0.2271 -0.2380  0.1727
 5994W        W 9738   9.603   3.664  12.499  0.0986  0.0016  0.0656
 5995W        W 9739   4.916   1.884  11.603 -0.3219  0.2685 -0.1506
 5996W        W 9740   8.687   3.161   3.497 -0.0834 -0.1194 -0.0445
 5997W        W 9741   2.076   6.700  12.194 -0.0387  0.0433  0.1301
 5998W        W 9742   0.663   0.751   4.070 -0.3625  0.2686 -0.0203
 5999W        W 9743   2.600   8.389   4.223  0.0892 -0.1144  0.1304
 6000W        W 9744   8.674   1.970   9.832  0.1009  0.3520  0.1531
 6001W        W 9745   5.401   7.408   1.638  0.1632 -0.4133  0.2247
 6002W        W 9746   1.529   4.913   1.929  0.3745 -0.1736 -0.0462
 6003W        W 9747   3.881   9.080  12.151 -0.1160 -0.2945  0.0153
 6004W        W 9748   5.728   2.390   1.871  0.3677 -0.1809 -0.0069
 6005W        W 9749   7.206   5.622  12.925 -0.0309 -0.1226  0.3857
 6006W        W 9750   6.729   1.870  11.327 -0.1565  0.3339 -0.4288
 6007W        W 9751   3.102   7.016   0.767 -0.3292  0.0033  0.1785
 6008W        W 9752   1.676   3.010   0.987 -0.1007 -0.0950  0.1955
 6009W        W 9753   7.887   2.242   3.540 -0.1470 -0.1884  0.1106
 6010W        W 9754   6.205   3.438   0.916 -0.2432  0.0390 -0.0122
 6011W        W 9755   3.442   4.273   0.682  0.2454  0.0242 -0.0951
 6012W        W 9756   5.240   3.552   9.594 -0.3137  0.0821 -0.0017
 6013W        W 9757   7.663   1.143   1.061  0.1068 -0.2768 -0.0897
 6014W        W 9758   0.448   1.831   0.607  0.0660 -0.0006  0.4025
 6015W        W 9759   5.677   8.138   2.860 -0.1045 -0.1209  0.2156
 6016W        W 9760   4.318   2.602  10.367  0.5250 -0.0041  0.0032
 6017W        W 9761   6.351   5.873  12.241  0.4943 -0.1369 -0.0686
 6018W        W 9762   6.224   3.698  12.057  0.1784  0.1482 -0.0142
 6019W        W 9763   0.832   5.068  11.937 -0.1381 -0.0326  0.0377
 6020W        W 9764   3.937   6.217  12.496 -0.0466 -0.3372 -0.0805
 6021W        W 9765   7.972   9.183   3.698 -0.4885  0.1820  0.1349
 6022W        W 9766   4.149   5.658  10.732 -0.1619 -0.0257  0.0227
 6023W        W 9767   4.642   4.942   2.255  0.1337  0.1842  0.0865
 6024W        W 9768   4.525   1.958   1.395 -0.1668 -0.0021 -0.0954
 6025W        W 9769   4.669   1.334  12.202 -0.3060  0.0138  0.0243
 6026W        W 9770   3.127   9.203  10.476  0.0189 -0.0328 -0.0770
 6027W        W 9771   6.605   4.421  10.907 -0.1436 -0.0243 -0.3519
 6028W        W 9772   2.337   6.363   2.807  0.1692 -0.0452 -0.1486
 6029W        W 9773   6.642   5.603   3.311 -0.0207  0.2162 -0.0719
 6030W        W 9774   6.422   4.937  12.924 -0.0737 -0.1775  0.0828
 6031W        W 9775   0.297   8.108   3.130  0.0639 -0.0963  0.3532
 6032W        W 9776   0.360   9.341   1.138  0.2182  0.2589  0.2003
 6033W        W 9777   1.623   9.195  11.347 -0.0463 -0.0537  0.2187
 6034W        W 9778   2.919   7.658  11.494 -0.1571 -0.2215 -0.1827
 6035W        W 9779   8.444   0.166   4.589 -0.0483 -0.1870 -0.0706
 6036W        W 9780   4.325   7.342   9.637  0.0079  0.1604 -0.2566
 6037W        W 9781   2.241   4.741   3.624 -0.1000  0.1683 -0.2396
 6038W        W 9782   9.724   6.281   3.136 -0.1939 -0.3293 -0.1210
 6039W        W 9783   1.002   8.618  12.241  0.1201 -0.2456  0.1938
 6040W        W 9784   9.491   1.042   2.843  0.2077  0.2638  0.1822
 6041W        W 9785   2.507   3.864   2.153  0.0616  0.1780  0.4352
 6042W        W 9786   1.670   6.842  11.313  0.0538  0.3019  0.1972
 6043W        W 9787   7.390   0.953   3.937  0.3461  0.0581  0.1455
 6044W        W 9788   1.026   7.141   4.156  0.1168  0.1970  0.2457
 6045W        W 9789   8.775   6.492  11.257  0.3224 -0.2155 -0.3793
 6046W        W 9790   7.546   9.161  11.983  0.1091 -0.0798 -0.2851
 6047W        W 9791   9.610   8.277  11.479 -0.0398 -0.0618 -0.1446
 6048W        W 9792   0.634   3.149   3.026 -0.0134  0.0848  0.0293
 6049W        W 9793   9.221   4.489   0.589 -0.0306  0.4288  0.0537
 6050W        W 9794   7.010   2.752   3.656 -0.0222  0.1091 -0.2377
 6051W        W 9795   5.377   1.708   9.500  0.0895  0.1230 -0.1863
 6052W        W 9796   4.097   5.299   9.895 -0.0565 -0.0264  0.2350
 6053W        W 9797   2.717   1.488  11.717 -0.0066  0.0172 -0.0352
 6054W        W 9798   9.641   5.431   0.174  0.0478  0.0388  0.0058
 6055W        W 9799   3.204   2.621  10.240 -0.0338  0.0286 -0.3097
 6056W        W 9800   6.675   1.676   1.662  0.2358  0.1516 -0.1415
 6057W        W 9801   6.637   8.014   3.454  0.1532 -0.0227  0.1409
 6058W        W 9802   5.960   9.428  12.585 -0.0880 -0.0131 -0.0182
 6059W        W 9803   0.256   0.376   2.837 -0.2577 -0.3533  0.0762
 6060W        W 9804   7.694   1.553   9.248  0.0488  0.1350 -0.1924
 6061W        W 9805   2.565   2.596   0.118  0.1866 -0.0549  0.1567
 6062W        W 9806   4.007   2.637   0.494 -0.0140 -0.1035  0.2008
 6063W        W 9807   3.356   0.598   9.378  0.2748  0.0107 -0.1132
 6064W        W 9808   0.371   5.759  11.812  0.3650  0.0764 -0.1196
 6065W        W 9809   4.472   7.172   4.207  0.0166  0.0887 -0.0258
 6066W        W 9810   5.362   0.299   5.260 -0.1392 -0.5320  0.1904
 6067W        W 9811   8.240   5.169   8.996 -0.0555  0.0738 -0.0889
 6068W        W 9812   8.365   8.386   3.273  0.2041 -0.3014  0.0007
 6069W        W 9813   4.238   8.900   9.402 -0.0012  0.0016  0.0640
 6070W        W 9814   7.907   9.028  10.110  0.0060  0.1418  0.2882
 6071W        W 9815   1.385   5.121   9.815 -0.1771 -0.0279 -0.0060
 6072W        W 9816   7.799   2.395   9.042  0.1777 -0.2636  0.0565
 6073W        W 9817   8.550   4.742   2.420  0.4201 -0.0923  0.3642
 6074W        W 9818   1.558   7.576  12.435  0.1068  0.3018  0.1256
 6075W        W 9819   2.177   8.987   2.588  0.0840  0.4014  0.1246
 6076W        W 9820   1.784   0.825  10.909  0.1548 -0.2772  0.0164
 6077W        W 9821   8.361   3.821   8.707  0.5737  0.0180 -0.1185
 6078W        W 9822   8.013   7.380   3.525 -0.0008 -0.1689 -0.0756
 6079W        W 9823   1.751   9.829   1.147 -0.2697 -0.0347  0.1894
 6080W        W 9824   2.159   5.661  12.984  0.0366 -0.0419 -0.1945
 6081W        W 9825   1.781   1.887   2.933  0.1863 -0.0689  0.0577
 6082W        W 9826   7.103   3.483   9.248  0.1033 -0.0749 -0.1121
 6083W        W 9827   7.181   4.808  10.670 -0.0227  0.0395  0.2377
 6084W        W 9828   6.085   3.430   2.723  0.2076  0.1641  0.0884
 6085W        W 9829   1.189   6.241   1.071  0.2274 -0.1839 -0.0965
 6086W        W 9830   2.362   5.268   1.955 -0.2963 -0.1877  0.1384
 6087W        W 9831   5.006   3.272   9.939  0.2093  0.1058  0.3991
 6088W        W 9832   5.635   8.505   9.447  0.0417  0.2161  0.2302
 6089W        W 9833   0.807   9.450  11.512  0.0511 -0.1700 -0.0665
 6090W        W 9834   8.614   5.723   2.122 -0.3215 -0.0050 -0.1260
 6091W        W 9835   5.375   9.833   0.790 -0.4252  0.0040 -0.0503
 6092W        W 9836   8.549   6.775   8.848 -0.0525 -0.3245 -0.1281
 6093W        W 9837   3.843   4.423   1.066  0.2439  0.1154 -0.0639
 6094W        W 9838   9.747   1.499   8.412  0.1084 -0.0926 -0.1276
 6095W        W 9839   8.740   9.258   2.181 -0.0163  0.0697  0.1248
 6096W        W 9840   1.861   8.447  12.899  0.0054 -0.0472  0.0229
 6097W        W 9841   8.165   8.412   4.343  0.0261 -0.1169 -0.1203
 6098W        W 9842   4.749   9.601  12.386 -0.1409 -0.3409 -0.0505
 6099W        W 9843   2.953   8.498  11.772  0.0977 -0.5051 -0.0171
 6100W        W 9844   2.501   3.602  11.848  0.3916 -0.0123 -0.2137
 6101W        W 9845   3.947   4.502  11.542 -0.0348  0.3552 -0.1872
 6102W        W 9846   5.657   9.327   8.924 -0.2182 -0.3264  0.1036
 6103W        W 9847   8.415   0.488   9.315 -0.0028 -0.1341 -0.1327
 6104W        W 9848   6.643   8.606   9.673 -0.1021  0.1786  0.1332
 6105W        W 9849   2.763   2.694   2.955 -0.1510  0.1066  0.1931
 6106W        W 9850   8.622   0.987   1.791  0.0824  0.0027  0.2263
 6107W        W 9851   7.314   5.985   4.083 -0.0362  0.1366 -0.0845
 6108W        W 9852   1.001   4.679  10.010  0.1976 -0.2185 -0.3161
 6109W        W 9853   1.197   0.547   2.239  0.1073  0.0285 -0.0741
 6110W        W 9854   1.707   7.183   0.785 -0.2709 -0.0838 -0.0599
 6111W        W 9855   9.435   7.072  12.730  0.3672  0.3304 -0.1213
 6112W        W 9856   4.227   9.834  12.950  0.2987  0.0448 -0.1388
 6113W        W 9857   2.453   7.316   3.492  0.3994  0.1108  0.0429
 6114W        W 9858   4.420   7.863   9.847 -0.0843 -0.0494 -0.2061
 6115W        W 9859   3.449   1.282   3.121 -0.2109 -0.2177 -0.1484
 6116W        W 9860   8.527   6.734  10.282  0.2170  0.0213 -0.1818
 6117W        W 9861   0.054   7.954   9.015 -0.1336 -0.3646  0.2227
 6118W        W 9862   6.695   9.346   0.360 -0.4436  0.0791  0.0664
 6119W        W 9863   3.187   1.619  10.542 -0.0409 -0.0909  0.1767
 6120W        W 9864   5.841   8.807   0.222 -0.4271 -0.1281 -0.2591
 6121W        W 9865   0.215   8.407   0.881 -0.1905 -0.0490  0.3164
 6122W        W 9866   3.767   9.519   4.156  0.1517 -0.1154 -0.0704
 6123W        W 9867   6.829   5.784   1.906 -0.0423 -0.0164  0.0274
 6124W        W 9868   2.077   1.505   0.064  0.3716  0.1266  0.3416
 6125W        W 9869   4.843   3.824  11.421  0.1947  0.1744  0.1582
 6126W        W 9870   1.151   0.001   8.232  0.4023  0.0514  0.0938
 6127W        W 9871   1.086   6.810   2.026 -0.3023 -0.0528 -0.0484
 6128W        W 9872   8.312   3.646   9.183 -0.0036  0.0282  0.3100
 6129W        W 9873   9.708   4.382  10.628 -0.0844  0.0113  0.0993
 6130W        W 9874   1.203   1.537   0.829  0.0167 -0.2866 -0.3505
 6131W        W 9875   4.192   4.627  12.021 -0.3050 -0.1496  0.0641
 6132W        W 9876   5.207   2.970  12.475 -0.1223  0.2397 -0.1009
 6133W        W 9877   0.687   1.825  10.057  0.2141 -0.2356  0.0159
 6134W        W 9878   7.024   4.991   1.298 -0.3750 -0.1980  0.1620
 6135W        W 9879   0.978   1.840   9.669 -0.0099 -0.1453 -0.2558
 6136W        W 9880   4.350   8.276  11.803  0.1623 -0.0697 -0.0332
 6137W        W 9881   2.378   2.107   8.682 -0.1054 -0.0933  0.0880
 6138W        W 9882   0.012   2.841  11.223  0.0751  0.1714 -0.0807
 6139W        W 9883   3.963   3.269   2.560 -0.0779  0.3575  0.2032
 6140W        W 9884   0.260   8.408   4.255  0.2847 -0.2215 -0.0601
 6141W        W 9885   7.589   2.518   1.433 -0.2968  0.2297  0.0374
 6142W        W 9886   2.222   2.943   0.156  0.0276 -0.0336 -0.2395
 6143W        W 9887   8.318   3.629   2.366  0.0708  0.3930  0.0747
 6144W        W 9888   9.529   4.919   2.096  0.4199 -0.2256 -0.2294
 6145W        W 9889   7.114   1.742  12.865 -0.0882  0.0632  0.2047
 6146W        W 9890   5.168   4.752  12.663 -0.1299  0.0441 -0.4229
 6147W        W 9891   1.164   7.963   4.300 -0.3646  0.0753 -0.1567
 6148W        W 9892   2.623   1.078  12.199 -0.4078  0.3340  0.2198
 6149W        W 9893   9.468   1.665   1.569  0.0441 -0.0979 -0.2012
 6150W        W 9894   0.845   3.189   2.573  0.0182  0.0314 -0.0233
 6151W        W 9895   0.847   4.830   0.427 -0.0823 -0.3568  0.0277
 6152W        W 9896   6.193   0.061   9.500  0.1184  0.0132  0.1110
 6153W        W 9897   5.209   8.271   0.913 -0.3918  0.2442 -0.0787
 6154W        W 9898   7.144   2.805   3.196 -0.1606  0.1023 -0.1159
 6155W        W 9899   9.888   6.268   2.176  0.0285  0.0742 -0.3281
 6156W        W 9900   8.382   2.397   3.805  0.1789 -0.2266  0.1080
 6157W        W 9901   9.015   1.812   9.466  0.1456  0.2337  0.1937
 6158W        W 9902   9.387   6.929  10.068  0.1097 -0.0281  0.1565
 6159W        W 9903   3.080   8.637   8.224 -0.0596  0.0342  0.0719
 6160W        W 9904   5.240   3.452   3.368  0.0801 -0.0312 -0.1643
 6161W        W 9905   3.045   0.789   8.461 -0.3207 -0.0233  0.2350
 6162W        W 9906   1.475   1.010   2.203 -0.0298  0.2509 -0.3471
 6163W        W 9907   5.769   5.753  10.116  0.0719 -0.0678 -0.0057
 6164W        W 9908   6.976   6.428   3.139 -0.2729 -0.0123  0.1473
 6165W        W 9909   1.092   4.906  10.451  0.2572  0.3591 -0.0154
 6166W        W 9910   7.158   7.965   9.068  0.0212  0.0276  0.0633
 6167W        W 9911   3.837   1.652  11.823  0.0429 -0.0045  0.1149
 6168W        W 9912   1.157   0.945   3.647 -0.1723  0.4585  0.0924
 6169W        W 9913   9.772   6.376   3.805  0.0053 -0.2373 -0.0069
 6170W        W 9914   4.796   8.927  10.351 -0.0338 -0.1385 -0.0285
 6171W        W 9915   0.395   2.720   9.497 -0.2734  0.0681  0.3396
 6172W        W 9916   8.482   5.694   9.252  0.2018  0.1334 -0.1038
 6173W        W 9917   4.938   7.259   4.005  0.3304  0.0607 -0.0078
 6174W        W 9918   9.787   3.916   8.989  0.2814 -0.4729  0.0466
 6175W        W 9919   6.635   3.613   3.291  0.2614  0.2266 -0.3909
 6176W        W 9920   3.629   2.362   1.167  0.1078 -0.2115  0.4302
 6177W        W 9921   1.460   2.310   3.661  0.1264 -0.2890  0.0298
 6178W        W 9922   6.444   7.181   0.930 -0.0882 -0.2731 -0.2941
 6179W        W 9923   4.228   9.829   0.490 -0.5349  0.0517  0.0195
 6180W        W 9924   3.985   4.135  10.311  0.2949 -0.0949  0.1214
 6181W        W 9925   4.411   0.104  12.467  0.0175  0.0390 -0.3302
 6182W        W 9926   7.366   6.627   9.321  0.2244  0.3844  0.0383
 6183W        W 9927   4.843   1.464   2.279 -0.1883  0.2263  0.1907
 6184W        W 9928   3.196   9.033  12.234 -0.1079  0.0645 -0.1330
 6185W        W 9929   6.584   3.969  12.507  0.0401  0.0573 -0.0336
 6186W        W 9930   6.649   2.625  10.616 -0.2400  0.3270 -0.4984
 6187W        W 9931   4.599   4.354   9.783 -0.1768  0.0181 -0.1514
 6188W        W 9932   2.316   5.795   0.479 -0.1389 -0.0501 -0.2474
 6189W        W 9933   9.025   8.769   2.275  0.0907  0.1595 -0.1654
 6190W        W 9934   8.285   1.619   2.486 -0.0731  0.1414 -0.0936
 6191W        W 9935   6.247   8.416   9.407  0.2632 -0.1224 -0.3190
 6192W        W 9936   5.881   6.675   1.244 -0.0181 -0.1141  0.1119
 6193W        W 9937   4.853   0.677   1.434 -0.2106 -0.3049 -0.0499
 6194W        W 9938   7.277   7.138   9.275  0.0475  0.1526  0.2636
 6195W        W 9939   7.177   7.059   1.363  0.0891  0.3744  0.2484
 6196W        W 9940   4.836   2.322   1.623 -0.4820 -0.1114  0.2550
 6197W        W 9941   7.779   3.140   0.703  0.1184 -0.0344 -0.0544
 6198W        W 9942   7.577   1.434  11.238 -0.0068 -0.2323 -0.0358
 6199W        W 9943   0.140   4.146   0.151 -0.3081  0.1971 -0.1091
 6200W        W 9944   9.082   9.110  10.513  0.2396  0.0217  0.1794
 6201W        W 9945   2.504   5.065   8.704 -0.0084  0.1392 -0.0602
 6202W        W 9946   0.568   7.375  10.719 -0.0670 -0.1285 -0.0352
 6203W        W 9947   7.765   5.098   8.900  0.0453 -0.1115 -0.1581
 6204W        W 9948   7.287   0.569   0.309 -0.2329 -0.1039  0.2811
 6205W        W 9949   4.389   2.249  11.540 -0.0093  0.0429  0.2052
 6206W        W 9950   1.003   3.420   3.390 -0.0389  0.0689  0.2277
 6207W        W 9951   9.178   3.097   3.673 -0.0619  0.0511  0.1151
 6208W        W 9952   8.841   3.488   8.778 -0.1559 -0.1358 -0.0084
 6209W        W 9953   2.675   3.040   1.388 -0.0736 -0.1821 -0.0134
 6210W        W 9954   0.233   7.079   2.838 -0.0333 -0.5794  0.0819
 6211W        W 9955   0.364   0.330   1.361 -0.3094 -0.3143  0.1206
 6212W        W 9956   3.370   4.113  12.368  0.0644  0.1141  0.1627
 6213W        W 9957   5.329   1.933   2.940 -0.1469  0.0566 -0.3433
 6214W        W 9958   1.542   3.863   9.772  0.1460 -0.2569 -0.2190
 6215W        W 9959   2.071   2.897  10.461 -0.1595 -0.1409 -0.0733
 6216W        W 9960   4.178   1.748   9.610  0.2886  0.1382  0.0440
 6217W        W 9961   4.761   5.450  12.172  0.0745 -0.0405  0.1352
 6218W        W 9962   8.958   2.280   4.331  0.2867  0.2734 -0.1619
 6219W        W 9963   1.091   5.177   3.585  0.0259 -0.1218  0.1817
 6220W        W 9964   7.974   1.193  12.477 -0.0122 -0.1034  0.2231
 6221W        W 9965   5.969   0.477  11.688 -0.1675  0.1917  0.1870
 6222W        W 9966   4.676   7.362   4.627  0.0774 -0.0359  0.4809
 6223W        W 9967   8.796   4.111  10.837  0.0546  0.2274 -0.2469
 6224W        W 9968   1.600   7.335  10.131 -0.4153  0.1621 -0.2463
 6225W        W 9969   6.612   4.580  11.810 -0.1247  0.0319 -0.2700
 6226W        W 9970   1.614   6.042   3.087 -0.1629  0.1389  0.3091
 6227W        W 9971   5.444   1.001   2.744 -0.3044  0.2000  0.0979
 6228W        W 9972   4.004   8.959  11.667  0.0899 -0.2249 -0.0170
 6229W        W 9973   6.149   1.797   0.726 -0.2498 -0.2336  0.0775
 6230W        W 9974   3.809   4.036   2.626  0.3100 -0.0241  0.0441
 6231W        W 9975   0.505   1.918  11.579 -0.1721 -0.2330  0.1394
 6232W        W 9976   5.403   1.768  11.950  0.0377  0.0586 -0.0821
 6233W        W 9977   1.668   6.756  12.532  0.2478 -0.0223  0.3405
 6234W        W 9978   4.175   7.053   0.502  0.0755  0.3776  0.1332
 6235W        W 9979   2.314   8.611   0.090 -0.0697 -0.2493 -0.2910
 6236W        W 9980   7.344   6.423  12.986  0.1398  0.2110  0.0796
 6237W        W 9981   5.105   5.959  11.021  0.1490  0.1756  0.0728
 6238W        W 9982   5.009   0.616   1.905 -0.0763 -0.0007 -0.1812
 6239W        W 9983   2.772   8.763   0.211 -0.0743  0.1391  0.0173
 6240W        W 9984   7.720   7.735  11.752 -0.2659 -0.1772 -0.1830
 6241W        W 9985   1.906   2.790   0.558  0.0160  0.1164 -0.0891
 6242W        W 9986   0.409   2.924   2.538 -0.0236 -0.2083  0.0147
 6243W        W 9987   9.134   4.813   9.924 -0.0677 -0.1647  0.0282
 6244W        W 9988   1.545   1.486   9.656  0.2107 -0.3446 -0.1293
 6245W        W 9989   0.361   8.305   2.600 -0.0352  0.0563 -0.0701
 6246W        W 9990   2.468   8.323   1.373  0.1423 -0.1359 -0.0601
 6247W        W 9991   1.602   7.716   1.474  0.0488 -0.1356  0.1428
 6248W        W 9992   1.437   5.247   3.236  0.0876 -0.0811 -0.1785
 6249W        W 9993   7.698   6.547   0.932 -0.0453  0.0676 -0.1830
 6250W        W 9994   8.945   4.009   0.760  0.1286 -0.1408 -0.3483
 6251W        W 9995   6.874   2.786  12.482  0.0487 -0.1391 -0.3178
 6252W        W 9996   9.429   2.399   4.255 -0.0805 -0.0721  0.0706
 6253W        W 9997   5.889   5.911  12.948  0.0276  0.2319  0.0933
 6254W        W 9998   4.528   0.456  12.811  0.2014 -0.1306 -0.2481
 6255W        W 9999   8.182   8.164   8.532  0.2589 -0.0589 -0.2187
 6256W        W10000   2.331   1.799  11.765  0.2174  0.0275 -0.0140
 6257W        W10001   4.065   8.662   4.337 -0.3832  0.0321  0.2005
 6258W        W10002   2.142   9.488  10.243 -0.0667  0.0353  0.2607
 6259W        W10003   6.591   8.062   9.759 -0.1559  0.2334 -0.3109
 6260W        W10004   0.891   8.778  10.332 -0.1047 -0.3285  0.0126
 6261W        W10005   8.197   0.078  11.341 -0.3209  0.0912 -0.4093
 6262W        W10006   2.336   1.459   3.226  0.0540 -0.2203  0.2849
 6263W        W10007   6.604   2.164   2.467 -0.1143 -0.0107  0.2199
 6264W        W10008   1.970   9.622   4.887  0.2699  0.0994  0.1212
 6265W        W10009   2.046   0.877   1.087 -0.2030  0.2681 -0.2093
 6266W        W10010   9.508   1.563  11.919  0.2573  0.0002 -0.0979
 6267W        W10011   5.944   2.237   0.037  0.2338 -0.4027 -0.1743
 6268W        W10012   0.978   6.404   0.508  0.3439  0.0630  0.0097
 6269W        W10013   2.338   8.767   3.919 -0.1183 -0.4040  0.0039
 6270W        W10014   4.468   5.722   0.743 -0.1890 -0.2396  0.4078
 6271W        W10015   5.648   7.732   4.490 -0.4730 -0.2358 -0.2561
 6272W        W10016   5.878   5.872  10.831 -0.0147 -0.1123  0.0514
 6273W        W10017   7.481   4.582   0.602  0.3112  0.1281  0.3215
 6274W        W10018   2.454   2.722  10.791  0.0441  0.0115  0.1625
 6275W        W10019   2.004   2.796  12.675  0.0293 -0.0612 -0.1028
 6276W        W10020   3.539   7.407  12.721 -0.1007  0.2037 -0.0297
 6277W        W10021   7.281   9.855   3.092 -0.2207 -0.0524  0.1060
 6278W        W10022   9.774   8.300   9.302 -0.1223  0.2550 -0.1312
 6279W        W10023   6.679   7.094   1.360 -0.2658  0.2487 -0.1137
 6280W        W10024   1.833   8.206   9.801  0.0872 -0.0108 -0.0314
 6281W        W10025   8.632   2.832  11.619 -0.2498 -0.3610  0.1277
 6282W        W10026   2.758   0.821   2.190 -0.0347  0.0944  0.1580
 6283W        W10027   7.530   1.010   8.023  0.0820  0.3438 -0.1862
 6284W        W10028   9.809   6.874   9.309  0.1478  0.1028 -0.0164
 6285W        W10029   5.065   2.005   9.801 -0.2373  0.0193 -0.1207
 6286W        W10030   2.648   2.045   1.454  0.2665  0.2053  0.0807
 6287W        W10031   3.492   1.129  11.069 -0.0311  0.1581 -0.1923
 6288W        W10032   8.767   9.367  12.348 -0.1955  0.0267 -0.2928
 6289W        W10033   6.124   2.018   9.970 -0.1043 -0.2332 -0.3138
 6290W        W10034   5.091   9.474   4.476  0.2944 -0.1539  0.1161
 6291W        W10035   9.531   7.839   3.921  0.1237 -0.3267  0.0204
 6292W        W10036   6.646   2.551   1.873  0.0654 -0.1049  0.1728
 6293W        W10037   6.742   5.600   2.469  0.0991 -0.0521 -0.5110
 6294W        W10038   5.850   7.910   5.123  0.1687 -0.0682  0.3021
 6295W        W10039   6.649   1.822  12.021  0.1331 -0.1877  0.1497
 6296W        W10040   9.359   4.365  11.076 -0.2325 -0.0880  0.1993
 6297W        W10041   8.532   8.160   2.013  0.2005  0.2483 -0.1267
 6298W        W10042   6.941   0.457  12.023  0.1499  0.3057 -0.2191
 6299W        W10043   9.647   1.744  10.048 -0.2044  0.3434 -0.2121
 6300W        W10044   4.627   5.496  12.785 -0.1208 -0.0621 -0.0795
 6301W        W10045   7.877   9.499  12.643 -0.0727  0.1673 -0.0640
 6302W        W10046   1.179   6.446  12.011 -0.1308  0.1257 -0.0786
 6303W        W10047   4.780   8.044   2.385  0.2144 -0.2363 -0.0825
 6304W        W10048   6.715   2.487  12.168 -0.0281  0.1870  0.0150
 6305W        W10049   0.075   7.154   2.359 -0.0099  0.1933 -0.1162
 6306W        W10050   8.238   5.490  11.199  0.2121  0.0527 -0.2130
 6307W        W10051   7.077   5.206   2.504  0.1737 -0.1641  0.2064
 6308W        W10052   9.092   9.539   1.928  0.1986  0.0168  0.0105
 6309W        W10053   3.581   0.152   3.004 -0.0512  0.0727  0.0765
 6310W        W10054   0.999   6.716   1.025 -0.0165  0.0152 -0.2265
 6311W        W10055   0.131   0.820   3.096  0.1072 -0.1564  0.1182
 6312W        W10056   4.657   3.476   1.468  0.4524 -0.0355  0.3123
 6313W        W10057   5.017   2.070   9.232  0.0273 -0.0109  0.0410
 6314W        W10058   5.831   0.341  12.219 -0.4049 -0.1979 -0.0787
 6315W        W10059   5.543   3.335  12.870  0.5126  0.1315  0.0410
 6316W        W10060   9.439   7.197   2.233 -0.0377  0.3831  0.1208
 6317W        W10061   4.891   2.466   3.973 -0.0086 -0.0750  0.0414
 6318W        W10062   7.427   2.169   4.503  0.2380  0.0140 -0.1308
 6319W        W10063   0.328   3.573   9.407 -0.3154 -0.0748  0.0836
 6320W        W10064   4.782   2.801  12.321  0.0516 -0.2787 -0.0708
 6321W        W10065   6.669   1.927   0.318 -0.2549 -0.1039 -0.6189
 6322W        W10066   3.623   3.874   3.038 -0.4459 -0.1112 -0.2665
 6323W        W10067   6.050   9.629   4.604  0.0348  0.2075 -0.4568
 6324W        W10068   8.152   5.285  11.690  0.3940 -0.1971 -0.1432
 6325W        W10069   9.405   4.463   2.060 -0.0019 -0.0234 -0.0754
 6326W        W10070   1.591   0.169  12.646  0.0276 -0.4085 -0.0306
 6327W        W10071   3.233   0.357   2.350  0.1362  0.1824 -0.0810
 6328W        W10072   1.060   6.817   8.530  0.0811 -0.2460 -0.3754
 6329W        W10073   6.887   9.835   2.409 -0.0946 -0.0913  0.2253
 6330W        W10074   4.289   3.133   1.157  0.0657  0.0570 -0.2702
 6331W        W10075   2.418   9.290   8.393 -0.2501 -0.0640  0.1475
 6332W        W10076   7.836   6.442   9.398  0.1505 -0.0106  0.4541
 6333W        W10077   7.773   0.431   4.592  0.0257  0.2527 -0.2140
 6334W        W10078   4.630   1.244   3.270 -0.0609  0.1787  0.0994
 6335W        W10079   4.518   9.382   1.433 -0.0623  0.0616 -0.0475
 6336W        W10080   5.572   4.440  12.530  0.1611 -0.2343 -0.0589
 6337W        W10081   4.285   8.908   0.129  0.1420  0.3020  0.0554
 6338W        W10082   0.726   6.784  10.300  0.3166  0.3046 -0.0170
 6339W        W10083   0.584   0.955  10.391 -0.1551 -0.0999 -0.1487
 6340W        W10084   1.168   3.043  10.589 -0.0650  0.3778  0.0926
 6341W        W10085   6.687   1.025   1.183  0.0209  0.0065 -0.0944
 6342W        W10086   2.328   4.183  11.744  0.2026  0.3366 -0.1446
 6343W        W10087   8.253   0.821   8.945 -0.0231  0.0965  0.1340
 6344W        W10088   8.234   5.814   2.566 -0.2159 -0.2028  0.0198
 6345W        W10089   2.936   7.637  10.085  0.0195  0.0368 -0.2510
 6346W        W10090   4.504   9.835   9.925  0.2834 -0.1432  0.0016
 6347W        W10091   3.048   7.396   2.504 -0.1249 -0.1488  0.0181
 6348W        W10092   7.607   6.437   3.437  0.0821  0.1073  0.0397
 6349W        W10093   4.396   9.422   9.466  0.2066  0.2488  0.1948
 6350W        W10094   2.968   7.594   1.104 -0.4104  0.0255  0.0195
 6351W        W10095   4.758   2.623   0.388 -0.1284 -0.0002 -0.2564
 6352W        W10096   3.487   8.972   2.472 -0.4386  0.3846 -0.6727
 6353W        W10097   4.004   1.339   3.053 -0.1312  0.3222  0.1271
 6354W        W10098   1.486   1.531  12.896 -0.0351  0.1082  0.2723
 6355W        W10099   5.061   3.417  12.936 -0.3135  0.1749  0.1120
 6356W        W10100   9.223   6.171  12.247  0.1764  0.0257 -0.1692
 6357W        W10101   3.569   7.024   8.955 -0.2100 -0.1195 -0.2811
 6358W        W10102   7.161   6.193  12.451  0.0029  0.0504 -0.1906
 6359W        W10103   6.167   8.599   2.102 -0.1820  0.1809  0.1990
 6360W        W10104   8.778   1.896  12.035  0.1062  0.1021 -0.0524
 6361W        W10105   3.172   1.091   1.951  0.0152  0.2298 -0.1622
 6362W        W10106   8.559   1.866   2.157  0.2436  0.0249 -0.1697
 6363W        W10107   0.335   5.556   4.264  0.2242 -0.0344 -0.1943
 6364W        W10108   9.422   3.564  10.625 -0.1349  0.1681  0.3926
 6365W        W10109   6.716   9.032   4.747 -0.0027 -0.3636 -0.1449
 6366W        W10110   6.476   8.683   9.109 -0.0512 -0.0180  0.2135
 6367W        W10111   7.621   2.584  10.758 -0.2514 -0.0473  0.0589
 6368W        W10112   7.699   9.068  11.123  0.0243 -0.0786 -0.0873
 6369W        W10113   8.575   4.154   4.090  0.2187 -0.3404 -0.1431
 6370W        W10114   1.840   2.868   4.148  0.1297 -0.0069 -0.1804
 6371W        W10115   4.044   6.913   1.592 -0.2188 -0.1854 -0.0159
 6372W        W10116   5.764   9.077   1.210 -0.0249  0.0926  0.0087
 6373W        W10117   2.173   5.483   3.697  0.2679  0.0262 -0.0396
 6374W        W10118   1.413   0.537   3.412  0.0317  0.2003 -0.1668
 6375W        W10119   9.145   1.034  10.588  0.2236  0.3693 -0.0310
 6376W        W10120   5.596   8.253  12.268  0.4590 -0.0634  0.2164
 6377W        W10121   4.764   3.976  12.919 -0.0957  0.1124  0.0365
 6378W        W10122   5.694   4.120   0.528  0.0092 -0.2103 -0.3697
 6379W        W10123   9.884   3.814   2.100  0.2005  0.0244 -0.1705
 6380W        W10124   4.414   6.896   9.816  0.3149  0.0863 -0.1332
 6381W        W10125   0.674   7.927   3.391 -0.2196 -0.3234  0.0631
 6382W        W10126   7.371   3.295   4.563 -0.0879  0.1346 -0.0192
 6383W        W10127   1.875   7.203  10.534  0.1787 -0.1621 -0.4144
 6384W        W10128   5.202   5.429   4.054 -0.2265 -0.1219 -0.1469
 6385W        W10129   4.422   3.439  12.214  0.0025 -0.4224  0.2895
 6386W        W10130   1.222   5.624  10.006  0.1452  0.1909 -0.0515
 6387W        W10131   4.502   8.152   0.112  0.0864  0.0398  0.1286
 6388W        W10132   5.014   7.678   2.081 -0.2557  0.0075 -0.2905
 6389W        W10133   6.881   3.321  10.464 -0.2290 -0.0638  0.0371
 6390W        W10134   1.773   5.296   0.120 -0.0481 -0.1804 -0.0041
 6391W        W10135   3.199   9.340  11.443 -0.1419 -0.0458 -0.0373
 6392W        W10136   0.117   2.185   1.605  0.1510  0.0651  0.1937
 6393W        W10137   1.606   3.915  10.319  0.0330  0.5223 -0.0998
 6394W        W10138   6.820   3.172   3.938 -0.1508 -0.2085 -0.0768
 6395W        W10139   3.441   0.439  11.772 -0.2216 -0.1200 -0.1330
 6396W        W10140   3.511   1.336  10.255  0.2168 -0.1173  0.0423
 6397W        W10141   3.315   1.102   3.592  0.2795 -0.2865  0.0282
 6398W        W10142   4.300   9.525   1.900 -0.1420 -0.1976  0.2710
 6399W        W10143   9.831   3.911  11.560 -0.1211 -0.0478  0.0144
 6400W        W10144   0.672   1.614   3.632 -0.1016  0.2555  0.1867
 6401W        W10145   9.434   1.599   1.087  0.1103 -0.1026  0.1269
 6402W        W10146   7.193   0.598  10.427 -0.0211  0.0094 -0.2130
 6403W        W10147   3.609   5.826  10.906  0.2348  0.1323  0.1868
 6404W        W10148   3.301   8.040   1.090  0.0106  0.0361 -0.2036
 6405W        W10149   1.823   7.145  12.865 -0.1506 -0.1227 -0.0588
 6406W        W10150   5.791   5.375   3.055 -0.4076  0.3064  0.0255
 6407W        W10151   3.163   9.425   0.946  0.1082 -0.1097  0.1352
 6408W        W10152   5.107   0.360   0.409 -0.0129 -0.2619 -0.1375
 6409W        W10153   6.351   0.264  10.393 -0.1568  0.3197  0.0297
 6410W        W10154   2.482   6.126   3.417  0.2290 -0.3585 -0.0375
 6411W        W10155   6.881   8.425  11.008 -0.1466 -0.0632  0.2397
 6412W        W10156   8.468   5.027  11.182 -0.1793  0.0362  0.2956
 6413W        W10157   3.283   8.338   8.582 -0.0201  0.0371 -0.0569
 6414W        W10158   7.907   2.220  11.001 -0.0223  0.0298  0.1208
 6415W        W10159   2.429   9.127   0.218  0.1068 -0.0781 -0.3246
 6416W        W10160   5.948   3.151  11.804 -0.3019  0.1919 -0.3485
 6417W        W10161   2.944   9.200   9.969 -0.3128  0.2402  0.0912
 6418W        W10162   5.728   5.158  10.883 -0.0459 -0.1420  0.2726
 6419W        W10163   7.650   5.682   4.916  0.0056  0.3311  0.1255
 6420W        W10164   8.208   1.330  11.577 -0.0853 -0.1749 -0.1840
 6421W        W10165   6.788   5.021   0.303 -0.0449 -0.2625  0.0188
 6422W        W10166   5.157   6.031   0.285 -0.0734 -0.4263  0.0971
 6423W        W10167   5.289   5.883  11.447 -0.3740  0.1711  0.0009
 6424W        W10168   2.828   4.752   1.171  0.1101  0.0125  0.1737
 6425W        W10169   8.421   5.437   0.022  0.1084  0.2166  0.3718
 6426W        W10170   1.496   9.630  12.801 -0.0918 -0.0713  0.2999
 6427W        W10171   2.082   7.759   4.788  0.0256 -0.1394  0.1252
 6428W        W10172   2.855   7.252  12.106 -0.3859  0.1392 -0.0535
 6429W        W10173   3.424   8.731  10.157 -0.0693 -0.0471 -0.1146
 6430W        W10174   1.003   1.322   3.340 -0.2928 -0.1588  0.0565
 6431W        W10175   0.308   6.522  11.955  0.3511 -0.0508 -0.3948
 6432W        W10176   9.370   7.245   9.140 -0.4027  0.1202  0.1307
 6433W        W10177   3.970   4.969  12.274  0.0773  0.0626 -0.4188
 6434W        W10178   0.786   4.336   0.147  0.1997 -0.1884  0.1766
 6435W        W10179   9.623   4.606   9.057  0.3620  0.2117 -0.3067
 6436W        W10180   9.223   1.338   2.553  0.0270  0.1261  0.2959
 6437W        W10181   9.715   4.753  11.082 -0.3413  0.2075  0.0513
 6438W        W10182   9.498   6.931   3.627  0.0417  0.1259 -0.0132
 6439W        W10183   1.412   1.483   8.939 -0.0571 -0.1736 -0.2805
 6440W        W10184   5.877   1.536   2.231  0.2002 -0.1095 -0.0832
 6441W        W10185   6.603   6.197   1.415  0.0811  0.0047 -0.1798
 6442W        W10186   6.172   5.956  10.363 -0.0638 -0.1463  0.3655
 6443W        W10187   6.146   9.352   0.980 -0.3982  0.0000 -0.5614
 6444W        W10188   5.828   9.179   9.899 -0.1850  0.1236 -0.1252
 6445W        W10189   8.081   8.095   1.793  0.0877  0.3051  0.1148
 6446W        W10190   5.601   1.450   2.675 -0.3905 -0.1726 -0.0136
 6447W        W10191   2.883   0.608  11.238  0.2798 -0.1659 -0.0793
 6448W        W10192   3.567   6.268   2.155  0.0238 -0.0178 -0.3304
 6449W        W10193   0.267   6.139   0.224 -0.0672 -0.2070 -0.0119
 6450W        W10194   4.156   1.017   2.632 -0.0414  0.1799  0.0666
 6451W        W10195   0.135   9.357  12.423 -0.1106  0.2034  0.0650
 6452W        W10196   2.453   9.693  10.702 -0.1370 -0.1458 -0.1083
 6453W        W10197   7.169   3.693  12.335  0.0432  0.1158  0.3679
 6454W        W10198   9.201   7.967  12.970 -0.3342  0.1498 -0.0609
 6455W        W10199   8.795   9.203   3.754 -0.0748  0.1056 -0.0463
 6456W        W10200   5.947   8.564   2.594 -0.2648 -0.0608 -0.2586
 6457W        W10201   7.410   4.648   3.303  0.4710  0.2256 -0.0461
 6458W        W10202   0.847   8.954   3.171  0.0362  0.1613  0.1204
 6459W        W10203   6.941   3.478   2.943 -0.0517  0.3205 -0.0748
 6460W        W10204   6.418   5.148   9.627  0.0620  0.2590 -0.2374
 6461W        W10205   2.151   7.564   0.036 -0.1335 -0.0926  0.0470
 6462W        W10206   9.138   7.996  12.327 -0.2208 -0.2518 -0.1005
 6463W        W10207   9.755   5.711  10.895  0.1480  0.1646  0.2396
 6464W        W10208   7.340   7.883  10.448  0.1055 -0.0097 -0.2284
 6465W        W10209   2.765   9.268  10.826 -0.2623  0.0711 -0.0833
 6466W        W10210   7.603   6.787   1.323 -0.1645 -0.0403 -0.1406
 6467W        W10211   5.248   0.423   3.459 -0.2051 -0.0890 -0.0172
 6468W        W10212   1.607   7.780   0.976  0.0533 -0.0377  0.1554
 6469W        W10213   4.141   2.280   2.269 -0.2446 -0.0567 -0.2417
 6470W        W10214   2.674   7.493  10.564 -0.0472  0.0578 -0.1906
 6471W        W10215   8.824   7.125  12.178  0.2112  0.0473  0.0125
 6472W        W10216   7.588   5.997   4.554  0.2186 -0.0843 -0.2211
 6473W        W10217   3.428   5.233  12.756 -0.0429  0.1587 -0.0775
 6474W        W10218   0.623   2.370   9.098  0.0119 -0.1411  0.0497
 6475W        W10219   9.623   0.039   0.633 -0.0280  0.2850  0.2724
 6476W        W10220   1.598   5.529   9.476  0.1009 -0.0263  0.0417
 6477W        W10221   5.002   7.394  10.737  0.1317 -0.0046 -0.2330
 6478W        W10222   7.813   1.608   8.411 -0.0093 -0.4464 -0.2024
 6479W        W10223   5.216   6.246   1.174  0.2350  0.2437 -0.1141
 6480W        W10224   4.182   7.506   9.149 -0.1438 -0.0106 -0.0135
 6481W        W10225   5.715   6.622   5.203 -0.1478 -0.2038 -0.0996
 6482W        W10226   8.753   6.280   9.890  0.2718  0.1942 -0.3369
 6483W        W10227   1.050   7.079  11.677 -0.3242 -0.2079 -0.1162
 6484W        W10228   7.861   7.259  10.989 -0.4006  0.2498 -0.2345
 6485W        W10229   1.989   9.813  12.527  0.0490 -0.1000 -0.1929
 6486W        W10230   9.788   0.055  11.014 -0.2812 -0.0358  0.1333
 6487W        W10231   4.836   2.195  11.922  0.0283 -0.0425  0.1751
 6488W        W10232   1.087   3.953  12.287  0.0209 -0.1121 -0.1420
 6489W        W10233   4.549   1.637  12.904 -0.2137  0.0091  0.1020
 6490W        W10234   6.358   1.286   1.538 -0.1390 -0.2961  0.0846
 6491W        W10235   0.811   3.194   1.142  0.0374  0.2246  0.1135
 6492W        W10236   7.905   8.761   4.117 -0.0478  0.2714  0.0483
 6493W        W10237   6.383   4.353   3.685 -0.2608  0.2062  0.0247
 6494W        W10238   0.918   9.122   0.953  0.1594 -0.0842 -0.0462
 6495W        W10239   3.150   1.670   0.520  0.0415  0.1029 -0.0707
 6496W        W10240   7.073   5.916   3.180  0.0259 -0.0766  0.1513
 6497W        W10241   0.664   4.667  11.659  0.2609 -0.1707 -0.2115
 6498W        W10242   8.352   3.134   2.138  0.0220  0.0560 -0.2308
 6499W        W10243   1.770   4.801   0.381 -0.1110  0.2803 -0.1951
 6500W        W10244   0.531   4.132   1.378 -0.0195  0.2602  0.1983
 6501W        W10245   8.784   8.540   1.903  0.3405  0.0028 -0.0588
 6502W        W10246   1.917   8.923   0.236 -0.0542  0.0824 -0.1523
 6503W        W10247   5.438   7.687  10.732 -0.1267 -0.1517  0.1583
 6504W        W10248   5.029   8.217   0.074  0.0145 -0.0292 -0.1898
 6505W        W10249   9.045   5.558   1.807  0.3575  0.0016 -0.1162
 6506W        W10250   6.060   0.737   2.657  0.2092 -0.0455  0.1771
 6507W        W10251   4.609   5.412   9.820 -0.2258 -0.0343  0.3288
 6508W        W10252   5.636   0.955   0.619  0.3681 -0.0629 -0.1711
 6509W        W10253   0.718   3.841  11.789 -0.2419 -0.1864  0.1678
 6510W        W10254   8.006   7.953   3.681  0.0664  0.1070 -0.1203
 6511W        W10255   1.361   2.665  12.381  0.0288 -0.0374 -0.3321
 6512W        W10256   7.160   3.430   1.755 -0.0999 -0.2559 -0.0597
 6513W        W10257   8.833   4.385   2.251 -0.2060 -0.0479 -0.0317
 6514W        W10258   4.374   5.943  10.316 -0.0859 -0.0874  0.0143
 6515W        W10259   9.544   5.087   2.593 -0.0290 -0.0085 -0.3512
 6516W        W10260   1.729   6.325   1.018  0.1750 -0.1468  0.4558
 6517W        W10261   5.089   6.856  11.463  0.5619 -0.1310 -0.2796
 6518W        W10262   4.069   1.484  12.219 -0.0741  0.0267 -0.0537
 6519W        W10263   0.530   6.949  11.125 -0.1303  0.1230 -0.1056
 6520W        W10264   6.374   1.488   1.043  0.0005  0.1834  0.1886
 6521W        W10265   7.039   2.155   0.566  0.3370  0.0104  0.1328
 6522W        W10266   6.496   1.031   2.987 -0.3830 -0.0809 -0.0481
 6523W        W10267   1.828   4.372   8.897 -0.2244  0.2056  0.1689
 6524W        W10268   2.134   8.953   9.583 -0.0061  0.0481  0.1938
 6525W        W10269   8.599   5.907   0.618  0.0340 -0.2218  0.1389
 6526W        W10270   3.810   4.409  11.053 -0.2631 -0.2884 -0.1672
 6527W        W10271   6.916   5.411   4.333  0.0316  0.4710 -0.2246
 6528W        W10272   8.536   6.410   3.536  0.1875  0.1250 -0.0039
 6529W        W10273   3.187   3.539   3.795 -0.3578 -0.0709 -0.0450
 6530W        W10274   1.793   4.467  10.618  0.0320 -0.0736 -0.1136
 6531W        W10275   9.484   5.411   4.156 -0.0755 -0.0824 -0.0311
 6532W        W10276   0.813   4.688   1.797 -0.0712 -0.1296 -0.2237
 6533W        W10277   0.985   8.474   0.161  0.1210  0.0462  0.2256
 6534W        W10278   9.394   9.872  10.392 -0.2044 -0.0757  0.0736
 6535W        W10279   6.393   8.667   1.462 -0.4160 -0.0307 -0.1215
 6536W        W10280   5.896   7.787   2.131  0.2354 -0.1703  0.0397
 6537W        W10281   5.156   6.998  12.002 -0.0879 -0.2300 -0.2221
 6538W        W10282   6.150   7.622   9.869  0.1728 -0.0779  0.0360
 6539W        W10283   6.642   8.466   1.877  0.2825  0.2106  0.0573
 6540W        W10284   1.162   4.338   2.564  0.1964  0.0153  0.3608
 6541W        W10285   2.281   5.143   3.249  0.2036 -0.3509 -0.1209
 6542W        W10286   4.093   0.831  10.414  0.2963  0.1998 -0.0471
 6543W        W10287   8.620   5.893  10.904 -0.1144  0.1017 -0.2916
 6544W        W10288   5.143   2.510  12.204  0.4086  0.0116  0.4425
 6545W        W10289   8.160   0.264  10.288 -0.0690  0.0262  0.0624
 6546W        W10290   0.423   3.692  10.856 -0.1434  0.0887 -0.3435
 6547W        W10291   1.406   4.432  10.243  0.1866 -0.0854  0.0467
 6548W        W10292   8.704   3.460   4.740  0.0042  0.0110  0.4463
 6549W        W10293   3.271   2.141   9.758 -0.1727 -0.0423  0.0885
 6550W        W10294   8.575   8.790   0.880  0.0058 -0.2447 -0.2969
 6551W        W10295   3.224   4.392  11.089  0.0759  0.1738  0.2019
 6552W        W10296   3.888   2.492   1.921 -0.3716 -0.0010  0.1394
 6553W        W10297   0.907   4.210   1.650  0.1725  0.2207  0.0122
 6554W        W10298   1.887   3.316   0.214 -0.0425 -0.2301 -0.0623
 6555W        W10299   0.755   8.558   0.866  0.1626  0.1393  0.2085
 6556W        W10300   6.793   9.472   1.896 -0.1789  0.1713  0.1490
 6557W        W10301   5.582   4.944  12.409 -0.1030  0.2556  0.2512
 6558W        W10302   7.728   8.206   2.718 -0.1650 -0.1829  0.4049
 6559W        W10303   8.397   2.242  11.700 -0.3607 -0.0076  0.1069
 6560W        W10304   0.234   6.552  12.910  0.0509 -0.2662  0.2459
 6561W        W10305   2.971   0.627  10.706  0.1812  0.5196  0.1438
 6562W        W10306   6.191   3.631  10.939  0.0260 -0.0490  0.1260
 6563W        W10307   8.930   8.346   4.558 -0.4375 -0.0524  0.1779
 6564W        W10308   4.414   7.461   0.333 -0.2166  0.1939  0.1201
 6565W        W10309   3.930   5.585   1.751 -0.0836 -0.2455  0.0384
 6566W        W10310   4.531   6.690   4.332 -0.0904 -0.2479  0.1397
 6567W        W10311   9.732   6.421  11.617  0.3395  0.0867 -0.0823
 6568W        W10312   6.978   5.075  11.938  0.0673 -0.0326 -0.2933
 6569W        W10313   7.867   5.956   3.521 -0.3688 -0.0195  0.1604
 6570W        W10314   8.299   5.752  12.111  0.0610  0.1691 -0.1334
 6571W        W10315   8.644   4.220   9.523  0.0030 -0.1149 -0.1606
 6572W        W10316   6.406   0.223   2.426 -0.0399  0.0623  0.1233
 6573W        W10317   7.674   8.602   2.492 -0.0903 -0.3204 -0.2472
 6574W        W10318   0.354   3.076   1.179 -0.1064 -0.1695 -0.1097
 6575W        W10319   0.558   3.178   9.663  0.5720  0.1200  0.2714
 6576W        W10320   5.370   2.436   1.293 -0.0923 -0.0183  0.2892
 6577W        W10321   9.209   6.734  12.961 -0.5326 -0.0633  0.0470
 6578W        W10322   8.027   0.009   8.541  0.1491 -0.1365 -0.1011
 6579W        W10323   2.183   1.919   9.105  0.0436  0.0537 -0.1635
 6580W        W10324   2.296   1.374   0.523  0.0367 -0.1781  0.2088
 6581W        W10325   5.234   6.467   2.664 -0.1822 -0.3812 -0.0190
 6582W        W10326   4.995   8.412  11.537  0.2256 -0.0584  0.0427
 6583W        W10327   5.660   1.669   0.792  0.1304  0.0816 -0.2294
 6584W        W10328   1.585   4.383   0.645  0.0393 -0.1437 -0.0624
 6585W        W10329   2.223   1.939  11.278 -0.0547  0.1276  0.0133
 6586W        W10330   1.952   1.473   3.576  0.2615 -0.0382 -0.2816
 6587W        W10331   6.940   8.841   1.650  0.0833  0.1983  0.1771
 6588W        W10332   5.509   5.400  12.199  0.1608  0.1044  0.0444
 6589W        W10333   8.869   2.237   3.807 -0.2152 -0.1723 -0.1255
 6590W        W10334   7.366   4.311  11.417  0.1957  0.0591  0.0806
 6591W        W10335   6.882   3.030   1.652  0.1200 -0.3846  0.0298
 6592W        W10336   0.469   9.069   9.983  0.2670  0.0798 -0.1257
 6593W        W10337   2.152   2.362   0.062 -0.0068  0.0085  0.0914
 6594W        W10338   1.870   2.336   4.016  0.1626 -0.0351 -0.3968
 6595W        W10339   5.820   1.744  11.712 -0.1223  0.0425 -0.0555
 6596W        W10340   8.812   7.715   3.442 -0.0536 -0.1490 -0.2403
 6597W        W10341   8.338   7.713   2.267 -0.1429 -0.1894 -0.0926
 6598W        W10342   4.216   8.272   1.649  0.1559 -0.1726  0.0048
 6599W        W10343   3.016   4.306   1.501  0.0857  0.3446 -0.2664
 6600W        W10344   0.788   1.414  11.368 -0.1117  0.3469  0.1998
 6601W        W10345   5.632   4.309   0.014 -0.0204  0.1321 -0.0047
 6602W        W10346   9.016   9.587   1.211 -0.1343 -0.5087  0.0009
 6603W        W10347   7.186   0.019   7.996  0.3337  0.0669  0.1696
 6604W        W10348   9.081   4.054   9.720  0.4361 -0.2199 -0.0240
 6605W        W10349   3.774   8.455  10.416 -0.3259 -0.0006  0.2447
 6606W        W10350   6.910   4.529   3.701 -0.0223  0.3876  0.2094
 6607W        W10351   2.774   0.917   1.664 -0.0584 -0.1640  0.0089
 6608W        W10352   5.023   5.366   2.414 -0.0330  0.1318 -0.2084
 6609W        W10353   2.292   0.573   2.361  0.0939  0.3007  0.0297
 6610W        W10354   7.139   9.180  10.232 -0.1440 -0.0886 -0.2334
 6611W        W10355   2.005   4.144  11.111 -0.1540  0.4228  0.0861
 6612W        W10356   7.477   3.329   1.050 -0.1777 -0.3019  0.1154
 6613W        W10357   9.146   6.281  10.923  0.0391  0.0785 -0.1114
 6614W        W10358   6.562   2.798   9.246 -0.0316  0.0613 -0.1180
 6615W        W10359   7.666   2.093   1.055 -0.0737  0.2036  0.2264
 6616W        W10360   5.357   0.118   2.525  0.2041  0.2045  0.1755
 6617W        W10361   5.148   6.778  12.437  0.0133  0.1091  0.0676
 6618W        W10362   7.147   0.214   9.242 -0.0944 -0.1885  0.0026
 6619W        W10363   2.184   2.356   1.561 -0.0631  0.3124  0.0872
 6620W        W10364   2.200   4.756  11.945 -0.0706  0.0325  0.1003
 6621W        W10365   1.710   7.365   9.472 -0.1252 -0.0849  0.3128
 6622W        W10366   2.280   2.295   9.516  0.0707  0.0058 -0.3983
 6623W        W10367   4.129   3.686  10.402 -0.1521  0.0671 -0.0118
 6624W        W10368   8.140   8.495   0.131 -0.2924 -0.0810 -0.1913
 6625W        W10369   6.435   8.944   0.083 -0.0946  0.3255 -0.1295
 6626W        W10370   4.265   7.928   9.379  0.0318 -0.1576  0.2248
 6627W        W10371   5.311   8.831   0.507 -0.1577 -0.1696 -0.0497
 6628W        W10372   8.597   0.994   9.249 -0.0979 -0.1447 -0.1088
 6629W        W10373   9.515   7.300   1.168 -0.0038 -0.0705 -0.0834
 6630W        W10374   1.074   2.866   0.122 -0.1266  0.1877  0.0654
 6631W        W10375   4.033   5.787   2.216 -0.0720  0.0565 -0.2860
 6632W        W10376   2.857   0.464   1.451  0.0376 -0.0036 -0.0159
 6633W        W10377   1.007   8.469  10.791  0.1899 -0.2169  0.0457
 6634W        W10378   2.325   0.123  11.179  0.0505 -0.1662 -0.4582
 6635W        W10379   0.601   1.510  12.669 -0.4596  0.0274 -0.2436
 6636W        W10380   3.809   3.691   1.761 -0.0857  0.1770 -0.1389
 6637W        W10381   4.559   0.544   4.298  0.0162 -0.0437 -0.1790
 6638W        W10382   2.760   2.605  11.546  0.0800  0.1779  0.1017
 6639W        W10383   8.520   8.926  11.589  0.2675  0.0850  0.0611
 6640W        W10384   0.241   9.482   2.086  0.0762  0.0248 -0.2162
 6641W        W10385   8.435   2.854   1.724  0.3626 -0.0683 -0.3250
 6642W        W10386   4.050   8.936   1.568 -0.2673  0.1136 -0.0541
 6643W        W10387   4.400   3.478  10.776  0.1174 -0.1477  0.0543
 6644W        W10388   8.404   2.970  10.356 -0.2515  0.1561 -0.1071
 6645W        W10389   0.149   3.672  12.830  0.4121 -0.2155 -0.0484
 6646W        W10390   4.499   1.739  12.457  0.2552  0.0704  0.0707
 6647W        W10391   9.838   1.848   2.871  0.2406 -0.1798 -0.1063
 6648W        W10392   4.813   4.371   2.599 -0.0642  0.1546  0.0498
 6649W        W10393   1.501   0.355  10.099  0.0403 -0.3432 -0.2631
 6650W        W10394   1.397   8.256   0.082  0.1105  0.1323  0.1952
 6651W        W10395   0.936   2.397  11.320  0.0842 -0.0658 -0.1567
 6652W        W10396   9.510   1.977   9.572  0.2283 -0.1228  0.0800
 6653W        W10397   4.429   8.032  10.860 -0.1972  0.0525 -0.1428
 6654W        W10398   4.521   0.711   9.474  0.4042 -0.0910 -0.1461
 6655W        W10399   7.127   5.332  12.385  0.0330  0.1537 -0.1717
 6656W        W10400   8.182   8.616  12.660  0.1570 -0.2261  0.1359
 6657W        W10401   7.386   4.968   3.667  0.2026  0.2272 -0.0242
 6658W        W10402   1.508   1.054   1.085 -0.0369 -0.1051 -0.1862
 6659W        W10403   4.465   1.376   2.760 -0.1966 -0.0670  0.0372
 6660W        W10404   8.280   3.472  10.285 -0.1658  0.2274 -0.0957
 6661W        W10405   6.676   1.427  11.685 -0.0590  0.1384 -0.0641
 6662W        W10406   1.399   7.481   0.527  0.0136 -0.2343 -0.2457
 6663W        W10407   0.093   3.456   2.420 -0.0979  0.1039 -0.0039
 6664W        W10408   4.628   7.710  11.952  0.1140 -0.2244  0.0864
 6665W        W10409   1.014   8.687   3.597 -0.0968  0.3220 -0.2295
 6666W        W10410   2.676   0.849   2.642  0.1264 -0.0305  0.1343
 6667W        W10411   9.334   7.158  12.067 -0.0112  0.1692  0.0228
 6668W        W10412   3.798   4.947  11.772 -0.3863 -0.0554 -0.1210
 6669W        W10413   5.345   6.139  12.300  0.0981 -0.0635  0.0776
 6670W        W10414   8.260   4.761   2.983 -0.0453 -0.1956  0.1029
 6671W        W10415   4.927   9.533   2.193 -0.0572  0.2339  0.2603
 6672W        W10416   5.881   7.251   3.131  0.0846  0.1016  0.1628
 6673W        W10417   6.886   2.213   3.657  0.0726  0.1530 -0.2071
 6674W        W10418   8.145   6.910   2.505  0.0096 -0.3038  0.2331
 6675W        W10419   2.777   8.043   3.895  0.0217 -0.0622  0.4982
 6676W        W10420   1.561   8.025   0.493  0.0046  0.0089 -0.1750
 6677W        W10421   3.745   2.291   9.071 -0.0803  0.0879 -0.2614
 6678W        W10422   1.689   3.028  11.593  0.0119  0.2169 -0.1985
 6679W        W10423   1.051   6.841   3.146 -0.0883  0.1410  0.2546
 6680W        W10424   7.256   6.304   3.775  0.0902 -0.0974 -0.0650
 6681W        W10425   9.097   2.534  12.923 -0.0579  0.4568 -0.1277
 6682W        W10426   8.302   0.073   2.423  0.0401  0.1773  0.0094
 6683W        W10427   2.052   0.190   2.148  0.2297 -0.0220 -0.1459
 6684W        W10428   9.066   7.257  11.554  0.0271 -0.0350 -0.1654
 6685W        W10429   1.497   3.061   0.496 -0.0769  0.0834  0.4710
 6686W        W10430   1.506   6.365   1.920 -0.2309 -0.1759  0.1725
 6687W        W10431   3.904   7.253   2.516 -0.0769 -0.0349  0.0449
 6688W        W10432   6.520   7.340  11.492  0.1988  0.2749 -0.4302
 6689W        W10433   5.004   8.312   3.559 -0.2234  0.0663 -0.1589
 6690W        W10434   7.066   9.219  12.342 -0.1020 -0.1179 -0.1812
 6691W        W10435   0.151   4.227   2.690  0.2432 -0.1429 -0.0180
 6692W        W10436   4.092   3.135  11.019 -0.2115 -0.3429 -0.0843
 6693W        W10437   9.393   0.961   4.487  0.0343 -0.1022  0.2476
 6694W        W10438   9.814   5.290  11.230 -0.2737  0.1141 -0.0175
 6695W        W10439   6.127   0.299   1.921 -0.0183 -0.0218 -0.3293
 6696W        W10440   5.131   1.467   1.012 -0.0736  0.1889  0.2559
 6697W        W10441   5.600   0.762   1.078  0.1884 -0.0257  0.2145
 6698W        W10442   2.485   1.105   0.112 -0.1952 -0.0874  0.1516
 6699W        W10443   4.356   3.044   2.226 -0.0099  0.1679 -0.3566
 6700W        W10444   3.233   6.984  12.778 -0.2588 -0.0957  0.0098
 6701W        W10445   8.597   0.275   7.470 -0.0065 -0.3888  0.2466
 6702W        W10446   6.384   1.342  10.800  0.0025  0.2665 -0.0325
 6703W        W10447   0.578   1.967   0.088  0.0102  0.1526  0.2434
 6704W        W10448   8.047   3.263  10.696 -0.1390 -0.1251  0.0636
 6705W        W10449   5.559   1.866   2.458 -0.2680 -0.1051  0.3523
 6706W        W10450   9.613   0.990  12.626 -0.1213 -0.0675  0.2515
 6707W        W10451   4.752   4.606  12.345 -0.1810 -0.1411 -0.3821
 6708W        W10452   0.906   4.743  12.326 -0.2267  0.1045 -0.0223
 6709W        W10453   5.997   9.686   9.888 -0.0013 -0.3963 -0.0169
 6710W        W10454   4.199   0.562   5.125  0.2094 -0.0669  0.0637
 6711W        W10455   9.732   3.409  11.038  0.1545 -0.0637 -0.2198
 6712W        W10456   1.200   7.792  12.768 -0.0216 -0.1383 -0.0294
 6713W        W10457   0.805   6.335   1.884 -0.0668  0.1725  0.1186
 6714W        W10458   0.060   4.670   4.143 -0.2454  0.1227  0.2900
 6715W        W10459   4.127   5.458  12.918 -0.5072  0.1338  0.2570
 6716W        W10460   7.490   6.862  11.621 -0.0133 -0.1295 -0.1571
 6717W        W10461   3.662   5.862  12.721  0.1544  0.0219 -0.0791
 6718W        W10462   9.239   5.682  10.878  0.3433 -0.0885 -0.2005
 6719W        W10463   4.354   7.146  10.317  0.1973  0.1163 -0.0530
 6720W        W10464   5.228   0.760   3.812  0.0316  0.0303 -0.1097
 6721W        W10465   6.308   3.587  10.426  0.2054 -0.1082  0.0210
 6722W        W10466   5.020   8.678  10.747 -0.1232  0.3926  0.1191
 6723W        W10467   9.383   8.042  11.806  0.1521  0.1756  0.1666
 6724W        W10468   0.123   9.373   0.388 -0.0609 -0.1451 -0.0945
 6725W        W10469   4.311   6.648   9.394 -0.0313  0.0936  0.2393
 6726W        W10470   3.339   0.154  10.853 -0.1724 -0.3265 -0.2436
 6727W        W10471   9.672   0.509   2.789 -0.0953 -0.0807  0.2081
 6728W        W10472   4.356   1.669   9.164 -0.1237 -0.1488 -0.0242
 6729W        W10473   7.780   2.433   7.914  0.0593  0.2679  0.0360
 6730W        W10474   3.382   1.505  12.010  0.0141 -0.0540  0.1589
 6731W        W10475   1.899   6.725   0.765 -0.1136  0.0437  0.0793
 6732W        W10476   6.484   3.207   2.891  0.1112 -0.2121 -0.0905
 6733W        W10477   0.325   8.658   3.787  0.0233 -0.2800 -0.1058
 6734W        W10478   0.819   6.907   4.570  0.0410 -0.2719 -0.2427
 6735W        W10479   8.036   3.921   0.470  0.2056 -0.0221 -0.1553
 6736W        W10480   3.537   1.782  12.884 -0.0405 -0.3949  0.0481
 6737W        W10481   6.439   7.720   1.035  0.2337 -0.1751  0.0431
 6738W        W10482   1.919   5.286  12.627 -0.4586 -0.4758 -0.2457
 6739W        W10483   2.448   7.043  12.417 -0.1513  0.0926 -0.0553
 6740W        W10484   2.170   0.802   2.751  0.1084 -0.0318 -0.1631
 6741W        W10485   7.549   8.691   8.120  0.0659  0.2476 -0.0893
 6742W        W10486   1.863   2.525   2.348 -0.1509  0.0530  0.0783
 6743W        W10487   8.988   7.363   1.613  0.2287 -0.3531 -0.0803
 6744W        W10488   9.343   8.963  11.420  0.1594 -0.3350 -0.1974
 6745W        W10489   4.978   7.867   9.779 -0.0166 -0.2319 -0.1202
 6746W        W10490   8.397   0.941  12.658  0.2507 -0.3422 -0.0817
 6747W        W10491   9.219   0.577   4.799 -0.0158  0.1663 -0.3294
 6748W        W10492   0.935   2.125  10.920  0.0321 -0.0469 -0.1424
 6749W        W10493   8.012   3.495  12.072  0.3044  0.3061 -0.2752
 6750W        W10494   1.697   2.648   1.394 -0.1973 -0.0975  0.1136
 6751W        W10495   8.208   6.670   1.041  0.2078 -0.3569 -0.0227
 6752W        W10496   2.959   9.080  11.798  0.1999 -0.0168 -0.1592
 6753W        W10497   3.319   7.356  11.357 -0.2501  0.2676  0.1555
 6754W        W10498   0.961   0.191   0.372  0.0793  0.0690 -0.2322
 6755W        W10499   4.765   3.669  11.865  0.2486 -0.1023 -0.1959
 6756W        W10500   1.286   5.727   2.361 -0.0929 -0.1019  0.2561
 6757W        W10501   8.221   4.195  11.496  0.1808 -0.0529 -0.1081
 6758W        W10502   8.367   6.176  11.920  0.1603  0.0840 -0.2882
 6759W        W10503   2.527   0.037   2.195  0.1636  0.4442  0.0604
 6760W        W10504   2.502   7.332   1.894  0.0125  0.0198 -0.1864
 6761W        W10505   7.726   9.693   0.134  0.0593  0.0856 -0.2213
 6762W        W10506   1.762   4.975   0.871 -0.1808 -0.0226  0.1836
 6763W        W10507   2.097   4.739   9.652 -0.2624  0.0130  0.2838
 6764W        W10508   4.728   6.191   1.456  0.0117  0.2026  0.0249
 6765W        W10509   9.760   5.827   2.897  0.1780 -0.1826  0.0698
 6766W        W10510   3.886   2.977   2.021 -0.2186 -0.1275  0.0455
 6767W        W10511   3.764   0.900   2.274 -0.2402 -0.1172  0.0117
 6768W        W10512   7.495   9.439   9.273 -0.1561 -0.3029  0.2687
 6769W        W10513   3.719   4.397   2.295 -0.0185 -0.1943 -0.2498
 6770W        W10514   0.036   7.315  11.871 -0.1501 -0.0856  0.0379
 6771W        W10515   8.470   6.649  11.668  0.0541  0.1284 -0.1259
 6772W        W10516   4.806   6.710   9.487 -0.0771 -0.2176 -0.0445
 6773W        W10517   9.504   7.851  10.260 -0.1461  0.1928  0.0066
 6774W        W10518   4.030   7.199   3.453  0.2466 -0.0337  0.1914
 6775W        W10519   0.464   1.047  12.313  0.2074 -0.1286  0.2263
 6776W        W10520   5.975   6.698   3.470  0.2216 -0.3145 -0.3406
 6777W        W10521   6.660   9.388   0.940  0.0394 -0.1088  0.0961
 6778W        W10522   0.582   4.492  11.207 -0.1431  0.0981  0.4222
 6779W        W10523   7.571   2.706   2.794  0.0004  0.1750 -0.2538
 6780W        W10524   4.552   8.872  10.845 -0.4026 -0.0622 -0.4079
 6781W        W10525   5.047   6.901  12.940  0.0969 -0.1028  0.2560
 6782W        W10526   8.323   3.020  11.038 -0.0958  0.1390 -0.4484
 6783W        W10527   9.396   4.646  12.015 -0.1332  0.1262 -0.2035
 6784W        W10528   1.699   0.080  11.628 -0.1942  0.1652  0.3839
 6785W        W10529   2.993   5.563   3.165  0.0968  0.1467 -0.0449
 6786W        W10530   0.030   1.910  11.374 -0.1767 -0.1238 -0.0971
 6787W        W10531   8.839   2.491   9.228  0.2178 -0.0721  0.1424
 6788W        W10532   7.776   9.590   1.500 -0.0354 -0.3022  0.0302
 6789W        W10533   0.717   2.677   2.897  0.4249  0.1044  0.2707
 6790W        W10534   9.531   0.285   0.184 -0.0658  0.1456 -0.1119
 6791W        W10535   2.058   8.500   2.405 -0.1504  0.0242 -0.3096
 6792W        W10536   0.375   8.656   9.677 -0.1100  0.0627 -0.0626
 6793W        W10537   8.016   6.775  10.691  0.4380  0.4110  0.3156
 6794W        W10538   2.337   7.032   0.086 -0.2376 -0.2999  0.1415
 6795W        W10539   8.811   1.479  11.280  0.0465  0.1465  0.2245
 6796W        W10540   9.265   3.693  10.119 -0.0523  0.1920  0.0902
 6797W        W10541   4.009   6.789  10.277 -0.2160  0.0076 -0.2706
 6798W        W10542   2.454   5.245  12.972  0.0512  0.1992 -0.2131
 6799W        W10543   0.558   3.403  12.188 -0.2554  0.1577 -0.0026
 6800W        W10544   1.697   2.106   0.150  0.0757 -0.3695 -0.1792
 6801W        W10545   9.133   9.779  11.530 -0.1546 -0.0188 -0.1251
 6802W        W10546   0.323   5.866   0.653  0.2450  0.1054 -0.0815
 6803W        W10547   3.752   9.683   4.675  0.0139 -0.0305 -0.3765
 6804W        W10548   9.476   7.666   2.631  0.0129 -0.0503  0.1563
 6805W        W10549   3.036   2.261   3.353  0.1272 -0.0196  0.0936
 6806W        W10550   9.362   8.774  11.903 -0.0105 -0.1674  0.1816
 6807W        W10551   1.938   2.880   3.227 -0.1399  0.3058  0.0295
 6808W        W10552   8.304   9.360   4.096 -0.0626 -0.3190  0.1566
 6809W        W10553   0.518   6.163   8.397 -0.0846  0.0447  0.4426
 6810W        W10554   5.693   7.532  11.167 -0.0423  0.0992 -0.0308
 6811W        W10555   9.211   5.763   5.015  0.0865  0.2138  0.2194
 6812W        W10556   0.685   1.763   8.328  0.0467 -0.2432 -0.2808
 6813W        W10557   1.579   9.450   3.078 -0.2203 -0.2056  0.5359
 6814W        W10558   1.358   9.625  11.469 -0.2741 -0.0964  0.2566
 6815W        W10559   7.609   1.048   1.968 -0.2279  0.0751  0.0409
 6816W        W10560   7.313   8.059   3.016 -0.0477  0.1553 -0.1478
 6817W        W10561   9.373   6.508   3.315 -0.2592 -0.1014  0.3992
 6818W        W10562   6.984   5.696  11.496 -0.2480  0.0295 -0.4270
 6819W        W10563   0.242   2.566   1.271 -0.2955 -0.2137  0.3774
 6820W        W10564   9.265   6.305   3.814  0.0551  0.1112 -0.2233
 6821W        W10565   9.537   5.331   3.577  0.0978  0.0206 -0.1435
 6822W        W10566   6.848   8.385   3.780 -0.3320 -0.1232  0.1790
 6823W        W10567   7.925   8.995   9.335 -0.3001  0.2727 -0.0872
 6824W        W10568   6.351   7.759  12.741  0.1701 -0.0256  0.0270
 6825W        W10569   2.868   8.350  12.891 -0.0850  0.2898 -0.1903
 6826W        W10570   1.573   8.716  11.542 -0.0910  0.0410  0.0788
 6827W        W10571   5.615   8.690  12.416 -0.0761 -0.2563  0.1844
 6828W        W10572   7.741   4.039   9.793 -0.2776 -0.0477 -0.0819
 6829W        W10573   1.042   0.602   4.480  0.1652  0.2750  0.0824
 6830W        W10574   7.399   2.469   9.283 -0.2901 -0.0305 -0.0706
 6831W        W10575   5.755   6.544   4.728 -0.3384  0.1776 -0.0046
 6832W        W10576   3.758   6.900   3.778 -0.0285  0.2599  0.0053
 6833W        W10577   8.528   1.185  10.868  0.0276 -0.0469  0.1571
 6834W        W10578   4.691   6.538  12.719  0.2734 -0.1320  0.0196
 6835W        W10579   2.391   3.704  10.306 -0.2314  0.1916 -0.2098
 6836W        W10580   5.781   7.613   9.428 -0.4908 -0.1988  0.0839
 6837W        W10581   6.692   8.238   9.309 -0.0977  0.0493  0.1468
 6838W        W10582   3.364   8.134   3.231 -0.1460 -0.0685  0.1827
 6839W        W10583   8.758   4.921   2.979 -0.1553 -0.1356 -0.2200
 6840W        W10584   1.460   4.017   0.335 -0.1306 -0.0356  0.0087
 6841W        W10585   3.104   7.062   1.261 -0.1323 -0.2212 -0.0001
 6842W        W10586   0.364   1.802   3.129  0.2217  0.0613 -0.2222
 6843W        W10587   1.709   9.335   3.981 -0.0330  0.2436  0.2187
 6844W        W10588   0.639   4.930   1.365  0.1625 -0.3091 -0.4642
 6845W        W10589   8.927   1.591  10.067 -0.0740 -0.3325 -0.1127
 6846W        W10590   6.452   5.609  11.831 -0.3852  0.1465 -0.1829
 6847W        W10591   4.057   3.683   2.246  0.3352 -0.0510 -0.4031
 6848W        W10592   3.495   5.542  10.023 -0.0795  0.0879  0.3166
 6849W        W10593   4.850   6.389   4.862 -0.0413 -0.0231  0.0071
 6850W        W10594   9.549   8.330   0.105 -0.0391  0.1438  0.0581
 6851W        W10595   3.323   9.461   1.710  0.3623 -0.0282 -0.4758
 6852W        W10596   3.015   5.786   9.286  0.1668 -0.0095 -0.1496
 6853W        W10597   9.475   0.289  11.456 -0.0022 -0.2001 -0.0846
 6854W        W10598   5.343   1.219   9.488  0.0249  0.3199 -0.2474
 6855W        W10599   0.242   7.666   4.583 -0.0162 -0.1080 -0.1113
 6856W        W10600   9.190   8.209   0.475  0.1258  0.1334  0.0049
 6857W        W10601   0.213   9.065  12.886 -0.3327  0.1509 -0.0512
 6858W        W10602   7.198   1.312  11.567  0.0507 -0.2974  0.0819
 6859W        W10603   5.989   9.268   0.213  0.0398  0.1161 -0.0448
 6860W        W10604   6.548   9.480   2.334 -0.0847 -0.0974  0.3122
 6861W        W10605   3.427   3.048   9.549 -0.1340  0.0008  0.2335
 6862W        W10606   4.639   5.910  10.804  0.0071  0.3477 -0.1745
 6863W        W10607   7.210   0.776   1.271  0.1243  0.0458  0.2135
 6864W        W10608   5.300   8.834  11.556 -0.1079  0.2882  0.0576
 6865W        W10609   8.652   8.611  12.482  0.0126 -0.0432 -0.1395
 6866W        W10610   8.363   8.919   3.921 -0.2510  0.0177 -0.2018
 6867W        W10611   6.876   1.956   2.894 -0.4462  0.1305 -0.0677
 6868W        W10612   7.552   9.883  12.634  0.3213 -0.1554  0.0901
 6869W        W10613   4.972   3.587   0.372 -0.0776 -0.2840  0.0951
 6870W        W10614   0.426   4.008  11.335 -0.1743 -0.0515 -0.1449
 6871W        W10615   8.175   6.968   3.860  0.1146 -0.2082 -0.0677
 6872W        W10616   7.676   9.663  11.812  0.3255  0.3082 -0.0312
 6873W        W10617   3.513   7.457   4.284 -0.1857 -0.0966 -0.1866
 6874W        W10618   6.127   0.996  11.546 -0.1622 -0.3004  0.1496
 6875W        W10619   0.121   3.889   1.643 -0.2092  0.0585 -0.2394
 6876W        W10620   4.883   3.225  12.071 -0.2706 -0.3327  0.1773
 6877W        W10621   7.817   7.604  10.492 -0.0447  0.0811  0.1748
 6878W        W10622   7.955   0.783   0.933 -0.1755  0.1101  0.0204
 6879W        W10623   9.209   9.529   4.433 -0.0171 -0.2225 -0.0213
 6880W        W10624   6.599   5.086   3.152 -0.0190 -0.1122  0.2495
 6881W        W10625   0.942   2.923   8.279 -0.0335  0.2535  0.2105
 6882W        W10626   8.831   3.655   1.637  0.0247 -0.3911 -0.1143
 6883W        W10627   6.140   1.822   1.843 -0.0880 -0.0690  0.3194
 6884W        W10628   4.134   0.220  10.101  0.0982 -0.1411  0.0359
 6885W        W10629   2.173   4.608  10.978  0.0091 -0.4640 -0.1122
 6886W        W10630   4.631   9.125   9.890  0.2142 -0.2162 -0.2281
 6887W        W10631   3.708   9.288  11.418  0.0740  0.1723  0.1417
 6888W        W10632   1.239   6.557  12.884 -0.0424 -0.1855  0.2234
 6889W        W10633   2.756   9.153   3.862 -0.0254 -0.4548 -0.2972
 6890W        W10634   6.600   7.168  10.679 -0.2571 -0.0753 -0.1764
 6891W        W10635   6.821   8.179   2.808 -0.3235 -0.0103 -0.1807
 6892W        W10636   5.169   9.060   9.883 -0.4728  0.2500  0.0148
 6893W        W10637   6.929   8.905   0.253 -0.0644 -0.3458 -0.0400
 6894W        W10638   0.737   3.319  11.710  0.2676  0.2208 -0.0968
 6895W        W10639   6.842   5.482  10.965  0.0617  0.0629 -0.3304
 6896W        W10640   9.085   1.792   0.638  0.0989  0.2294 -0.0707
 6897W        W10641   5.990   1.905  11.224  0.1475 -0.2210  0.1203
 6898W        W10642   1.984   0.968   3.222  0.2389 -0.1633 -0.0790
 6899W        W10643   1.139   3.033   2.927 -0.1041  0.0422 -0.0042
 6900W        W10644   2.469   4.213   1.749 -0.2294 -0.1979 -0.2196
 6901W        W10645   0.494   1.170   0.768  0.1241  0.3694  0.1530
 6902W        W10646   1.913   6.294  12.437 -0.0947  0.0596  0.2372
 6903W        W10647   9.819   2.343   4.642 -0.1459  0.0110  0.1563
 6904W        W10648   4.033   4.285   3.107 -0.0743  0.0960 -0.1336
 6905W        W10649   0.637   1.154  10.899  0.0241 -0.1392 -0.0523
 6906W        W10650   7.468   4.932  11.532  0.1613  0.0967  0.4157
 6907W        W10651   1.473   3.221   3.302  0.2216  0.3460 -0.0692
 6908W        W10652   5.013   9.866   3.423  0.1521  0.2732  0.2535
 6909W        W10653   5.613   5.585   9.684  0.0303  0.1983 -0.2114
 6910W        W10654   0.358   9.537  12.955 -0.2434 -0.1786  0.0271
 6911W        W10655   8.349   8.270   9.004  0.0731  0.1389  0.1955
 6912W        W10656   6.170   8.360  12.918 -0.0806 -0.2432  0.2389
 6913W        W10657   0.963   1.235  10.459 -0.0268 -0.2719  0.0533
 6914W        W10658   8.154   4.881   1.963 -0.3666  0.4704 -0.0575
 6915W        W10659   6.452   8.376   1.039 -0.0605  0.0358  0.1341
 6916W        W10660   8.253   0.608   0.073 -0.0943  0.0318  0.0459
 6917W        W10661   9.836   8.678  11.892 -0.0192  0.0339 -0.1019
 6918W        W10662   9.269   2.986   2.002  0.1034  0.0590 -0.2137
 6919W        W10663   9.383   2.887  11.095 -0.1361  0.1519 -0.1042
 6920W        W10664   1.598   4.886  10.407 -0.0065  0.1108 -0.1847
 6921W        W10665   1.589   3.593  12.177 -0.1227  0.0463  0.1855
 6922W        W10666   3.812   3.800   0.327 -0.0192  0.0943 -0.3990
 6923W        W10667   0.355   5.506   4.758  0.0715  0.1348 -0.3417
 6924W        W10668   3.128   5.387   2.242  0.0071 -0.0669  0.1753
 6925W        W10669   7.315   8.284  10.101 -0.1147  0.1427 -0.2056
 6926W        W10670   7.158   1.657   1.701 -0.0104 -0.0548  0.0280
 6927W        W10671   8.482   2.034   8.328  0.0343 -0.0533 -0.2828
 6928W        W10672   5.956   5.790   2.805  0.0484  0.0822 -0.0500
 6929W        W10673   1.005   9.154   2.595  0.0196 -0.2224 -0.5755
 6930W        W10674   2.298   7.074   0.707 -0.0580 -0.1178  0.2734
 6931W        W10675   5.926   5.103   8.845 -0.0884  0.0855 -0.0750
 6932W        W10676   5.957   1.262   3.883  0.2613 -0.2909 -0.0693
 6933W        W10677   4.477   7.043   1.002  0.3084 -0.0753 -0.0573
 6934W        W10678   6.440   4.931   3.650 -0.0368 -0.1333  0.1214
 6935W        W10679   4.580   6.626  10.217 -0.0519  0.0105 -0.0611
 6936W        W10680   3.965   5.976   0.212  0.1426 -0.1304  0.0225
 6937W        W10681   6.450   6.917   0.027 -0.1568  0.0224 -0.1425
 6938W        W10682   7.543   2.258   8.427 -0.1033  0.0237  0.0857
 6939W        W10683   7.281   6.929   1.828 -0.1296 -0.1040 -0.0731
 6940W        W10684   7.383   7.002  11.085  0.0910 -0.1930  0.0848
 6941W        W10685   4.050   1.409   2.074 -0.3254  0.1025 -0.2705
 6942W        W10686   9.119   2.984   0.953  0.0376 -0.0110  0.2260
 6943W        W10687   4.130   6.330  10.075  0.1412 -0.1948  0.1458
 6944W        W10688   6.212   7.402   2.417  0.0641 -0.0505  0.1106
 6945W        W10689   6.518   6.814  10.303 -0.0765  0.1977  0.1328
 6946W        W10690   4.800   5.946  11.440  0.0425 -0.2277 -0.0723
 6947W        W10691   0.795   2.253   1.409 -0.0718 -0.0178  0.0051
 6948W        W10692   9.456   6.666   8.471  0.1059 -0.1370  0.2579
 6949W        W10693   0.512   3.578   3.281 -0.1974  0.3473 -0.2461
 6950W        W10694   5.551   8.696   2.883  0.1244 -0.1018 -0.5981
 6951W        W10695   6.081   4.779  12.025  0.6430 -0.3330  0.3201
 6952W        W10696   1.293   1.436  11.464 -0.2882 -0.0099 -0.1496
 6953W        W10697   9.020   2.744   4.153  0.0310 -0.2978  0.0547
 6954W        W10698   9.646   5.915   2.394 -0.0201 -0.2057 -0.0298
 6955W        W10699   0.018   4.993   3.785  0.0329 -0.2949  0.1109
 6956W        W10700   0.638   5.271   3.952  0.0236  0.0732  0.2075
 6957W        W10701   4.732   7.104  11.078 -0.1289 -0.0975  0.0006
 6958W        W10702   6.792   4.496   9.936 -0.2340  0.0189  0.0687
 6959W        W10703   0.797   0.017  10.608 -0.2927 -0.0937 -0.1682
 6960W        W10704   7.766   7.803   3.138 -0.0845  0.3036  0.0908
 6961W        W10705   7.756   4.656   4.228  0.2564 -0.0567  0.0793
 6962W        W10706   9.636   1.514  12.664  0.2122 -0.1187 -0.0256
 6963W        W10707   9.077   9.403   9.498  0.2096 -0.0848  0.0325
 6964W        W10708   8.811   3.004   8.966  0.1562  0.3770  0.0876
 6965W        W10709   3.937   9.747   0.937 -0.0511 -0.0517  0.2707
 6966W        W10710   9.641   5.875  12.393 -0.0050  0.0115  0.3490
 6967W        W10711   8.370   4.761  11.608  0.1809  0.3207 -0.0571
 6968W        W10712   2.849   7.877  12.692  0.1075  0.2670  0.2380
 6969W        W10713   1.986   4.462  10.107 -0.1312 -0.1852 -0.1427
 6970W        W10714   8.616   8.197   4.174  0.0891 -0.4623 -0.0479
 6971W        W10715   7.121   7.150  10.614 -0.2972 -0.3049 -0.2226
 6972W        W10716   2.556   9.551   0.501  0.2242 -0.1008 -0.0083
 6973W        W10717   3.051   8.735   2.540  0.0305 -0.2080  0.0474
 6974W        W10718   3.594   8.865  10.699 -0.0819 -0.0276 -0.1249
 6975W        W10719   7.784   3.051   9.768 -0.1483 -0.1959 -0.1732
 6976W        W10720   1.912   8.121   3.229  0.2313 -0.3335 -0.0514
 6977W        W10721   2.591   4.229   3.406  0.0466  0.0999 -0.0087
 6978W        W10722   4.261   6.395  12.833  0.0222  0.1908 -0.0052
 6979W        W10723   7.439   3.965   2.355  0.1964 -0.0621 -0.4174
 6980W        W10724   4.895   5.806   1.735 -0.2902  0.0401 -0.0895
 6981W        W10725   8.130   9.259  11.657  0.1578 -0.0166  0.2886
 6982W        W10726   0.589   3.437   2.195  0.1176  0.0859  0.5035
 6983W        W10727   3.823   1.344   3.677 -0.0991  0.0165 -0.0850
 6984W        W10728   4.242   8.183   2.889 -0.0883  0.0318 -0.0926
 6985W        W10729   1.849   9.760  10.641 -0.1961 -0.1813 -0.3169
 6986W        W10730   2.216   3.884   3.360  0.1460 -0.2719 -0.0108
 6987W        W10731   0.962   1.523   1.267  0.2873 -0.0461  0.1169
 6988W        W10732   7.855   0.069   2.820 -0.0608 -0.0394  0.0683
 6989W        W10733   0.989   2.886  11.509 -0.1512 -0.1449  0.2388
 6990W        W10734   3.561   6.171   0.949 -0.1755  0.1050  0.1870
 6991W        W10735   1.415   2.710  11.304 -0.5416  0.0411 -0.3120
 6992W        W10736   1.534   8.355  11.138  0.1782  0.1991  0.0135
 6993W        W10737   8.449   0.577   7.974  0.1114  0.1473  0.1330
 6994W        W10738   0.251   5.574   2.118  0.2591  0.1649 -0.0768
 6995W        W10739   6.829   1.118   1.641 -0.0377 -0.1766 -0.3748
 6996W        W10740   2.622   6.604  12.918 -0.2204 -0.0683 -0.1936
 6997W        W10741   5.446   3.978  12.269  0.0945 -0.2303 -0.0655
 6998W        W10742   6.016   2.832   3.705  0.1451  0.0696  0.1858
 6999W        W10743   3.966   9.795   3.792  0.0195  0.2125 -0.0336
 7000W        W10744   5.599   5.042   1.052 -0.1830  0.0079  0.4515
 7001W        W10745   4.998   3.579   1.044 -0.0945 -0.3549  0.0865
 7002W        W10746   3.060   2.116  12.842 -0.3334 -0.0965 -0.0961
 7003W        W10747   3.681   9.273   0.855  0.3884 -0.1265 -0.3903
 7004W        W10748   4.996   8.089   3.971  0.2664  0.0022  0.0201
 7005W        W10749   9.869   7.955  12.938  0.0049  0.0472 -0.1949
 7006W        W10750   8.714   6.267  10.427  0.1536  0.2166 -0.1839
 7007W        W10751   8.653   2.457  12.096 -0.0777 -0.2049  0.2242
 7008W        W10752   6.735   5.293   2.070 -0.4217 -0.2228 -0.0932
 7009W        W10753   3.891   6.655  10.771 -0.1196  0.0845 -0.2648
 7010W        W10754   6.031   4.631  12.502  0.1395  0.1739  0.1952
 7011W        W10755   5.947   4.595  11.489 -0.3171 -0.0690  0.1893
 7012W        W10756   2.690   3.678   3.180 -0.0809 -0.1667 -0.1600
 7013W        W10757   6.827   4.084  12.070 -0.1705 -0.1632  0.0930
 7014W        W10758   5.833   1.630  10.873  0.1972  0.0809 -0.0520
 7015W        W10759   2.281   4.108   2.507  0.1818  0.2130 -0.2978
 7016W        W10760   4.534   9.006   0.590 -0.1407  0.0219  0.0930
 7017W        W10761   3.578   2.822   9.935  0.1716  0.1882  0.1566
 7018W        W10762   7.816   8.886   2.092 -0.2550 -0.2399  0.0370
 7019W        W10763   2.953   1.453  12.210  0.2507 -0.1166  0.4588
 7020W        W10764   8.586   9.695   9.195  0.1315  0.0985 -0.1015
 7021W        W10765   8.838   0.787  10.898 -0.0068 -0.4179 -0.3729
 7022W        W10766   8.259   4.654   8.861 -0.2307 -0.0322 -0.1926
 7023W        W10767   9.036   5.327   0.887 -0.1982 -0.0477 -0.2420
 7024W        W10768   0.702   9.584   0.680  0.0133  0.0276 -0.0693
 7025W        W10769   0.037   2.968   0.303  0.0507  0.1122  0.0867
 7026W        W10770   1.415   6.483  10.383  0.1785 -0.1966  0.2630
 7027W        W10771   9.837   3.177   8.835 -0.0451 -0.0681  0.1792
 7028W        W10772   8.601   7.308   0.669 -0.3067 -0.4161 -0.1291
 7029W        W10773   0.404   9.713  11.295  0.0576  0.1230 -0.2259
 7030W        W10774   3.401   9.421  12.012 -0.1485  0.1058  0.2446
 7031W        W10775   1.774   0.485   2.459  0.1700  0.2076 -0.1492
 7032W        W10776   6.804   9.294   1.393 -0.0415 -0.0065  0.0165
 7033W        W10777   7.691   0.888   3.245 -0.2153 -0.0582 -0.0589
 7034W        W10778   8.935   7.163   2.093  0.1197  0.1664  0.2878
 7035W        W10779   9.292   3.406   4.084 -0.1539 -0.1102 -0.1401
 7036W        W10780   5.818   2.368  11.053 -0.1852  0.0775 -0.0720
 7037W        W10781   7.825   4.585   3.050  0.1708  0.1756  0.3285
 7038W        W10782   2.047   8.720   1.442  0.3461 -0.1143 -0.0564
 7039W        W10783   0.479   6.221  11.574  0.0818  0.2472  0.2310
 7040W        W10784   1.224   0.422   1.731 -0.1633  0.2779 -0.0418
 7041W        W10785   8.849   5.185  10.863  0.0376 -0.1153  0.1790
 7042W        W10786   0.327   7.147   1.937 -0.0641  0.0349  0.0794
 7043W        W10787   9.308   4.071  12.337  0.1153  0.0428 -0.1950
 7044W        W10788   7.438   4.730   1.325  0.2410 -0.0390  0.0233
 7045W        W10789   7.603   7.124  10.515 -0.1558  0.0446 -0.0702
 7046W        W10790   3.877   9.374   5.071 -0.3568 -0.0067 -0.1814
 7047W        W10791   0.095   1.182   1.117  0.0775 -0.0284 -0.0582
 7048W        W10792   9.670   6.717   2.940 -0.0032  0.0390 -0.3071
 7049W        W10793   4.905   7.500   2.541 -0.3568 -0.0474 -0.3901
 7050W        W10794   4.936   2.996  11.251 -0.0225 -0.0769  0.0198
 7051W        W10795   2.446   7.548   0.539 -0.2779 -0.0550 -0.0305
 7052W        W10796   3.625   0.544   1.918 -0.1013 -0.4346 -0.0840
 7053W        W10797   8.028   1.150   2.854  0.1324  0.0986  0.0431
 7054W        W10798   4.356   7.692   3.196 -0.1870  0.0070 -0.2317
 7055W        W10799   5.538   9.662   2.149 -0.0125 -0.2499 -0.2584
 7056W        W10800   2.560   6.085   1.785 -0.0179 -0.0913  0.1783
 7057W        W10801   5.669   7.953   0.017  0.1392  0.2409  0.2798
 7058W        W10802   3.348   4.973   1.961  0.1527  0.1716 -0.1194
 7059W        W10803   2.989   9.081   2.079 -0.1178 -0.0403  0.1840
 7060W        W10804   1.908   1.513  11.535  0.1394 -0.2665  0.0248
 7061W        W10805   2.586   6.776   2.498  0.0353 -0.1121  0.1451
 7062W        W10806   1.208   8.148  12.167  0.3160  0.2712  0.0591
 7063W        W10807   4.250   4.615  11.108 -0.2158  0.1860  0.2994
 7064W        W10808   7.108   1.499   0.388 -0.1202 -0.0294 -0.0579
 7065W        W10809   2.999   7.887  10.597  0.2110 -0.2132  0.0144
 7066W        W10810   3.195   3.099  10.021 -0.2346 -0.0670 -0.0033
 7067W        W10811   4.338   8.715  10.026  0.1112  0.0376 -0.0075
 7068W        W10812   3.341   3.027   1.194 -0.1240  0.1843 -0.0698
 7069W        W10813   2.949   3.465  10.344 -0.1785 -0.2247  0.2363
 7070W        W10814   7.628   9.496   2.981  0.1446  0.0556 -0.2309
 7071W        W10815   5.897   3.504  10.201 -0.1472 -0.2631  0.3423
 7072W        W10816   1.465   6.193   2.436  0.1043 -0.0148 -0.0105
 7073W        W10817   8.336   3.246   1.351 -0.2354  0.2290  0.2816
 7074W        W10818   7.610   1.400   0.599  0.2660  0.0648 -0.0484
 7075W        W10819   5.749   3.356  11.004 -0.0734  0.0968 -0.2308
 7076W        W10820   7.541   8.953   0.922 -0.1393  0.3268  0.2279
 7077W        W10821   6.797   2.894  11.009 -0.1487 -0.1526  0.0931
 7078W        W10822   6.368   0.260   1.505 -0.0176  0.3103 -0.3165
 7079W        W10823   8.756   6.785  10.763  0.2257 -0.0390 -0.3671
 7080W        W10824   3.931   2.209   0.743 -0.0553  0.1437 -0.0001
 7081W        W10825   9.524   8.755   2.684  0.2554  0.0982 -0.0723
 7082W        W10826   2.363   6.309   2.238 -0.0561  0.0154 -0.2126
 7083W        W10827   5.133   1.821   0.625  0.1177  0.3239  0.0828
 7084W        W10828   6.990   3.662   3.792  0.0394 -0.1260  0.1202
 7085W        W10829   5.914   6.709  12.465 -0.0133  0.2986  0.0911
 7086W        W10830   0.155   0.862   2.006 -0.1288  0.2727  0.3429
 7087W        W10831   1.059   4.818   2.712  0.2530  0.1542 -0.1310
 7088W        W10832   1.188   0.313   8.663  0.1045 -0.3109 -0.0626
 7089W        W10833   3.543   3.601   2.581 -0.2152  0.1357 -0.0617
 7090W        W10834   3.484   5.047   0.281 -0.0090  0.0803 -0.4566
 7091W        W10835   5.849   7.018  11.252  0.2148 -0.0938 -0.2568
 7092W        W10836   4.302   8.577   1.291  0.0071  0.0677 -0.1317
 7093W        W10837   2.467   7.442   8.782 -0.0025 -0.1309 -0.1996
 7094W        W10838   0.404   0.075   2.376 -0.1453  0.4260  0.1240
 7095W        W10839   4.297   4.847   2.629  0.0367 -0.0125 -0.1898
 7096W        W10840   5.207   4.832   2.357 -0.0509 -0.0547  0.3052
 7097W        W10841   6.561   4.402   0.927 -0.2250  0.0284 -0.0406
 7098W        W10842   8.415   5.663   9.789  0.1847 -0.0467 -0.2651
 7099W        W10843   7.805   5.510  10.973 -0.3640  0.0768  0.1084
 7100W        W10844   3.306   6.772   2.920 -0.2177  0.0256 -0.4896
 7101W        W10845   4.333   6.416  10.597  0.2140  0.0126 -0.0659
 7102W        W10846   8.502   5.904   3.101  0.2680 -0.0279  0.2448
 7103W        W10847   3.974   2.054  12.146  0.2012  0.0266 -0.2449
 7104W        W10848   3.319   6.591  11.338  0.0505  0.2411 -0.2477
 7105W        W10849   3.342   8.272  10.573 -0.0351  0.4927  0.0375
 7106W        W10850   4.651   2.748  11.837 -0.3583  0.1198  0.1299
 7107W        W10851   4.896   1.599   9.326  0.1159 -0.0392 -0.2694
 7108W        W10852   1.192   3.853  11.558 -0.2099 -0.0001 -0.3687
 7109W        W10853   2.956   4.873   2.350  0.1545 -0.1713  0.0182
 7110W        W10854   3.210   2.596   2.674  0.0045  0.2903  0.0889
 7111W        W10855   1.160   4.687  11.816  0.3406 -0.4260 -0.1584
 7112W        W10856   2.828   8.535   4.772 -0.2184  0.0426  0.4455
 7113W        W10857   4.131   4.944  12.906 -0.2947  0.0163  0.0742
 7114W        W10858   1.640   0.598   1.998  0.0431  0.0365 -0.4990
 7115W        W10859   5.395   6.767   1.997  0.0442  0.0207  0.2901
 7116W        W10860   2.854   2.658  12.688  0.0613  0.0894 -0.2040
 7117W        W10861   3.674   1.727  12.397  0.0958 -0.2407  0.0468
 7118W        W10862   4.570   2.948  10.820 -0.1257 -0.2746 -0.0182
 7119W        W10863   2.781   4.090  12.509 -0.0927  0.1248  0.2101
 7120W        W10864   1.085   3.824   2.456  0.1730 -0.4567 -0.1120
 7121W        W10865   1.088   2.083   8.111  0.0470 -0.1410  0.1178
 7122W        W10866   7.376   5.892   3.562 -0.2067 -0.0267 -0.0211
 7123W        W10867   8.202   2.557  11.226  0.1378  0.1177 -0.1160
 7124W        W10868   5.219   5.125   0.013 -0.2052  0.2450  0.1548
 7125W        W10869   0.281   7.897   9.531  0.1537 -0.3313 -0.3581
 7126W        W10870   4.288   6.793   2.627 -0.1151  0.1355  0.0905
 7127W        W10871   4.501   0.556   0.774 -0.3454  0.2030  0.2918
 7128W        W10872   6.569   5.788   9.964 -0.0059  0.1560 -0.2375
 7129W        W10873   7.657   4.867   1.897  0.2410  0.1097  0.3213
 7130W        W10874   7.782   6.321  10.894  0.0409  0.1278  0.0586
 7131W        W10875   5.210   1.013  12.782  0.0327  0.0417 -0.0429
 7132W        W10876   5.563   8.157   1.352 -0.2610  0.1819  0.0526
 7133W        W10877   0.245   9.831   3.428  0.2288 -0.0143  0.0626
 7134W        W10878   8.985   7.220   3.498  0.2540  0.2160 -0.0392
 7135W        W10879   0.167   2.330   8.842 -0.0308 -0.0329 -0.0973
 7136W        W10880   4.495   8.810  11.388  0.1777 -0.2677 -0.0289
 7137W        W10881   2.134   9.564   2.337  0.0159 -0.0015  0.1964
 7138W        W10882   8.704   5.174   1.556  0.1501  0.1897  0.3046
 7139W        W10883   3.187   0.887  10.335 -0.3134  0.1918 -0.1483
 7140W        W10884   9.022   8.141  10.766  0.3018 -0.1829 -0.1676
 7141W        W10885   9.344   6.397  10.076 -0.2394 -0.0046  0.0196
 7142W        W10886   7.800   3.487   4.738  0.0662  0.2128  0.2190
 7143W        W10887   8.212   5.871   4.075  0.0278  0.3016 -0.1393
 7144W        W10888   2.814   9.514   4.179  0.0493 -0.0543 -0.1259
 7145W        W10889   4.288   1.314   9.964 -0.0772 -0.0929 -0.0436
 7146W        W10890   8.740   1.748   3.351 -0.0246 -0.4415 -0.0765
 7147W        W10891   6.308   6.297   3.631  0.0100  0.1998  0.2359
 7148W        W10892   0.873   3.171  11.089  0.0782  0.0664 -0.0043
 7149W        W10893   3.573   8.568   8.304 -0.0834 -0.0624  0.1994
 7150W        W10894   6.209   3.226   9.642  0.2212  0.0146 -0.2352
 7151W        W10895   1.602   3.706   2.114 -0.2888  0.0020 -0.1451
 7152W        W10896   4.693   3.316   0.703  0.0647  0.0807 -0.0314
 7153W        W10897   2.321   3.097  10.079 -0.0075 -0.0583 -0.1585
 7154W        W10898   7.951   6.988   0.179  0.3333  0.0255 -0.0908
 7155W        W10899   9.626   6.374   0.137 -0.1558 -0.1377 -0.0596
 7156W        W10900   9.350   1.473   9.199  0.0036  0.0085 -0.1613
 7157W        W10901   8.221   7.629  10.901  0.3409 -0.0343 -0.3641
 7158W        W10902   0.391   8.893   4.394 -0.1198  0.3665  0.1132
 7159W        W10903   9.399   2.507  10.751  0.1359  0.0023  0.2311
 7160W        W10904   5.871   1.420  12.410 -0.1116  0.1282 -0.1275
 7161W        W10905   5.416   9.211   3.724 -0.0559  0.3105  0.1919
 7162W        W10906   0.349   0.382   9.809  0.1417 -0.1374 -0.1096
 7163W        W10907   9.644   6.302   0.658 -0.2179  0.0717  0.0764
 7164W        W10908   7.860   7.681  12.251  0.2643  0.0059  0.1284
 7165W        W10909   1.745   6.604   0.163 -0.0758 -0.0784  0.0687
 7166W        W10910   3.824   7.815   8.836  0.3116  0.0950 -0.1228
 7167W        W10911   2.991   8.644  10.498 -0.1384 -0.4378  0.1371
 7168W        W10912   6.544   9.115  12.558  0.2248  0.0296  0.4194
 7169W        W10913   0.748   6.831   1.608 -0.1687 -0.1365 -0.0999
 7170W        W10914   5.400   5.449   3.478  0.2408 -0.0686  0.0744
 7171W        W10915   4.827   9.579  11.928  0.1305  0.0802 -0.2330
 7172W        W10916   4.868   1.645   3.082 -0.1155 -0.2519  0.0901
 7173W        W10917   8.432   3.280  12.852  0.0967 -0.2722 -0.1441
 7174W        W10918   4.667   4.547  10.262 -0.1179  0.0690  0.1257
 7175W        W10919   1.537   3.668   1.282  0.0556  0.1323  0.5530
 7176W        W10920   1.689   1.705   0.950 -0.0518  0.0929  0.0532
 7177W        W10921   9.834   8.517   1.784  0.0730  0.1441 -0.1756
 7178W        W10922   1.892   8.296  11.712 -0.1291  0.1987  0.1494
 7179W        W10923   5.403   1.001   8.984  0.1338  0.0070 -0.0619
 7180W        W10924   5.984   9.305   8.133  0.0554  0.0383  0.1831
 7181W        W10925   6.854   7.101  12.413 -0.0846  0.0901  0.4654
 7182W        W10926   5.579   2.615   9.308 -0.0823 -0.0404  0.0289
 7183W        W10927   8.973   6.581   4.963 -0.0184 -0.1261 -0.0445
 7184W        W10928   4.265   5.467   2.971  0.1905 -0.1073 -0.1673
 7185W        W10929   4.818   5.693   9.254  0.0378  0.0689 -0.2864
 7186W        W10930   2.487   3.161   2.797  0.2197 -0.0412 -0.1579
 7187W        W10931   4.754   5.799   1.155  0.1513  0.0231 -0.1036
 7188W        W10932   5.526   1.977  10.744 -0.1842  0.1721 -0.0634
 7189W        W10933   9.227   9.200   8.858 -0.1066  0.0800  0.1027
 7190W        W10934   3.434   8.544   2.177 -0.0069  0.2446  0.2906
 7191W        W10935   9.675   0.715   1.198 -0.1415 -0.0377 -0.1646
 7192W        W10936   5.137   5.741  12.297  0.0061  0.0516  0.1971
 7193W        W10937   4.781   2.194  12.418 -0.2938  0.2040  0.1082
 7194W        W10938   4.788   3.802   9.865 -0.1757 -0.2146  0.1443
 7195W        W10939   8.494   0.808  12.115  0.5826 -0.0779  0.0010
 7196W        W10940   6.527   5.922  11.298  0.0881 -0.4064  0.0246
 7197W        W10941   6.798   1.384   9.726 -0.1989 -0.0308 -0.0648
 7198W        W10942   9.830   7.243  10.045  0.1494 -0.0415  0.4423
 7199W        W10943   3.836   8.962   2.949  0.1594 -0.3838  0.1383
 7200W        W10944   7.117   0.769  10.935 -0.0223 -0.1370 -0.2819
 7201W        W10945   4.435   0.664  10.069  0.1434  0.1889  0.0523
 7202W        W10946   4.665   6.309   1.930  0.0212 -0.2024  0.0557
 7203W        W10947   5.713   4.391  12.033  0.1339  0.2134 -0.0055
 7204W        W10948   2.889   6.426   3.656  0.0061 -0.1270  0.1065
 7205W        W10949   6.281   0.581   3.092  0.2016 -0.1613 -0.1469
 7206W        W10950   7.525   0.092   8.819  0.0814  0.1782  0.0570
 7207W        W10951   1.837   4.668   4.103  0.3253 -0.1145  0.2449
 7208W        W10952   1.412   5.428   1.808 -0.2559  0.0218  0.1751
 7209W        W10953   7.039   1.811  11.749 -0.2094  0.3569  0.0253
 7210W        W10954   4.950   8.920  11.178 -0.0824 -0.0093 -0.1544
 7211W        W10955   8.938   1.941  11.275 -0.0178 -0.0003  0.1443
 7212W        W10956   3.646   0.913   0.587 -0.1300  0.1016 -0.0102
 7213W        W10957   6.275   6.764   0.485 -0.1336 -0.3198  0.0271
 7214W        W10958   0.762   5.040   0.918  0.0818 -0.3684  0.2817
 7215W        W10959   5.647   8.851   8.954 -0.2109  0.0971  0.1591
 7216W        W10960   4.879   9.263   1.767 -0.1318  0.0627 -0.1760
 7217W        W10961   4.984   8.254   9.383  0.2152  0.1173  0.0031
 7218W        W10962   3.875   6.708  12.454 -0.0459 -0.0010  0.1110
 7219W        W10963   7.569   0.517   1.976 -0.0804 -0.1211 -0.3260
 7220W        W10964   9.046   7.729  10.149 -0.3223  0.0206 -0.0824
 7221W        W10965   0.961   6.157  11.665  0.0054  0.1573 -0.1030
 7222W        W10966   5.224   7.572  12.111 -0.0432 -0.2608  0.0745
 7223W        W10967   9.650   6.786  11.121  0.0767 -0.0169 -0.0636
 7224W        W10968   5.116   4.873   1.062  0.0666  0.0545  0.3223
 7225W        W10969   8.065   0.832   9.459  0.1200 -0.2359  0.2299
 7226W        W10970   0.472   2.567  12.480  0.3400  0.0469  0.0161
 7227W        W10971   9.142   2.898  12.564  0.2094 -0.2931 -0.0651
 7228W        W10972   2.092   0.920   4.372  0.0161  0.2618  0.1333
 7229W        W10973   0.498   0.552   9.360  0.2903  0.1910 -0.0481
 7230ION    NA+10974   8.994   5.164   8.442 -0.0602  0.0179 -0.2907
 7231ION    NA+10975   2.443   8.915   5.024  0.0905  0.2002  0.3440
 7232ION    NA+10976   6.579   9.320  10.319 -0.2097 -0.1343  0.1628
 7233ION    NA+10977   3.838   0.769   1.411 -0.1203 -0.0331 -0.1201
 7234ION    NA+10978   2.361   3.178   3.686 -0.1230 -0.0098  0.0159
 7235ION    NA+10979   3.954   8.060  10.748  0.5438  0.0849 -0.0472
 7236ION    NA+10980   2.847   7.842   0.630 -0.1401 -0.0986  0.1300
 7237ION    NA+10981   5.307   2.221   0.852 -0.1945 -0.1542 -0.0252
 7238ION    NA+10982   6.589   4.855  10.510 -0.1931 -0.0812 -0.0999
 7239ION    NA+10983   3.925   9.089   2.017 -0.2078 -0.4621  0.0402
 7240ION    NA+10984   1.598   4.524   1.142 -0.0264  0.0950  0.0901
 7241ION    NA+10985   6.999   1.394   4.796  0.2469  0.0845  0.0434
 7242ION    NA+10986   0.142   1.572  11.781  0.2543 -0.0621  0.1179
 7243ION    NA+10987   5.030   5.944   4.027  0.0138 -0.0779  0.0237
 7244ION    NA+10988   0.140   1.888   8.231  0.0593 -0.0109 -0.2631
 7245ION    NA+10989   6.387   3.003   1.979  0.1395 -0.0408 -0.2505
 7246ION    NA+10990   0.353   6.991  12.106  0.2668 -0.2645  0.3904
 7247ION    NA+10991   1.568   2.639  10.806  0.1246 -0.1914  0.1305
 7248ION    NA+10992   3.372   6.270   3.704  0.1599  0.0797  0.0396
 7249ION    NA+10993   2.936   0.160   3.718  0.0515  0.4082  0.0303
 7250ION    NA+10994   2.685   1.902   3.140 -0.1538  0.2987 -0.2217
 7251ION    NA+10995   9.839   4.782   8.535  0.0159 -0.1060 -0.1900
 7252ION    NA+10996   7.787   6.521   0.180  0.1712 -0.0339 -0.2693
 7253ION    NA+10997   5.811   3.995   2.105  0.1424 -0.1024  0.0972
 7254ION    NA+10998   6.146   5.590  12.644  0.0060 -0.0127  0.2032
 7255ION    NA+10999   8.996   0.451   9.230 -0.2174 -0.1513 -0.0846
 7256ION    NA+11000   1.577   8.574   4.177  0.1698  0.2647  0.1288
 7257ION    NA+11001   0.835   3.146  10.092 -0.0223  0.0036  0.0870
 7258ION    NA+11002   8.231   3.905   1.024  0.2530 -0.0158 -0.0880
 7259ION    NA+11003   1.804   0.008   0.093  0.0056  0.0921  0.1710
 7260ION    NA+11004   4.200   9.796   1.459 -0.3061 -0.3904 -0.1890
 7261ION    NA+11005   8.026   0.495   9.829  0.2926 -0.1004 -0.3120
 7262ION    NA+11006   0.564   4.155   3.932  0.0366 -0.2198 -0.2230
 7263ION    NA+11007   8.795   6.544  12.278  0.2677 -0.1059 -0.0621
 7264ION    NA+11008   0.585   2.446  10.770 -0.1301  0.1829  0.0430
 7265ION    NA+11009   3.882   4.338  12.314  0.0410 -0.1531  0.0685
 7266ION    NA+11010   8.545   1.921   4.379  0.0814  0.1871 -0.0484
 7267ION    NA+11011   1.550   7.116   3.447 -0.0962 -0.0574  0.1088
 7268ION    NA+11012   4.813   1.520  10.886 -0.0358 -0.3004 -0.1512
 7269ION    NA+11013   5.907   8.756  10.791 -0.0502 -0.0887 -0.2589
 7270ION    NA+11014   9.867   1.764   1.916  0.2012  0.0370  0.3711
 7271ION    NA+11015   5.892   2.675   1.271  0.1670 -0.0670 -0.1688
 7272ION    NA+11016   5.224   9.477   8.739 -0.2337  0.0480 -0.3286
 7273ION    NA+11017   2.471   4.882   9.367  0.1079  0.3017 -0.1766
 7274ION    NA+11018   9.541   9.582  12.418  0.1209  0.1097 -0.0671
 7275ION    NA+11019   6.106   4.152  11.341  0.0226 -0.1419  0.0254
 7276ION    NA+11020   0.378   8.926   0.774  0.2231  0.0771 -0.0847
 7277ION    NA+11021   3.869   5.260   0.871 -0.0945 -0.2091 -0.0287
 7278ION    NA+11022   5.764   7.504  12.814  0.0993 -0.0971  0.1515
 7279ION    NA+11023   7.703   5.739   1.940  0.2067 -0.1629  0.3302
 7280ION    NA+11024   8.200   9.504   0.118  0.0228 -0.2747  0.2011
 7281ION    NA+11025   3.688   8.572   5.094  0.1288  0.1252 -0.3089
 7282ION    NA+11026   3.536   0.001   1.957  0.3122 -0.0172  0.2114
 7283ION    NA+11027   7.238   7.953   4.387 -0.3386 -0.1087 -0.2953
 7284ION    NA+11028   5.700   6.548   8.968  0.0381  0.2863  0.1690
 7285ION    NA+11029   0.922   6.605   4.123 -0.3372 -0.0196 -0.1681
 7286ION    NA+11030   9.102   8.550   0.153 -0.4108  0.3372 -0.1308
 7287ION    NA+11031   5.700   4.541   1.809  0.1253 -0.1350  0.2751
 7288ION    NA+11032   7.931   0.657   2.875  0.0557 -0.1374  0.1073
 7289ION    NA+11033   8.788   6.878   1.597 -0.0254  0.1132 -0.0561
 7290ION    NA+11034   4.297   4.864  10.082  0.0823  0.0219  0.0652
 7291ION    NA+11035   9.274   3.291   9.182  0.5928  0.0453  0.2330
 7292ION    NA+11036   4.296   9.805  11.968  0.2884  0.0182 -0.2910
 7293ION    NA+11037   4.942   9.454   3.675  0.2762  0.1277  0.0804
 7294ION    NA+11038   1.232   1.687   8.505 -0.2085  0.0038  0.0227
 7295ION    NA+11039   7.401   8.474   1.463  0.0980  0.1496 -0.1052
 7296ION    NA+11040   3.837   3.556  11.264 -0.1728  0.1331  0.1350
 7297ION    NA+11041   4.604   1.770   9.768 -0.3501 -0.0433 -0.0654
 7298ION    NA+11042   8.923   9.048  11.839  0.0489  0.0757  0.0383
 7299ION    NA+11043   0.307   7.059   0.639 -0.2227 -0.0188  0.0240
 7300ION    NA+11044   7.371   1.662   2.940 -0.1478 -0.1477 -0.1586
 7301ION    NA+11045   7.940   9.054   1.298  0.0777  0.0770 -0.0266
 7302ION    NA+11046   7.514   7.424  12.982 -0.2290 -0.1846  0.2152
 7303ION    NA+11047   2.749   4.641   3.697  0.1782  0.0610  0.0847
 7304ION    NA+11048   0.323   4.614  10.750 -0.1021 -0.1583 -0.0080
 7305ION    NA+11049   3.350   3.200   2.824  0.1323 -0.1637 -0.0148
 7306ION    CL-11050   9.230   2.648   8.987 -0.0967  0.1303 -0.2086
 7307ION    CL-11051   7.694   1.173  11.672 -0.1508  0.2498 -0.1688
 7308ION    CL-11052   8.845   6.298  11.812 -0.0243 -0.0120  0.0257
 7309ION    CL-11053   6.707   5.355   3.786 -0.4698  0.3457 -0.0764
 7310ION    CL-11054   2.652   3.576   1.705  0.1465 -0.0179 -0.1529
 7311ION    CL-11055   3.916   5.666  11.267 -0.1224  0.0345  0.0532
 7312ION    CL-11056   8.540   1.790   3.799 -0.1750  0.2621  0.1611
 7313ION    CL-11057   7.409   8.115   2.293 -0.0722  0.2084 -0.0738
 7314ION    CL-11058   1.296   8.263   1.746 -0.1551 -0.1022 -0.0424
 7315ION    CL-11059   3.094   0.228   3.247 -0.1896 -0.1109  0.2132
 7316ION    CL-11060   6.273   6.773   9.434 -0.0994 -0.1571  0.0326
 7317ION    CL-11061   5.929   2.765   9.761 -0.2769  0.1038 -0.3612
 7318ION    CL-11062   6.014   4.957  10.389 -0.1701  0.1719 -0.2217
 7319ION    CL-11063   0.441   6.477   4.046  0.0008  0.2314  0.1395
 7320ION    CL-11064   8.444   6.935   1.945 -0.0612  0.5062  0.2362
 7321ION    CL-11065   3.179   9.748   2.319  0.0132 -0.0095  0.0002
 7322ION    CL-11066   1.258   6.767   3.641  0.0161  0.0162 -0.0882
 7323ION    CL-11067   5.446   4.320   2.230 -0.1592 -0.1578 -0.3668
 7324ION    CL-11068   5.006   2.007  12.822 -0.1905  0.4362 -0.2425
 7325ION    CL-11069   0.391   7.194   1.381 -0.1355 -0.0232 -0.1843
 7326ION    CL-11070   8.371   0.656   2.609  0.2815  0.0601 -0.1179
 7327ION    CL-11071   6.946   7.078  12.935 -0.0813  0.2385  0.0522
 7328ION    CL-11072   9.566   0.482  12.668  0.0430  0.3370  0.2088
 7329ION    CL-11073   1.731   9.718   9.266 -0.1021 -0.1837  0.0407
 7330ION    CL-11074   8.571   4.251  11.843  0.1770 -0.2920  0.0787
 7331ION    CL-11075   6.758   5.025  10.023 -0.0709 -0.3423  0.3057
 7332ION    CL-11076   7.575   8.882   1.612 -0.1314  0.0873 -0.3294
 7333ION    CL-11077   3.518   4.035  11.184  0.1849 -0.1081 -0.2142
 7334ION    CL-11078   6.038   5.136  12.424  0.0564 -0.2731 -0.4316
 7335ION    CL-11079   4.706   0.629   0.295 -0.0207  0.1202 -0.0927
 7336ION    CL-11080   7.547   6.050   1.511  0.1411  0.0637  0.0353
 7337ION    CL-11081   4.888   8.536   4.652  0.2609  0.0232  0.0935
 7338ION    CL-11082   6.576   8.399  10.632  0.0210  0.0409  0.0734
 7339ION    CL-11083   7.510   2.088   1.940  0.1302 -0.2444 -0.0606
 7340ION    CL-11084   4.134   0.185   1.948 -0.2136  0.1317  0.2174
 7341ION    CL-11085   4.786   0.536  11.640  0.2087 -0.2272 -0.4339
 7342ION    CL-11086   3.688   8.427   8.945 -0.0841 -0.1809  0.1333
 7343ION    CL-11087   3.177   1.750   3.032 -0.0792 -0.3006  0.0735
 7344ION    CL-11088   2.970   5.992   3.439 -0.0168  0.0060  0.1649
 7345ION    CL-11089   8.600   6.119  12.956  0.0886 -0.1273  0.1712
 7346ION    CL-11090   7.601   1.934   3.296  0.1183  0.0587 -0.0681
 7347ION    CL-11091   4.743   9.837   8.892  0.0138  0.1198  0.0253
 7348ION    CL-11092   6.314   9.272   9.869  0.2327  0.3790 -0.2279
 7349ION    CL-11093   8.440   7.037   0.159 -0.1985  0.1468 -0.0536
 7350ION    CL-11094   9.193   3.145   8.689  0.0275 -0.3968 -0.2164
 7351ION    CL-11095   0.433   1.725   2.086 -0.1234  0.2180 -0.0029
 7352ION    CL-11096   5.211   5.273   2.980  0.0824 -0.3396  0.2489
 7353ION    CL-11097   8.489   7.816   3.775 -0.0198  0.1740  0.0766
 7354ION    CL-11098   7.979   2.621  10.097  0.4371 -0.1491 -0.0430
 7355ION    CL-11099   6.381   8.129   1.477  0.0047 -0.1143  0.0207
 7356ION    CL-11100   3.915   5.974   1.285  0.1057  0.0741 -0.1961
 7357ION    CL-11101   9.646   9.120  12.166 -0.1905 -0.3329  0.0727
 7358ION    CL-11102   1.275   4.762   0.840 -0.1659 -0.0866 -0.0371
 7359ION    CL-11103   0.232   3.566   8.902  0.0645 -0.0668 -0.1081
 7360ION    CL-11104   8.164   3.211   3.476  0.1579  0.2005  0.3489
 7361ION    CL-11105   5.748   3.957  11.750  0.1923  0.3080  0.0128
 7362ION    CL-11106   4.662   4.852   9.793 -0.0665  0.2821  0.3166
 7363ION    CL-11107   0.636   2.903  10.590  0.0303 -0.0186  0.2321
 7364ION    CL-11108   7.116   6.343   0.609  0.1506 -0.1155  0.0322
 7365ION    CL-11109   8.906   8.924   0.474 -0.0248  0.1345  0.1765
 7366ION    CL-11110   0.126   7.510   0.369 -0.0581 -0.0797  0.0209
 7367ION    CL-11111   2.209   8.071   4.362 -0.2367 -0.1001  0.2922
 7368ION    CL-11112   2.237   9.247   3.804  0.0891 -0.0332 -0.1375
 7369ION    CL-11113   8.072   0.055  12.788  0.1387  0.1791  0.0112
 7370ION    CL-11114   8.894   9.327  11.427  0.0010  0.1017 -0.3265
 7371ION    CL-11115   5.899   4.135   1.562  0.4184  0.0160 -0.2868
 7372ION    CL-11116   0.064   0.954  11.574  0.1637 -0.0156  0.0611
 7373ION    CL-11117   3.732   4.787  12.617  0.1314 -0.1661  0.0835
 7374ION    CL-11118   3.631   2.344  10.080 -0.1259  0.0837  0.1948
 7375ION    CL-11119   2.916   1.803   9.913  0.0065 -0.2533  0.2694
 7376ION    CL-11120   6.801   4.056   3.576  0.3070 -0.4888 -0.0691
 7377ION    CL-11121   5.535   2.664   0.897  0.1440  0.3897  0.1098
 7378ION    CL-11122   4.471   3.505   2.393  0.0726 -0.2263 -0.1673
 7379ION    CL-11123   8.108   4.295   4.000  0.0640  0.2800 -0.1214
 7380ION    CL-11124   3.821   9.510   1.755  0.4114  0.3544  0.1804
 7381ION    CL-11125   0.021   4.939  10.564 -0.0986 -0.1336  0.0739
   9.89401   9.89401  12.98994
