Protein in INSANE! Membrane UpperLeaflet>POPC=1.0 LowerLeaflet>POPC=1.0
12676
    1AU     AUC    1   5.745   5.869   6.010
    1AU     AUC    2   6.007   5.874   5.854
    1AU     AUC    3   5.998   5.860   6.163
    1AU     AUC    4   5.496   5.869   5.845
    1AU     AUC    5   5.482   5.885   6.158
    1AU     AUC    6   5.593   6.126   6.011
    1AU     AUC    7   5.905   6.125   5.999
    1AU     AUC    8   5.593   5.611   6.015
    1AU     AUC    9   5.887   5.615   6.030
    1AU     AUC   10   5.736   5.717   6.270
    1AU     AUC   11   5.755   6.031   6.266
    1AU     AUC   12   5.749   5.710   5.753
    1AU     AUC   13   5.736   6.013   5.752
    1AU     AUC   14   6.258   5.873   5.691
    1AU     AUC   15   6.263   5.874   6.004
    1AU     AUC   16   6.253   5.862   6.314
    1AU     AUC   17   5.238   5.857   5.686
    1AU     AUC   18   5.227   5.879   5.993
    1AU     AUC   19   5.233   5.896   6.315
    1AU     AUC   20   5.448   6.391   6.016
    1AU     AUC   21   5.759   6.392   6.009
    1AU     AUC   22   6.054   6.387   6.006
    1AU     AUC   23   5.420   5.356   6.017
    1AU     AUC   24   5.733   5.347   6.008
    1AU     AUC   25   6.044   5.352   6.037
    1AU     AUC   26   5.718   5.563   6.520
    1AU     AUC   27   5.741   5.873   6.537
    1AU     AUC   28   5.759   6.183   6.528
    1AU     AUC   29   5.759   5.543   5.504
    1AU     AUC   30   5.754   5.858   5.490
    1AU     AUC   31   5.735   6.169   5.489
    1AU     AUC   32   6.006   5.720   6.437
    1AU     AUC   33   6.008   6.012   6.432
    1AU     AUC   34   6.020   5.709   5.594
    1AU     AUC   35   6.017   6.014   5.584
    1AU     AUC   36   5.471   5.732   6.431
    1AU     AUC   37   5.491   6.042   6.435
    1AU     AUC   38   5.501   5.711   5.575
    1AU     AUC   39   5.482   6.016   5.587
    1AU     AUC   40   6.162   6.136   5.837
    1AU     AUC   41   6.172   6.114   6.155
    1AU     AUC   42   5.326   6.126   5.858
    1AU     AUC   43   5.335   6.144   6.176
    1AU     AUC   44   6.162   5.610   5.864
    1AU     AUC   45   6.159   5.609   6.182
    1AU     AUC   46   5.328   5.613   5.841
    1AU     AUC   47   5.325   5.624   6.182
    1AU     AUC   48   5.595   6.287   6.281
    1AU     AUC   49   5.914   6.295   6.253
    1AU     AUC   50   5.568   5.445   6.260
    1AU     AUC   51   5.884   5.457   6.293
    1AU     AUC   52   5.586   6.283   5.751
    1AU     AUC   53   5.903   6.277   5.739
    1AU     AUC   54   5.583   5.463   5.746
    1AU     AUC   55   5.910   5.446   5.773
    1AU    AUSL   56   6.084   5.817   6.619
    1AU    AUSL   57   6.044   5.393   6.643
    1AU     AUL   58   6.281   5.477   6.904
    1AU       S   59   6.312   5.118   6.586
    1AU     LIG   60   6.191   4.862   6.919
    1AU     LIG   61   6.340   4.496   7.147
    1AU     LIG   62   6.586   4.214   7.439
    1AU     LIG   63   6.670   3.965   7.842
    1AU     LIG   64   6.699   3.810   8.300
    1AU     LIG   65   6.905   3.616   8.678
    1AU       S   66   6.128   5.823   7.159
    1AU     LIG   67   6.377   5.542   7.412
    1AU     LIG   68   6.606   5.407   7.809
    1AU     LIG   69   6.956   5.465   8.133
    1AU     LIG   70   7.345   5.463   8.414
    1AU     LIG   71   7.684   5.613   8.703
    1AU     LIG   72   7.916   5.571   9.105
    1AU    AUSL   73   5.800   5.646   6.863
    1AU    AUSL   74   5.676   6.039   6.793
    1AU     AUL   75   5.718   5.992   7.210
    1AU       S   76   5.880   5.634   7.018
    1AU     LIG   77   5.971   5.252   7.234
    1AU     LIG   78   6.183   5.114   7.665
    1AU     LIG   79   6.272   4.976   8.142
    1AU     LIG   80   6.281   4.774   8.605
    1AU     LIG   81   6.396   4.656   9.066
    1AU     LIG   82   6.516   4.806   9.506
    1AU       S   83   5.368   5.734   7.131
    1AU     LIG   84   5.229   5.673   7.589
    1AU     LIG   85   5.041   5.611   8.025
    1AU     LIG   86   5.001   5.744   8.481
    1AU     LIG   87   5.075   6.037   8.864
    1AU     LIG   88   4.966   6.287   9.255
    1AU     LIG   89   4.704   6.476   9.607
    1AU    AUSL   90   6.050   6.181   6.798
    1AU    AUSL   91   6.389   6.064   6.490
    1AU     AUL   92   6.379   5.913   6.803
    1AU       S   93   6.074   6.187   7.005
    1AU     LIG   94   6.408   6.216   7.315
    1AU     LIG   95   6.517   6.443   7.745
    1AU     LIG   96   6.513   6.648   8.203
    1AU     LIG   97   6.547   6.813   8.683
    1AU     LIG   98   6.656   6.876   9.168
    1AU     LIG   99   6.615   6.821   9.648
    1AU       S  100   6.684   6.125   6.539
    1AU     LIG  101   6.840   6.099   6.977
    1AU     LIG  102   7.134   6.334   7.257
    1AU     LIG  103   7.440   6.640   7.477
    1AU     LIG  104   7.728   6.778   7.849
    1AU     LIG  105   8.143   6.838   8.116
    1AU     LIG  106   8.558   6.945   8.356
    1AU    AUSL  107   6.260   5.913   5.384
    1AU    AUSL  108   6.056   6.301   5.345
    1AU     AUL  109   6.277   6.147   5.078
    1AU       S  110   6.289   5.714   4.864
    1AU     LIG  111   6.656   5.533   4.766
    1AU     LIG  112   6.715   5.424   4.318
    1AU     LIG  113   6.870   5.398   3.873
    1AU     LIG  114   7.290   5.487   3.638
    1AU     LIG  115   7.642   5.676   3.368
    1AU     LIG  116   7.769   5.733   2.906
    1AU       S  117   6.487   6.526   5.231
    1AU     LIG  118   6.735   6.520   4.873
    1AU     LIG  119   6.988   6.736   4.543
    1AU     LIG  120   7.143   6.863   4.129
    1AU     LIG  121   7.287   7.164   3.811
    1AU     LIG  122   7.508   7.554   3.698
    1AU     LIG  123   7.494   8.008   3.555
    1AU    AUSL  124   6.018   5.606   5.228
    1AU    AUSL  125   6.371   5.547   5.519
    1AU     AUL  126   6.479   5.720   5.271
    1AU       S  127   6.447   5.250   5.311
    1AU     LIG  128   6.600   4.980   4.964
    1AU     LIG  129   6.821   4.593   4.785
    1AU     LIG  130   7.064   4.340   4.449
    1AU     LIG  131   7.470   4.352   4.172
    1AU     LIG  132   7.834   4.465   3.871
    1AU     LIG  133   8.204   4.299   3.613
    1AU       S  134   6.171   5.496   4.983
    1AU     LIG  135   6.274   5.231   4.621
    1AU     LIG  136   6.335   5.120   4.160
    1AU     LIG  137   6.399   5.141   3.689
    1AU     LIG  138   6.325   4.980   3.234
    1AU     LIG  139   6.401   4.979   2.759
    1AU     LIG  140   6.627   4.989   2.331
    1AU    AUSL  141   5.857   5.959   5.412
    1AU    AUSL  142   5.625   5.712   5.173
    1AU     AUL  143   5.896   5.906   5.017
    1AU       S  144   5.291   5.781   4.881
    1AU     LIG  145   5.413   5.399   4.630
    1AU     LIG  146   5.299   5.245   4.199
    1AU     LIG  147   5.104   5.059   3.795
    1AU     LIG  148   4.988   4.851   3.361
    1AU     LIG  149   4.843   4.901   2.898
    1AU     LIG  150   4.695   5.127   2.487
    1AU       S  151   6.015   5.478   5.089
    1AU     LIG  152   5.881   5.590   4.607
    1AU     LIG  153   6.216   5.618   4.248
    1AU     LIG  154   6.414   5.655   3.793
    1AU     LIG  155   6.506   5.845   3.333
    1AU     LIG  156   6.707   6.142   2.985
    1AU     LIG  157   6.823   6.376   2.582
    1AU    AUSL  158   5.292   5.929   6.720
    1AU    AUSL  159   5.434   6.331   6.643
    1AU     AUL  160   5.493   6.271   6.943
    1AU       S  161   5.230   5.932   7.139
    1AU     LIG  162   4.885   5.609   7.204
    1AU     LIG  163   4.739   5.429   7.638
    1AU     LIG  164   4.563   5.371   8.109
    1AU     LIG  165   4.248   5.317   8.508
    1AU     LIG  166   4.016   5.451   8.934
    1AU     LIG  167   3.670   5.724   9.181
    1AU       S  168   5.043   6.309   6.868
    1AU     LIG  169   5.078   6.613   7.236
    1AU     LIG  170   5.006   6.918   7.592
    1AU     LIG  171   4.835   6.982   8.027
    1AU     LIG  172   4.743   7.207   8.435
    1AU     LIG  173   4.575   7.587   8.673
    1AU     LIG  174   4.338   8.010   8.706
    1AU    AUSL  175   5.591   5.728   6.528
    1AU    AUSL  176   5.090   5.652   6.499
    1AU     AUL  177   5.098   5.761   6.741
    1AU       S  178   4.907   5.340   6.734
    1AU     LIG  179   4.502   5.144   6.567
    1AU     LIG  180   4.095   4.911   6.652
    1AU     LIG  181   3.910   4.639   7.007
    1AU     LIG  182   3.738   4.355   7.349
    1AU     LIG  183   3.499   4.126   7.682
    1AU     LIG  184   3.185   4.215   8.036
    1AU       S  185   5.396   5.627   7.080
    1AU     LIG  186   5.244   5.251   7.297
    1AU     LIG  187   5.166   5.167   7.760
    1AU     LIG  188   5.010   5.118   8.210
    1AU     LIG  189   4.861   4.886   8.603
    1AU     LIG  190   4.836   4.740   9.058
    1AU     LIG  191   4.730   4.917   9.478
    1AU    AUSL  192   5.329   5.835   5.418
    1AU    AUSL  193   5.515   5.425   5.438
    1AU     AUL  194   5.473   5.456   5.127
    1AU       S  195   5.090   5.694   5.099
    1AU     LIG  196   4.924   5.441   4.756
    1AU     LIG  197   4.819   5.409   4.293
    1AU     LIG  198   4.653   5.317   3.843
    1AU     LIG  199   4.330   5.137   3.509
    1AU     LIG  200   4.005   5.175   3.145
    1AU     LIG  201   3.827   5.515   2.852
    1AU       S  202   5.079   5.177   5.231
    1AU     LIG  203   4.789   4.804   5.225
    1AU     LIG  204   4.421   4.561   5.085
    1AU     LIG  205   4.175   4.312   4.759
    1AU     LIG  206   4.224   4.109   4.312
    1AU     LIG  207   4.309   3.827   3.918
    1AU     LIG  208   4.158   3.488   3.614
    1AU    AUSL  209   5.560   6.138   5.193
    1AU    AUSL  210   5.095   6.163   5.484
    1AU     AUL  211   5.204   6.116   5.191
    1AU       S  212   4.943   6.483   5.275
    1AU     LIG  213   4.644   6.572   4.929
    1AU     LIG  214   4.519   6.691   4.481
    1AU     LIG  215   4.408   6.872   4.053
    1AU     LIG  216   4.095   7.024   3.740
    1AU     LIG  217   3.642   7.135   3.721
    1AU     LIG  218   3.425   7.531   3.633
    1AU       S  219   5.451   5.887   4.880
    1AU     LIG  220   5.205   5.798   4.403
    1AU     LIG  221   5.104   5.667   3.949
    1AU     LIG  222   5.057   5.834   3.506
    1AU     LIG  223   5.158   6.113   3.123
    1AU     LIG  224   5.117   6.259   2.669
    1AU     LIG  225   4.892   6.308   2.257
    1AU    AUSL  226   6.362   6.476   5.945
    1AU    AUSL  227   6.391   6.236   5.596
    1AU     AUL  228   6.476   6.690   5.711
    1AU       S  229   6.632   6.233   5.382
    1AU     LIG  230   6.989   6.171   5.148
    1AU     LIG  231   7.225   6.335   4.765
    1AU     LIG  232   7.468   6.542   4.400
    1AU     LIG  233   7.897   6.552   4.166
    1AU     LIG  234   8.272   6.791   3.989
    1AU     LIG  235   8.449   7.029   3.596
    1AU       S  236   6.809   6.392   5.868
    1AU     LIG  237   7.312   6.405   5.981
    1AU     LIG  238   7.825   6.475   5.992
    1AU     LIG  239   8.318   6.576   5.991
    1AU     LIG  240   8.730   6.882   6.009
    1AU     LIG  241   9.004   7.309   6.000
    1AU     LIG  242   9.218   7.716   6.175
    1AU    AUSL  243   6.583   5.925   5.762
    1AU    AUSL  244   6.582   5.760   6.171
    1AU     AUL  245   6.877   5.713   5.932
    1AU       S  246   6.780   6.154   5.849
    1AU     LIG  247   7.167   6.056   5.645
    1AU     LIG  248   7.674   6.081   5.698
    1AU     LIG  249   8.196   6.130   5.713
    1AU     LIG  250   8.713   6.093   5.667
    1AU     LIG  251   9.179   6.281   5.664
    1AU     LIG  252   9.537   6.600   5.494
    1AU       S  253   6.889   5.308   6.167
    1AU     LIG  254   7.288   5.080   6.209
    1AU     LIG  255   7.697   4.840   6.225
    1AU     LIG  256   8.081   4.581   6.258
    1AU     LIG  257   8.503   4.414   6.220
    1AU     LIG  258   8.874   4.336   6.472
    1AU     LIG  259   9.203   4.413   6.814
    1AU    AUSL  260   6.366   6.090   6.084
    1AU    AUSL  261   6.264   6.431   6.343
    1AU     AUL  262   6.517   6.427   6.224
    1AU       S  263   6.531   6.336   6.655
    1AU     LIG  264   6.954   6.533   6.687
    1AU     LIG  265   7.174   6.794   7.029
    1AU     LIG  266   7.385   7.140   7.290
    1AU     LIG  267   7.605   7.586   7.285
    1AU     LIG  268   7.844   8.015   7.332
    1AU     LIG  269   8.091   8.384   7.529
    1AU       S  270   6.841   6.161   6.076
    1AU     LIG  271   7.183   5.978   6.253
    1AU     LIG  272   7.661   6.038   6.220
    1AU     LIG  273   8.148   6.116   6.219
    1AU     LIG  274   8.632   6.188   6.162
    1AU     LIG  275   9.105   6.329   6.177
    1AU     LIG  276   9.458   6.579   6.401
    1AU    AUSL  277   5.080   6.412   6.091
    1AU    AUSL  278   5.132   6.154   6.424
    1AU     AUL  279   5.079   6.602   6.354
    1AU       S  280   4.920   6.225   6.633
    1AU     LIG  281   4.613   6.429   7.040
    1AU     LIG  282   4.589   6.628   7.489
    1AU     LIG  283   4.386   6.732   7.937
    1AU     LIG  284   4.034   6.809   8.287
    1AU     LIG  285   3.600   7.016   8.422
    1AU     LIG  286   3.208   7.283   8.547
    1AU       S  287   4.728   6.428   6.133
    1AU     LIG  288   4.627   6.883   6.165
    1AU     LIG  289   4.331   7.306   6.131
    1AU     LIG  290   3.977   7.659   6.125
    1AU     LIG  291   3.543   7.884   6.039
    1AU     LIG  292   3.116   8.124   6.134
    1AU     LIG  293   2.711   8.152   6.427
    1AU    AUSL  294   5.163   6.082   5.869
    1AU    AUSL  295   5.254   6.503   5.729
    1AU     AUL  296   4.977   6.412   5.735
    1AU       S  297   4.591   6.377   5.974
    1AU     LIG  298   4.524   6.657   5.547
    1AU     LIG  299   4.122   6.938   5.350
    1AU     LIG  300   3.603   6.978   5.300
    1AU     LIG  301   3.077   6.936   5.246
    1AU     LIG  302   2.589   6.756   5.208
    1AU     LIG  303   2.120   6.899   5.095
    1AU       S  304   5.068   6.724   5.399
    1AU     LIG  305   4.947   6.967   5.024
    1AU     LIG  306   4.802   7.300   4.736
    1AU     LIG  307   4.525   7.651   4.794
    1AU     LIG  308   4.389   8.065   4.623
    1AU     LIG  309   4.064   8.344   4.438
    1AU     LIG  310   3.820   8.714   4.262
    1AU    AUSL  311   4.885   5.987   6.161
    1AU    AUSL  312   4.935   5.755   5.796
    1AU     AUL  313   4.767   6.011   5.781
    1AU       S  314   4.593   5.557   5.930
    1AU     LIG  315   4.228   5.456   6.257
    1AU     LIG  316   3.758   5.325   6.353
    1AU     LIG  317   3.301   5.178   6.245
    1AU     LIG  318   2.902   5.024   5.947
    1AU     LIG  319   2.403   5.012   5.903
    1AU     LIG  320   1.997   4.925   5.647
    1AU       S  321   4.666   6.084   6.245
    1AU     LIG  322   4.480   6.461   6.544
    1AU     LIG  323   4.054   6.647   6.692
    1AU     LIG  324   3.554   6.715   6.717
    1AU     LIG  325   3.059   6.793   6.670
    1AU     LIG  326   2.643   7.040   6.730
    1AU     LIG  327   2.201   6.901   6.816
    1AU    AUSL  328   6.435   5.366   6.096
    1AU    AUSL  329   6.373   5.582   6.466
    1AU     AUL  330   6.690   5.623   6.431
    1AU       S  331   6.585   5.099   6.053
    1AU     LIG  332   6.836   4.804   6.275
    1AU     LIG  333   7.245   4.564   6.158
    1AU     LIG  334   7.669   4.363   6.007
    1AU     LIG  335   8.118   4.156   5.965
    1AU     LIG  336   8.474   3.896   6.173
    1AU     LIG  337   8.854   3.816   6.496
    1AU       S  338   6.446   5.243   6.554
    1AU     LIG  339   6.698   4.869   6.790
    1AU     LIG  340   6.861   4.559   7.138
    1AU     LIG  341   7.104   4.297   7.471
    1AU     LIG  342   7.460   4.224   7.799
    1AU     LIG  343   7.798   4.263   8.155
    1AU     LIG  344   8.232   4.260   8.379
    1AU    AUSL  345   6.287   5.688   5.888
    1AU    AUSL  346   6.222   5.241   5.770
    1AU     AUL  347   6.564   5.445   5.721
    1AU       S  348   6.645   5.277   6.118
    1AU     LIG  349   6.992   5.005   5.792
    1AU     LIG  350   7.470   4.823   5.765
    1AU     LIG  351   7.970   4.710   5.773
    1AU     LIG  352   8.419   4.502   5.710
    1AU     LIG  353   8.834   4.420   5.493
    1AU     LIG  354   9.209   4.688   5.538
    1AU       S  355   6.453   5.035   5.528
    1AU     LIG  356   6.382   4.632   5.298
    1AU     LIG  357   6.574   4.233   5.077
    1AU     LIG  358   6.813   3.828   4.891
    1AU     LIG  359   7.050   3.364   4.861
    1AU     LIG  360   7.473   3.125   4.763
    1AU     LIG  361   7.963   3.124   4.663
    1AU    AUSL  362   5.041   5.371   5.960
    1AU    AUSL  363   5.133   5.506   5.550
    1AU     AUL  364   4.839   5.592   5.533
    1AU       S  365   5.010   5.176   5.494
    1AU     LIG  366   4.544   5.176   5.486
    1AU     LIG  367   4.212   5.033   5.223
    1AU     LIG  368   3.976   4.774   4.932
    1AU     LIG  369   3.706   4.525   4.651
    1AU     LIG  370   3.420   4.450   4.276
    1AU     LIG  371   3.150   4.440   3.876
    1AU       S  372   4.745   5.347   5.906
    1AU     LIG  373   4.413   5.068   5.987
    1AU     LIG  374   3.986   5.010   6.027
    1AU     LIG  375   3.644   4.801   6.260
    1AU     LIG  376   3.174   4.665   6.201
    1AU     LIG  377   2.744   4.443   6.075
    1AU     LIG  378   2.511   4.032   5.938
    1AU    AUSL  379   5.190   5.726   6.122
    1AU    AUSL  380   5.278   5.339   6.300
    1AU     AUL  381   4.913   5.494   6.298
    1AU       S  382   5.006   5.147   6.574
    1AU     LIG  383   4.844   4.952   6.233
    1AU     LIG  384   4.432   4.675   6.333
    1AU     LIG  385   4.137   4.378   6.628
    1AU     LIG  386   3.857   4.080   6.932
    1AU     LIG  387   3.663   3.739   7.248
    1AU     LIG  388   3.555   3.254   7.341
    1AU       S  389   4.635   5.621   5.975
    1AU     LIG  390   4.156   5.444   5.752
    1AU     LIG  391   3.669   5.390   5.839
    1AU     LIG  392   3.176   5.468   5.859
    1AU     LIG  393   2.852   5.422   6.237
    1AU     LIG  394   2.375   5.368   6.318
    1AU     LIG  395   1.946   5.244   6.509
    1AU    AUSL  396   5.770   6.534   6.533
    1AU    AUSL  397   5.451   6.333   6.238
    1AU     AUL  398   5.467   6.638   6.613
    1AU       S  399   5.095   6.435   6.770
    1AU     LIG  400   4.871   6.806   6.793
    1AU     LIG  401   4.801   7.115   7.152
    1AU     LIG  402   4.717   7.549   7.378
    1AU     LIG  403   4.600   8.034   7.400
    1AU     LIG  404   4.330   8.421   7.493
    1AU     LIG  405   3.902   8.548   7.650
    1AU       S  406   5.827   6.929   6.534
    1AU     LIG  407   6.036   7.111   6.860
    1AU     LIG  408   6.079   7.555   6.998
    1AU     LIG  409   6.106   7.867   7.363
    1AU     LIG  410   6.067   8.139   7.766
    1AU     LIG  411   5.917   8.461   8.096
    1AU     LIG  412   5.869   8.902   8.268
    1AU    AUSL  413   5.533   6.718   6.178
    1AU    AUSL  414   5.981   6.699   5.775
    1AU     AUL  415   5.649   6.964   5.948
    1AU       S  416   5.733   6.997   6.389
    1AU     LIG  417   5.839   7.449   6.513
    1AU     LIG  418   5.712   7.851   6.723
    1AU     LIG  419   5.501   8.268   6.809
    1AU     LIG  420   5.386   8.730   6.903
    1AU     LIG  421   5.341   9.210   7.052
    1AU     LIG  422   5.163   9.657   7.096
    1AU       S  423   6.046   6.968   5.692
    1AU     LIG  424   6.384   7.223   5.538
    1AU     LIG  425   6.455   7.671   5.345
    1AU     LIG  426   6.730   8.102   5.291
    1AU     LIG  427   6.845   8.589   5.247
    1AU     LIG  428   6.884   9.071   5.209
    1AU     LIG  429   6.853   9.535   5.106
    1AU    AUSL  430   5.934   6.574   6.159
    1AU    AUSL  431   5.945   6.190   6.416
    1AU     AUL  432   6.099   6.572   6.562
    1AU       S  433   6.465   6.366   6.756
    1AU     LIG  434   6.688   6.587   7.118
    1AU     LIG  435   6.928   6.743   7.503
    1AU     LIG  436   7.202   6.895   7.872
    1AU     LIG  437   7.269   7.120   8.301
    1AU     LIG  438   7.293   7.528   8.573
    1AU     LIG  439   7.441   7.856   8.902
    1AU       S  440   6.019   6.878   6.227
    1AU     LIG  441   6.288   7.217   6.425
    1AU     LIG  442   6.404   7.686   6.596
    1AU     LIG  443   6.687   8.130   6.660
    1AU     LIG  444   6.846   8.622   6.711
    1AU     LIG  445   6.692   9.080   6.671
    1AU     LIG  446   6.785   9.547   6.773
    1AU    AUSL  447   5.709   5.292   6.433
    1AU    AUSL  448   6.063   5.428   6.238
    1AU     AUL  449   5.882   5.180   6.693
    1AU       S  450   5.784   4.762   6.541
    1AU     LIG  451   5.809   4.356   6.716
    1AU     LIG  452   5.462   4.064   6.755
    1AU     LIG  453   5.353   3.626   6.846
    1AU     LIG  454   5.347   3.299   7.194
    1AU     LIG  455   5.378   3.116   7.644
    1AU     LIG  456   5.450   2.808   8.005
    1AU       S  457   6.340   5.071   6.454
    1AU     LIG  458   6.357   4.611   6.496
    1AU     LIG  459   6.621   4.303   6.759
    1AU     LIG  460   6.905   4.027   7.064
    1AU     LIG  461   7.221   3.675   7.253
    1AU     LIG  462   7.524   3.269   7.341
    1AU     LIG  463   7.929   2.994   7.382
    1AU    AUSL  464   5.536   5.067   6.143
    1AU    AUSL  465   5.416   5.410   6.690
    1AU     AUL  466   5.446   5.078   6.504
    1AU       S  467   5.575   4.662   6.391
    1AU     LIG  468   5.401   4.269   6.242
    1AU     LIG  469   5.239   3.827   6.350
    1AU     LIG  470   5.031   3.418   6.487
    1AU     LIG  471   4.753   3.026   6.523
    1AU     LIG  472   4.600   2.664   6.783
    1AU     LIG  473   4.649   2.236   6.914
    1AU       S  474   5.159   5.282   6.794
    1AU     LIG  475   4.853   4.915   6.982
    1AU     LIG  476   4.457   4.643   6.947
    1AU     LIG  477   4.245   4.285   7.191
    1AU     LIG  478   4.047   3.975   7.507
    1AU     LIG  479   4.031   3.712   7.909
    1AU     LIG  480   4.036   3.639   8.381
    1AU    AUSL  481   5.969   5.038   6.203
    1AU    AUSL  482   5.495   5.063   5.736
    1AU     AUL  483   5.705   4.813   5.987
    1AU       S  484   5.421   4.721   5.628
    1AU     LIG  485   5.284   4.287   5.707
    1AU     LIG  486   5.174   3.819   5.665
    1AU     LIG  487   5.006   3.420   5.457
    1AU     LIG  488   4.768   2.999   5.383
    1AU     LIG  489   4.675   2.528   5.287
    1AU     LIG  490   4.699   2.169   4.973
    1AU       S  491   5.911   4.834   6.381
    1AU     LIG  492   5.927   4.369   6.212
    1AU     LIG  493   5.761   3.920   6.359
    1AU     LIG  494   5.705   3.441   6.487
    1AU     LIG  495   5.936   2.983   6.517
    1AU     LIG  496   6.127   2.568   6.715
    1AU     LIG  497   6.273   2.168   6.930
    1AU    AUSL  498   5.731   6.516   5.462
    1AU    AUSL  499   6.040   6.301   5.773
    1AU     AUL  500   6.093   6.575   5.457
    1AU       S  501   5.774   6.875   5.323
    1AU     LIG  502   6.162   6.994   5.139
    1AU     LIG  503   6.216   7.424   4.937
    1AU     LIG  504   6.115   7.710   4.558
    1AU     LIG  505   6.085   8.057   4.229
    1AU     LIG  506   6.051   8.463   4.004
    1AU     LIG  507   5.984   8.784   3.674
    1AU       S  508   6.502   6.314   5.473
    1AU     LIG  509   6.934   6.610   5.426
    1AU     LIG  510   7.163   6.775   5.040
    1AU     LIG  511   7.362   7.077   4.716
    1AU     LIG  512   7.575   7.526   4.659
    1AU     LIG  513   7.758   7.974   4.551
    1AU     LIG  514   7.842   8.400   4.317
    1AU    AUSL  515   5.637   6.489   5.863
    1AU    AUSL  516   5.496   6.211   5.580
    1AU     AUL  517   5.473   6.691   5.622
    1AU       S  518   5.857   6.961   5.554
    1AU     LIG  519   5.930   7.402   5.379
    1AU     LIG  520   5.952   7.849   5.168
    1AU     LIG  521   5.764   8.314   5.068
    1AU     LIG  522   5.455   8.717   4.980
    1AU     LIG  523   5.421   9.201   4.848
    1AU     LIG  524   5.010   9.406   4.731
    1AU       S  525   5.294   6.554   5.234
    1AU     LIG  526   5.154   6.541   4.808
    1AU     LIG  527   4.996   6.865   4.487
    1AU     LIG  528   4.912   6.999   4.024
    1AU     LIG  529   4.906   7.305   3.650
    1AU     LIG  530   4.624   7.638   3.451
    1AU     LIG  531   4.279   7.855   3.189
    1AU    AUSL  532   5.832   5.177   5.472
    1AU    AUSL  533   5.420   5.440   5.842
    1AU     AUL  534   5.468   5.146   5.460
    1AU       S  535   5.045   5.052   5.630
    1AU     LIG  536   4.730   4.767   5.740
    1AU     LIG  537   4.286   4.679   5.585
    1AU     LIG  538   3.978   4.405   5.294
    1AU     LIG  539   3.725   4.111   4.996
    1AU     LIG  540   3.445   3.696   4.918
    1AU     LIG  541   3.263   3.338   4.653
    1AU       S  542   5.745   4.801   5.383
    1AU     LIG  543   5.420   4.510   5.182
    1AU     LIG  544   5.290   4.073   5.226
    1AU     LIG  545   5.372   3.626   5.138
    1AU     LIG  546   5.364   3.325   4.752
    1AU     LIG  547   5.351   3.151   4.290
    1AU     LIG  548   5.459   2.848   3.932
    1AU    AUSL  549   5.831   5.243   5.886
    1AU    AUSL  550   5.962   5.528   5.611
    1AU     AUL  551   6.021   5.021   5.691
    1AU       S  552   5.672   4.743   5.552
    1AU     LIG  553   5.788   4.341   5.684
    1AU     LIG  554   5.670   3.898   5.546
    1AU     LIG  555   5.753   3.425   5.460
    1AU     LIG  556   6.062   3.034   5.450
    1AU     LIG  557   6.273   2.619   5.331
    1AU     LIG  558   6.482   2.239   5.116
    1AU       S  559   6.263   5.144   5.315
    1AU     LIG  560   6.079   4.944   5.011
    1AU     LIG  561   6.297   4.580   4.774
    1AU     LIG  562   6.547   4.216   4.554
    1AU     LIG  563   6.742   3.992   4.179
    1AU     LIG  564   6.923   3.742   3.819
    1AU     LIG  565   7.205   3.588   3.480
    2POPC   NC3  566   1.425   2.496   7.918
    2POPC   PO4  567   1.122   3.061   8.143
    2POPC   GL1  568   1.228   2.963   7.729
    2POPC   GL2  569   0.897   2.815   7.687
    2POPC   C1A  570   1.268   2.710   7.325
    2POPC   D2A  571   1.477   2.698   6.955
    2POPC   C3A  572   1.353   2.744   6.550
    2POPC   C4A  573   1.654   2.979   6.307
    2POPC   C1B  574   0.911   3.067   7.301
    2POPC   C2B  575   1.026   3.024   6.875
    2POPC   C3B  576   0.858   2.882   6.483
    2POPC   C4B  577   1.109   2.779   6.102
    3POPC   NC3  578   2.699   2.014   8.118
    3POPC   PO4  579   3.199   2.302   7.791
    3POPC   GL1  580   2.997   1.966   7.649
    3POPC   GL2  581   2.657   1.798   7.658
    3POPC   C1A  582   2.958   1.910   7.232
    3POPC   D2A  583   3.197   1.881   6.879
    3POPC   C3A  584   2.997   1.905   6.517
    3POPC   C4A  585   3.057   1.956   6.110
    3POPC   C1B  586   2.492   2.078   7.328
    3POPC   C2B  587   2.568   2.054   6.875
    3POPC   C3B  588   2.500   2.042   6.439
    3POPC   C4B  589   2.603   2.152   6.005
    4POPC   NC3  590   8.553   5.233   8.197
    4POPC   PO4  591   9.051   5.469   8.269
    4POPC   GL1  592   8.936   5.280   7.829
    4POPC   GL2  593   8.968   4.920   7.699
    4POPC   C1A  594   8.964   5.287   7.333
    4POPC   D2A  595   9.205   5.181   6.918
    4POPC   C3A  596   9.071   5.238   6.458
    4POPC   C4A  597   8.810   5.292   6.068
    4POPC   C1B  598   9.001   4.783   7.213
    4POPC   C2B  599   8.880   4.815   6.745
    4POPC   C3B  600   8.842   4.811   6.293
    4POPC   C4B  601   8.931   4.530   5.970
    5POPC   NC3  602   1.424   0.488   8.074
    5POPC   PO4  603   0.850   0.792   7.977
    5POPC   GL1  604   0.997   0.384   7.743
    5POPC   GL2  605   1.277   0.107   7.780
    5POPC   C1A  606   0.916   0.314   7.299
    5POPC   D2A  607   0.830   0.508   6.906
    5POPC   C3A  608   0.840   0.185   6.607
    5POPC   C4A  609   0.862  11.496   6.229
    5POPC   C1B  610   1.427   0.350   7.408
    5POPC   C2B  611   1.344   0.550   6.987
    5POPC   C3B  612   1.234   0.498   6.543
    5POPC   C4B  613   1.276   0.281   6.162
    6POPC   NC3  614   8.001   2.502   7.982
    6POPC   PO4  615   7.618   3.067   7.989
    6POPC   GL1  616   7.535   2.758   7.650
    6POPC   GL2  617   7.197   2.639   7.727
    6POPC   C1A  618   7.524   2.730   7.175
    6POPC   D2A  619   7.380   2.858   6.736
    6POPC   C3A  620   7.595   2.763   6.325
    6POPC   C4A  621   7.640   2.897   5.874
    6POPC   C1B  622   7.180   2.402   7.365
    6POPC   C2B  623   7.178   2.406   6.912
    6POPC   C3B  624   7.101   2.505   6.463
    6POPC   C4B  625   7.268   2.472   6.045
    7POPC   NC3  626   2.139   5.685   8.152
    7POPC   PO4  627   1.669   6.098   8.068
    7POPC   GL1  628   1.671   5.927   7.672
    7POPC   GL2  629   2.022   5.914   7.662
    7POPC   C1A  630   1.635   6.108   7.251
    7POPC   D2A  631   1.843   6.050   6.869
    7POPC   C3A  632   1.679   6.060   6.453
    7POPC   C4A  633   1.739   5.685   6.237
    7POPC   C1B  634   1.895   5.673   7.287
    7POPC   C2B  635   2.052   5.590   6.875
    7POPC   C3B  636   2.139   5.821   6.500
    7POPC   C4B  637   2.203   5.773   6.049
    8POPC   NC3  638   0.381   5.539   8.224
    8POPC   PO4  639   0.024   5.014   8.112
    8POPC   GL1  640   0.241   4.961   7.796
    8POPC   GL2  641   0.529   5.140   7.866
    8POPC   C1A  642   0.112   4.815   7.377
    8POPC   D2A  643   0.185   4.621   6.968
    8POPC   C3A  644   0.014   4.783   6.600
    8POPC   C4A  645   0.210   4.853   6.234
    8POPC   C1B  646   0.557   5.102   7.436
    8POPC   C2B  647   0.481   5.022   7.020
    8POPC   C3B  648   0.437   5.154   6.566
    8POPC   C4B  649   0.627   5.142   6.146
    9POPC   NC3  650  11.172   5.304   8.114
    9POPC   PO4  651  11.132   4.649   8.328
    9POPC   GL1  652  11.131   4.785   7.849
    9POPC   GL2  653  11.266   5.103   7.682
    9POPC   C1A  654  11.081   4.783   7.378
    9POPC   D2A  655  11.027   5.072   6.997
    9POPC   C3A  656  10.995   4.930   6.592
    9POPC   C4A  657  11.076   4.830   6.182
    9POPC   C1B  658  11.377   5.268   7.310
    9POPC   C2B  659   0.031   5.208   6.878
    9POPC   C3B  660  11.413   5.257   6.390
    9POPC   C4B  661  11.182   5.294   5.957
   10POPC   NC3  662  11.345   8.096   7.992
   10POPC   PO4  663  10.661   8.335   8.078
   10POPC   GL1  664  10.957   8.305   7.697
   10POPC   GL2  665  11.311   8.409   7.596
   10POPC   C1A  666  10.834   8.389   7.266
   10POPC   D2A  667  10.908   8.504   6.844
   10POPC   C3A  668  11.043   8.196   6.597
   10POPC   C4A  669  10.978   8.052   6.198
   10POPC   C1B  670  11.285   8.099   7.273
   10POPC   C2B  671  11.470   8.096   6.866
   10POPC   C3B  672  11.470   7.969   6.468
   10POPC   C4B  673  11.411   8.290   6.201
   11POPC   NC3  674   3.523   2.473   8.072
   11POPC   PO4  675   4.205   2.575   8.266
   11POPC   GL1  676   3.936   2.532   7.794
   11POPC   GL2  677   3.599   2.743   7.649
   11POPC   C1A  678   3.838   2.432   7.348
   11POPC   D2A  679   3.602   2.670   7.072
   11POPC   C3A  680   3.720   2.532   6.697
   11POPC   C4A  681   3.771   2.808   6.381
   11POPC   C1B  682   3.211   2.844   7.367
   11POPC   C2B  683   3.082   2.886   6.913
   11POPC   C3B  684   3.230   2.808   6.468
   11POPC   C4B  685   3.426   3.158   6.212
   12POPC   NC3  686   4.781   8.016   8.036
   12POPC   PO4  687   5.138   7.603   7.973
   12POPC   GL1  688   5.061   7.884   7.597
   12POPC   GL2  689   5.121   8.224   7.696
   12POPC   C1A  690   5.008   7.888   7.112
   12POPC   D2A  691   5.150   7.899   6.668
   12POPC   C3A  692   4.804   7.970   6.363
   12POPC   C4A  693   4.421   8.101   6.127
   12POPC   C1B  694   5.203   8.327   7.250
   12POPC   C2B  695   5.001   8.383   6.827
   12POPC   C3B  696   5.179   8.328   6.384
   12POPC   C4B  697   5.255   7.962   6.101
   13POPC   NC3  698   8.468   0.944   7.991
   13POPC   PO4  699   7.766   1.087   8.137
   13POPC   GL1  700   8.009   1.106   7.761
   13POPC   GL2  701   7.828   1.347   7.543
   13POPC   C1A  702   8.065   0.902   7.357
   13POPC   D2A  703   7.929   1.031   6.920
   13POPC   C3A  704   8.233   0.960   6.589
   13POPC   C4A  705   8.280   1.099   6.173
   13POPC   C1B  706   8.172   1.395   7.220
   13POPC   C2B  707   8.229   1.450   6.780
   13POPC   C3B  708   7.930   1.356   6.447
   13POPC   C4B  709   7.757   1.657   6.154
   14POPC   NC3  710   1.098   9.548   8.098
   14POPC   PO4  711   0.818  10.158   8.139
   14POPC   GL1  712   1.006   9.925   7.766
   14POPC   GL2  713   1.380   9.872   7.781
   14POPC   C1A  714   0.867   9.936   7.343
   14POPC   D2A  715   1.143   9.929   6.978
   14POPC   C3A  716   1.104   9.662   6.610
   14POPC   C4A  717   1.148   9.884   6.230
   14POPC   C1B  718   1.307   9.648   7.399
   14POPC   C2B  719   1.506   9.546   6.998
   14POPC   C3B  720   1.617   9.644   6.612
   14POPC   C4B  721   1.471   9.497   6.213
   15POPC   NC3  722   1.233  10.534   8.198
   15POPC   PO4  723   0.718  10.675   7.838
   15POPC   GL1  724   0.961  10.416   7.651
   15POPC   GL2  725   1.321  10.394   7.700
   15POPC   C1A  726   1.067  10.391   7.235
   15POPC   D2A  727   1.304  10.509   6.900
   15POPC   C3A  728   1.154  10.291   6.555
   15POPC   C4A  729   0.930  10.344   6.178
   15POPC   C1B  730   1.561  10.259   7.307
   15POPC   C2B  731   1.612  10.088   6.869
   15POPC   C3B  732   1.624  10.120   6.406
   15POPC   C4B  733   1.431  10.322   6.064
   16POPC   NC3  734   3.589   9.402   8.255
   16POPC   PO4  735   3.051   9.242   7.971
   16POPC   GL1  736   3.409   9.511   7.760
   16POPC   GL2  737   3.694   9.747   7.869
   16POPC   C1A  738   3.402   9.538   7.305
   16POPC   D2A  739   3.344   9.731   6.894
   16POPC   C3A  740   3.308   9.561   6.449
   16POPC   C4A  741   3.196   9.525   6.009
   16POPC   C1B  742   3.735   9.911   7.411
   16POPC   C2B  743   3.826   9.931   6.930
   16POPC   C3B  744   3.798   9.736   6.481
   16POPC   C4B  745   3.666   9.736   6.019
   17POPC   NC3  746  10.463   1.252   8.258
   17POPC   PO4  747  10.401   1.827   7.997
   17POPC   GL1  748  10.321   1.540   7.680
   17POPC   GL2  749  10.417   1.208   7.730
   17POPC   C1A  750  10.545   1.434   7.273
   17POPC   D2A  751  10.672   1.243   6.882
   17POPC   C3A  752  10.636   1.568   6.616
   17POPC   C4A  753  10.534   1.565   6.221
   17POPC   C1B  754  10.104   1.180   7.375
   17POPC   C2B  755  10.192   1.068   6.956
   17POPC   C3B  756  10.227   1.227   6.534
   17POPC   C4B  757  10.245   1.079   6.086
   18POPC   NC3  758   3.860  11.356   8.226
   18POPC   PO4  759   3.377   0.094   7.848
   18POPC   GL1  760   3.706  11.402   7.662
   18POPC   GL2  761   3.648  11.075   7.558
   18POPC   C1A  762   3.793  11.427   7.218
   18POPC   D2A  763   3.782  11.094   6.965
   18POPC   C3A  764   3.688  11.145   6.573
   18POPC   C4A  765   3.712  11.482   6.282
   18POPC   C1B  766   3.321  11.121   7.247
   18POPC   C2B  767   3.267  10.940   6.825
   18POPC   C3B  768   3.256  11.015   6.370
   18POPC   C4B  769   3.584  10.997   6.050
   19POPC   NC3  770  11.340   6.290   8.101
   19POPC   PO4  771  11.227   6.946   7.969
   19POPC   GL1  772  11.267   6.713   7.621
   19POPC   GL2  773  11.317   6.359   7.601
   19POPC   C1A  774  11.230   6.793   7.192
   19POPC   D2A  775  11.098   6.992   6.791
   19POPC   C3A  776  11.194   6.812   6.323
   19POPC   C4A  777  10.874   6.963   5.948
   19POPC   C1B  778  11.234   6.288   7.193
   19POPC   C2B  779  11.032   6.487   6.841
   19POPC   C3B  780  11.047   6.314   6.449
   19POPC   C4B  781  11.458   6.212   6.273
   20POPC   NC3  782  10.333   0.197   8.477
   20POPC   PO4  783  10.889   0.159   8.078
   20POPC   GL1  784  10.637   0.263   7.695
   20POPC   GL2  785  10.257   0.340   7.707
   20POPC   C1A  786  10.492   0.230   7.250
   20POPC   D2A  787  10.472  11.479   6.893
   20POPC   C3A  788  10.535   0.236   6.545
   20POPC   C4A  789  10.666   0.178   6.128
   20POPC   C1B  790  10.309   0.685   7.356
   20POPC   C2B  791  10.466   0.642   6.910
   20POPC   C3B  792  10.266   0.702   6.501
   20POPC   C4B  793  10.212   0.416   6.181
   21POPC   NC3  794   6.943   1.137   7.973
   21POPC   PO4  795   6.252   1.176   8.044
   21POPC   GL1  796   6.504   0.976   7.691
   21POPC   GL2  797   6.285   0.746   7.499
   21POPC   C1A  798   6.853   1.056   7.355
   21POPC   D2A  799   6.795   1.202   6.947
   21POPC   C3A  800   6.538   0.952   6.692
   21POPC   C4A  801   6.551   1.185   6.332
   21POPC   C1B  802   6.342   1.072   7.177
   21POPC   C2B  803   6.302   1.453   6.904
   21POPC   C3B  804   6.354   1.667   6.489
   21POPC   C4B  805   6.214   1.483   6.101
   22POPC   NC3  806   8.911  11.019   7.940
   22POPC   PO4  807   9.297  10.488   7.910
   22POPC   GL1  808   9.177  10.810   7.567
   22POPC   GL2  809   9.081  11.225   7.535
   22POPC   C1A  810   8.952  10.869   7.186
   22POPC   D2A  811   8.663  10.781   6.846
   22POPC   C3A  812   8.656  11.008   6.494
   22POPC   C4A  813   8.976  11.010   6.259
   22POPC   C1B  814   8.672  11.257   7.332
   22POPC   C2B  815   8.785  11.302   6.903
   22POPC   C3B  816   8.691   0.026   6.525
   22POPC   C4B  817   8.736  11.446   6.090
   23POPC   NC3  818   0.486   1.063   7.862
   23POPC   PO4  819   0.816   1.589   7.972
   23POPC   GL1  820   0.686   1.462   7.597
   23POPC   GL2  821   0.301   1.472   7.631
   23POPC   C1A  822   0.581   1.557   7.183
   23POPC   D2A  823   0.498   1.323   6.825
   23POPC   C3A  824   0.493   1.610   6.500
   23POPC   C4A  825   0.309   1.560   6.100
   23POPC   C1B  826   0.137   1.258   7.259
   23POPC   C2B  827  11.465   1.094   6.895
   23POPC   C3B  828   0.089   1.247   6.494
   23POPC   C4B  829   0.480   1.077   6.324
   24POPC   NC3  830   4.224   8.631   8.221
   24POPC   PO4  831   4.030   9.254   8.169
   24POPC   GL1  832   4.065   9.022   7.794
   24POPC   GL2  833   4.373   8.863   7.751
   24POPC   C1A  834   4.053   8.921   7.331
   24POPC   D2A  835   4.184   8.595   7.019
   24POPC   C3A  836   4.151   8.685   6.553
   24POPC   C4A  837   4.079   8.502   6.142
   24POPC   C1B  838   4.551   8.866   7.299
   24POPC   C2B  839   4.431   9.010   6.856
   24POPC   C3B  840   4.540   8.975   6.403
   24POPC   C4B  841   4.697   9.160   6.037
   25POPC   NC3  842   3.519   1.443   8.092
   25POPC   PO4  843   3.247   0.751   8.062
   25POPC   GL1  844   3.211   0.967   7.627
   25POPC   GL2  845   3.459   1.227   7.450
   25POPC   C1A  846   3.205   0.922   7.167
   25POPC   D2A  847   3.340   1.010   6.762
   25POPC   C3A  848   3.138   1.090   6.373
   25POPC   C4A  849   3.151   1.464   6.105
   25POPC   C1B  850   3.873   1.412   7.284
   25POPC   C2B  851   4.029   1.548   6.871
   25POPC   C3B  852   3.913   1.461   6.436
   25POPC   C4B  853   3.620   1.172   6.338
   26POPC   NC3  854   5.600   9.721   8.263
   26POPC   PO4  855   6.065  10.158   8.220
   26POPC   GL1  856   6.155   9.897   7.809
   26POPC   GL2  857   5.829   9.726   7.759
   26POPC   C1A  858   6.036   9.908   7.318
   26POPC   D2A  859   6.194   9.785   6.884
   26POPC   C3A  860   5.960   9.831   6.491
   26POPC   C4A  861   6.005   9.888   6.049
   26POPC   C1B  862   5.629   9.588   7.350
   26POPC   C2B  863   5.641   9.649   6.885
   26POPC   C3B  864   5.504   9.538   6.450
   26POPC   C4B  865   5.702   9.476   6.022
   27POPC   NC3  866  11.060  10.454   8.047
   27POPC   PO4  867  10.728   9.929   7.790
   27POPC   GL1  868  11.121  10.118   7.634
   27POPC   GL2  869  11.401  10.381   7.681
   27POPC   C1A  870  11.186  10.061   7.221
   27POPC   D2A  871  10.922  10.129   6.874
   27POPC   C3A  872  11.193  10.282   6.576
   27POPC   C4A  873  11.255  10.101   6.159
   27POPC   C1B  874  11.196  10.571   7.320
   27POPC   C2B  875  11.001  10.674   6.944
   27POPC   C3B  876  11.079  10.842   6.539
   27POPC   C4B  877  11.318  10.634   6.238
   28POPC   NC3  878   5.476   0.145   7.964
   28POPC   PO4  879   5.062   0.593   8.291
   28POPC   GL1  880   5.211   0.545   7.810
   28POPC   GL2  881   5.150   0.270   7.584
   28POPC   C1A  882   5.363   0.620   7.315
   28POPC   D2A  883   5.097   0.361   7.020
   28POPC   C3A  884   5.145   0.367   6.578
   28POPC   C4A  885   5.264   0.661   6.287
   28POPC   C1B  886   4.875   0.617   7.419
   28POPC   C2B  887   4.630   0.666   7.046
   28POPC   C3B  888   4.743   0.706   6.601
   28POPC   C4B  889   4.790   0.983   6.251
   29POPC   NC3  890   8.721   2.602   8.048
   29POPC   PO4  891   8.242   2.905   8.015
   29POPC   GL1  892   8.541   2.879   7.632
   29POPC   GL2  893   8.789   2.578   7.536
   29POPC   C1A  894   8.835   3.034   7.302
   29POPC   D2A  895   8.950   3.333   6.962
   29POPC   C3A  896   8.982   3.175   6.533
   29POPC   C4A  897   8.684   3.019   6.183
   29POPC   C1B  898   9.102   2.613   7.174
   29POPC   C2B  899   9.005   2.660   6.736
   29POPC   C3B  900   9.068   2.706   6.306
   29POPC   C4B  901   9.055   2.584   5.874
   30POPC   NC3  902   7.321  10.628   8.255
   30POPC   PO4  903   7.603  10.794   7.691
   30POPC   GL1  904   7.318  10.519   7.566
   30POPC   GL2  905   7.406  10.252   7.793
   30POPC   C1A  906   7.279  10.394   7.147
   30POPC   D2A  907   6.998  10.449   6.827
   30POPC   C3A  908   7.155  10.635   6.475
   30POPC   C4A  909   7.505  10.646   6.212
   30POPC   C1B  910   7.704  10.165   7.451
   30POPC   C2B  911   7.638  10.075   7.016
   30POPC   C3B  912   7.516  10.259   6.619
   30POPC   C4B  913   7.474  10.122   6.191
   31POPC   NC3  914  10.240   4.566   7.684
   31POPC   PO4  915  10.090   4.037   7.925
   31POPC   GL1  916   9.987   4.143   7.502
   31POPC   GL2  917   9.749   4.394   7.479
   31POPC   C1A  918  10.077   4.309   7.066
   31POPC   D2A  919  10.195   4.653   6.773
   31POPC   C3A  920  10.071   4.595   6.338
   31POPC   C4A  921   9.784   4.260   6.216
   31POPC   C1B  922   9.588   4.079   7.159
   31POPC   C2B  923   9.352   3.906   6.780
   31POPC   C3B  924   9.321   4.121   6.395
   31POPC   C4B  925   9.325   4.586   6.332
   32POPC   NC3  926   0.363   2.060   7.985
   32POPC   PO4  927   1.010   2.331   7.856
   32POPC   GL1  928   0.839   2.012   7.597
   32POPC   GL2  929   0.500   1.928   7.533
   32POPC   C1A  930   0.764   2.140   7.181
   32POPC   D2A  931   0.470   1.998   6.886
   32POPC   C3A  932   0.718   2.089   6.551
   32POPC   C4A  933   0.840   1.923   6.165
   32POPC   C1B  934   0.143   1.816   7.290
   32POPC   C2B  935   0.089   1.625   6.888
   32POPC   C3B  936  11.499   1.791   6.475
   32POPC   C4B  937   0.312   2.050   6.256
   33POPC   NC3  938   9.454   5.658   8.278
   33POPC   PO4  939   9.906   6.069   8.146
   33POPC   GL1  940  10.000   5.844   7.739
   33POPC   GL2  941  10.090   6.138   7.609
   33POPC   C1A  942   9.918   5.681   7.307
   33POPC   D2A  943   9.839   5.816   6.864
   33POPC   C3A  944   9.766   5.604   6.479
   33POPC   C4A  945   9.858   5.683   6.062
   33POPC   C1B  946   9.865   6.195   7.213
   33POPC   C2B  947   9.780   6.312   6.752
   33POPC   C3B  948   9.700   6.104   6.351
   33POPC   C4B  949   9.431   5.942   6.031
   34POPC   NC3  950   5.073   1.068   8.192
   34POPC   PO4  951   5.663   0.713   8.132
   34POPC   GL1  952   5.421   0.987   7.779
   34POPC   GL2  953   5.138   1.243   7.725
   34POPC   C1A  954   5.396   1.113   7.318
   34POPC   D2A  955   5.081   0.939   7.006
   34POPC   C3A  956   5.175   1.059   6.588
   34POPC   C4A  957   5.256   1.175   6.140
   34POPC   C1B  958   4.923   1.328   7.318
   34POPC   C2B  959   4.791   1.369   6.880
   34POPC   C3B  960   4.899   1.458   6.441
   34POPC   C4B  961   5.002   1.616   6.021
   35POPC   NC3  962   7.728   9.225   8.084
   35POPC   PO4  963   8.446   9.243   8.048
   35POPC   GL1  964   8.334   9.139   7.638
   35POPC   GL2  965   8.025   9.069   7.697
   35POPC   C1A  966   8.218   8.835   7.284
   35POPC   D2A  967   8.088   8.705   6.830
   35POPC   C3A  968   8.346   8.674   6.413
   35POPC   C4A  969   8.330   8.777   5.963
   35POPC   C1B  970   7.846   9.174   7.295
   35POPC   C2B  971   8.009   9.208   6.876
   35POPC   C3B  972   7.992   9.056   6.429
   35POPC   C4B  973   7.858   8.988   5.962
   36POPC   NC3  974   8.885  10.390   8.107
   36POPC   PO4  975   8.453  11.010   7.997
   36POPC   GL1  976   8.624  10.676   7.638
   36POPC   GL2  977   8.873  10.374   7.610
   36POPC   C1A  978   8.595  10.451   7.206
   36POPC   D2A  979   8.621  10.263   6.791
   36POPC   C3A  980   8.386  10.549   6.471
   36POPC   C4A  981   8.554  10.728   6.073
   36POPC   C1B  982   9.112  10.376   7.220
   36POPC   C2B  983   9.139  10.596   6.807
   36POPC   C3B  984   8.904  10.522   6.429
   36POPC   C4B  985   8.979  10.123   6.277
   37POPC   NC3  986   7.099   8.849   7.947
   37POPC   PO4  987   7.763   8.658   8.175
   37POPC   GL1  988   7.728   8.662   7.753
   37POPC   GL2  989   7.546   8.907   7.701
   37POPC   C1A  990   7.722   8.661   7.282
   37POPC   D2A  991   7.601   8.904   6.906
   37POPC   C3A  992   7.426   8.684   6.570
   37POPC   C4A  993   7.768   8.610   6.295
   37POPC   C1B  994   7.334   9.009   7.327
   37POPC   C2B  995   7.135   9.106   6.934
   37POPC   C3B  996   7.165   9.132   6.491
   37POPC   C4B  997   7.388   9.003   6.146
   38POPC   NC3  998   0.575  11.017   8.095
   38POPC   PO4  999   1.144  10.958   8.458
   38POPC   GL1 1000   1.150  10.955   7.926
   38POPC   GL2 1001   0.928  11.203   7.751
   38POPC   C1A 1002   1.214  10.856   7.429
   38POPC   D2A 1003   1.259  11.039   6.984
   38POPC   C3A 1004   1.177  10.895   6.552
   38POPC   C4A 1005   0.936  10.903   6.162
   38POPC   C1B 1006   1.158  11.369   7.362
   38POPC   C2B 1007   1.385   0.035   6.999
   38POPC   C3B 1008   1.306  11.464   6.575
   38POPC   C4B 1009   1.305  11.278   6.168
   39POPC   NC3 1010   9.365   8.504   8.087
   39POPC   PO4 1011   9.295   7.837   8.101
   39POPC   GL1 1012   9.555   8.040   7.737
   39POPC   GL2 1013   9.740   8.353   7.745
   39POPC   C1A 1014   9.694   8.015   7.273
   39POPC   D2A 1015   9.852   7.763   6.903
   39POPC   C3A 1016   9.673   7.778   6.449
   39POPC   C4A 1017   9.692   7.807   5.997
   39POPC   C1B 1018   9.689   8.519   7.350
   39POPC   C2B 1019   9.528   8.438   6.931
   39POPC   C3B 1020   9.695   8.459   6.507
   39POPC   C4B 1021   9.549   8.259   6.135
   40POPC   NC3 1022   1.165   1.266   7.996
   40POPC   PO4 1023   1.735   0.838   8.116
   40POPC   GL1 1024   1.538   0.914   7.755
   40POPC   GL2 1025   1.610   1.240   7.674
   40POPC   C1A 1026   1.634   0.832   7.317
   40POPC   D2A 1027   1.762   0.840   6.865
   40POPC   C3A 1028   1.405   0.976   6.600
   40POPC   C4A 1029   1.052   0.954   6.295
   40POPC   C1B 1030   1.404   1.318   7.290
   40POPC   C2B 1031   1.315   1.409   6.854
   40POPC   C3B 1032   0.957   1.360   6.573
   40POPC   C4B 1033   0.820   1.411   6.152
   41POPC   NC3 1034   8.003   3.297   8.032
   41POPC   PO4 1035   8.291   3.805   7.945
   41POPC   GL1 1036   8.334   3.416   7.676
   41POPC   GL2 1037   7.996   3.468   7.536
   41POPC   C1A 1038   8.387   3.267   7.257
   41POPC   D2A 1039   8.453   3.550   6.905
   41POPC   C3A 1040   8.528   3.414   6.499
   41POPC   C4A 1041   8.310   3.360   6.126
   41POPC   C1B 1042   7.942   3.427   7.068
   41POPC   C2B 1043   8.042   3.287   6.630
   41POPC   C3B 1044   7.817   3.238   6.229
   41POPC   C4B 1045   7.480   3.381   5.948
   42POPC   NC3 1046  11.116   9.776   8.022
   42POPC   PO4 1047  10.807   9.212   7.852
   42POPC   GL1 1048  10.961   9.525   7.576
   42POPC   GL2 1049  11.314   9.637   7.571
   42POPC   C1A 1050  10.777   9.646   7.185
   42POPC   D2A 1051  10.630   9.449   6.797
   42POPC   C3A 1052  10.675   9.721   6.462
   42POPC   C4A 1053  10.859   9.784   6.045
   42POPC   C1B 1054  11.332   9.582   7.149
   42POPC   C2B 1055  11.113   9.642   6.791
   42POPC   C3B 1056  11.171   9.563   6.384
   42POPC   C4B 1057  11.344   9.587   6.000
   43POPC   NC3 1058  10.986   7.204   8.267
   43POPC   PO4 1059  11.094   7.728   7.855
   43POPC   GL1 1060  11.184   7.301   7.599
   43POPC   GL2 1061  10.931   7.097   7.536
   43POPC   C1A 1062  11.470   7.228   7.247
   43POPC   D2A 1063   0.112   6.965   6.897
   43POPC   C3A 1064  11.484   7.181   6.517
   43POPC   C4A 1065  11.340   7.533   6.267
   43POPC   C1B 1066  10.963   7.445   7.197
   43POPC   C2B 1067  11.046   7.771   6.905
   43POPC   C3B 1068  10.884   7.674   6.512
   43POPC   C4B 1069  10.933   7.244   6.372
   44POPC   NC3 1070   1.510   8.047   8.176
   44POPC   PO4 1071   0.853   8.110   8.248
   44POPC   GL1 1072   1.133   8.188   7.829
   44POPC   GL2 1073   1.124   8.549   7.682
   44POPC   C1A 1074   1.393   8.154   7.418
   44POPC   D2A 1075   1.508   8.323   6.981
   44POPC   C3A 1076   1.592   8.204   6.567
   44POPC   C4A 1077   1.354   8.112   6.198
   44POPC   C1B 1078   0.942   8.385   7.316
   44POPC   C2B 1079   1.053   8.126   7.022
   44POPC   C3B 1080   1.074   8.210   6.630
   44POPC   C4B 1081   0.866   8.277   6.251
   45POPC   NC3 1082   3.305   3.447   8.014
   45POPC   PO4 1083   2.660   3.259   8.065
   45POPC   GL1 1084   2.682   3.203   7.644
   45POPC   GL2 1085   2.461   3.492   7.603
   45POPC   C1A 1086   2.894   3.279   7.222
   45POPC   D2A 1087   2.770   3.340   6.771
   45POPC   C3A 1088   2.945   3.362   6.351
   45POPC   C4A 1089   2.950   3.811   6.158
   45POPC   C1B 1090   2.332   3.281   7.254
   45POPC   C2B 1091   2.129   3.490   6.941
   45POPC   C3B 1092   2.349   3.621   6.614
   45POPC   C4B 1093   2.419   3.280   6.379
   46POPC   NC3 1094  10.755   8.848   8.120
   46POPC   PO4 1095  11.308   9.365   8.173
   46POPC   GL1 1096  11.307   9.157   7.754
   46POPC   GL2 1097  11.175   8.840   7.824
   46POPC   C1A 1098  11.475   9.132   7.340
   46POPC   D2A 1099  11.270   9.112   6.921
   46POPC   C3A 1100  11.491   9.154   6.519
   46POPC   C4A 1101  11.209   9.081   6.180
   46POPC   C1B 1102  11.084   8.810   7.378
   46POPC   C2B 1103  11.363   8.607   7.055
   46POPC   C3B 1104  11.351   8.632   6.583
   46POPC   C4B 1105  11.001   8.593   6.264
   47POPC   NC3 1106   0.626   3.015   8.122
   47POPC   PO4 1107   0.215   2.479   8.118
   47POPC   GL1 1108   0.386   2.702   7.780
   47POPC   GL2 1109   0.541   2.428   7.657
   47POPC   C1A 1110   0.469   2.817   7.339
   47POPC   D2A 1111   0.518   3.008   6.947
   47POPC   C3A 1112   0.217   2.990   6.626
   47POPC   C4A 1113   0.414   2.948   6.220
   47POPC   C1B 1114   0.304   2.325   7.293
   47POPC   C2B 1115   0.309   2.519   6.901
   47POPC   C3B 1116   0.364   2.505   6.484
   47POPC   C4B 1117   0.701   2.464   6.212
   48POPC   NC3 1118   5.461   0.406   8.416
   48POPC   PO4 1119   5.965   0.222   7.955
   48POPC   GL1 1120   5.695   0.372   7.614
   48POPC   GL2 1121   5.766   0.626   7.623
   48POPC   C1A 1122   5.541   0.160   7.242
   48POPC   D2A 1123   5.614   0.385   6.870
   48POPC   C3A 1124   5.616   0.158   6.516
   48POPC   C4A 1125   5.393  11.426   6.223
   48POPC   C1B 1126   6.004   0.402   7.250
   48POPC   C2B 1127   6.201   0.599   6.974
   48POPC   C3B 1128   6.065   0.702   6.616
   48POPC   C4B 1129   5.883   0.491   6.234
   49POPC   NC3 1130  10.762   4.894   8.237
   49POPC   PO4 1131  10.759   5.549   8.116
   49POPC   GL1 1132  10.758   5.196   7.772
   49POPC   GL2 1133  10.448   5.051   7.771
   49POPC   C1A 1134  10.633   4.969   7.312
   49POPC   D2A 1135  10.517   5.061   6.873
   49POPC   C3A 1136  10.495   4.911   6.451
   49POPC   C4A 1137  10.649   5.092   6.119
   49POPC   C1B 1138  10.350   5.371   7.404
   49POPC   C2B 1139  10.196   5.440   6.939
   49POPC   C3B 1140  10.192   5.318   6.472
   49POPC   C4B 1141   9.851   5.176   6.162
   50POPC   NC3 1142   7.987  10.640   7.897
   50POPC   PO4 1143   8.486  10.237   7.950
   50POPC   GL1 1144   8.365  10.207   7.565
   50POPC   GL2 1145   8.144  10.498   7.442
   50POPC   C1A 1146   8.198  10.070   7.188
   50POPC   D2A 1147   8.070  10.268   6.825
   50POPC   C3A 1148   8.241  10.021   6.567
   50POPC   C4A 1149   8.465  10.112   6.223
   50POPC   C1B 1150   7.789  10.560   7.142
   50POPC   C2B 1151   7.557  10.730   6.836
   50POPC   C3B 1152   7.869  10.686   6.553
   50POPC   C4B 1153   7.946  10.334   6.289
   51POPC   NC3 1154   9.940   1.783   8.070
   51POPC   PO4 1155   9.295   1.586   8.283
   51POPC   GL1 1156   9.447   1.871   7.842
   51POPC   GL2 1157   9.751   2.129   7.734
   51POPC   C1A 1158   9.445   1.933   7.354
   51POPC   D2A 1159   9.697   1.880   6.938
   51POPC   C3A 1160   9.510   1.945   6.526
   51POPC   C4A 1161   9.329   1.788   6.133
   51POPC   C1B 1162   9.835   2.249   7.279
   51POPC   C2B 1163   9.519   2.375   6.952
   51POPC   C3B 1164   9.512   2.465   6.499
   51POPC   C4B 1165   9.859   2.243   6.254
   52POPC   NC3 1166  10.511   2.249   8.203
   52POPC   PO4 1167  10.836   1.738   8.320
   52POPC   GL1 1168  10.795   2.072   7.815
   52POPC   GL2 1169  10.411   2.076   7.581
   52POPC   C1A 1170  10.816   2.139   7.319
   52POPC   D2A 1171  10.563   1.912   6.993
   52POPC   C3A 1172  10.546   2.084   6.546
   52POPC   C4A 1173  10.572   2.072   6.083
   52POPC   C1B 1174  10.101   1.811   7.333
   52POPC   C2B 1175  10.129   1.570   6.962
   52POPC   C3B 1176  10.124   1.740   6.559
   52POPC   C4B 1177  10.129   1.832   6.135
   53POPC   NC3 1178   2.863   5.798   8.301
   53POPC   PO4 1179   3.264   6.172   8.127
   53POPC   GL1 1180   2.903   5.992   7.819
   53POPC   GL2 1181   2.593   5.706   7.745
   53POPC   C1A 1182   2.897   5.877   7.380
   53POPC   D2A 1183   2.945   6.030   6.971
   53POPC   C3A 1184   3.039   5.756   6.615
   53POPC   C4A 1185   3.103   5.877   6.176
   53POPC   C1B 1186   2.434   5.678   7.250
   53POPC   C2B 1187   2.561   5.594   6.766
   53POPC   C3B 1188   2.611   5.832   6.347
   53POPC   C4B 1189   2.460   6.200   6.215
   54POPC   NC3 1190   8.940   9.267   8.116
   54POPC   PO4 1191   8.924   9.940   8.207
   54POPC   GL1 1192   8.805   9.869   7.738
   54POPC   GL2 1193   8.767   9.508   7.700
   54POPC   C1A 1194   8.749   9.955   7.281
   54POPC   D2A 1195   8.959   9.838   6.859
   54POPC   C3A 1196   8.695   9.732   6.480
   54POPC   C4A 1197   8.673   9.635   6.008
   54POPC   C1B 1198   9.079   9.543   7.348
   54POPC   C2B 1199   9.162   9.297   6.978
   54POPC   C3B 1200   9.164   9.339   6.539
   54POPC   C4B 1201   9.126   9.636   6.211
   55POPC   NC3 1202   9.708   0.228   7.943
   55POPC   PO4 1203   9.174  11.389   8.035
   55POPC   GL1 1204   9.257   0.181   7.703
   55POPC   GL2 1205   9.418   0.529   7.621
   55POPC   C1A 1206   9.477   0.108   7.311
   55POPC   D2A 1207   9.479   0.365   6.953
   55POPC   C3A 1208   9.347   0.147   6.604
   55POPC   C4A 1209   9.321   0.303   6.189
   55POPC   C1B 1210   9.816   0.512   7.332
   55POPC   C2B 1211   9.911   0.647   6.877
   55POPC   C3B 1212   9.759   0.460   6.476
   55POPC   C4B 1213   9.757   0.507   6.011
   56POPC   NC3 1214   0.235   8.202   8.357
   56POPC   PO4 1215   0.282   7.803   7.874
   56POPC   GL1 1216   0.279   8.170   7.661
   56POPC   GL2 1217   0.624   8.270   7.698
   56POPC   C1A 1218   0.313   8.123   7.231
   56POPC   D2A 1219   0.575   8.182   6.897
   56POPC   C3A 1220   0.394   8.256   6.534
   56POPC   C4A 1221   0.361   8.072   6.151
   56POPC   C1B 1222   0.747   7.909   7.383
   56POPC   C2B 1223   0.770   7.711   6.925
   56POPC   C3B 1224   0.733   7.848   6.466
   56POPC   C4B 1225   0.751   7.860   5.939
   57POPC   NC3 1226   0.607   4.080   7.966
   57POPC   PO4 1227   0.407   3.430   8.134
   57POPC   GL1 1228   0.480   3.578   7.730
   57POPC   GL2 1229   0.589   3.243   7.647
   57POPC   C1A 1230   0.420   3.820   7.340
   57POPC   D2A 1231   0.653   3.891   6.938
   57POPC   C3A 1232   0.484   3.849   6.551
   57POPC   C4A 1233   0.647   3.726   6.139
   57POPC   C1B 1234   0.276   3.310   7.319
   57POPC   C2B 1235   0.344   3.483   6.914
   57POPC   C3B 1236   0.566   3.353   6.532
   57POPC   C4B 1237   0.221   3.444   6.232
   58POPC   NC3 1238   5.181  10.970   8.136
   58POPC   PO4 1239   4.980   0.061   8.016
   58POPC   GL1 1240   4.857  11.360   7.645
   58POPC   GL2 1241   4.972  11.056   7.673
   58POPC   C1A 1242   5.099  11.381   7.260
   58POPC   D2A 1243   5.280  11.385   6.838
   58POPC   C3A 1244   4.940  11.407   6.526
   58POPC   C4A 1245   4.902  11.492   6.099
   58POPC   C1B 1246   5.104  10.871   7.291
   58POPC   C2B 1247   5.243  10.811   6.877
   58POPC   C3B 1248   5.221  10.996   6.468
   58POPC   C4B 1249   5.206  10.985   6.001
   59POPC   NC3 1250   2.970   0.265   8.065
   59POPC   PO4 1251   2.492   0.811   8.008
   59POPC   GL1 1252   2.797   0.639   7.726
   59POPC   GL2 1253   2.656   0.302   7.657
   59POPC   C1A 1254   2.979   0.512   7.334
   59POPC   D2A 1255   2.889   0.302   6.953
   59POPC   C3A 1256   2.901   0.454   6.535
   59POPC   C4A 1257   2.870   0.227   6.170
   59POPC   C1B 1258   2.453   0.424   7.259
   59POPC   C2B 1259   2.278   0.732   6.946
   59POPC   C3B 1260   2.194   0.780   6.496
   59POPC   C4B 1261   2.478   0.730   6.084
   60POPC   NC3 1262   8.983   1.251   8.160
   60POPC   PO4 1263   8.339   1.363   8.095
   60POPC   GL1 1264   8.669   1.343   7.728
   60POPC   GL2 1265   8.878   1.069   7.661
   60POPC   C1A 1266   8.684   1.320   7.249
   60POPC   D2A 1267   8.880   1.267   6.821
   60POPC   C3A 1268   8.621   1.389   6.455
   60POPC   C4A 1269   8.664   1.345   5.972
   60POPC   C1B 1270   9.144   1.097   7.261
   60POPC   C2B 1271   9.206   0.826   6.935
   60POPC   C3B 1272   9.230   0.998   6.560
   60POPC   C4B 1273   9.086   1.301   6.251
   61POPC   NC3 1274   2.268  10.405   7.996
   61POPC   PO4 1275   1.675  10.667   8.130
   61POPC   GL1 1276   1.828  10.505   7.732
   61POPC   GL2 1277   1.859  10.129   7.751
   61POPC   C1A 1278   1.871  10.699   7.331
   61POPC   D2A 1279   1.710  10.822   6.924
   61POPC   C3A 1280   1.919  10.696   6.547
   61POPC   C4A 1281   1.855  10.646   6.104
   61POPC   C1B 1282   2.077  10.217   7.361
   61POPC   C2B 1283   2.017  10.382   6.949
   61POPC   C3B 1284   2.126  10.196   6.543
   61POPC   C4B 1285   2.062  10.212   6.103
   62POPC   NC3 1286   0.222   4.616   8.208
   62POPC   PO4 1287   0.073   4.070   7.988
   62POPC   GL1 1288   0.045   4.426   7.738
   62POPC   GL2 1289   0.385   4.485   7.728
   62POPC   C1A 1290   0.174   4.279   7.326
   62POPC   D2A 1291   0.181   4.067   6.951
   62POPC   C3A 1292   0.168   4.271   6.576
   62POPC   C4A 1293   0.217   4.059   6.191
   62POPC   C1B 1294   0.577   4.592   7.358
   62POPC   C2B 1295   0.699   4.498   6.954
   62POPC   C3B 1296   0.526   4.639   6.586
   62POPC   C4B 1297   0.542   4.449   6.191
   63POPC   NC3 1298   1.147   8.847   8.092
   63POPC   PO4 1299   1.542   9.469   8.105
   63POPC   GL1 1300   1.388   9.241   7.737
   63POPC   GL2 1301   1.049   9.115   7.674
   63POPC   C1A 1302   1.357   9.151   7.284
   63POPC   D2A 1303   1.105   9.224   6.930
   63POPC   C3A 1304   1.353   9.163   6.592
   63POPC   C4A 1305   1.191   9.091   6.194
   63POPC   C1B 1306   0.932   8.888   7.305
   63POPC   C2B 1307   1.173   8.708   6.945
   63POPC   C3B 1308   1.105   8.697   6.503
   63POPC   C4B 1309   0.792   8.759   6.161
   64POPC   NC3 1310   9.803  10.842   8.107
   64POPC   PO4 1311  10.109   0.024   8.114
   64POPC   GL1 1312   9.933  11.232   7.808
   64POPC   GL2 1313   9.576  11.243   7.708
   64POPC   C1A 1314   9.934  11.007   7.405
   64POPC   D2A 1315   9.877  11.188   6.967
   64POPC   C3A 1316   9.911  11.044   6.536
   64POPC   C4A 1317   9.862  10.756   6.206
   64POPC   C1B 1318   9.460  11.087   7.254
   64POPC   C2B 1319   9.298  11.113   6.823
   64POPC   C3B 1320   9.425  11.196   6.388
   64POPC   C4B 1321   9.238  11.328   5.968
   65POPC   NC3 1322   0.729   7.683   8.024
   65POPC   PO4 1323   1.396   7.666   7.935
   65POPC   GL1 1324   1.097   7.565   7.681
   65POPC   GL2 1325   1.112   7.226   7.835
   65POPC   C1A 1326   1.177   7.668   7.258
   65POPC   D2A 1327   1.438   7.808   6.948
   65POPC   C3A 1328   1.241   7.733   6.591
   65POPC   C4A 1329   1.121   7.641   6.213
   65POPC   C1B 1330   1.207   7.165   7.382
   65POPC   C2B 1331   0.975   7.119   6.963
   65POPC   C3B 1332   1.008   7.203   6.502
   65POPC   C4B 1333   1.450   7.269   6.337
   66POPC   NC3 1334   8.892   0.255   8.143
   66POPC   PO4 1335   9.185   0.830   8.093
   66POPC   GL1 1336   8.905   0.577   7.745
   66POPC   GL2 1337   8.701   0.249   7.678
   66POPC   C1A 1338   8.841   0.691   7.298
   66POPC   D2A 1339   8.646   0.829   6.889
   66POPC   C3A 1340   8.721   0.902   6.403
   66POPC   C4A 1341   8.623   0.819   5.928
   66POPC   C1B 1342   8.940   0.187   7.308
   66POPC   C2B 1343   8.851   0.335   6.922
   66POPC   C3B 1344   8.989   0.510   6.577
   66POPC   C4B 1345   8.805   0.437   6.207
   67POPC   NC3 1346   4.297   3.037   8.201
   67POPC   PO4 1347   3.654   3.160   8.030
   67POPC   GL1 1348   4.009   3.052   7.742
   67POPC   GL2 1349   4.329   2.819   7.689
   67POPC   C1A 1350   3.986   2.930   7.315
   67POPC   D2A 1351   4.115   2.747   6.933
   67POPC   C3A 1352   4.238   2.942   6.527
   67POPC   C4A 1353   4.399   3.077   6.123
   67POPC   C1B 1354   4.334   2.453   7.332
   67POPC   C2B 1355   4.140   2.250   6.927
   67POPC   C3B 1356   4.212   2.429   6.522
   67POPC   C4B 1357   4.560   2.581   6.271
   68POPC   NC3 1358   9.938   9.321   8.140
   68POPC   PO4 1359   9.794   8.703   8.098
   68POPC   GL1 1360   9.733   8.916   7.719
   68POPC   GL2 1361   9.363   8.894   7.675
   68POPC   C1A 1362   9.957   8.978   7.328
   68POPC   D2A 1363   9.912   8.757   6.913
   68POPC   C3A 1364   9.890   8.936   6.452
   68POPC   C4A 1365   9.999   9.172   6.026
   68POPC   C1B 1366   9.415   8.904   7.199
   68POPC   C2B 1367   9.455   8.942   6.737
   68POPC   C3B 1368   9.390   8.861   6.348
   68POPC   C4B 1369   9.167   8.467   6.391
   69POPC   NC3 1370  11.470   3.643   8.166
   69POPC   PO4 1371  10.737   3.563   7.952
   69POPC   GL1 1372  10.824   3.517   7.556
   69POPC   GL2 1373  11.105   3.325   7.647
   69POPC   C1A 1374  10.832   3.758   7.197
   69POPC   D2A 1375  10.877   3.633   6.767
   69POPC   C3A 1376  10.737   3.883   6.433
   69POPC   C4A 1377  10.970   3.733   6.048
   69POPC   C1B 1378  11.266   3.124   7.290
   69POPC   C2B 1379  11.332   3.262   6.867
   69POPC   C3B 1380  11.254   3.282   6.411
   69POPC   C4B 1381  11.032   3.002   6.130
   70POPC   NC3 1382   1.237   5.950   7.946
   70POPC   PO4 1383   0.848   5.470   8.142
   70POPC   GL1 1384   0.975   5.580   7.708
   70POPC   GL2 1385   1.337   5.516   7.702
   70POPC   C1A 1386   0.867   5.456   7.264
   70POPC   D2A 1387   0.667   5.481   6.868
   70POPC   C3A 1388   0.914   5.382   6.483
   70POPC   C4A 1389   1.057   5.454   6.047
   70POPC   C1B 1390   1.288   5.739   7.297
   70POPC   C2B 1391   1.207   5.585   6.871
   70POPC   C3B 1392   1.257   5.750   6.446
   70POPC   C4B 1393   1.334   5.910   6.045
   71POPC   NC3 1394   9.836   6.554   8.057
   71POPC   PO4 1395  10.467   6.396   7.857
   71POPC   GL1 1396  10.558   6.312   7.495
   71POPC   GL2 1397  10.848   6.447   7.488
   71POPC   C1A 1398  10.604   6.295   7.080
   71POPC   D2A 1399  10.574   6.333   6.693
   71POPC   C3A 1400  10.247   6.562   6.555
   71POPC   C4A 1401   9.965   6.542   6.251
   71POPC   C1B 1402  10.732   6.755   7.227
   71POPC   C2B 1403  10.617   6.812   6.831
   71POPC   C3B 1404  10.708   6.732   6.400
   71POPC   C4B 1405  10.407   6.758   6.078
   72POPC   NC3 1406   2.888   1.051   8.035
   72POPC   PO4 1407   3.044   1.652   8.108
   72POPC   GL1 1408   3.069   1.461   7.686
   72POPC   GL2 1409   2.776   1.263   7.604
   72POPC   C1A 1410   3.022   1.397   7.202
   72POPC   D2A 1411   2.777   1.579   6.893
   72POPC   C3A 1412   2.800   1.437   6.511
   72POPC   C4A 1413   2.641   1.642   6.180
   72POPC   C1B 1414   2.675   0.953   7.296
   72POPC   C2B 1415   2.799   0.817   6.891
   72POPC   C3B 1416   2.682   0.931   6.499
   72POPC   C4B 1417   2.395   1.206   6.308
   73POPC   NC3 1418   9.690   7.600   8.062
   73POPC   PO4 1419   9.673   6.981   8.023
   73POPC   GL1 1420   9.607   7.309   7.643
   73POPC   GL2 1421   9.814   7.626   7.569
   73POPC   C1A 1422   9.480   7.469   7.201
   73POPC   D2A 1423   9.511   7.390   6.728
   73POPC   C3A 1424   9.332   7.095   6.383
   73POPC   C4A 1425   9.340   6.857   5.961
   73POPC   C1B 1426   9.972   7.343   7.232
   73POPC   C2B 1427  10.034   7.301   6.780
   73POPC   C3B 1428   9.850   7.218   6.372
   73POPC   C4B 1429   9.867   6.985   5.991
   74POPC   NC3 1430  10.513   3.926   8.106
   74POPC   PO4 1431  10.645   4.573   7.928
   74POPC   GL1 1432  10.719   4.420   7.563
   74POPC   GL2 1433  10.497   4.136   7.610
   74POPC   C1A 1434  10.728   4.293   7.148
   74POPC   D2A 1435  10.700   4.583   6.844
   74POPC   C3A 1436  10.645   4.437   6.459
   74POPC   C4A 1437  10.629   4.600   6.036
   74POPC   C1B 1438  10.364   3.932   7.252
   74POPC   C2B 1439  10.462   3.955   6.859
   74POPC   C3B 1440  10.231   4.155   6.583
   74POPC   C4B 1441  10.322   4.159   6.192
   75POPC   NC3 1442   4.878  10.369   8.156
   75POPC   PO4 1443   5.438  10.005   7.954
   75POPC   GL1 1444   5.302  10.289   7.639
   75POPC   GL2 1445   5.069  10.556   7.717
   75POPC   C1A 1446   5.190  10.246   7.187
   75POPC   D2A 1447   5.039  10.232   6.746
   75POPC   C3A 1448   4.975   9.926   6.373
   75POPC   C4A 1449   4.949   9.928   5.867
   75POPC   C1B 1450   4.762  10.505   7.351
   75POPC   C2B 1451   4.727  10.661   6.902
   75POPC   C3B 1452   4.884  10.608   6.453
   75POPC   C4B 1453   5.070  10.360   6.103
   76POPC   NC3 1454   7.587   8.236   8.031
   76POPC   PO4 1455   7.015   8.404   7.881
   76POPC   GL1 1456   7.239   8.537   7.533
   76POPC   GL2 1457   7.462   8.295   7.535
   76POPC   C1A 1458   7.251   8.551   7.074
   76POPC   D2A 1459   7.200   8.237   6.753
   76POPC   C3A 1460   7.079   8.339   6.356
   76POPC   C4A 1461   7.061   8.619   6.016
   76POPC   C1B 1462   7.345   8.040   7.210
   76POPC   C2B 1463   7.545   7.874   6.835
   76POPC   C3B 1464   7.414   7.912   6.381
   76POPC   C4B 1465   7.508   7.791   5.929
   77POPC   NC3 1466   2.482  11.112   8.273
   77POPC   PO4 1467   3.149  11.380   8.282
   77POPC   GL1 1468   2.919  11.333   7.805
   77POPC   GL2 1469   2.630  11.109   7.779
   77POPC   C1A 1470   2.888  11.461   7.354
   77POPC   D2A 1471   2.928  11.304   6.929
   77POPC   C3A 1472   2.698  11.467   6.576
   77POPC   C4A 1473   2.439  11.440   6.200
   77POPC   C1B 1474   2.816  10.948   7.398
   77POPC   C2B 1475   2.708  10.861   6.980
   77POPC   C3B 1476   2.790  10.965   6.557
   77POPC   C4B 1477   2.646  10.934   6.139
   78POPC   NC3 1478   7.808   0.640   8.030
   78POPC   PO4 1479   8.493   0.502   8.106
   78POPC   GL1 1480   8.273   0.556   7.738
   78POPC   GL2 1481   8.112   0.277   7.773
   78POPC   C1A 1482   8.379   0.480   7.329
   78POPC   D2A 1483   8.201   0.579   6.953
   78POPC   C3A 1484   8.430   0.474   6.584
   78POPC   C4A 1485   8.229   0.578   6.214
   78POPC   C1B 1486   7.865   0.383   7.406
   78POPC   C2B 1487   7.855   0.202   7.011
   78POPC   C3B 1488   7.848   0.423   6.602
   78POPC   C4B 1489   7.726   0.160   6.284
   79POPC   NC3 1490   2.070   0.499   8.065
   79POPC   PO4 1491   2.552   0.032   8.084
   79POPC   GL1 1492   2.194   0.102   7.766
   79POPC   GL2 1493   1.908   0.350   7.611
   79POPC   C1A 1494   2.139  11.484   7.353
   79POPC   D2A 1495   2.408  11.413   7.006
   79POPC   C3A 1496   2.202   0.123   6.632
   79POPC   C4A 1497   2.145   0.357   6.235
   79POPC   C1B 1498   1.886   0.389   7.140
   79POPC   C2B 1499   1.731   0.336   6.711
   79POPC   C3B 1500   1.703   0.616   6.351
   79POPC   C4B 1501   1.694   0.449   5.951
   80POPC   NC3 1502  10.820   3.258   8.287
   80POPC   PO4 1503  10.137   3.317   8.250
   80POPC   GL1 1504  10.327   3.336   7.761
   80POPC   GL2 1505  10.337   3.652   7.654
   80POPC   C1A 1506  10.627   3.065   7.472
   80POPC   D2A 1507  10.814   3.250   7.101
   80POPC   C3A 1508  10.810   3.115   6.663
   80POPC   C4A 1509  10.735   3.388   6.329
   80POPC   C1B 1510  10.332   3.425   7.249
   80POPC   C2B 1511  10.207   3.511   6.825
   80POPC   C3B 1512  10.274   3.659   6.398
   80POPC   C4B 1513  10.479   3.718   6.002
   81POPC   NC3 1514  10.796   6.729   7.906
   81POPC   PO4 1515  10.596   7.355   8.110
   81POPC   GL1 1516  10.457   7.169   7.721
   81POPC   GL2 1517  10.115   7.270   7.770
   81POPC   C1A 1518  10.494   7.199   7.241
   81POPC   D2A 1519  10.662   7.308   6.817
   81POPC   C3A 1520  10.419   7.149   6.483
   81POPC   C4A 1521  10.505   7.288   6.114
   81POPC   C1B 1522  10.316   7.610   7.488
   81POPC   C2B 1523  10.348   7.642   7.020
   81POPC   C3B 1524  10.363   7.667   6.566
   81POPC   C4B 1525  10.114   7.604   6.186
   82POPC   NC3 1526   0.520   9.894   7.910
   82POPC   PO4 1527   0.763   9.218   8.078
   82POPC   GL1 1528   0.664   9.445   7.722
   82POPC   GL2 1529   0.287   9.475   7.707
   82POPC   C1A 1530   0.840   9.432   7.308
   82POPC   D2A 1531   0.699   9.671   6.926
   82POPC   C3A 1532   0.496   9.539   6.543
   82POPC   C4A 1533   0.807   9.485   6.215
   82POPC   C1B 1534   0.340   9.569   7.290
   82POPC   C2B 1535   0.231   9.883   6.995
   82POPC   C3B 1536   0.031   9.884   6.614
   82POPC   C4B 1537   0.210   9.860   6.224
   83POPC   NC3 1538   3.328   2.007   8.103
   83POPC   PO4 1539   3.925   1.646   8.218
   83POPC   GL1 1540   3.681   1.703   7.707
   83POPC   GL2 1541   3.558   2.062   7.570
   83POPC   C1A 1542   3.419   1.691   7.308
   83POPC   D2A 1543   3.498   1.450   6.954
   83POPC   C3A 1544   3.351   1.525   6.571
   83POPC   C4A 1545   3.514   1.799   6.277
   83POPC   C1B 1546   3.402   2.216   7.188
   83POPC   C2B 1547   3.241   2.385   6.818
   83POPC   C3B 1548   3.380   2.277   6.417
   83POPC   C4B 1549   3.800   2.307   6.242
   84POPC   NC3 1550   6.655  10.703   7.955
   84POPC   PO4 1551   7.062  10.232   8.191
   84POPC   GL1 1552   6.874  10.272   7.752
   84POPC   GL2 1553   6.485  10.291   7.698
   84POPC   C1A 1554   6.818  10.503   7.343
   84POPC   D2A 1555   6.523  10.572   6.995
   84POPC   C3A 1556   6.571  10.472   6.547
   84POPC   C4A 1557   6.680  10.807   6.329
   84POPC   C1B 1558   6.492  10.124   7.267
   84POPC   C2B 1559   6.629  10.061   6.833
   84POPC   C3B 1560   6.471   9.971   6.394
   84POPC   C4B 1561   6.500   9.963   5.915
   85POPC   NC3 1562   9.716   2.639   7.956
   85POPC   PO4 1563   9.113   2.424   7.916
   85POPC   GL1 1564   9.274   2.769   7.645
   85POPC   GL2 1565   9.466   2.510   7.512
   85POPC   C1A 1566   9.343   3.068   7.254
   85POPC   D2A 1567   9.445   2.884   6.838
   85POPC   C3A 1568   9.483   3.011   6.416
   85POPC   C4A 1569   9.494   2.790   6.051
   85POPC   C1B 1570   9.719   2.745   7.238
   85POPC   C2B 1571   9.961   2.646   6.877
   85POPC   C3B 1572   9.967   2.709   6.443
   85POPC   C4B 1573   9.957   2.995   6.132
   86POPC   NC3 1574   0.191   9.139   8.073
   86POPC   PO4 1575   0.004   8.540   8.127
   86POPC   GL1 1576   0.235   8.704   7.728
   86POPC   GL2 1577   0.610   8.814   7.768
   86POPC   C1A 1578   0.463   8.595   7.315
   86POPC   D2A 1579   0.670   8.679   6.904
   86POPC   C3A 1580   0.371   8.769   6.584
   86POPC   C4A 1581   0.301   8.607   6.175
   86POPC   C1B 1582   0.475   9.085   7.418
   86POPC   C2B 1583   0.558   9.173   6.968
   86POPC   C3B 1584   0.761   9.100   6.558
   86POPC   C4B 1585   0.440   9.121   6.206
   87POPC   NC3 1586   6.244   2.415   8.136
   87POPC   PO4 1587   6.834   2.403   8.011
   87POPC   GL1 1588   6.758   2.258   7.615
   87POPC   GL2 1589   6.480   2.471   7.572
   87POPC   C1A 1590   6.726   2.267   7.153
   87POPC   D2A 1591   6.661   2.475   6.754
   87POPC   C3A 1592   6.576   2.336   6.344
   87POPC   C4A 1593   6.784   2.618   6.032
   87POPC   C1B 1594   6.441   2.710   7.159
   87POPC   C2B 1595   6.459   2.947   6.747
   87POPC   C3B 1596   6.383   2.805   6.320
   87POPC   C4B 1597   6.136   2.937   5.962
   88POPC   NC3 1598   5.821  10.260   7.843
   88POPC   PO4 1599   5.346  10.543   8.263
   88POPC   GL1 1600   5.548  10.718   7.814
   88POPC   GL2 1601   5.850  10.870   7.624
   88POPC   C1A 1602   5.548  10.615   7.313
   88POPC   D2A 1603   5.591  10.394   6.883
   88POPC   C3A 1604   5.392  10.517   6.466
   88POPC   C4A 1605   5.506  10.579   5.995
   88POPC   C1B 1606   6.096  10.559   7.315
   88POPC   C2B 1607   6.107  10.295   6.955
   88POPC   C3B 1608   6.044  10.419   6.567
   88POPC   C4B 1609   5.776  10.266   6.280
   89POPC   NC3 1610   1.148   1.900   7.981
   89POPC   PO4 1611   1.576   2.313   8.326
   89POPC   GL1 1612   1.606   2.054   7.823
   89POPC   GL2 1613   1.430   1.749   7.596
   89POPC   C1A 1614   1.468   2.173   7.358
   89POPC   D2A 1615   1.250   2.204   6.978
   89POPC   C3A 1616   1.468   2.210   6.596
   89POPC   C4A 1617   1.184   2.297   6.266
   89POPC   C1B 1618   1.116   1.751   7.277
   89POPC   C2B 1619   0.946   1.771   6.885
   89POPC   C3B 1620   1.165   1.823   6.539
   89POPC   C4B 1621   1.294   1.589   6.217
   90POPC   NC3 1622   6.113   0.734   7.997
   90POPC   PO4 1623   6.865   0.658   7.971
   90POPC   GL1 1624   6.760   0.538   7.570
   90POPC   GL2 1625   6.899   0.241   7.460
   90POPC   C1A 1626   6.690   0.638   7.137
   90POPC   D2A 1627   6.630   0.432   6.774
   90POPC   C3A 1628   6.859   0.599   6.460
   90POPC   C4A 1629   6.730   0.792   6.060
   90POPC   C1B 1630   6.487   0.182   7.256
   90POPC   C2B 1631   6.379  11.479   6.877
   90POPC   C3B 1632   6.208   0.206   6.550
   90POPC   C4B 1633   6.398   0.492   6.291
   91POPC   NC3 1634   4.233   2.107   8.312
   91POPC   PO4 1635   3.770   2.097   8.001
   91POPC   GL1 1636   4.058   2.049   7.623
   91POPC   GL2 1637   4.185   1.716   7.576
   91POPC   C1A 1638   3.865   1.924   7.199
   91POPC   D2A 1639   3.708   1.976   6.760
   91POPC   C3A 1640   4.069   1.942   6.458
   91POPC   C4A 1641   4.277   2.172   6.077
   91POPC   C1B 1642   4.377   1.878   7.202
   91POPC   C2B 1643   4.466   1.781   6.769
   91POPC   C3B 1644   4.568   1.837   6.334
   91POPC   C4B 1645   4.533   1.765   5.885
   92POPC   NC3 1646   7.530  11.186   7.916
   92POPC   PO4 1647   6.801  11.173   7.974
   92POPC   GL1 1648   6.983  10.951   7.593
   92POPC   GL2 1649   7.270  11.173   7.485
   92POPC   C1A 1650   7.091  10.873   7.124
   92POPC   D2A 1651   7.240  11.121   6.791
   92POPC   C3A 1652   7.046  11.144   6.416
   92POPC   C4A 1653   7.068  10.868   6.010
   92POPC   C1B 1654   7.598  11.175   7.159
   92POPC   C2B 1655   7.793  11.195   6.768
   92POPC   C3B 1656   7.609  11.128   6.375
   92POPC   C4B 1657   7.352  11.322   6.057
   93POPC   NC3 1658   0.445  10.460   8.134
   93POPC   PO4 1659   0.068   9.919   7.914
   93POPC   GL1 1660   0.207  10.016   7.509
   93POPC   GL2 1661   0.435  10.305   7.601
   93POPC   C1A 1662   0.124  10.342   7.192
   93POPC   D2A 1663   0.211  10.591   6.820
   93POPC   C3A 1664   0.279  10.318   6.486
   93POPC   C4A 1665   0.656  10.031   6.502
   93POPC   C1B 1666   0.572  10.580   7.239
   93POPC   C2B 1667   0.824  10.746   6.925
   93POPC   C3B 1668   0.719  10.611   6.549
   93POPC   C4B 1669   0.518  10.634   6.166
   94POPC   NC3 1670   4.622   0.523   8.143
   94POPC   PO4 1671   4.052   0.172   7.936
   94POPC   GL1 1672   4.248   0.338   7.568
   94POPC   GL2 1673   4.591   0.301   7.676
   94POPC   C1A 1674   4.114   0.387   7.117
   94POPC   D2A 1675   3.836   0.251   6.739
   94POPC   C3A 1676   4.014   0.410   6.310
   94POPC   C4A 1677   4.365   0.698   6.177
   94POPC   C1B 1678   4.643   0.154   7.250
   94POPC   C2B 1679   4.636   0.215   6.800
   94POPC   C3B 1680   4.504   0.190   6.377
   94POPC   C4B 1681   4.414  11.348   6.080
   95POPC   NC3 1682   7.113   2.043   7.945
   95POPC   PO4 1683   7.768   2.088   8.125
   95POPC   GL1 1684   7.567   2.152   7.674
   95POPC   GL2 1685   7.415   1.827   7.543
   95POPC   C1A 1686   7.587   2.154   7.184
   95POPC   D2A 1687   7.424   1.967   6.785
   95POPC   C3A 1688   7.505   2.138   6.376
   95POPC   C4A 1689   7.446   2.004   5.953
   95POPC   C1B 1690   7.106   1.923   7.184
   95POPC   C2B 1691   6.913   2.007   6.727
   95POPC   C3B 1692   6.995   2.046   6.258
   95POPC   C4B 1693   6.741   2.128   5.897
   96POPC   NC3 1694  11.134   4.294   8.042
   96POPC   PO4 1695  11.048   3.679   8.359
   96POPC   GL1 1696  11.155   3.812   7.834
   96POPC   GL2 1697  10.968   3.991   7.662
   96POPC   C1A 1698  11.330   3.797   7.352
   96POPC   D2A 1699  11.180   4.020   6.922
   96POPC   C3A 1700  11.248   3.957   6.443
   96POPC   C4A 1701  10.956   4.214   6.139
   96POPC   C1B 1702  11.179   4.288   7.376
   96POPC   C2B 1703  11.192   4.527   6.970
   96POPC   C3B 1704  11.149   4.438   6.556
   96POPC   C4B 1705  11.401   4.450   6.180
   97POPC   NC3 1706   8.017   1.692   8.081
   97POPC   PO4 1707   8.531   2.184   8.040
   97POPC   GL1 1708   8.533   1.845   7.742
   97POPC   GL2 1709   8.256   1.620   7.660
   97POPC   C1A 1710   8.520   1.811   7.294
   97POPC   D2A 1711   8.274   1.943   6.944
   97POPC   C3A 1712   8.425   1.880   6.509
   97POPC   C4A 1713   8.269   1.639   6.183
   97POPC   C1B 1714   7.954   1.833   7.408
   97POPC   C2B 1715   7.802   1.694   7.013
   97POPC   C3B 1716   7.892   1.837   6.604
   97POPC   C4B 1717   8.031   2.100   6.265
   98POPC   NC3 1718  11.029   5.904   8.260
   98POPC   PO4 1719   0.100   6.012   7.837
   98POPC   GL1 1720  11.314   5.842   7.578
   98POPC   GL2 1721  11.111   5.603   7.714
   98POPC   C1A 1722  11.328   5.748   7.144
   98POPC   D2A 1723  11.176   5.536   6.774
   98POPC   C3A 1724  11.213   5.755   6.384
   98POPC   C4A 1725  11.015   5.986   6.043
   98POPC   C1B 1726  10.890   5.441   7.351
   98POPC   C2B 1727  10.700   5.539   6.971
   98POPC   C3B 1728  10.739   5.385   6.542
   98POPC   C4B 1729  10.783   5.564   6.143
   99POPC   NC3 1730   1.507   6.483   8.275
   99POPC   PO4 1731   0.906   6.284   8.012
   99POPC   GL1 1732   1.177   6.387   7.686
   99POPC   GL2 1733   1.259   6.732   7.753
   99POPC   C1A 1734   1.151   6.247   7.258
   99POPC   D2A 1735   1.307   6.102   6.841
   99POPC   C3A 1736   1.176   6.269   6.429
   99POPC   C4A 1737   1.476   6.398   6.114
   99POPC   C1B 1738   0.988   6.720   7.339
   99POPC   C2B 1739   1.153   6.626   6.898
   99POPC   C3B 1740   1.295   6.771   6.471
   99POPC   C4B 1741   1.072   6.709   6.093
  100POPC   NC3 1742   1.353   4.410   8.042
  100POPC   PO4 1743   0.687   4.620   8.105
  100POPC   GL1 1744   0.922   4.420   7.694
  100POPC   GL2 1745   1.280   4.206   7.588
  100POPC   C1A 1746   0.867   4.151   7.318
  100POPC   D2A 1747   1.118   4.060   6.936
  100POPC   C3A 1748   0.868   4.205   6.562
  100POPC   C4A 1749   1.000   4.149   6.140
  100POPC   C1B 1750   1.306   4.455   7.248
  100POPC   C2B 1751   1.223   4.540   6.832
  100POPC   C3B 1752   1.343   4.350   6.458
  100POPC   C4B 1753   1.395   4.540   6.081
  101POPC   NC3 1754   7.334   9.858   8.130
  101POPC   PO4 1755   7.283   9.274   7.933
  101POPC   GL1 1756   7.547   9.416   7.622
  101POPC   GL2 1757   7.528   9.741   7.684
  101POPC   C1A 1758   7.459   9.484   7.154
  101POPC   D2A 1759   7.547   9.404   6.726
  101POPC   C3A 1760   7.288   9.646   6.429
  101POPC   C4A 1761   7.126   9.452   6.072
  101POPC   C1B 1762   7.253   9.921   7.343
  101POPC   C2B 1763   7.153   9.949   6.862
  101POPC   C3B 1764   7.001  10.105   6.426
  101POPC   C4B 1765   7.022   9.953   5.973
  102POPC   NC3 1766   2.120   8.566   7.991
  102POPC   PO4 1767   1.475   8.516   8.100
  102POPC   GL1 1768   1.655   8.516   7.726
  102POPC   GL2 1769   1.752   8.867   7.756
  102POPC   C1A 1770   1.519   8.675   7.331
  102POPC   D2A 1771   1.673   8.900   6.937
  102POPC   C3A 1772   1.653   8.718   6.499
  102POPC   C4A 1773   1.758   8.453   6.115
  102POPC   C1B 1774   2.009   8.798   7.395
  102POPC   C2B 1775   2.194   8.864   7.038
  102POPC   C3B 1776   2.141   8.880   6.641
  102POPC   C4B 1777   2.118   8.836   6.227
  103POPC   NC3 1778   2.988   6.512   8.066
  103POPC   PO4 1779   2.465   6.013   8.135
  103POPC   GL1 1780   2.452   6.188   7.678
  103POPC   GL2 1781   2.646   6.464   7.667
  103POPC   C1A 1782   2.510   6.178   7.219
  103POPC   D2A 1783   2.479   6.086   6.769
  103POPC   C3A 1784   2.872   6.233   6.514
  103POPC   C4A 1785   2.941   6.385   6.089
  103POPC   C1B 1786   2.578   6.678   7.258
  103POPC   C2B 1787   2.618   6.553   6.837
  103POPC   C3B 1788   2.619   6.648   6.405
  103POPC   C4B 1789   2.840   6.906   6.111
  104POPC   NC3 1790   7.697   1.412   8.456
  104POPC   PO4 1791   7.169   1.567   7.964
  104POPC   GL1 1792   7.299   1.312   7.596
  104POPC   GL2 1793   7.469   0.992   7.724
  104POPC   C1A 1794   7.348   1.457   7.137
  104POPC   D2A 1795   7.472   1.464   6.670
  104POPC   C3A 1796   7.261   1.605   6.249
  104POPC   C4A 1797   7.434   1.502   5.795
  104POPC   C1B 1798   7.551   0.989   7.278
  104POPC   C2B 1799   7.252   0.988   6.933
  104POPC   C3B 1800   7.108   1.085   6.519
  104POPC   C4B 1801   7.484   1.147   6.258
  105POPC   NC3 1802   3.772  10.360   8.223
  105POPC   PO4 1803   3.262   9.895   8.172
  105POPC   GL1 1804   3.342  10.099   7.773
  105POPC   GL2 1805   3.355  10.470   7.810
  105POPC   C1A 1806   3.232  10.030   7.339
  105POPC   D2A 1807   3.363  10.230   6.955
  105POPC   C3A 1808   3.223  10.094   6.552
  105POPC   C4A 1809   3.508  10.158   6.245
  105POPC   C1B 1810   3.507  10.489   7.375
  105POPC   C2B 1811   3.706  10.599   6.971
  105POPC   C3B 1812   3.570  10.617   6.532
  105POPC   C4B 1813   3.844  10.562   6.183
  106POPC   NC3 1814   0.636   6.708   7.999
  106POPC   PO4 1815   0.252   6.303   8.333
  106POPC   GL1 1816   0.220   6.509   7.849
  106POPC   GL2 1817   0.488   6.339   7.650
  106POPC   C1A 1818   0.193   6.636   7.362
  106POPC   D2A 1819   0.151   6.438   6.940
  106POPC   C3A 1820   0.250   6.622   6.527
  106POPC   C4A 1821   0.249   6.606   6.075
  106POPC   C1B 1822   0.615   6.384   7.214
  106POPC   C2B 1823   0.617   6.729   6.915
  106POPC   C3B 1824   0.791   6.685   6.525
  106POPC   C4B 1825   0.686   6.372   6.239
  107POPC   NC3 1826   5.840  10.560   8.291
  107POPC   PO4 1827   5.606  11.215   8.107
  107POPC   GL1 1828   5.447  11.221   7.676
  107POPC   GL2 1829   5.729  11.375   7.608
  107POPC   C1A 1830   5.553  11.125   7.223
  107POPC   D2A 1831   5.899  10.931   7.024
  107POPC   C3A 1832   5.743  10.827   6.649
  107POPC   C4A 1833   5.672  10.976   6.250
  107POPC   C1B 1834   6.022  11.382   7.299
  107POPC   C2B 1835   5.874  11.439   6.916
  107POPC   C3B 1836   5.966  11.266   6.565
  107POPC   C4B 1837   5.939  11.432   6.201
  108POPC   NC3 1838   9.942   3.614   7.965
  108POPC   PO4 1839   9.908   3.020   7.810
  108POPC   GL1 1840   9.885   3.290   7.488
  108POPC   GL2 1841   9.872   3.648   7.438
  108POPC   C1A 1842   9.840   3.232   7.080
  108POPC   D2A 1843   9.877   3.126   6.708
  108POPC   C3A 1844   9.814   3.425   6.388
  108POPC   C4A 1845   9.624   3.370   5.987
  108POPC   C1B 1846   9.483   3.568   7.180
  108POPC   C2B 1847   9.418   3.396   6.754
  108POPC   C3B 1848   9.296   3.580   6.337
  108POPC   C4B 1849   9.468   3.850   5.993
  109POPC   NC3 1850   2.030   4.611   8.066
  109POPC   PO4 1851   2.062   4.007   8.141
  109POPC   GL1 1852   1.795   4.156   7.790
  109POPC   GL2 1853   2.115   4.176   7.636
  109POPC   C1A 1854   1.718   4.136   7.312
  109POPC   D2A 1855   1.623   4.185   6.851
  109POPC   C3A 1856   1.844   4.415   6.485
  109POPC   C4A 1857   1.898   4.757   6.153
  109POPC   C1B 1858   2.187   3.895   7.276
  109POPC   C2B 1859   2.126   4.017   6.848
  109POPC   C3B 1860   2.286   4.127   6.417
  109POPC   C4B 1861   2.008   4.157   6.057
  110POPC   NC3 1862  10.173   8.420   8.061
  110POPC   PO4 1863  10.347   9.103   8.205
  110POPC   GL1 1864  10.269   8.856   7.792
  110POPC   GL2 1865  10.577   8.661   7.693
  110POPC   C1A 1866  10.193   8.542   7.403
  110POPC   D2A 1867  10.415   8.543   6.982
  110POPC   C3A 1868  10.244   8.584   6.554
  110POPC   C4A 1869  10.279   8.760   6.125
  110POPC   C1B 1870  10.546   8.902   7.339
  110POPC   C2B 1871  10.756   8.981   6.986
  110POPC   C3B 1872  10.678   8.872   6.575
  110POPC   C4B 1873  10.711   9.036   6.182
  111POPC   NC3 1874   0.501   0.533   8.146
  111POPC   PO4 1875   0.311  11.391   8.115
  111POPC   GL1 1876   0.510   0.079   7.723
  111POPC   GL2 1877   0.500   0.455   7.611
  111POPC   C1A 1878   0.469   0.039   7.262
  111POPC   D2A 1879   0.371   0.269   6.870
  111POPC   C3A 1880   0.374   0.053   6.440
  111POPC   C4A 1881   0.459   0.152   5.967
  111POPC   C1B 1882   0.334   0.759   7.264
  111POPC   C2B 1883   0.371   0.806   6.807
  111POPC   C3B 1884   0.544   0.580   6.483
  111POPC   C4B 1885   0.822   0.516   6.175
  112POPC   NC3 1886  10.601   9.565   8.054
  112POPC   PO4 1887   9.930   9.777   8.215
  112POPC   GL1 1888  10.205   9.774   7.810
  112POPC   GL2 1889  10.377   9.437   7.638
  112POPC   C1A 1890  10.245   9.825   7.347
  112POPC   D2A 1891   9.997   9.690   7.007
  112POPC   C3A 1892  10.173   9.637   6.614
  112POPC   C4A 1893   9.983   9.681   6.181
  112POPC   C1B 1894  10.315   9.337   7.207
  112POPC   C2B 1895  10.255   9.106   6.838
  112POPC   C3B 1896  10.313   9.204   6.421
  112POPC   C4B 1897  10.438   9.480   6.078
  113POPC   NC3 1898   9.560  10.003   8.387
  113POPC   PO4 1899   9.281   9.570   7.991
  113POPC   GL1 1900   9.653   9.667   7.770
  113POPC   GL2 1901   9.869   9.421   7.646
  113POPC   C1A 1902   9.631   9.839   7.344
  113POPC   D2A 1903   9.484   9.709   6.934
  113POPC   C3A 1904   9.721   9.894   6.591
  113POPC   C4A 1905   9.530   9.919   6.196
  113POPC   C1B 1906   9.585   9.344   7.347
  113POPC   C2B 1907   9.752   9.257   6.966
  113POPC   C3B 1908   9.732   9.390   6.586
  113POPC   C4B 1909   9.565   9.356   6.222
  114POPC   NC3 1910  10.196  10.287   8.120
  114POPC   PO4 1911  10.846  10.115   8.281
  114POPC   GL1 1912  10.616  10.405   7.840
  114POPC   GL2 1913  10.337  10.254   7.639
  114POPC   C1A 1914  10.721  10.414   7.351
  114POPC   D2A 1915  10.504  10.433   6.954
  114POPC   C3A 1916  10.693  10.507   6.557
  114POPC   C4A 1917  10.767  10.197   6.311
  114POPC   C1B 1918  10.241  10.603   7.371
  114POPC   C2B 1919  10.052  10.696   6.968
  114POPC   C3B 1920  10.198  10.606   6.550
  114POPC   C4B 1921  10.376  10.453   6.126
  115POPC   NC3 1922  10.661   7.838   8.014
  115POPC   PO4 1923   9.984   7.973   8.028
  115POPC   GL1 1924  10.137   8.058   7.641
  115POPC   GL2 1925  10.470   8.145   7.641
  115POPC   C1A 1926  10.203   8.076   7.212
  115POPC   D2A 1927  10.004   8.253   6.895
  115POPC   C3A 1928  10.065   8.081   6.510
  115POPC   C4A 1929  10.081   8.287   6.146
  115POPC   C1B 1930  10.694   7.908   7.304
  115POPC   C2B 1931  10.616   8.060   6.877
  115POPC   C3B 1932  10.555   8.183   6.462
  115POPC   C4B 1933  10.507   7.908   6.119
  116POPC   NC3 1934  11.478   7.459   7.943
  116POPC   PO4 1935   0.626   7.168   7.999
  116POPC   GL1 1936   0.401   7.354   7.668
  116POPC   GL2 1937   0.180   7.048   7.670
  116POPC   C1A 1938   0.338   7.588   7.247
  116POPC   D2A 1939   0.072   7.584   6.849
  116POPC   C3A 1940   0.314   7.574   6.450
  116POPC   C4A 1941   0.656   7.432   6.172
  116POPC   C1B 1942   0.478   7.067   7.276
  116POPC   C2B 1943   0.503   7.274   6.863
  116POPC   C3B 1944   0.481   7.079   6.486
  116POPC   C4B 1945   0.648   6.947   6.088
  117POPC   NC3 1946   8.463   9.784   8.099
  117POPC   PO4 1947   7.752   9.662   8.215
  117POPC   GL1 1948   8.046   9.564   7.835
  117POPC   GL2 1949   8.031   9.877   7.738
  117POPC   C1A 1950   8.357   9.609   7.426
  117POPC   D2A 1951   8.459   9.654   6.945
  117POPC   C3A 1952   8.234   9.513   6.532
  117POPC   C4A 1953   8.160   9.721   6.172
  117POPC   C1B 1954   7.879   9.695   7.333
  117POPC   C2B 1955   7.947   9.714   6.898
  117POPC   C3B 1956   7.776   9.806   6.493
  117POPC   C4B 1957   7.722   9.431   6.216
  118POPC   NC3 1958   3.643   0.462   7.945
  118POPC   PO4 1959   3.721   1.111   7.843
  118POPC   GL1 1960   3.655   0.747   7.515
  118POPC   GL2 1961   3.733   0.372   7.472
  118POPC   C1A 1962   3.618   0.635   7.075
  118POPC   D2A 1963   3.358   0.489   6.772
  118POPC   C3A 1964   3.612   0.686   6.485
  118POPC   C4A 1965   3.645   0.752   6.041
  118POPC   C1B 1966   3.371   0.200   7.217
  118POPC   C2B 1967   3.402  11.462   6.864
  118POPC   C3B 1968   3.226   0.025   6.497
  118POPC   C4B 1969   3.349   0.362   6.228
  119POPC   NC3 1970  11.288   2.376   8.228
  119POPC   PO4 1971  10.755   2.731   8.236
  119POPC   GL1 1972  10.953   2.568   7.864
  119POPC   GL2 1973  11.303   2.715   7.850
  119POPC   C1A 1974  10.997   2.669   7.429
  119POPC   D2A 1975  10.825   2.750   7.039
  119POPC   C3A 1976  10.909   2.425   6.777
  119POPC   C4A 1977  10.918   2.401   6.326
  119POPC   C1B 1978  11.495   2.693   7.457
  119POPC   C2B 1979  11.346   2.684   7.023
  119POPC   C3B 1980  11.216   2.805   6.631
  119POPC   C4B 1981  11.432   2.728   6.288
  120POPC   NC3 1982   8.076  11.387   8.122
  120POPC   PO4 1983   7.723  10.867   8.209
  120POPC   GL1 1984   7.993  11.100   7.727
  120POPC   GL2 1985   7.830  11.383   7.564
  120POPC   C1A 1986   8.080  11.002   7.257
  120POPC   D2A 1987   8.292  11.112   6.854
  120POPC   C3A 1988   8.158  11.074   6.390
  120POPC   C4A 1989   8.003  10.814   6.057
  120POPC   C1B 1990   8.216  11.488   7.373
  120POPC   C2B 1991   8.379   0.099   6.983
  120POPC   C3B 1992   8.167   0.038   6.609
  120POPC   C4B 1993   8.243   0.062   6.201
  121POPC   NC3 1994   5.996   1.553   8.097
  121POPC   PO4 1995   5.332   1.565   8.097
  121POPC   GL1 1996   5.666   1.418   7.737
  121POPC   GL2 1997   5.904   1.106   7.689
  121POPC   C1A 1998   5.911   1.438   7.330
  121POPC   D2A 1999   5.783   1.342   6.926
  121POPC   C3A 2000   5.965   1.331   6.520
  121POPC   C4A 2001   5.746   1.299   6.099
  121POPC   C1B 2002   5.856   0.920   7.238
  121POPC   C2B 2003   5.582   0.884   6.871
  121POPC   C3B 2004   5.664   0.935   6.434
  121POPC   C4B 2005   6.103   0.962   6.185
  122POPC   NC3 2006  10.787   1.578   7.894
  122POPC   PO4 2007  11.388   1.935   8.113
  122POPC   GL1 2008  11.320   2.169   7.740
  122POPC   GL2 2009  11.203   1.835   7.592
  122POPC   C1A 2010  11.303   2.250   7.297
  122POPC   D2A 2011  11.474   2.126   6.918
  122POPC   C3A 2012  11.382   2.307   6.571
  122POPC   C4A 2013  11.372   2.242   6.152
  122POPC   C1B 2014  11.138   1.787   7.133
  122POPC   C2B 2015  11.025   1.940   6.721
  122POPC   C3B 2016  11.003   1.860   6.285
  122POPC   C4B 2017  10.902   1.680   5.873
  123POPC   NC3 2018   1.281   3.476   8.011
  123POPC   PO4 2019   1.072   4.051   8.006
  123POPC   GL1 2020   0.970   3.769   7.678
  123POPC   GL2 2021   1.303   3.652   7.525
  123POPC   C1A 2022   0.861   3.572   7.286
  123POPC   D2A 2023   1.120   3.531   6.923
  123POPC   C3A 2024   0.986   3.696   6.542
  123POPC   C4A 2025   1.146   3.660   6.135
  123POPC   C1B 2026   1.386   3.249   7.270
  123POPC   C2B 2027   1.506   3.188   6.807
  123POPC   C3B 2028   1.249   3.245   6.426
  123POPC   C4B 2029   1.330   3.203   5.940
  124POPC   NC3 2030   9.274  10.024   7.883
  124POPC   PO4 2031   9.764  10.402   8.263
  124POPC   GL1 2032   9.820  10.473   7.767
  124POPC   GL2 2033   9.832  10.139   7.727
  124POPC   C1A 2034   9.609  10.576   7.320
  124POPC   D2A 2035   9.548  10.234   6.961
  124POPC   C3A 2036   9.444  10.316   6.512
  124POPC   C4A 2037   9.371  10.701   6.338
  124POPC   C1B 2038   9.950  10.217   7.285
  124POPC   C2B 2039  10.084  10.167   6.868
  124POPC   C3B 2040  10.250  10.104   6.468
  124POPC   C4B 2041   9.924  10.238   6.225
  125POPC   NC3 2042  11.053   0.628   7.972
  125POPC   PO4 2043   0.159   0.843   8.087
  125POPC   GL1 2044   0.018   0.543   7.734
  125POPC   GL2 2045  11.308   0.231   7.745
  125POPC   C1A 2046   0.048   0.348   7.304
  125POPC   D2A 2047  11.414   0.553   6.926
  125POPC   C3A 2048   0.045   0.500   6.524
  125POPC   C4A 2049  11.493   0.254   6.194
  125POPC   C1B 2050  11.036   0.311   7.366
  125POPC   C2B 2051  10.933   0.238   6.936
  125POPC   C3B 2052  11.062   0.303   6.522
  125POPC   C4B 2053  11.054   0.521   6.186
  126POPC   NC3 2054   0.499   6.042   8.059
  126POPC   PO4 2055  11.429   5.671   8.243
  126POPC   GL1 2056   0.122   5.483   7.789
  126POPC   GL2 2057   0.470   5.640   7.743
  126POPC   C1A 2058   0.300   5.536   7.304
  126POPC   D2A 2059   0.325   5.862   7.006
  126POPC   C3A 2060   0.194   5.658   6.634
  126POPC   C4A 2061   0.379   5.604   6.245
  126POPC   C1B 2062   0.689   5.909   7.423
  126POPC   C2B 2063   0.841   5.943   6.996
  126POPC   C3B 2064   0.755   5.894   6.555
  126POPC   C4B 2065   0.817   5.887   6.121
  127POPC   NC3 2066  10.370   5.990   8.051
  127POPC   PO4 2067  10.894   6.365   8.207
  127POPC   GL1 2068  10.859   6.041   7.806
  127POPC   GL2 2069  10.603   5.752   7.683
  127POPC   C1A 2070  10.888   5.950   7.331
  127POPC   D2A 2071  10.961   5.984   6.873
  127POPC   C3A 2072  10.728   5.897   6.523
  127POPC   C4A 2073  10.568   6.209   6.214
  127POPC   C1B 2074  10.392   5.865   7.306
  127POPC   C2B 2075  10.339   5.921   6.888
  127POPC   C3B 2076  10.176   6.039   6.519
  127POPC   C4B 2077  10.314   5.766   6.259
  128POPC   NC3 2078   2.079   6.332   7.986
  128POPC   PO4 2079   1.729   6.846   8.096
  128POPC   GL1 2080   1.776   6.739   7.647
  128POPC   GL2 2081   1.691   6.425   7.661
  128POPC   C1A 2082   1.626   6.623   7.187
  128POPC   D2A 2083   1.644   6.497   6.729
  128POPC   C3A 2084   1.818   6.784   6.405
  128POPC   C4A 2085   2.241   6.957   6.311
  128POPC   C1B 2086   2.051   6.364   7.366
  128POPC   C2B 2087   2.139   6.433   6.975
  128POPC   C3B 2088   2.154   6.425   6.549
  128POPC   C4B 2089   1.986   6.365   6.140
  129POPC   NC3 2090  10.317   2.947   8.050
  129POPC   PO4 2091  10.039   2.328   8.129
  129POPC   GL1 2092  10.282   2.511   7.809
  129POPC   GL2 2093  10.050   2.587   7.579
  129POPC   C1A 2094  10.513   2.545   7.406
  129POPC   D2A 2095  10.426   2.421   6.969
  129POPC   C3A 2096  10.487   2.638   6.552
  129POPC   C4A 2097  10.318   2.519   6.127
  129POPC   C1B 2098  10.196   2.906   7.261
  129POPC   C2B 2099  10.366   3.015   6.905
  129POPC   C3B 2100  10.317   3.135   6.482
  129POPC   C4B 2101  10.484   3.006   6.124
  130POPC   NC3 2102   4.328  10.549   7.866
  130POPC   PO4 2103   3.708  10.784   8.063
  130POPC   GL1 2104   3.860  10.640   7.704
  130POPC   GL2 2105   3.848  10.291   7.724
  130POPC   C1A 2106   4.046  10.852   7.347
  130POPC   D2A 2107   4.254  10.894   6.977
  130POPC   C3A 2108   4.093  10.727   6.627
  130POPC   C4A 2109   4.363  10.653   6.284
  130POPC   C1B 2110   4.013  10.333   7.297
  130POPC   C2B 2111   4.206  10.297   6.891
  130POPC   C3B 2112   4.530  10.283   6.583
  130POPC   C4B 2113   4.587  10.188   6.147
  131POPC   NC3 2114   0.951   5.007   8.116
  131POPC   PO4 2115   1.609   4.795   8.039
  131POPC   GL1 2116   1.261   4.805   7.657
  131POPC   GL2 2117   1.029   5.089   7.635
  131POPC   C1A 2118   0.990   4.843   7.212
  131POPC   D2A 2119   0.912   4.960   6.777
  131POPC   C3A 2120   0.986   4.715   6.413
  131POPC   C4A 2121   1.110   4.968   6.135
  131POPC   C1B 2122   1.321   5.215   7.297
  131POPC   C2B 2123   1.417   5.005   6.915
  131POPC   C3B 2124   1.485   4.881   6.491
  131POPC   C4B 2125   1.475   5.270   6.287
  132POPC   NC3 2126   5.330   2.018   8.061
  132POPC   PO4 2127   5.974   2.039   8.125
  132POPC   GL1 2128   5.932   1.875   7.680
  132POPC   GL2 2129   5.584   1.909   7.627
  132POPC   C1A 2130   5.870   1.918   7.192
  132POPC   D2A 2131   5.917   1.804   6.739
  132POPC   C3A 2132   6.095   2.126   6.455
  132POPC   C4A 2133   5.988   2.495   6.214
  132POPC   C1B 2134   5.410   1.616   7.325
  132POPC   C2B 2135   5.291   1.445   6.911
  132POPC   C3B 2136   5.477   1.507   6.486
  132POPC   C4B 2137   5.799   1.779   6.221
  133POPC   NC3 2138  11.489  11.243   7.808
  133POPC   PO4 2139   0.184  10.836   8.296
  133POPC   GL1 2140   0.225  10.787   7.771
  133POPC   GL2 2141   0.427  11.061   7.619
  133POPC   C1A 2142   0.119  10.863   7.274
  133POPC   D2A 2143  11.456  11.032   6.841
  133POPC   C3A 2144   0.180  10.932   6.408
  133POPC   C4A 2145   0.145  10.816   5.898
  133POPC   C1B 2146   0.730  11.084   7.302
  133POPC   C2B 2147   0.815  11.288   6.924
  133POPC   C3B 2148   0.667  11.130   6.532
  133POPC   C4B 2149   0.512  11.153   6.090
  134POPC   NC3 2150   2.271   3.601   8.077
  134POPC   PO4 2151   1.665   3.242   7.967
  134POPC   GL1 2152   1.915   3.300   7.600
  134POPC   GL2 2153   1.947   3.662   7.655
  134POPC   C1A 2154   1.862   3.083   7.184
  134POPC   D2A 2155   1.999   3.005   6.767
  134POPC   C3A 2156   1.926   3.352   6.487
  134POPC   C4A 2157   1.639   3.506   6.184
  134POPC   C1B 2158   1.735   3.622   7.238
  134POPC   C2B 2159   1.645   3.679   6.797
  134POPC   C3B 2160   1.851   3.868   6.448
  134POPC   C4B 2161   2.179   3.689   6.149
  135POPC   NC3 2162   1.596   2.880   8.236
  135POPC   PO4 2163   2.223   2.445   8.078
  135POPC   GL1 2164   1.927   2.459   7.777
  135POPC   GL2 2165   1.865   2.806   7.796
  135POPC   C1A 2166   1.787   2.564   7.346
  135POPC   D2A 2167   1.808   2.324   6.968
  135POPC   C3A 2168   1.824   2.559   6.585
  135POPC   C4A 2169   1.646   2.491   6.182
  135POPC   C1B 2170   2.194   2.821   7.481
  135POPC   C2B 2171   2.279   2.519   7.105
  135POPC   C3B 2172   2.319   2.516   6.630
  135POPC   C4B 2173   2.166   2.822   6.311
  136POPC   NC3 2174   2.756   8.898   8.028
  136POPC   PO4 2175   2.497   8.432   7.780
  136POPC   GL1 2176   2.447   8.899   7.615
  136POPC   GL2 2177   2.755   9.119   7.560
  136POPC   C1A 2178   2.370   9.250   7.280
  136POPC   D2A 2179   2.547   9.200   6.850
  136POPC   C3A 2180   2.559   9.072   6.408
  136POPC   C4A 2181   2.585   8.859   5.977
  136POPC   C1B 2182   2.683   8.814   7.185
  136POPC   C2B 2183   2.578   8.631   6.752
  136POPC   C3B 2184   2.846   8.656   6.378
  136POPC   C4B 2185   3.063   9.056   6.229
  137POPC   NC3 2186   1.997   2.050   8.205
  137POPC   PO4 2187   1.521   1.571   8.051
  137POPC   GL1 2188   1.895   1.655   7.780
  137POPC   GL2 2189   2.133   1.940   7.733
  137POPC   C1A 2190   1.851   1.592   7.342
  137POPC   D2A 2191   1.589   1.807   7.007
  137POPC   C3A 2192   1.674   1.702   6.561
  137POPC   C4A 2193   1.728   1.966   6.180
  137POPC   C1B 2194   1.978   2.076   7.377
  137POPC   C2B 2195   2.091   1.888   6.973
  137POPC   C3B 2196   2.018   2.081   6.576
  137POPC   C4B 2197   2.127   2.307   6.193
  138POPC   NC3 2198   1.633  11.053   8.417
  138POPC   PO4 2199   1.732   0.163   8.061
  138POPC   GL1 2200   1.753  11.326   7.743
  138POPC   GL2 2201   2.064  11.099   7.800
  138POPC   C1A 2202   1.675  11.200   7.309
  138POPC   D2A 2203   1.892  11.311   6.927
  138POPC   C3A 2204   1.750  11.198   6.525
  138POPC   C4A 2205   1.736   0.040   6.253
  138POPC   C1B 2206   2.285  11.006   7.406
  138POPC   C2B 2207   2.211  10.891   6.978
  138POPC   C3B 2208   2.284  11.103   6.605
  138POPC   C4B 2209   2.150  11.035   6.213
  139POPC   NC3 2210   4.508  11.474   8.065
  139POPC   PO4 2211   4.707  10.785   8.028
  139POPC   GL1 2212   4.463  11.028   7.744
  139POPC   GL2 2213   4.114  11.117   7.817
  139POPC   C1A 2214   4.604  11.006   7.324
  139POPC   D2A 2215   4.723  11.205   6.958
  139POPC   C3A 2216   4.544  11.054   6.586
  139POPC   C4A 2217   4.749  11.021   6.233
  139POPC   C1B 2218   4.245  11.342   7.412
  139POPC   C2B 2219   4.243  11.411   6.963
  139POPC   C3B 2220   4.144  11.368   6.541
  139POPC   C4B 2221   4.049  11.047   6.240
  140POPC   NC3 2222   9.476   1.193   8.060
  140POPC   PO4 2223  10.052   1.329   8.090
  140POPC   GL1 2224   9.771   1.414   7.698
  140POPC   GL2 2225   9.551   1.097   7.583
  140POPC   C1A 2226   9.670   1.470   7.243
  140POPC   D2A 2227   9.357   1.460   6.887
  140POPC   C3A 2228   9.516   1.438   6.466
  140POPC   C4A 2229   9.869   1.421   6.218
  140POPC   C1B 2230   9.647   0.966   7.184
  140POPC   C2B 2231   9.721   1.110   6.787
  140POPC   C3B 2232   9.781   0.955   6.379
  140POPC   C4B 2233   9.424   0.872   6.125
  141POPC   NC3 2234   2.840  10.064   8.302
  141POPC   PO4 2235   2.630  10.673   8.119
  141POPC   GL1 2236   2.666  10.538   7.691
  141POPC   GL2 2237   2.855  10.229   7.659
  141POPC   C1A 2238   2.455  10.543   7.301
  141POPC   D2A 2239   2.513  10.379   6.906
  141POPC   C3A 2240   2.435  10.607   6.566
  141POPC   C4A 2241   2.523  10.404   6.212
  141POPC   C1B 2242   2.960  10.459   7.235
  141POPC   C2B 2243   2.989  10.513   6.758
  141POPC   C3B 2244   3.019  10.551   6.325
  141POPC   C4B 2245   2.961  10.187   6.107
  142POPC   NC3 2246   6.931   0.164   7.963
  142POPC   PO4 2247   7.677   0.140   8.006
  142POPC   GL1 2248   7.395   0.163   7.651
  142POPC   GL2 2249   7.294   0.493   7.727
  142POPC   C1A 2250   7.323   0.111   7.187
  142POPC   D2A 2251   7.446   0.082   6.726
  142POPC   C3A 2252   7.213   0.204   6.360
  142POPC   C4A 2253   7.402   0.302   5.911
  142POPC   C1B 2254   7.192   0.626   7.314
  142POPC   C2B 2255   7.150   0.492   6.884
  142POPC   C3B 2256   7.388   0.647   6.536
  142POPC   C4B 2257   7.225   0.719   6.146
  143POPC   NC3 2258   2.943   9.676   7.885
  143POPC   PO4 2259   2.401   9.980   8.140
  143POPC   GL1 2260   2.390   9.959   7.695
  143POPC   GL2 2261   2.508   9.617   7.601
  143POPC   C1A 2262   2.573  10.031   7.281
  143POPC   D2A 2263   2.884  10.033   6.948
  143POPC   C3A 2264   2.685  10.035   6.530
  143POPC   C4A 2265   2.424   9.868   6.162
  143POPC   C1B 2266   2.818   9.570   7.226
  143POPC   C2B 2267   2.878   9.570   6.758
  143POPC   C3B 2268   2.787   9.552   6.332
  143POPC   C4B 2269   2.716   9.334   5.970
  144POPC   NC3 2270   1.651   7.295   8.006
  144POPC   PO4 2271   1.933   7.828   8.342
  144POPC   GL1 2272   1.870   7.853   7.857
  144POPC   GL2 2273   2.054   8.126   7.732
  144POPC   C1A 2274   1.776   7.811   7.371
  144POPC   D2A 2275   1.916   7.949   6.915
  144POPC   C3A 2276   1.758   7.734   6.502
  144POPC   C4A 2277   1.769   7.865   6.051
  144POPC   C1B 2278   1.905   8.306   7.320
  144POPC   C2B 2279   1.973   8.454   6.877
  144POPC   C3B 2280   2.130   8.373   6.464
  144POPC   C4B 2281   2.228   8.110   6.094
  145POPC   NC3 2282   2.581   2.787   8.093
  145POPC   PO4 2283   3.083   2.379   8.284
  145POPC   GL1 2284   2.893   2.651   7.746
  145POPC   GL2 2285   2.573   2.509   7.637
  145POPC   C1A 2286   2.917   2.426   7.257
  145POPC   D2A 2287   2.752   2.515   6.872
  145POPC   C3A 2288   2.865   2.391   6.466
  145POPC   C4A 2289   3.046   2.459   6.082
  145POPC   C1B 2290   2.652   2.840   7.288
  145POPC   C2B 2291   2.498   2.944   6.868
  145POPC   C3B 2292   2.693   2.869   6.434
  145POPC   C4B 2293   2.535   2.979   5.982
  146POPC   NC3 2294  11.244   1.542   8.331
  146POPC   PO4 2295  10.846   1.100   8.019
  146POPC   GL1 2296  11.109   1.233   7.652
  146POPC   GL2 2297  11.443   1.076   7.688
  146POPC   C1A 2298  11.091   1.284   7.185
  146POPC   D2A 2299  11.147   1.454   6.732
  146POPC   C3A 2300  10.994   1.307   6.366
  146POPC   C4A 2301  10.672   1.005   6.402
  146POPC   C1B 2302  11.278   0.819   7.346
  146POPC   C2B 2303  10.983   0.809   6.979
  146POPC   C3B 2304  11.146   0.854   6.562
  146POPC   C4B 2305  11.419   0.876   6.192
  147POPC   NC3 2306   1.915   1.272   8.112
  147POPC   PO4 2307   2.334   1.730   8.150
  147POPC   GL1 2308   2.323   1.417   7.751
  147POPC   GL2 2309   2.118   1.097   7.684
  147POPC   C1A 2310   2.431   1.457   7.278
  147POPC   D2A 2311   2.384   1.262   6.837
  147POPC   C3A 2312   2.206   1.598   6.544
  147POPC   C4A 2313   1.967   1.526   6.140
  147POPC   C1B 2314   2.047   1.122   7.237
  147POPC   C2B 2315   1.874   1.350   6.890
  147POPC   C3B 2316   1.871   1.183   6.489
  147POPC   C4B 2317   1.584   1.152   6.151
  148POPC   NC3 2318  11.471  11.230   8.407
  148POPC   PO4 2319  11.238  10.863   7.896
  148POPC   GL1 2320  11.147  11.054   7.498
  148POPC   GL2 2321  10.971  11.340   7.670
  148POPC   C1A 2322  11.322  11.392   7.207
  148POPC   D2A 2323  11.412   0.050   6.786
  148POPC   C3A 2324  11.343  11.311   6.394
  148POPC   C4A 2325   0.058  11.301   5.973
  148POPC   C1B 2326  10.801  11.337   7.281
  148POPC   C2B 2327  10.960  11.210   6.915
  148POPC   C3B 2328  10.866  11.341   6.558
  148POPC   C4B 2329  10.839  11.149   6.207
  149POPC   NC3 2330   5.194   8.826   8.081
  149POPC   PO4 2331   4.632   8.457   8.098
  149POPC   GL1 2332   4.842   8.655   7.710
  149POPC   GL2 2333   4.861   9.030   7.726
  149POPC   C1A 2334   5.059   8.802   7.310
  149POPC   D2A 2335   4.928   8.959   6.904
  149POPC   C3A 2336   4.997   8.791   6.512
  149POPC   C4A 2337   4.686   8.474   6.390
  149POPC   C1B 2338   4.862   9.281   7.331
  149POPC   C2B 2339   4.732   9.420   6.918
  149POPC   C3B 2340   4.858   9.383   6.486
  149POPC   C4B 2341   5.101   9.494   6.102
  150POPC   NC3 2342   4.358   9.562   8.082
  150POPC   PO4 2343   4.442  10.160   8.073
  150POPC   GL1 2344   4.191   9.909   7.717
  150POPC   GL2 2345   4.102   9.528   7.648
  150POPC   C1A 2346   4.240   9.864   7.253
  150POPC   D2A 2347   4.536   9.884   6.898
  150POPC   C3A 2348   4.319   9.838   6.496
  150POPC   C4A 2349   4.073  10.090   6.222
  150POPC   C1B 2350   4.336   9.356   7.288
  150POPC   C2B 2351   4.211   9.478   6.867
  150POPC   C3B 2352   4.195   9.349   6.439
  150POPC   C4B 2353   4.123   9.537   6.044
  151POPC   NC3 2354   8.962   1.987   8.025
  151POPC   PO4 2355   9.187   1.434   7.791
  151POPC   GL1 2356   8.999   1.718   7.561
  151POPC   GL2 2357   8.982   2.088   7.538
  151POPC   C1A 2358   9.015   1.712   7.159
  151POPC   D2A 2359   8.765   1.750   6.854
  151POPC   C3A 2360   9.016   1.711   6.537
  151POPC   C4A 2361   8.817   1.778   6.169
  151POPC   C1B 2362   8.838   2.188   7.134
  151POPC   C2B 2363   9.103   2.151   6.776
  151POPC   C3B 2364   9.084   2.199   6.333
  151POPC   C4B 2365   8.694   2.317   6.135
  152POPC   NC3 2366  10.563  11.320   7.998
  152POPC   PO4 2367  10.252  10.753   8.024
  152POPC   GL1 2368  10.408  10.994   7.636
  152POPC   GL2 2369  10.356  11.348   7.557
  152POPC   C1A 2370  10.385  11.050   7.170
  152POPC   D2A 2371  10.557  10.921   6.837
  152POPC   C3A 2372  10.418  11.109   6.541
  152POPC   C4A 2373  10.368  10.940   6.192
  152POPC   C1B 2374  10.012   0.018   7.366
  152POPC   C2B 2375   9.996   0.174   6.972
  152POPC   C3B 2376  10.048   0.044   6.559
  152POPC   C4B 2377  10.218  11.414   6.186
  153POPC   NC3 2378   2.000   9.534   8.184
  153POPC   PO4 2379   2.315   8.985   8.093
  153POPC   GL1 2380   2.096   9.255   7.733
  153POPC   GL2 2381   1.969   9.611   7.694
  153POPC   C1A 2382   1.849   9.270   7.324
  153POPC   D2A 2383   1.976   9.325   6.889
  153POPC   C3A 2384   1.872   9.247   6.437
  153POPC   C4A 2385   2.222   9.344   6.153
  153POPC   C1B 2386   1.806   9.792   7.329
  153POPC   C2B 2387   2.061   9.851   6.965
  153POPC   C3B 2388   2.176   9.678   6.573
  153POPC   C4B 2389   1.924   9.740   6.222
  154POPC   NC3 2390   6.069  11.266   7.947
  154POPC   PO4 2391   6.188  10.648   7.939
  154POPC   GL1 2392   6.368  10.934   7.597
  154POPC   GL2 2393   6.502  11.292   7.589
  154POPC   C1A 2394   6.409  11.042   7.166
  154POPC   D2A 2395   6.664  11.043   6.802
  154POPC   C3A 2396   6.287  10.887   6.637
  154POPC   C4A 2397   6.150  10.842   6.228
  154POPC   C1B 2398   6.839  11.306   7.231
  154POPC   C2B 2399   6.926   0.021   6.834
  154POPC   C3B 2400   6.713   0.060   6.435
  154POPC   C4B 2401   6.424  11.265   6.287
  155POPC   NC3 2402   8.378   8.787   8.100
  155POPC   PO4 2403   8.996   8.790   8.146
  155POPC   GL1 2404   8.799   8.938   7.764
  155POPC   GL2 2405   8.587   8.681   7.630
  155POPC   C1A 2406   8.763   9.096   7.341
  155POPC   D2A 2407   8.612   8.857   6.985
  155POPC   C3A 2408   8.474   9.097   6.667
  155POPC   C4A 2409   8.687   9.240   6.310
  155POPC   C1B 2410   8.990   8.634   7.381
  155POPC   C2B 2411   9.070   8.654   6.924
  155POPC   C3B 2412   8.931   8.878   6.569
  155POPC   C4B 2413   8.810   8.765   6.138
  156POPC   NC3 2414   4.104   1.349   7.919
  156POPC   PO4 2415   4.640   0.978   8.011
  156POPC   GL1 2416   4.544   1.226   7.658
  156POPC   GL2 2417   4.467   0.913   7.482
  156POPC   C1A 2418   4.389   1.353   7.241
  156POPC   D2A 2419   4.364   1.088   6.893
  156POPC   C3A 2420   4.399   1.319   6.553
  156POPC   C4A 2421   4.439   1.361   6.167
  156POPC   C1B 2422   4.059   0.919   7.271
  156POPC   C2B 2423   3.851   1.051   6.876
  156POPC   C3B 2424   4.049   0.949   6.486
  156POPC   C4B 2425   4.039   1.072   6.052
  157POPC   NC3 2426   0.889   8.129   3.978
  157POPC   PO4 2427   1.446   7.766   3.942
  157POPC   GL1 2428   1.305   8.001   4.297
  157POPC   GL2 2429   1.246   8.348   4.297
  157POPC   C1A 2430   1.360   7.991   4.740
  157POPC   D2A 2431   1.284   7.647   5.016
  157POPC   C3A 2432   1.295   7.873   5.378
  157POPC   C4A 2433   1.334   7.754   5.786
  157POPC   C1B 2434   0.937   8.252   4.641
  157POPC   C2B 2435   0.898   7.995   5.009
  157POPC   C3B 2436   0.840   8.105   5.436
  157POPC   C4B 2437   1.080   8.192   5.782
  158POPC   NC3 2438   3.611   1.789   4.082
  158POPC   PO4 2439   4.142   2.265   3.899
  158POPC   GL1 2440   3.832   2.199   4.357
  158POPC   GL2 2441   3.508   2.024   4.521
  158POPC   C1A 2442   3.847   2.238   4.799
  158POPC   D2A 2443   3.526   2.038   5.067
  158POPC   C3A 2444   3.549   2.184   5.482
  158POPC   C4A 2445   3.466   2.191   5.906
  158POPC   C1B 2446   3.454   1.624   4.740
  158POPC   C2B 2447   3.574   1.425   5.128
  158POPC   C3B 2448   3.708   1.656   5.464
  158POPC   C4B 2449   3.346   1.749   5.718
  159POPC   NC3 2450   0.708   5.682   3.928
  159POPC   PO4 2451   0.897   6.285   3.931
  159POPC   GL1 2452   0.595   6.154   4.248
  159POPC   GL2 2453   0.389   5.881   4.249
  159POPC   C1A 2454   0.624   5.958   4.682
  159POPC   D2A 2455   0.783   5.847   5.106
  159POPC   C3A 2456   0.511   5.786   5.454
  159POPC   C4A 2457   0.613   5.546   5.803
  159POPC   C1B 2458   0.298   5.578   4.621
  159POPC   C2B 2459   0.171   5.720   5.053
  159POPC   C3B 2460   0.031   5.569   5.482
  159POPC   C4B 2461  11.470   5.736   5.921
  160POPC   NC3 2462   2.032   4.543   4.112
  160POPC   PO4 2463   1.709   4.100   3.788
  160POPC   GL1 2464   1.597   4.054   4.234
  160POPC   GL2 2465   1.918   4.066   4.445
  160POPC   C1A 2466   1.477   4.279   4.619
  160POPC   D2A 2467   1.748   4.449   4.912
  160POPC   C3A 2468   1.656   4.333   5.334
  160POPC   C4A 2469   1.752   4.458   5.742
  160POPC   C1B 2470   2.184   3.762   4.742
  160POPC   C2B 2471   2.263   3.793   5.210
  160POPC   C3B 2472   2.142   4.101   5.565
  160POPC   C4B 2473   2.273   4.507   5.811
  161POPC   NC3 2474   0.482   1.472   4.177
  161POPC   PO4 2475   0.427   0.987   3.720
  161POPC   GL1 2476   0.400   0.955   4.243
  161POPC   GL2 2477   0.557   1.127   4.543
  161POPC   C1A 2478   0.135   0.896   4.684
  161POPC   D2A 2479   0.268   1.164   5.031
  161POPC   C3A 2480   0.407   1.053   5.433
  161POPC   C4A 2481   0.234   1.105   5.864
  161POPC   C1B 2482   0.592   1.510   4.837
  161POPC   C2B 2483   0.563   1.533   5.290
  161POPC   C3B 2484   0.593   1.425   5.705
  161POPC   C4B 2485   0.728   0.979   5.868
  162POPC   NC3 2486   2.271   1.553   4.100
  162POPC   PO4 2487   2.553   0.947   3.901
  162POPC   GL1 2488   2.406   1.062   4.323
  162POPC   GL2 2489   2.052   1.084   4.323
  162POPC   C1A 2490   2.361   0.894   4.760
  162POPC   D2A 2491   2.085   0.897   5.145
  162POPC   C3A 2492   2.235   1.008   5.551
  162POPC   C4A 2493   2.060   1.015   6.004
  162POPC   C1B 2494   1.958   1.248   4.744
  162POPC   C2B 2495   1.826   1.327   5.187
  162POPC   C3B 2496   1.857   1.346   5.629
  162POPC   C4B 2497   1.567   1.579   5.808
  163POPC   NC3 2498   1.235   3.280   4.063
  163POPC   PO4 2499   0.806   3.674   3.729
  163POPC   GL1 2500   0.844   3.500   4.286
  163POPC   GL2 2501   1.157   3.539   4.502
  163POPC   C1A 2502   0.838   3.330   4.779
  163POPC   D2A 2503   0.963   3.557   5.196
  163POPC   C3A 2504   0.935   3.394   5.653
  163POPC   C4A 2505   0.851   3.236   6.108
  163POPC   C1B 2506   1.428   3.305   4.718
  163POPC   C2B 2507   1.508   3.449   5.081
  163POPC   C3B 2508   1.513   3.351   5.477
  163POPC   C4B 2509   1.365   3.688   5.695
  164POPC   NC3 2510   9.617   7.505   3.851
  164POPC   PO4 2511   9.816   6.978   4.011
  164POPC   GL1 2512   9.754   7.255   4.347
  164POPC   GL2 2513   9.953   7.527   4.377
  164POPC   C1A 2514   9.630   7.283   4.791
  164POPC   D2A 2515   9.354   7.518   5.111
  164POPC   C3A 2516   9.390   7.343   5.550
  164POPC   C4A 2517   9.515   7.345   5.978
  164POPC   C1B 2518  10.165   7.378   4.766
  164POPC   C2B 2519  10.106   7.064   5.093
  164POPC   C3B 2520   9.854   7.092   5.462
  164POPC   C4B 2521   9.937   7.464   5.710
  165POPC   NC3 2522  11.179   3.091   3.983
  165POPC   PO4 2523  10.891   2.420   3.959
  165POPC   GL1 2524  10.989   2.517   4.357
  165POPC   GL2 2525  11.305   2.711   4.348
  165POPC   C1A 2526  11.151   2.423   4.760
  165POPC   D2A 2527  10.909   2.554   5.094
  165POPC   C3A 2528  11.118   2.451   5.434
  165POPC   C4A 2529  11.251   2.629   5.822
  165POPC   C1B 2530  11.484   2.827   4.774
  165POPC   C2B 2531  11.298   2.901   5.175
  165POPC   C3B 2532  11.287   3.083   5.557
  165POPC   C4B 2533   0.020   3.054   5.926
  166POPC   NC3 2534  11.117   8.768   3.693
  166POPC   PO4 2535  10.931   9.080   4.297
  166POPC   GL1 2536  10.997   8.699   4.480
  166POPC   GL2 2537  11.218   8.632   4.258
  166POPC   C1A 2538  11.147   8.670   4.903
  166POPC   D2A 2539  11.259   9.022   5.139
  166POPC   C3A 2540  10.941   9.032   5.428
  166POPC   C4A 2541  10.913   8.799   5.795
  166POPC   C1B 2542  11.417   8.380   4.598
  166POPC   C2B 2543   0.034   8.358   5.077
  166POPC   C3B 2544  11.490   8.660   5.444
  166POPC   C4B 2545  11.395   8.702   5.896
  167POPC   NC3 2546   8.837   5.405   3.917
  167POPC   PO4 2547   8.547   5.962   3.943
  167POPC   GL1 2548   8.700   5.705   4.314
  167POPC   GL2 2549   9.056   5.623   4.328
  167POPC   C1A 2550   8.768   5.620   4.768
  167POPC   D2A 2551   8.705   5.399   5.174
  167POPC   C3A 2552   8.720   5.554   5.606
  167POPC   C4A 2553   8.454   5.731   5.958
  167POPC   C1B 2554   9.267   5.799   4.708
  167POPC   C2B 2555   9.118   5.742   5.154
  167POPC   C3B 2556   9.191   5.763   5.610
  167POPC   C4B 2557   8.961   5.785   6.017
  168POPC   NC3 2558   8.351   3.539   4.038
  168POPC   PO4 2559   8.073   3.966   4.235
  168POPC   GL1 2560   8.162   3.592   4.526
  168POPC   GL2 2561   8.451   3.354   4.503
  168POPC   C1A 2562   8.262   3.451   4.963
  168POPC   D2A 2563   8.555   3.539   5.300
  168POPC   C3A 2564   8.356   3.643   5.708
  168POPC   C4A 2565   7.946   3.665   5.943
  168POPC   C1B 2566   8.503   3.011   4.817
  168POPC   C2B 2567   8.464   3.017   5.287
  168POPC   C3B 2568   8.221   3.109   5.686
  168POPC   C4B 2569   8.142   2.861   6.077
  169POPC   NC3 2570   8.979   9.042   4.103
  169POPC   PO4 2571   8.440   9.161   3.701
  169POPC   GL1 2572   8.526   8.844   4.194
  169POPC   GL2 2573   8.775   8.621   4.312
  169POPC   C1A 2574   8.606   8.891   4.707
  169POPC   D2A 2575   8.717   8.647   5.109
  169POPC   C3A 2576   8.642   8.770   5.546
  169POPC   C4A 2577   8.672   9.125   5.788
  169POPC   C1B 2578   9.060   8.662   4.700
  169POPC   C2B 2579   9.228   8.619   5.127
  169POPC   C3B 2580   9.143   8.832   5.516
  169POPC   C4B 2581   9.254   8.670   5.910
  170POPC   NC3 2582  10.522   1.350   3.871
  170POPC   PO4 2583  10.054   0.811   3.930
  170POPC   GL1 2584  10.093   1.227   4.133
  170POPC   GL2 2585  10.377   1.129   4.322
  170POPC   C1A 2586  10.054   1.502   4.503
  170POPC   D2A 2587  10.196   1.372   4.890
  170POPC   C3A 2588  10.160   1.483   5.313
  170POPC   C4A 2589  10.009   1.420   5.730
  170POPC   C1B 2590  10.614   1.155   4.708
  170POPC   C2B 2591  10.525   1.108   5.169
  170POPC   C3B 2592  10.466   1.198   5.610
  170POPC   C4B 2593  10.726   1.211   5.932
  171POPC   NC3 2594   8.204   8.762   3.826
  171POPC   PO4 2595   8.511   9.336   4.179
  171POPC   GL1 2596   8.190   9.152   4.415
  171POPC   GL2 2597   8.022   8.903   4.264
  171POPC   C1A 2598   8.157   9.097   4.828
  171POPC   D2A 2599   8.296   8.935   5.208
  171POPC   C3A 2600   8.193   9.109   5.593
  171POPC   C4A 2601   8.265   9.269   6.034
  171POPC   C1B 2602   8.200   8.633   4.581
  171POPC   C2B 2603   8.237   8.482   4.994
  171POPC   C3B 2604   8.232   8.475   5.466
  171POPC   C4B 2605   7.965   8.454   5.851
  172POPC   NC3 2606   6.575   0.356   3.703
  172POPC   PO4 2607   7.132   0.625   3.871
  172POPC   GL1 2608   6.949   0.302   4.171
  172POPC   GL2 2609   6.588   0.305   4.198
  172POPC   C1A 2610   6.861   0.249   4.639
  172POPC   D2A 2611   6.877   0.417   5.093
  172POPC   C3A 2612   6.760   0.322   5.539
  172POPC   C4A 2613   6.879   0.321   5.997
  172POPC   C1B 2614   6.349   0.426   4.560
  172POPC   C2B 2615   6.349   0.503   5.007
  172POPC   C3B 2616   6.269   0.415   5.459
  172POPC   C4B 2617   6.241   0.638   5.831
  173POPC   NC3 2618   3.474   8.237   3.523
  173POPC   PO4 2619   2.996   8.107   3.941
  173POPC   GL1 2620   2.982   8.332   4.379
  173POPC   GL2 2621   3.345   8.302   4.405
  173POPC   C1A 2622   3.134   8.403   4.852
  173POPC   D2A 2623   3.361   8.156   5.222
  173POPC   C3A 2624   3.422   8.255   5.682
  173POPC   C4A 2625   3.570   8.401   6.095
  173POPC   C1B 2626   3.425   7.968   4.730
  173POPC   C2B 2627   3.679   7.762   5.088
  173POPC   C3B 2628   3.754   7.820   5.549
  173POPC   C4B 2629   3.984   8.093   5.835
  174POPC   NC3 2630   9.515   9.754   3.879
  174POPC   PO4 2631  10.028   9.341   3.956
  174POPC   GL1 2632   9.780   9.513   4.275
  174POPC   GL2 2633   9.586   9.250   4.396
  174POPC   C1A 2634   9.824   9.836   4.615
  174POPC   D2A 2635   9.831  10.047   5.028
  174POPC   C3A 2636   9.607   9.949   5.403
  174POPC   C4A 2637   9.794  10.011   5.781
  174POPC   C1B 2638   9.622   9.403   4.818
  174POPC   C2B 2639   9.882   9.520   5.181
  174POPC   C3B 2640   9.873   9.514   5.638
  174POPC   C4B 2641   9.453   9.593   5.792
  175POPC   NC3 2642   9.032   0.402   3.851
  175POPC   PO4 2643   8.498   0.757   3.735
  175POPC   GL1 2644   8.894   0.613   4.261
  175POPC   GL2 2645   8.863   0.283   4.338
  175POPC   C1A 2646   8.862   0.719   4.737
  175POPC   D2A 2647   8.661   0.759   5.158
  175POPC   C3A 2648   8.910   0.644   5.509
  175POPC   C4A 2649   9.365   0.685   5.663
  175POPC   C1B 2650   8.837   0.053   4.726
  175POPC   C2B 2651   8.851   0.236   5.121
  175POPC   C3B 2652   8.629   0.194   5.485
  175POPC   C4B 2653   8.472   0.333   5.841
  176POPC   NC3 2654   8.122   9.434   3.896
  176POPC   PO4 2655   7.728   8.894   3.837
  176POPC   GL1 2656   7.733   9.306   4.180
  176POPC   GL2 2657   8.022   9.618   4.335
  176POPC   C1A 2658   7.748   9.353   4.639
  176POPC   D2A 2659   7.746   9.291   5.057
  176POPC   C3A 2660   7.778   9.638   5.333
  176POPC   C4A 2661   7.971   9.557   5.724
  176POPC   C1B 2662   8.153   9.641   4.780
  176POPC   C2B 2663   8.250   9.450   5.183
  176POPC   C3B 2664   8.474   9.532   5.537
  176POPC   C4B 2665   8.366   9.910   5.744
  177POPC   NC3 2666   2.990   0.320   4.045
  177POPC   PO4 2667   2.441   0.148   3.812
  177POPC   GL1 2668   2.529   0.263   4.246
  177POPC   GL2 2669   2.656   0.614   4.308
  177POPC   C1A 2670   2.443   0.335   4.692
  177POPC   D2A 2671   2.239   0.433   5.057
  177POPC   C3A 2672   2.492   0.497   5.407
  177POPC   C4A 2673   2.528   0.284   5.808
  177POPC   C1B 2674   2.858   0.669   4.743
  177POPC   C2B 2675   2.972   0.626   5.202
  177POPC   C3B 2676   2.887   0.759   5.641
  177POPC   C4B 2677   2.991   0.705   6.087
  178POPC   NC3 2678   2.132  11.321   3.918
  178POPC   PO4 2679   1.588  10.962   3.698
  178POPC   GL1 2680   1.579  11.162   4.152
  178POPC   GL2 2681   1.914  11.110   4.322
  178POPC   C1A 2682   1.591  11.358   4.598
  178POPC   D2A 2683   1.878  11.187   4.952
  178POPC   C3A 2684   1.774  11.230   5.423
  178POPC   C4A 2685   1.778  11.122   5.896
  178POPC   C1B 2686   2.272  11.307   4.558
  178POPC   C2B 2687   2.383  11.389   4.969
  178POPC   C3B 2688   2.356  11.110   5.303
  178POPC   C4B 2689   2.355  11.170   5.750
  179POPC   NC3 2690  10.678   8.758   4.078
  179POPC   PO4 2691  10.056   8.503   3.947
  179POPC   GL1 2692  10.143   8.883   4.214
  179POPC   GL2 2693  10.343   8.753   4.452
  179POPC   C1A 2694   9.977   9.043   4.635
  179POPC   D2A 2695  10.166   8.904   5.038
  179POPC   C3A 2696  10.033   8.924   5.477
  179POPC   C4A 2697  10.105   8.494   5.678
  179POPC   C1B 2698  10.610   8.791   4.782
  179POPC   C2B 2699  10.694   8.692   5.146
  179POPC   C3B 2700  10.511   8.739   5.509
  179POPC   C4B 2701  10.445   9.089   5.753
  180POPC   NC3 2702   2.417  10.243   3.956
  180POPC   PO4 2703   3.044   9.934   3.875
  180POPC   GL1 2704   2.875  10.123   4.253
  180POPC   GL2 2705   2.714  10.409   4.321
  180POPC   C1A 2706   2.848  10.006   4.675
  180POPC   D2A 2707   3.050  10.171   5.055
  180POPC   C3A 2708   2.841  10.161   5.461
  180POPC   C4A 2709   2.453  10.180   5.738
  180POPC   C1B 2710   2.855  10.502   4.692
  180POPC   C2B 2711   2.573  10.388   5.028
  180POPC   C3B 2712   2.494  10.583   5.416
  180POPC   C4B 2713   2.796  10.563   5.793
  181POPC   NC3 2714  11.341   4.294   4.009
  181POPC   PO4 2715  11.232   4.945   3.807
  181POPC   GL1 2716  11.279   4.730   4.259
  181POPC   GL2 2717  11.043   4.438   4.382
  181POPC   C1A 2718  11.439   4.601   4.670
  181POPC   D2A 2719  11.177   4.440   5.023
  181POPC   C3A 2720  11.352   4.488   5.438
  181POPC   C4A 2721  11.075   4.503   5.766
  181POPC   C1B 2722  11.233   4.125   4.634
  181POPC   C2B 2723  11.360   3.928   5.035
  181POPC   C3B 2724  11.213   3.994   5.444
  181POPC   C4B 2725  11.337   4.039   5.851
  182POPC   NC3 2726   2.732  11.080   3.510
  182POPC   PO4 2727   2.945  10.497   3.877
  182POPC   GL1 2728   2.814  10.892   4.227
  182POPC   GL2 2729   2.644  11.241   4.192
  182POPC   C1A 2730   2.761  11.003   4.682
  182POPC   D2A 2731   2.852  10.809   5.102
  182POPC   C3A 2732   2.825  10.991   5.508
  182POPC   C4A 2733   3.093  10.960   5.897
  182POPC   C1B 2734   2.785  11.489   4.575
  182POPC   C2B 2735   2.841   0.152   4.999
  182POPC   C3B 2736   2.698  11.498   5.414
  182POPC   C4B 2737   2.803  11.362   5.849
  183POPC   NC3 2738   9.031   8.214   3.950
  183POPC   PO4 2739   8.449   8.370   3.927
  183POPC   GL1 2740   8.652   8.139   4.311
  183POPC   GL2 2741   8.993   7.972   4.386
  183POPC   C1A 2742   8.749   8.261   4.755
  183POPC   D2A 2743   8.581   8.146   5.171
  183POPC   C3A 2744   8.721   8.258   5.579
  183POPC   C4A 2745   8.558   8.324   6.004
  183POPC   C1B 2746   9.164   7.933   4.806
  183POPC   C2B 2747   9.046   7.918   5.246
  183POPC   C3B 2748   9.102   7.781   5.667
  183POPC   C4B 2749   8.747   7.796   5.972
  184POPC   NC3 2750   1.010  10.350   4.002
  184POPC   PO4 2751   1.668  10.283   3.854
  184POPC   GL1 2752   1.559  10.300   4.268
  184POPC   GL2 2753   1.421  10.631   4.210
  184POPC   C1A 2754   1.598  10.172   4.719
  184POPC   D2A 2755   1.621  10.369   5.153
  184POPC   C3A 2756   1.520  10.087   5.506
  184POPC   C4A 2757   1.557   9.873   5.889
  184POPC   C1B 2758   1.195  10.462   4.597
  184POPC   C2B 2759   1.098  10.576   5.006
  184POPC   C3B 2760   1.167  10.459   5.399
  184POPC   C4B 2761   1.078  10.608   5.769
  185POPC   NC3 2762   4.441   8.826   3.645
  185POPC   PO4 2763   4.221   9.241   3.991
  185POPC   GL1 2764   4.234   9.184   4.423
  185POPC   GL2 2765   4.276   8.830   4.475
  185POPC   C1A 2766   4.072   9.205   4.846
  185POPC   D2A 2767   4.206   9.394   5.240
  185POPC   C3A 2768   4.054   9.233   5.636
  185POPC   C4A 2769   4.158   9.016   6.045
  185POPC   C1B 2770   4.535   8.985   4.822
  185POPC   C2B 2771   4.553   8.983   5.237
  185POPC   C3B 2772   4.477   8.954   5.637
  185POPC   C4B 2773   4.522   8.647   5.947
  186POPC   NC3 2774  11.160   9.353   4.007
  186POPC   PO4 2775  10.736   9.998   3.952
  186POPC   GL1 2776  10.919   9.958   4.383
  186POPC   GL2 2777  11.144   9.668   4.401
  186POPC   C1A 2778  10.904   9.774   4.830
  186POPC   D2A 2779  10.877   9.577   5.239
  186POPC   C3A 2780  11.040   9.853   5.558
  186POPC   C4A 2781  11.437   9.972   5.686
  186POPC   C1B 2782  11.291   9.420   4.769
  186POPC   C2B 2783  11.438   9.538   5.176
  186POPC   C3B 2784  11.263   9.404   5.537
  186POPC   C4B 2785  10.909   9.340   5.823
  187POPC   NC3 2786   2.344   5.970   3.736
  187POPC   PO4 2787   3.020   6.169   3.843
  187POPC   GL1 2788   2.723   6.060   4.176
  187POPC   GL2 2789   2.503   5.747   4.172
  187POPC   C1A 2790   2.901   5.948   4.601
  187POPC   D2A 2791   3.151   6.003   5.001
  187POPC   C3A 2792   2.935   5.933   5.422
  187POPC   C4A 2793   2.729   5.984   5.839
  187POPC   C1B 2794   2.415   5.789   4.619
  187POPC   C2B 2795   2.296   5.873   5.062
  187POPC   C3B 2796   2.415   5.772   5.480
  187POPC   C4B 2797   2.567   5.496   5.823
  188POPC   NC3 2798  11.395   8.028   3.989
  188POPC   PO4 2799  10.702   8.237   3.847
  188POPC   GL1 2800  10.946   8.213   4.219
  188POPC   GL2 2801  11.022   7.892   4.341
  188POPC   C1A 2802  10.922   8.238   4.684
  188POPC   D2A 2803  10.786   8.185   5.094
  188POPC   C3A 2804  11.037   8.414   5.383
  188POPC   C4A 2805  11.090   8.317   5.791
  188POPC   C1B 2806  11.340   7.897   4.657
  188POPC   C2B 2807  11.229   7.909   5.059
  188POPC   C3B 2808  11.335   7.995   5.454
  188POPC   C4B 2809  11.330   7.872   5.880
  189POPC   NC3 2810   1.783   9.857   4.094
  189POPC   PO4 2811   1.193   9.957   3.806
  189POPC   GL1 2812   1.182   9.931   4.234
  189POPC   GL2 2813   1.342   9.653   4.308
  189POPC   C1A 2814   1.080   9.954   4.659
  189POPC   D2A 2815   1.217  10.051   5.063
  189POPC   C3A 2816   0.922   9.991   5.391
  189POPC   C4A 2817   1.086  10.089   5.768
  189POPC   C1B 2818   1.586   9.634   4.691
  189POPC   C2B 2819   1.535   9.434   5.083
  189POPC   C3B 2820   1.417   9.571   5.491
  189POPC   C4B 2821   1.112   9.581   5.815
  190POPC   NC3 2822   1.275   7.318   3.893
  190POPC   PO4 2823   1.548   6.800   3.705
  190POPC   GL1 2824   1.486   6.925   4.151
  190POPC   GL2 2825   1.165   6.841   4.286
  190POPC   C1A 2826   1.502   7.014   4.630
  190POPC   D2A 2827   1.656   7.167   5.052
  190POPC   C3A 2828   1.456   7.349   5.444
  190POPC   C4A 2829   1.654   7.368   5.867
  190POPC   C1B 2830   0.965   6.960   4.700
  190POPC   C2B 2831   0.827   7.038   5.144
  190POPC   C3B 2832   0.902   6.984   5.602
  190POPC   C4B 2833   1.113   7.207   5.943
  191POPC   NC3 2834   9.832   5.496   3.883
  191POPC   PO4 2835   9.271   5.248   3.978
  191POPC   GL1 2836   9.527   5.429   4.378
  191POPC   GL2 2837   9.805   5.685   4.380
  191POPC   C1A 2838   9.666   5.480   4.848
  191POPC   D2A 2839   9.610   5.686   5.275
  191POPC   C3A 2840   9.615   5.465   5.679
  191POPC   C4A 2841   9.389   5.441   6.094
  191POPC   C1B 2842   9.878   5.947   4.785
  191POPC   C2B 2843   9.886   6.114   5.215
  191POPC   C3B 2844   9.684   6.103   5.618
  191POPC   C4B 2845   9.597   6.404   5.947
  192POPC   NC3 2846   2.815   2.268   3.899
  192POPC   PO4 2847   3.439   2.215   4.056
  192POPC   GL1 2848   3.104   1.914   4.229
  192POPC   GL2 2849   2.823   2.117   4.373
  192POPC   C1A 2850   2.988   1.747   4.649
  192POPC   D2A 2851   2.925   2.069   4.933
  192POPC   C3A 2852   3.064   1.959   5.315
  192POPC   C4A 2853   3.024   2.180   5.657
  192POPC   C1B 2854   2.521   1.933   4.662
  192POPC   C2B 2855   2.513   1.817   5.083
  192POPC   C3B 2856   2.566   1.967   5.503
  192POPC   C4B 2857   2.832   1.683   5.724
  193POPC   NC3 2858   1.939   2.371   3.748
  193POPC   PO4 2859   1.829   1.677   4.046
  193POPC   GL1 2860   1.907   2.111   4.222
  193POPC   GL2 2861   2.268   2.109   4.271
  193POPC   C1A 2862   2.009   2.331   4.660
  193POPC   D2A 2863   2.271   2.259   5.029
  193POPC   C3A 2864   2.151   2.299   5.447
  193POPC   C4A 2865   1.817   2.288   5.754
  193POPC   C1B 2866   2.037   1.829   4.645
  193POPC   C2B 2867   1.997   1.812   5.088
  193POPC   C3B 2868   1.895   1.850   5.511
  193POPC   C4B 2869   2.174   1.905   5.866
  194POPC   NC3 2870   8.218   1.900   3.886
  194POPC   PO4 2871   7.705   2.343   3.862
  194POPC   GL1 2872   7.968   2.207   4.232
  194POPC   GL2 2873   8.079   1.875   4.368
  194POPC   C1A 2874   8.122   2.296   4.661
  194POPC   D2A 2875   7.956   2.210   5.084
  194POPC   C3A 2876   8.097   2.387   5.478
  194POPC   C4A 2877   8.260   2.389   5.890
  194POPC   C1B 2878   8.134   1.788   4.827
  194POPC   C2B 2879   8.108   1.518   5.182
  194POPC   C3B 2880   7.839   1.640   5.514
  194POPC   C4B 2881   7.947   1.968   5.779
  195POPC   NC3 2882   0.861   1.092   3.597
  195POPC   PO4 2883   0.877   1.658   4.019
  195POPC   GL1 2884   0.966   1.288   4.254
  195POPC   GL2 2885   1.326   1.245   4.282
  195POPC   C1A 2886   1.017   1.260   4.702
  195POPC   D2A 2887   1.050   1.516   5.082
  195POPC   C3A 2888   1.003   1.268   5.449
  195POPC   C4A 2889   1.189   1.211   5.848
  195POPC   C1B 2890   1.460   1.008   4.635
  195POPC   C2B 2891   1.333   1.063   5.057
  195POPC   C3B 2892   1.456   1.023   5.440
  195POPC   C4B 2893   1.672   0.887   5.729
  196POPC   NC3 2894  11.027  10.344   4.044
  196POPC   PO4 2895  10.912  10.914   3.814
  196POPC   GL1 2896  10.904  10.807   4.242
  196POPC   GL2 2897  11.263  10.735   4.257
  196POPC   C1A 2898  10.821  10.653   4.665
  196POPC   D2A 2899  10.841  10.836   5.089
  196POPC   C3A 2900  10.873  10.678   5.530
  196POPC   C4A 2901  10.833  10.667   6.045
  196POPC   C1B 2902  11.305  10.495   4.628
  196POPC   C2B 2903  11.074  10.334   4.975
  196POPC   C3B 2904  11.191  10.311   5.380
  196POPC   C4B 2905  11.249  10.459   5.783
  197POPC   NC3 2906   7.240   1.028   4.049
  197POPC   PO4 2907   7.814   1.464   3.908
  197POPC   GL1 2908   7.666   1.229   4.254
  197POPC   GL2 2909   7.384   1.375   4.408
  197POPC   C1A 2910   7.586   0.990   4.652
  197POPC   D2A 2911   7.216   1.045   4.916
  197POPC   C3A 2912   7.303   0.997   5.350
  197POPC   C4A 2913   7.410   1.010   5.781
  197POPC   C1B 2914   7.313   1.533   4.824
  197POPC   C2B 2915   7.225   1.518   5.284
  197POPC   C3B 2916   6.962   1.284   5.600
  197POPC   C4B 2917   7.000   1.216   6.030
  198POPC   NC3 2918   9.714   8.993   3.955
  198POPC   PO4 2919   9.207   8.628   4.057
  198POPC   GL1 2920   9.435   8.766   4.357
  198POPC   GL2 2921   9.737   8.625   4.342
  198POPC   C1A 2922   9.515   8.879   4.778
  198POPC   D2A 2923   9.277   9.121   5.082
  198POPC   C3A 2924   9.544   9.179   5.400
  198POPC   C4A 2925   9.557   9.088   5.798
  198POPC   C1B 2926   9.945   8.538   4.725
  198POPC   C2B 2927   9.786   8.574   5.148
  198POPC   C3B 2928   9.616   8.653   5.548
  198POPC   C4B 2929   9.770   8.690   6.010
  199POPC   NC3 2930   8.845  10.555   4.065
  199POPC   PO4 2931   9.068   9.912   3.902
  199POPC   GL1 2932   9.063  10.165   4.293
  199POPC   GL2 2933   8.692  10.204   4.408
  199POPC   C1A 2934   9.050  10.351   4.730
  199POPC   D2A 2935   8.937  10.161   5.129
  199POPC   C3A 2936   9.066  10.393   5.495
  199POPC   C4A 2937   9.069  10.626   5.916
  199POPC   C1B 2938   8.547   9.990   4.774
  199POPC   C2B 2939   8.457   9.928   5.198
  199POPC   C3B 2940   8.539  10.268   5.443
  199POPC   C4B 2941   8.728  10.277   5.843
  200POPC   NC3 2942   1.486   8.897   4.037
  200POPC   PO4 2943   0.894   8.598   3.997
  200POPC   GL1 2944   1.094   8.823   4.361
  200POPC   GL2 2945   1.141   9.170   4.316
  200POPC   C1A 2946   1.290   8.625   4.772
  200POPC   D2A 2947   1.224   8.394   5.189
  200POPC   C3A 2948   1.065   8.641   5.570
  200POPC   C4A 2949   1.268   8.619   6.000
  200POPC   C1B 2950   1.150   9.127   4.797
  200POPC   C2B 2951   1.342   8.967   5.230
  200POPC   C3B 2952   1.283   9.094   5.674
  200POPC   C4B 2953   0.850   9.145   5.842
  201POPC   NC3 2954   9.726   4.053   3.854
  201POPC   PO4 2955   9.744   3.374   3.877
  201POPC   GL1 2956   9.757   3.664   4.268
  201POPC   GL2 2957   9.429   3.803   4.374
  201POPC   C1A 2958   9.773   3.777   4.748
  201POPC   D2A 2959   9.547   3.844   5.156
  201POPC   C3A 2960   9.764   3.971   5.568
  201POPC   C4A 2961   9.973   3.840   5.984
  201POPC   C1B 2962   9.403   3.422   4.667
  201POPC   C2B 2963   9.466   3.277   5.085
  201POPC   C3B 2964   9.483   3.455   5.494
  201POPC   C4B 2965   9.157   3.568   5.729
  202POPC   NC3 2966   5.887   1.043   3.937
  202POPC   PO4 2967   5.416   1.552   3.868
  202POPC   GL1 2968   5.445   1.532   4.284
  202POPC   GL2 2969   5.527   1.193   4.290
  202POPC   C1A 2970   5.635   1.428   4.704
  202POPC   D2A 2971   5.462   1.366   5.087
  202POPC   C3A 2972   5.771   1.475   5.366
  202POPC   C4A 2973   5.970   1.666   5.712
  202POPC   C1B 2974   5.443   0.953   4.697
  202POPC   C2B 2975   5.498   0.842   5.122
  202POPC   C3B 2976   5.499   1.058   5.515
  202POPC   C4B 2977   5.960   1.113   5.690
  203POPC   NC3 2978   9.568   2.798   3.843
  203POPC   PO4 2979  10.143   2.458   3.845
  203POPC   GL1 2980   9.884   2.414   4.226
  203POPC   GL2 2981   9.611   2.646   4.335
  203POPC   C1A 2982   9.970   2.492   4.669
  203POPC   D2A 2983   9.879   2.263   5.041
  203POPC   C3A 2984   9.939   2.498   5.416
  203POPC   C4A 2985   9.888   2.565   5.857
  203POPC   C1B 2986   9.517   2.779   4.775
  203POPC   C2B 2987   9.420   2.541   5.145
  203POPC   C3B 2988   9.472   2.647   5.557
  203POPC   C4B 2989   9.739   3.012   5.649
  204POPC   NC3 2990  11.355   5.216   4.162
  204POPC   PO4 2991  10.780   4.819   4.201
  204POPC   GL1 2992  10.830   4.891   4.544
  204POPC   GL2 2993  10.949   5.238   4.479
  204POPC   C1A 2994  10.741   4.721   4.952
  204POPC   D2A 2995  10.984   4.804   5.315
  204POPC   C3A 2996  10.878   4.967   5.676
  204POPC   C4A 2997  10.713   5.348   5.695
  204POPC   C1B 2998  11.193   5.036   4.834
  204POPC   C2B 2999  11.478   4.894   5.117
  204POPC   C3B 3000  11.418   5.045   5.500
  204POPC   C4B 3001  11.439   4.831   5.827
  205POPC   NC3 3002  10.295   3.629   3.865
  205POPC   PO4 3003  10.926   4.004   3.950
  205POPC   GL1 3004  10.626   3.696   4.268
  205POPC   GL2 3005  10.279   3.538   4.349
  205POPC   C1A 3006  10.616   3.405   4.694
  205POPC   D2A 3007  10.545   3.586   5.124
  205POPC   C3A 3008  10.514   3.312   5.482
  205POPC   C4A 3009  10.772   3.305   5.823
  205POPC   C1B 3010  10.292   3.806   4.712
  205POPC   C2B 3011  10.112   3.881   5.127
  205POPC   C3B 3012  10.231   3.742   5.550
  205POPC   C4B 3013  10.149   3.370   5.856
  206POPC   NC3 3014   3.690   1.045   3.774
  206POPC   PO4 3015   3.541   1.588   3.675
  206POPC   GL1 3016   3.415   1.392   4.282
  206POPC   GL2 3017   3.462   1.033   4.253
  206POPC   C1A 3018   3.690   1.186   4.687
  206POPC   D2A 3019   3.824   0.926   5.088
  206POPC   C3A 3020   3.721   1.096   5.539
  206POPC   C4A 3021   3.660   1.396   5.901
  206POPC   C1B 3022   3.356   0.815   4.628
  206POPC   C2B 3023   3.313   0.986   5.039
  206POPC   C3B 3024   3.215   1.154   5.437
  206POPC   C4B 3025   3.284   1.047   5.856
  207POPC   NC3 3026   5.651   9.824   3.886
  207POPC   PO4 3027   5.464   9.271   4.166
  207POPC   GL1 3028   5.667   9.519   4.472
  207POPC   GL2 3029   5.649   9.856   4.400
  207POPC   C1A 3030   5.787   9.587   4.922
  207POPC   D2A 3031   5.741   9.473   5.382
  207POPC   C3A 3032   6.117   9.534   5.699
  207POPC   C4A 3033   6.321   9.506   6.145
  207POPC   C1B 3034   5.345   9.786   4.766
  207POPC   C2B 3035   5.246   9.574   5.202
  207POPC   C3B 3036   5.355   9.668   5.669
  207POPC   C4B 3037   5.437   9.910   6.098
  208POPC   NC3 3038   0.493  11.403   4.014
  208POPC   PO4 3039   0.796  10.769   3.898
  208POPC   GL1 3040   0.551  10.955   4.245
  208POPC   GL2 3041   0.181  11.043   4.214
  208POPC   C1A 3042   0.653  11.093   4.671
  208POPC   D2A 3043   0.786  11.238   5.083
  208POPC   C3A 3044   0.905  10.925   5.367
  208POPC   C4A 3045   0.622  10.844   5.697
  208POPC   C1B 3046   0.219  10.821   4.659
  208POPC   C2B 3047   0.372  10.872   5.139
  208POPC   C3B 3048   0.294  11.186   5.505
  208POPC   C4B 3049   0.138   0.126   5.568
  209POPC   NC3 3050   3.320  10.285   3.658
  209POPC   PO4 3051   3.755   9.932   4.037
  209POPC   GL1 3052   3.710   9.836   4.426
  209POPC   GL2 3053   3.825   9.501   4.378
  209POPC   C1A 3054   3.333   9.838   4.716
  209POPC   D2A 3055   3.273   9.689   5.113
  209POPC   C3A 3056   3.470   9.778   5.500
  209POPC   C4A 3057   3.285   9.998   5.795
  209POPC   C1B 3058   3.610   9.427   4.803
  209POPC   C2B 3059   3.655   9.347   5.264
  209POPC   C3B 3060   3.559   9.321   5.719
  209POPC   C4B 3061   3.685   9.256   6.175
  210POPC   NC3 3062   0.194   8.010   3.389
  210POPC   PO4 3063   0.292   7.802   4.062
  210POPC   GL1 3064   0.250   8.035   4.377
  210POPC   GL2 3065   0.539   8.210   4.326
  210POPC   C1A 3066   0.410   7.906   4.775
  210POPC   D2A 3067   0.243   7.777   5.146
  210POPC   C3A 3068   0.349   7.979   5.538
  210POPC   C4A 3069   0.133   8.285   5.751
  210POPC   C1B 3070   0.408   8.398   4.697
  210POPC   C2B 3071   0.562   8.365   5.059
  210POPC   C3B 3072   0.492   8.487   5.427
  210POPC   C4B 3073   0.623   8.386   5.828
  211POPC   NC3 3074   7.805  10.383   3.912
  211POPC   PO4 3075   8.426  10.733   3.887
  211POPC   GL1 3076   8.196  10.556   4.253
  211POPC   GL2 3077   8.175  10.179   4.215
  211POPC   C1A 3078   8.112  10.692   4.709
  211POPC   D2A 3079   7.891  10.757   5.122
  211POPC   C3A 3080   8.158  10.626   5.478
  211POPC   C4A 3081   8.237  10.399   5.857
  211POPC   C1B 3082   8.073  10.167   4.638
  211POPC   C2B 3083   8.145  10.300   5.061
  211POPC   C3B 3084   8.000  10.123   5.462
  211POPC   C4B 3085   7.890  10.024   5.897
  212POPC   NC3 3086   1.612   5.340   3.996
  212POPC   PO4 3087   1.842   5.989   3.795
  212POPC   GL1 3088   1.771   5.973   4.229
  212POPC   GL2 3089   1.979   5.742   4.351
  212POPC   C1A 3090   1.600   5.982   4.629
  212POPC   D2A 3091   1.658   5.990   5.053
  212POPC   C3A 3092   1.921   6.046   5.384
  212POPC   C4A 3093   1.784   5.959   5.813
  212POPC   C1B 3094   1.927   5.624   4.774
  212POPC   C2B 3095   1.954   5.535   5.206
  212POPC   C3B 3096   2.006   5.518   5.647
  212POPC   C4B 3097   1.955   5.279   6.011
  213POPC   NC3 3098   5.528  11.458   3.450
  213POPC   PO4 3099   6.136   0.184   3.791
  213POPC   GL1 3100   6.103   0.084   4.242
  213POPC   GL2 3101   5.885  11.309   4.249
  213POPC   C1A 3102   5.986   0.066   4.705
  213POPC   D2A 3103   6.084  11.249   5.037
  213POPC   C3A 3104   6.082  11.428   5.421
  213POPC   C4A 3105   6.144  11.229   5.807
  213POPC   C1B 3106   5.804  11.085   4.624
  213POPC   C2B 3107   5.649  10.948   5.034
  213POPC   C3B 3108   5.714  11.093   5.430
  213POPC   C4B 3109   5.644  11.229   5.823
  214POPC   NC3 3110   0.218   4.952   3.780
  214POPC   PO4 3111   0.871   4.561   3.879
  214POPC   GL1 3112   0.668   4.746   4.291
  214POPC   GL2 3113   0.390   4.991   4.277
  214POPC   C1A 3114   0.743   4.970   4.684
  214POPC   D2A 3115   0.763   4.823   5.106
  214POPC   C3A 3116   0.398   4.692   5.367
  214POPC   C4A 3117   0.462   4.804   5.799
  214POPC   C1B 3118   0.233   5.045   4.687
  214POPC   C2B 3119   0.417   5.240   5.044
  214POPC   C3B 3120   0.412   5.208   5.485
  214POPC   C4B 3121   0.194   5.264   5.899
  215POPC   NC3 3122   5.628   0.127   3.930
  215POPC   PO4 3123   5.452   0.835   3.947
  215POPC   GL1 3124   5.676   0.677   4.310
  215POPC   GL2 3125   5.679   0.321   4.373
  215POPC   C1A 3126   5.824   0.596   4.759
  215POPC   D2A 3127   5.860   0.385   5.148
  215POPC   C3A 3128   5.792   0.635   5.538
  215POPC   C4A 3129   5.617   0.811   5.937
  215POPC   C1B 3130   5.476   0.016   4.632
  215POPC   C2B 3131   5.609  11.445   5.065
  215POPC   C3B 3132   5.608   0.110   5.483
  215POPC   C4B 3133   5.903   0.221   5.800
  216POPC   NC3 3134   2.922   7.627   4.035
  216POPC   PO4 3135   2.337   7.991   3.994
  216POPC   GL1 3136   2.639   7.943   4.317
  216POPC   GL2 3137   2.480   8.172   4.471
  216POPC   C1A 3138   2.880   7.968   4.744
  216POPC   D2A 3139   2.853   8.179   5.201
  216POPC   C3A 3140   2.958   8.042   5.633
  216POPC   C4A 3141   2.692   7.856   5.977
  216POPC   C1B 3142   2.592   8.395   4.799
  216POPC   C2B 3143   2.386   8.351   5.192
  216POPC   C3B 3144   2.480   8.205   5.600
  216POPC   C4B 3145   2.664   8.362   5.976
  217POPC   NC3 3146   1.818   6.478   3.904
  217POPC   PO4 3147   2.424   6.390   3.866
  217POPC   GL1 3148   2.218   6.197   4.224
  217POPC   GL2 3149   2.038   6.486   4.357
  217POPC   C1A 3150   2.062   6.138   4.699
  217POPC   D2A 3151   2.218   6.395   5.051
  217POPC   C3A 3152   2.125   6.552   5.466
  217POPC   C4A 3153   1.759   6.444   5.693
  217POPC   C1B 3154   1.802   6.574   4.760
  217POPC   C2B 3155   1.702   6.575   5.194
  217POPC   C3B 3156   1.752   6.917   5.508
  217POPC   C4B 3157   2.013   6.860   5.877
  218POPC   NC3 3158   0.498   3.353   3.946
  218POPC   PO4 3159   0.105   3.920   3.937
  218POPC   GL1 3160   0.394   3.759   4.281
  218POPC   GL2 3161   0.380   3.430   4.427
  218POPC   C1A 3162   0.632   3.798   4.680
  218POPC   D2A 3163   0.395   3.802   5.073
  218POPC   C3A 3164   0.517   3.674   5.483
  218POPC   C4A 3165   0.276   3.761   5.806
  218POPC   C1B 3166   0.358   3.196   4.763
  218POPC   C2B 3167   0.495   3.303   5.144
  218POPC   C3B 3168   0.290   3.190   5.477
  218POPC   C4B 3169   0.457   3.279   5.821
  219POPC   NC3 3170  10.275   7.043   4.031
  219POPC   PO4 3171  10.914   7.336   3.957
  219POPC   GL1 3172  10.811   7.121   4.292
  219POPC   GL2 3173  10.517   7.288   4.399
  219POPC   C1A 3174  10.845   7.038   4.714
  219POPC   D2A 3175  10.707   6.908   5.121
  219POPC   C3A 3176  10.657   7.135   5.497
  219POPC   C4A 3177  10.287   7.095   5.717
  219POPC   C1B 3178  10.628   7.663   4.641
  219POPC   C2B 3179  10.467   7.769   5.047
  219POPC   C3B 3180  10.312   7.484   5.333
  219POPC   C4B 3181  10.465   7.582   5.713
  220POPC   NC3 3182  10.573   4.494   3.962
  220POPC   PO4 3183  10.116   4.002   4.080
  220POPC   GL1 3184  10.237   4.353   4.332
  220POPC   GL2 3185  10.539   4.470   4.468
  220POPC   C1A 3186  10.186   4.295   4.763
  220POPC   D2A 3187  10.429   4.296   5.077
  220POPC   C3A 3188  10.190   4.265   5.444
  220POPC   C4A 3189  10.085   4.399   5.830
  220POPC   C1B 3190  10.700   4.112   4.638
  220POPC   C2B 3191  10.857   4.014   5.045
  220POPC   C3B 3192  10.806   4.291   5.402
  220POPC   C4B 3193  10.577   4.192   5.765
  221POPC   NC3 3194   5.031   8.228   3.875
  221POPC   PO4 3195   4.775   7.705   4.134
  221POPC   GL1 3196   4.882   7.916   4.503
  221POPC   GL2 3197   4.874   8.224   4.358
  221POPC   C1A 3198   4.805   8.080   4.927
  221POPC   D2A 3199   4.554   8.275   5.253
  221POPC   C3A 3200   4.531   8.050   5.634
  221POPC   C4A 3201   4.770   7.755   5.889
  221POPC   C1B 3202   5.168   8.367   4.675
  221POPC   C2B 3203   5.265   8.217   5.108
  221POPC   C3B 3204   5.025   8.156   5.504
  221POPC   C4B 3205   4.882   8.276   5.937
  222POPC   NC3 3206   1.301   4.312   3.892
  222POPC   PO4 3207   1.206   3.746   4.071
  222POPC   GL1 3208   1.065   4.032   4.391
  222POPC   GL2 3209   1.073   4.401   4.331
  222POPC   C1A 3210   1.077   3.998   4.858
  222POPC   D2A 3211   1.318   3.943   5.240
  222POPC   C3A 3212   1.272   4.194   5.661
  222POPC   C4A 3213   1.510   4.038   6.057
  222POPC   C1B 3214   1.017   4.507   4.754
  222POPC   C2B 3215   1.131   4.419   5.175
  222POPC   C3B 3216   0.870   4.530   5.510
  222POPC   C4B 3217   0.925   4.582   5.894
  223POPC   NC3 3218   2.607   8.364   3.998
  223POPC   PO4 3219   2.616   9.030   3.881
  223POPC   GL1 3220   2.765   8.806   4.260
  223POPC   GL2 3221   2.475   8.681   4.386
  223POPC   C1A 3222   2.873   8.829   4.725
  223POPC   D2A 3223   2.750   8.736   5.154
  223POPC   C3A 3224   2.820   8.620   5.568
  223POPC   C4A 3225   3.109   8.611   5.933
  223POPC   C1B 3226   2.479   9.106   4.577
  223POPC   C2B 3227   2.544   9.226   5.034
  223POPC   C3B 3228   2.664   9.139   5.488
  223POPC   C4B 3229   3.074   9.077   5.707
  224POPC   NC3 3230  10.267   0.384   3.906
  224POPC   PO4 3231  10.703   0.107   4.244
  224POPC   GL1 3232  10.318   0.253   4.420
  224POPC   GL2 3233  10.234   0.617   4.384
  224POPC   C1A 3234  10.205   0.309   4.845
  224POPC   D2A 3235  10.364   0.488   5.214
  224POPC   C3A 3236  10.427   0.219   5.572
  224POPC   C4A 3237  10.044   0.135   5.758
  224POPC   C1B 3238  10.551   0.662   4.719
  224POPC   C2B 3239  10.829   0.704   5.091
  224POPC   C3B 3240  10.664   0.748   5.524
  224POPC   C4B 3241  10.606   0.698   5.999
  225POPC   NC3 3242   2.209   3.052   4.032
  225POPC   PO4 3243   1.782   2.798   3.671
  225POPC   GL1 3244   1.765   2.643   4.143
  225POPC   GL2 3245   2.077   2.605   4.246
  225POPC   C1A 3246   1.668   2.729   4.621
  225POPC   D2A 3247   1.621   2.934   5.038
  225POPC   C3A 3248   1.759   2.705   5.417
  225POPC   C4A 3249   1.719   2.869   5.827
  225POPC   C1B 3250   2.173   2.829   4.636
  225POPC   C2B 3251   2.120   2.852   5.075
  225POPC   C3B 3252   2.346   2.791   5.438
  225POPC   C4B 3253   2.182   2.653   5.824
  226POPC   NC3 3254   6.876   7.906   3.931
  226POPC   PO4 3255   6.976   8.453   3.821
  226POPC   GL1 3256   7.040   8.401   4.289
  226POPC   GL2 3257   7.361   8.296   4.385
  226POPC   C1A 3258   7.065   8.411   4.788
  226POPC   D2A 3259   7.294   8.352   5.197
  226POPC   C3A 3260   7.110   8.317   5.608
  226POPC   C4A 3261   7.039   8.023   5.957
  226POPC   C1B 3262   7.597   8.399   4.786
  226POPC   C2B 3263   7.797   8.306   5.205
  226POPC   C3B 3264   7.606   8.201   5.603
  226POPC   C4B 3265   7.476   8.287   6.040
  227POPC   NC3 3266   1.323   0.315   4.024
  227POPC   PO4 3267   1.157   0.950   3.901
  227POPC   GL1 3268   1.070   0.736   4.330
  227POPC   GL2 3269   0.973   0.364   4.433
  227POPC   C1A 3270   1.033   0.739   4.787
  227POPC   D2A 3271   0.811   0.925   5.116
  227POPC   C3A 3272   0.994   0.740   5.495
  227POPC   C4A 3273   1.224   0.704   5.889
  227POPC   C1B 3274   1.337   0.326   4.738
  227POPC   C2B 3275   1.226   0.383   5.163
  227POPC   C3B 3276   1.396   0.371   5.538
  227POPC   C4B 3277   1.502   0.019   5.767
  228POPC   NC3 3278  10.854   7.793   3.886
  228POPC   PO4 3279  11.451   7.701   3.653
  228POPC   GL1 3280  11.345   7.545   4.154
  228POPC   GL2 3281  11.327   7.210   4.237
  228POPC   C1A 3282  11.098   7.466   4.615
  228POPC   D2A 3283  10.861   7.418   5.063
  228POPC   C3A 3284  10.992   7.581   5.499
  228POPC   C4A 3285  10.899   7.597   5.977
  228POPC   C1B 3286  11.367   7.040   4.654
  228POPC   C2B 3287  11.220   6.902   5.045
  228POPC   C3B 3288  11.163   7.082   5.450
  228POPC   C4B 3289  11.252   7.271   5.851
  229POPC   NC3 3290   4.431   2.627   3.961
  229POPC   PO4 3291   3.991   2.957   4.025
  229POPC   GL1 3292   4.047   2.671   4.406
  229POPC   GL2 3293   4.297   2.376   4.379
  229POPC   C1A 3294   3.871   2.741   4.832
  229POPC   D2A 3295   3.654   2.629   5.227
  229POPC   C3A 3296   3.857   2.690   5.631
  229POPC   C4A 3297   4.108   2.656   6.031
  229POPC   C1B 3298   4.313   2.461   4.806
  229POPC   C2B 3299   4.151   2.495   5.208
  229POPC   C3B 3300   4.292   2.417   5.609
  229POPC   C4B 3301   4.567   2.726   5.782
  230POPC   NC3 3302   4.827  10.117   3.907
  230POPC   PO4 3303   5.458  10.242   3.927
  230POPC   GL1 3304   5.384  10.301   4.313
  230POPC   GL2 3305   5.274  10.647   4.298
  230POPC   C1A 3306   5.227  10.293   4.715
  230POPC   D2A 3307   4.993  10.432   5.076
  230POPC   C3A 3308   5.095  10.132   5.384
  230POPC   C4A 3309   5.384  10.184   5.688
  230POPC   C1B 3310   4.913  10.705   4.593
  230POPC   C2B 3311   4.798  10.915   4.994
  230POPC   C3B 3312   4.750  10.769   5.400
  230POPC   C4B 3313   5.113  10.616   5.629
  231POPC   NC3 3314  10.514   2.669   4.040
  231POPC   PO4 3315  10.738   3.280   3.931
  231POPC   GL1 3316  10.807   3.026   4.310
  231POPC   GL2 3317  10.497   2.967   4.461
  231POPC   C1A 3318  10.963   2.932   4.724
  231POPC   D2A 3319  10.813   3.090   5.125
  231POPC   C3A 3320  10.824   2.872   5.523
  231POPC   C4A 3321  10.752   2.634   5.898
  231POPC   C1B 3322  10.542   2.575   4.704
  231POPC   C2B 3323  10.414   2.367   5.101
  231POPC   C3B 3324  10.436   2.518   5.519
  231POPC   C4B 3325  10.260   2.884   5.696
  232POPC   NC3 3326   7.227  10.814   4.044
  232POPC   PO4 3327   6.847  11.400   3.842
  232POPC   GL1 3328   7.022  11.244   4.276
  232POPC   GL2 3329   7.356  11.102   4.436
  232POPC   C1A 3330   6.938  11.234   4.743
  232POPC   D2A 3331   7.000  11.421   5.176
  232POPC   C3A 3332   7.033  11.178   5.579
  232POPC   C4A 3333   6.841  11.318   5.984
  232POPC   C1B 3334   7.367  10.900   4.851
  232POPC   C2B 3335   7.450  11.170   5.189
  232POPC   C3B 3336   7.527  11.358   5.571
  232POPC   C4B 3337   7.526  10.939   5.792
  233POPC   NC3 3338   1.532   3.685   3.762
  233POPC   PO4 3339   1.690   3.147   4.091
  233POPC   GL1 3340   1.637   3.535   4.286
  233POPC   GL2 3341   1.970   3.575   4.303
  233POPC   C1A 3342   1.572   3.778   4.671
  233POPC   D2A 3343   1.786   3.950   4.997
  233POPC   C3A 3344   1.776   3.785   5.385
  233POPC   C4A 3345   1.875   3.644   5.759
  233POPC   C1B 3346   1.932   3.313   4.703
  233POPC   C2B 3347   1.998   3.359   5.139
  233POPC   C3B 3348   2.004   3.169   5.532
  233POPC   C4B 3349   2.068   3.213   5.989
  234POPC   NC3 3350   9.048   1.944   3.859
  234POPC   PO4 3351   8.463   2.323   4.008
  234POPC   GL1 3352   8.838   2.198   4.243
  234POPC   GL2 3353   8.763   1.880   4.274
  234POPC   C1A 3354   9.015   2.103   4.683
  234POPC   D2A 3355   8.974   2.299   5.073
  234POPC   C3A 3356   9.004   2.014   5.400
  234POPC   C4A 3357   9.010   2.078   5.816
  234POPC   C1B 3358   8.536   1.992   4.619
  234POPC   C2B 3359   8.590   1.856   5.044
  234POPC   C3B 3360   8.331   1.928   5.406
  234POPC   C4B 3361   8.488   1.938   5.822
  235POPC   NC3 3362   9.558   0.237   3.597
  235POPC   PO4 3363   9.264   0.798   3.919
  235POPC   GL1 3364   9.413   0.485   4.227
  235POPC   GL2 3365   9.788   0.395   4.158
  235POPC   C1A 3366   9.262   0.415   4.668
  235POPC   D2A 3367   9.224   0.614   5.085
  235POPC   C3A 3368   9.316   0.303   5.351
  235POPC   C4A 3369   9.513   0.192   5.712
  235POPC   C1B 3370   9.784   0.482   4.600
  235POPC   C2B 3371   9.713   0.416   5.038
  235POPC   C3B 3372   9.833   0.520   5.466
  235POPC   C4B 3373  10.192   0.642   5.726
  236POPC   NC3 3374   8.818   0.995   3.969
  236POPC   PO4 3375   8.604   1.651   3.832
  236POPC   GL1 3376   8.637   1.401   4.199
  236POPC   GL2 3377   9.027   1.435   4.169
  236POPC   C1A 3378   8.554   1.470   4.657
  236POPC   D2A 3379   8.588   1.316   5.091
  236POPC   C3A 3380   8.707   1.580   5.469
  236POPC   C4A 3381   9.064   1.576   5.739
  236POPC   C1B 3382   9.009   1.211   4.572
  236POPC   C2B 3383   9.108   1.120   5.005
  236POPC   C3B 3384   8.959   1.139   5.417
  236POPC   C4B 3385   9.058   1.053   5.819
  237POPC   NC3 3386   0.254   7.358   3.895
  237POPC   PO4 3387   0.890   7.030   3.907
  237POPC   GL1 3388   0.655   7.131   4.331
  237POPC   GL2 3389   0.316   7.254   4.373
  237POPC   C1A 3390   0.604   7.334   4.786
  237POPC   D2A 3391   0.345   7.241   5.184
  237POPC   C3A 3392   0.461   7.252   5.661
  237POPC   C4A 3393   0.195   7.143   6.050
  237POPC   C1B 3394   0.115   7.473   4.706
  237POPC   C2B 3395  11.373   7.415   5.091
  237POPC   C3B 3396   0.027   7.518   5.523
  237POPC   C4B 3397   0.259   7.634   5.923
  238POPC   NC3 3398   5.543   1.981   3.963
  238POPC   PO4 3399   5.935   2.382   4.073
  238POPC   GL1 3400   5.857   2.043   4.363
  238POPC   GL2 3401   5.933   1.706   4.265
  238POPC   C1A 3402   5.533   1.916   4.676
  238POPC   D2A 3403   5.348   1.866   5.111
  238POPC   C3A 3404   5.593   1.944   5.496
  238POPC   C4A 3405   5.840   2.155   5.840
  238POPC   C1B 3406   6.033   1.749   4.747
  238POPC   C2B 3407   6.038   1.903   5.199
  238POPC   C3B 3408   6.281   2.063   5.562
  238POPC   C4B 3409   6.285   1.974   6.017
  239POPC   NC3 3410   0.702   6.663   4.125
  239POPC   PO4 3411   0.107   6.904   3.955
  239POPC   GL1 3412   0.225   6.745   4.321
  239POPC   GL2 3413   0.140   6.395   4.258
  239POPC   C1A 3414   0.343   6.890   4.733
  239POPC   D2A 3415   0.432   6.728   5.105
  239POPC   C3A 3416   0.339   6.782   5.528
  239POPC   C4A 3417   0.647   6.571   5.767
  239POPC   C1B 3418   0.362   6.381   4.667
  239POPC   C2B 3419   0.443   6.215   5.092
  239POPC   C3B 3420   0.313   6.271   5.504
  239POPC   C4B 3421   0.375   6.088   5.920
  240POPC   NC3 3422  10.378   9.635   3.860
  240POPC   PO4 3423  10.828   9.113   3.768
  240POPC   GL1 3424  10.499   9.241   4.146
  240POPC   GL2 3425  10.663   9.531   4.267
  240POPC   C1A 3426  10.424   9.270   4.642
  240POPC   D2A 3427  10.568   9.199   5.086
  240POPC   C3A 3428  10.353   9.425   5.381
  240POPC   C4A 3429  10.569   9.701   5.634
  240POPC   C1B 3430  10.356   9.777   4.522
  240POPC   C2B 3431  10.273   9.793   4.975
  240POPC   C3B 3432  10.159   9.911   5.429
  240POPC   C4B 3433  10.288  10.007   5.908
  241POPC   NC3 3434   4.844  11.136   3.814
  241POPC   PO4 3435   5.593  11.169   3.809
  241POPC   GL1 3436   5.380  11.166   4.223
  241POPC   GL2 3437   5.025  11.243   4.289
  241POPC   C1A 3438   5.288  11.038   4.667
  241POPC   D2A 3439   5.130  11.300   4.992
  241POPC   C3A 3440   5.187  11.109   5.392
  241POPC   C4A 3441   5.195  11.418   5.703
  241POPC   C1B 3442   4.731  11.292   4.656
  241POPC   C2B 3443   4.618  11.439   5.078
  241POPC   C3B 3444   4.539  11.290   5.479
  241POPC   C4B 3445   4.785  11.124   5.753
  242POPC   NC3 3446  11.308   5.968   3.599
  242POPC   PO4 3447  10.944   5.616   4.054
  242POPC   GL1 3448  11.126   5.718   4.416
  242POPC   GL2 3449  11.429   5.704   4.257
  242POPC   C1A 3450  11.208   5.553   4.843
  242POPC   D2A 3451  11.060   5.364   5.270
  242POPC   C3A 3452  11.044   5.709   5.596
  242POPC   C4A 3453  10.892   6.129   5.552
  242POPC   C1B 3454   0.006   6.006   4.594
  242POPC   C2B 3455  11.246   6.073   4.934
  242POPC   C3B 3456  11.365   6.050   5.361
  242POPC   C4B 3457  11.376   6.227   5.778
  243POPC   NC3 3458   8.033  11.097   3.864
  243POPC   PO4 3459   7.662  10.745   4.203
  243POPC   GL1 3460   7.937  11.047   4.371
  243POPC   GL2 3461   8.322  11.075   4.280
  243POPC   C1A 3462   7.821  11.136   4.778
  243POPC   D2A 3463   7.944  11.277   5.164
  243POPC   C3A 3464   7.956  11.076   5.559
  243POPC   C4A 3465   7.867  11.296   5.958
  243POPC   C1B 3466   8.336  11.179   4.711
  243POPC   C2B 3467   8.381  10.981   5.105
  243POPC   C3B 3468   8.471  11.189   5.462
  243POPC   C4B 3469   8.352  11.170   5.892
  244POPC   NC3 3470   2.153   9.032   3.882
  244POPC   PO4 3471   1.574   9.340   3.973
  244POPC   GL1 3472   1.645   9.227   4.397
  244POPC   GL2 3473   1.888   9.011   4.329
  244POPC   C1A 3474   1.647   9.014   4.816
  244POPC   D2A 3475   1.817   8.735   5.165
  244POPC   C3A 3476   1.656   8.723   5.625
  244POPC   C4A 3477   1.664   8.965   6.028
  244POPC   C1B 3478   2.054   8.800   4.627
  244POPC   C2B 3479   2.291   8.789   4.951
  244POPC   C3B 3480   2.284   8.811   5.396
  244POPC   C4B 3481   2.148   9.033   5.755
  245POPC   NC3 3482   4.365   0.499   3.802
  245POPC   PO4 3483   4.153  11.373   3.899
  245POPC   GL1 3484   4.281   0.196   4.236
  245POPC   GL2 3485   4.231   0.536   4.341
  245POPC   C1A 3486   4.365   0.213   4.699
  245POPC   D2A 3487   4.149   0.285   5.082
  245POPC   C3A 3488   4.381   0.280   5.445
  245POPC   C4A 3489   4.340   0.288   5.883
  245POPC   C1B 3490   4.305   0.737   4.778
  245POPC   C2B 3491   4.530   0.726   5.195
  245POPC   C3B 3492   4.517   0.731   5.662
  245POPC   C4B 3493   4.051   0.675   5.734
  246POPC   NC3 3494   8.735   9.583   3.859
  246POPC   PO4 3495   9.351   9.293   3.948
  246POPC   GL1 3496   9.123   9.475   4.335
  246POPC   GL2 3497   8.838   9.705   4.338
  246POPC   C1A 3498   8.918   9.302   4.752
  246POPC   D2A 3499   8.772   9.167   5.210
  246POPC   C3A 3500   9.059   9.340   5.561
  246POPC   C4A 3501   9.118   9.174   6.017
  246POPC   C1B 3502   9.026   9.811   4.732
  246POPC   C2B 3503   8.896   9.657   5.154
  246POPC   C3B 3504   8.873   9.857   5.560
  246POPC   C4B 3505   9.187  10.024   5.826
  247POPC   NC3 3506   2.284   0.571   3.914
  247POPC   PO4 3507   1.761   0.159   4.003
  247POPC   GL1 3508   2.033   0.205   4.315
  247POPC   GL2 3509   2.125   0.565   4.388
  247POPC   C1A 3510   1.947   0.185   4.733
  247POPC   D2A 3511   1.783   0.153   5.125
  247POPC   C3A 3512   2.141   0.086   5.426
  247POPC   C4A 3513   2.044   0.057   5.845
  247POPC   C1B 3514   1.865   0.703   4.706
  247POPC   C2B 3515   1.646   0.652   5.081
  247POPC   C3B 3516   1.870   0.529   5.443
  247POPC   C4B 3517   2.128   0.568   5.759
  248POPC   NC3 3518  10.480   6.117   3.719
  248POPC   PO4 3519  10.623   6.728   3.964
  248POPC   GL1 3520  10.545   6.685   4.342
  248POPC   GL2 3521  10.394   6.368   4.252
  248POPC   C1A 3522  10.397   6.792   4.732
  248POPC   D2A 3523  10.229   6.540   5.047
  248POPC   C3A 3524  10.318   6.697   5.413
  248POPC   C4A 3525  10.030   6.588   5.728
  248POPC   C1B 3526  10.456   6.267   4.682
  248POPC   C2B 3527  10.358   6.015   5.015
  248POPC   C3B 3528  10.339   6.171   5.435
  248POPC   C4B 3529  10.497   6.378   5.759
  249POPC   NC3 3530   0.436   1.962   3.739
  249POPC   PO4 3531   0.117   2.299   4.130
  249POPC   GL1 3532   0.237   1.939   4.296
  249POPC   GL2 3533   0.565   1.986   4.251
  249POPC   C1A 3534   0.201   1.817   4.715
  249POPC   D2A 3535   0.374   1.950   5.089
  249POPC   C3A 3536   0.183   1.865   5.443
  249POPC   C4A 3537   0.014   2.213   5.648
  249POPC   C1B 3538   0.652   2.080   4.674
  249POPC   C2B 3539   0.669   2.354   5.038
  249POPC   C3B 3540   0.506   2.316   5.473
  249POPC   C4B 3541   0.504   1.979   5.797
  250POPC   NC3 3542   0.501   8.827   3.880
  250POPC   PO4 3543  11.420   8.455   3.817
  250POPC   GL1 3544   0.212   8.583   4.222
  250POPC   GL2 3545   0.556   8.729   4.358
  250POPC   C1A 3546   0.145   8.841   4.634
  250POPC   D2A 3547   0.324   8.834   5.060
  250POPC   C3A 3548   0.193   9.135   5.405
  250POPC   C4A 3549   0.065   9.159   5.842
  250POPC   C1B 3550   0.781   8.725   4.726
  250POPC   C2B 3551   0.878   8.778   5.103
  250POPC   C3B 3552   0.686   8.979   5.402
  250POPC   C4B 3553   0.444   8.855   5.759
  251POPC   NC3 3554  11.193  11.271   3.709
  251POPC   PO4 3555  10.661   0.157   3.747
  251POPC   GL1 3556  11.159   0.100   4.091
  251POPC   GL2 3557  11.184  11.250   4.215
  251POPC   C1A 3558  11.231   0.041   4.623
  251POPC   D2A 3559  11.070  11.304   5.042
  251POPC   C3A 3560  11.185  11.388   5.502
  251POPC   C4A 3561  11.108  11.497   5.960
  251POPC   C1B 3562  11.176  11.027   4.636
  251POPC   C2B 3563  11.342  10.830   5.018
  251POPC   C3B 3564  11.366  10.854   5.455
  251POPC   C4B 3565  11.163  10.990   5.841
  252POPC   NC3 3566   4.168   1.016   4.171
  252POPC   PO4 3567   4.646   1.418   3.842
  252POPC   GL1 3568   4.651   1.246   4.237
  252POPC   GL2 3569   4.395   1.431   4.371
  252POPC   C1A 3570   4.669   1.156   4.694
  252POPC   D2A 3571   4.552   1.217   5.109
  252POPC   C3A 3572   4.612   1.454   5.464
  252POPC   C4A 3573   4.754   1.223   5.805
  252POPC   C1B 3574   4.183   1.324   4.764
  252POPC   C2B 3575   4.079   1.353   5.198
  252POPC   C3B 3576   4.228   1.128   5.525
  252POPC   C4B 3577   4.152   1.458   5.761
  253POPC   NC3 3578   5.685  10.628   3.943
  253POPC   PO4 3579   6.031  10.062   3.937
  253POPC   GL1 3580   5.901  10.298   4.335
  253POPC   GL2 3581   6.018  10.664   4.351
  253POPC   C1A 3582   5.772  10.134   4.792
  253POPC   D2A 3583   5.567   9.969   5.195
  253POPC   C3A 3584   5.817   9.949   5.552
  253POPC   C4A 3585   5.883  10.289   5.785
  253POPC   C1B 3586   5.642  10.604   4.654
  253POPC   C2B 3587   5.519  10.467   5.095
  253POPC   C3B 3588   5.606  10.607   5.493
  253POPC   C4B 3589   5.941  10.779   5.768
  254POPC   NC3 3590   1.873  10.572   3.569
  254POPC   PO4 3591   2.427  10.934   3.835
  254POPC   GL1 3592   2.323  10.791   4.330
  254POPC   GL2 3593   1.985  10.610   4.468
  254POPC   C1A 3594   2.292  10.833   4.828
  254POPC   D2A 3595   1.986  10.730   5.172
  254POPC   C3A 3596   2.038  10.824   5.577
  254POPC   C4A 3597   2.292  10.670   5.871
  254POPC   C1B 3598   2.080  10.331   4.865
  254POPC   C2B 3599   2.165  10.167   5.279
  254POPC   C3B 3600   1.959  10.335   5.609
  254POPC   C4B 3601   1.598  10.579   5.650
  255POPC   NC3 3602   9.692  11.112   3.805
  255POPC   PO4 3603   9.156   0.008   3.657
  255POPC   GL1 3604   9.466  11.475   4.094
  255POPC   GL2 3605   9.559  11.122   4.280
  255POPC   C1A 3606   9.537  11.495   4.604
  255POPC   D2A 3607   9.436  11.374   5.089
  255POPC   C3A 3608   9.652  11.256   5.531
  255POPC   C4A 3609   9.730  11.378   6.042
  255POPC   C1B 3610   9.615  10.952   4.712
  255POPC   C2B 3611   9.334  10.846   5.071
  255POPC   C3B 3612   9.234  10.903   5.499
  255POPC   C4B 3613   9.505  10.904   5.876
  256POPC   NC3 3614   9.158   4.773   4.032
  256POPC   PO4 3615   8.615   5.007   3.926
  256POPC   GL1 3616   8.750   5.168   4.359
  256POPC   GL2 3617   9.090   5.117   4.429
  256POPC   C1A 3618   8.760   5.038   4.818
  256POPC   D2A 3619   8.732   4.869   5.257
  256POPC   C3A 3620   8.744   4.929   5.705
  256POPC   C4A 3621   8.417   4.913   6.031
  256POPC   C1B 3622   9.180   5.317   4.814
  256POPC   C2B 3623   9.180   5.236   5.253
  256POPC   C3B 3624   9.144   5.247   5.676
  256POPC   C4B 3625   9.231   4.959   5.997
  257POPC   NC3 3626   2.891   3.781   4.003
  257POPC   PO4 3627   2.671   3.170   3.950
  257POPC   GL1 3628   2.660   3.388   4.305
  257POPC   GL2 3629   2.376   3.291   4.455
  257POPC   C1A 3630   2.773   3.543   4.710
  257POPC   D2A 3631   2.970   3.388   5.081
  257POPC   C3A 3632   2.884   3.534   5.501
  257POPC   C4A 3633   3.130   3.426   5.864
  257POPC   C1B 3634   2.436   3.199   4.878
  257POPC   C2B 3635   2.483   3.266   5.293
  257POPC   C3B 3636   2.367   3.516   5.641
  257POPC   C4B 3637   2.620   3.485   5.966
  258POPC   NC3 3638   4.149  10.668   4.065
  258POPC   PO4 3639   4.434  10.099   4.138
  258POPC   GL1 3640   4.123  10.220   4.454
  258POPC   GL2 3641   3.824  10.346   4.335
  258POPC   C1A 3642   4.196  10.183   4.920
  258POPC   D2A 3643   4.574  10.126   5.204
  258POPC   C3A 3644   4.665  10.302   5.618
  258POPC   C4A 3645   4.697  10.641   5.908
  258POPC   C1B 3646   3.902  10.624   4.721
  258POPC   C2B 3647   3.880  10.528   5.157
  258POPC   C3B 3648   4.121  10.305   5.442
  258POPC   C4B 3649   4.230  10.433   5.852
  259POPC   NC3 3650   5.032   0.661   3.959
  259POPC   PO4 3651   5.150   0.034   3.719
  259POPC   GL1 3652   5.179   0.222   4.174
  259POPC   GL2 3653   4.819   0.242   4.303
  259POPC   C1A 3654   5.261   0.488   4.561
  259POPC   D2A 3655   5.343   0.371   5.007
  259POPC   C3A 3656   5.297   0.517   5.463
  259POPC   C4A 3657   5.380   0.351   5.900
  259POPC   C1B 3658   4.866   0.273   4.774
  259POPC   C2B 3659   4.872   0.361   5.229
  259POPC   C3B 3660   4.852   0.318   5.686
  259POPC   C4B 3661   4.820   0.485   6.109
  260POPC   NC3 3662   1.878   7.978   3.991
  260POPC   PO4 3663   1.891   8.661   3.966
  260POPC   GL1 3664   2.046   8.395   4.298
  260POPC   GL2 3665   1.740   8.256   4.414
  260POPC   C1A 3666   2.071   8.322   4.779
  260POPC   D2A 3667   1.766   8.220   5.123
  260POPC   C3A 3668   1.988   8.352   5.498
  260POPC   C4A 3669   2.188   8.542   5.832
  260POPC   C1B 3670   1.848   7.874   4.672
  260POPC   C2B 3671   1.783   7.694   5.103
  260POPC   C3B 3672   1.782   7.855   5.527
  260POPC   C4B 3673   1.561   8.216   5.707
  261POPC   NC3 3674   8.801   2.690   4.074
  261POPC   PO4 3675   9.322   3.021   4.154
  261POPC   GL1 3676   9.097   2.865   4.498
  261POPC   GL2 3677   9.111   2.552   4.483
  261POPC   C1A 3678   9.004   2.823   4.941
  261POPC   D2A 3679   8.975   2.737   5.385
  261POPC   C3A 3680   9.195   3.040   5.674
  261POPC   C4A 3681   9.157   3.170   6.059
  261POPC   C1B 3682   8.675   2.496   4.690
  261POPC   C2B 3683   8.465   2.347   5.080
  261POPC   C3B 3684   8.627   2.363   5.518
  261POPC   C4B 3685   8.595   2.760   5.753
  262POPC   NC3 3686   3.218  10.851   3.948
  262POPC   PO4 3687   3.313   0.012   3.979
  262POPC   GL1 3688   3.167  11.284   4.313
  262POPC   GL2 3689   3.453  11.132   4.342
  262POPC   C1A 3690   3.224  11.322   4.780
  262POPC   D2A 3691   3.245  11.124   5.181
  262POPC   C3A 3692   3.211  11.347   5.552
  262POPC   C4A 3693   3.301  11.417   5.991
  262POPC   C1B 3694   3.708  11.102   4.693
  262POPC   C2B 3695   3.735  11.017   5.117
  262POPC   C3B 3696   3.647  11.048   5.529
  262POPC   C4B 3697   3.817  10.696   5.697
  263POPC   NC3 3698  11.247   2.111   3.951
  263POPC   PO4 3699   0.136   1.596   3.902
  263POPC   GL1 3700  11.278   1.701   4.281
  263POPC   GL2 3701  10.975   1.981   4.339
  263POPC   C1A 3702  11.196   1.849   4.751
  263POPC   D2A 3703  11.333   2.061   5.111
  263POPC   C3A 3704  11.179   1.853   5.483
  263POPC   C4A 3705  11.400   1.796   5.907
  263POPC   C1B 3706  10.747   2.114   4.723
  263POPC   C2B 3707  10.823   2.050   5.137
  263POPC   C3B 3708  10.708   2.092   5.541
  263POPC   C4B 3709  10.995   2.181   5.846
  264POPC   NC3 3710   4.363   1.785   3.770
  264POPC   PO4 3711   3.862   1.367   4.079
  264POPC   GL1 3712   3.921   1.645   4.444
  264POPC   GL2 3713   4.157   1.853   4.238
  264POPC   C1A 3714   3.914   1.734   4.901
  264POPC   D2A 3715   4.022   2.017   5.220
  264POPC   C3A 3716   4.125   1.937   5.610
  264POPC   C4A 3717   3.894   1.854   5.965
  264POPC   C1B 3718   4.307   1.936   4.665
  264POPC   C2B 3719   4.426   1.741   5.073
  264POPC   C3B 3720   4.614   1.980   5.436
  264POPC   C4B 3721   4.728   2.236   5.819
  265POPC   NC3 3722   1.129   6.642   3.751
  265POPC   PO4 3723   1.484   6.428   4.206
  265POPC   GL1 3724   1.314   6.407   4.555
  265POPC   GL2 3725   0.998   6.384   4.447
  265POPC   C1A 3726   1.297   6.641   4.905
  265POPC   D2A 3727   1.285   6.872   5.261
  265POPC   C3A 3728   1.307   6.663   5.640
  265POPC   C4A 3729   1.525   6.884   5.986
  265POPC   C1B 3730   0.823   6.482   4.837
  265POPC   C2B 3731   0.864   6.533   5.270
  265POPC   C3B 3732   0.835   6.192   5.503
  265POPC   C4B 3733   1.035   6.262   5.874
  266POPC   NC3 3734   1.372   6.073   3.947
  266POPC   PO4 3735   1.128   5.442   3.941
  266POPC   GL1 3736   1.308   5.667   4.281
  266POPC   GL2 3737   1.031   5.881   4.299
  266POPC   C1A 3738   1.394   5.528   4.705
  266POPC   D2A 3739   1.258   5.671   5.123
  266POPC   C3A 3740   1.536   5.656   5.448
  266POPC   C4A 3741   1.514   5.486   5.823
  266POPC   C1B 3742   1.115   5.967   4.724
  266POPC   C2B 3743   1.196   6.192   5.094
  266POPC   C3B 3744   1.351   6.120   5.499
  266POPC   C4B 3745   1.068   5.756   5.635
  267POPC   NC3 3746   7.265   2.197   3.939
  267POPC   PO4 3747   7.090   1.580   3.661
  267POPC   GL1 3748   7.216   1.718   4.086
  267POPC   GL2 3749   7.571   1.829   4.183
  267POPC   C1A 3750   7.145   1.922   4.528
  267POPC   D2A 3751   7.173   1.990   5.002
  267POPC   C3A 3752   6.870   1.940   5.348
  267POPC   C4A 3753   7.032   1.771   5.735
  267POPC   C1B 3754   7.654   1.937   4.635
  267POPC   C2B 3755   7.656   1.807   5.072
  267POPC   C3B 3756   7.450   1.959   5.450
  267POPC   C4B 3757   7.156   2.259   5.608
  268POPC   NC3 3758  10.278   8.227   3.647
  268POPC   PO4 3759  10.038   7.697   3.902
  268POPC   GL1 3760  10.355   7.815   4.230
  268POPC   GL2 3761  10.425   8.184   4.291
  268POPC   C1A 3762  10.167   7.890   4.667
  268POPC   D2A 3763   9.948   8.092   5.001
  268POPC   C3A 3764  10.106   7.960   5.387
  268POPC   C4A 3765  10.133   7.948   5.790
  268POPC   C1B 3766  10.412   8.325   4.743
  268POPC   C2B 3767  10.307   8.384   5.188
  268POPC   C3B 3768  10.540   8.220   5.567
  268POPC   C4B 3769  10.607   8.398   5.981
  269POPC   NC3 3770   2.781   9.461   3.835
  269POPC   PO4 3771   2.191   9.817   3.842
  269POPC   GL1 3772   2.516   9.762   4.210
  269POPC   GL2 3773   2.861   9.613   4.315
  269POPC   C1A 3774   2.514   9.616   4.676
  269POPC   D2A 3775   2.756   9.703   5.072
  269POPC   C3A 3776   2.488   9.767   5.404
  269POPC   C4A 3777   2.342   9.487   5.682
  269POPC   C1B 3778   2.978   9.372   4.718
  269POPC   C2B 3779   3.046   9.246   5.168
  269POPC   C3B 3780   2.994   9.551   5.526
  269POPC   C4B 3781   2.795   9.804   5.827
  270POPC   NC3 3782   3.853  11.024   3.733
  270POPC   PO4 3783   4.532  10.773   3.814
  270POPC   GL1 3784   4.591  10.914   4.238
  270POPC   GL2 3785   4.517  11.242   4.215
  270POPC   C1A 3786   4.411  10.837   4.663
  270POPC   D2A 3787   4.375  10.632   5.063
  270POPC   C3A 3788   4.204  10.870   5.388
  270POPC   C4A 3789   4.289  10.941   5.807
  270POPC   C1B 3790   4.184  11.267   4.541
  270POPC   C2B 3791   4.172  11.229   4.984
  270POPC   C3B 3792   4.041  11.370   5.394
  270POPC   C4B 3793   3.951  11.346   5.837
  271POPC   NC3 3794   2.831   6.591   3.882
  271POPC   PO4 3795   2.905   7.168   4.006
  271POPC   GL1 3796   2.847   6.819   4.363
  271POPC   GL2 3797   2.565   6.590   4.317
  271POPC   C1A 3798   2.905   6.608   4.816
  271POPC   D2A 3799   3.032   6.438   5.265
  271POPC   C3A 3800   2.847   6.634   5.644
  271POPC   C4A 3801   2.463   6.608   5.902
  271POPC   C1B 3802   2.534   6.298   4.623
  271POPC   C2B 3803   2.677   6.186   5.019
  271POPC   C3B 3804   2.550   6.272   5.438
  271POPC   C4B 3805   2.251   6.169   5.752
  272POPC   NC3 3806   6.951   3.080   4.137
  272POPC   PO4 3807   6.811   2.409   3.986
  272POPC   GL1 3808   7.057   2.583   4.342
  272POPC   GL2 3809   7.416   2.580   4.279
  272POPC   C1A 3810   7.069   2.792   4.780
  272POPC   D2A 3811   7.282   2.857   5.202
  272POPC   C3A 3812   7.113   2.782   5.644
  272POPC   C4A 3813   7.164   2.968   6.090
  272POPC   C1B 3814   7.386   2.377   4.699
  272POPC   C2B 3815   7.467   2.377   5.148
  272POPC   C3B 3816   7.593   2.492   5.562
  272POPC   C4B 3817   7.764   2.414   5.972
  273POPC   NC3 3818   1.814   9.928   3.593
  273POPC   PO4 3819   2.091  10.147   4.261
  273POPC   GL1 3820   2.083   9.780   4.476
  273POPC   GL2 3821   2.090   9.472   4.245
  273POPC   C1A 3822   2.069   9.801   4.886
  273POPC   D2A 3823   1.759   9.880   5.115
  273POPC   C3A 3824   1.915   9.686   5.419
  273POPC   C4A 3825   2.049   9.868   5.751
  273POPC   C1B 3826   2.044   9.330   4.695
  273POPC   C2B 3827   2.031   9.221   5.119
  273POPC   C3B 3828   1.771   9.188   5.463
  273POPC   C4B 3829   1.803   9.414   5.841
  274POPC   NC3 3830   7.258   8.827   3.856
  274POPC   PO4 3831   7.062   9.402   4.123
  274POPC   GL1 3832   7.317   9.135   4.433
  274POPC   GL2 3833   7.483   8.817   4.312
  274POPC   C1A 3834   7.312   8.997   4.885
  274POPC   D2A 3835   7.335   8.853   5.307
  274POPC   C3A 3836   7.116   9.070   5.688
  274POPC   C4A 3837   6.817   9.061   6.081
  274POPC   C1B 3838   7.736   8.857   4.653
  274POPC   C2B 3839   7.818   8.789   5.056
  274POPC   C3B 3840   7.816   8.778   5.475
  274POPC   C4B 3841   7.492   8.691   5.755
  275POPC   NC3 3842   2.784   1.294   3.714
  275POPC   PO4 3843   2.635   1.822   3.985
  275POPC   GL1 3844   2.739   1.510   4.291
  275POPC   GL2 3845   2.902   1.209   4.229
  275POPC   C1A 3846   2.552   1.412   4.704
  275POPC   D2A 3847   2.339   1.323   5.084
  275POPC   C3A 3848   2.295   1.537   5.446
  275POPC   C4A 3849   2.353   1.418   5.839
  275POPC   C1B 3850   3.032   1.217   4.662
  275POPC   C2B 3851   2.812   1.111   5.066
  275POPC   C3B 3852   2.706   1.222   5.505
  275POPC   C4B 3853   2.774   1.158   5.970
  276POPC   NC3 3854   3.767   2.556   3.998
  276POPC   PO4 3855   3.190   2.473   3.672
  276POPC   GL1 3856   3.113   2.573   4.195
  276POPC   GL2 3857   3.454   2.570   4.435
  276POPC   C1A 3858   3.011   2.507   4.678
  276POPC   D2A 3859   3.198   2.440   5.136
  276POPC   C3A 3860   3.238   2.645   5.569
  276POPC   C4A 3861   3.487   2.687   5.985
  276POPC   C1B 3862   3.363   2.846   4.831
  276POPC   C2B 3863   3.397   3.092   5.229
  276POPC   C3B 3864   3.491   3.092   5.678
  276POPC   C4B 3865   3.873   3.104   5.962
  277POPC   NC3 3866   8.991  11.057   3.581
  277POPC   PO4 3867   9.261  10.735   4.152
  277POPC   GL1 3868   8.894  10.983   4.312
  277POPC   GL2 3869   9.033  11.301   4.287
  277POPC   C1A 3870   8.716  10.843   4.718
  277POPC   D2A 3871   8.829  10.656   5.120
  277POPC   C3A 3872   8.689  10.743   5.540
  277POPC   C4A 3873   8.837  11.058   5.784
  277POPC   C1B 3874   9.137  11.154   4.716
  277POPC   C2B 3875   8.917  11.180   5.128
  277POPC   C3B 3876   9.058  11.398   5.491
  277POPC   C4B 3877   9.020   0.250   5.788
  278POPC   NC3 3878   6.344   2.577   4.018
  278POPC   PO4 3879   6.523   3.190   4.110
  278POPC   GL1 3880   6.597   2.807   4.427
  278POPC   GL2 3881   6.561   2.421   4.444
  278POPC   C1A 3882   6.571   2.712   4.889
  278POPC   D2A 3883   6.761   2.903   5.254
  278POPC   C3A 3884   6.564   2.930   5.663
  278POPC   C4A 3885   6.661   3.132   6.056
  278POPC   C1B 3886   6.871   2.317   4.747
  278POPC   C2B 3887   6.958   2.439   5.167
  278POPC   C3B 3888   6.702   2.460   5.534
  278POPC   C4B 3889   6.342   2.477   5.846
  279POPC   NC3 3890   0.430   2.765   3.771
  279POPC   PO4 3891   0.119   3.094   4.167
  279POPC   GL1 3892   0.499   2.886   4.332
  279POPC   GL2 3893   0.503   2.497   4.384
  279POPC   C1A 3894   0.659   2.789   4.752
  279POPC   D2A 3895   0.474   2.808   5.139
  279POPC   C3A 3896   0.742   2.950   5.446
  279POPC   C4A 3897   0.690   2.787   5.817
  279POPC   C1B 3898   0.225   2.363   4.769
  279POPC   C2B 3899   0.093   2.479   5.183
  279POPC   C3B 3900   0.182   2.704   5.562
  279POPC   C4B 3901   0.268   2.520   5.962
  280POPC   NC3 3902  11.202   3.690   3.783
  280POPC   PO4 3903  11.482   3.164   3.648
  280POPC   GL1 3904  11.431   3.521   4.165
  280POPC   GL2 3905  11.100   3.511   4.252
  280POPC   C1A 3906  11.492   3.619   4.646
  280POPC   D2A 3907   0.002   3.380   5.056
  280POPC   C3A 3908   0.010   3.597   5.412
  280POPC   C4A 3909  11.345   3.510   5.825
  280POPC   C1B 3910  11.001   3.696   4.613
  280POPC   C2B 3911  11.038   3.527   4.988
  280POPC   C3B 3912  11.009   3.495   5.401
  280POPC   C4B 3913  10.758   3.774   5.574
  281POPC   NC3 3914   3.364  10.144   4.146
  281POPC   PO4 3915   3.683  10.757   4.086
  281POPC   GL1 3916   3.341  10.623   4.371
  281POPC   GL2 3917   3.365  10.351   4.599
  281POPC   C1A 3918   3.255  10.821   4.743
  281POPC   D2A 3919   3.377  10.615   5.093
  281POPC   C3A 3920   3.253  10.696   5.502
  281POPC   C4A 3921   3.362  10.525   5.925
  281POPC   C1B 3922   3.701  10.169   4.800
  281POPC   C2B 3923   3.540  10.134   5.143
  281POPC   C3B 3924   3.565  10.297   5.494
  281POPC   C4B 3925   3.785  10.185   5.818
  282POPC   NC3 3926   3.771   0.094   4.070
  282POPC   PO4 3927   3.955   0.698   3.902
  282POPC   GL1 3928   3.736   0.599   4.279
  282POPC   GL2 3929   3.425   0.458   4.252
  282POPC   C1A 3930   3.828   0.373   4.680
  282POPC   D2A 3931   3.695   0.027   4.990
  282POPC   C3A 3932   3.608   0.143   5.434
  282POPC   C4A 3933   3.701   0.288   5.855
  282POPC   C1B 3934   3.304   0.316   4.682
  282POPC   C2B 3935   3.487   0.508   5.067
  282POPC   C3B 3936   3.415   0.645   5.504
  282POPC   C4B 3937   3.164   0.342   5.744
  283POPC   NC3 3938   4.164   9.707   4.012
  283POPC   PO4 3939   4.844   9.618   3.851
  283POPC   GL1 3940   4.588   9.547   4.300
  283POPC   GL2 3941   4.297   9.740   4.473
  283POPC   C1A 3942   4.516   9.481   4.811
  283POPC   D2A 3943   4.726   9.473   5.226
  283POPC   C3A 3944   4.529   9.481   5.664
  283POPC   C4A 3945   4.604   9.652   6.116
  283POPC   C1B 3946   4.033   9.717   4.798
  283POPC   C2B 3947   3.888   9.793   5.176
  283POPC   C3B 3948   3.981   9.751   5.590
  283POPC   C4B 3949   4.324   9.940   5.786
  284POPC   NC3 3950  10.370  10.271   3.831
  284POPC   PO4 3951  10.066  10.855   3.935
  284POPC   GL1 3952  10.389  10.698   4.222
  284POPC   GL2 3953  10.553  10.372   4.308
  284POPC   C1A 3954  10.322  10.732   4.660
  284POPC   D2A 3955  10.434  10.522   5.029
  284POPC   C3A 3956  10.380  10.786   5.333
  284POPC   C4A 3957  10.436  10.773   5.732
  284POPC   C1B 3958  10.617  10.176   4.719
  284POPC   C2B 3959  10.647  10.074   5.174
  284POPC   C3B 3960  10.517  10.286   5.520
  284POPC   C4B 3961  10.791  10.227   5.813
  285POPC   NC3 3962   0.907   5.016   3.951
  285POPC   PO4 3963   0.337   5.403   3.961
  285POPC   GL1 3964   0.718   5.382   4.325
  285POPC   GL2 3965   1.077   5.205   4.389
  285POPC   C1A 3966   0.860   5.487   4.744
  285POPC   D2A 3967   1.115   5.196   4.987
  285POPC   C3A 3968   1.196   5.238   5.435
  285POPC   C4A 3969   0.884   5.081   5.698
  285POPC   C1B 3970   1.330   4.890   4.628
  285POPC   C2B 3971   1.430   4.806   5.089
  285POPC   C3B 3972   1.346   4.733   5.545
  285POPC   C4B 3973   1.532   4.981   5.863
  286POPC   NC3 3974   7.203   9.816   3.995
  286POPC   PO4 3975   7.911   9.875   3.889
  286POPC   GL1 3976   7.683   9.975   4.323
  286POPC   GL2 3977   7.462   9.684   4.403
  286POPC   C1A 3978   7.679   9.876   4.816
  286POPC   D2A 3979   7.345   9.892   5.150
  286POPC   C3A 3980   7.495  10.011   5.565
  286POPC   C4A 3981   7.497   9.719   5.877
  286POPC   C1B 3982   7.300   9.508   4.812
  286POPC   C2B 3983   7.308   9.386   5.270
  286POPC   C3B 3984   7.092   9.611   5.575
  286POPC   C4B 3985   6.702   9.503   5.788
  287POPC   NC3 3986   7.423   0.274   3.843
  287POPC   PO4 3987   7.693   0.905   3.871
  287POPC   GL1 3988   7.720   0.686   4.266
  287POPC   GL2 3989   7.420   0.536   4.283
  287POPC   C1A 3990   7.764   0.513   4.724
  287POPC   D2A 3991   7.793   0.309   5.201
  287POPC   C3A 3992   7.675   0.621   5.567
  287POPC   C4A 3993   7.724   0.702   6.067
  287POPC   C1B 3994   7.234   0.603   4.655
  287POPC   C2B 3995   7.373   0.569   5.065
  287POPC   C3B 3996   7.276   0.329   5.414
  287POPC   C4B 3997   7.097   0.650   5.668
  288POPC   NC3 3998   5.037   9.220   4.007
  288POPC   PO4 3999   4.837   8.624   3.744
  288POPC   GL1 4000   4.726   8.698   4.218
  288POPC   GL2 4001   4.733   9.034   4.356
  288POPC   C1A 4002   4.660   8.526   4.684
  288POPC   D2A 4003   4.917   8.581   5.079
  288POPC   C3A 4004   4.871   8.650   5.538
  288POPC   C4A 4005   5.018   8.768   5.983
  288POPC   C1B 4006   5.025   8.898   4.689
  288POPC   C2B 4007   5.037   9.066   5.139
  288POPC   C3B 4008   4.978   9.174   5.579
  288POPC   C4B 4009   5.351   9.146   5.835
  289POPC   NC3 4010   5.076   1.251   3.924
  289POPC   PO4 4011   4.604   0.757   4.088
  289POPC   GL1 4012   4.824   0.741   4.437
  289POPC   GL2 4013   5.072   0.979   4.368
  289POPC   C1A 4014   4.964   0.769   4.855
  289POPC   D2A 4015   5.048   1.071   5.089
  289POPC   C3A 4016   4.955   0.927   5.443
  289POPC   C4A 4017   5.090   0.809   5.829
  289POPC   C1B 4018   5.122   1.366   4.649
  289POPC   C2B 4019   4.942   1.559   5.049
  289POPC   C3B 4020   5.119   1.448   5.474
  289POPC   C4B 4021   5.450   1.521   5.770
  290POPC   NC3 4022   4.354   7.552   4.164
  290POPC   PO4 4023   3.789   7.575   4.237
  290POPC   GL1 4024   4.060   7.413   4.574
  290POPC   GL2 4025   4.274   7.145   4.468
  290POPC   C1A 4026   4.108   7.443   5.015
  290POPC   D2A 4027   4.316   7.751   5.271
  290POPC   C3A 4028   4.234   7.628   5.683
  290POPC   C4A 4029   3.944   7.283   5.755
  290POPC   C1B 4030   4.400   7.032   4.878
  290POPC   C2B 4031   4.547   7.255   5.234
  290POPC   C3B 4032   4.467   7.161   5.664
  290POPC   C4B 4033   4.194   6.848   5.891
  291POPC   NC3 4034   0.369   0.541   3.828
  291POPC   PO4 4035   0.093  11.474   3.808
  291POPC   GL1 4036   0.147   0.122   4.288
  291POPC   GL2 4037   0.387   0.415   4.309
  291POPC   C1A 4038   0.496   0.080   4.655
  291POPC   D2A 4039   0.771   0.252   4.979
  291POPC   C3A 4040   0.672   0.136   5.423
  291POPC   C4A 4041   0.938   0.268   5.760
  291POPC   C1B 4042   0.549   0.613   4.682
  291POPC   C2B 4043   0.369   0.638   5.122
  291POPC   C3B 4044   0.437   0.569   5.593
  291POPC   C4B 4045   0.346   0.644   6.031
  292POPC   NC3 4046  10.374   2.261   3.487
  292POPC   PO4 4047  10.201   1.697   3.877
  292POPC   GL1 4048  10.224   2.014   4.206
  292POPC   GL2 4049  10.509   2.198   4.274
  292POPC   C1A 4050  10.183   2.032   4.660
  292POPC   D2A 4051  10.339   1.872   5.039
  292POPC   C3A 4052  10.106   1.985   5.401
  292POPC   C4A 4053  10.166   2.165   5.773
  292POPC   C1B 4054  10.546   1.724   4.472
  292POPC   C2B 4055  10.735   1.613   4.878
  292POPC   C3B 4056  10.703   1.587   5.352
  292POPC   C4B 4057  10.424   1.707   5.719
  293POPC   NC3 4058   1.358   1.690   4.015
  293POPC   PO4 4059   1.487   2.241   3.719
  293POPC   GL1 4060   1.394   2.273   4.182
  293POPC   GL2 4061   1.069   2.119   4.212
  293POPC   C1A 4062   1.510   2.232   4.651
  293POPC   D2A 4063   1.711   2.275   5.095
  293POPC   C3A 4064   1.417   2.125   5.430
  293POPC   C4A 4065   1.352   2.036   5.870
  293POPC   C1B 4066   1.118   1.887   4.616
  293POPC   C2B 4067   1.075   2.048   5.029
  293POPC   C3B 4068   0.871   1.943   5.406
  293POPC   C4B 4069   1.017   1.690   5.750
  294POPC   NC3 4070   0.453  10.517   3.709
  294POPC   PO4 4071   0.662  10.057   4.049
  294POPC   GL1 4072   0.573  10.447   4.237
  294POPC   GL2 4073   0.239  10.525   4.213
  294POPC   C1A 4074   0.697  10.582   4.630
  294POPC   D2A 4075   0.717  10.262   4.948
  294POPC   C3A 4076   0.659  10.448   5.329
  294POPC   C4A 4077   0.651  10.357   5.751
  294POPC   C1B 4078   0.277  10.293   4.639
  294POPC   C2B 4079   0.143  10.409   5.069
  294POPC   C3B 4080   0.189  10.439   5.526
  294POPC   C4B 4081   0.197  10.300   5.973
  295POPC   NC3 4082   2.923   2.851   3.733
  295POPC   PO4 4083   2.397   2.478   3.861
  295POPC   GL1 4084   2.582   2.557   4.228
  295POPC   GL2 4085   2.642   2.857   4.348
  295POPC   C1A 4086   2.509   2.440   4.611
  295POPC   D2A 4087   2.567   2.659   4.950
  295POPC   C3A 4088   2.709   2.429   5.303
  295POPC   C4A 4089   2.703   2.567   5.729
  295POPC   C1B 4090   2.873   3.004   4.711
  295POPC   C2B 4091   2.941   2.892   5.166
  295POPC   C3B 4092   2.875   3.029   5.580
  295POPC   C4B 4093   3.031   2.946   5.992
  296POPC   NC3 4094   1.175  11.043   3.851
  296POPC   PO4 4095   0.883   0.138   3.985
  296POPC   GL1 4096   0.948  11.322   4.286
  296POPC   GL2 4097   1.064  10.968   4.357
  296POPC   C1A 4098   1.083  11.381   4.697
  296POPC   D2A 4099   1.356  11.365   5.059
  296POPC   C3A 4100   1.138  11.421   5.422
  296POPC   C4A 4101   0.919  11.256   5.780
  296POPC   C1B 4102   1.368  10.925   4.736
  296POPC   C2B 4103   1.464  10.877   5.207
  296POPC   C3B 4104   1.352  11.014   5.642
  296POPC   C4B 4105   1.408  10.818   6.075
  297POPC   NC3 4106   9.930   8.095   4.121
  297POPC   PO4 4107   9.308   7.841   3.913
  297POPC   GL1 4108   9.511   7.855   4.297
  297POPC   GL2 4109   9.444   8.213   4.299
  297POPC   C1A 4110   9.660   7.785   4.728
  297POPC   D2A 4111   9.850   7.595   5.133
  297POPC   C3A 4112   9.623   7.792   5.477
  297POPC   C4A 4113   9.706   8.180   5.656
  297POPC   C1B 4114   9.481   8.332   4.737
  297POPC   C2B 4115   9.472   8.174   5.171
  297POPC   C3B 4116   9.229   8.294   5.549
  297POPC   C4B 4117   9.065   8.198   5.968
  298POPC   NC3 4118   6.402  11.325   3.918
  298POPC   PO4 4119   6.483  10.729   3.928
  298POPC   GL1 4120   6.547  10.975   4.308
  298POPC   GL2 4121   6.539  11.334   4.396
  298POPC   C1A 4122   6.412  10.967   4.732
  298POPC   D2A 4123   6.598  11.070   5.114
  298POPC   C3A 4124   6.363  10.920   5.450
  298POPC   C4A 4125   6.525  10.914   5.873
  298POPC   C1B 4126   6.472  11.476   4.789
  298POPC   C2B 4127   6.509   0.056   5.179
  298POPC   C3B 4128   6.561  11.375   5.568
  298POPC   C4B 4129   6.410   0.136   5.926
  299POPC   NC3 4130  11.082   6.892   3.908
  299POPC   PO4 4131  10.942   6.202   3.755
  299POPC   GL1 4132  10.993   6.470   4.212
  299POPC   GL2 4133  11.206   6.701   4.337
  299POPC   C1A 4134  10.885   6.530   4.703
  299POPC   D2A 4135  10.727   6.395   5.134
  299POPC   C3A 4136  10.862   6.641   5.531
  299POPC   C4A 4137  10.954   6.477   5.970
  299POPC   C1B 4138  11.388   6.526   4.681
  299POPC   C2B 4139   0.010   6.473   5.076
  299POPC   C3B 4140  11.362   6.589   5.436
  299POPC   C4B 4141  11.349   6.772   5.827
  300POPC   NC3 4142  11.498   1.133   3.857
  300POPC   PO4 4143  10.832   1.001   3.887
  300POPC   GL1 4144  11.092   0.927   4.244
  300POPC   GL2 4145  11.377   1.147   4.332
  300POPC   C1A 4146  11.088   0.937   4.699
  300POPC   D2A 4147  11.023   1.243   5.043
  300POPC   C3A 4148  10.999   1.143   5.475
  300POPC   C4A 4149  11.059   0.866   5.822
  300POPC   C1B 4150  11.413   1.377   4.701
  300POPC   C2B 4151  11.442   1.553   5.112
  300POPC   C3B 4152  11.472   1.388   5.526
  300POPC   C4B 4153  11.268   1.310   5.935
  301POPC   NC3 4154  10.783   5.191   3.945
  301POPC   PO4 4155  10.240   4.814   3.803
  301POPC   GL1 4156  10.264   4.874   4.259
  301POPC   GL2 4157  10.433   5.174   4.392
  301POPC   C1A 4158  10.279   4.814   4.731
  301POPC   D2A 4159  10.151   4.712   5.164
  301POPC   C3A 4160  10.424   4.715   5.551
  301POPC   C4A 4161  10.222   4.884   5.941
  301POPC   C1B 4162  10.593   5.221   4.837
  301POPC   C2B 4163  10.558   5.125   5.251
  301POPC   C3B 4164  10.238   5.226   5.540
  301POPC   C4B 4165  10.266   5.397   5.938
  302POPC   NC3 4166   9.672   1.084   3.899
  302POPC   PO4 4167   9.439   1.691   3.893
  302POPC   GL1 4168   9.560   1.423   4.274
  302POPC   GL2 4169   9.448   1.048   4.351
  302POPC   C1A 4170   9.521   1.391   4.728
  302POPC   D2A 4171   9.726   1.226   5.084
  302POPC   C3A 4172   9.484   1.171   5.475
  302POPC   C4A 4173   9.486   1.349   5.901
  302POPC   C1B 4174   9.873   1.010   4.574
  302POPC   C2B 4175  10.093   0.852   4.950
  302POPC   C3B 4176  10.049   0.988   5.395
  302POPC   C4B 4177   9.815   0.966   5.810
  303POPC   NC3 4178   9.656  10.616   3.939
  303POPC   PO4 4179   9.973  10.048   3.825
  303POPC   GL1 4180  10.025  10.310   4.228
  303POPC   GL2 4181   9.887  10.643   4.388
  303POPC   C1A 4182  10.112  10.273   4.664
  303POPC   D2A 4183   9.926  10.561   4.981
  303POPC   C3A 4184  10.031  10.399   5.373
  303POPC   C4A 4185   9.998  10.505   5.789
  303POPC   C1B 4186   9.587  10.371   4.645
  303POPC   C2B 4187   9.430  10.350   5.096
  303POPC   C3B 4188   9.554  10.486   5.521
  303POPC   C4B 4189   9.514  10.392   5.966
  304POPC   NC3 4190   6.632   1.671   3.709
  304POPC   PO4 4191   6.325   1.162   3.882
  304POPC   GL1 4192   6.547   1.037   4.331
  304POPC   GL2 4193   6.870   0.790   4.334
  304POPC   C1A 4194   6.545   1.221   4.802
  304POPC   D2A 4195   6.705   1.475   5.192
  304POPC   C3A 4196   6.541   1.625   5.639
  304POPC   C4A 4197   6.698   1.637   6.090
  304POPC   C1B 4198   6.741   0.753   4.745
  304POPC   C2B 4199   6.795   0.915   5.169
  304POPC   C3B 4200   6.638   0.850   5.557
  304POPC   C4B 4201   6.469   1.153   5.826
  305POPC   NC3 4202  10.884   0.506   4.000
  305POPC   PO4 4203   0.019   0.698   4.069
  305POPC   GL1 4204  11.331   0.506   4.428
  305POPC   GL2 4205  10.967   0.465   4.501
  305POPC   C1A 4206  11.307   0.506   4.887
  305POPC   D2A 4207  11.354   0.875   5.137
  305POPC   C3A 4208  11.462   0.835   5.523
  305POPC   C4A 4209  11.419   0.521   5.796
  305POPC   C1B 4210  10.750   0.210   4.853
  305POPC   C2B 4211  10.816   0.193   5.239
  305POPC   C3B 4212  11.139   0.408   5.389
  305POPC   C4B 4213  10.917   0.381   5.730
  306POPC   NC3 4214   0.853   9.662   3.916
  306POPC   PO4 4215   0.310   9.241   3.905
  306POPC   GL1 4216   0.630   9.235   4.272
  306POPC   GL2 4217   0.814   9.558   4.418
  306POPC   C1A 4218   0.619   9.200   4.750
  306POPC   D2A 4219   0.476   9.441   5.108
  306POPC   C3A 4220   0.640   9.488   5.527
  306POPC   C4A 4221   0.393   9.523   5.895
  306POPC   C1B 4222   0.563   9.812   4.732
  306POPC   C2B 4223   0.359   9.945   5.146
  306POPC   C3B 4224   0.428   9.949   5.592
  306POPC   C4B 4225   0.668   9.925   6.000
  307POPC   NC3 4226  10.776   6.032   4.158
  307POPC   PO4 4227  10.177   5.808   3.893
  307POPC   GL1 4228  10.448   5.661   4.246
  307POPC   GL2 4229  10.287   5.881   4.422
  307POPC   C1A 4230  10.688   5.696   4.688
  307POPC   D2A 4231  10.834   5.824   5.098
  307POPC   C3A 4232  10.555   5.710   5.396
  307POPC   C4A 4233  10.536   5.856   5.813
  307POPC   C1B 4234  10.195   5.551   4.723
  307POPC   C2B 4235  10.103   5.583   5.170
  307POPC   C3B 4236  10.069   5.762   5.601
  307POPC   C4B 4237  10.090   6.119   5.948
  308POPC   NC3 4238  10.569  11.242   3.958
  308POPC   PO4 4239   9.899   0.033   3.811
  308POPC   GL1 4240  10.000  11.384   4.241
  308POPC   GL2 4241  10.289  11.181   4.356
  308POPC   C1A 4242  10.006  11.338   4.731
  308POPC   D2A 4243   9.974  11.491   5.174
  308POPC   C3A 4244  10.184  11.242   5.464
  308POPC   C4A 4245  10.033  11.049   5.826
  308POPC   C1B 4246  10.633  11.140   4.676
  308POPC   C2B 4247  10.543  11.265   5.079
  308POPC   C3B 4248  10.715  11.183   5.465
  308POPC   C4B 4249  10.544  11.278   5.829
  309POPC   NC3 4250   0.620   4.058   3.933
  309POPC   PO4 4251   0.231   4.582   4.040
  309POPC   GL1 4252   0.267   4.262   4.304
  309POPC   GL2 4253   0.592   4.250   4.393
  309POPC   C1A 4254   0.221   4.099   4.698
  309POPC   D2A 4255   0.161   4.332   5.062
  309POPC   C3A 4256   0.239   4.134   5.436
  309POPC   C4A 4257   0.214   4.375   5.791
  309POPC   C1B 4258   0.496   4.525   4.727
  309POPC   C2B 4259   0.655   4.290   5.068
  309POPC   C3B 4260   0.828   4.044   5.375
  309POPC   C4B 4261   0.655   4.112   5.781
  310POPC   NC3 4262   9.935   4.533   3.634
  310POPC   PO4 4263   9.369   4.343   3.946
  310POPC   GL1 4264   9.736   4.457   4.212
  310POPC   GL2 4265   9.779   4.167   4.419
  310POPC   C1A 4266   9.790   4.588   4.691
  310POPC   D2A 4267   9.796   4.307   5.097
  310POPC   C3A 4268   9.696   4.491   5.507
  310POPC   C4A 4269   9.704   4.732   5.929
  310POPC   C1B 4270   9.450   4.190   4.727
  310POPC   C2B 4271   9.240   4.253   5.140
  310POPC   C3B 4272   9.265   4.118   5.562
  310POPC   C4B 4273   9.390   4.335   5.899
  311POPC   NC3 4274   6.354  10.329   4.095
  311POPC   PO4 4275   6.972  10.218   3.901
  311POPC   GL1 4276   6.826  10.531   4.275
  311POPC   GL2 4277   6.499  10.500   4.529
  311POPC   C1A 4278   6.882  10.724   4.733
  311POPC   D2A 4279   6.656  10.571   5.134
  311POPC   C3A 4280   6.833  10.654   5.572
  311POPC   C4A 4281   6.766  10.425   6.006
  311POPC   C1B 4282   6.138  10.532   4.843
  311POPC   C2B 4283   6.076  10.501   5.304
  311POPC   C3B 4284   6.353  10.451   5.680
  311POPC   C4B 4285   6.272  10.367   6.121
  312POPC   NC3 4286   8.134   0.586   3.971
  312POPC   PO4 4287   7.832   0.023   3.868
  312POPC   GL1 4288   7.965   0.189   4.288
  312POPC   GL2 4289   8.344   0.227   4.301
  312POPC   C1A 4290   8.049   0.096   4.746
  312POPC   D2A 4291   8.354   0.043   5.099
  312POPC   C3A 4292   8.134   0.053   5.543
  312POPC   C4A 4293   7.949   0.300   5.847
  312POPC   C1B 4294   8.465   0.381   4.729
  312POPC   C2B 4295   8.212   0.535   5.013
  312POPC   C3B 4296   8.221   0.537   5.445
  312POPC   C4B 4297   8.125   0.805   5.768
  313POPC   NC3 4298   8.167   1.166   3.903
  313POPC   PO4 4299   8.450   0.770   4.246
  313POPC   GL1 4300   8.117   1.006   4.408
  313POPC   GL2 4301   8.140   1.373   4.368
  313POPC   C1A 4302   8.165   1.130   4.834
  313POPC   D2A 4303   8.197   0.989   5.235
  313POPC   C3A 4304   8.442   1.135   5.547
  313POPC   C4A 4305   8.261   1.486   5.710
  313POPC   C1B 4306   7.806   1.448   4.687
  313POPC   C2B 4307   7.672   1.269   5.090
  313POPC   C3B 4308   7.801   1.136   5.497
  313POPC   C4B 4309   7.864   1.223   5.922
  314POPC   NC3 4310   9.323   3.453   4.025
  314POPC   PO4 4311   8.606   3.145   4.028
  314POPC   GL1 4312   8.923   3.304   4.335
  314POPC   GL2 4313   8.939   3.643   4.401
  314POPC   C1A 4314   8.905   3.331   4.818
  314POPC   D2A 4315   8.979   3.246   5.272
  314POPC   C3A 4316   8.734   3.268   5.693
  314POPC   C4A 4317   8.797   3.522   6.075
  314POPC   C1B 4318   9.112   3.808   4.818
  314POPC   C2B 4319   9.031   3.764   5.262
  314POPC   C3B 4320   8.793   3.906   5.641
  314POPC   C4B 4321   8.970   4.022   6.034
  315POPC   NC3 4322   6.800  10.558   3.649
  315POPC   PO4 4323   7.451  10.614   3.701
  315POPC   GL1 4324   7.364  10.336   4.176
  315POPC   GL2 4325   7.294  10.561   4.479
  315POPC   C1A 4326   7.247  10.098   4.621
  315POPC   D2A 4327   7.145  10.362   5.008
  315POPC   C3A 4328   7.055  10.215   5.448
  315POPC   C4A 4329   7.236  10.402   5.836
  315POPC   C1B 4330   7.634  10.415   4.745
  315POPC   C2B 4331   7.642  10.298   5.130
  315POPC   C3B 4332   7.524  10.535   5.436
  315POPC   C4B 4333   7.738  10.479   5.793
  316POPC   NC3 4334   1.372   2.672   3.800
  316POPC   PO4 4335   0.836   2.975   3.942
  316POPC   GL1 4336   0.979   2.647   4.217
  316POPC   GL2 4337   1.289   2.788   4.288
  316POPC   C1A 4338   1.034   2.426   4.633
  316POPC   D2A 4339   1.254   2.542   5.040
  316POPC   C3A 4340   0.995   2.483   5.403
  316POPC   C4A 4341   0.916   2.288   5.797
  316POPC   C1B 4342   1.142   2.913   4.688
  316POPC   C2B 4343   1.133   3.068   5.124
  316POPC   C3B 4344   1.268   2.903   5.523
  316POPC   C4B 4345   1.365   2.527   5.749
  317POPC   NC3 4346   9.809   1.969   3.922
  317POPC   PO4 4347   9.258   2.407   3.857
  317POPC   GL1 4348   9.399   2.189   4.229
  317POPC   GL2 4349   9.284   1.874   4.335
  317POPC   C1A 4350   9.489   2.279   4.686
  317POPC   D2A 4351   9.417   2.015   5.060
  317POPC   C3A 4352   9.546   2.155   5.483
  317POPC   C4A 4353   9.462   2.274   5.944
  317POPC   C1B 4354   9.692   1.849   4.563
  317POPC   C2B 4355   9.844   1.739   4.977
  317POPC   C3B 4356   9.679   1.660   5.404
  317POPC   C4B 4357   9.732   1.835   5.831
  318POPC   NC3 4358   3.336   5.842   3.772
  318POPC   PO4 4359   3.601   5.356   3.803
  318POPC   GL1 4360   3.475   5.099   4.208
  318POPC   GL2 4361   3.155   4.892   4.245
  318POPC   C1A 4362   3.639   5.066   4.659
  318POPC   D2A 4363   3.741   5.231   5.094
  318POPC   C3A 4364   3.418   5.194   5.432
  318POPC   C4A 4365   3.415   4.934   5.812
  318POPC   C1B 4366   3.241   4.748   4.684
  318POPC   C2B 4367   3.493   4.776   5.090
  318POPC   C3B 4368   3.789   4.846   5.457
  318POPC   C4B 4369   3.832   4.573   5.821
  319W        W 4370  11.225  10.765   8.533
  320W        W 4371   8.611   4.372   3.144
  321W        W 4372   5.721   3.533   8.136
  322W        W 4373   6.760   6.826  11.800
  323W        W 4374   7.640   8.418   9.830
  324W        W 4375   2.156   9.595   8.690
  325W        W 4376   5.972   3.870   8.579
  326W        W 4377   0.943   5.087   2.221
  327W        W 4378   3.674   0.786   3.121
  328W        W 4379   9.289   0.754  11.228
  329W        W 4380   7.623   6.093   8.381
  330W        W 4381   8.682   5.502   8.650
  331W        W 4382  10.968   9.095   9.092
  332W        W 4383   9.792   9.404   9.118
  333W        W 4384  10.454   6.556   2.967
  334W        W 4385   7.795  10.872   2.236
  335W        W 4386  10.254   6.663  10.842
  336W        W 4387   7.489   1.368   0.141
  337W        W 4388   5.134   6.455   0.812
  338W        W 4389   0.743   4.365  11.636
  339W        W 4390   0.126   8.135  10.789
  340W        W 4391   8.013   2.311   2.933
  341W        W 4392   4.070  10.753  11.510
  342W        W 4393   3.170   7.622   9.994
  343W        W 4394   1.446   0.898   1.911
  344W        W 4395   9.694   6.604   9.991
  345W        W 4396   7.227   8.037   0.760
  346W        W 4397  11.001   5.437  10.552
  347W        W 4398   6.669   0.757   1.761
  348W        W 4399   3.271   7.034   1.766
  349W        W 4400   5.536   3.583   9.478
  350W        W 4401   1.848   9.479  11.771
  351W        W 4402   4.762   2.836   0.529
  352W        W 4403   9.911  11.424   3.190
  353W        W 4404   8.633   3.413   2.122
  354W        W 4405   1.521   7.586  10.013
  355W        W 4406   0.399   8.515  11.538
  356W        W 4407   1.016   6.931   8.277
  357W        W 4408   2.464   9.927   0.346
  358W        W 4409   6.395   3.619   8.769
  359W        W 4410   7.534   9.505   9.019
  360W        W 4411  10.641   5.087  11.972
  361W        W 4412   6.145   8.440  10.404
  362W        W 4413   1.091   1.392   9.783
  363W        W 4414   6.513   2.924  11.641
  364W        W 4415   2.320  10.846   1.406
  365W        W 4416   1.828   5.522   2.479
  366W        W 4417   9.421   8.842   3.026
  367W        W 4418   4.637  10.780   2.790
  368W        W 4419   5.205   5.461   1.815
  369W        W 4420   8.474   6.944   3.055
  370W        W 4421   7.622   6.574   9.485
  371W        W 4422   5.568   2.604   1.493
  372W        W 4423  11.149  10.521   2.905
  373W        W 4424   7.750   9.494   3.540
  374W        W 4425   5.574   6.656  10.534
  375W        W 4426   1.356   9.913   0.450
  376W        W 4427   9.847   4.730   0.733
  377W        W 4428   7.599   5.200  10.105
  378W        W 4429   2.232   3.699   2.321
  379W        W 4430   1.462   8.132   2.727
  380W        W 4431   3.753   3.738   1.267
  381W        W 4432   9.332   2.462   2.458
  382W        W 4433   5.145   3.230   1.339
  383W        W 4434   5.667   0.358  11.103
  384W        W 4435   5.396   6.065   9.835
  385W        W 4436   4.834   1.154   3.120
  386W        W 4437   9.412   4.620  11.948
  387W        W 4438   4.967  10.550  10.445
  388W        W 4439   8.647   9.880   2.573
  389W        W 4440  11.182   2.637   8.803
  390W        W 4441   2.677   5.921   1.838
  391W        W 4442   2.959   8.043   9.259
  392W        W 4443   2.720   1.974  11.771
  393W        W 4444   0.856   9.372   2.641
  394W        W 4445   5.385   4.445   3.926
  395W        W 4446   2.706   8.667   3.236
  396W        W 4447   1.699   7.924   3.524
  397W        W 4448   5.168   3.657   1.848
  398W        W 4449   6.935   7.554   1.323
  399W        W 4450   3.101   7.432   2.509
  400W        W 4451   3.783   0.465  10.692
  401W        W 4452  11.409   2.574  10.870
  402W        W 4453   5.375  10.841  10.592
  403W        W 4454   1.490   9.199   0.645
  404W        W 4455   8.691  10.521  11.723
  405W        W 4456   4.932   2.383   8.138
  406W        W 4457   3.133   6.605   1.478
  407W        W 4458   0.218   6.560  11.492
  408W        W 4459   3.312   4.759  11.053
  409W        W 4460  10.362   4.131   1.231
  410W        W 4461   3.575   5.544  11.288
  411W        W 4462   5.946  10.434  10.963
  412W        W 4463   7.603   5.083  11.924
  413W        W 4464   2.736   9.164   3.388
  414W        W 4465   6.478  10.166   3.612
  415W        W 4466   3.276   3.397   0.452
  416W        W 4467   8.215   9.056  11.272
  417W        W 4468   2.317   2.294   9.146
  418W        W 4469   9.004   5.397  11.558
  419W        W 4470   5.259   2.610  10.793
  420W        W 4471   9.992   6.645   2.759
  421W        W 4472   6.953   4.637  10.752
  422W        W 4473   4.284   6.998   0.727
  423W        W 4474  11.313   6.066  10.390
  424W        W 4475   1.288   6.462   0.175
  425W        W 4476   9.056   8.880   0.520
  426W        W 4477   6.441   4.040   9.150
  427W        W 4478   2.289   9.660  11.949
  428W        W 4479  10.992   7.459   1.436
  429W        W 4480  10.041  10.754  10.424
  430W        W 4481   3.934   0.155  11.116
  431W        W 4482   7.070   7.513   0.300
  432W        W 4483   7.824   0.848   2.616
  433W        W 4484   7.067   0.256  11.526
  434W        W 4485   8.613   2.242  11.873
  435W        W 4486   4.221   5.709   0.342
  436W        W 4487   4.256   3.753   1.385
  437W        W 4488   5.532   1.947   9.455
  438W        W 4489   8.437   7.132   1.651
  439W        W 4490   7.591   1.706   3.418
  440W        W 4491  10.025  10.815   1.310
  441W        W 4492   8.019   4.100   1.182
  442W        W 4493   5.618   9.640   9.451
  443W        W 4494   1.273   6.511   1.134
  444W        W 4495   9.449   7.927   2.851
  445W        W 4496   6.960  11.293   2.818
  446W        W 4497   5.447   4.148   2.241
  447W        W 4498   2.242   2.802   8.928
  448W        W 4499   0.974  10.881   9.844
  449W        W 4500   2.861   7.636   1.738
  450W        W 4501   4.278  11.121   3.468
  451W        W 4502   4.725   0.776  11.931
  452W        W 4503   7.665   3.650  10.451
  453W        W 4504  10.877   8.835   1.471
  454W        W 4505  10.421   0.572   1.403
  455W        W 4506   3.194   8.110   9.752
  456W        W 4507   3.151   1.650   2.479
  457W        W 4508   9.315   7.545  10.790
  458W        W 4509   2.904  11.146   2.198
  459W        W 4510   7.771   9.276  11.719
  460W        W 4511   9.541   2.590   0.451
  461W        W 4512   7.056   1.700   0.203
  462W        W 4513   4.151   8.747   8.951
  463W        W 4514   0.903   1.388   0.040
  464W        W 4515   7.173   8.890   3.157
  465W        W 4516   3.131   5.661   9.445
  466W        W 4517  10.013   7.098   0.488
  467W        W 4518   5.527   8.390   9.953
  468W        W 4519   0.656   0.952   0.280
  469W        W 4520   1.114   9.464   0.374
  470W        W 4521   7.090   4.313   0.875
  471W        W 4522   2.709  10.793   1.868
  472W        W 4523   4.333  10.776   0.029
  473W        W 4524   9.228  10.062  11.060
  474W        W 4525   3.186   6.456   8.904
  475W        W 4526   5.985   5.732  11.365
  476W        W 4527   5.924   6.045   9.813
  477W        W 4528   2.161   4.848   3.279
  478W        W 4529   9.589   1.059   9.615
  479W        W 4530  10.708   0.888  11.385
  480W        W 4531   4.722   0.640  11.027
  481W        W 4532   2.305   7.624   8.038
  482W        W 4533   2.453   4.845   8.315
  483W        W 4534   7.982   9.586   9.315
  484W        W 4535   3.739   2.543   8.723
  485W        W 4536   4.557   7.145  11.794
  486W        W 4537   3.823   9.025   8.574
  487W        W 4538   0.911   8.401   1.771
  488W        W 4539   9.455   6.517  10.427
  489W        W 4540   3.061   7.129   9.518
  490W        W 4541   5.073  10.717   9.959
  491W        W 4542   7.046   1.830  10.849
  492W        W 4543   5.110   2.312   3.219
  493W        W 4544   2.289   7.176   9.878
  494W        W 4545   3.062   1.755   3.746
  495W        W 4546   7.966   6.082   3.232
  496W        W 4547  11.448   3.426   2.751
  497W        W 4548   5.954   6.455   0.413
  498W        W 4549   4.101  11.271   2.161
  499W        W 4550   0.932   2.710   1.200
  500W        W 4551   5.514   2.719   3.271
  501W        W 4552   4.861   4.340   0.874
  502W        W 4553   9.714   3.353  10.686
  503W        W 4554   5.130   9.823   2.217
  504W        W 4555   6.121  10.818  10.014
  505W        W 4556   1.455   3.337   1.477
  506W        W 4557   7.239   0.843   9.297
  507W        W 4558   0.836   6.532   1.392
  508W        W 4559   9.868   8.463   0.659
  509W        W 4560   1.661   4.033   9.673
  510W        W 4561   4.490   5.304  11.224
  511W        W 4562  10.551  10.058   2.242
  512W        W 4563  11.414   4.712  11.882
  513W        W 4564   8.190   5.489   8.482
  514W        W 4565  10.861   9.347   1.562
  515W        W 4566   1.175   2.798   2.958
  516W        W 4567   7.422   6.574   8.500
  517W        W 4568   0.051   4.823   0.357
  518W        W 4569   2.748   8.568   0.346
  519W        W 4570   2.627   4.651   1.951
  520W        W 4571   4.651  10.234   0.931
  521W        W 4572   3.892   1.724   2.161
  522W        W 4573   7.586   2.406   2.676
  523W        W 4574   2.331   6.961  10.810
  524W        W 4575   6.339   9.541   9.705
  525W        W 4576   6.181   5.071  10.847
  526W        W 4577   3.159   8.641   9.878
  527W        W 4578   8.248   4.805   3.614
  528W        W 4579   8.865   8.549  11.251
  529W        W 4580   3.306   8.097   0.353
  530W        W 4581   7.452   2.665   1.837
  531W        W 4582   6.747   0.798   9.241
  532W        W 4583   9.742   7.553   1.319
  533W        W 4584   8.460   6.082   3.435
  534W        W 4585   0.901   5.595   9.564
  535W        W 4586   1.789  11.006  10.297
  536W        W 4587   4.957   0.083  10.321
  537W        W 4588   8.543   6.639   2.172
  538W        W 4589   1.300   7.471  10.884
  539W        W 4590   0.333   1.687   0.790
  540W        W 4591   5.666   2.809  11.018
  541W        W 4592   5.550   2.314   3.585
  542W        W 4593   6.662   8.753  11.217
  543W        W 4594   3.538   1.008   1.262
  544W        W 4595   7.407   1.315   0.915
  545W        W 4596   7.381   6.168   0.331
  546W        W 4597   0.904   8.577   8.475
  547W        W 4598  11.446   5.165   3.368
  548W        W 4599   9.082   6.028   8.268
  549W        W 4600   3.895  10.795  11.012
  550W        W 4601   0.844   7.885   1.964
  551W        W 4602  10.532   9.920   1.266
  552W        W 4603   5.582   7.168   1.683
  553W        W 4604   7.618  10.081   0.101
  554W        W 4605   2.643   7.566   0.269
  555W        W 4606   9.884   6.492   2.288
  556W        W 4607  10.957   6.483   9.621
  557W        W 4608  10.047   3.306   1.358
  558W        W 4609   1.505  11.343  11.999
  559W        W 4610   7.737   1.924   2.550
  560W        W 4611   9.436   7.035  10.733
  561W        W 4612   0.414   1.177   0.712
  562W        W 4613   5.661   7.946   2.799
  563W        W 4614   6.093  11.320   2.699
  564W        W 4615   1.186   6.568   0.650
  565W        W 4616  10.802  11.297   1.161
  566W        W 4617   4.602   7.105   9.849
  567W        W 4618  11.466   2.575   3.135
  568W        W 4619   5.554   4.167   8.683
  569W        W 4620   2.375   9.055   2.872
  570W        W 4621   2.494   8.158  11.829
  571W        W 4622   9.061  10.496  10.809
  572W        W 4623   1.005   1.883   0.004
  573W        W 4624   1.340   8.665   1.928
  574W        W 4625   6.493   7.177   3.108
  575W        W 4626   4.878   2.011   1.390
  576W        W 4627   9.876   9.776  10.383
  577W        W 4628   9.606   6.784   9.206
  578W        W 4629   1.128   5.673   0.495
  579W        W 4630   5.826  10.460   9.438
  580W        W 4631   8.005   0.578  11.431
  581W        W 4632   9.271   2.120   3.431
  582W        W 4633   6.416   5.726   2.219
  583W        W 4634   1.815   2.213   9.279
  584W        W 4635   9.421   3.239   3.502
  585W        W 4636   4.328   2.609  11.116
  586W        W 4637   5.693   8.686   9.571
  587W        W 4638  10.873   6.759  11.967
  588W        W 4639   8.188  10.964   0.746
  589W        W 4640   1.308   8.993  11.501
  590W        W 4641   2.172   1.838   2.680
  591W        W 4642   2.686   0.340   2.826
  592W        W 4643   3.235   3.730   0.049
  593W        W 4644   4.628   6.185   3.498
  594W        W 4645   9.402   4.352   9.878
  595W        W 4646   4.294   7.947  10.343
  596W        W 4647   0.819   8.946   1.344
  597W        W 4648   7.385   3.136   9.473
  598W        W 4649   5.120   9.506   9.451
  599W        W 4650   3.037   6.056  11.937
  600W        W 4651   0.511   8.584   2.004
  601W        W 4652   4.299   7.181   8.871
  602W        W 4653   9.892   1.961   1.702
  603W        W 4654   0.831   3.515   3.088
  604W        W 4655   2.745   9.350   9.911
  605W        W 4656   7.388   4.850  10.496
  606W        W 4657   4.811   6.598   1.209
  607W        W 4658   7.384   1.696  11.777
  608W        W 4659   9.416   3.169  11.496
  609W        W 4660   8.707   9.900   0.312
  610W        W 4661  10.308   9.447  10.022
  611W        W 4662   2.428   2.322  10.118
  612W        W 4663  10.769   9.534   8.819
  613W        W 4664   7.016   9.946   3.211
  614W        W 4665   3.508   5.113   3.348
  615W        W 4666   5.581   9.718   1.911
  616W        W 4667   5.566   2.439   9.214
  617W        W 4668   8.582  11.315   2.167
  618W        W 4669   6.293   7.045  10.475
  619W        W 4670   2.309   7.676  11.849
  620W        W 4671   1.428   2.808   1.925
  621W        W 4672   0.203   2.216   1.469
  622W        W 4673   4.106   6.360   8.601
  623W        W 4674   6.678   7.202  11.429
  624W        W 4675   0.235   5.356   1.490
  625W        W 4676   0.309   4.276   3.089
  626W        W 4677   3.787  10.227   0.173
  627W        W 4678   8.832   4.338   0.117
  628W        W 4679   1.366   0.995   2.793
  629W        W 4680   2.385   9.582  10.158
  630W        W 4681   7.859   9.312   0.742
  631W        W 4682  11.424   5.640  11.712
  632W        W 4683   5.689   8.499   1.374
  633W        W 4684   7.192  10.196   1.411
  634W        W 4685   2.797   9.569  11.542
  635W        W 4686   6.014   6.893   1.802
  636W        W 4687  10.988   7.425  11.376
  637W        W 4688   1.398   6.673   2.170
  638W        W 4689   3.583  10.409  10.467
  639W        W 4690   3.646   9.495   3.280
  640W        W 4691   0.726   6.734   9.040
  641W        W 4692   8.988   6.831   9.541
  642W        W 4693   8.679   6.661   1.663
  643W        W 4694  11.431   5.768   1.115
  644W        W 4695   3.621   1.827   2.644
  645W        W 4696  10.475   0.729   0.930
  646W        W 4697   1.808  10.173  11.285
  647W        W 4698   4.142   5.688  11.839
  648W        W 4699  11.286   7.451  11.786
  649W        W 4700   8.584   0.547  10.215
  650W        W 4701   6.239   9.752   0.366
  651W        W 4702   1.783   7.304   0.251
  652W        W 4703   4.078   0.441   1.414
  653W        W 4704   5.199   1.670  11.733
  654W        W 4705   8.113   7.119   9.958
  655W        W 4706   8.425   1.174  10.854
  656W        W 4707   5.097   4.461  11.212
  657W        W 4708   7.136   7.135   1.114
  658W        W 4709   0.783   1.881   2.315
  659W        W 4710   7.968   0.323   0.263
  660W        W 4711   5.174  10.020   3.126
  661W        W 4712   0.707   8.895  11.092
  662W        W 4713   5.178   1.828   3.130
  663W        W 4714   2.640   5.210   3.668
  664W        W 4715   5.742   3.148   2.137
  665W        W 4716   3.616   4.841   0.621
  666W        W 4717   8.930   3.760   0.736
  667W        W 4718   7.629   9.182   3.087
  668W        W 4719   7.455   8.165   2.065
  669W        W 4720   1.286  11.368  11.021
  670W        W 4721   0.999   3.038   9.669
  671W        W 4722   9.053   0.263  11.461
  672W        W 4723   5.804   5.775  11.859
  673W        W 4724   4.966  10.223  10.043
  674W        W 4725   3.575   7.028   9.614
  675W        W 4726   6.574  11.081  10.969
  676W        W 4727   9.605   5.513   9.458
  677W        W 4728   2.106   4.192  10.576
  678W        W 4729   7.453   4.226   1.928
  679W        W 4730   0.887   7.619   9.364
  680W        W 4731   2.460  10.359  10.084
  681W        W 4732   7.084  10.518   8.712
  682W        W 4733   7.177  11.129   0.382
  683W        W 4734   0.821   3.367  10.036
  684W        W 4735   4.704   6.176   0.806
  685W        W 4736   3.650   2.369  11.802
  686W        W 4737   2.192   6.244   2.977
  687W        W 4738   8.328   5.267   2.814
  688W        W 4739   8.810   3.791   9.087
  689W        W 4740  10.713   4.835   3.607
  690W        W 4741   5.848  10.551   0.179
  691W        W 4742   2.306  11.294   9.095
  692W        W 4743   5.694   1.791   1.002
  693W        W 4744   8.155   8.267   2.255
  694W        W 4745   2.297   1.728  11.919
  695W        W 4746   1.425   5.170   2.646
  696W        W 4747   5.489   2.658   0.954
  697W        W 4748   3.128   9.490   9.170
  698W        W 4749   2.989   4.141   0.226
  699W        W 4750   4.726   7.233   0.546
  700W        W 4751   9.979   0.761   3.437
  701W        W 4752  10.595   5.186   2.279
  702W        W 4753   8.077   4.606   9.464
  703W        W 4754   1.647   2.344   2.306
  704W        W 4755   9.277   3.258  10.941
  705W        W 4756   7.126   0.934  11.306
  706W        W 4757   9.597   8.981   0.880
  707W        W 4758   4.346   9.942  10.661
  708W        W 4759  10.656   3.214   0.676
  709W        W 4760   4.897   1.290   1.219
  710W        W 4761   1.269   9.763   9.828
  711W        W 4762   6.541   9.980   9.620
  712W        W 4763   2.182   8.645   1.632
  713W        W 4764   1.873   8.562  10.000
  714W        W 4765   9.354   9.466   2.312
  715W        W 4766   2.761   2.191   0.262
  716W        W 4767   3.134   3.179   1.791
  717W        W 4768  10.069   9.609   3.056
  718W        W 4769   0.232   0.579   0.121
  719W        W 4770   4.144   9.515  10.963
  720W        W 4771   5.082   9.397  11.083
  721W        W 4772   9.198   6.581  10.865
  722W        W 4773   8.142  10.038   9.072
  723W        W 4774   7.926   0.356  10.969
  724W        W 4775   8.084   1.447   1.875
  725W        W 4776   1.125   7.978  11.596
  726W        W 4777   7.173   3.665   1.240
  727W        W 4778   0.510   7.698   1.464
  728W        W 4779  10.334   0.233   1.007
  729W        W 4780   6.329   1.664   2.270
  730W        W 4781   2.589   5.575   3.316
  731W        W 4782   3.500   8.370  11.304
  732W        W 4783   0.674  10.423   1.352
  733W        W 4784   3.705   7.902  11.508
  734W        W 4785   5.201   3.063  11.585
  735W        W 4786   6.491   2.798   3.444
  736W        W 4787   0.718   0.678   3.235
  737W        W 4788   7.016   8.412   1.894
  738W        W 4789   5.619   7.801   9.867
  739W        W 4790   5.866  10.534   2.116
  740W        W 4791   0.496  11.027   0.666
  741W        W 4792   8.284   6.355  10.995
  742W        W 4793  11.442   7.636   9.645
  743W        W 4794   1.538   7.934  10.901
  744W        W 4795   2.200   1.259   1.009
  745W        W 4796   5.675   5.533   2.719
  746W        W 4797  10.010   8.164   1.076
  747W        W 4798   3.267  10.820   0.850
  748W        W 4799  10.837   8.675   8.809
  749W        W 4800   6.687   3.209   8.926
  750W        W 4801   2.742   4.213  11.208
  751W        W 4802  10.341   5.581   1.894
  752W        W 4803  11.430   4.545   1.682
  753W        W 4804   5.043   2.099   9.554
  754W        W 4805   8.559   7.209  11.171
  755W        W 4806  10.906   4.689   1.684
  756W        W 4807   4.804   2.674  10.985
  757W        W 4808   0.936   9.018   9.210
  758W        W 4809   7.135   4.262   9.996
  759W        W 4810   9.043   0.004   9.540
  760W        W 4811  11.443   5.677  10.743
  761W        W 4812   5.696   1.122   1.798
  762W        W 4813   0.693   0.334  10.956
  763W        W 4814  10.861   7.021   1.694
  764W        W 4815  10.140   4.487   9.894
  765W        W 4816   6.672   9.101  11.657
  766W        W 4817   2.065   6.848   3.645
  767W        W 4818   7.610   0.715   2.041
  768W        W 4819  10.023   5.683  10.639
  769W        W 4820   2.607   1.795   1.756
  770W        W 4821   4.197   1.746   3.083
  771W        W 4822   6.783   5.159   0.451
  772W        W 4823   1.951   0.681   0.203
  773W        W 4824   8.547   8.937   2.739
  774W        W 4825   5.071   6.689  10.325
  775W        W 4826   7.018   1.036   3.585
  776W        W 4827   9.705   4.944   3.873
  777W        W 4828   6.268   5.725   1.224
  778W        W 4829   0.845   5.073   1.710
  779W        W 4830   7.801   4.643  10.741
  780W        W 4831   0.036   8.576   9.462
  781W        W 4832   5.940  10.106  10.489
  782W        W 4833   4.808   5.671   2.088
  783W        W 4834  10.824   0.886   1.321
  784W        W 4835   6.680   2.603   9.366
  785W        W 4836   6.047   2.094   2.216
  786W        W 4837  10.287   0.239  10.725
  787W        W 4838  10.510   5.630  10.465
  788W        W 4839   9.332   7.620   3.432
  789W        W 4840   2.837   8.550   2.757
  790W        W 4841   1.200   9.653   1.746
  791W        W 4842   5.800  10.061   0.368
  792W        W 4843   6.591   3.185  11.171
  793W        W 4844   7.461   7.629   1.264
  794W        W 4845   5.581   1.805   3.446
  795W        W 4846   6.377  10.606  11.194
  796W        W 4847   7.423   7.709   2.305
  797W        W 4848   7.555   6.729  11.430
  798W        W 4849  10.544   6.578  10.370
  799W        W 4850   8.573   9.882   8.763
  800W        W 4851   9.129   8.962  11.151
  801W        W 4852  11.447   5.590   1.865
  802W        W 4853   0.879  10.075   0.362
  803W        W 4854   2.717   6.607  10.947
  804W        W 4855  10.348   5.103   3.148
  805W        W 4856   9.985   1.704  10.269
  806W        W 4857   6.436   3.783   9.598
  807W        W 4858   1.331   5.482   3.210
  808W        W 4859   0.067  11.347  10.674
  809W        W 4860   9.561   0.223   0.539
  810W        W 4861   5.070   0.465   0.786
  811W        W 4862   3.643   2.338   1.205
  812W        W 4863  10.011   0.253   0.285
  813W        W 4864   4.571   2.200   0.977
  814W        W 4865   2.543   8.335   0.786
  815W        W 4866   0.573   9.204   0.789
  816W        W 4867   5.919   7.822  11.977
  817W        W 4868   6.482   5.102   1.850
  818W        W 4869   4.774   8.320   1.535
  819W        W 4870   3.199   1.396   2.033
  820W        W 4871  10.424   0.603   9.412
  821W        W 4872   3.861   0.359   9.687
  822W        W 4873   6.330   7.212   9.494
  823W        W 4874   2.232   5.260   9.496
  824W        W 4875   5.455   0.803   9.842
  825W        W 4876   0.913   8.357   3.523
  826W        W 4877   5.637   9.931  11.835
  827W        W 4878   2.193   3.361   2.777
  828W        W 4879  11.379   7.024  10.523
  829W        W 4880   2.717   4.504   0.954
  830W        W 4881   1.432   9.910   9.361
  831W        W 4882   7.050   4.829   0.749
  832W        W 4883   1.826   8.145   1.379
  833W        W 4884   7.849   4.194   8.690
  834W        W 4885  10.939   2.093   2.240
  835W        W 4886  11.311   9.918   0.766
  836W        W 4887   1.129   0.531   2.913
  837W        W 4888   7.782  10.663   0.791
  838W        W 4889   0.707   8.903   2.779
  839W        W 4890  10.020   5.655   0.959
  840W        W 4891   8.069  10.751   1.223
  841W        W 4892   6.309   9.180   3.141
  842W        W 4893   1.517   6.244   9.882
  843W        W 4894   6.435   0.297  11.662
  844W        W 4895   0.954   8.409   9.865
  845W        W 4896   6.680   9.413   1.072
  846W        W 4897  10.831   2.158   1.740
  847W        W 4898   4.206  10.791   2.467
  848W        W 4899   2.658   3.681   2.039
  849W        W 4900   7.872   0.345   2.688
  850W        W 4901   6.530   8.110  11.349
  851W        W 4902   0.662   2.152   1.733
  852W        W 4903   0.787   0.808   0.762
  853W        W 4904   1.290   3.127  11.574
  854W        W 4905  11.383   4.093   3.492
  855W        W 4906   2.367   2.461   0.464
  856W        W 4907   8.369   7.498   2.302
  857W        W 4908   1.205   9.401   9.461
  858W        W 4909   4.272  11.278  11.362
  859W        W 4910   1.756   5.084   1.675
  860W        W 4911   3.822   9.271   0.434
  861W        W 4912   3.496  11.384  11.972
  862W        W 4913   7.503   5.006   0.937
  863W        W 4914   2.546   4.631  11.780
  864W        W 4915   7.738   1.429   0.563
  865W        W 4916   7.905   1.931   0.711
  866W        W 4917   0.926   2.713   8.465
  867W        W 4918   3.164   7.496   1.070
  868W        W 4919   2.710   4.096   1.260
  869W        W 4920   6.981   0.318   2.754
  870W        W 4921   2.541   8.065   8.180
  871W        W 4922   4.919   2.852   4.020
  872W        W 4923   4.288   3.363  11.484
  873W        W 4924   2.257   3.800   1.324
  874W        W 4925  11.148   7.721   0.740
  875W        W 4926   1.004   8.907   0.414
  876W        W 4927   8.470   1.787   3.234
  877W        W 4928   1.357  10.032  11.738
  878W        W 4929   9.930   8.969   9.371
  879W        W 4930   0.348   2.730   0.045
  880W        W 4931   9.845   7.433   8.538
  881W        W 4932   3.928   2.156   2.888
  882W        W 4933   6.952   5.847  10.356
  883W        W 4934   4.225   2.174   3.379
  884W        W 4935   4.317   0.836   2.201
  885W        W 4936   7.738  10.177   0.591
  886W        W 4937   0.488   6.273   1.663
  887W        W 4938   0.300   1.890  10.289
  888W        W 4939  11.407   4.662  10.561
  889W        W 4940   3.600   0.466   2.720
  890W        W 4941   5.702   1.327   0.765
  891W        W 4942   1.131  10.423   9.508
  892W        W 4943  10.853  10.420   9.269
  893W        W 4944   6.275  10.233   0.212
  894W        W 4945   4.522  11.156   9.223
  895W        W 4946   4.177   4.721   2.822
  896W        W 4947   6.638   9.490  10.480
  897W        W 4948  11.339   7.630   9.122
  898W        W 4949  10.312   9.562  10.540
  899W        W 4950   3.896   6.161  10.647
  900W        W 4951   4.106   4.143   9.293
  901W        W 4952   1.654   9.493   8.600
  902W        W 4953   1.328   8.675   1.064
  903W        W 4954   0.860   6.356   2.936
  904W        W 4955   3.593  11.430   9.548
  905W        W 4956   4.834   8.404   2.845
  906W        W 4957   8.336  10.225   2.772
  907W        W 4958   5.553  10.613   2.965
  908W        W 4959   7.582   8.450  10.360
  909W        W 4960   0.152   1.504  11.923
  910W        W 4961   5.986   3.162   0.096
  911W        W 4962   0.638   7.068   9.492
  912W        W 4963   3.405   8.870   1.962
  913W        W 4964  11.278   8.027   3.066
  914W        W 4965   1.705   7.346   2.925
  915W        W 4966   3.061   5.300   8.259
  916W        W 4967   8.150   2.808  11.289
  917W        W 4968   9.277   0.451   2.726
  918W        W 4969   8.620   1.053   2.609
  919W        W 4970   9.368   2.155   0.291
  920W        W 4971  10.957  10.574   0.773
  921W        W 4972   2.273   9.096   9.985
  922W        W 4973   6.626   1.993   1.461
  923W        W 4974   5.760   1.700   1.914
  924W        W 4975   4.304   0.730  11.385
  925W        W 4976   6.130   3.821   0.394
  926W        W 4977   4.741   6.277  10.312
  927W        W 4978   0.315   2.260  10.896
  928W        W 4979   8.020   7.986   1.360
  929W        W 4980   6.590  10.447  10.754
  930W        W 4981   2.123   4.299   0.517
  931W        W 4982   3.177   5.529  10.510
  932W        W 4983   4.486   8.845   9.345
  933W        W 4984  10.384   2.415  10.918
  934W        W 4985   9.697   4.126   1.857
  935W        W 4986   1.507   6.337   3.520
  936W        W 4987   5.134   1.986   3.626
  937W        W 4988   3.345  10.169   2.734
  938W        W 4989   8.560   3.360   3.074
  939W        W 4990   6.200   1.398   2.702
  940W        W 4991  11.017   3.645   1.416
  941W        W 4992   8.567   6.129   9.189
  942W        W 4993  11.115   8.097   3.547
  943W        W 4994   8.047  11.449   8.934
  944W        W 4995   5.953  10.418   2.633
  945W        W 4996   3.579   6.375   2.696
  946W        W 4997   3.664   3.715   3.053
  947W        W 4998   9.402  10.509  10.311
  948W        W 4999   0.424   7.014   2.550
  949W        W 5000   2.140   9.894   2.817
  950W        W 5001   9.768   3.270  11.860
  951W        W 5002   7.609   2.227  10.919
  952W        W 5003   9.014  11.065   0.415
  953W        W 5004   9.296   5.100   1.455
  954W        W 5005   6.723   8.930   9.211
  955W        W 5006   8.274   9.160  11.771
  956W        W 5007   5.725   3.768   1.628
  957W        W 5008   1.337   3.757   2.871
  958W        W 5009   5.237   8.034   9.661
  959W        W 5010   0.977   1.665   1.445
  960W        W 5011   0.293   9.506   1.480
  961W        W 5012  10.403   3.273   2.174
  962W        W 5013   2.688  10.891   8.945
  963W        W 5014   5.765   7.188  11.277
  964W        W 5015   1.359   0.440   3.418
  965W        W 5016   8.605   5.903  10.970
  966W        W 5017   5.167   4.636  11.750
  967W        W 5018   1.027   0.628   1.748
  968W        W 5019   5.591   7.552  10.964
  969W        W 5020   2.099   5.968  10.940
  970W        W 5021   9.472   5.179   3.436
  971W        W 5022   3.762   8.028   8.913
  972W        W 5023   4.150   7.656   9.043
  973W        W 5024   7.166   2.326   3.008
  974W        W 5025   8.739   4.952  10.777
  975W        W 5026   0.806   0.187   1.849
  976W        W 5027   4.365   1.322   1.366
  977W        W 5028   6.989   2.757   8.991
  978W        W 5029   7.646   3.865   3.276
  979W        W 5030   0.004   4.267   0.142
  980W        W 5031   2.674   8.505   1.694
  981W        W 5032  10.880  10.364   0.311
  982W        W 5033   3.146   2.910   9.162
  983W        W 5034   1.405   2.771  10.995
  984W        W 5035   3.286   9.854   8.824
  985W        W 5036   5.049   5.871  11.363
  986W        W 5037   5.081   9.630   8.097
  987W        W 5038  10.950   8.114   2.675
  988W        W 5039   6.475   9.121   1.862
  989W        W 5040   5.643  10.152   8.547
  990W        W 5041   7.047   8.389   9.061
  991W        W 5042   6.002   5.537   9.663
  992W        W 5043   8.880   5.514  10.577
  993W        W 5044   7.456   3.602   0.776
  994W        W 5045   6.313   2.649   2.856
  995W        W 5046   8.095   5.528   0.689
  996W        W 5047   1.432   6.253   8.993
  997W        W 5048   6.666   0.065  10.848
  998W        W 5049   8.081   6.432   0.291
  999W        W 5050  10.559   4.487   9.615
 1000W        W 5051   9.594   3.562   2.652
 1001W        W 5052   4.168   2.828  10.044
 1002W        W 5053   0.337   4.535   9.807
 1003W        W 5054  10.003   9.079  11.532
 1004W        W 5055   2.616   6.573   2.938
 1005W        W 5056   3.320  10.457   3.179
 1006W        W 5057   9.935   1.715   3.452
 1007W        W 5058   9.430   5.556  11.758
 1008W        W 5059   8.000   9.971   3.263
 1009W        W 5060   1.227   4.549   9.855
 1010W        W 5061   9.030   9.374  11.471
 1011W        W 5062   3.602   0.408   0.036
 1012W        W 5063   3.045   3.082   8.366
 1013W        W 5064   0.243   9.121   0.062
 1014W        W 5065   8.167   8.953   0.575
 1015W        W 5066   9.723   6.684   0.490
 1016W        W 5067   9.322   9.382   9.937
 1017W        W 5068   5.237   1.939   0.715
 1018W        W 5069   3.153   2.384   2.147
 1019W        W 5070   9.319   5.911   1.940
 1020W        W 5071   0.940   1.532  11.096
 1021W        W 5072   2.880   1.626  10.497
 1022W        W 5073   3.791   0.252   9.181
 1023W        W 5074   0.384   6.467   3.296
 1024W        W 5075   1.840   3.616   9.412
 1025W        W 5076   9.852  10.035   3.218
 1026W        W 5077   5.953   0.486   9.260
 1027W        W 5078  11.370   7.029   1.702
 1028W        W 5079   7.663   2.610  11.941
 1029W        W 5080   8.427   0.257   0.476
 1030W        W 5081   5.769  10.925   9.203
 1031W        W 5082   8.433   8.101   9.096
 1032W        W 5083   0.307   5.172   3.007
 1033W        W 5084   4.811   8.880   0.904
 1034W        W 5085   0.533   3.991  11.884
 1035W        W 5086   0.403   6.275   9.754
 1036W        W 5087   8.742   1.457  11.769
 1037W        W 5088  11.251  11.169  10.299
 1038W        W 5089   2.610   8.127   2.080
 1039W        W 5090   3.631   8.417   9.730
 1040W        W 5091   7.871   6.966   2.585
 1041W        W 5092   9.567   2.390  11.094
 1042W        W 5093   6.924   0.814   1.294
 1043W        W 5094   6.276   6.404   8.577
 1044W        W 5095   2.183   8.322  10.710
 1045W        W 5096   0.932   1.355   9.095
 1046W        W 5097   2.073   6.841   9.528
 1047W        W 5098   9.790  10.291   8.938
 1048W        W 5099  11.068   7.711  10.499
 1049W        W 5100   1.189   1.973   0.707
 1050W        W 5101   8.589   9.939   1.143
 1051W        W 5102   6.061   8.183   3.048
 1052W        W 5103  11.042   9.839   0.346
 1053W        W 5104   4.798   9.803   2.620
 1054W        W 5105   6.133   1.384   1.153
 1055W        W 5106   1.759  11.248  11.107
 1056W        W 5107   9.419   6.646   0.089
 1057W        W 5108   8.275   0.228   3.004
 1058W        W 5109   2.443   0.712   0.317
 1059W        W 5110   2.580   6.119  11.034
 1060W        W 5111   3.772   0.068   0.381
 1061W        W 5112   8.001   8.967   1.579
 1062W        W 5113   6.644   8.901   0.346
 1063W        W 5114   0.898   3.420  11.433
 1064W        W 5115   0.851   6.785  10.904
 1065W        W 5116   8.185   6.681   1.760
 1066W        W 5117   2.431   4.839   1.192
 1067W        W 5118   9.402   2.419  10.623
 1068W        W 5119   5.100   2.650   1.301
 1069W        W 5120   0.889   3.654  10.880
 1070W        W 5121   7.562   7.223   0.316
 1071W        W 5122  10.142   7.918   0.670
 1072W        W 5123   6.711   9.321   9.995
 1073W        W 5124   9.856  10.148   1.787
 1074W        W 5125   2.197   4.669   0.161
 1075W        W 5126   2.213   7.930   2.362
 1076W        W 5127  11.178   6.480  11.258
 1077W        W 5128  10.946  10.006  10.065
 1078W        W 5129   1.590   2.372   1.459
 1079W        W 5130   6.511   1.709   1.003
 1080W        W 5131   1.926   1.351   9.395
 1081W        W 5132  11.394   7.268   0.809
 1082W        W 5133   9.879  10.831   9.942
 1083W        W 5134   1.176   9.575   0.864
 1084W        W 5135   0.733   2.336  11.303
 1085W        W 5136   9.508  10.362   0.033
 1086W        W 5137   9.332   7.630   1.015
 1087W        W 5138  10.868   7.186   3.063
 1088W        W 5139   6.591   1.485   1.471
 1089W        W 5140   5.522   6.695   1.818
 1090W        W 5141   9.419   1.905  11.059
 1091W        W 5142   9.290   1.426  11.829
 1092W        W 5143   4.711   7.753   2.949
 1093W        W 5144   6.543   3.730  10.907
 1094W        W 5145   5.175   8.018   3.004
 1095W        W 5146   9.523   8.879  10.795
 1096W        W 5147   9.489   1.631   1.515
 1097W        W 5148   2.928   9.498   2.174
 1098W        W 5149  11.315   5.102   2.870
 1099W        W 5150   7.616   9.320  10.497
 1100W        W 5151   2.870   0.941  11.431
 1101W        W 5152   2.226   4.385   9.822
 1102W        W 5153   3.772   7.975  11.010
 1103W        W 5154   5.151   6.661  10.845
 1104W        W 5155   9.744   7.012   0.935
 1105W        W 5156   0.175   2.816   8.995
 1106W        W 5157   3.763  10.377   2.902
 1107W        W 5158   3.202  11.365  10.621
 1108W        W 5159  10.978  10.835   2.539
 1109W        W 5160  10.840   6.346   2.749
 1110W        W 5161  11.132  11.116  11.529
 1111W        W 5162   0.379   6.019  10.760
 1112W        W 5163   8.180   2.789   1.244
 1113W        W 5164   7.495   2.657   9.041
 1114W        W 5165   7.074   7.021   2.069
 1115W        W 5166   0.342   9.046   3.108
 1116W        W 5167   9.854   1.816   1.190
 1117W        W 5168   2.906   5.497   0.714
 1118W        W 5169   7.945   8.363  11.330
 1119W        W 5170   7.922   0.648   3.100
 1120W        W 5171   9.001   8.700   2.771
 1121W        W 5172   2.077   0.886   0.667
 1122W        W 5173   8.017   3.854  10.095
 1123W        W 5174   9.372   7.421   9.849
 1124W        W 5175   0.829   0.481   8.848
 1125W        W 5176   4.768   4.355   2.941
 1126W        W 5177   7.036   5.028  11.328
 1127W        W 5178  11.010   4.066   0.613
 1128W        W 5179   4.413   1.275   2.752
 1129W        W 5180   2.497   4.209  10.214
 1130W        W 5181   6.427   2.778   1.661
 1131W        W 5182   3.350   0.444   9.431
 1132W        W 5183   7.031   2.976   9.840
 1133W        W 5184   5.180   4.029   8.370
 1134W        W 5185   0.060   2.867  11.256
 1135W        W 5186   6.834  10.746   0.582
 1136W        W 5187   2.675  10.813   9.926
 1137W        W 5188   4.561   2.210  11.952
 1138W        W 5189   7.093   6.517  11.425
 1139W        W 5190  10.269   4.045  10.428
 1140W        W 5191   7.883   5.019   1.466
 1141W        W 5192   6.328   3.298   3.269
 1142W        W 5193   4.294   4.225   2.664
 1143W        W 5194  11.356   7.508   3.178
 1144W        W 5195   1.245   6.673   9.753
 1145W        W 5196   9.469   4.049   2.831
 1146W        W 5197   4.736   4.108   8.635
 1147W        W 5198  10.031   8.624   1.946
 1148W        W 5199   0.896   7.714  10.664
 1149W        W 5200   8.981   5.628   0.969
 1150W        W 5201   0.928   0.232  10.220
 1151W        W 5202   1.195  10.192   2.791
 1152W        W 5203  10.106   3.054  10.546
 1153W        W 5204  11.020   1.174   0.550
 1154W        W 5205   4.593   2.257   2.389
 1155W        W 5206   7.342   1.476   9.075
 1156W        W 5207   3.808   0.396  10.200
 1157W        W 5208   2.483   1.778   8.809
 1158W        W 5209   6.684  10.899   8.721
 1159W        W 5210   3.825   4.618  11.360
 1160W        W 5211   6.202   2.970  10.317
 1161W        W 5212   3.042   5.539   8.821
 1162W        W 5213   0.270   3.154  10.849
 1163W        W 5214   2.439   4.627  11.278
 1164W        W 5215   0.100   1.745   8.803
 1165W        W 5216   4.221   5.050   9.552
 1166W        W 5217  10.032   1.784   2.689
 1167W        W 5218   9.074   4.286   2.588
 1168W        W 5219  11.264   3.113  10.884
 1169W        W 5220   8.361   1.748   0.867
 1170W        W 5221   1.271   8.457  11.540
 1171W        W 5222   6.935   6.215   9.163
 1172W        W 5223  11.388   3.190   1.346
 1173W        W 5224  10.697   1.851   3.934
 1174W        W 5225   1.162  10.292  10.416
 1175W        W 5226   9.092   9.048   2.001
 1176W        W 5227   8.976   1.890  11.932
 1177W        W 5228   4.283   9.943   2.783
 1178W        W 5229   8.957   6.924   1.199
 1179W        W 5230   6.872   3.098   9.383
 1180W        W 5231   6.222   8.515  11.277
 1181W        W 5232   9.432   3.614   3.128
 1182W        W 5233   8.560   2.059   1.281
 1183W        W 5234   8.512   8.024   2.743
 1184W        W 5235   9.857   9.295  10.650
 1185W        W 5236   7.475   2.778   2.335
 1186W        W 5237   8.958   7.130  10.857
 1187W        W 5238  10.814   9.794   1.883
 1188W        W 5239   4.721   9.473   8.484
 1189W        W 5240   8.154   1.786   2.275
 1190W        W 5241   8.015   6.436  11.442
 1191W        W 5242   7.585   5.310  10.611
 1192W        W 5243   7.037   9.058   0.004
 1193W        W 5244   7.116  10.979   9.031
 1194W        W 5245   8.874   4.568   8.646
 1195W        W 5246   4.170   2.583   3.014
 1196W        W 5247   5.676   3.851   0.719
 1197W        W 5248   1.255   6.539  11.274
 1198W        W 5249   8.508   8.993   3.235
 1199W        W 5250   4.186   0.459   8.872
 1200W        W 5251   8.723  10.915   0.963
 1201W        W 5252   6.553   8.441   9.702
 1202W        W 5253   2.328   8.648  10.337
 1203W        W 5254   0.490   1.119  11.818
 1204W        W 5255   0.424   4.397   1.715
 1205W        W 5256   0.433   0.472   2.073
 1206W        W 5257  11.291  10.777   0.408
 1207W        W 5258  10.537   4.811  10.021
 1208W        W 5259   1.829   1.749  10.107
 1209W        W 5260   6.472   4.750   0.389
 1210W        W 5261   1.212   4.995   3.188
 1211W        W 5262  10.330   6.281  11.233
 1212W        W 5263   6.136   9.640  10.561
 1213W        W 5264  10.952   7.852   1.765
 1214W        W 5265   3.300   8.334   8.931
 1215W        W 5266   2.291   6.182   9.306
 1216W        W 5267   9.959   5.535   8.649
 1217W        W 5268  10.425   2.151   9.592
 1218W        W 5269   1.840   0.256   2.735
 1219W        W 5270   3.378   1.274   8.819
 1220W        W 5271   7.194   7.295  10.072
 1221W        W 5272   8.593  10.783   0.480
 1222W        W 5273   6.414   7.997   9.021
 1223W        W 5274   6.608   5.427   0.061
 1224W        W 5275   7.478   1.530   2.381
 1225W        W 5276   6.750   9.500   3.223
 1226W        W 5277   3.444   8.630  11.766
 1227W        W 5278   5.895   2.947   0.843
 1228W        W 5279  10.881   5.566  10.064
 1229W        W 5280   2.416   1.783  11.400
 1230W        W 5281   7.212  10.632   0.225
 1231W        W 5282   0.023  10.885   0.885
 1232W        W 5283   3.284   7.464   2.037
 1233W        W 5284   8.907   7.575  11.100
 1234W        W 5285   6.240  10.036  10.925
 1235W        W 5286   3.742  10.928  10.028
 1236W        W 5287  10.086   9.104   1.792
 1237W        W 5288   3.807   7.027   0.512
 1238W        W 5289   9.406   7.163   1.861
 1239W        W 5290   3.621   9.359   9.274
 1240W        W 5291   3.837   9.852   1.208
 1241W        W 5292   1.331   5.315   9.468
 1242W        W 5293  11.327   8.565   8.987
 1243W        W 5294   8.288   6.350   8.811
 1244W        W 5295   6.903  11.428   3.313
 1245W        W 5296   2.387   1.343   9.141
 1246W        W 5297   6.357   9.172  11.270
 1247W        W 5298   3.127   1.831   9.535
 1248W        W 5299   6.566   2.467  11.905
 1249W        W 5300   3.740   9.825   2.047
 1250W        W 5301   6.174  11.065  11.291
 1251W        W 5302   7.159   7.051   0.575
 1252W        W 5303   2.325   9.904   1.775
 1253W        W 5304   8.498   9.412  11.061
 1254W        W 5305   5.517   5.646   9.562
 1255W        W 5306   7.651   7.994  10.139
 1256W        W 5307   1.144   0.343  11.212
 1257W        W 5308   1.316   8.131   1.928
 1258W        W 5309   7.547  10.867  11.450
 1259W        W 5310   1.683   4.549   9.579
 1260W        W 5311   8.849   1.664   2.860
 1261W        W 5312   5.149   8.637   0.308
 1262W        W 5313   5.627  10.003   1.460
 1263W        W 5314   9.857  10.277  10.351
 1264W        W 5315   9.047   3.701   8.645
 1265W        W 5316   5.657   8.669   0.459
 1266W        W 5317   2.022  11.292  11.926
 1267W        W 5318   7.440   4.001  11.936
 1268W        W 5319   4.579   6.736   2.905
 1269W        W 5320   5.341   5.059   2.592
 1270W        W 5321   9.511   3.034   2.476
 1271W        W 5322   9.159   1.237  10.037
 1272W        W 5323   0.630   0.565  10.502
 1273W        W 5324   4.538  10.361   8.554
 1274W        W 5325   1.252   3.555   9.860
 1275W        W 5326   0.747   0.067  11.404
 1276W        W 5327   0.640   7.154   1.286
 1277W        W 5328  10.436  10.826  11.017
 1278W        W 5329   1.927   5.044   2.636
 1279W        W 5330   1.468   9.738   1.274
 1280W        W 5331   3.660   2.336   0.697
 1281W        W 5332   6.718   6.845   2.380
 1282W        W 5333   8.450   7.097   0.330
 1283W        W 5334   5.266   3.294   2.239
 1284W        W 5335   0.323   2.315   9.080
 1285W        W 5336   1.745   6.871   2.732
 1286W        W 5337   5.272   0.162   0.396
 1287W        W 5338   0.070  10.302   2.348
 1288W        W 5339   6.741  10.000  11.000
 1289W        W 5340   6.014   8.492  11.793
 1290W        W 5341   8.045   7.245  11.122
 1291W        W 5342   9.825   9.409   0.681
 1292W        W 5343   2.395  11.334   0.282
 1293W        W 5344   2.363   9.433   0.409
 1294W        W 5345   8.524   5.600   3.577
 1295W        W 5346   4.240   3.557   0.920
 1296W        W 5347   6.973   2.362  10.997
 1297W        W 5348   8.434   3.267   9.483
 1298W        W 5349   9.190  10.101   0.403
 1299W        W 5350  10.174   8.598  11.582
 1300W        W 5351  11.396   8.634   9.939
 1301W        W 5352   6.523   0.639   0.059
 1302W        W 5353   6.125  11.023   3.409
 1303W        W 5354   0.154   7.198   9.816
 1304W        W 5355   2.914   7.540   2.987
 1305W        W 5356   0.416   9.020   1.734
 1306W        W 5357  10.525   8.485  11.948
 1307W        W 5358   7.207   5.662   1.081
 1308W        W 5359   3.388   5.293   9.155
 1309W        W 5360   9.897   8.134   2.813
 1310W        W 5361   2.908   5.476   1.748
 1311W        W 5362   2.419   3.291   1.173
 1312W        W 5363   3.849   1.292   8.591
 1313W        W 5364   8.700   6.666  10.835
 1314W        W 5365  10.416   1.498  10.440
 1315W        W 5366   7.149   6.513   3.151
 1316W        W 5367  11.474   6.133   0.006
 1317W        W 5368   0.166   1.073   0.260
 1318W        W 5369  11.448   3.377  10.460
 1319W        W 5370   8.873   3.216   8.601
 1320W        W 5371   0.073   6.091   1.918
 1321W        W 5372   5.987   4.101   9.464
 1322W        W 5373   9.896   3.715   0.663
 1323W        W 5374   4.657   8.532   0.461
 1324W        W 5375  10.836   3.473   2.388
 1325W        W 5376   0.480  10.011   2.214
 1326W        W 5377   5.048  11.453   0.836
 1327W        W 5378   7.275   6.198  10.614
 1328W        W 5379   3.783  11.141  11.420
 1329W        W 5380   2.660   9.297  11.955
 1330W        W 5381  10.622   7.860   0.522
 1331W        W 5382   1.707   4.872  11.042
 1332W        W 5383   6.903  11.383   9.486
 1333W        W 5384   1.873   8.835   0.277
 1334W        W 5385   8.557   2.342   2.376
 1335W        W 5386   3.676   2.853   0.725
 1336W        W 5387  10.679  11.426   0.684
 1337W        W 5388   2.868   4.183   2.656
 1338W        W 5389   3.144   0.306   1.522
 1339W        W 5390   0.266   5.522   9.813
 1340W        W 5391   6.300  10.451  10.321
 1341W        W 5392   4.918   0.658   1.669
 1342W        W 5393   0.249   3.132   0.392
 1343W        W 5394   2.957   0.135  10.183
 1344W        W 5395   0.489   3.094  11.424
 1345W        W 5396   1.984   8.114  11.885
 1346W        W 5397   4.634   7.604  11.568
 1347W        W 5398   7.338   0.535   8.911
 1348W        W 5399   6.578   7.886   2.331
 1349W        W 5400   7.547   2.290   0.776
 1350W        W 5401   3.745   5.182   0.247
 1351W        W 5402   3.713   4.493   1.908
 1352W        W 5403   8.148   4.642   8.673
 1353W        W 5404   7.854   8.460  11.933
 1354W        W 5405   5.480   8.992   8.617
 1355W        W 5406   0.900   9.224   3.143
 1356W        W 5407   2.802   2.109  10.372
 1357W        W 5408   0.526   1.310   2.623
 1358W        W 5409   5.342  11.360   1.771
 1359W        W 5410  10.283   9.473  11.343
 1360W        W 5411  10.739  10.408   1.304
 1361W        W 5412   2.783   2.394   0.785
 1362W        W 5413   8.039   5.996   4.128
 1363W        W 5414   2.314  10.883  11.800
 1364W        W 5415   6.961   1.520   0.721
 1365W        W 5416   0.036   9.974   8.841
 1366W        W 5417   0.499   3.071   9.767
 1367W        W 5418  10.639   3.922   0.278
 1368W        W 5419   2.815   3.768   9.463
 1369W        W 5420   4.587   9.495  10.694
 1370W        W 5421   5.646   1.711   2.933
 1371W        W 5422   3.401   1.420   2.866
 1372W        W 5423   5.257   9.480   8.564
 1373W        W 5424   0.215   0.337  10.765
 1374W        W 5425  10.892  10.127  11.305
 1375W        W 5426   4.616  10.058   2.211
 1376W        W 5427   4.950   0.809   9.784
 1377W        W 5428   4.042   4.691   3.521
 1378W        W 5429  10.543   7.225  11.536
 1379W        W 5430   6.776   3.643   9.200
 1380W        W 5431   4.533   4.464   9.542
 1381W        W 5432   3.831   0.416  11.577
 1382W        W 5433  10.883   4.174   1.126
 1383W        W 5434   5.207   9.920   3.627
 1384W        W 5435   4.358   1.426   9.976
 1385W        W 5436   7.483   0.808   3.394
 1386W        W 5437   9.032   0.797   2.452
 1387W        W 5438   8.540   7.588   9.263
 1388W        W 5439   3.692   2.635   9.277
 1389W        W 5440   8.552   7.521   2.799
 1390W        W 5441   9.032   4.615   1.305
 1391W        W 5442   8.593   2.578   0.531
 1392W        W 5443   6.103   3.293   1.154
 1393W        W 5444   2.725   7.933   2.620
 1394W        W 5445   3.211  10.310   0.096
 1395W        W 5446  10.616   9.831  10.905
 1396W        W 5447   7.595   4.372   1.457
 1397W        W 5448   2.392   7.857  10.710
 1398W        W 5449   8.640   6.360  11.730
 1399W        W 5450   8.963   9.629  11.020
 1400W        W 5451   5.769   0.379   0.507
 1401W        W 5452   6.069   8.112   8.613
 1402W        W 5453   6.037   7.312   4.010
 1403W        W 5454   4.087  10.925   9.097
 1404W        W 5455   0.868   3.927  11.319
 1405W        W 5456   4.334   8.825   0.744
 1406W        W 5457   2.795   2.480  11.844
 1407W        W 5458   7.778   6.655   9.985
 1408W        W 5459   9.542   2.891   9.460
 1409W        W 5460  10.077   8.991   9.862
 1410W        W 5461   3.715   0.763   8.984
 1411W        W 5462   4.754   9.086  11.459
 1412W        W 5463   8.797  10.891   2.372
 1413W        W 5464   3.883   5.272  10.574
 1414W        W 5465   6.680   3.758   0.242
 1415W        W 5466   8.031   9.618   9.871
 1416W        W 5467   9.098   5.731   2.794
 1417W        W 5468   7.663   4.155  11.039
 1418W        W 5469  10.715   9.792  11.776
 1419W        W 5470   3.143   9.089  10.145
 1420W        W 5471   5.823   5.213  11.615
 1421W        W 5472   3.381   6.064  10.680
 1422W        W 5473   6.508   6.668   1.673
 1423W        W 5474   9.547   6.155  10.805
 1424W        W 5475   6.935  10.868  10.663
 1425W        W 5476   8.149   8.991   1.085
 1426W        W 5477   3.320   8.064  10.232
 1427W        W 5478   4.241   2.328  10.458
 1428W        W 5479  10.837   2.765   9.187
 1429W        W 5480   0.487  10.954   1.176
 1430W        W 5481   0.975  11.357   1.413
 1431W        W 5482   8.913   7.336   9.533
 1432W        W 5483   2.178   3.409   1.883
 1433W        W 5484   9.173   7.081  11.942
 1434W        W 5485   2.918   7.870  11.921
 1435W        W 5486   2.415   0.556   1.990
 1436W        W 5487   1.196   9.664   2.913
 1437W        W 5488   8.841   0.741  11.470
 1438W        W 5489   2.936   3.013   3.131
 1439W        W 5490   4.276   2.808   0.356
 1440W        W 5491   4.647   4.256   9.105
 1441W        W 5492   4.716   2.966   1.438
 1442W        W 5493   5.214   5.607  10.953
 1443W        W 5494   5.744  11.089   3.042
 1444W        W 5495  11.063   6.063   9.910
 1445W        W 5496   1.270   4.808   9.401
 1446W        W 5497   2.328   4.355   8.438
 1447W        W 5498   2.396   2.691  11.578
 1448W        W 5499   5.795   7.121  10.413
 1449W        W 5500   1.278   1.105  11.123
 1450W        W 5501   8.717   4.269   9.196
 1451W        W 5502   7.393   5.202   1.840
 1452W        W 5503   5.141   1.697  11.249
 1453W        W 5504   6.604   6.127  10.039
 1454W        W 5505   6.592   4.509   2.519
 1455W        W 5506   1.187   5.667   1.323
 1456W        W 5507  10.291   0.644   0.101
 1457W        W 5508   3.054   8.852   2.366
 1458W        W 5509   3.412  10.768  10.869
 1459W        W 5510   8.118   4.108   3.141
 1460W        W 5511   3.153   3.526   2.753
 1461W        W 5512   4.729  10.962   9.686
 1462W        W 5513   9.863   0.271  10.387
 1463W        W 5514   5.683   3.388   8.960
 1464W        W 5515   9.085   4.595  10.954
 1465W        W 5516  10.655   1.780   0.878
 1466W        W 5517   5.225   3.732   1.363
 1467W        W 5518   9.099   4.173   8.880
 1468W        W 5519   9.741   5.289   1.229
 1469W        W 5520   9.935   8.141   0.276
 1470W        W 5521  10.397  10.927   3.244
 1471W        W 5522  10.093   2.346   2.828
 1472W        W 5523   1.276   2.368   1.055
 1473W        W 5524   7.088   0.304   1.314
 1474W        W 5525   2.166   2.084  10.999
 1475W        W 5526   7.378   7.206   2.452
 1476W        W 5527   0.018   9.573   2.770
 1477W        W 5528   9.131   6.599   9.110
 1478W        W 5529   3.145   8.952   9.147
 1479W        W 5530   4.098   9.547  10.428
 1480W        W 5531   1.914   2.220   0.434
 1481W        W 5532   4.826  10.576   1.301
 1482W        W 5533   6.212   6.224   3.033
 1483W        W 5534   3.711   5.398  11.777
 1484W        W 5535   0.140   8.897   2.144
 1485W        W 5536   6.049   6.228  11.950
 1486W        W 5537   0.899   6.453   1.912
 1487W        W 5538   5.183   3.630  10.989
 1488W        W 5539   9.275   6.302  11.287
 1489W        W 5540   8.968   3.246  10.510
 1490W        W 5541   4.576   0.260  11.966
 1491W        W 5542   1.746   9.203  11.343
 1492W        W 5543   9.697   0.586   9.488
 1493W        W 5544   9.756   0.777  11.439
 1494W        W 5545  10.359  11.370   1.922
 1495W        W 5546  10.807   1.322  11.078
 1496W        W 5547   3.729   3.358  10.929
 1497W        W 5548   0.461   3.805   2.319
 1498W        W 5549   4.592   0.747   0.758
 1499W        W 5550   9.032   8.099  10.173
 1500W        W 5551  10.817   0.316   1.018
 1501W        W 5552  10.148  10.374   9.951
 1502W        W 5553   8.548  11.231   0.181
 1503W        W 5554   1.037  10.558   2.457
 1504W        W 5555   4.981  11.308   2.647
 1505W        W 5556   5.444   4.040   3.589
 1506W        W 5557   1.993   9.872   9.378
 1507W        W 5558   4.910   1.186   2.609
 1508W        W 5559   6.640   2.673  10.391
 1509W        W 5560   5.164   3.972   4.008
 1510W        W 5561   9.135   6.340   8.676
 1511W        W 5562   8.906   7.422   1.227
 1512W        W 5563  10.599   4.307  10.113
 1513W        W 5564   2.180   9.134  11.988
 1514W        W 5565   8.079   5.031   4.049
 1515W        W 5566   7.629   7.134   1.245
 1516W        W 5567   1.663   6.928   3.237
 1517W        W 5568   0.061   5.961   9.934
 1518W        W 5569   4.431  10.406  11.364
 1519W        W 5570   9.509   9.879   1.244
 1520W        W 5571   5.534   9.639  11.341
 1521W        W 5572   2.629   1.076   1.283
 1522W        W 5573   3.363   2.222   9.263
 1523W        W 5574  11.055   9.427  11.730
 1524W        W 5575   2.295   2.238   0.913
 1525W        W 5576   9.051   6.786   1.974
 1526W        W 5577   7.800   5.731   9.863
 1527W        W 5578  11.093   4.480  10.904
 1528W        W 5579   8.011   4.696   2.179
 1529W        W 5580   7.362   4.709  11.031
 1530W        W 5581   4.242  11.376   2.638
 1531W        W 5582   3.683   6.590   0.282
 1532W        W 5583   5.911   0.932   8.520
 1533W        W 5584  10.855   8.197   0.221
 1534W        W 5585  10.787   1.831  10.471
 1535W        W 5586   9.400   2.658   1.999
 1536W        W 5587   1.626   1.348   9.822
 1537W        W 5588   0.513  10.541   2.323
 1538W        W 5589   9.341  11.368  11.221
 1539W        W 5590   9.972  11.415   9.542
 1540W        W 5591   2.910   5.353   0.213
 1541W        W 5592   3.382   2.555  10.663
 1542W        W 5593   4.403   3.834  11.233
 1543W        W 5594   6.567   2.226   0.955
 1544W        W 5595   2.137   1.791   9.192
 1545W        W 5596   2.183  11.418  11.431
 1546W        W 5597   4.363   0.807   0.301
 1547W        W 5598   9.578   8.044  10.080
 1548W        W 5599   4.897   8.596  10.902
 1549W        W 5600   0.593   5.911   0.705
 1550W        W 5601   3.228   4.297  11.301
 1551W        W 5602   2.240   8.580   2.999
 1552W        W 5603   1.807   0.284   9.515
 1553W        W 5604   6.377   4.019  10.468
 1554W        W 5605   4.113  11.254  10.838
 1555W        W 5606   6.028   6.159   0.871
 1556W        W 5607   0.285   1.691   9.814
 1557W        W 5608   1.476  10.240   1.374
 1558W        W 5609   3.755   6.619   9.386
 1559W        W 5610   1.135   1.833   8.986
 1560W        W 5611   7.951   0.439   1.767
 1561W        W 5612   6.278   8.796  10.000
 1562W        W 5613   8.004   4.166  11.424
 1563W        W 5614   8.614   8.412   2.002
 1564W        W 5615   8.206   6.534   3.249
 1565W        W 5616   9.624   6.948   2.286
 1566W        W 5617   0.698  11.381   0.995
 1567W        W 5618   8.765   8.729   3.758
 1568W        W 5619  11.455   9.144  10.757
 1569W        W 5620   1.294   5.974   0.055
 1570W        W 5621   8.900   6.109   0.533
 1571W        W 5622   8.501   3.396   8.923
 1572W        W 5623   4.706   8.116  11.620
 1573W        W 5624  11.281   9.667   1.734
 1574W        W 5625   6.771   8.058   9.405
 1575W        W 5626   7.138  10.470   9.224
 1576W        W 5627  10.966  10.631  11.449
 1577W        W 5628   5.495   6.104   2.300
 1578W        W 5629   6.367   6.143   2.542
 1579W        W 5630   3.278   8.570  10.404
 1580W        W 5631   2.698   5.542   2.817
 1581W        W 5632   0.286   9.460  11.327
 1582W        W 5633   3.149   6.232   3.376
 1583W        W 5634   0.570   1.483   3.662
 1584W        W 5635   0.306   7.078  11.781
 1585W        W 5636   3.684   3.852  11.816
 1586W        W 5637   9.839   0.003   1.814
 1587W        W 5638  10.396   1.287  11.360
 1588W        W 5639   6.255   7.901   0.370
 1589W        W 5640  11.004  10.013   1.467
 1590W        W 5641  10.829   1.357   9.621
 1591W        W 5642  10.447   6.496  11.990
 1592W        W 5643   0.755   1.185   3.105
 1593W        W 5644   0.908   3.780   2.564
 1594W        W 5645   9.653   2.124   2.642
 1595W        W 5646   3.154   2.076  10.757
 1596W        W 5647   4.540   0.953  10.091
 1597W        W 5648   1.330   2.313   1.927
 1598W        W 5649   8.855   4.595   2.222
 1599W        W 5650   5.804   9.017   9.956
 1600W        W 5651  11.019   9.862   2.340
 1601W        W 5652   8.859   1.721   1.022
 1602W        W 5653   8.009   7.475   1.312
 1603W        W 5654   9.028   7.670   2.884
 1604W        W 5655  10.017   7.010   8.991
 1605W        W 5656   3.389   3.391   1.396
 1606W        W 5657   9.171   7.585  11.944
 1607W        W 5658  10.648   3.616   9.659
 1608W        W 5659   8.093  10.308  11.875
 1609W        W 5660  10.122   8.792   8.919
 1610W        W 5661   6.967   4.620  11.738
 1611W        W 5662   6.573   1.119   9.598
 1612W        W 5663   6.247   8.970   2.675
 1613W        W 5664  10.009   8.950  11.018
 1614W        W 5665   8.321   6.830   0.764
 1615W        W 5666   2.890  11.400   8.776
 1616W        W 5667   2.493   0.068  10.373
 1617W        W 5668   6.643  10.925   1.362
 1618W        W 5669   4.579   9.051  11.929
 1619W        W 5670   9.404   2.872   0.879
 1620W        W 5671   5.014   2.820   3.166
 1621W        W 5672   0.169  10.340   1.418
 1622W        W 5673   9.828   4.805   2.309
 1623W        W 5674  10.090   0.362   9.752
 1624W        W 5675   3.303   9.948   1.318
 1625W        W 5676  10.927   6.470   1.310
 1626W        W 5677   6.094   3.655   1.991
 1627W        W 5678   4.124   4.260  11.189
 1628W        W 5679   0.762  10.829   3.399
 1629W        W 5680   9.390   8.055   1.827
 1630W        W 5681   0.434   6.190  11.770
 1631W        W 5682   4.258  10.117   3.299
 1632W        W 5683   9.481   3.930   2.299
 1633W        W 5684   2.890   2.590  10.502
 1634W        W 5685   0.768   4.206   0.698
 1635W        W 5686   1.848   0.939   8.653
 1636W        W 5687   3.832   3.615  11.372
 1637W        W 5688   2.180   5.705   9.117
 1638W        W 5689   8.110   5.845  10.985
 1639W        W 5690   4.967   9.513   8.974
 1640W        W 5691   3.779   7.533   3.252
 1641W        W 5692   5.606   3.658   2.097
 1642W        W 5693   5.053   3.541   2.774
 1643W        W 5694   0.057   6.704   2.394
 1644W        W 5695  10.482   3.239   2.695
 1645W        W 5696   5.655   7.632   1.944
 1646W        W 5697   7.370   0.937   8.470
 1647W        W 5698   7.972   4.998  10.408
 1648W        W 5699   4.435   1.071  11.038
 1649W        W 5700   2.666   3.300   0.220
 1650W        W 5701   0.430   0.230   3.407
 1651W        W 5702   3.175   3.644  10.572
 1652W        W 5703   3.197   6.048   9.810
 1653W        W 5704   9.884   2.835   1.112
 1654W        W 5705   0.402   8.613  10.053
 1655W        W 5706   7.090   2.825   0.474
 1656W        W 5707   8.090  10.064   2.356
 1657W        W 5708   0.838   8.362  11.276
 1658W        W 5709   6.196   5.286   2.393
 1659W        W 5710   1.885   2.289   1.864
 1660W        W 5711   3.223   5.317   2.474
 1661W        W 5712   5.810   5.055   0.398
 1662W        W 5713   5.155   9.747  11.711
 1663W        W 5714   1.375   5.753   1.786
 1664W        W 5715   2.155   9.049   8.896
 1665W        W 5716  10.524   6.976   9.079
 1666W        W 5717   5.537   7.971   8.696
 1667W        W 5718   4.728   0.969   3.633
 1668W        W 5719   6.436   2.111   9.313
 1669W        W 5720   1.274   7.661   9.016
 1670W        W 5721  11.219   2.812   1.710
 1671W        W 5722   3.421   2.244   3.012
 1672W        W 5723  10.883   3.652   0.921
 1673W        W 5724  11.004   6.163   0.544
 1674W        W 5725   0.867   8.647  10.289
 1675W        W 5726   2.664   0.526  11.243
 1676W        W 5727  11.472   8.076   2.583
 1677W        W 5728   7.305  10.784   2.138
 1678W        W 5729  10.400   0.446   8.932
 1679W        W 5730   5.490   6.666   0.383
 1680W        W 5731   2.690   0.248   0.244
 1681W        W 5732   3.518   4.007   2.015
 1682W        W 5733   9.656   2.930  11.071
 1683W        W 5734   4.620   9.374   9.390
 1684W        W 5735   8.710   5.114   0.344
 1685W        W 5736   5.063   4.025   0.082
 1686W        W 5737   1.690   9.494   9.603
 1687W        W 5738   4.781   1.469  11.529
 1688W        W 5739   5.672   9.376  11.759
 1689W        W 5740   1.806   0.467   1.198
 1690W        W 5741   2.704   3.635   3.052
 1691W        W 5742   9.980   4.845   1.273
 1692W        W 5743   9.020   4.818   2.664
 1693W        W 5744   0.081   9.448   3.289
 1694W        W 5745   4.553   4.820   0.465
 1695W        W 5746  10.796   5.728   3.577
 1696W        W 5747   7.073   9.855   2.254
 1697W        W 5748   6.130   4.883  10.392
 1698W        W 5749  10.975   0.768   0.846
 1699W        W 5750   8.463  10.036  10.353
 1700W        W 5751   2.707   3.656   1.535
 1701W        W 5752   3.837  10.259   0.682
 1702W        W 5753  11.137   0.041  11.805
 1703W        W 5754   4.456   9.313   1.271
 1704W        W 5755   4.666  10.799   1.747
 1705W        W 5756   9.065  11.368  10.556
 1706W        W 5757   4.234   7.763  10.941
 1707W        W 5758   5.486  10.766   1.181
 1708W        W 5759   7.914   3.207  11.619
 1709W        W 5760   5.522   6.813  10.052
 1710W        W 5761  10.135   5.176  10.519
 1711W        W 5762   6.244   3.178   2.146
 1712W        W 5763   8.440   5.177   3.329
 1713W        W 5764  10.811   0.760   0.340
 1714W        W 5765  10.105   6.300  11.684
 1715W        W 5766   8.930   3.548   9.960
 1716W        W 5767   4.829   6.972   2.472
 1717W        W 5768   3.361   8.130  11.804
 1718W        W 5769   1.082   7.930  11.092
 1719W        W 5770   2.243   0.965   3.150
 1720W        W 5771   4.207   8.414   9.477
 1721W        W 5772   8.129   7.841   3.048
 1722W        W 5773   7.859  11.487  10.388
 1723W        W 5774   1.470   3.758   1.184
 1724W        W 5775   7.279   4.479   8.216
 1725W        W 5776   6.203  11.206   9.096
 1726W        W 5777   7.861   5.472   1.737
 1727W        W 5778   5.457   1.626   8.976
 1728W        W 5779   2.770   2.682   1.976
 1729W        W 5780   0.424   4.078   0.364
 1730W        W 5781   2.415   8.591   8.815
 1731W        W 5782   3.887  11.075   8.651
 1732W        W 5783   8.407  10.932  11.782
 1733W        W 5784   9.524   0.107   9.377
 1734W        W 5785   5.509   7.991   3.631
 1735W        W 5786   9.002   9.980   3.025
 1736W        W 5787   0.411   0.337   1.032
 1737W        W 5788   6.318   8.027   0.883
 1738W        W 5789   6.218   4.079   8.149
 1739W        W 5790   5.188   2.569  11.784
 1740W        W 5791   3.202   8.285   3.030
 1741W        W 5792   3.059   5.561   1.225
 1742W        W 5793   0.740  10.460  10.649
 1743W        W 5794   5.330   6.945   3.550
 1744W        W 5795   5.981   4.173   3.629
 1745W        W 5796   8.876   5.072   1.129
 1746W        W 5797   6.191   4.316   0.982
 1747W        W 5798   4.699   3.755  10.773
 1748W        W 5799   6.598   7.974   8.539
 1749W        W 5800   0.919   2.940   0.744
 1750W        W 5801   1.698   3.245   1.902
 1751W        W 5802  10.949   5.541   2.184
 1752W        W 5803   9.442   4.253  10.894
 1753W        W 5804   3.671   6.182   9.647
 1754W        W 5805   3.611   3.530   9.885
 1755W        W 5806   6.315   5.374  10.438
 1756W        W 5807   9.905   4.680   8.913
 1757W        W 5808  10.803   7.661   9.022
 1758W        W 5809   4.246   5.590  10.868
 1759W        W 5810   5.700  10.513   8.906
 1760W        W 5811   5.914   3.797   2.863
 1761W        W 5812   7.207  10.131   0.435
 1762W        W 5813   3.278   9.554   3.633
 1763W        W 5814  11.452   8.053   1.876
 1764W        W 5815   5.697   4.114   0.264
 1765W        W 5816   4.193   6.644   0.337
 1766W        W 5817   6.907   0.746  10.303
 1767W        W 5818  10.459  10.538   0.571
 1768W        W 5819   2.919   2.965  11.916
 1769W        W 5820  10.026   2.546  11.281
 1770W        W 5821   4.434   6.672   3.565
 1771W        W 5822   1.353   8.929   2.389
 1772W        W 5823   2.174   3.316  10.490
 1773W        W 5824   7.933   9.161   9.677
 1774W        W 5825   3.283   4.004   2.874
 1775W        W 5826  11.155   9.483   9.532
 1776W        W 5827   2.741   3.737   8.962
 1777W        W 5828   9.096   8.074   2.280
 1778W        W 5829   7.834   2.836   2.808
 1779W        W 5830   7.501   3.145  10.909
 1780W        W 5831   8.510   0.623   1.193
 1781W        W 5832   6.541   0.798  11.556
 1782W        W 5833   6.467   2.293   2.455
 1783W        W 5834   9.659   8.689  11.321
 1784W        W 5835   3.330   9.768   2.352
 1785W        W 5836   4.591   0.357   1.408
 1786W        W 5837   6.720   1.099  11.963
 1787W        W 5838   5.228   1.013   3.493
 1788W        W 5839   4.477   5.380  10.437
 1789W        W 5840   1.007   8.524   9.382
 1790W        W 5841  10.779   8.462  10.893
 1791W        W 5842   7.080   9.737   1.208
 1792W        W 5843   1.950   2.235   9.994
 1793W        W 5844   6.524   8.352   0.238
 1794W        W 5845   3.368   9.106  11.525
 1795W        W 5846   5.993   7.885  11.027
 1796W        W 5847   6.237   6.472   9.837
 1797W        W 5848   1.229   0.979   0.928
 1798W        W 5849   1.438   3.092   9.910
 1799W        W 5850   1.697   4.552   3.326
 1800W        W 5851   4.037   6.739   2.860
 1801W        W 5852   6.033   1.834   9.497
 1802W        W 5853  10.790   9.124   2.958
 1803W        W 5854   9.768   8.433   8.965
 1804W        W 5855   1.488   8.022   0.023
 1805W        W 5856   9.380   6.671   1.025
 1806W        W 5857   9.389   4.676   3.572
 1807W        W 5858   0.663   6.716  11.792
 1808W        W 5859   2.607  10.550  11.457
 1809W        W 5860   3.817   2.147   9.044
 1810W        W 5861  10.884  10.932   9.995
 1811W        W 5862  10.941   6.656   3.165
 1812W        W 5863   8.027  10.075  10.087
 1813W        W 5864   4.712  10.880   3.332
 1814W        W 5865   1.477   9.641   0.052
 1815W        W 5866   9.503   2.659   1.469
 1816W        W 5867   4.282  10.813  10.617
 1817W        W 5868   9.240   5.166  10.714
 1818W        W 5869   3.221   3.840  11.540
 1819W        W 5870   5.717   4.234   9.932
 1820W        W 5871   4.107  10.016  10.209
 1821W        W 5872   1.288   9.146   2.838
 1822W        W 5873   2.539  10.110   3.048
 1823W        W 5874   6.625   9.451   9.267
 1824W        W 5875   1.627   5.545   0.460
 1825W        W 5876   8.873   4.183   9.675
 1826W        W 5877   9.927   7.158   2.642
 1827W        W 5878   2.505   5.339   1.015
 1828W        W 5879   4.181   3.076  11.066
 1829W        W 5880   1.390   5.795   9.633
 1830W        W 5881   1.054   2.930   3.470
 1831W        W 5882   1.722   6.624  11.001
 1832W        W 5883   1.230  10.928   9.370
 1833W        W 5884   4.132   5.226  11.557
 1834W        W 5885   0.555  10.291   8.907
 1835W        W 5886   5.014   5.818   9.587
 1836W        W 5887   1.368   3.816   1.830
 1837W        W 5888   0.204   3.506   9.863
 1838W        W 5889   9.937   0.483   8.711
 1839W        W 5890   9.536   1.951   9.009
 1840W        W 5891   4.623   3.227   0.251
 1841W        W 5892   9.197   0.488   9.522
 1842W        W 5893   3.586   4.211   3.269
 1843W        W 5894   8.525   5.381  10.949
 1844W        W 5895   5.667   8.713   1.858
 1845W        W 5896   9.997   2.707   9.319
 1846W        W 5897  10.221   3.415  10.890
 1847W        W 5898   7.987   9.453   8.797
 1848W        W 5899   0.800   8.258   2.304
 1849W        W 5900   0.732   8.103   9.228
 1850W        W 5901   9.087   6.660   2.906
 1851W        W 5902   8.535  10.367   0.180
 1852W        W 5903   6.575   2.655  11.190
 1853W        W 5904   0.251   5.871   1.470
 1854W        W 5905   1.820   2.801   1.197
 1855W        W 5906   3.460   8.430   1.634
 1856W        W 5907   3.833   4.813  10.875
 1857W        W 5908   8.102   2.665   8.477
 1858W        W 5909   1.536  11.020   0.864
 1859W        W 5910   6.719   9.904   0.361
 1860W        W 5911   5.843   6.227  11.473
 1861W        W 5912   4.619  11.260   2.994
 1862W        W 5913   7.162   9.385   1.962
 1863W        W 5914  10.657  11.402  11.791
 1864W        W 5915   2.006   6.281  11.868
 1865W        W 5916   7.471   3.329   1.584
 1866W        W 5917   5.735   4.119   3.190
 1867W        W 5918   8.077  10.837   1.725
 1868W        W 5919   2.465  10.883  10.909
 1869W        W 5920  11.279   4.272   2.988
 1870W        W 5921   7.170   2.646   9.480
 1871W        W 5922   9.267   0.669   1.772
 1872W        W 5923   7.167   3.276   3.048
 1873W        W 5924   2.204   3.681   3.254
 1874W        W 5925  10.323   3.427   9.987
 1875W        W 5926   1.332   9.195   1.949
 1876W        W 5927   3.747   2.058   8.508
 1877W        W 5928  10.291   3.949   9.903
 1878W        W 5929   6.913   5.352   2.025
 1879W        W 5930   4.552   2.734   0.990
 1880W        W 5931   6.217   3.676   1.490
 1881W        W 5932   8.381  10.824   9.536
 1882W        W 5933   4.738   5.246   0.762
 1883W        W 5934   7.108   4.522   1.707
 1884W        W 5935  11.028  11.350   0.277
 1885W        W 5936   9.737   5.953  11.718
 1886W        W 5937   6.701  10.445   9.474
 1887W        W 5938   5.309  10.913   8.966
 1888W        W 5939   6.292   2.362   1.375
 1889W        W 5940   4.677   0.630   2.514
 1890W        W 5941   0.508   2.796  10.558
 1891W        W 5942  10.900   2.007   2.730
 1892W        W 5943   6.526   6.123   0.961
 1893W        W 5944   1.927  10.176   1.983
 1894W        W 5945   1.154   0.845   9.115
 1895W        W 5946   3.480   9.624   9.682
 1896W        W 5947  10.412   2.819   2.430
 1897W        W 5948   1.234   8.043   9.369
 1898W        W 5949   0.343   0.846   2.420
 1899W        W 5950   1.705   5.555   1.425
 1900W        W 5951   3.229   8.851   3.206
 1901W        W 5952  10.054   4.988  10.042
 1902W        W 5953   2.088   1.827   1.749
 1903W        W 5954   8.444   3.264  10.426
 1904W        W 5955   3.790   3.100  11.381
 1905W        W 5956   9.065   6.076   9.093
 1906W        W 5957  11.179   5.726  11.222
 1907W        W 5958   1.765   4.595   1.491
 1908W        W 5959   8.769   2.517   2.836
 1909W        W 5960  11.350  10.564  11.113
 1910W        W 5961  10.073   2.614  10.310
 1911W        W 5962   8.248   0.909  10.391
 1912W        W 5963   5.472   2.070   2.583
 1913W        W 5964   5.627   0.387   9.624
 1914W        W 5965  10.963   5.215  11.489
 1915W        W 5966  10.132   3.641   9.516
 1916W        W 5967   0.265   7.270   2.967
 1917W        W 5968   3.322  11.339   1.423
 1918W        W 5969   6.720   6.147   8.699
 1919W        W 5970   1.482   7.052   8.483
 1920W        W 5971  11.327   5.717   9.220
 1921W        W 5972  10.125   6.048   2.216
 1922W        W 5973   5.047  10.316   2.307
 1923W        W 5974   0.451   9.845   3.446
 1924W        W 5975   9.164   9.572   0.334
 1925W        W 5976   9.018  10.462   2.213
 1926W        W 5977   1.776   8.935   1.800
 1927W        W 5978   2.236   2.792  10.046
 1928W        W 5979   4.105   4.243   1.540
 1929W        W 5980   2.197   1.954   3.791
 1930W        W 5981   4.092   3.332  10.005
 1931W        W 5982   0.176   1.481   1.686
 1932W        W 5983   8.502  10.724   2.771
 1933W        W 5984   4.640   3.863   2.814
 1934W        W 5985   6.637   8.442  10.238
 1935W        W 5986   2.990  10.449  10.113
 1936W        W 5987   3.206   1.778   9.022
 1937W        W 5988   9.584  10.768   1.015
 1938W        W 5989   3.495   8.002   0.925
 1939W        W 5990   5.407   7.829   9.197
 1940W        W 5991   4.047   2.570   2.521
 1941W        W 5992   7.701  11.041   0.464
 1942W        W 5993   3.613   2.097   0.248
 1943W        W 5994   6.583   1.258   9.070
 1944W        W 5995   8.091   8.327   2.763
 1945W        W 5996   0.883   0.376   2.360
 1946W        W 5997   6.901   3.313   0.574
 1947W        W 5998   4.174   9.069   1.687
 1948W        W 5999   3.490   0.481   3.728
 1949W        W 6000   3.670   3.562   1.785
 1950W        W 6001   9.915   4.764  10.776
 1951W        W 6002   7.227   1.867   2.684
 1952W        W 6003   8.673   3.694  11.305
 1953W        W 6004  11.431   9.884   9.329
 1954W        W 6005   9.814   0.087   0.989
 1955W        W 6006   1.463   5.106   2.117
 1956W        W 6007   2.423   6.117   8.807
 1957W        W 6008   3.370   9.493   0.400
 1958W        W 6009   8.615   5.259  11.856
 1959W        W 6010   5.986   6.064  10.979
 1960W        W 6011  10.486   3.442   0.267
 1961W        W 6012   3.106  11.341  11.125
 1962W        W 6013   8.625   8.798   1.225
 1963W        W 6014   1.779   5.975   2.209
 1964W        W 6015   1.727  10.813   9.228
 1965W        W 6016  11.291   9.758  11.370
 1966W        W 6017   5.286   8.955   0.690
 1967W        W 6018  10.575  11.335  10.945
 1968W        W 6019  11.442   7.567   1.699
 1969W        W 6020   9.909   5.598   0.023
 1970W        W 6021   1.399   1.390   3.127
 1971W        W 6022   4.776   1.705  11.984
 1972W        W 6023   6.527   7.571   0.997
 1973W        W 6024   4.972   6.558   3.620
 1974W        W 6025   3.843   3.168   1.486
 1975W        W 6026   7.128   8.847  11.057
 1976W        W 6027   3.269   2.688   1.747
 1977W        W 6028   2.250   7.925   1.181
 1978W        W 6029   3.676   0.286   3.202
 1979W        W 6030   4.157  11.199  10.297
 1980W        W 6031  10.420   5.178  11.480
 1981W        W 6032   2.838   8.797   0.785
 1982W        W 6033  10.832   3.279   9.294
 1983W        W 6034   3.938   7.132   9.259
 1984W        W 6035   3.852   3.380  11.822
 1985W        W 6036  11.367   3.118  10.013
 1986W        W 6037   2.208   8.924  11.314
 1987W        W 6038   6.212  10.812  10.738
 1988W        W 6039   2.196   2.219  11.494
 1989W        W 6040   3.261   9.064  10.638
 1990W        W 6041   1.294   5.287   1.641
 1991W        W 6042   9.747   4.596  10.205
 1992W        W 6043   3.900   8.190   8.368
 1993W        W 6044   8.097  10.471   2.054
 1994W        W 6045   6.966   8.431   0.552
 1995W        W 6046   5.534   2.358   9.739
 1996W        W 6047   0.693   5.986   1.221
 1997W        W 6048   1.676   6.705  11.985
 1998W        W 6049   6.081   8.920   1.636
 1999W        W 6050   0.622   1.843   9.025
 2000W        W 6051   2.760   1.122  10.432
 2001W        W 6052   6.060   0.440   2.260
 2002W        W 6053   8.568   9.733   1.624
 2003W        W 6054  11.428   0.905  11.856
 2004W        W 6055   7.221   7.830   9.940
 2005W        W 6056   8.631  10.018  11.092
 2006W        W 6057   3.342   2.232   9.785
 2007W        W 6058   1.800   6.439   1.935
 2008W        W 6059   3.646   8.910   9.034
 2009W        W 6060   2.256   3.675  11.280
 2010W        W 6061  10.067   0.204   1.427
 2011W        W 6062   8.264   1.551  11.302
 2012W        W 6063   2.902   1.860  11.229
 2013W        W 6064   8.377   9.596   0.022
 2014W        W 6065   0.321   7.954   9.528
 2015W        W 6066   2.694   3.467   8.531
 2016W        W 6067   1.316   9.308   3.487
 2017W        W 6068  10.823   7.035  10.844
 2018W        W 6069   3.846   7.488   0.245
 2019W        W 6070   1.994   7.699   3.164
 2020W        W 6071   1.833   1.366   2.050
 2021W        W 6072   9.393   9.357  11.877
 2022W        W 6073   1.607  10.537   1.785
 2023W        W 6074   7.996  11.437   0.904
 2024W        W 6075   8.593   0.600   2.279
 2025W        W 6076   4.269   4.582  11.686
 2026W        W 6077   2.424   7.481   4.072
 2027W        W 6078   9.537   9.845   9.037
 2028W        W 6079   8.057   5.310   3.622
 2029W        W 6080   9.643  10.964  11.304
 2030W        W 6081   8.900   3.626  10.843
 2031W        W 6082   6.134   9.485   0.779
 2032W        W 6083   2.619  10.884   0.208
 2033W        W 6084  10.529   0.499   3.169
 2034W        W 6085   1.555   2.425   0.100
 2035W        W 6086  10.859   1.265   8.593
 2036W        W 6087   9.091  11.274   2.180
 2037W        W 6088   8.164   7.540   1.823
 2038W        W 6089   3.127   1.459   3.335
 2039W        W 6090   2.240   4.903   3.787
 2040W        W 6091   0.127   6.783  10.145
 2041W        W 6092  10.360   7.008  11.968
 2042W        W 6093  10.817   6.105  11.197
 2043W        W 6094   1.607   2.816   3.206
 2044W        W 6095  10.120   2.701   8.815
 2045W        W 6096   4.813  10.066   1.369
 2046W        W 6097   5.727  11.369   8.949
 2047W        W 6098   2.779   4.564   1.466
 2048W        W 6099   4.498  11.258  11.956
 2049W        W 6100   8.962   9.495  10.294
 2050W        W 6101   3.039   7.807   0.703
 2051W        W 6102   5.677   8.167   1.819
 2052W        W 6103   6.416   3.328   9.370
 2053W        W 6104   1.105   2.187   1.491
 2054W        W 6105   5.551   5.705   0.454
 2055W        W 6106   8.913   5.928  11.416
 2056W        W 6107  11.480   6.756   0.866
 2057W        W 6108   6.739  10.423   1.492
 2058W        W 6109   4.366   6.541   0.981
 2059W        W 6110  10.775   5.155   1.388
 2060W        W 6111   0.373  10.346   9.894
 2061W        W 6112   6.960   3.756   2.272
 2062W        W 6113   4.029   7.930   0.966
 2063W        W 6114   5.504   3.300   1.707
 2064W        W 6115  11.258   0.409  11.094
 2065W        W 6116   1.843  10.420   2.805
 2066W        W 6117   1.008   9.977   1.344
 2067W        W 6118  10.455   8.954  11.292
 2068W        W 6119   9.660   8.156   9.568
 2069W        W 6120   1.904   2.523  11.758
 2070W        W 6121   5.975   6.179   8.925
 2071W        W 6122   0.636   1.648   1.868
 2072W        W 6123   2.216  11.331  10.922
 2073W        W 6124   4.197  10.286   2.392
 2074W        W 6125   5.217   9.775   4.151
 2075W        W 6126   2.947   8.404   8.111
 2076W        W 6127   2.853   2.935  10.897
 2077W        W 6128   7.387   2.998  11.753
 2078W        W 6129   5.452   4.665   0.355
 2079W        W 6130   1.867   0.272   3.269
 2080W        W 6131  10.901   5.977   2.421
 2081W        W 6132   6.947   9.916  11.478
 2082W        W 6133   5.742   4.770  10.055
 2083W        W 6134  11.473   5.066   1.833
 2084W        W 6135   8.176   2.926   8.952
 2085W        W 6136   4.116   3.034   2.732
 2086W        W 6137   3.605  11.058   0.396
 2087W        W 6138   2.177   8.995   3.347
 2088W        W 6139   1.681   1.875   0.777
 2089W        W 6140   0.296  10.061  10.646
 2090W        W 6141  10.451   5.481   9.403
 2091W        W 6142  10.804   9.670  10.438
 2092W        W 6143   1.388   1.768  11.282
 2093W        W 6144   9.250   3.898   1.813
 2094W        W 6145   2.630   3.188   1.802
 2095W        W 6146   8.607   1.815   9.560
 2096W        W 6147   8.192  11.102  10.457
 2097W        W 6148   8.227   5.065   0.475
 2098W        W 6149   2.409   5.330   0.026
 2099W        W 6150   3.162   7.966   1.313
 2100W        W 6151   3.661   7.578   9.209
 2101W        W 6152   1.309   9.434   2.402
 2102W        W 6153   7.614  10.370   8.999
 2103W        W 6154   0.078   0.525   9.824
 2104W        W 6155  10.383   2.432   0.307
 2105W        W 6156  11.044   5.985  11.646
 2106W        W 6157   1.969   3.169   9.168
 2107W        W 6158  10.014   6.171   9.893
 2108W        W 6159   6.161  10.826   2.875
 2109W        W 6160  11.435   2.757   2.175
 2110W        W 6161   7.150   7.023  11.538
 2111W        W 6162   0.050   3.354  11.376
 2112W        W 6163   5.730   0.832   2.210
 2113W        W 6164   0.197   3.175  11.859
 2114W        W 6165   3.891   1.038  11.387
 2115W        W 6166   1.893   0.242  10.873
 2116W        W 6167   6.020   4.392  10.308
 2117W        W 6168   9.350   7.590   8.803
 2118W        W 6169   3.309   5.119   9.644
 2119W        W 6170   3.400   3.252   3.144
 2120W        W 6171   3.586   9.321  10.254
 2121W        W 6172  10.175   0.292   2.891
 2122W        W 6173   3.994   8.915   9.429
 2123W        W 6174   5.532   8.293   4.045
 2124W        W 6175   2.169   8.399   2.109
 2125W        W 6176  10.416   6.527   2.423
 2126W        W 6177   8.113   9.975   0.261
 2127W        W 6178  11.327   3.911   1.023
 2128W        W 6179   0.841   7.425   1.744
 2129W        W 6180  10.524   6.783   1.329
 2130W        W 6181   1.938   9.685  11.311
 2131W        W 6182   3.291   2.231  10.286
 2132W        W 6183   8.548   2.664   3.628
 2133W        W 6184   4.614   2.404   9.595
 2134W        W 6185   3.166   9.415  11.924
 2135W        W 6186   2.113   5.606   0.336
 2136W        W 6187  10.035   1.245   2.588
 2137W        W 6188   1.045   3.651   1.476
 2138W        W 6189   9.602   9.794  10.822
 2139W        W 6190   0.784   6.122  10.390
 2140W        W 6191  10.025   0.806   9.137
 2141W        W 6192   9.136   1.231   3.244
 2142W        W 6193   9.253   8.350  11.471
 2143W        W 6194   1.890   1.939   1.279
 2144W        W 6195   4.366   4.395   0.177
 2145W        W 6196   8.649   1.750   0.433
 2146W        W 6197   9.758   6.716   1.844
 2147W        W 6198   1.671   9.415   1.623
 2148W        W 6199   4.495   8.373  10.056
 2149W        W 6200   3.772   9.679   8.887
 2150W        W 6201   3.642   0.267   2.255
 2151W        W 6202   0.452   8.856   9.303
 2152W        W 6203   2.452   3.217   3.194
 2153W        W 6204   5.045   2.995  10.038
 2154W        W 6205   5.236   8.617   3.078
 2155W        W 6206   1.441   1.741  11.786
 2156W        W 6207   9.993  10.505  11.823
 2157W        W 6208   4.549   4.188   3.390
 2158W        W 6209   4.122   2.553   0.771
 2159W        W 6210   8.285   3.691   1.862
 2160W        W 6211   0.536  10.350   1.831
 2161W        W 6212   7.868   4.097   9.339
 2162W        W 6213   0.812   3.637   9.046
 2163W        W 6214   7.055   3.367  11.057
 2164W        W 6215   1.615  10.539  10.382
 2165W        W 6216   6.618   4.544   0.847
 2166W        W 6217   5.260   1.173   9.545
 2167W        W 6218   0.123   7.091   1.250
 2168W        W 6219   2.145  11.296   2.341
 2169W        W 6220   7.057   0.387   9.434
 2170W        W 6221   2.752   5.646  11.773
 2171W        W 6222   5.566   9.442   2.329
 2172W        W 6223   0.834   4.822  10.927
 2173W        W 6224   1.749   8.065  10.065
 2174W        W 6225   2.500   9.036   1.550
 2175W        W 6226   9.635   8.459   1.644
 2176W        W 6227   8.438   2.342   3.203
 2177W        W 6228   7.027   9.733   0.718
 2178W        W 6229   9.587   7.460  11.641
 2179W        W 6230  11.257   6.077   1.485
 2180W        W 6231  10.590   6.122   2.055
 2181W        W 6232   7.715   0.673   9.284
 2182W        W 6233   1.523   9.506  10.983
 2183W        W 6234   9.998   1.724   2.160
 2184W        W 6235   3.216   6.057   1.267
 2185W        W 6236   3.788   9.272  11.266
 2186W        W 6237   5.095   5.572   0.254
 2187W        W 6238   8.646   3.745  10.391
 2188W        W 6239   0.913   9.767  11.412
 2189W        W 6240   9.901   8.887   2.388
 2190W        W 6241  11.057   3.154   0.967
 2191W        W 6242   9.798   7.496   9.044
 2192W        W 6243  10.824   7.539  10.909
 2193W        W 6244   5.467   4.071   9.533
 2194W        W 6245   7.107   7.459  11.272
 2195W        W 6246   1.765   0.510   1.725
 2196W        W 6247   9.249   0.763  10.732
 2197W        W 6248   3.729   3.282   1.003
 2198W        W 6249   8.380   6.322   0.784
 2199W        W 6250   1.790   9.032   9.796
 2200W        W 6251   3.132   0.247   0.013
 2201W        W 6252   1.358   7.100   0.073
 2202W        W 6253   2.854   7.922  10.941
 2203W        W 6254  10.462  11.398   3.039
 2204W        W 6255   0.797   9.890  10.035
 2205W        W 6256   6.452   9.976   1.831
 2206W        W 6257   6.559   0.860   3.372
 2207W        W 6258   7.666   6.343   1.179
 2208W        W 6259   7.909   5.578   0.202
 2209W        W 6260   9.398   3.755  10.820
 2210W        W 6261  10.422   6.991   2.689
 2211W        W 6262   2.268   8.457   0.189
 2212W        W 6263   5.108   7.026   1.865
 2213W        W 6264   8.466  11.326  11.210
 2214W        W 6265   5.576  10.257   3.423
 2215W        W 6266  10.455   2.752  11.886
 2216W        W 6267   6.642   0.926  11.049
 2217W        W 6268  11.032   1.312   2.937
 2218W        W 6269   7.598   3.053   3.220
 2219W        W 6270   8.902   4.232  11.643
 2220W        W 6271   1.595  10.250   0.160
 2221W        W 6272  10.650   3.549   1.809
 2222W        W 6273  11.124   9.944  10.894
 2223W        W 6274   7.531   6.248  11.523
 2224W        W 6275   4.587   9.308   0.740
 2225W        W 6276  10.293  11.115   9.296
 2226W        W 6277   5.426   3.735   3.058
 2227W        W 6278   5.619   4.848   0.821
 2228W        W 6279   0.488   0.771  10.038
 2229W        W 6280   1.466   8.679   0.558
 2230W        W 6281   7.393   5.765  11.520
 2231W        W 6282   0.450   3.556  11.645
 2232W        W 6283  10.252   3.662   3.351
 2233W        W 6284   1.369   3.535   8.971
 2234W        W 6285  10.650   7.491  10.316
 2235W        W 6286  10.813   9.070   9.593
 2236W        W 6287   3.533   4.654   0.141
 2237W        W 6288  10.575  10.560   2.318
 2238W        W 6289   6.619   6.327   9.541
 2239W        W 6290   6.216   0.637   0.470
 2240W        W 6291   6.494   7.509  10.521
 2241W        W 6292   5.160   3.537   9.149
 2242W        W 6293   4.639   2.465   1.414
 2243W        W 6294   4.044   4.768   0.295
 2244W        W 6295  10.932   6.903  11.479
 2245W        W 6296   8.091   5.921   1.561
 2246W        W 6297  10.463   4.097  11.412
 2247W        W 6298   6.739   9.814  10.084
 2248W        W 6299   8.412   3.508   9.975
 2249W        W 6300   3.311   9.318   1.313
 2250W        W 6301   8.249   1.186   9.968
 2251W        W 6302   9.757   6.044  10.339
 2252W        W 6303   2.686   1.196   3.238
 2253W        W 6304   4.245   7.175   0.224
 2254W        W 6305   3.729   1.819  10.981
 2255W        W 6306   1.785   3.717   2.606
 2256W        W 6307   7.935   9.794   0.874
 2257W        W 6308  11.280   7.277  10.966
 2258W        W 6309  10.507   7.844   2.683
 2259W        W 6310   9.404   8.501  10.432
 2260W        W 6311   6.676  10.305   9.991
 2261W        W 6312   7.100   5.159  11.804
 2262W        W 6313   2.421   9.508   2.101
 2263W        W 6314   4.340   8.584   2.903
 2264W        W 6315  10.412   7.984   0.064
 2265W        W 6316   5.557   7.127   2.186
 2266W        W 6317   2.905   7.261  10.290
 2267W        W 6318   3.818   4.568   9.063
 2268W        W 6319   0.352   1.018  10.516
 2269W        W 6320  11.201   3.688   9.981
 2270W        W 6321   6.215   3.140   2.750
 2271W        W 6322   1.178   8.754  11.939
 2272W        W 6323   3.567   8.468   2.232
 2273W        W 6324   0.075  10.101  11.107
 2274W        W 6325   0.359   6.398   9.267
 2275W        W 6326   3.731  10.502   2.420
 2276W        W 6327   1.945   4.313  11.916
 2277W        W 6328   7.925   1.417   2.621
 2278W        W 6329   2.207  10.789  10.104
 2279W        W 6330   1.234  10.933  11.854
 2280W        W 6331   7.559   4.507   0.971
 2281W        W 6332   4.641   0.663   8.979
 2282W        W 6333   7.720   8.476  10.860
 2283W        W 6334   3.401   1.749  10.431
 2284W        W 6335   8.541   8.175  10.435
 2285W        W 6336   3.398   0.314   8.365
 2286W        W 6337   6.215   7.000  11.404
 2287W        W 6338   0.450   8.144   1.713
 2288W        W 6339   4.461   0.385   3.312
 2289W        W 6340   6.319   6.969   2.667
 2290W        W 6341   2.451   6.617   0.179
 2291W        W 6342   2.947   5.116  10.014
 2292W        W 6343   5.937  10.921   0.958
 2293W        W 6344   8.984   9.092   0.036
 2294W        W 6345   0.577  11.471   2.288
 2295W        W 6346   8.695   0.353   3.286
 2296W        W 6347   4.591  10.404  10.848
 2297W        W 6348   4.256   7.627   2.708
 2298W        W 6349   1.670   8.991   8.740
 2299W        W 6350   5.494   0.186   0.895
 2300W        W 6351   5.317   6.876  11.282
 2301W        W 6352  10.287   9.880   2.644
 2302W        W 6353   2.578   8.533  11.496
 2303W        W 6354  10.901   4.341  11.355
 2304W        W 6355   1.409   2.841   0.877
 2305W        W 6356   3.113  11.380   9.684
 2306W        W 6357   7.537   7.538   9.383
 2307W        W 6358   6.631   1.968   0.044
 2308W        W 6359   8.383   5.531   1.680
 2309W        W 6360   2.173   9.999  10.370
 2310W        W 6361   2.791   7.046   0.161
 2311W        W 6362   2.346   7.609   2.760
 2312W        W 6363  11.404   7.702   2.221
 2313W        W 6364   2.739   6.030   9.554
 2314W        W 6365   6.136   0.918   2.510
 2315W        W 6366   0.051   2.700   1.311
 2316W        W 6367   7.325   0.352  11.967
 2317W        W 6368   4.541  10.445   9.842
 2318W        W 6369   9.483   5.563   1.594
 2319W        W 6370   5.607   9.941   9.997
 2320W        W 6371  10.874   0.233   8.911
 2321W        W 6372   6.200   8.452   2.630
 2322W        W 6373   6.955   6.014   1.707
 2323W        W 6374   8.446   9.465   9.032
 2324W        W 6375   6.735   8.927   8.314
 2325W        W 6376   8.365  11.201   1.171
 2326W        W 6377   6.501   3.649   0.707
 2327W        W 6378   5.583   6.922   3.096
 2328W        W 6379   8.034   6.598   2.249
 2329W        W 6380   9.445   0.048   2.404
 2330W        W 6381   1.963   4.607  11.456
 2331W        W 6382   6.480   2.779   1.146
 2332W        W 6383   1.938   7.611   1.446
 2333W        W 6384   4.499   8.243  11.149
 2334W        W 6385  10.614   9.205   1.004
 2335W        W 6386   6.432   4.338  11.421
 2336W        W 6387   3.220   1.821   0.426
 2337W        W 6388   9.026   6.718   3.795
 2338W        W 6389   1.744   8.654   1.362
 2339W        W 6390   7.476   4.674   0.498
 2340W        W 6391   3.006   0.457   1.994
 2341W        W 6392   0.724   6.760   3.507
 2342W        W 6393   8.006   5.094   0.953
 2343W        W 6394   3.686   3.061  10.113
 2344W        W 6395   9.706   6.207   0.680
 2345W        W 6396   7.773   3.768   8.964
 2346W        W 6397   2.976   9.723   9.597
 2347W        W 6398   8.150  10.882   0.228
 2348W        W 6399  10.417   5.778   1.283
 2349W        W 6400   6.107   0.415   0.924
 2350W        W 6401   0.047   2.296   0.981
 2351W        W 6402   5.696   0.895   0.014
 2352W        W 6403   9.795   4.257   0.005
 2353W        W 6404   0.226   6.773   2.942
 2354W        W 6405   0.179  10.974   9.499
 2355W        W 6406   5.462   3.226  10.775
 2356W        W 6407   2.150   6.825  11.271
 2357W        W 6408   4.078   0.454   2.939
 2358W        W 6409   2.770   5.563   2.287
 2359W        W 6410  10.894   6.487   2.254
 2360W        W 6411   8.379   2.411  10.591
 2361W        W 6412   6.287   5.216   0.539
 2362W        W 6413   8.970   7.945   1.278
 2363W        W 6414  10.851   7.250  11.960
 2364W        W 6415   5.116   2.243   8.587
 2365W        W 6416   5.873   6.732  11.988
 2366W        W 6417   3.627   5.587   1.181
 2367W        W 6418   2.920  10.065   2.486
 2368W        W 6419   7.656   9.954   1.336
 2369W        W 6420   8.129   5.792   2.076
 2370W        W 6421   7.627   2.903  10.429
 2371W        W 6422   9.100   4.098   1.338
 2372W        W 6423   6.192   4.115  10.975
 2373W        W 6424   7.789   3.460   2.937
 2374W        W 6425   6.057   9.622  11.330
 2375W        W 6426  10.382   1.159  10.832
 2376W        W 6427   7.761   4.403   3.366
 2377W        W 6428   6.251   6.477   1.252
 2378W        W 6429  10.968   2.812   3.047
 2379W        W 6430   7.247   6.597  11.889
 2380W        W 6431   7.966   2.106   3.423
 2381W        W 6432   0.377   3.191  10.255
 2382W        W 6433   0.078  11.323   2.344
 2383W        W 6434   1.621   1.793   8.536
 2384W        W 6435   4.094   3.952   0.123
 2385W        W 6436   8.505   4.681   1.866
 2386W        W 6437   9.726   2.070   3.141
 2387W        W 6438   0.893   5.543   0.934
 2388W        W 6439   7.941   3.254  10.644
 2389W        W 6440   3.244   7.866   2.722
 2390W        W 6441   1.794   5.523   1.954
 2391W        W 6442   2.885  10.529   2.288
 2392W        W 6443   5.450   3.742   9.983
 2393W        W 6444   0.081   6.983   0.408
 2394W        W 6445   1.613   7.536   8.649
 2395W        W 6446   6.677   2.406   3.192
 2396W        W 6447   8.503   1.289   0.213
 2397W        W 6448   1.875   2.779   1.705
 2398W        W 6449   3.613   1.791   0.846
 2399W        W 6450   4.570  11.321   1.915
 2400W        W 6451   0.943   5.514   1.945
 2401W        W 6452   5.303   7.090   2.658
 2402W        W 6453   7.097  10.843  11.699
 2403W        W 6454  10.741   8.511  11.410
 2404W        W 6455   9.816   7.087  11.079
 2405W        W 6456   4.668   1.711  11.084
 2406W        W 6457  10.004   6.562   0.901
 2407W        W 6458   2.937   5.091   9.088
 2408W        W 6459  10.777   4.627  10.484
 2409W        W 6460   0.308   6.285  10.258
 2410W        W 6461   3.273   6.913   0.307
 2411W        W 6462   6.185   1.448   0.647
 2412W        W 6463   1.832   7.150  11.782
 2413W        W 6464   0.761   9.380   1.693
 2414W        W 6465   4.046   1.789   9.756
 2415W        W 6466   7.398  10.809  10.924
 2416W        W 6467   0.663   0.436   0.364
 2417W        W 6468  11.151   6.913   2.173
 2418W        W 6469   5.252   2.632  11.291
 2419W        W 6470   6.544  10.498  11.757
 2420W        W 6471   9.913   6.916   8.476
 2421W        W 6472   3.348   3.627   0.939
 2422W        W 6473   7.904   1.834   9.596
 2423W        W 6474   1.297   9.933   2.367
 2424W        W 6475   9.877   7.108   9.966
 2425W        W 6476   5.383   1.197   0.313
 2426W        W 6477   6.972  10.838  11.183
 2427W        W 6478   5.468   4.330  10.390
 2428W        W 6479   1.822   7.062  10.775
 2429W        W 6480   2.224   8.071   3.454
 2430W        W 6481   5.379   2.283   0.309
 2431W        W 6482   9.003   0.074   0.506
 2432W        W 6483   8.992   5.555  11.076
 2433W        W 6484   1.848   1.195   2.895
 2434W        W 6485   2.802   5.945   0.956
 2435W        W 6486   4.336   3.913   1.861
 2436W        W 6487  10.538   9.316  10.928
 2437W        W 6488  10.110   1.415   3.072
 2438W        W 6489   8.853  10.796   9.972
 2439W        W 6490  10.942   9.960   9.539
 2440W        W 6491  10.079   4.784   1.853
 2441W        W 6492   0.587   0.435   2.787
 2442W        W 6493   8.180   9.738   2.752
 2443W        W 6494   2.223   6.680  10.050
 2444W        W 6495   0.921  10.859   1.446
 2445W        W 6496   2.694   1.458  10.003
 2446W        W 6497   9.974   9.194   8.646
 2447W        W 6498   6.506   7.843   1.441
 2448W        W 6499   0.270   4.749   3.321
 2449W        W 6500   8.360   9.180  10.612
 2450W        W 6501   3.220   3.143   0.891
 2451W        W 6502  10.941  11.483  10.029
 2452W        W 6503   8.582   5.520   9.563
 2453W        W 6504  10.571   8.994  10.015
 2454W        W 6505   1.285   1.491   0.914
 2455W        W 6506   8.511  10.420   2.340
 2456W        W 6507  11.173   5.618   3.211
 2457W        W 6508   6.003   6.703  10.218
 2458W        W 6509   7.324   3.223   1.083
 2459W        W 6510   9.539   4.643   9.267
 2460W        W 6511   3.590   5.060  11.397
 2461W        W 6512   2.940  10.553   0.474
 2462W        W 6513   6.191   1.053  11.273
 2463W        W 6514   5.690   8.790   3.267
 2464W        W 6515   2.741   0.465   0.701
 2465W        W 6516   8.486   7.654   1.417
 2466W        W 6517   3.167   4.265   1.711
 2467W        W 6518   0.099   0.380   2.995
 2468W        W 6519   8.308   5.503   4.036
 2469W        W 6520   1.689   9.501   2.735
 2470W        W 6521  10.698   1.258   0.136
 2471W        W 6522   6.589   5.038   0.913
 2472W        W 6523   2.215   9.490   9.677
 2473W        W 6524   1.318   6.151   2.995
 2474W        W 6525   1.950   4.606   2.891
 2475W        W 6526   8.964   5.901   9.843
 2476W        W 6527   2.205   6.657   2.642
 2477W        W 6528  11.033   8.724   3.177
 2478W        W 6529   8.499   4.171  11.316
 2479W        W 6530   3.161   4.994   3.002
 2480W        W 6531   3.625   9.837  10.270
 2481W        W 6532   7.783   0.278  11.784
 2482W        W 6533   6.194  10.817   9.473
 2483W        W 6534  10.554   8.198   2.321
 2484W        W 6535   5.193   0.002   2.233
 2485W        W 6536   0.532   5.029   0.242
 2486W        W 6537   3.336   4.223  11.857
 2487W        W 6538   3.886   1.706  10.287
 2488W        W 6539   3.672   0.244   0.855
 2489W        W 6540   3.234   9.763   0.843
 2490W        W 6541   7.460   8.912   9.689
 2491W        W 6542   5.254   8.764   1.158
 2492W        W 6543   2.307   0.010   2.788
 2493W        W 6544   9.035   3.122   2.290
 2494W        W 6545   1.403   0.750   1.402
 2495W        W 6546  10.869   0.019  11.330
 2496W        W 6547   8.027   1.779   2.980
 2497W        W 6548  11.267  11.229   9.278
 2498W        W 6549   9.911   5.243   0.379
 2499W        W 6550   5.523   5.366   0.035
 2500W        W 6551   3.143   9.224   9.624
 2501W        W 6552   3.640   4.945   2.246
 2502W        W 6553   1.793   7.667   9.140
 2503W        W 6554   9.325   8.459   9.889
 2504W        W 6555   8.977   6.381   0.117
 2505W        W 6556  10.613   8.959   1.912
 2506W        W 6557   3.266  11.435   0.488
 2507W        W 6558   1.107   9.376   1.328
 2508W        W 6559   5.295   0.497   3.550
 2509W        W 6560   7.142  10.841   2.635
 2510W        W 6561   2.088   7.227   3.303
 2511W        W 6562   1.713   5.044   3.089
 2512W        W 6563   5.690   5.673  10.062
 2513W        W 6564   0.088   3.588   2.042
 2514W        W 6565   0.893   7.178  11.854
 2515W        W 6566   9.681   7.990  10.934
 2516W        W 6567   1.327   3.636  11.198
 2517W        W 6568   8.285  10.922   2.329
 2518W        W 6569   1.774   4.720  10.565
 2519W        W 6570   9.826   5.672   1.983
 2520W        W 6571   3.463   8.042   9.335
 2521W        W 6572   2.610   4.133   3.108
 2522W        W 6573   6.269   1.159   9.995
 2523W        W 6574   5.507   3.752   2.565
 2524W        W 6575   3.072   8.645  11.420
 2525W        W 6576   9.508   5.743   1.118
 2526W        W 6577   8.343   4.176   9.528
 2527W        W 6578   2.252   0.267  11.974
 2528W        W 6579   6.506   4.027   3.664
 2529W        W 6580   4.713   9.729   0.987
 2530W        W 6581   2.760   6.225   1.411
 2531W        W 6582  10.994   6.559  10.700
 2532W        W 6583   1.703   4.085   0.353
 2533W        W 6584   2.918   0.308  10.718
 2534W        W 6585  10.447   9.451   1.870
 2535W        W 6586   2.748   7.570  11.313
 2536W        W 6587   0.407   3.109   1.380
 2537W        W 6588   4.696  10.382   3.166
 2538W        W 6589   0.045   9.633  10.888
 2539W        W 6590   5.638   6.206   1.816
 2540W        W 6591   6.231   8.081   9.493
 2541W        W 6592   2.637   5.111  11.273
 2542W        W 6593   6.064   2.015  11.374
 2543W        W 6594   1.356   4.180   0.002
 2544W        W 6595   6.583   7.605   1.904
 2545W        W 6596   3.747   9.427   3.842
 2546W        W 6597   0.851   7.229   9.046
 2547W        W 6598   7.551   2.285   2.189
 2548W        W 6599  11.328   6.990   3.153
 2549W        W 6600   7.118  10.515   9.864
 2550W        W 6601   8.919   9.207  10.721
 2551W        W 6602  10.336   2.777   0.838
 2552W        W 6603   8.736   6.837  11.951
 2553W        W 6604  11.083   8.993   1.017
 2554W        W 6605  10.504   0.783   9.883
 2555W        W 6606  10.412   3.682   0.718
 2556W        W 6607   1.851   5.849   9.868
 2557W        W 6608   9.791  10.609   2.816
 2558W        W 6609   9.770   0.927  11.931
 2559W        W 6610  10.866   3.498  10.823
 2560W        W 6611   8.805   5.652   9.121
 2561W        W 6612   5.736   3.649   3.440
 2562W        W 6613   3.751   9.873   8.392
 2563W        W 6614   7.483   9.200   0.231
 2564W        W 6615  10.296   5.304   3.909
 2565W        W 6616   0.182   5.656   3.271
 2566W        W 6617   1.689   5.092  11.505
 2567W        W 6618  10.401   8.108  11.466
 2568W        W 6619   6.812   7.194   3.579
 2569W        W 6620   9.662   5.060  10.378
 2570W        W 6621   0.252   1.923   0.337
 2571W        W 6622   7.064   9.487   0.279
 2572W        W 6623   3.027   4.684   9.636
 2573W        W 6624   6.443   4.731  10.028
 2574W        W 6625   4.755   0.493   9.448
 2575W        W 6626   4.894   4.385  10.342
 2576W        W 6627   7.082   1.813   3.173
 2577W        W 6628   8.933   6.316   9.533
 2578W        W 6629   9.839   9.588   2.595
 2579W        W 6630   4.613   8.357  10.557
 2580W        W 6631   4.844   5.705   1.557
 2581W        W 6632   2.213   2.074   9.602
 2582W        W 6633  11.239   5.295   8.945
 2583W        W 6634   6.474   2.715   2.168
 2584W        W 6635   9.355   8.521   0.757
 2585W        W 6636  10.307   3.113   3.695
 2586W        W 6637   2.908   2.453   9.979
 2587W        W 6638  10.581   3.690   2.954
 2588W        W 6639   3.601   7.566  10.248
 2589W        W 6640   1.750   8.429  10.473
 2590W        W 6641   4.993   3.515   0.931
 2591W        W 6642   0.980   2.626   1.718
 2592W        W 6643   3.801  10.919   9.514
 2593W        W 6644  11.396   2.140   3.442
 2594W        W 6645   8.921   5.098   9.799
 2595W        W 6646  11.374   5.492   3.740
 2596W        W 6647   7.349   6.436   0.762
 2597W        W 6648   1.200   0.910   3.266
 2598W        W 6649   3.136   0.200   2.419
 2599W        W 6650   2.731   6.896   9.917
 2600W        W 6651   8.048   3.817  11.041
 2601W        W 6652   9.702   5.225   2.553
 2602W        W 6653   7.229  10.029   8.959
 2603W        W 6654   2.277   5.768   9.604
 2604W        W 6655   3.611   1.753   9.381
 2605W        W 6656  10.968   4.803   9.370
 2606W        W 6657   8.511  11.206   3.695
 2607W        W 6658   3.898   9.324   1.330
 2608W        W 6659   8.038   9.198  10.185
 2609W        W 6660   0.952   5.337   9.102
 2610W        W 6661   0.366   7.686   1.982
 2611W        W 6662   1.645  11.358   2.461
 2612W        W 6663   9.321  10.368   1.356
 2613W        W 6664   0.841   4.833   9.083
 2614W        W 6665   3.275  10.296   0.851
 2615W        W 6666   7.201   2.256   9.162
 2616W        W 6667   9.514   1.493  10.325
 2617W        W 6668   3.788   5.073   1.232
 2618W        W 6669  10.345   7.912  10.301
 2619W        W 6670  10.994   9.330   2.066
 2620W        W 6671   1.802   0.427   0.672
 2621W        W 6672   2.855   9.927  11.960
 2622W        W 6673   0.532   3.297   2.690
 2623W        W 6674   3.901   5.605   1.603
 2624W        W 6675   9.220  10.615  11.702
 2625W        W 6676   2.182   1.744   0.867
 2626W        W 6677   2.231   6.172   2.466
 2627W        W 6678  10.955   7.507   3.478
 2628W        W 6679   7.258   5.666  10.736
 2629W        W 6680   2.888   9.037   2.881
 2630W        W 6681   1.341   5.478  11.134
 2631W        W 6682   5.621   0.722   8.910
 2632W        W 6683   0.397  10.998   2.129
 2633W        W 6684   9.397  10.613   9.438
 2634W        W 6685  10.327   2.284   1.666
 2635W        W 6686   3.134   1.651   0.923
 2636W        W 6687   4.515   3.653   9.911
 2637W        W 6688   7.920   7.116   1.665
 2638W        W 6689   2.060   4.246   8.859
 2639W        W 6690   0.399   4.773  10.264
 2640W        W 6691  10.742   8.631   0.902
 2641W        W 6692   5.402   2.815   1.918
 2642W        W 6693   3.138   7.473  11.004
 2643W        W 6694   5.580   4.101   1.234
 2644W        W 6695   4.572  11.329  10.592
 2645W        W 6696   0.979   9.754  11.947
 2646W        W 6697   3.936  10.622   1.529
 2647W        W 6698   5.074  10.319  11.003
 2648W        W 6699   4.176  10.627   3.415
 2649W        W 6700   4.728   4.291  10.816
 2650W        W 6701  10.811   1.179   2.072
 2651W        W 6702   2.481   7.590   3.280
 2652W        W 6703  10.323  10.343   9.169
 2653W        W 6704   4.698   8.848   1.408
 2654W        W 6705   4.731   3.916   1.516
 2655W        W 6706   7.726   3.984   2.790
 2656W        W 6707   6.997   3.807   0.756
 2657W        W 6708   4.242   3.286   2.293
 2658W        W 6709   5.752   7.142   0.691
 2659W        W 6710   9.500  10.567   0.500
 2660W        W 6711   9.529   1.009   0.811
 2661W        W 6712  10.330   8.362  10.589
 2662W        W 6713   0.435   6.928  11.236
 2663W        W 6714   7.967   1.716  10.087
 2664W        W 6715   8.414   5.061   8.656
 2665W        W 6716   9.850   7.635   9.913
 2666W        W 6717   1.533  10.416   3.222
 2667W        W 6718   0.851   1.010  10.314
 2668W        W 6719  10.271  11.310   3.549
 2669W        W 6720   6.211   9.938  10.061
 2670W        W 6721   9.104   8.907   1.056
 2671W        W 6722   9.818  10.351   1.239
 2672W        W 6723   6.126   2.954  11.222
 2673W        W 6724   8.899   1.022  11.006
 2674W        W 6725  11.215   0.225   2.236
 2675W        W 6726   2.806   5.080   2.674
 2676W        W 6727   8.501  11.252   2.671
 2677W        W 6728   3.213  10.989   1.792
 2678W        W 6729   1.429   3.296   9.455
 2679W        W 6730   9.514   3.673  11.651
 2680W        W 6731   9.819   2.151  10.503
 2681W        W 6732   7.328   8.953   2.165
 2682W        W 6733   7.595  11.206   8.989
 2683W        W 6734   5.797   7.776   3.255
 2684W        W 6735   7.981   0.482  10.470
 2685W        W 6736   6.959   0.472   2.259
 2686W        W 6737   1.004   9.235  11.875
 2687W        W 6738   4.754   0.977  11.459
 2688W        W 6739   7.436   0.046   2.665
 2689W        W 6740   6.954   6.701   0.893
 2690W        W 6741   6.085   7.435   2.697
 2691W        W 6742   6.615   2.667   0.658
 2692W        W 6743   6.686   3.068   2.985
 2693W        W 6744   7.172   8.939   2.645
 2694W        W 6745   6.572   8.349   1.400
 2695W        W 6746   4.770   2.929   8.688
 2696W        W 6747   8.500   6.070   0.204
 2697W        W 6748   3.828   9.877  10.745
 2698W        W 6749  10.427   1.589   1.375
 2699W        W 6750   2.373   6.057  10.487
 2700W        W 6751   0.258   4.488   8.935
 2701W        W 6752   8.438   7.127  11.653
 2702W        W 6753   1.430  10.075   1.886
 2703W        W 6754   5.655   1.464   9.404
 2704W        W 6755   3.816   0.828   9.486
 2705W        W 6756   9.780  11.252   1.368
 2706W        W 6757  10.542   2.684   9.616
 2707W        W 6758   8.120   0.520   0.860
 2708W        W 6759   8.674   3.178   3.533
 2709W        W 6760   9.922   2.366   1.342
 2710W        W 6761   7.625   9.825  10.284
 2711W        W 6762   3.325   0.693   2.314
 2712W        W 6763   6.227   1.830   1.778
 2713W        W 6764   3.324   7.809   3.220
 2714W        W 6765   5.041   9.138  10.267
 2715W        W 6766   2.436   5.159   9.050
 2716W        W 6767   7.770   5.545   3.979
 2717W        W 6768   4.085   5.733  10.417
 2718W        W 6769   2.233   4.650  10.812
 2719W        W 6770   0.631  10.244   9.455
 2720W        W 6771   8.173   6.801   9.055
 2721W        W 6772   6.106   9.613   9.245
 2722W        W 6773   5.872   3.897  10.267
 2723W        W 6774   8.988   8.187   2.775
 2724W        W 6775   0.193   6.042   2.668
 2725W        W 6776  11.138   8.833  10.506
 2726W        W 6777   5.388   0.363   1.837
 2727W        W 6778   0.423   7.849  10.495
 2728W        W 6779  10.896   9.612   3.630
 2729W        W 6780   0.426   3.906   1.814
 2730W        W 6781  11.366   9.844   9.839
 2731W        W 6782   0.720   5.516   1.466
 2732W        W 6783   0.523   8.427   9.584
 2733W        W 6784   0.630   1.915  10.667
 2734W        W 6785   7.196  10.063  10.092
 2735W        W 6786   4.543   5.810  10.154
 2736W        W 6787   7.848  10.893  10.163
 2737W        W 6788  10.069   6.571   3.296
 2738W        W 6789   7.398   0.832   1.113
 2739W        W 6790   5.584   5.154   9.720
 2740W        W 6791   9.916   3.977   2.569
 2741W        W 6792   5.599   8.456  10.469
 2742W        W 6793   8.480  10.188   1.878
 2743W        W 6794   5.209   4.948  11.131
 2744W        W 6795  10.928   8.186   9.056
 2745W        W 6796   7.478   3.478  11.911
 2746W        W 6797   7.142   5.152  10.849
 2747W        W 6798  11.338  10.265  11.534
 2748W        W 6799   0.981   1.137   1.801
 2749W        W 6800   2.215   6.460  10.916
 2750W        W 6801   5.214   4.126  10.797
 2751W        W 6802   8.886   2.322  10.506
 2752W        W 6803   2.896   7.048   2.251
 2753W        W 6804   7.800   3.087   0.090
 2754W        W 6805   8.101  11.358   0.415
 2755W        W 6806   7.533   1.196   9.483
 2756W        W 6807   4.320   8.276   2.039
 2757W        W 6808   2.647   6.724   1.388
 2758W        W 6809   6.497   3.249   1.474
 2759W        W 6810   2.411   4.709   8.820
 2760W        W 6811   7.085   9.914  11.999
 2761W        W 6812  11.135   5.713   0.723
 2762W        W 6813   5.934  10.079   1.863
 2763W        W 6814   9.597   7.961   2.359
 2764W        W 6815   5.242   4.758  10.207
 2765W        W 6816  10.016   1.329   9.028
 2766W        W 6817   5.592   0.389  11.999
 2767W        W 6818   4.822  10.380   0.326
 2768W        W 6819   7.605   8.157   1.099
 2769W        W 6820   2.234   6.122   0.341
 2770W        W 6821   2.811   9.056   1.951
 2771W        W 6822   2.236   0.420   1.515
 2772W        W 6823   2.200   4.686   2.368
 2773W        W 6824   4.028   2.044  11.901
 2774W        W 6825  10.544   1.216   2.722
 2775W        W 6826  10.224   5.075   9.090
 2776W        W 6827   7.741   4.504   2.860
 2777W        W 6828   2.132   5.061  11.228
 2778W        W 6829   3.954  10.685   0.349
 2779W        W 6830   8.654   7.869   3.201
 2780W        W 6831   2.903   9.617   1.221
 2781W        W 6832   5.518   1.249   2.454
 2782W        W 6833   7.685   4.670   8.478
 2783W        W 6834   2.550   4.217   9.434
 2784W        W 6835   7.007   7.577   0.805
 2785W        W 6836  10.273   4.556   0.962
 2786W        W 6837  10.388   8.680   2.300
 2787W        W 6838   4.619   2.764  11.883
 2788W        W 6839   6.501   2.200  10.222
 2789W        W 6840   8.312   3.168  11.962
 2790W        W 6841   8.212  10.520   8.908
 2791W        W 6842   5.786   9.824  10.917
 2792W        W 6843   8.513   9.160   0.255
 2793W        W 6844   5.323   2.267   1.803
 2794W        W 6845   8.512   4.629   1.364
 2795W        W 6846   5.528   8.928   2.343
 2796W        W 6847   5.891   1.201  10.787
 2797W        W 6848   9.762   4.501  11.212
 2798W        W 6849   6.524   0.598   2.764
 2799W        W 6850   2.918   3.257   1.300
 2800W        W 6851   7.229   9.390   3.399
 2801W        W 6852   3.218   6.279  10.262
 2802W        W 6853   5.061   6.493   1.790
 2803W        W 6854   4.471   7.965   9.351
 2804W        W 6855   5.697   7.483   9.445
 2805W        W 6856   9.455   3.365   9.755
 2806W        W 6857   9.525   1.200  11.305
 2807W        W 6858   3.719   4.609   2.610
 2808W        W 6859   5.488   3.693  10.530
 2809W        W 6860  10.108   7.629  11.777
 2810W        W 6861   0.784   6.925   1.749
 2811W        W 6862   0.419   7.932   0.740
 2812W        W 6863   5.674   0.765  11.497
 2813W        W 6864  11.056   8.276  10.195
 2814W        W 6865   9.897   0.230   2.245
 2815W        W 6866   9.812  11.260   9.070
 2816W        W 6867   8.616   9.293   1.910
 2817W        W 6868   7.172   1.883   8.804
 2818W        W 6869   4.683   9.082   8.944
 2819W        W 6870  10.094   4.680   9.405
 2820W        W 6871   1.358   4.180   1.465
 2821W        W 6872   7.177   0.383   3.414
 2822W        W 6873   2.447   0.996   2.228
 2823W        W 6874   1.337  11.419   3.522
 2824W        W 6875   2.972   7.062   8.118
 2825W        W 6876   8.495   0.208   9.027
 2826W        W 6877   0.654   5.768   9.074
 2827W        W 6878  10.005   9.815   8.796
 2828W        W 6879   6.633   1.249   2.433
 2829W        W 6880   4.569   1.796   9.046
 2830W        W 6881   0.269  11.281  11.631
 2831W        W 6882   9.019   6.847   0.387
 2832W        W 6883   6.251   8.986   0.778
 2833W        W 6884  10.654   7.022   2.203
 2834W        W 6885   8.965  10.010   1.956
 2835W        W 6886   3.689   0.627  11.149
 2836W        W 6887   7.873   1.649  11.938
 2837W        W 6888   3.123   1.129   2.514
 2838W        W 6889  11.356   1.262   8.805
 2839W        W 6890  10.227   6.154   2.714
 2840W        W 6891   0.455   3.552  11.134
 2841W        W 6892   8.588  10.136   3.920
 2842W        W 6893   5.207  10.597   1.866
 2843W        W 6894   6.615  10.943  11.523
 2844W        W 6895  10.924   6.844   2.655
 2845W        W 6896   7.494  10.501  11.817
 2846W        W 6897   5.624   6.121   9.370
 2847W        W 6898   1.787   6.010   2.739
 2848W        W 6899   2.378   7.040   2.309
 2849W        W 6900   0.265   9.922  11.567
 2850W        W 6901   2.253   3.876   2.792
 2851W        W 6902  11.439   8.457   3.308
 2852W        W 6903   7.135   6.424   9.639
 2853W        W 6904  10.459  10.564  11.536
 2854W        W 6905   1.065   7.439   2.225
 2855W        W 6906   3.975   3.709   2.173
 2856W        W 6907   8.962   6.354  10.472
 2857W        W 6908   6.564   8.526  11.663
 2858W        W 6909  10.461   1.919   2.367
 2859W        W 6910   1.298   3.343  10.337
 2860W        W 6911   6.064   7.138   2.239
 2861W        W 6912   4.527   3.936   9.493
 2862W        W 6913   0.865  10.709   1.993
 2863W        W 6914   0.404   8.852   0.460
 2864W        W 6915   3.771   2.168  10.087
 2865W        W 6916   7.097   0.405   9.962
 2866W        W 6917  11.066   3.810   1.945
 2867W        W 6918   7.123   0.348  11.002
 2868W        W 6919   7.537   6.672   3.834
 2869W        W 6920   9.624   7.806   0.039
 2870W        W 6921   5.006   8.186  11.185
 2871W        W 6922   4.901   7.993   2.544
 2872W        W 6923   1.574   5.971   8.562
 2873W        W 6924   6.118   9.646   2.062
 2874W        W 6925   1.753   4.165   1.808
 2875W        W 6926   1.070   7.364   8.583
 2876W        W 6927   5.341  10.298   0.413
 2877W        W 6928   0.505   9.943   0.026
 2878W        W 6929   8.347   8.670  11.948
 2879W        W 6930   8.667   5.620   3.088
 2880W        W 6931   5.583   4.716  11.443
 2881W        W 6932   0.761   1.879   0.450
 2882W        W 6933  10.104   4.296   0.421
 2883W        W 6934   6.636   1.916   0.551
 2884W        W 6935   5.323   7.403  11.394
 2885W        W 6936   5.458   9.126   9.475
 2886W        W 6937   5.640   0.829   3.240
 2887W        W 6938  10.359   4.230   2.538
 2888W        W 6939   2.068   8.790  10.838
 2889W        W 6940   6.057   7.101   1.327
 2890W        W 6941   4.794   3.833   3.682
 2891W        W 6942   5.922   2.337   2.677
 2892W        W 6943   9.343   3.774   9.056
 2893W        W 6944   1.715   4.665   1.983
 2894W        W 6945   4.763   2.253   9.126
 2895W        W 6946   2.194   6.632   1.148
 2896W        W 6947   0.037   7.528  10.580
 2897W        W 6948   3.945   9.325   2.878
 2898W        W 6949   2.006   4.162   2.397
 2899W        W 6950   5.141   2.306   4.035
 2900W        W 6951  10.061   2.203  10.041
 2901W        W 6952   3.339  10.259   2.210
 2902W        W 6953   3.724  10.818   3.141
 2903W        W 6954   7.050   9.136  10.559
 2904W        W 6955   7.992   2.804   2.287
 2905W        W 6956   7.071   3.806  10.807
 2906W        W 6957  10.852   2.633   0.235
 2907W        W 6958   7.175   9.577  10.337
 2908W        W 6959   2.275   9.966   2.297
 2909W        W 6960   4.097   6.487   2.000
 2910W        W 6961   7.589   4.721   1.869
 2911W        W 6962   0.391   1.379   9.023
 2912W        W 6963   0.893   3.755   2.008
 2913W        W 6964  11.333   6.258   2.354
 2914W        W 6965   6.787   8.919   2.245
 2915W        W 6966   2.097   0.726  10.849
 2916W        W 6967   2.914   4.673   8.695
 2917W        W 6968  11.010  10.443   9.793
 2918W        W 6969   7.575   3.614   9.943
 2919W        W 6970   0.721   3.099  11.880
 2920W        W 6971   7.626  10.319   3.219
 2921W        W 6972   4.192   3.393   1.776
 2922W        W 6973  10.830   9.494   9.940
 2923W        W 6974   9.561   8.364   3.159
 2924W        W 6975  11.082   4.539   8.863
 2925W        W 6976   8.335   9.496   1.009
 2926W        W 6977   0.959   0.149   9.713
 2927W        W 6978   9.054   4.758   0.280
 2928W        W 6979   6.713   3.796   1.435
 2929W        W 6980   5.168   5.990   1.895
 2930W        W 6981   0.746   3.037   3.055
 2931W        W 6982  10.546   5.814   8.504
 2932W        W 6983   1.000   7.947   0.095
 2933W        W 6984   7.560   3.649  10.958
 2934W        W 6985  11.247   0.261  10.557
 2935W        W 6986   1.925   8.386   2.649
 2936W        W 6987   1.814   3.696   1.579
 2937W        W 6988   8.424   4.775   0.018
 2938W        W 6989   4.758  11.202  11.147
 2939W        W 6990   0.906   3.114   1.530
 2940W        W 6991   7.323  10.012   2.777
 2941W        W 6992   6.920   4.144  11.512
 2942W        W 6993   3.313   2.714   9.618
 2943W        W 6994   1.123   1.929  10.847
 2944W        W 6995   0.656   9.322   9.499
 2945W        W 6996   1.795   8.315   0.347
 2946W        W 6997   7.393   4.848   1.410
 2947W        W 6998   5.415   7.034  11.755
 2948W        W 6999   4.678   3.460   1.324
 2949W        W 7000   0.801   5.085  10.434
 2950W        W 7001   9.941   3.219   3.335
 2951W        W 7002   1.745   8.142   9.383
 2952W        W 7003   3.028   4.776   3.433
 2953W        W 7004   9.662   1.997   0.691
 2954W        W 7005   0.773  10.105   0.882
 2955W        W 7006   2.755   8.364   9.627
 2956W        W 7007   3.752   7.971   9.952
 2957W        W 7008   8.722   3.027   2.714
 2958W        W 7009  10.594   8.206   9.961
 2959W        W 7010   0.464   1.765   3.260
 2960W        W 7011   1.722   9.976   9.786
 2961W        W 7012   2.754   4.771   3.891
 2962W        W 7013   9.958   9.890   9.872
 2963W        W 7014   0.017   0.192   1.352
 2964W        W 7015   6.637   4.536   1.947
 2965W        W 7016   1.708   0.008  11.563
 2966W        W 7017   5.023   4.320   9.469
 2967W        W 7018   5.130   9.002   3.533
 2968W        W 7019   8.198   3.064   3.668
 2969W        W 7020   7.682   6.581   8.962
 2970W        W 7021   7.167   7.580   2.762
 2971W        W 7022  10.266  10.402   2.725
 2972W        W 7023   7.176   4.229  11.048
 2973W        W 7024   9.758   3.687   3.500
 2974W        W 7025   2.769   0.741   1.651
 2975W        W 7026   8.627   9.044   0.795
 2976W        W 7027   5.018   3.147   1.824
 2977W        W 7028   3.108   0.734   1.267
 2978W        W 7029   4.829  10.689  11.224
 2979W        W 7030   2.271   5.197   4.210
 2980W        W 7031   7.125   0.501   0.797
 2981W        W 7032   2.802   6.108  11.495
 2982W        W 7033   2.122   0.754   9.969
 2983W        W 7034   1.820   9.999   8.883
 2984W        W 7035  10.711   8.622  10.359
 2985W        W 7036   0.474   5.045   8.362
 2986W        W 7037   4.161   2.666   9.523
 2987W        W 7038   7.165   6.351   3.976
 2988W        W 7039   7.489   9.071   1.637
 2989W        W 7040   3.215   6.578  10.741
 2990W        W 7041   0.995   4.423  11.203
 2991W        W 7042   2.256   3.752  10.245
 2992W        W 7043  11.321  10.953   3.333
 2993W        W 7044   9.872  10.920   3.351
 2994W        W 7045   5.957   0.936  10.326
 2995W        W 7046   1.261   7.658   0.862
 2996W        W 7047   6.891   7.032   1.568
 2997W        W 7048  10.781   6.062  10.322
 2998W        W 7049   8.676   0.453   9.465
 2999W        W 7050   4.729   4.783  10.996
 3000W        W 7051   9.677   3.624   1.674
 3001W        W 7052   9.400   6.443   2.092
 3002W        W 7053   5.776   9.930   2.373
 3003W        W 7054   8.482   7.826  10.978
 3004W        W 7055   4.678   3.642   0.535
 3005W        W 7056   3.633   3.497  10.409
 3006W        W 7057   9.137   2.745  10.329
 3007W        W 7058   4.262   7.770   0.404
 3008W        W 7059   0.668   1.580   9.477
 3009W        W 7060  10.474   0.398   0.530
 3010W        W 7061   0.280   5.864   9.434
 3011W        W 7062   1.104   8.244   8.896
 3012W        W 7063   9.090   1.723  11.453
 3013W        W 7064   8.920   9.098   1.512
 3014W        W 7065   4.603   0.242   0.885
 3015W        W 7066   1.350   3.693   0.199
 3016W        W 7067   9.281   5.633   3.269
 3017W        W 7068   8.413   9.010   9.871
 3018W        W 7069   4.009   7.448   0.733
 3019W        W 7070   9.036   2.232   1.161
 3020W        W 7071   8.393   4.361   2.239
 3021W        W 7072   6.033  10.488   0.665
 3022W        W 7073  11.271   1.821   1.669
 3023W        W 7074   7.112   4.829   2.113
 3024W        W 7075   2.103   4.206   3.160
 3025W        W 7076   3.279  10.834  10.368
 3026W        W 7077   0.856   5.346  11.362
 3027W        W 7078   5.516   2.790   9.999
 3028W        W 7079   1.788   1.709   3.048
 3029W        W 7080   4.471   7.567   0.909
 3030W        W 7081   1.770   6.032   9.388
 3031W        W 7082   4.202   7.591  11.860
 3032W        W 7083  11.148   9.187   3.390
 3033W        W 7084   4.015   6.661  10.375
 3034W        W 7085   6.177   7.921   2.643
 3035W        W 7086   5.471   1.874   8.534
 3036W        W 7087   0.554   3.412   1.798
 3037W        W 7088   3.591   1.242   3.303
 3038W        W 7089  11.029   1.061   2.499
 3039W        W 7090   4.645   8.064   0.194
 3040W        W 7091   7.445   4.018   9.674
 3041W        W 7092   7.063   6.737   3.609
 3042W        W 7093   8.702   6.459   3.167
 3043W        W 7094   5.977   5.959   0.375
 3044W        W 7095  10.455  10.785   1.869
 3045W        W 7096   4.793   1.983  11.518
 3046W        W 7097   1.461  10.352   9.086
 3047W        W 7098   8.047   3.276   1.604
 3048W        W 7099   6.321  10.714   2.328
 3049W        W 7100   5.501   8.371   9.093
 3050W        W 7101   3.349   9.610   4.145
 3051W        W 7102   2.091   5.555   3.901
 3052W        W 7103   3.990  11.032   1.204
 3053W        W 7104   7.016   3.233   0.070
 3054W        W 7105   7.872   0.770  10.063
 3055W        W 7106  10.164  10.492   8.615
 3056W        W 7107  11.481   4.122   2.018
 3057W        W 7108  10.071   3.476   2.893
 3058W        W 7109   6.742   7.333  11.923
 3059W        W 7110   2.638   0.894   9.022
 3060W        W 7111   2.598   9.685   2.560
 3061W        W 7112   0.856   6.813   2.737
 3062W        W 7113   1.408   1.234  11.936
 3063W        W 7114  11.369   1.320  11.545
 3064W        W 7115   2.034   4.853   9.848
 3065W        W 7116   3.249   5.075   8.686
 3066W        W 7117   5.053   3.911  10.351
 3067W        W 7118   1.251   1.238   1.371
 3068W        W 7119   9.978   2.253   9.039
 3069W        W 7120   7.469   4.972   9.664
 3070W        W 7121   8.972   9.156   3.023
 3071W        W 7122   2.223   9.981   9.851
 3072W        W 7123   4.602  11.098   2.378
 3073W        W 7124   6.683   7.804   0.092
 3074W        W 7125   1.713   8.688  11.386
 3075W        W 7126   8.550  10.731   1.933
 3076W        W 7127   9.973   1.469   1.633
 3077W        W 7128   7.863   3.674   2.408
 3078W        W 7129  10.812   3.112   0.048
 3079W        W 7130   1.591   7.409   3.445
 3080W        W 7131   7.562   6.571   2.451
 3081W        W 7132   9.594   6.592   3.087
 3082W        W 7133   8.433   0.644   1.707
 3083W        W 7134   8.339   0.136  10.378
 3084W        W 7135  11.411   8.093   8.800
 3085W        W 7136   3.058   7.017   2.870
 3086W        W 7137   9.882   0.938   2.974
 3087W        W 7138   2.117   1.290  10.005
 3088W        W 7139   1.701   4.575   2.467
 3089W        W 7140   3.739  10.057   9.818
 3090W        W 7141   0.753  10.560   0.578
 3091W        W 7142   5.204  11.061   3.455
 3092W        W 7143   0.056   8.540   1.774
 3093W        W 7144   7.992   1.949   1.238
 3094W        W 7145   1.192   3.214   0.077
 3095W        W 7146   7.558  11.489   0.659
 3096W        W 7147  11.203   2.250   1.365
 3097W        W 7148   6.782   8.638  10.715
 3098W        W 7149   3.804   3.725   0.731
 3099W        W 7150   8.712   1.390   9.265
 3100W        W 7151  10.949   5.070   3.229
 3101W        W 7152   9.376   8.412  10.968
 3102W        W 7153   4.722   1.660   2.882
 3103W        W 7154   6.288   7.254   3.573
 3104W        W 7155   5.992   6.223   2.214
 3105W        W 7156   0.305   8.795   8.787
 3106W        W 7157   2.952  10.926  10.776
 3107W        W 7158   6.855   2.344   0.334
 3108W        W 7159  11.240   0.768   3.661
 3109W        W 7160   4.067   7.065  11.695
 3110W        W 7161   9.762   1.440  11.982
 3111W        W 7162   1.481   7.790   3.091
 3112W        W 7163   3.866   2.739  10.854
 3113W        W 7164   3.316   4.724   9.065
 3114W        W 7165   2.288  10.563   3.013
 3115W        W 7166   5.531   3.574   3.902
 3116W        W 7167   9.488   3.341   9.251
 3117W        W 7168   6.197  10.704   8.965
 3118W        W 7169   1.325   3.633   2.323
 3119W        W 7170   1.015   3.154   9.147
 3120W        W 7171   6.273   8.777  10.838
 3121W        W 7172   5.488   5.562  11.407
 3122W        W 7173   1.814   2.810   2.255
 3123W        W 7174   1.010   8.466   0.727
 3124W        W 7175   3.800   9.474   2.421
 3125W        W 7176   5.204   2.561  10.308
 3126W        W 7177  10.626   4.423   0.258
 3127W        W 7178   4.001   4.924   8.204
 3128W        W 7179   2.781   4.618   9.189
 3129W        W 7180   1.645   5.150  10.314
 3130W        W 7181   8.894   9.620  11.912
 3131W        W 7182   9.986   0.763  10.568
 3132W        W 7183   2.909  10.882   2.631
 3133W        W 7184   8.897  10.987  10.873
 3134W        W 7185   7.101   8.447   2.853
 3135W        W 7186   4.348   8.048   1.395
 3136W        W 7187   4.199   9.777   2.285
 3137W        W 7188   0.963   9.344   9.932
 3138W        W 7189   1.213   8.777   8.837
 3139W        W 7190   9.850   3.625   9.941
 3140W        W 7191   4.202   3.607   9.230
 3141W        W 7192   9.360   9.999  10.396
 3142W        W 7193   8.871   9.421   8.717
 3143W        W 7194   7.663   8.129   2.522
 3144W        W 7195   1.349   8.367   1.484
 3145W        W 7196   8.647   2.625  11.034
 3146W        W 7197  11.336   9.352   1.289
 3147W        W 7198  10.711   6.099   0.969
 3148W        W 7199   1.904   7.906  10.535
 3149W        W 7200   1.962   0.843   2.096
 3150W        W 7201  10.390   9.378   2.745
 3151W        W 7202   2.771  11.294   9.296
 3152W        W 7203   4.180   0.938  11.832
 3153W        W 7204  10.243   8.598   0.991
 3154W        W 7205   6.639   7.671   2.776
 3155W        W 7206   3.579   0.491   1.319
 3156W        W 7207  10.745   4.824  11.235
 3157W        W 7208   3.185   6.405   0.299
 3158W        W 7209   6.712  11.423  11.345
 3159W        W 7210   1.142   1.605   8.417
 3160W        W 7211   3.803   8.801  11.451
 3161W        W 7212  10.459   4.714   1.417
 3162W        W 7213   5.396   6.520  11.815
 3163W        W 7214   5.172   0.758  11.261
 3164W        W 7215   1.303  11.037   0.380
 3165W        W 7216   3.201   3.877   1.360
 3166W        W 7217  11.292   5.804   8.718
 3167W        W 7218  10.421   3.037   9.058
 3168W        W 7219   1.425   0.102   3.027
 3169W        W 7220   6.288   7.665   3.149
 3170W        W 7221   7.858   4.151   0.706
 3171W        W 7222   6.726   3.657   3.267
 3172W        W 7223   3.856   6.581  11.795
 3173W        W 7224  10.678   5.661  11.438
 3174W        W 7225   4.759   9.901   9.708
 3175W        W 7226   4.055   0.924   1.208
 3176W        W 7227   9.604   4.285   3.300
 3177W        W 7228   8.508   8.690  10.554
 3178W        W 7229   0.070   8.988  10.261
 3179W        W 7230   0.748   6.370   0.867
 3180W        W 7231   4.264   9.029   3.170
 3181W        W 7232   6.276   0.131   0.515
 3182W        W 7233   5.851   3.333   3.058
 3183W        W 7234   2.254   5.300   2.986
 3184W        W 7235   6.450   5.873  10.542
 3185W        W 7236  10.378   7.199   9.991
 3186W        W 7237   9.816   5.758   0.502
 3187W        W 7238   3.527   8.467   0.640
 3188W        W 7239   8.368  10.026   0.702
 3189W        W 7240   9.186   6.488   3.367
 3190W        W 7241   9.232   8.072   8.572
 3191W        W 7242   1.980   2.720   0.209
 3192W        W 7243   1.661  10.017  10.313
 3193W        W 7244   4.486  10.941   1.264
 3194W        W 7245   6.227   5.730  10.087
 3195W        W 7246  10.546   3.686  11.802
 3196W        W 7247  10.015   1.802   8.762
 3197W        W 7248   9.967   6.151   3.577
 3198W        W 7249   6.965   1.315  10.973
 3199W        W 7250   0.314   2.904   3.307
 3200W        W 7251   8.491   5.837   0.677
 3201W        W 7252   8.864   5.461   1.451
 3202W        W 7253   3.312   2.717  10.172
 3203W        W 7254   4.652   6.722   9.128
 3204W        W 7255   8.480   7.449   9.785
 3205W        W 7256   3.694  10.185   8.964
 3206W        W 7257  10.701   9.478   9.321
 3207W        W 7258  11.327   8.367   0.253
 3208W        W 7259  10.899   7.016  10.323
 3209W        W 7260   3.582   1.370  11.175
 3210W        W 7261   2.098   4.433   3.616
 3211W        W 7262   3.142  10.361  11.140
 3212W        W 7263  11.242   9.382   0.207
 3213W        W 7264   8.073   7.962   0.361
 3214W        W 7265   5.787   0.563  10.645
 3215W        W 7266   0.443   8.169   1.185
 3216W        W 7267   1.287   4.348   1.936
 3217W        W 7268   2.053   5.136   8.116
 3218W        W 7269   4.023   7.943   2.339
 3219W        W 7270   7.008  10.821   1.714
 3220W        W 7271   9.432   9.858   1.755
 3221W        W 7272   3.384   4.275   2.445
 3222W        W 7273   1.621   0.553   9.104
 3223W        W 7274   0.329   3.480   8.860
 3224W        W 7275   8.075   7.668   9.995
 3225W        W 7276   9.174   1.456  11.026
 3226W        W 7277   0.805   1.274   1.044
 3227W        W 7278   3.769  11.009   2.583
 3228W        W 7279   7.368   2.435  11.337
 3229W        W 7280   4.106   4.697   2.305
 3230W        W 7281   2.880  10.275   3.397
 3231W        W 7282  10.934   9.621   1.127
 3232W        W 7283   3.087  10.446  10.642
 3233W        W 7284   5.821   1.695   2.455
 3234W        W 7285   2.838  10.094   1.034
 3235W        W 7286   9.755   4.788   3.223
 3236W        W 7287  10.839  11.310   2.680
 3237W        W 7288   6.716   1.261  11.446
 3238W        W 7289  11.073  10.383   2.332
 3239W        W 7290   0.988  11.279  10.464
 3240W        W 7291   9.287  11.312   1.395
 3241W        W 7292   0.926   6.987  11.377
 3242W        W 7293   9.346   1.926  10.536
 3243W        W 7294   5.449   1.406  10.962
 3244W        W 7295   1.742   2.075   2.708
 3245W        W 7296   7.827  10.106   2.794
 3246W        W 7297   3.239   7.298   9.066
 3247W        W 7298   4.847   8.224   2.094
 3248W        W 7299   2.832  10.596   0.970
 3249W        W 7300   8.654   2.116   1.818
 3250W        W 7301   5.699   5.116  11.080
 3251W        W 7302   0.641   3.298   0.973
 3252W        W 7303   6.576   1.254   1.931
 3253W        W 7304   0.830   4.011   9.441
 3254W        W 7305   6.994   9.992  10.560
 3255W        W 7306  10.883   8.578   2.219
 3256W        W 7307   3.608   7.541  10.771
 3257W        W 7308   0.276   2.636   0.539
 3258W        W 7309   9.000   1.851   1.494
 3259W        W 7310   0.465   9.482   9.942
 3260W        W 7311   0.702   5.791  11.582
 3261W        W 7312   1.456   1.961   0.266
 3262W        W 7313   9.495   2.853  11.984
 3263W        W 7314   4.892   9.562   1.439
 3264W        W 7315   2.497   7.563  10.223
 3265W        W 7316   6.547   6.707  10.775
 3266W        W 7317   0.390   4.787   9.345
 3267W        W 7318   8.917  10.013  10.648
 3268W        W 7319   2.891   7.208   1.413
 3269W        W 7320   7.072   3.584   1.773
 3270W        W 7321   0.992   0.959  11.785
 3271W        W 7322   9.949   1.253  11.571
 3272W        W 7323   1.687   5.699  10.832
 3273W        W 7324   5.424  11.309  10.345
 3274W        W 7325  10.537   4.609   9.111
 3275W        W 7326   0.315   7.153  10.802
 3276W        W 7327   5.435  10.408   9.773
 3277W        W 7328   1.407   0.807  11.528
 3278W        W 7329   9.814   9.335  10.128
 3279W        W 7330   2.690   2.649   9.146
 3280W        W 7331   4.972   5.361  11.320
 3281W        W 7332   1.714   4.778  11.911
 3282W        W 7333   8.890   2.917   0.793
 3283W        W 7334   4.518   7.849   2.224
 3284W        W 7335   0.003   0.733   1.400
 3285W        W 7336   6.702   7.973  10.475
 3286W        W 7337  11.286   1.565   9.783
 3287W        W 7338   4.855   9.363   9.856
 3288W        W 7339   1.818   8.923   2.716
 3289W        W 7340   8.217   8.504   1.388
 3290W        W 7341   4.145   4.708   1.299
 3291W        W 7342   0.854   9.792   9.536
 3292W        W 7343   0.936   6.423   2.408
 3293W        W 7344  10.364   8.350   2.782
 3294W        W 7345  10.926   5.698   1.204
 3295W        W 7346  10.087   5.234   2.188
 3296W        W 7347   5.779   1.210   2.914
 3297W        W 7348   9.594   8.872  11.823
 3298W        W 7349   1.210   6.708   9.222
 3299W        W 7350   5.199   5.096   0.988
 3300W        W 7351   1.237   2.469   3.348
 3301W        W 7352   5.297   2.538   2.802
 3302W        W 7353   2.325   4.773   0.661
 3303W        W 7354   1.974  10.876  10.780
 3304W        W 7355   2.198  11.264   0.754
 3305W        W 7356   0.291   9.012   9.760
 3306W        W 7357   1.209  11.279  10.009
 3307W        W 7358  11.300   6.318   8.960
 3308W        W 7359   3.644   1.774   3.178
 3309W        W 7360   3.228   8.491   9.404
 3310W        W 7361   0.056   2.926   9.557
 3311W        W 7362   6.413   3.333   0.314
 3312W        W 7363   5.046  10.810   2.465
 3313W        W 7364   2.762   0.240   9.551
 3314W        W 7365   0.817   5.812   0.079
 3315W        W 7366   2.015   7.991  11.041
 3316W        W 7367   8.831   0.797   9.818
 3317W        W 7368   2.327   1.439   2.958
 3318W        W 7369   9.494   7.128   0.347
 3319W        W 7370   7.375   8.932   8.388
 3320W        W 7371   0.070  10.548   1.898
 3321W        W 7372   1.787  10.311  10.789
 3322W        W 7373   0.787   7.309  10.983
 3323W        W 7374   8.142   4.255   2.657
 3324W        W 7375   0.412   2.696   2.356
 3325W        W 7376   8.259   6.687  11.882
 3326W        W 7377   6.928   2.692   1.770
 3327W        W 7378   5.719   5.614  10.941
 3328W        W 7379  11.275   0.683   8.857
 3329W        W 7380   4.758   7.975   9.785
 3330W        W 7381   4.378  10.854  11.101
 3331W        W 7382   3.224   0.937   9.594
 3332W        W 7383   2.443   2.821   0.054
 3333W        W 7384  10.401   3.171   9.555
 3334W        W 7385   3.402   4.659  11.630
 3335W        W 7386   3.923   8.858  10.961
 3336W        W 7387   2.658   7.226   2.669
 3337W        W 7388   3.549   5.520   8.727
 3338W        W 7389   9.467   8.023   9.074
 3339W        W 7390   8.033   0.840  10.860
 3340W        W 7391   8.241  10.493  10.336
 3341W        W 7392   5.188  11.447   8.925
 3342W        W 7393   9.108  10.898  10.400
 3343W        W 7394  10.810   7.969  11.198
 3344W        W 7395   0.731   2.591   9.802
 3345W        W 7396   1.878  10.580   1.320
 3346W        W 7397  10.995   4.411   3.654
 3347W        W 7398  11.370   3.103   3.153
 3348W        W 7399   2.424   7.162   8.984
 3349W        W 7400   6.502   4.307   9.587
 3350W        W 7401   1.901   3.831   0.851
 3351W        W 7402   9.544   4.596   1.380
 3352W        W 7403   7.935   9.810  11.779
 3353W        W 7404   7.523   7.721   0.458
 3354W        W 7405   5.021   6.492   0.265
 3355W        W 7406   6.416   4.134   8.640
 3356W        W 7407  10.227   9.067  10.375
 3357W        W 7408  11.289   6.544   0.309
 3358W        W 7409   6.517  10.932  10.340
 3359W        W 7410   5.069  11.337  10.757
 3360W        W 7411   4.744   4.123   9.911
 3361W        W 7412   4.652   9.222   1.778
 3362W        W 7413   8.865   6.576   0.809
 3363W        W 7414   2.498   3.225  11.726
 3364W        W 7415   8.765   8.002   9.480
 3365W        W 7416   6.464   2.741   8.911
 3366W        W 7417   3.725   5.688  10.815
 3367W        W 7418   3.175   1.402   9.823
 3368W        W 7419  10.120   7.906   2.368
 3369W        W 7420   9.874   7.018   3.111
 3370W        W 7421   7.415   5.732   1.772
 3371W        W 7422   2.680  10.437  10.948
 3372W        W 7423   2.185  10.481  11.073
 3373W        W 7424   5.183  10.208  11.936
 3374W        W 7425   8.995   6.578   2.422
 3375W        W 7426   1.711   8.981   3.601
 3376W        W 7427   9.540   2.656  11.516
 3377W        W 7428  11.428  10.253  10.123
 3378W        W 7429   3.140   1.826   2.966
 3379W        W 7430   4.909   5.698  10.525
 3380W        W 7431   4.681   3.426   9.478
 3381W        W 7432   8.048   1.073  11.325
 3382W        W 7433   0.800   9.283  11.392
 3383W        W 7434   7.377   3.597   2.677
 3384W        W 7435   1.667   6.714   8.923
 3385W        W 7436   3.778   9.790  11.254
 3386W        W 7437   5.251   0.678   9.361
 3387W        W 7438   5.678   5.060   9.217
 3388W        W 7439   7.518   9.427   9.516
 3389W        W 7440   3.013  10.365   1.830
 3390W        W 7441   9.800   0.420  10.890
 3391W        W 7442   3.691   3.332   2.716
 3392W        W 7443   8.193   5.860   9.442
 3393W        W 7444   6.938   6.416  10.967
 3394W        W 7445   2.554   8.793  11.930
 3395W        W 7446   3.734   5.049   8.843
 3396W        W 7447   2.257   1.369   0.504
 3397W        W 7448  11.105   0.842   1.762
 3398W        W 7449   7.942   0.790   0.469
 3399W        W 7450   9.442   5.510   0.263
 3400W        W 7451   5.756   7.662  11.479
 3401W        W 7452   6.892   9.624   8.039
 3402W        W 7453   4.479   8.116   0.739
 3403W        W 7454   8.857   6.185   2.743
 3404W        W 7455   0.433   4.538   0.144
 3405W        W 7456   6.266  10.232   9.239
 3406W        W 7457   8.419   7.058   2.562
 3407W        W 7458   2.672   9.220  10.408
 3408W        W 7459   1.921   7.077  10.251
 3409W        W 7460   3.597   3.797   2.512
 3410W        W 7461   3.373   5.442   0.458
 3411W        W 7462   6.069   5.412   1.918
 3412W        W 7463   3.856   0.871   1.663
 3413W        W 7464   7.397   2.178   3.459
 3414W        W 7465   5.748  10.927  10.973
 3415W        W 7466  11.406   8.126   9.829
 3416W        W 7467   0.708   6.002   2.609
 3417W        W 7468   5.791   8.494   2.305
 3418W        W 7469   0.783   3.340   2.260
 3419W        W 7470   7.462   3.340  11.384
 3420W        W 7471   5.956   0.033   3.162
 3421W        W 7472   5.189   1.211  10.571
 3422W        W 7473   7.425   8.514   0.276
 3423W        W 7474   1.868  10.093   1.068
 3424W        W 7475   3.739   7.012   3.241
 3425W        W 7476  11.127   8.477   1.193
 3426W        W 7477   4.633   6.218  11.746
 3427W        W 7478   1.650   4.301   0.825
 3428W        W 7479   8.025   4.620   1.174
 3429W        W 7480   6.810   4.034   2.693
 3430W        W 7481   9.052   3.223   1.401
 3431W        W 7482  10.667   7.981  10.695
 3432W        W 7483   0.041   1.030   9.916
 3433W        W 7484   9.254  10.296   9.038
 3434W        W 7485   7.951   8.225   9.283
 3435W        W 7486   8.033   0.931   1.813
 3436W        W 7487   6.145   6.759   3.101
 3437W        W 7488   4.527   1.267   0.867
 3438W        W 7489  11.464  10.738   9.970
 3439W        W 7490  11.315   6.507   2.817
 3440W        W 7491   4.550   1.602   8.549
 3441W        W 7492   2.272   3.864   9.159
 3442W        W 7493   8.954   9.901  11.483
 3443W        W 7494   1.912   5.924   0.690
 3444W        W 7495   2.925   9.057   0.335
 3445W        W 7496   2.317   1.055   9.570
 3446W        W 7497   5.057   0.799   1.179
 3447W        W 7498   9.293   1.325   1.168
 3448W        W 7499   8.342  10.886  10.915
 3449W        W 7500   0.309   5.735   0.072
 3450W        W 7501   6.682   4.215  10.948
 3451W        W 7502   2.337  11.386   1.438
 3452W        W 7503   3.706   1.402  10.670
 3453W        W 7504   4.002   1.505   3.494
 3454W        W 7505   8.905   9.952  10.103
 3455W        W 7506   7.144   2.384   8.646
 3456W        W 7507   0.981   2.648   9.353
 3457W        W 7508   9.394   4.399   8.540
 3458W        W 7509   3.787   1.259   9.155
 3459W        W 7510   4.651   3.342   3.658
 3460W        W 7511   8.419  10.325   9.440
 3461W        W 7512   0.728   7.103   3.140
 3462W        W 7513   4.502   0.134  11.026
 3463W        W 7514   4.369   6.621   2.439
 3464W        W 7515   5.641   8.016   1.172
 3465W        W 7516   4.964   3.923   3.206
 3466W        W 7517   6.221  10.198   2.255
 3467W        W 7518   5.615   3.080   1.251
 3468W        W 7519   0.419   2.191   2.501
 3469W        W 7520  10.881   2.148   0.391
 3470W        W 7521   7.001   6.541   1.711
 3471W        W 7522   4.648   0.949  10.598
 3472W        W 7523   5.203   2.096  10.050
 3473W        W 7524   8.098   7.869  11.315
 3474W        W 7525   6.402   7.680   4.077
 3475W        W 7526   8.143   6.177  11.852
 3476W        W 7527   8.790   4.767   3.495
 3477W        W 7528   1.890   1.693   0.349
 3478W        W 7529  11.191   3.354   1.808
 3479W        W 7530  11.036  10.845   9.014
 3480W        W 7531   3.706   7.922   1.432
 3481W        W 7532   9.139   1.682   2.443
 3482W        W 7533   0.241   1.892   9.356
 3483W        W 7534   0.381  10.883  11.281
 3484W        W 7535   5.549  10.668   0.678
 3485W        W 7536   8.809   4.059   2.182
 3486W        W 7537   2.052   6.124   8.435
 3487W        W 7538   9.586   1.489   8.756
 3488W        W 7539   0.517   5.594   2.844
 3489W        W 7540   2.438  10.831   2.304
 3490W        W 7541   8.780   5.814   1.840
 3491W        W 7542  10.499   4.651   2.797
 3492W        W 7543   1.344   6.108   2.475
 3493W        W 7544  10.379   1.348   9.903
 3494W        W 7545   7.625   8.060   0.115
 3495W        W 7546   6.576   8.969  10.375
 3496W        W 7547   8.011   7.722   9.149
 3497W        W 7548  10.446   9.787   9.638
 3498W        W 7549   6.470   1.932   9.787
 3499W        W 7550   8.887   0.800   2.972
 3500W        W 7551   7.167   2.092  10.030
 3501W        W 7552   8.292   0.206   8.521
 3502W        W 7553   3.241   7.037   9.994
 3503W        W 7554   0.979   3.754  10.359
 3504W        W 7555   5.759   6.522   8.609
 3505W        W 7556   8.949   6.020   3.222
 3506W        W 7557   6.503   6.678   0.674
 3507W        W 7558   9.366   4.380   0.952
 3508W        W 7559   6.700   0.400   0.496
 3509W        W 7560   2.405   3.711   0.831
 3510W        W 7561  11.452   0.420  11.643
 3511W        W 7562   7.625   7.530   1.776
 3512W        W 7563   1.652   1.336  10.345
 3513W        W 7564  11.036   9.443  10.857
 3514W        W 7565   6.406   9.835   8.881
 3515W        W 7566   4.188  10.511   1.039
 3516W        W 7567   2.749  10.464  11.971
 3517W        W 7568   5.609   2.209   3.083
 3518W        W 7569   5.643   0.676   0.998
 3519W        W 7570   5.324   1.333   3.103
 3520W        W 7571   3.318   8.056  10.728
 3521W        W 7572   4.328   5.077  10.808
 3522W        W 7573   2.245   2.484   3.326
 3523W        W 7574   7.285   4.569   3.485
 3524W        W 7575   1.930   9.867   0.276
 3525W        W 7576   6.075   3.680   9.168
 3526W        W 7577   7.226   7.485  11.787
 3527W        W 7578   3.726   2.604   0.271
 3528W        W 7579   5.986   8.247   3.547
 3529W        W 7580   9.536   0.514   0.960
 3530W        W 7581   5.671   3.146   3.547
 3531W        W 7582   9.444   7.025  10.211
 3532W        W 7583   3.763   4.118   9.680
 3533W        W 7584   1.688   3.108   0.415
 3534W        W 7585   3.340   5.998   8.717
 3535W        W 7586  10.729   9.047   2.432
 3536W        W 7587   1.939   1.653  10.612
 3537W        W 7588  11.319  10.405   9.060
 3538W        W 7589   4.373   4.429  10.331
 3539W        W 7590   3.355   2.852  11.566
 3540W        W 7591   4.106   7.449  11.348
 3541W        W 7592   3.844   4.484  10.044
 3542W        W 7593   1.636   0.412  11.275
 3543W        W 7594   4.820  11.356   1.324
 3544W        W 7595   9.298   9.144   8.476
 3545W        W 7596   1.978   2.089   8.783
 3546W        W 7597   3.023   4.102   0.822
 3547W        W 7598   2.858   3.672   1.031
 3548W        W 7599   6.169   9.938   2.703
 3549W        W 7600   2.223  10.799   9.143
 3550W        W 7601  10.879   6.977   9.471
 3551W        W 7602   5.218   8.524   9.505
 3552W        W 7603  11.137   3.782  10.491
 3553W        W 7604  11.203   8.285  11.191
 3554W        W 7605   0.245   7.550  11.990
 3555W        W 7606   0.395   8.108  10.031
 3556W        W 7607   4.313   5.120   2.087
 3557W        W 7608   6.085   3.652  11.918
 3558W        W 7609   6.569   2.080  11.533
 3559W        W 7610   7.160   3.176   2.490
 3560W        W 7611  10.027   4.380   1.540
 3561W        W 7612  10.221   6.582   0.434
 3562W        W 7613   8.493   3.807  11.949
 3563W        W 7614   4.929   8.395   0.888
 3564W        W 7615   9.966   1.337  11.068
 3565W        W 7616   3.536   6.200  11.995
 3566W        W 7617   2.583   7.074   3.144
 3567W        W 7618   1.480   1.189   8.394
 3568W        W 7619   0.402   5.575   1.049
 3569W        W 7620   5.995   8.426   0.785
 3570W        W 7621  10.319   4.753   2.323
 3571W        W 7622   7.717   6.662   1.567
 3572W        W 7623   6.446   8.578   3.595
 3573W        W 7624   1.701   8.355   0.910
 3574W        W 7625   0.601   7.024   8.630
 3575W        W 7626   1.389   1.411   8.838
 3576W        W 7627   9.555   6.089   8.551
 3577W        W 7628  11.361   1.567   9.233
 3578W        W 7629   5.861   5.048   2.695
 3579W        W 7630   7.599  11.462   0.157
 3580W        W 7631   1.404  10.750   1.336
 3581W        W 7632   7.939   1.501   1.009
 3582W        W 7633   2.411  10.505   3.509
 3583W        W 7634   0.401   8.448   3.549
 3584W        W 7635  11.168  11.308   8.795
 3585W        W 7636   6.134   7.642   2.202
 3586W        W 7637  11.040   2.273   0.874
 3587W        W 7638   9.473  11.168   1.846
 3588W        W 7639   9.656   6.640   3.602
 3589W        W 7640   3.361   0.430   0.490
 3590W        W 7641   6.573   5.321   1.341
 3591W        W 7642  10.148   6.928   2.245
 3592W        W 7643   6.773   1.194  10.073
 3593W        W 7644   4.459   9.540   8.926
 3594W        W 7645   3.285   0.054   3.459
 3595W        W 7646   2.851   6.706   0.533
 3596W        W 7647   1.333   1.708   2.289
 3597W        W 7648   0.809   7.105   9.985
 3598W        W 7649   2.960   7.030  10.787
 3599W        W 7650   3.807   2.592  11.354
 3600W        W 7651   8.899  10.482   9.467
 3601W        W 7652   0.310   3.388   3.131
 3602W        W 7653   2.110   8.574   0.651
 3603W        W 7654   5.232   9.853   1.153
 3604W        W 7655   3.753   8.414  10.244
 3605W        W 7656   5.334  11.332   1.260
 3606W        W 7657   3.372   9.940   3.277
 3607W        W 7658   3.841   4.359  11.819
 3608W        W 7659   2.443   7.990  11.317
 3609W        W 7660   5.478   7.000   9.558
 3610W        W 7661   6.267   5.889   8.607
 3611W        W 7662  10.283   9.421   9.008
 3612W        W 7663   4.677   6.439  10.816
 3613W        W 7664   2.910   5.269  10.872
 3614W        W 7665   3.035   2.110   3.355
 3615W        W 7666  10.048   5.674   9.672
 3616W        W 7667   3.618   4.338  10.963
 3617W        W 7668   6.568   1.211   0.903
 3618W        W 7669  10.316   1.081   1.305
 3619W        W 7670   2.099   8.110   9.020
 3620W        W 7671   2.168   7.143   2.796
 3621W        W 7672   0.723   4.669   2.435
 3622W        W 7673   3.187   5.781  11.501
 3623W        W 7674   7.539   1.536   2.914
 3624W        W 7675   3.754   7.755   2.759
 3625W        W 7676   6.234   0.065  11.259
 3626W        W 7677   1.945   6.311  11.348
 3627W        W 7678   5.242   4.241   0.506
 3628W        W 7679   5.452   3.343   0.827
 3629W        W 7680   4.066   0.682   3.410
 3630W        W 7681   7.684   6.994   2.102
 3631W        W 7682   2.665   9.360   9.414
 3632W        W 7683   2.708   3.773  11.476
 3633W        W 7684   8.415   5.331   9.086
 3634W        W 7685   5.750   6.531   9.677
 3635W        W 7686   8.395   4.184   1.779
 3636W        W 7687   8.093   8.145  10.884
 3637W        W 7688   2.342   8.629   9.796
 3638W        W 7689   4.827   1.733   0.953
 3639W        W 7690   5.330   9.893   8.898
 3640W        W 7691   3.700  10.135   1.637
 3641W        W 7692   5.470  10.199   2.046
 3642W        W 7693   9.733   6.102   2.573
 3643W        W 7694   6.908   9.364   1.523
 3644W        W 7695   0.294   4.117   0.873
 3645W        W 7696  10.693   6.622  11.116
 3646W        W 7697   6.505   1.980   7.993
 3647W        W 7698   1.932   1.417   8.864
 3648W        W 7699   7.437   3.985   2.362
 3649W        W 7700   3.174  10.039  10.371
 3650W        W 7701   4.827   2.002   0.411
 3651W        W 7702  10.148   5.702   2.975
 3652W        W 7703   4.136   0.482   0.898
 3653W        W 7704   7.868   6.269   1.882
 3654W        W 7705  10.948   6.702   8.587
 3655W        W 7706   0.656   9.298   0.280
 3656W        W 7707   6.162   3.212   9.854
 3657W        W 7708   0.931   0.180   3.246
 3658W        W 7709   2.102   2.403   1.396
 3659W        W 7710  10.821   0.311  10.827
 3660W        W 7711   8.561   4.123   1.308
 3661W        W 7712  10.562   4.976   0.925
 3662W        W 7713   5.884   7.992   9.074
 3663W        W 7714   1.743   7.372   1.885
 3664W        W 7715   1.174   3.330   1.908
 3665W        W 7716   3.576   1.384   2.385
 3666W        W 7717   8.194   2.187  10.145
 3667W        W 7718   4.602   4.828   1.510
 3668W        W 7719   0.287  10.553  10.372
 3669W        W 7720   1.080   3.294   2.680
 3670W        W 7721   9.908   7.687  11.291
 3671W        W 7722   8.619  10.394   3.150
 3672W        W 7723   6.504   4.831  11.496
 3673W        W 7724   8.133   3.606   3.317
 3674W        W 7725  10.607   2.726   3.471
 3675W        W 7726   5.547   6.163   0.158
 3676W        W 7727   1.913   6.196  10.239
 3677W        W 7728   7.336  11.033   0.858
 3678W        W 7729   1.895   9.819  10.809
 3679W        W 7730   5.191   8.870  11.238
 3680W        W 7731   3.886   9.931  11.741
 3681W        W 7732   7.024   4.365   3.908
 3682W        W 7733   2.550   1.686  10.887
 3683W        W 7734   6.862  11.330  10.445
 3684W        W 7735  11.239  10.331   1.142
 3685W        W 7736   5.476   4.047  11.227
 3686W        W 7737   7.119   9.659   9.319
 3687W        W 7738   4.391   4.313   2.160
 3688W        W 7739  10.263   5.299   2.674
 3689W        W 7740   2.262   0.718  11.720
 3690W        W 7741   8.081   9.634  10.444
 3691W        W 7742   1.767   2.290   3.217
 3692W        W 7743   6.014   3.226   1.671
 3693W        W 7744  10.872   1.739   9.267
 3694W        W 7745   2.249   6.164   1.462
 3695W        W 7746   0.190  11.353   0.999
 3696W        W 7747   9.584   5.379   0.758
 3697W        W 7748   4.224   1.883  11.216
 3698W        W 7749  10.140   3.856   1.634
 3699W        W 7750   3.199  10.443   1.350
 3700W        W 7751   4.894   8.624   9.112
 3701W        W 7752   8.752   8.295   3.492
 3702W        W 7753   3.055   3.109  10.443
 3703W        W 7754   5.360  11.150   0.313
 3704W        W 7755   8.422   6.730  11.320
 3705W        W 7756   6.732   7.147   0.806
 3706W        W 7757   6.087   1.613   9.943
 3707W        W 7758  10.122   8.473   1.474
 3708W        W 7759   7.972   0.981   9.593
 3709W        W 7760   1.151   1.478  10.316
 3710W        W 7761   5.916   9.433   1.635
 3711W        W 7762  11.404   0.003  11.354
 3712W        W 7763   1.171   4.251   2.682
 3713W        W 7764   3.136   1.299   0.542
 3714W        W 7765   9.449   3.881   0.908
 3715W        W 7766   3.087   8.457   1.984
 3716W        W 7767   3.744   4.706   3.108
 3717W        W 7768   6.196   0.803  10.822
 3718W        W 7769   4.411   1.844   2.100
 3719W        W 7770   1.328   6.577   2.695
 3720W        W 7771  10.976  10.770   2.015
 3721W        W 7772   3.025   4.639  11.986
 3722W        W 7773   6.460   9.578  10.979
 3723W        W 7774   4.076   8.660   9.903
 3724W        W 7775  10.281   3.232  11.869
 3725W        W 7776  10.134  11.492  11.838
 3726W        W 7777   4.194   8.312   0.367
 3727W        W 7778   9.928   2.200   0.308
 3728W        W 7779   1.167   4.053   9.834
 3729W        W 7780   9.454   6.762  11.256
 3730W        W 7781   1.274   7.106   1.865
 3731W        W 7782   2.923   2.342   9.481
 3732W        W 7783   2.990   0.553   9.894
 3733W        W 7784   4.250   7.234  10.873
 3734W        W 7785   0.866  10.877   2.893
 3735W        W 7786   5.513   6.583   2.672
 3736W        W 7787   6.064   4.645  11.726
 3737W        W 7788   7.174   3.685   0.291
 3738W        W 7789  10.201   6.688   9.988
 3739W        W 7790   9.036   9.583   2.728
 3740W        W 7791   0.297   2.459   1.933
 3741W        W 7792   3.790   9.988   2.541
 3742W        W 7793  11.492   5.258   9.413
 3743W        W 7794  11.476   5.290   1.006
 3744W        W 7795   4.969   5.215  10.315
 3745W        W 7796   7.130   2.889  10.328
 3746W        W 7797   9.787   0.526   2.651
 3747W        W 7798   3.518   1.328  11.697
 3748W        W 7799  11.039   8.588  11.867
 3749W        W 7800   4.157   2.345   1.276
 3750W        W 7801   9.947   6.574   9.545
 3751W        W 7802   0.289   1.261   3.309
 3752W        W 7803   4.126   3.083   0.747
 3753W        W 7804   9.945   6.688  11.993
 3754W        W 7805   1.713   1.458   1.269
 3755W        W 7806  10.704   4.041   1.621
 3756W        W 7807   0.357   7.504   1.016
 3757W        W 7808  11.462   0.451   1.824
 3758W        W 7809   0.178   3.052   0.911
 3759W        W 7810   3.718  11.122   1.666
 3760W        W 7811   2.027   6.869   0.309
 3761W        W 7812  11.422   3.880   9.508
 3762W        W 7813  10.274   6.088  10.348
 3763W        W 7814   1.450   7.814   1.390
 3764W        W 7815  11.104   1.687  11.278
 3765W        W 7816   2.265   8.132   1.663
 3766W        W 7817   3.681   7.441   2.379
 3767W        W 7818   8.013  10.256   1.045
 3768W        W 7819   1.360   5.598   2.258
 3769W        W 7820   7.358   8.575   0.884
 3770W        W 7821   5.260   9.025   2.778
 3771W        W 7822   6.024   3.094   8.130
 3772W        W 7823   6.762   3.666  10.426
 3773W        W 7824   5.989   4.210   8.958
 3774W        W 7825   9.487   1.888  11.890
 3775W        W 7826   6.418   8.126   3.830
 3776W        W 7827   9.159   3.345   0.923
 3777W        W 7828   4.214   9.283   2.163
 3778W        W 7829   4.779  10.887  10.757
 3779W        W 7830   0.843   4.619   1.457
 3780W        W 7831   4.285   2.296  11.515
 3781W        W 7832  10.036   6.398   8.529
 3782W        W 7833   1.021   7.507  11.393
 3783W        W 7834  10.142   9.725   2.187
 3784W        W 7835   6.769   6.436   1.280
 3785W        W 7836   6.145   6.530  11.189
 3786W        W 7837   2.422   9.375   1.157
 3787W        W 7838   5.525   9.394  10.806
 3788W        W 7839   1.833   0.839   9.535
 3789W        W 7840   5.702   8.856  10.834
 3790W        W 7841   6.177   0.935   9.106
 3791W        W 7842   6.992   9.572  10.845
 3792W        W 7843   5.651   1.824  10.564
 3793W        W 7844   1.822   3.581   9.944
 3794W        W 7845   4.727   1.137   1.685
 3795W        W 7846   7.439  10.200   8.521
 3796W        W 7847   4.713   7.077   1.047
 3797W        W 7848   6.534   2.876   9.913
 3798W        W 7849   9.951   6.663  11.331
 3799W        W 7850  10.811   4.655   2.319
 3800W        W 7851   5.478   4.610   1.416
 3801W        W 7852   0.221   6.031   8.929
 3802W        W 7853   7.532  10.803   9.307
 3803W        W 7854   7.971   9.511   2.342
 3804W        W 7855   2.250  10.980   3.324
 3805W        W 7856   3.656   4.153   0.240
 3806W        W 7857   0.377   8.838  10.645
 3807W        W 7858   8.600   2.715   0.030
 3808W        W 7859   9.799   6.611   1.354
 3809W        W 7860   5.145   0.184   9.507
 3810W        W 7861  11.483   8.178   1.403
 3811W        W 7862  10.004   7.090   1.383
 3812W        W 7863   7.731   5.889  10.639
 3813W        W 7864   6.257   3.574   8.209
 3814W        W 7865   5.103   6.747   2.980
 3815W        W 7866   0.612   1.292   1.501
 3816W        W 7867   4.247  10.469   2.909
 3817W        W 7868  10.930   7.722   0.108
 3818W        W 7869   1.858   1.483  11.892
 3819W        W 7870   7.228   1.251  10.468
 3820W        W 7871  10.070   8.391   3.224
 3821W        W 7872   7.949  11.457   9.507
 3822W        W 7873  10.313   8.483  11.102
 3823W        W 7874   2.398   8.929   0.413
 3824W        W 7875   1.218   4.616   3.503
 3825W        W 7876   5.465   0.842  10.357
 3826W        W 7877   1.959  10.279   0.582
 3827W        W 7878   9.256   7.154   0.809
 3828W        W 7879   2.390   1.957   1.332
 3829W        W 7880   2.701  10.509   1.448
 3830W        W 7881   2.307   7.651   9.040
 3831W        W 7882   4.831   9.021   0.386
 3832W        W 7883   1.670   3.133  10.642
 3833W        W 7884   6.027   9.262  10.888
 3834W        W 7885   8.400   2.945   1.783
 3835W        W 7886   3.448   3.392   2.242
 3836W        W 7887   0.891   0.494  11.923
 3837W        W 7888  10.762   4.522   3.216
 3838W        W 7889   1.762   7.886   1.831
 3839W        W 7890   4.621   9.808   1.776
 3840W        W 7891  11.138   5.103   0.039
 3841W        W 7892   1.641   1.781   9.083
 3842W        W 7893   5.029   2.525   9.852
 3843W        W 7894  10.401   0.997   8.828
 3844W        W 7895   2.725   1.427   2.302
 3845W        W 7896   4.747   3.271  11.756
 3846W        W 7897   5.110   8.167  10.670
 3847W        W 7898   7.732   4.296   0.248
 3848W        W 7899   8.980   8.377   0.368
 3849W        W 7900   9.573   0.275   9.874
 3850W        W 7901   4.245   7.316   1.719
 3851W        W 7902   8.739   8.541   9.052
 3852W        W 7903   3.844   7.070  10.629
 3853W        W 7904   5.117   6.032   0.494
 3854W        W 7905   6.772   8.047   9.933
 3855W        W 7906   9.708   7.662   1.819
 3856W        W 7907   6.546   1.902   3.251
 3857W        W 7908  11.061   9.399   2.597
 3858W        W 7909   2.380   1.469  10.415
 3859W        W 7910   0.903   1.398   0.570
 3860W        W 7911   4.171  11.497   3.140
 3861W        W 7912   0.098   8.910   3.539
 3862W        W 7913   0.469   6.478   2.620
 3863W        W 7914   5.650   1.358  10.354
 3864W        W 7915   3.159   3.719   3.279
 3865W        W 7916   7.125   3.572   9.585
 3866W        W 7917   8.668   1.834   2.311
 3867W        W 7918   1.776   2.586   2.746
 3868W        W 7919   3.245   0.992   1.698
 3869W        W 7920   2.560   2.727   2.923
 3870W        W 7921  10.354   6.991   1.768
 3871W        W 7922  10.025   4.344   2.164
 3872W        W 7923   0.950   5.958   2.172
 3873W        W 7924   0.837   1.048   9.508
 3874W        W 7925   5.627   5.103   1.268
 3875W        W 7926   6.831   2.450   1.335
 3876W        W 7927   7.050   6.686  10.541
 3877W        W 7928   0.080   7.200   2.145
 3878W        W 7929   2.656   9.672   0.783
 3879W        W 7930   4.217   5.211   0.047
 3880W        W 7931  11.056   2.830  11.271
 3881W        W 7932   1.199   5.662  11.602
 3882W        W 7933   5.127   7.731  11.045
 3883W        W 7934   4.416   2.096   1.654
 3884W        W 7935   5.727   8.567   2.809
 3885W        W 7936   9.421   5.660  10.836
 3886W        W 7937   4.096   7.089   9.753
 3887W        W 7938  11.329   3.333   8.643
 3888W        W 7939   8.682   2.818  10.538
 3889W        W 7940   8.457   8.569   8.589
 3890W        W 7941   4.919   2.492   0.211
 3891W        W 7942   3.944   7.975   9.425
 3892W        W 7943   3.226   2.885   2.211
 3893W        W 7944  10.818  10.162  10.536
 3894W        W 7945   2.886  10.011   9.143
 3895W        W 7946   1.209   6.613   3.214
 3896W        W 7947   7.693   0.262   3.389
 3897W        W 7948   3.381   6.644  11.221
 3898W        W 7949  10.942   1.784   3.179
 3899W        W 7950   4.076   1.285   2.346
 3900W        W 7951   6.629   2.202   8.456
 3901W        W 7952   3.789   7.244   1.487
 3902W        W 7953   1.127   6.974   1.367
 3903W        W 7954   3.711  11.467  10.510
 3904W        W 7955   2.210   4.621  10.288
 3905W        W 7956   3.854   1.364   1.423
 3906W        W 7957   7.872   8.582   0.910
 3907W        W 7958   5.434   1.150   1.158
 3908W        W 7959   0.036   3.642   1.549
 3909W        W 7960   0.488   5.350   9.361
 3910W        W 7961   5.226  10.953  11.064
 3911W        W 7962   7.023   9.480  11.732
 3912W        W 7963   1.825   0.315   2.216
 3913W        W 7964  11.288   2.554   9.305
 3914W        W 7965   0.806   1.780   0.968
 3915W        W 7966   7.096   2.134  11.876
 3916W        W 7967   5.311   5.150   0.477
 3917W        W 7968   1.818   3.875  10.979
 3918W        W 7969   0.255   1.288   9.504
 3919W        W 7970   5.827   9.654   1.156
 3920W        W 7971   5.044   3.041   2.706
 3921W        W 7972   1.228   2.301  11.189
 3922W        W 7973   7.969   4.659   0.670
 3923W        W 7974   9.642   2.369  11.918
 3924W        W 7975  11.390   6.604   3.521
 3925W        W 7976   2.752   0.751   9.489
 3926W        W 7977  10.907   3.580   8.849
 3927W        W 7978   8.581   3.858   3.181
 3928W        W 7979   5.268   2.755   0.487
 3929W        W 7980   2.174   1.310  11.534
 3930W        W 7981   2.433   8.352   2.545
 3931W        W 7982   0.274   0.781  11.504
 3932W        W 7983  11.107   1.591  10.761
 3933W        W 7984   1.476   1.855  10.460
 3934W        W 7985   2.891   6.920   9.051
 3935W        W 7986   3.140   8.283   2.458
 3936W        W 7987  10.611   7.879   3.459
 3937W        W 7988   3.492  10.571   1.796
 3938W        W 7989   2.401   9.869   1.223
 3939W        W 7990   0.762   1.169  10.796
 3940W        W 7991  11.213  10.588  11.941
 3941W        W 7992  11.232   7.868  11.484
 3942W        W 7993   5.330  10.012   2.635
 3943W        W 7994   6.119   4.768   0.741
 3944W        W 7995  11.467   4.900   1.319
 3945W        W 7996   6.552   0.832   8.759
 3946W        W 7997   3.573   6.143   0.494
 3947W        W 7998   8.485   4.008   9.975
 3948W        W 7999   2.851   9.109   1.201
 3949W        W 8000   9.924   2.856   8.373
 3950W        W 8001   8.408   4.297  11.810
 3951W        W 8002   8.923   2.629   2.200
 3952W        W 8003   7.603   0.740  11.127
 3953W        W 8004   8.231   6.449  10.086
 3954W        W 8005   9.143   1.294   9.000
 3955W        W 8006   8.312   6.976  10.779
 3956W        W 8007   9.132   6.924   8.082
 3957W        W 8008   2.860   0.417   3.571
 3958W        W 8009   9.530   6.267   9.071
 3959W        W 8010  10.311   9.428   1.389
 3960W        W 8011   8.956   8.091   9.002
 3961W        W 8012   4.995   4.703   1.219
 3962W        W 8013   2.824   5.922  10.187
 3963W        W 8014   6.267   4.293   0.480
 3964W        W 8015   5.609   3.875   9.077
 3965W        W 8016   3.653   2.524   2.071
 3966W        W 8017   2.618   9.498   3.023
 3967W        W 8018   0.524   9.834  11.058
 3968W        W 8019   7.864   2.424  10.496
 3969W        W 8020   4.209  10.001   8.842
 3970W        W 8021   2.684   0.579  10.335
 3971W        W 8022   3.458  10.141  11.487
 3972W        W 8023   9.466   1.631   0.344
 3973W        W 8024   7.739   1.255   9.996
 3974W        W 8025   3.611  10.302  10.963
 3975W        W 8026   7.724  11.083  10.661
 3976W        W 8027   4.184   3.472   0.401
 3977W        W 8028   7.521  10.360   9.572
 3978W        W 8029   1.606  10.496  11.694
 3979W        W 8030   7.625   6.110   3.786
 3980W        W 8031   9.906   2.744   2.324
 3981W        W 8032   6.654   9.922   1.365
 3982W        W 8033   6.675   3.362   9.799
 3983W        W 8034  11.309   9.004   9.588
 3984W        W 8035   2.793  10.010   1.537
 3985W        W 8036   7.202   8.494   2.364
 3986W        W 8037   9.172   5.480  10.092
 3987W        W 8038  10.704   2.343   1.268
 3988W        W 8039   5.630   4.872  11.935
 3989W        W 8040   6.134   2.293   3.185
 3990W        W 8041   0.627   5.867   9.940
 3991W        W 8042   4.645   6.848   0.199
 3992W        W 8043   2.216   3.916   1.839
 3993W        W 8044   4.512  10.789   8.848
 3994W        W 8045   0.972   6.628  10.389
 3995W        W 8046   9.252   9.012  10.337
 3996W        W 8047   0.433   0.047   0.587
 3997W        W 8048   8.581   7.960   2.240
 3998W        W 8049   1.460   9.340  10.068
 3999W        W 8050   4.335  10.397   0.538
 4000W        W 8051   4.566   0.867   1.245
 4001W        W 8052   0.316   0.682   8.690
 4002W        W 8053   7.611   9.023   1.103
 4003W        W 8054   5.453   0.372   3.075
 4004W        W 8055   0.047   5.267   2.316
 4005W        W 8056   0.823   6.268  10.890
 4006W        W 8057   9.692   9.602   0.233
 4007W        W 8058   5.248  11.407  11.283
 4008W        W 8059   0.829   4.623   1.955
 4009W        W 8060   7.649   7.562  10.414
 4010W        W 8061   8.184   0.419   3.483
 4011W        W 8062   4.451   7.144   9.350
 4012W        W 8063   4.180  10.078   1.866
 4013W        W 8064   3.104   3.609  10.065
 4014W        W 8065   9.482   0.731   3.484
 4015W        W 8066   3.358  10.993  11.671
 4016W        W 8067   1.040   5.126   0.302
 4017W        W 8068   7.851   2.407  11.487
 4018W        W 8069  10.862   4.995   0.473
 4019W        W 8070   5.001   0.465   2.152
 4020W        W 8071   6.314  11.265   1.142
 4021W        W 8072   1.918  10.873   9.702
 4022W        W 8073   3.755   4.995   1.745
 4023W        W 8074   8.787  10.580   3.576
 4024W        W 8075   6.044  10.004   0.840
 4025W        W 8076   3.544  10.648  11.345
 4026W        W 8077   5.035   3.426  10.559
 4027W        W 8078  10.861   7.718   3.025
 4028W        W 8079   3.110   7.397   0.365
 4029W        W 8080   9.559   4.919   4.358
 4030W        W 8081   4.805   7.973  10.290
 4031W        W 8082   3.335   2.719   3.248
 4032W        W 8083   0.558   0.845   1.716
 4033W        W 8084   7.508   9.803   3.210
 4034W        W 8085   2.886   4.515  10.368
 4035W        W 8086   5.125   8.961   2.021
 4036W        W 8087   5.213   3.211   8.752
 4037W        W 8088  10.303   6.953   9.551
 4038W        W 8089   9.122   3.686   9.500
 4039W        W 8090   8.799   1.304   1.290
 4040W        W 8091   2.786   1.278   9.500
 4041W        W 8092   2.085   2.890   3.035
 4042W        W 8093   5.816  10.599  10.496
 4043W        W 8094   3.748   2.622   9.842
 4044W        W 8095  10.853   3.276   9.965
 4045W        W 8096  11.086   5.082   2.413
 4046W        W 8097   7.989   1.026   3.443
 4047W        W 8098  11.014   3.107  10.432
 4048W        W 8099  11.387   2.322   0.408
 4049W        W 8100   3.326   9.349  11.065
 4050W        W 8101   5.029   1.638   9.294
 4051W        W 8102   9.549   7.522  10.329
 4052W        W 8103   4.210   2.837  11.544
 4053W        W 8104   6.582   0.439   1.374
 4054W        W 8105   0.125   8.566   1.076
 4055W        W 8106   0.040   2.348  10.390
 4056W        W 8107   0.524   3.872   3.344
 4057W        W 8108   2.610   6.172   3.329
 4058W        W 8109   2.862   2.029   1.181
 4059W        W 8110   2.847   3.351   3.503
 4060W        W 8111   8.845   0.387   1.846
 4061W        W 8112   0.548   9.326   3.481
 4062W        W 8113   8.937   5.124   2.257
 4063W        W 8114   6.164   3.077   3.725
 4064W        W 8115  11.263   5.618   9.711
 4065W        W 8116   9.162   8.086  11.934
 4066W        W 8117   7.650  11.252  11.136
 4067W        W 8118   1.813   2.464  10.880
 4068W        W 8119   2.323  11.499   3.308
 4069W        W 8120   3.311   9.645  11.478
 4070W        W 8121   6.661   7.021   0.314
 4071W        W 8122   1.299   7.632   1.826
 4072W        W 8123   9.495   8.667   8.550
 4073W        W 8124  10.037   4.864   2.781
 4074W        W 8125  10.151  11.411   0.657
 4075W        W 8126   9.626   4.076   1.354
 4076W        W 8127   4.624   2.119   8.641
 4077W        W 8128   6.729   0.399   3.203
 4078W        W 8129   9.685   1.496   0.806
 4079W        W 8130   4.669  11.490   9.587
 4080W        W 8131   5.991   1.294   2.184
 4081W        W 8132   9.828   7.493  10.789
 4082W        W 8133   7.925   5.004  11.534
 4083W        W 8134   7.904   9.475   0.184
 4084W        W 8135   5.632   5.696   1.908
 4085W        W 8136   8.221   2.275   0.918
 4086W        W 8137   2.832   9.762   3.422
 4087W        W 8138   6.757   8.961   0.841
 4088W        W 8139   6.469   9.922   3.147
 4089W        W 8140   5.441   5.893   1.476
 4090W        W 8141   8.487   8.238   0.196
 4091W        W 8142   6.387   2.303   1.876
 4092W        W 8143   0.760   3.295   0.393
 4093W        W 8144   9.586   8.944   8.971
 4094W        W 8145   8.301   3.018   9.933
 4095W        W 8146  11.047   2.914   9.621
 4096W        W 8147   4.656   2.981  11.355
 4097W        W 8148   6.592  11.337  11.842
 4098W        W 8149   9.781   2.374   8.581
 4099W        W 8150  10.434   0.376  11.688
 4100W        W 8151   0.752   4.328  10.000
 4101W        W 8152  11.290   4.843   0.806
 4102W        W 8153   8.455   2.042   2.774
 4103W        W 8154   5.574   9.740   3.314
 4104W        W 8155  10.534  10.875   1.373
 4105W        W 8156   9.000   8.680  10.732
 4106W        W 8157  11.341   8.736  11.372
 4107W        W 8158   7.072  10.084   9.592
 4108W        W 8159   0.182   0.726   3.372
 4109W        W 8160   4.908   1.853   8.279
 4110W        W 8161   7.848   1.152   2.213
 4111W        W 8162   8.036  11.293  11.909
 4112W        W 8163   6.454   6.439   9.053
 4113W        W 8164  10.590   9.546   3.221
 4114W        W 8165  11.027   4.688   2.799
 4115W        W 8166   0.010   9.823   2.247
 4116W        W 8167   8.995   2.175   9.564
 4117W        W 8168   4.593  10.995   0.403
 4118W        W 8169   7.125   2.316   2.489
 4119W        W 8170   5.740   1.259  11.350
 4120W        W 8171  10.470   0.748   3.626
 4121W        W 8172  -0.000   6.166   3.175
 4122W        W 8173   5.237   5.500   1.270
 4123W        W 8174   2.654   6.975   1.822
 4124W        W 8175   5.087   7.605  10.050
 4125W        W 8176  10.934   5.445   8.573
 4126W        W 8177   0.797   5.606  10.435
 4127W        W 8178   5.612   9.602   2.804
 4128W        W 8179   3.092   8.467  10.929
 4129W        W 8180   5.558  10.181   0.898
 4130W        W 8181   1.389   1.888   1.205
 4131W        W 8182   4.130   7.590   1.316
 4132W        W 8183   3.810   0.005   1.288
 4133W        W 8184   6.128   0.844   3.005
 4134W        W 8185  11.150  10.524   1.604
 4135W        W 8186   0.900   0.551   3.687
 4136W        W 8187   9.975   3.316   0.331
 4137W        W 8188   4.276   9.086  11.250
 4138W        W 8189  11.127   3.925   0.119
 4139W        W 8190   3.812   3.115   0.300
 4140W        W 8191   0.123   3.109   1.800
 4141W        W 8192   6.495   7.355   2.390
 4142W        W 8193   4.798   6.946   3.338
 4143W        W 8194   4.523  10.308  10.342
 4144W        W 8195   9.598   2.468  10.167
 4145W        W 8196   0.733   8.756   3.277
 4146W        W 8197   9.456   6.236   1.479
 4147W        W 8198   6.978   1.794   9.278
 4148W        W 8199  11.234   3.061  11.684
 4149W        W 8200   8.106   8.130   0.845
 4150W        W 8201   6.656   1.588   2.858
 4151W        W 8202   9.069   2.226   9.056
 4152W        W 8203   8.761   4.614  11.328
 4153W        W 8204   2.315   1.820  10.049
 4154W        W 8205   1.917   5.338   9.914
 4155W        W 8206   1.075   2.328   0.236
 4156W        W 8207  11.211   6.913   9.859
 4157W        W 8208   2.110  10.928  11.305
 4158W        W 8209   7.928   4.044   1.675
 4159W        W 8210   0.915   8.436   2.813
 4160W        W 8211   8.601   1.889  11.491
 4161W        W 8212   6.941   4.678  10.245
 4162W        W 8213   7.011   1.289   9.422
 4163W        W 8214  11.244   1.339   1.896
 4164W        W 8215   4.347   5.602   1.876
 4165W        W 8216   9.125   8.522   1.790
 4166W        W 8217   5.123   9.528   2.882
 4167W        W 8218   6.032   2.888   3.231
 4168W        W 8219   2.194   7.472   0.496
 4169W        W 8220   8.306   2.682   2.708
 4170W        W 8221   9.038  11.231   2.698
 4171W        W 8222   2.560   9.012   8.545
 4172W        W 8223   4.930   2.930  10.545
 4173W        W 8224   8.854   9.511   9.776
 4174W        W 8225   5.223   7.502   9.585
 4175W        W 8226   9.232   6.085  11.769
 4176W        W 8227   8.009   8.716  10.008
 4177W        W 8228   5.493   8.054   0.238
 4178W        W 8229   9.551   1.523   9.803
 4179W        W 8230   6.118   3.811   0.996
 4180W        W 8231   1.130   7.445   3.153
 4181W        W 8232   3.737   9.009   3.242
 4182W        W 8233   4.871   1.002   0.389
 4183W        W 8234   2.472   7.997   9.381
 4184W        W 8235   2.166   8.440   1.142
 4185W        W 8236   2.044   4.273   9.366
 4186W        W 8237   4.676   5.285   0.256
 4187W        W 8238   1.408   8.636   2.817
 4188W        W 8239   4.397   9.459   2.640
 4189W        W 8240  11.294   7.791  10.980
 4190W        W 8241   6.098   5.903   1.827
 4191W        W 8242   0.356   8.048  11.774
 4192W        W 8243  10.876   8.128  11.722
 4193W        W 8244  10.852   1.492  10.114
 4194W        W 8245   8.402   9.408   9.554
 4195W        W 8246  11.424   4.377   0.636
 4196W        W 8247   5.921   4.610   9.262
 4197W        W 8248  10.472   5.087   1.791
 4198W        W 8249   5.203   3.964   0.920
 4199W        W 8250   4.686   6.963  10.870
 4200W        W 8251   1.259  10.562   3.626
 4201W        W 8252   5.408  10.342  10.280
 4202W        W 8253   7.673   2.719   9.530
 4203W        W 8254   6.648   0.926   0.470
 4204W        W 8255   8.142   8.689   1.983
 4205W        W 8256   0.782   1.075  11.310
 4206W        W 8257   1.564   0.853   0.573
 4207W        W 8258   8.558   5.578  11.412
 4208W        W 8259   4.540   7.525  10.562
 4209W        W 8260   1.506   3.048   9.038
 4210W        W 8261   2.549   8.624  11.001
 4211W        W 8262   6.345   2.329   0.366
 4212W        W 8263   9.283   4.190   9.376
 4213W        W 8264  11.230   5.363   1.453
 4214W        W 8265   4.355   6.674   9.976
 4215W        W 8266   9.643   1.029   1.714
 4216W        W 8267   9.128   8.066   0.797
 4217W        W 8268  10.455  10.311  11.044
 4218W        W 8269   9.823   9.559  11.653
 4219W        W 8270  10.491   8.477   9.132
 4220W        W 8271   3.015  10.922   1.320
 4221W        W 8272   0.727   3.828   9.913
 4222W        W 8273  10.201   7.663   1.118
 4223W        W 8274   9.116   1.756   8.760
 4224W        W 8275   9.506   8.436   2.155
 4225W        W 8276   7.410   7.573  10.868
 4226W        W 8277   0.868   9.594   2.166
 4227W        W 8278   1.957   9.588   1.200
 4228W        W 8279   4.174   6.257   9.739
 4229W        W 8280   0.523   2.615   1.501
 4230W        W 8281   5.917   5.732   2.314
 4231W        W 8282   5.116   0.484   8.864
 4232W        W 8283   7.730  10.572   0.256
 4233W        W 8284   7.681   9.033   2.574
 4234W        W 8285   7.426   2.768   0.895
 4235W        W 8286   8.234   1.321  11.754
 4236W        W 8287   2.337   8.488   9.306
 4237W        W 8288   7.983  11.321   2.505
 4238W        W 8289   4.254   7.094   1.244
 4239W        W 8290   8.536   0.181   1.481
 4240W        W 8291   9.290   4.487  11.420
 4241W        W 8292  11.314   1.231  11.034
 4242W        W 8293   3.636   1.282   9.655
 4243W        W 8294   9.135   5.750   8.699
 4244W        W 8295   9.995  10.570  11.309
 4245W        W 8296   2.281   7.253  11.541
 4246W        W 8297   4.842   2.108   1.934
 4247W        W 8298   5.222   1.194  10.059
 4248W        W 8299  11.477  10.459   3.307
 4249W        W 8300   1.758   8.398   1.813
 4250W        W 8301   6.042   3.707   3.840
 4251W        W 8302   4.113   4.752   8.672
 4252W        W 8303   8.124   9.431   1.814
 4253W        W 8304   5.861   8.958   0.032
 4254W        W 8305  11.151   4.285  10.271
 4255W        W 8306   4.051   1.486   0.943
 4256W        W 8307  11.410   7.669   1.192
 4257W        W 8308   5.267   8.448  11.526
 4258W        W 8309   4.726   4.328  11.805
 4259W        W 8310   9.973   1.678   0.363
 4260W        W 8311   8.400  10.334   1.400
 4261W        W 8312  10.539  10.772   8.992
 4262W        W 8313   0.505   9.559   2.995
 4263W        W 8314   7.388   4.081   9.165
 4264W        W 8315   1.703   5.972   3.252
 4265W        W 8316   4.307   0.265   0.435
 4266W        W 8317   6.201   7.489  11.274
 4267W        W 8318   7.168   9.138  10.062
 4268W        W 8319   2.929   0.952   2.093
 4269W        W 8320   9.399   8.942   3.544
 4270W        W 8321   2.233   2.834   2.547
 4271W        W 8322  11.228   0.041   0.895
 4272W        W 8323   6.587   3.627   1.899
 4273W        W 8324   6.139   2.499   0.831
 4274W        W 8325   2.010  10.744   0.843
 4275W        W 8326   7.979   4.036  11.905
 4276W        W 8327   7.438  10.905   9.867
 4277W        W 8328  10.930   1.241   9.118
 4278W        W 8329  10.715   6.544   1.775
 4279W        W 8330  10.364   6.038   9.492
 4280W        W 8331   8.349   2.357  11.454
 4281W        W 8332   8.410   1.526   2.665
 4282W        W 8333   3.108   2.144   2.587
 4283W        W 8334   7.603   2.542   3.174
 4284W        W 8335   7.888  10.437   8.513
 4285W        W 8336   4.953   8.984   9.509
 4286W        W 8337   5.050   8.835  11.834
 4287W        W 8338   2.703   2.212   2.977
 4288W        W 8339   6.467   5.919  11.959
 4289W        W 8340   7.583   6.878   0.816
 4290W        W 8341   5.344   0.353  11.514
 4291W        W 8342   9.183   2.811   2.795
 4292W        W 8343   1.866  11.303   2.954
 4293W        W 8344   4.222   9.531  11.990
 4294W        W 8345   9.003   4.105  11.169
 4295W        W 8346   1.785   9.187   2.261
 4296W        W 8347   6.886   9.409   2.454
 4297W        W 8348   8.359   1.587   1.370
 4298W        W 8349   6.994   6.948  11.024
 4299W        W 8350   9.032   3.063   3.196
 4300W        W 8351   3.560   9.331   0.884
 4301W        W 8352   8.379   1.101   2.156
 4302W        W 8353   6.955   4.656   1.229
 4303W        W 8354   1.798   8.866   0.904
 4304W        W 8355   3.618   1.746   1.726
 4305W        W 8356   5.620   1.747  11.460
 4306W        W 8357   4.240   3.177   9.540
 4307W        W 8358   8.579   2.794   8.641
 4308W        W 8359  10.684   2.306  10.531
 4309W        W 8360   6.395  10.557   8.415
 4310W        W 8361   9.359  10.819   9.904
 4311W        W 8362   1.725  10.880   0.017
 4312W        W 8363   2.755   5.642  11.256
 4313W        W 8364   0.159   2.382   9.595
 4314W        W 8365   4.388   8.675  10.921
 4315W        W 8366   9.091   2.394   1.674
 4316W        W 8367   0.570   2.911   1.907
 4317W        W 8368   2.462   2.522   9.639
 4318W        W 8369   2.830   0.030   3.212
 4319W        W 8370   3.633   0.753   0.841
 4320W        W 8371   1.886  10.012  11.772
 4321W        W 8372   1.854  10.561   8.773
 4322W        W 8373   0.986   0.671   9.882
 4323W        W 8374   8.570   5.341   0.795
 4324W        W 8375   6.751   7.480   8.677
 4325W        W 8376  10.403   5.536  11.881
 4326W        W 8377   5.131   7.375   2.266
 4327W        W 8378   1.232   2.634   9.874
 4328W        W 8379  10.039   6.740   4.393
 4329W        W 8380  10.754   5.082   8.979
 4330W        W 8381   4.134   6.452   4.204
 4331W        W 8382   0.597  11.044   8.605
 4332W        W 8383   5.592   8.006  10.716
 4333W        W 8384   8.695   7.123   2.124
 4334W        W 8385  10.953   0.827  10.940
 4335W        W 8386   6.846   6.129   0.243
 4336W        W 8387  10.363  11.487  11.375
 4337W        W 8388   8.473   1.650  10.040
 4338W        W 8389   3.254   3.030   2.695
 4339W        W 8390   3.535   9.050   0.051
 4340W        W 8391   8.590   9.631  10.622
 4341W        W 8392  10.004  11.310  10.542
 4342W        W 8393  10.911   5.107   9.811
 4343W        W 8394   7.150  11.399   9.927
 4344W        W 8395  10.508   6.564   0.858
 4345W        W 8396   5.486  10.927   2.125
 4346W        W 8397   9.924   9.202   0.033
 4347W        W 8398  10.196   8.000  10.939
 4348W        W 8399   0.950  10.632   9.006
 4349W        W 8400  11.436   2.244   2.342
 4350W        W 8401   5.173   1.749   1.730
 4351W        W 8402   0.381   8.498  11.033
 4352W        W 8403   0.493   8.133   2.695
 4353W        W 8404   8.468   7.205   8.896
 4354W        W 8405   8.398   5.148   1.336
 4355W        W 8406   0.323   7.470   0.497
 4356W        W 8407  10.051   7.027   3.577
 4357W        W 8408   3.052   2.581   2.836
 4358W        W 8409   5.638   7.136   0.202
 4359W        W 8410   2.289  11.006   2.771
 4360W        W 8411  11.339   9.090   2.928
 4361W        W 8412   9.324   9.362   1.274
 4362W        W 8413  11.461   4.138  10.705
 4363W        W 8414   0.982   7.974   1.496
 4364W        W 8415   1.625   9.622   3.249
 4365W        W 8416   6.551   3.426  11.821
 4366W        W 8417   4.280   0.331   9.371
 4367W        W 8418   4.150   0.038   1.719
 4368W        W 8419   8.375   4.202  10.431
 4369W        W 8420   7.599   8.579   2.800
 4370W        W 8421  10.356   1.016  10.303
 4371W        W 8422   7.582   6.696   2.943
 4372W        W 8423   6.030   4.559  10.785
 4373W        W 8424  11.425   2.142   2.860
 4374W        W 8425   9.281   6.441   0.545
 4375W        W 8426   9.879   7.888  10.481
 4376W        W 8427  10.630   1.748  11.418
 4377W        W 8428   6.275   6.583  11.675
 4378W        W 8429   6.184   1.407  10.439
 4379W        W 8430   4.552  10.902  11.587
 4380W        W 8431   9.887   8.132   1.972
 4381W        W 8432   6.080   9.194   1.206
 4382W        W 8433   5.549   7.039  10.853
 4383W        W 8434   0.534   7.379  11.432
 4384W        W 8435   0.635   4.242   2.683
 4385W        W 8436   2.010   5.674   8.650
 4386W        W 8437   3.546   1.757   9.888
 4387W        W 8438   5.437   5.656  10.504
 4388W        W 8439   6.405   9.498   1.513
 4389W        W 8440   0.857   4.627   0.964
 4390W        W 8441  10.451   7.410   3.666
 4391W        W 8442   6.292   4.119   2.719
 4392W        W 8443   2.462   2.645  11.062
 4393W        W 8444   1.699   7.393   0.737
 4394W        W 8445   1.655   3.292   0.983
 4395W        W 8446   0.033  10.930   8.936
 4396W        W 8447   7.384  10.042   0.918
 4397W        W 8448   9.307   1.061   2.122
 4398W        W 8449   1.238   4.261   0.497
 4399W        W 8450   5.606   4.365  11.823
 4400W        W 8451   8.481   2.334   9.584
 4401W        W 8452   1.817   1.038   1.577
 4402W        W 8453   8.693   2.133   0.777
 4403W        W 8454   4.517   2.184  10.919
 4404W        W 8455   1.508  11.276   9.028
 4405W        W 8456   9.914   9.150   2.845
 4406W        W 8457   8.453   4.850   0.906
 4407W        W 8458   0.449   0.271  11.763
 4408W        W 8459   5.171   7.750   1.338
 4409W        W 8460  10.507   1.708   2.853
 4410W        W 8461   7.897   6.482   0.758
 4411W        W 8462   5.976   5.239  10.068
 4412W        W 8463   4.645   5.302  11.735
 4413W        W 8464   8.694   2.110   9.992
 4414W        W 8465   1.698  11.312   9.894
 4415W        W 8466  11.463  10.310   9.596
 4416W        W 8467   2.849  11.144  10.307
 4417W        W 8468   4.513   0.375   1.972
 4418W        W 8469   5.736   9.396  10.340
 4419W        W 8470   5.614   0.273   1.381
 4420W        W 8471   7.848   0.998   0.939
 4421W        W 8472   7.743   9.913   8.796
 4422W        W 8473   1.806  10.988   1.631
 4423W        W 8474   1.269   7.992   9.881
 4424W        W 8475   4.546   9.318   3.556
 4425W        W 8476   6.034   6.687   0.859
 4426W        W 8477   8.186   7.067   2.106
 4427W        W 8478   0.323   4.822   2.143
 4428W        W 8479   4.639   9.799  10.255
 4429W        W 8480   0.425   0.265  10.112
 4430W        W 8481  11.240   0.844  11.380
 4431W        W 8482   7.598   9.894   2.353
 4432W        W 8483   5.166  10.026   8.418
 4433W        W 8484   4.047   9.247   8.983
 4434W        W 8485   5.057   2.978   0.069
 4435W        W 8486   3.470   5.998   3.045
 4436W        W 8487  10.363  10.077   0.766
 4437W        W 8488   3.124   5.271  11.359
 4438W        W 8489   0.469  10.850   9.885
 4439W        W 8490   2.310   5.530  11.067
 4440W        W 8491   6.646   0.546  10.694
 4441W        W 8492   1.177   0.512   0.431
 4442W        W 8493   3.325   7.961   1.809
 4443W        W 8494   1.000   2.900   2.147
 4444W        W 8495   2.712   5.564   9.787
 4445W        W 8496   3.487   0.577   1.846
 4446W        W 8497  10.474   1.780   3.456
 4447W        W 8498   7.634   0.410   0.938
 4448W        W 8499  10.750   3.000  10.901
 4449W        W 8500   8.299   1.455   8.967
 4450W        W 8501   7.952   8.694   9.497
 4451W        W 8502   3.360   9.993   9.343
 4452W        W 8503  10.909  10.914  10.581
 4453W        W 8504   0.211   1.957   1.908
 4454W        W 8505   0.506   9.338  10.865
 4455W        W 8506  10.653   2.585   8.729
 4456W        W 8507   6.961  10.390   2.880
 4457W        W 8508   4.573   4.808   0.983
 4458W        W 8509   8.512   3.959  10.856
 4459W        W 8510   8.336   2.148   0.397
 4460W        W 8511   0.828   7.316   2.669
 4461W        W 8512   8.180   3.757   8.651
 4462W        W 8513   3.509   7.617   0.597
 4463W        W 8514   1.624   1.059   9.115
 4464W        W 8515   6.127  10.249   8.732
 4465W        W 8516  11.297   3.787   2.398
 4466W        W 8517  10.406   0.005  10.247
 4467W        W 8518   8.493   8.103   1.161
 4468W        W 8519   0.048   9.506  11.787
 4469W        W 8520   5.261  10.346   1.392
 4470W        W 8521   5.596  10.445  11.729
 4471W        W 8522   2.870   9.573   0.334
 4472W        W 8523   8.147   2.762   0.314
 4473W        W 8524   1.417   4.656   2.879
 4474W        W 8525   2.846   6.399   9.943
 4475W        W 8526  10.829  10.911  11.880
 4476W        W 8527   8.406   9.451   8.508
 4477W        W 8528   9.453   5.345  11.257
 4478W        W 8529   8.949   5.239   3.310
 4479W        W 8530   3.412   2.216   1.710
 4480W        W 8531  10.505  10.884   2.732
 4481W        W 8532  10.416  11.277   9.778
 4482W        W 8533   1.270   4.774  10.322
 4483W        W 8534   2.659   0.044  11.280
 4484W        W 8535   8.132   2.742  11.782
 4485W        W 8536   1.354   6.995  11.066
 4486W        W 8537   1.486   6.293  11.686
 4487W        W 8538   2.181   5.785  11.883
 4488W        W 8539  11.349   9.011  11.790
 4489W        W 8540  10.052   2.969   2.819
 4490W        W 8541   4.515   2.956   3.075
 4491W        W 8542   9.975   3.214   9.270
 4492W        W 8543  10.888   3.143   1.481
 4493W        W 8544   9.195   3.638  11.265
 4494W        W 8545   3.499   2.282  11.080
 4495W        W 8546   7.983   0.292   9.921
 4496W        W 8547   2.117   0.884   9.112
 4497W        W 8548   1.912   3.134   9.664
 4498W        W 8549  10.263  11.260   1.163
 4499W        W 8550   6.659  11.339   1.989
 4500W        W 8551   4.058   2.959   9.104
 4501W        W 8552   3.956   0.973  10.841
 4502W        W 8553   1.700   2.227  11.367
 4503W        W 8554   3.187   0.716  11.826
 4504W        W 8555   3.348   6.552   9.838
 4505W        W 8556   8.723   9.050  10.270
 4506W        W 8557   5.678   4.043   8.194
 4507W        W 8558   5.873  10.994   0.459
 4508W        W 8559   0.143   0.363   2.482
 4509W        W 8560   5.582   9.701   0.687
 4510W        W 8561   1.199   3.737   3.379
 4511W        W 8562   9.026  10.575   0.250
 4512W        W 8563   2.878   1.370   8.984
 4513W        W 8564   9.521   0.980  10.342
 4514W        W 8565   6.992   1.844   1.130
 4515W        W 8566   1.192   0.209   9.122
 4516W        W 8567   8.947   7.169   1.658
 4517W        W 8568  11.213   9.369  10.381
 4518W        W 8569   9.171   9.547   3.284
 4519W        W 8570   3.905   6.961   2.422
 4520W        W 8571   3.752   7.101  10.121
 4521W        W 8572   4.609   6.406   3.979
 4522W        W 8573   4.714   7.528   9.554
 4523W        W 8574   7.037   8.736  11.583
 4524W        W 8575   1.291  10.487  10.876
 4525W        W 8576   5.689   8.485   8.617
 4526W        W 8577   9.381   1.096   0.244
 4527W        W 8578   2.001   6.983   0.822
 4528W        W 8579   1.132   7.125   9.518
 4529W        W 8580   5.823   5.291  10.565
 4530W        W 8581   6.882   8.523   1.050
 4531W        W 8582   4.039   7.535  10.520
 4532W        W 8583   6.016   2.793   1.341
 4533W        W 8584  11.462   5.140  11.586
 4534W        W 8585   6.688   9.549   1.966
 4535W        W 8586   6.868   8.150  11.771
 4536W        W 8587   4.276   6.979   2.085
 4537W        W 8588   6.074   7.391   1.757
 4538W        W 8589   6.210   0.483  10.335
 4539W        W 8590   9.637   7.996   0.793
 4540W        W 8591   9.912   3.821  10.806
 4541W        W 8592  11.196   1.320   0.069
 4542W        W 8593   5.982   2.697   9.083
 4543W        W 8594  11.373   2.483  11.548
 4544W        W 8595   3.116   6.624   2.021
 4545W        W 8596   6.244   9.077   9.102
 4546W        W 8597   6.830   0.254   0.006
 4547W        W 8598   2.288   0.954  10.401
 4548W        W 8599   7.122   0.282  10.488
 4549W        W 8600   8.083   8.423  10.444
 4550W        W 8601   7.957   3.326  10.149
 4551W        W 8602   9.637  10.447   3.412
 4552W        W 8603   2.591   8.103   8.883
 4553W        W 8604   7.902   3.198   9.646
 4554W        W 8605   9.858   6.124   1.162
 4555W        W 8606   2.476   6.539   9.627
 4556W        W 8607   4.594   9.515  11.217
 4557W        W 8608   5.967   4.390   8.468
 4558W        W 8609   7.755   7.931   9.644
 4559W        W 8610   1.209  11.446   0.959
 4560W        W 8611   6.599  10.821   9.808
 4561W        W 8612   4.610   6.307   8.819
 4562W        W 8613   8.571   9.437   2.878
 4563W        W 8614   5.035  11.050  11.567
 4564W        W 8615   4.593  11.233   0.856
 4565W        W 8616   0.034   9.956   3.152
 4566W        W 8617   4.531   3.365   2.758
 4567W        W 8618   3.362   7.162   0.754
 4568W        W 8619   2.983   9.873   2.949
 4569W        W 8620  10.727  10.324   1.835
 4570W        W 8621   7.510   7.205   2.938
 4571W        W 8622  10.487   6.518   9.363
 4572W        W 8623  11.460   6.802  10.986
 4573W        W 8624   1.290   8.767  10.556
 4574W        W 8625   3.427   9.308   8.775
 4575W        W 8626   8.807   3.049  10.058
 4576W        W 8627   9.605   5.761   9.913
 4577W        W 8628   9.474   6.083   3.432
 4578W        W 8629   2.683   2.299  11.373
 4579W        W 8630   1.474   2.662  11.493
 4580W        W 8631   9.886   8.360  10.331
 4581W        W 8632   9.700   4.766   9.730
 4582W        W 8633   8.117   2.267  11.943
 4583W        W 8634   9.827   4.119  10.058
 4584W        W 8635   2.374  10.153  11.883
 4585W        W 8636   1.311   5.557  10.514
 4586W        W 8637   7.469   1.190  10.934
 4587W        W 8638  10.050   2.673   3.278
 4588W        W 8639   2.146   6.763  11.787
 4589W        W 8640   1.705   3.912   3.303
 4590W        W 8641   5.968   9.139   2.111
 4591W        W 8642  10.476   2.713   2.953
 4592W        W 8643  10.863   8.660   0.384
 4593W        W 8644   6.465  10.646   3.276
 4594W        W 8645   9.391   0.842   1.308
 4595W        W 8646   9.304   3.941   3.548
 4596W        W 8647   4.556  10.811  10.190
 4597W        W 8648   6.425  10.742   0.935
 4598W        W 8649   9.651  11.312   8.258
 4599W        W 8650  10.906   4.022   3.285
 4600W        W 8651   0.741   8.604   8.965
 4601W        W 8652   0.394   5.664   2.355
 4602W        W 8653   4.644   3.199  10.877
 4603W        W 8654  10.294  10.087  10.580
 4604W        W 8655  11.374   4.415   1.148
 4605W        W 8656   8.001   9.937   1.868
 4606W        W 8657   9.924   4.385   2.895
 4607W        W 8658   2.216   4.853   1.687
 4608W        W 8659   6.515   0.706   9.977
 4609W        W 8660   8.613   6.639   9.261
 4610W        W 8661   5.901   3.387  10.283
 4611W        W 8662   7.180   6.159   1.188
 4612W        W 8663   4.250   6.692   9.468
 4613W        W 8664   8.667   2.123   3.590
 4614W        W 8665   7.452   4.267  11.498
 4615W        W 8666   4.237   0.552  10.904
 4616W        W 8667   9.277   3.368   0.002
 4617W        W 8668   0.316   2.688  10.073
 4618W        W 8669   3.807   2.201   9.560
 4619W        W 8670   7.429  11.277   9.480
 4620W        W 8671   0.157   2.252  11.941
 4621W        W 8672   8.022  11.283   1.994
 4622W        W 8673   1.451   8.437   9.702
 4623W        W 8674   2.336   7.664   9.734
 4624W        W 8675   4.963   2.833   2.246
 4625W        W 8676   5.566   7.132   1.176
 4626W        W 8677   5.656   4.233   2.703
 4627W        W 8678   8.835   9.475   1.160
 4628W        W 8679   8.322   0.206   2.475
 4629W        W 8680   2.794   4.734  10.886
 4630W        W 8681   5.217   9.272  11.549
 4631W        W 8682   6.055   0.374   2.777
 4632W        W 8683   4.188   7.541   9.537
 4633W        W 8684   2.349   3.475   9.475
 4634W        W 8685  11.284  11.248   1.323
 4635W        W 8686   8.398  10.823   3.347
 4636W        W 8687   1.221   2.663   8.899
 4637W        W 8688   2.627   8.647   2.183
 4638W        W 8689  10.106   9.786   0.445
 4639W        W 8690   1.862   2.031  11.932
 4640W        W 8691   5.784   1.217   8.962
 4641W        W 8692   1.835   3.696  10.503
 4642W        W 8693   4.569   3.165   9.949
 4643W        W 8694   5.684   3.643  11.000
 4644W        W 8695   6.444   8.274  10.857
 4645W        W 8696   9.416  10.826   3.103
 4646W        W 8697   1.232   3.125   8.631
 4647W        W 8698   7.717   8.582   2.284
 4648W        W 8699  10.957   8.635   9.341
 4649W        W 8700   3.125   0.807   0.752
 4650W        W 8701   4.707   9.073  10.955
 4651W        W 8702   3.175   0.867   9.094
 4652W        W 8703   6.342   8.864  11.941
 4653W        W 8704   5.162  10.546   3.339
 4654W        W 8705  11.326   2.595   9.974
 4655W        W 8706   8.086   0.983   9.083
 4656W        W 8707   6.750   7.698  11.556
 4657W        W 8708   2.167   9.814   0.753
 4658W        W 8709   0.390  10.960   2.652
 4659W        W 8710  11.083   2.600  10.479
 4660W        W 8711   7.542   5.985   0.840
 4661W        W 8712   3.175   4.363   1.214
 4662W        W 8713   2.343   4.140  11.600
 4663W        W 8714  10.072  10.251   2.262
 4664W        W 8715   7.169  10.350   2.410
 4665W        W 8716   8.273   8.517   3.396
 4666W        W 8717   1.302   9.279   8.957
 4667W        W 8718  10.921   0.872  11.858
 4668W        W 8719   6.487   0.099   2.883
 4669W        W 8720  10.382   8.972   0.088
 4670W        W 8721   2.693   1.165   0.332
 4671W        W 8722   7.822   7.724   0.883
 4672W        W 8723   7.519   4.623  10.044
 4673W        W 8724   5.685   3.587   0.263
 4674W        W 8725  10.496   3.629   1.300
 4675W        W 8726   8.272   2.462   1.961
 4676W        W 8727  11.496   9.039   9.124
 4677W        W 8728   3.237   3.363   9.461
 4678W        W 8729   1.670  10.686   0.465
 4679W        W 8730   2.284   4.373   1.460
 4680W        W 8731   0.552   7.061   0.239
 4681W        W 8732  11.003   7.185   9.016
 4682W        W 8733  10.120   9.093   0.947
 4683W        W 8734   1.474   3.196   3.608
 4684W        W 8735   4.812   0.473  11.511
 4685W        W 8736   0.832  10.909   0.208
 4686W        W 8737   9.517   2.386   1.007
 4687W        W 8738   2.919  10.945   8.476
 4688W        W 8739   5.008   9.519   3.373
 4689W        W 8740   8.072   8.483   0.410
 4690W        W 8741   0.564   2.313   0.264
 4691W        W 8742   0.816   7.409   3.563
 4692W        W 8743   8.066   2.065   8.563
 4693W        W 8744   8.567   8.466   2.508
 4694W        W 8745   6.162   6.208  10.274
 4695W        W 8746   0.321   5.272  10.271
 4696W        W 8747   9.835   9.439  11.135
 4697W        W 8748  10.285   0.760   2.726
 4698W        W 8749   2.888   5.050   2.183
 4699W        W 8750   4.985  11.061  10.324
 4700W        W 8751   4.045  10.541  10.265
 4701W        W 8752   9.607  10.997  10.345
 4702W        W 8753   2.955   4.975   1.695
 4703W        W 8754  10.120   3.764  11.262
 4704W        W 8755   5.105  10.957   1.521
 4705W        W 8756   7.517   0.589  10.653
 4706W        W 8757   6.731   6.286  10.523
 4707W        W 8758   6.242   7.145   0.855
 4708W        W 8759   0.132   4.117   2.620
 4709W        W 8760   7.029   1.442   2.138
 4710W        W 8761   2.971   6.897   0.993
 4711W        W 8762  10.606   0.793   1.819
 4712W        W 8763   9.614   1.658  11.469
 4713W        W 8764   2.448   7.026   0.550
 4714W        W 8765   3.167   9.601  10.084
 4715W        W 8766  10.475   8.987   9.228
 4716W        W 8767   5.128  10.556  11.588
 4717W        W 8768   4.769   5.244   1.273
 4718W        W 8769   8.095   0.643   2.237
 4719W        W 8770   0.592   8.702   0.924
 4720W        W 8771   3.506   4.639   3.564
 4721W        W 8772   6.104   5.201   1.046
 4722W        W 8773   2.021   9.077   1.330
 4723W        W 8774   4.832   0.992   9.322
 4724W        W 8775   0.903   2.429   0.707
 4725W        W 8776   8.619   4.634   9.527
 4726W        W 8777   7.255   9.972  11.079
 4727W        W 8778   4.263   7.135  10.273
 4728W        W 8779   7.384   0.834  10.217
 4729W        W 8780   2.590   4.269  10.721
 4730W        W 8781   0.456  10.825   1.664
 4731W        W 8782   9.741   6.620  10.856
 4732W        W 8783   5.876   6.893   3.528
 4733W        W 8784   5.634   4.534   3.479
 4734W        W 8785  10.803   9.561  11.309
 4735W        W 8786   1.560   6.901   0.526
 4736W        W 8787  10.342   3.690   2.485
 4737W        W 8788   8.879  10.877   3.099
 4738W        W 8789   6.349   0.663   9.509
 4739W        W 8790   9.875   0.440  11.822
 4740W        W 8791   6.019   2.667   9.950
 4741W        W 8792   3.156   1.023   3.025
 4742W        W 8793   1.614   0.677   9.960
 4743W        W 8794   4.732   5.239   1.791
 4744W        W 8795   1.818   0.470  11.749
 4745W        W 8796   1.697   3.370  11.940
 4746W        W 8797  11.408   6.152  10.942
 4747W        W 8798   0.709   9.596   1.082
 4748W        W 8799   6.104   7.896   1.759
 4749W        W 8800   1.248   8.279  10.702
 4750W        W 8801   2.700   0.377  11.738
 4751W        W 8802   5.549   6.710   0.898
 4752W        W 8803   0.256   6.179   1.016
 4753W        W 8804   1.716   9.546   9.098
 4754W        W 8805   7.760   6.556  11.889
 4755W        W 8806   9.965   7.992   9.179
 4756W        W 8807   1.892   7.187   8.954
 4757W        W 8808   7.364  11.290  10.374
 4758W        W 8809   4.862  10.839   0.004
 4759W        W 8810   1.378  10.676   2.814
 4760W        W 8811   8.494   9.899   3.118
 4761W        W 8812   8.093  11.409   3.442
 4762W        W 8813   8.041   0.228   1.311
 4763W        W 8814   4.696   2.226  10.082
 4764W        W 8815   2.252   5.694   2.222
 4765W        W 8816   4.329   1.896  10.172
 4766W        W 8817   9.449  10.107   9.469
 4767W        W 8818   1.398   1.475   0.403
 4768W        W 8819  10.436   5.484   8.877
 4769W        W 8820   5.691  11.371   2.260
 4770W        W 8821  10.288   5.278   1.299
 4771W        W 8822   3.632   8.245   2.696
 4772W        W 8823   2.626   9.155   2.431
 4773W        W 8824   5.009   6.173   1.413
 4774W        W 8825  11.435   4.711  10.076
 4775W        W 8826   2.486   7.181   3.646
 4776W        W 8827   0.708   7.577  10.201
 4777W        W 8828   8.050   0.476   8.920
 4778W        W 8829   1.867  11.307   3.471
 4779W        W 8830   1.064  10.500   1.043
 4780W        W 8831   0.179   9.356   0.491
 4781W        W 8832   9.071   3.429   1.863
 4782W        W 8833   9.674   3.705   0.119
 4783W        W 8834   5.970   1.681  11.816
 4784W        W 8835   9.960   5.254   1.691
 4785W        W 8836   6.090   6.407   1.748
 4786W        W 8837  10.425   5.815  10.984
 4787W        W 8838   6.604   4.326   1.437
 4788W        W 8839   8.210   3.723   2.811
 4789W        W 8840   0.810  11.306   3.606
 4790W        W 8841   3.903   9.828   3.560
 4791W        W 8842  11.271   1.214  10.370
 4792W        W 8843   5.340  10.693   0.083
 4793W        W 8844   6.253   1.538  11.411
 4794W        W 8845   3.221   7.197  11.882
 4795W        W 8846   5.907  11.088  10.407
 4796W        W 8847  11.097  11.226   2.212
 4797W        W 8848   6.066   7.591   0.731
 4798W        W 8849   6.531   9.847   0.850
 4799W        W 8850   1.928   3.289   2.352
 4800W        W 8851   2.890   2.256   1.701
 4801W        W 8852  10.039   9.912   1.355
 4802W        W 8853   2.034  10.477   0.080
 4803W        W 8854   6.178   8.689   9.465
 4804W        W 8855   0.821   2.852   2.600
 4805W        W 8856  10.866   2.248   9.205
 4806W        W 8857   4.235   1.092   3.678
 4807W        W 8858   2.272   3.115  11.274
 4808W        W 8859  10.716   0.079   2.255
 4809W        W 8860   2.541  11.366  11.790
 4810W        W 8861   1.041   1.387   2.734
 4811W        W 8862   1.305   1.048  10.089
 4812W        W 8863   3.106   1.184   0.016
 4813W        W 8864   8.545   3.576   0.408
 4814W        W 8865  11.483   3.869   0.496
 4815W        W 8866  10.440   5.309   9.910
 4816W        W 8867   2.236   5.223   8.584
 4817W        W 8868   2.665   5.061   3.183
 4818W        W 8869   6.543   3.957  11.804
 4819W        W 8870   8.450   9.330   2.404
 4820W        W 8871   8.197   2.350   1.464
 4821W        W 8872   0.200   9.525   0.969
 4822W        W 8873   3.224   1.597  10.903
 4823W        W 8874   1.986  11.465  10.454
 4824W        W 8875   7.040   9.312   8.445
 4825W        W 8876   7.275   4.269   2.759
 4826W        W 8877   9.971  11.445  11.039
 4827W        W 8878   8.383   0.823  11.686
 4828W        W 8879   4.680   3.735   9.061
 4829W        W 8880   6.037   9.612   3.074
 4830W        W 8881   9.063   1.727   9.803
 4831W        W 8882   5.741   6.427   3.101
 4832W        W 8883   6.929   2.194  10.493
 4833W        W 8884   5.457   4.507   8.318
 4834W        W 8885   2.724   7.080   8.579
 4835W        W 8886   4.671   4.831  10.489
 4836W        W 8887   7.924   6.216   9.753
 4837W        W 8888   3.564  11.266   2.149
 4838W        W 8889  11.261   2.029   9.481
 4839W        W 8890  10.284   0.500  10.236
 4840W        W 8891  10.405   8.343   0.483
 4841W        W 8892   4.527   2.388   0.511
 4842W        W 8893   6.999   8.916   1.759
 4843W        W 8894   5.108   2.606   8.963
 4844W        W 8895   6.970   2.751   2.272
 4845W        W 8896   2.583   0.935   0.790
 4846W        W 8897  10.557   3.506  11.275
 4847W        W 8898   9.631   4.074   0.455
 4848W        W 8899   6.099   8.164   1.318
 4849W        W 8900   3.110  11.300   0.966
 4850W        W 8901   0.271  10.031   0.906
 4851W        W 8902   5.691  10.484   1.641
 4852W        W 8903   6.930   2.931   0.973
 4853W        W 8904  10.430   4.875  10.832
 4854W        W 8905   3.519  10.844   1.297
 4855W        W 8906   8.043   2.305   2.410
 4856W        W 8907   8.350   0.212   1.967
 4857W        W 8908   2.419   5.122  10.801
 4858W        W 8909   1.914   9.653   2.045
 4859W        W 8910   2.279  10.521   9.631
 4860W        W 8911   3.042   9.454   2.657
 4861W        W 8912   6.812   2.630   2.744
 4862W        W 8913  10.678   5.487   3.128
 4863W        W 8914   6.819   8.009   1.073
 4864W        W 8915   3.907   8.768   0.450
 4865W        W 8916   8.560  10.852   9.071
 4866W        W 8917   9.943  10.944  10.894
 4867W        W 8918   0.252  11.408   8.811
 4868W        W 8919   9.395   7.499   2.559
 4869W        W 8920  11.441   6.550   1.341
 4870W        W 8921  10.484   3.203   3.208
 4871W        W 8922   4.849   1.790   2.363
 4872W        W 8923  10.342   4.651  11.893
 4873W        W 8924   7.586   2.033   3.024
 4874W        W 8925   6.111   8.430   1.752
 4875W        W 8926  10.825   0.617   2.312
 4876W        W 8927   3.900   1.408   2.815
 4877W        W 8928   1.451   6.095   0.560
 4878W        W 8929   6.173   5.048   0.022
 4879W        W 8930   7.041   5.165   1.152
 4880W        W 8931   2.252  10.284   1.456
 4881W        W 8932   8.849   1.322   2.244
 4882W        W 8933   8.569  10.377   9.928
 4883W        W 8934   0.742   0.583  11.429
 4884W        W 8935   1.505   4.109   2.320
 4885W        W 8936   4.086   6.337   8.079
 4886W        W 8937   8.872   2.090   3.118
 4887W        W 8938   2.152   2.363   2.306
 4888W        W 8939  10.587   0.280   9.823
 4889W        W 8940   0.767   9.487  10.401
 4890W        W 8941   3.590   7.462  11.263
 4891W        W 8942   7.731   5.071  11.048
 4892W        W 8943   3.137   6.773   8.518
 4893W        W 8944   0.921   7.968   0.584
 4894W        W 8945   6.004   2.569   3.610
 4895W        W 8946   3.180   7.615  10.524
 4896W        W 8947   8.364  10.874  10.030
 4897W        W 8948   9.553  10.797   8.965
 4898W        W 8949   3.503   8.891   9.524
 4899W        W 8950   7.792   3.612   1.894
 4900W        W 8951   2.949   1.154  10.922
 4901W        W 8952   2.313   7.448  11.065
 4902W        W 8953   7.956   5.511  10.313
 4903W        W 8954   5.197   8.608   1.648
 4904W        W 8955  11.461   2.075   9.946
 4905W        W 8956   6.608   1.438   0.360
 4906W        W 8957   2.609   5.763   0.251
 4907W        W 8958   0.866   3.598  11.951
 4908W        W 8959   3.674   6.295   9.013
 4909W        W 8960   0.890   9.553   9.087
 4910W        W 8961  10.145   6.575   3.831
 4911W        W 8962   4.659   7.473  11.070
 4912W        W 8963   7.125   8.058   0.226
 4913W        W 8964  10.008   5.177   9.555
 4914W        W 8965   0.315   1.659   2.300
 4915W        W 8966   2.869   1.419   2.835
 4916W        W 8967   1.530  10.432   2.315
 4917W        W 8968  11.425   7.004  11.453
 4918W        W 8969   9.513   3.444   2.154
 4919W        W 8970   8.958   0.892   9.320
 4920W        W 8971   3.680  10.349   1.170
 4921W        W 8972  10.912   2.206  11.442
 4922W        W 8973  10.440   0.100   9.357
 4923W        W 8974   9.247   6.089   2.429
 4924W        W 8975   6.874   7.500   3.183
 4925W        W 8976   6.265  11.319   1.657
 4926W        W 8977   6.402   5.865   9.624
 4927W        W 8978   7.266   2.743   1.370
 4928W        W 8979  10.230   6.504   1.920
 4929W        W 8980   0.764   5.762  11.041
 4930W        W 8981   5.448   2.829   2.419
 4931W        W 8982   7.523   0.470   0.436
 4932W        W 8983   1.126   6.024   0.943
 4933W        W 8984   3.638   8.526   3.142
 4934W        W 8985  10.207   1.155   0.036
 4935W        W 8986   2.763   1.902   0.683
 4936W        W 8987   3.192  10.482   9.558
 4937W        W 8988   3.921   6.966  11.166
 4938W        W 8989   7.434   1.961  10.511
 4939W        W 8990   4.233   2.399   8.829
 4940W        W 8991   3.400   9.871  11.936
 4941W        W 8992   8.761   3.835   1.709
 4942W        W 8993   8.032   6.499   2.768
 4943W        W 8994   1.152  10.439  11.986
 4944W        W 8995  10.444   7.479   0.162
 4945W        W 8996  10.859   1.561   2.455
 4946W        W 8997   9.934   8.943   0.475
 4947W        W 8998   9.627   4.210   8.994
 4948W        W 8999   2.617   1.352  11.256
 4949W        W 9000   4.211  11.027   1.694
 4950W        W 9001   7.018   0.810   3.124
 4951W        W 9002   8.534   8.826   1.711
 4952W        W 9003   1.662   3.079   2.759
 4953W        W 9004   0.007   2.873  10.455
 4954W        W 9005   8.881   7.824  10.623
 4955W        W 9006   5.910  10.435   1.180
 4956W        W 9007   2.808  11.379   2.674
 4957W        W 9008   2.600   2.440   1.294
 4958W        W 9009  10.328   7.420   2.399
 4959W        W 9010   9.332   4.806   2.281
 4960W        W 9011   2.914   5.056   1.207
 4961W        W 9012  10.371   1.657  10.958
 4962W        W 9013  10.911   6.122   3.238
 4963W        W 9014   1.264   4.295   9.399
 4964W        W 9015   1.352   0.371   2.033
 4965W        W 9016   7.222   7.914  11.492
 4966W        W 9017   3.821   8.154   1.898
 4967W        W 9018   1.712   8.127   2.272
 4968W        W 9019   5.886   7.250  11.767
 4969W        W 9020   0.648   3.246   3.493
 4970W        W 9021   2.167   5.819   3.273
 4971W        W 9022  10.319  11.398   2.532
 4972W        W 9023   6.457   0.948  10.425
 4973W        W 9024   6.500   6.211   2.025
 4974W        W 9025  10.132   5.111  11.927
 4975W        W 9026  11.002   4.974  10.800
 4976W        W 9027   8.846   6.505   8.285
 4977W        W 9028   1.751   4.976   0.771
 4978W        W 9029   6.463   5.711   0.445
 4979W        W 9030   6.672   4.944  11.972
 4980W        W 9031   6.230  10.423   1.628
 4981W        W 9032  11.066   0.497   9.899
 4982W        W 9033  10.146   3.809   0.250
 4983W        W 9034   5.233   6.715   2.259
 4984W        W 9035   9.354   5.958   9.493
 4985W        W 9036   0.393   9.026  11.601
 4986W        W 9037   2.310   3.742   0.329
 4987W        W 9038   4.940   9.969   9.225
 4988W        W 9039   9.096   5.511   9.554
 4989W        W 9040   1.735   6.742   9.889
 4990W        W 9041   4.753  11.475  11.564
 4991W        W 9042   7.042   5.541  11.204
 4992W        W 9043   2.499   4.141   2.270
 4993W        W 9044   6.646  11.038   3.547
 4994W        W 9045   7.902   5.912  11.446
 4995W        W 9046   6.731   7.976   0.572
 4996W        W 9047   3.518   7.929   2.285
 4997W        W 9048   8.386   6.058  11.408
 4998W        W 9049  11.422   6.439   9.857
 4999W        W 9050   2.000   2.663   9.431
 5000W        W 9051   7.337   9.688   8.593
 5001W        W 9052   5.795   6.671   1.380
 5002W        W 9053  11.324   2.137   8.985
 5003W        W 9054   8.261  10.568  11.435
 5004W        W 9055   0.175   8.062  11.285
 5005W        W 9056   9.990   5.158   3.511
 5006W        W 9057   0.935   9.031   3.683
 5007W        W 9058   2.875   6.538  11.924
 5008W        W 9059   7.294  10.446  11.338
 5009W        W 9060   3.968   0.223   3.599
 5010W        W 9061   8.052   6.852   1.223
 5011W        W 9062   8.615   4.044   2.702
 5012W        W 9063   3.615  11.229   0.889
 5013W        W 9064   0.694   7.750   2.429
 5014W        W 9065   5.386   9.434   3.692
 5015W        W 9066   0.995   9.617  10.884
 5016W        W 9067   7.391   2.604   9.942
 5017W        W 9068   4.162   6.057   1.672
 5018W        W 9069   7.604  11.045   2.708
 5019W        W 9070   8.569   7.413  10.699
 5020W        W 9071   6.541   6.123   8.212
 5021W        W 9072   2.679   6.462   0.949
 5022W        W 9073   3.269   2.619  11.994
 5023W        W 9074   6.541   8.461   9.180
 5024W        W 9075   2.610  11.117   1.081
 5025W        W 9076   6.674  10.305   2.458
 5026W        W 9077   3.078   1.188   1.069
 5027W        W 9078   8.716  10.310   9.020
 5028W        W 9079   5.447   3.114   9.283
 5029W        W 9080   5.939   5.799  10.508
 5030W        W 9081  10.035   3.701  11.752
 5031W        W 9082  10.013   5.587   9.163
 5032W        W 9083   8.515   2.587  10.101
 5033W        W 9084   5.291   2.143  11.489
 5034W        W 9085   0.545   2.325  10.381
 5035W        W 9086   1.351   9.503  11.559
 5036W        W 9087   6.674   8.386   2.291
 5037W        W 9088   8.173   9.482   3.226
 5038W        W 9089   9.869   8.645   2.834
 5039W        W 9090   2.519   6.672   3.460
 5040W        W 9091   1.377   1.445   1.832
 5041W        W 9092   9.806   9.333   2.155
 5042W        W 9093   5.314   5.119  11.603
 5043W        W 9094   6.708  11.442   1.431
 5044W        W 9095   8.924   8.243   8.153
 5045W        W 9096   2.742   7.913   9.876
 5046W        W 9097   1.719   1.555   2.570
 5047W        W 9098   5.784   9.156   0.556
 5048W        W 9099  10.925   5.547  11.880
 5049W        W 9100   1.493   4.535   9.014
 5050W        W 9101   5.592   6.151  10.664
 5051W        W 9102  11.236  10.749   9.467
 5052W        W 9103   9.354   1.830   1.061
 5053W        W 9104   5.233   1.371   8.581
 5054W        W 9105   9.631   3.793   9.491
 5055W        W 9106   2.498   2.928  10.515
 5056W        W 9107   3.750   8.458   9.235
 5057W        W 9108  11.127   1.491   0.962
 5058W        W 9109   8.616  10.826  10.475
 5059W        W 9110   5.586   7.648   8.288
 5060W        W 9111   1.388   5.681   2.751
 5061W        W 9112   7.577  10.928   1.293
 5062W        W 9113   0.476   1.472   0.304
 5063W        W 9114   4.516   1.275  11.990
 5064W        W 9115   0.264   7.503   2.514
 5065W        W 9116   2.469   5.297   0.517
 5066W        W 9117   7.806   5.500  11.711
 5067W        W 9118   7.592   8.916  10.183
 5068W        W 9119   3.071   1.836  10.052
 5069W        W 9120   4.004   0.471   1.946
 5070W        W 9121   7.496   0.678  11.610
 5071W        W 9122   4.082   4.821   0.808
 5072W        W 9123   9.589   1.370   2.926
 5073W        W 9124   6.645   7.544   9.173
 5074W        W 9125   3.263   7.801   8.919
 5075W        W 9126  11.470   0.792  10.814
 5076W        W 9127   1.446   5.096   9.002
 5077W        W 9128   7.154  10.414   3.340
 5078W        W 9129   1.344   2.320   2.887
 5079W        W 9130   8.784   3.130  11.002
 5080W        W 9131   1.768   7.641  11.861
 5081W        W 9132   4.066   2.201   2.197
 5082W        W 9133  10.113   1.721  11.403
 5083W        W 9134   3.354   8.672   2.724
 5084W        W 9135   7.834   7.448   3.261
 5085W        W 9136   4.593   4.399  11.317
 5086W        W 9137  11.299   9.254  11.277
 5087W        W 9138   8.559   7.186  10.234
 5088W        W 9139   3.453   7.067  10.970
 5089W        W 9140   1.943   0.256  10.004
 5090W        W 9141   2.927  10.052   0.515
 5091W        W 9142   0.498  11.040   9.103
 5092W        W 9143   1.775   6.440   2.451
 5093W        W 9144   3.602   8.861  10.016
 5094W        W 9145   8.541   2.846   3.157
 5095W        W 9146   6.999   0.708  11.776
 5096W        W 9147   9.342  11.164  11.701
 5097W        W 9148   9.342  11.126   9.316
 5098W        W 9149   2.660   5.565   9.262
 5099W        W 9150   1.379   7.893  10.402
 5100W        W 9151   4.339   9.090   8.558
 5101W        W 9152  11.120   9.595   3.094
 5102W        W 9153   0.789   6.606   0.281
 5103W        W 9154   3.807   8.020   0.511
 5104W        W 9155   2.464   9.617  11.139
 5105W        W 9156   9.008   6.290   1.792
 5106W        W 9157   4.352   7.115   2.613
 5107W        W 9158  10.790   8.242   3.141
 5108W        W 9159   6.628   9.405   0.558
 5109W        W 9160   1.353   0.468   0.936
 5110W        W 9161   4.540   3.021   1.929
 5111W        W 9162   8.599   3.629   8.396
 5112W        W 9163   4.478   5.991  10.650
 5113W        W 9164   4.498   1.443   3.355
 5114W        W 9165   3.451   9.159   2.817
 5115W        W 9166   0.820   5.307   3.127
 5116W        W 9167   0.353  11.042   3.656
 5117W        W 9168   0.236   9.454  10.423
 5118W        W 9169   1.804  10.898   2.628
 5119W        W 9170   1.977   3.200   3.431
 5120W        W 9171  11.454  10.806   2.339
 5121W        W 9172   0.386   5.408  11.658
 5122W        W 9173   1.747  11.371   1.963
 5123W        W 9174   3.746   7.619   1.881
 5124W        W 9175   7.990   6.938  11.525
 5125W        W 9176   4.590   4.366   1.705
 5126W        W 9177  10.933   0.999  10.039
 5127W        W 9178  10.624   2.243  11.877
 5128W        W 9179   5.474   5.219  10.207
 5129W        W 9180   7.446   8.853  10.669
 5130W        W 9181   4.033   3.115  10.517
 5131W        W 9182   0.745   4.329   9.046
 5132W        W 9183   3.248   6.688   9.358
 5133W        W 9184   4.497   3.755   2.326
 5134W        W 9185  10.872   2.128   3.552
 5135W        W 9186   6.526   9.810   2.353
 5136W        W 9187   0.962   1.602   3.306
 5137W        W 9188   0.948   1.901  11.495
 5138W        W 9189   1.377   9.914  11.247
 5139W        W 9190   2.640   3.788   9.939
 5140W        W 9191   3.389   3.201  11.971
 5141W        W 9192   0.999   7.932   2.860
 5142W        W 9193   8.179   4.634   3.141
 5143W        W 9194   5.996   2.841   8.586
 5144W        W 9195  10.393   6.996   3.212
 5145W        W 9196   6.202   1.789   0.268
 5146W        W 9197  11.465   9.218   1.779
 5147W        W 9198   0.423   9.570   2.473
 5148W        W 9199   5.008   4.307   3.593
 5149W        W 9200   1.569   1.903   1.701
 5150W        W 9201   2.194   0.800   1.192
 5151W        W 9202   5.230   1.249   1.617
 5152W        W 9203   3.050   5.368   3.367
 5153W        W 9204   6.048   7.435  10.769
 5154W        W 9205  10.851   2.773  10.062
 5155W        W 9206   6.174   2.142  11.867
 5156W        W 9207   4.599   4.841  11.961
 5157W        W 9208  10.623   1.381   3.225
 5158W        W 9209   0.893   8.431   1.247
 5159W        W 9210   5.705   0.934   9.392
 5160W        W 9211   6.889   4.070   1.840
 5161W        W 9212   3.587   5.201   8.327
 5162W        W 9213   8.839  11.379   1.170
 5163W        W 9214   3.718   7.457  11.748
 5164W        W 9215   9.066   2.288  10.991
 5165W        W 9216  10.002   9.847   9.332
 5166W        W 9217   4.215   5.170   1.585
 5167W        W 9218   2.486  10.345   2.579
 5168W        W 9219   1.299   4.736   0.696
 5169W        W 9220   1.250   8.132   1.044
 5170W        W 9221   1.914   4.094  10.116
 5171W        W 9222   2.710   4.633   2.453
 5172W        W 9223   7.909   8.808  11.580
 5173W        W 9224   8.554   5.754   2.605
 5174W        W 9225  10.263   7.016   0.938
 5175W        W 9226   0.933   4.169   3.527
 5176W        W 9227   0.916   5.522   2.519
 5177W        W 9228   8.774   6.094   1.015
 5178W        W 9229   1.685   4.173   2.824
 5179W        W 9230   2.091   9.435   3.058
 5180W        W 9231   5.129   7.009   0.214
 5181W        W 9232  10.729   2.674   1.666
 5182W        W 9233   9.534   5.754   9.010
 5183W        W 9234  10.865  10.426   8.745
 5184W        W 9235   3.607   4.206   1.461
 5185W        W 9236   0.419   5.483  10.766
 5186W        W 9237   6.086   7.633   1.247
 5187W        W 9238   9.670   1.191   3.388
 5188W        W 9239   3.358   4.292   9.906
 5189W        W 9240  10.845   0.961   3.362
 5190W        W 9241   8.101   1.916   9.103
 5191W        W 9242   6.072   0.862   3.512
 5192W        W 9243   0.717  10.855  10.326
 5193W        W 9244   6.912   9.607   8.865
 5194W        W 9245  11.080   2.485   2.633
 5195W        W 9246   9.222   5.351   9.088
 5196W        W 9247   0.932   4.155  10.759
 5197W        W 9248   9.538  10.388   2.384
 5198W        W 9249   3.843   6.459  11.296
 5199W        W 9250   1.831   7.543  10.938
 5200W        W 9251   3.717   6.122   2.004
 5201W        W 9252   2.680   1.768   9.290
 5202W        W 9253   8.924   4.151  10.173
 5203W        W 9254   4.954   3.065   9.165
 5204W        W 9255   6.401   6.209   0.483
 5205W        W 9256   8.638   1.888   9.049
 5206W        W 9257   9.392  10.850   2.227
 5207W        W 9258   9.114   5.203   0.025
 5208W        W 9259   4.651   9.493   0.266
 5209W        W 9260   3.391   7.039   2.306
 5210W        W 9261   2.008   6.332   9.728
 5211W        W 9262   6.783  11.130   0.915
 5212W        W 9263   4.000   0.993   9.976
 5213W        W 9264   6.116   0.524   8.778
 5214W        W 9265   9.117   6.607  11.673
 5215W        W 9266   9.568   1.466   1.972
 5216W        W 9267   8.974   8.525   8.582
 5217W        W 9268   6.538   6.783   3.445
 5218W        W 9269  10.412   5.224   0.418
 5219W        W 9270   0.808   7.120  10.509
 5220W        W 9271   2.255   5.572  10.583
 5221W        W 9272   1.512   4.975   9.848
 5222W        W 9273   0.262   2.141  11.450
 5223W        W 9274   9.419   0.016   2.934
 5224W        W 9275   7.980   1.195   0.171
 5225W        W 9276   3.365   7.068   1.265
 5226W        W 9277   3.543   8.459   1.134
 5227W        W 9278   8.936   7.310  11.543
 5228W        W 9279   2.462   4.228   0.100
 5229W        W 9280   0.872   0.342   1.312
 5230W        W 9281   5.288   1.111   9.043
 5231W        W 9282   7.954   9.348  10.886
 5232W        W 9283   1.246   8.661  11.076
 5233W        W 9284   2.640   0.105   2.219
 5234W        W 9285   3.191  10.847   0.136
 5235W        W 9286   0.642   5.482   0.435
 5236W        W 9287   1.105   1.837   9.505
 5237W        W 9288   2.086   2.908  10.827
 5238W        W 9289   8.473   4.928   2.319
 5239W        W 9290   6.647   0.429  11.209
 5240W        W 9291   9.366   9.853  11.962
 5241W        W 9292   9.682   8.539   1.145
 5242W        W 9293  11.143   8.195  10.685
 5243W        W 9294  11.042   3.970  10.983
 5244W        W 9295   9.315   2.179  11.499
 5245W        W 9296   3.210   4.783   2.516
 5246W        W 9297  11.223   0.474   0.083
 5247W        W 9298   1.485   2.734   9.438
 5248W        W 9299   9.812   2.134  11.482
 5249W        W 9300   7.598   4.126  10.171
 5250W        W 9301   0.667   7.609   3.059
 5251W        W 9302   0.950   2.799  11.357
 5252W        W 9303   6.096   2.045  10.842
 5253W        W 9304   7.239   1.506  11.336
 5254W        W 9305   1.817   8.174   3.098
 5255W        W 9306   3.926   2.797   1.154
 5256W        W 9307   8.537  10.020  11.806
 5257W        W 9308  10.408   1.273   1.789
 5258W        W 9309   1.723   0.011   0.947
 5259W        W 9310   9.260   7.614   1.554
 5260W        W 9311   9.541   8.940   9.874
 5261W        W 9312   9.121   5.412   1.895
 5262W        W 9313   3.711   3.095   9.594
 5263W        W 9314   1.720   0.722   3.072
 5264W        W 9315   7.083   6.320  10.150
 5265W        W 9316   5.144   0.744  10.751
 5266W        W 9317   2.859   2.813   1.502
 5267W        W 9318   1.349   8.906   9.508
 5268W        W 9319   4.400   9.963  11.668
 5269W        W 9320   9.363   3.851   9.938
 5270W        W 9321   2.775   0.074   1.225
 5271W        W 9322  10.780   5.394  11.013
 5272W        W 9323   1.340   7.576   0.360
 5273W        W 9324   0.037   4.787  11.026
 5274W        W 9325  11.041   3.517  11.809
 5275W        W 9326   1.224   4.668   2.339
 5276W        W 9327   4.951  10.385   9.551
 5277W        W 9328   4.284   7.070   3.177
 5278W        W 9329   3.418   6.667   0.727
 5279W        W 9330   5.724   8.523  11.341
 5280W        W 9331   9.633   5.126  11.947
 5281W        W 9332   3.396   0.237  10.947
 5282W        W 9333   6.452   3.591   2.388
 5283W        W 9334   9.119   2.432  11.905
 5284W        W 9335   2.745  10.287   9.660
 5285W        W 9336   4.851  10.093  11.446
 5286W        W 9337   8.947   2.916   1.783
 5287W        W 9338   2.871   9.437  10.867
 5288W        W 9339  11.289   1.212   3.375
 5289W        W 9340   3.439   8.836  11.077
 5290W        W 9341   0.368   4.475  10.718
 5291W        W 9342   6.197   8.662   1.198
 5292W        W 9343   2.289   5.655  10.095
 5293W        W 9344   0.472   1.785   1.379
 5294W        W 9345   0.789   6.575   9.532
 5295W        W 9346   0.916   1.382   2.243
 5296W        W 9347  10.781   4.165  11.833
 5297W        W 9348   1.212   9.749  10.328
 5298W        W 9349   4.339   6.537  11.330
 5299W        W 9350   9.145   7.101   2.359
 5300W        W 9351   1.225   6.249   9.459
 5301W        W 9352   3.347  11.291  10.144
 5302W        W 9353   5.129   0.302  10.998
 5303W        W 9354  11.451   1.685   3.194
 5304W        W 9355   1.419   3.143   2.322
 5305W        W 9356  10.835   7.411   0.498
 5306W        W 9357  10.749   6.576   0.409
 5307W        W 9358   5.164   9.937   1.706
 5308W        W 9359   9.481   4.881  11.073
 5309W        W 9360   7.015   0.993   0.807
 5310W        W 9361   2.078   1.548  11.081
 5311W        W 9362   6.186   0.892   1.923
 5312W        W 9363   7.954   1.378  10.907
 5313W        W 9364   1.600   4.202  10.546
 5314W        W 9365  10.807   8.621   2.726
 5315W        W 9366   5.285   0.680   0.290
 5316W        W 9367   3.599   9.631   1.599
 5317W        W 9368   3.351   6.681  11.849
 5318W        W 9369   8.392   1.676  10.837
 5319W        W 9370   1.489   4.516  11.306
 5320W        W 9371  10.394   1.573  11.832
 5321W        W 9372   5.242   0.352   9.987
 5322W        W 9373   9.903   2.693   9.822
 5323W        W 9374   6.629   4.052   1.000
 5324W        W 9375   1.328   6.089  10.365
 5325W        W 9376   7.677   2.161  10.090
 5326W        W 9377  10.607  11.071   2.261
 5327W        W 9378   9.749   5.263  10.841
 5328W        W 9379   0.017   5.561   2.788
 5329W        W 9380   5.830   6.071   2.700
 5330W        W 9381   6.825   9.771   3.654
 5331W        W 9382   3.901   4.208   2.308
 5332W        W 9383   9.850  11.488   2.686
 5333W        W 9384   4.683   7.349   1.987
 5334W        W 9385   3.882   0.576   0.440
 5335W        W 9386   8.695   7.388  11.988
 5336W        W 9387   5.132   3.500   0.014
 5337W        W 9388   1.425   7.538   9.488
 5338W        W 9389  11.371   5.574  10.229
 5339W        W 9390   2.387   2.984   9.403
 5340W        W 9391   8.994   1.463   0.225
 5341W        W 9392   8.024   7.442  11.580
 5342W        W 9393   8.075   8.783   2.993
 5343W        W 9394   7.686   1.523  10.494
 5344W        W 9395   5.702   2.362  11.275
 5345W        W 9396   7.982   1.892  11.068
 5346W        W 9397   1.403   0.048   0.497
 5347W        W 9398   6.640   4.995  10.562
 5348W        W 9399   1.002   1.972  10.342
 5349W        W 9400   1.760   3.474   3.060
 5350W        W 9401   0.052   9.003   0.816
 5351W        W 9402  10.125   4.225  11.017
 5352W        W 9403   3.030   7.895   8.040
 5353W        W 9404   2.035   5.100   0.352
 5354W        W 9405  10.404   1.438   2.271
 5355W        W 9406   1.371   0.282   2.542
 5356W        W 9407   0.050   5.293   8.543
 5357W        W 9408   2.698   0.883  11.899
 5358W        W 9409   2.741   0.593   2.396
 5359W        W 9410   4.701   7.924  10.815
 5360W        W 9411   0.460   4.537  11.226
 5361W        W 9412   0.962   5.800   3.000
 5362W        W 9413   9.039  10.878   1.844
 5363W        W 9414   3.749  11.472   2.802
 5364W        W 9415   6.436   1.508  11.887
 5365W        W 9416   6.630  10.432   8.932
 5366W        W 9417   4.313   4.682   9.143
 5367W        W 9418   7.214   3.365  10.557
 5368W        W 9419   9.422  10.239   0.873
 5369W        W 9420   9.055  10.773   9.061
 5370W        W 9421   1.877  11.276   9.397
 5371W        W 9422  10.243   9.622  11.975
 5372W        W 9423   0.395   4.622   0.694
 5373W        W 9424   6.074   4.581   2.677
 5374W        W 9425   8.021  10.043   9.575
 5375W        W 9426  11.427   0.123  10.110
 5376W        W 9427   4.415   2.793  10.632
 5377W        W 9428   2.821  10.803   9.437
 5378W        W 9429   5.522   4.602   9.617
 5379W        W 9430  10.354   2.925  10.026
 5380W        W 9431   5.074   0.347  11.948
 5381W        W 9432   7.511   4.013   1.073
 5382W        W 9433   6.804   7.114  10.395
 5383W        W 9434   4.594   4.640   2.524
 5384W        W 9435   7.126   5.295  10.353
 5385W        W 9436   6.239   3.865  11.420
 5386W        W 9437   2.922   6.613  11.416
 5387W        W 9438   9.928   9.604   1.733
 5388W        W 9439   9.045   8.952   8.883
 5389W        W 9440   8.963  11.474  11.966
 5390W        W 9441   7.525   9.688   0.497
 5391W        W 9442   2.663   1.433   0.843
 5392W        W 9443   1.197   8.377   0.255
 5393W        W 9444   8.099   2.376  11.008
 5394W        W 9445   1.151   9.158  11.042
 5395W        W 9446   5.710   1.474   1.428
 5396W        W 9447   6.195   3.814   3.315
 5397W        W 9448   4.147   8.239  10.738
 5398W        W 9449   8.090   6.769   9.576
 5399W        W 9450   3.862   8.672   1.834
 5400W        W 9451   8.989  11.408   3.184
 5401W        W 9452   4.168   8.861   1.230
 5402W        W 9453   6.105   1.912  10.359
 5403W        W 9454   8.669   9.498   3.362
 5404W        W 9455   3.645   7.522   9.721
 5405W        W 9456   3.574   0.975   2.675
 5406W        W 9457   1.218  10.844  10.332
 5407W        W 9458   8.859  10.392   1.140
 5408W        W 9459  11.312   4.693   2.160
 5409W        W 9460   5.218   2.741   8.476
 5410W        W 9461   4.273   5.205   1.078
 5411W        W 9462   1.723   6.453   3.036
 5412W        W 9463   0.231  11.438   9.319
 5413W        W 9464   3.243   1.267  10.506
 5414W        W 9465  10.002   8.613   0.074
 5415W        W 9466   3.429  10.946   8.456
 5416W        W 9467   5.426   9.508   1.464
 5417W        W 9468   5.504   8.945  10.358
 5418W        W 9469   6.068   4.536   9.742
 5419W        W 9470   2.922   8.128  11.457
 5420W        W 9471   8.478  11.252   8.747
 5421W        W 9472   0.838   2.362  10.806
 5422W        W 9473   9.467   4.534   0.468
 5423W        W 9474   2.445   3.234   2.295
 5424W        W 9475  10.048   2.231   2.310
 5425W        W 9476   7.302   6.159   8.793
 5426W        W 9477  10.680   0.294   2.730
 5427W        W 9478   7.564   0.451   1.440
 5428W        W 9479   7.600   9.935   9.291
 5429W        W 9480   3.663   2.692   2.856
 5430W        W 9481  10.438   6.001   8.986
 5431W        W 9482   0.399   3.705   9.410
 5432W        W 9483   8.735   6.347  10.014
 5433W        W 9484  10.978   4.601   9.879
 5434W        W 9485   5.028   4.762   0.663
 5435W        W 9486   3.854   9.905   3.055
 5436W        W 9487   9.019   3.810   2.886
 5437W        W 9488   2.169   0.889   2.636
 5438W        W 9489   7.032   5.492   1.548
 5439W        W 9490   0.023   6.135   0.541
 5440W        W 9491   4.678   9.848   3.121
 5441W        W 9492  10.690   3.101  11.552
 5442W        W 9493   9.905   2.247   9.550
 5443W        W 9494   3.159   4.248   8.876
 5444W        W 9495  10.042   0.365  11.347
 5445W        W 9496   8.068   2.649   3.361
 5446W        W 9497   3.943   5.254  11.089
 5447W        W 9498   1.164   4.257  10.302
 5448W        W 9499   0.457   1.222   2.074
 5449W        W 9500   4.317   0.253  11.519
 5450W        W 9501   3.355   0.337  10.425
 5451W        W 9502   5.861   0.549   1.757
 5452W        W 9503   5.272   7.891   2.211
 5453W        W 9504   4.646   8.531  11.936
 5454W        W 9505   8.435   7.193   1.146
 5455W        W 9506   9.479   6.546   2.592
 5456W        W 9507   8.296   3.826   9.148
 5457W        W 9508   3.301   7.913  11.203
 5458W        W 9509   8.271   3.203   8.490
 5459W        W 9510   7.441   6.105   2.137
 5460W        W 9511  10.867   5.706   9.014
 5461W        W 9512   5.966   9.185   9.507
 5462W        W 9513   5.734  11.011  11.961
 5463W        W 9514   8.948   9.989   9.589
 5464W        W 9515   5.250   1.634   9.763
 5465W        W 9516   8.992   6.435   1.310
 5466W        W 9517   4.772   9.930   0.029
 5467W        W 9518   7.712   7.575  11.968
 5468W        W 9519   0.692   2.227   1.202
 5469W        W 9520  10.914   4.297   9.309
 5470W        W 9521  10.771  11.026   8.594
 5471W        W 9522   1.291   5.245   0.754
 5472W        W 9523   7.020   9.841   1.729
 5473W        W 9524   8.092   5.419  11.292
 5474W        W 9525   1.183   5.242  10.124
 5475W        W 9526   2.725   3.284   0.739
 5476W        W 9527   7.471  10.556   1.682
 5477W        W 9528  10.021  10.439  10.823
 5478W        W 9529   6.286   6.660   2.185
 5479W        W 9530  10.275   9.194   2.276
 5480W        W 9531   2.397   2.295   1.824
 5481W        W 9532   8.850   7.637   0.786
 5482W        W 9533  10.960   4.725   1.184
 5483W        W 9534   9.811  10.982  11.795
 5484W        W 9535  11.133   2.247  11.948
 5485W        W 9536   3.905   1.592  11.486
 5486W        W 9537  11.443   4.271   8.513
 5487W        W 9538   7.582   7.069  11.819
 5488W        W 9539   5.953   2.747   1.877
 5489W        W 9540   1.829  10.895   2.129
 5490W        W 9541   6.097  10.515   3.661
 5491W        W 9542   8.716   8.969  11.548
 5492W        W 9543  10.524   4.084   3.633
 5493W        W 9544   4.617   0.439  10.513
 5494W        W 9545   5.232   0.809   2.450
 5495W        W 9546   7.361   7.635   3.224
 5496W        W 9547   9.672   2.638   2.817
 5497W        W 9548   1.742   0.453   8.502
 5498W        W 9549   8.059   6.834  10.376
 5499W        W 9550   9.321   1.108   8.542
 5500W        W 9551   6.904   2.481  11.527
 5501W        W 9552   8.636   0.753  10.670
 5502W        W 9553   0.788   7.720   8.860
 5503W        W 9554   2.196   3.642  11.811
 5504W        W 9555   9.438  10.831  10.820
 5505W        W 9556   8.878   4.343   1.733
 5506W        W 9557   4.851   7.159   8.944
 5507W        W 9558   5.340   8.289   2.598
 5508W        W 9559   0.500   3.201   9.260
 5509W        W 9560  10.525   6.136   0.346
 5510W        W 9561  10.926   6.650   9.094
 5511W        W 9562   0.960   6.152   0.436
 5512W        W 9563   5.862   1.374   0.239
 5513W        W 9564   1.329   8.942   1.499
 5514W        W 9565   7.741   2.477   1.259
 5515W        W 9566   2.718   3.014   8.788
 5516W        W 9567   9.473   9.157   0.356
 5517W        W 9568   3.677   0.864  11.832
 5518W        W 9569  10.092   5.160   0.843
 5519W        W 9570  11.076   7.383   2.009
 5520W        W 9571   1.596   8.068   8.871
 5521W        W 9572   1.573   2.893  11.942
 5522W        W 9573   4.120   1.262   9.549
 5523W        W 9574   6.073   3.256  11.607
 5524W        W 9575   6.166   6.734   9.386
 5525W        W 9576  11.353   8.892   0.312
 5526W        W 9577   4.094   9.273   0.868
 5527W        W 9578   8.047   5.228   2.354
 5528W        W 9579   6.882   1.669  11.701
 5529W        W 9580   5.293   7.151  10.419
 5530W        W 9581   9.148   8.061   3.251
 5531W        W 9582   7.225   3.789  11.325
 5532W        W 9583   7.112   8.954   1.249
 5533W        W 9584   0.378   5.032   9.792
 5534W        W 9585   9.597   8.891   1.961
 5535W        W 9586   8.437   0.292  10.875
 5536W        W 9587   3.676   4.584   1.079
 5537W        W 9588   6.135   0.315   9.832
 5538W        W 9589   1.521   5.666   0.938
 5539W        W 9590   4.393   0.822   9.614
 5540W        W 9591   3.703   3.613   0.254
 5541W        W 9592   8.786  10.320   0.632
 5542W        W 9593   0.630   4.637   8.623
 5543W        W 9594   2.651   6.446   1.871
 5544W        W 9595   0.728   6.522   8.483
 5545W        W 9596   3.161  11.486   1.920
 5546W        W 9597   9.454   9.745   0.717
 5547W        W 9598   4.499   4.338   1.219
 5548W        W 9599   8.215   3.211   2.651
 5549W        W 9600   7.818   9.075   2.073
 5550W        W 9601   8.580   8.681   0.424
 5551W        W 9602   0.812   8.346  11.823
 5552W        W 9603   9.592   5.547  10.382
 5553W        W 9604   1.302   8.289   3.188
 5554W        W 9605   5.560  10.824  10.102
 5555W        W 9606   5.058   7.610  10.556
 5556W        W 9607   1.986   2.559   8.519
 5557W        W 9608   7.706   8.587   1.381
 5558W        W 9609   5.098  10.431   2.821
 5559W        W 9610  11.001   6.640   0.834
 5560W        W 9611   2.320   2.287  11.987
 5561W        W 9612   9.980   7.640   2.781
 5562W        W 9613   3.702   1.683   8.885
 5563W        W 9614  10.342   7.124  11.064
 5564W        W 9615   2.313   0.972   1.696
 5565W        W 9616   2.589  11.064  11.359
 5566W        W 9617   5.586   0.876  11.002
 5567W        W 9618   4.428   9.862   9.303
 5568W        W 9619   6.445   6.579   0.151
 5569W        W 9620  10.832   3.066   2.010
 5570W        W 9621  10.438   1.123   9.347
 5571W        W 9622   5.961   5.756   9.213
 5572W        W 9623   2.220   2.339   2.823
 5573W        W 9624   8.089   7.840   2.539
 5574W        W 9625   7.505  10.986  11.991
 5575W        W 9626  11.349   8.537   2.793
 5576W        W 9627   4.895   3.986  11.209
 5577W        W 9628   5.587   1.954   1.488
 5578W        W 9629   0.393   2.699   2.853
 5579W        W 9630   7.659  11.359   9.941
 5580W        W 9631   7.746   8.928  11.096
 5581W        W 9632   5.955   3.977   2.367
 5582W        W 9633   5.220   7.438   0.485
 5583W        W 9634   8.177   1.929   1.749
 5584W        W 9635   8.671   8.087   8.591
 5585W        W 9636   5.048   9.345   0.014
 5586W        W 9637   6.986   4.106   3.459
 5587W        W 9638   6.491   7.333   1.466
 5588W        W 9639   6.242   0.438   3.279
 5589W        W 9640   0.390   3.582   0.167
 5590W        W 9641   7.778   7.123  10.707
 5591W        W 9642   0.078   9.783   0.256
 5592W        W 9643   9.055   2.781   0.311
 5593W        W 9644   8.151   1.652   0.375
 5594W        W 9645   2.181   3.890   9.712
 5595W        W 9646   9.607   9.542   8.598
 5596W        W 9647   3.362   8.293   8.423
 5597W        W 9648   5.466   4.387   9.143
 5598W        W 9649   0.781  10.580  11.151
 5599W        W 9650   8.944   8.597  10.225
 5600W        W 9651   5.632   7.593   1.443
 5601W        W 9652   4.270   4.062  10.739
 5602W        W 9653   4.808   1.752   9.997
 5603W        W 9654   8.562   6.703  10.355
 5604W        W 9655   4.044   9.099  10.176
 5605W        W 9656   3.813   5.283   0.773
 5606W        W 9657   8.820  10.048   3.485
 5607W        W 9658   3.687   5.890  11.644
 5608W        W 9659  10.955   3.132   3.476
 5609W        W 9660   4.774   2.593   2.753
 5610W        W 9661   4.074   0.882   2.668
 5611W        W 9662  10.316  10.499   1.054
 5612W        W 9663   3.851   4.888  11.817
 5613W        W 9664   8.614   4.459  10.850
 5614W        W 9665  10.854   0.358   1.865
 5615W        W 9666   3.702   9.453  11.762
 5616W        W 9667  10.258  10.704   9.573
 5617W        W 9668   7.869   5.124   8.675
 5618W        W 9669   9.548   1.186  10.802
 5619W        W 9670   0.350  11.373  11.111
 5620W        W 9671   9.552   0.260   1.409
 5621W        W 9672  11.378   8.108   9.312
 5622W        W 9673   6.016   8.948  10.434
 5623W        W 9674   0.414   0.865   1.135
 5624W        W 9675   6.910   1.652   9.810
 5625W        W 9676   1.323   4.077  11.511
 5626W        W 9677   9.818   7.500   0.803
 5627W        W 9678   7.882   2.736  10.000
 5628W        W 9679   2.679   8.302  10.638
 5629W        W 9680   9.371   6.499   8.255
 5630W        W 9681  11.323  11.498   2.737
 5631W        W 9682   3.731  11.296   3.318
 5632W        W 9683   3.015   7.852   2.210
 5633W        W 9684   3.702   2.935   2.402
 5634W        W 9685   3.640   6.217   3.527
 5635W        W 9686  11.459   9.867   1.284
 5636W        W 9687   7.715   5.175   0.485
 5637W        W 9688   3.148   2.431   1.302
 5638W        W 9689   0.786   7.958   9.736
 5639W        W 9690   0.517   5.792   1.883
 5640W        W 9691   9.548   3.167   1.301
 5641W        W 9692   5.945   8.276   0.249
 5642W        W 9693   2.255   9.031   1.998
 5643W        W 9694   4.593  10.317   9.073
 5644W        W 9695   7.848  11.437   2.993
 5645W        W 9696   9.431   8.157   0.363
 5646W        W 9697   4.185   6.115  11.067
 5647W        W 9698   1.345   6.996  10.551
 5648W        W 9699   8.450   6.238  10.531
 5649W        W 9700   9.327   4.975  11.580
 5650W        W 9701   0.934   3.729   0.947
 5651W        W 9702   8.013   9.044   3.432
 5652W        W 9703   0.445   9.292   9.022
 5653W        W 9704   8.641   1.264   3.075
 5654W        W 9705   8.546   4.735   9.025
 5655W        W 9706   6.465   6.218  10.964
 5656W        W 9707   2.930   4.702  11.429
 5657W        W 9708   2.266   0.554   9.517
 5658W        W 9709   6.555  11.220   2.498
 5659W        W 9710   5.628   5.151   1.772
 5660W        W 9711   6.024   6.236   8.167
 5661W        W 9712   9.811  10.623   2.007
 5662W        W 9713   3.225   3.774   9.135
 5663W        W 9714   1.143   3.256   1.091
 5664W        W 9715   9.087  11.257   9.993
 5665W        W 9716   9.604   2.887  10.490
 5666W        W 9717   5.074   3.252   0.490
 5667W        W 9718   3.366   9.251   2.303
 5668W        W 9719   5.078   7.779   0.119
 5669W        W 9720   3.085   4.134  10.805
 5670W        W 9721   3.642   1.261   0.695
 5671W        W 9722   6.573   4.132   3.146
 5672W        W 9723   7.547   0.337  10.187
 5673W        W 9724   3.609  10.538  11.830
 5674W        W 9725   9.056   2.735   1.253
 5675W        W 9726   3.838  10.843   2.069
 5676W        W 9727   6.141   9.949   1.411
 5677W        W 9728   5.226   7.937   0.857
 5678W        W 9729   7.846   1.463   9.203
 5679W        W 9730   3.391   7.681   0.065
 5680W        W 9731   7.703   1.150  11.728
 5681W        W 9732   9.916  10.734   0.275
 5682W        W 9733   7.281   8.033   9.449
 5683W        W 9734   7.602   9.748  10.781
 5684W        W 9735   3.329   5.243   1.963
 5685W        W 9736   8.431   4.710  10.430
 5686W        W 9737   3.105   0.610   2.755
 5687W        W 9738  10.571   2.365   2.573
 5688W        W 9739  10.072   0.882   9.657
 5689W        W 9740  10.237   9.346   9.515
 5690W        W 9741   9.445   2.729   3.312
 5691W        W 9742   7.383   9.080  11.443
 5692W        W 9743   8.037   3.376   9.176
 5693W        W 9744   5.836   5.546   1.449
 5694W        W 9745   2.172   5.317   3.474
 5695W        W 9746   0.722   5.719   3.429
 5696W        W 9747   4.085   1.437  11.020
 5697W        W 9748   2.664   4.146   1.770
 5698W        W 9749   5.584   8.265   3.206
 5699W        W 9750   6.573  10.058   8.161
 5700W        W 9751   3.355   1.918   1.302
 5701W        W 9752   0.996  10.967   0.852
 5702W        W 9753   6.680   6.715   2.940
 5703W        W 9754   3.876   4.375   0.633
 5704W        W 9755   2.276   0.046   9.563
 5705W        W 9756   0.079  11.382   3.217
 5706W        W 9757   9.157   6.635   9.991
 5707W        W 9758   7.916   4.153   2.185
 5708W        W 9759   9.114   4.276   3.134
 5709W        W 9760   3.224   9.878   1.846
 5710W        W 9761   2.672   6.604   2.406
 5711W        W 9762  10.405   7.065  10.514
 5712W        W 9763   6.762   2.090   2.819
 5713W        W 9764   2.700   9.045  11.481
 5714W        W 9765   4.459   6.766   8.628
 5715W        W 9766   2.107   8.622  11.734
 5716W        W 9767   7.697   3.771  11.528
 5717W        W 9768  10.417   7.626  11.237
 5718W        W 9769   4.368   0.763   1.690
 5719W        W 9770   3.897   4.412  10.552
 5720W        W 9771  10.254  10.415   1.560
 5721W        W 9772   0.088   0.967   1.851
 5722W        W 9773   2.152   7.465   0.999
 5723W        W 9774   1.147   0.241  10.692
 5724W        W 9775  11.309   1.209   1.394
 5725W        W 9776   3.474   9.669   2.827
 5726W        W 9777   3.583   2.318   2.517
 5727W        W 9778   7.657   0.191   9.160
 5728W        W 9779   1.877   1.337   3.393
 5729W        W 9780   3.194   5.700  10.992
 5730W        W 9781   6.964   4.631   0.282
 5731W        W 9782  11.009   0.136   3.110
 5732W        W 9783   4.304   8.642  11.532
 5733W        W 9784   1.217   0.629  10.361
 5734W        W 9785  10.000   1.891  11.892
 5735W        W 9786   5.642   3.244   9.828
 5736W        W 9787   2.506   8.553   8.314
 5737W        W 9788   1.295   1.070  10.608
 5738W        W 9789  10.940   3.308   2.921
 5739W        W 9790   3.955   8.374   1.382
 5740W        W 9791   8.683   7.889  11.907
 5741W        W 9792   9.326   1.825   2.903
 5742W        W 9793   9.431   4.924   0.978
 5743W        W 9794   1.896   3.612   8.889
 5744W        W 9795  11.392   8.859   1.422
 5745W        W 9796   4.220   9.976   0.868
 5746W        W 9797   2.768   1.664   0.206
 5747W        W 9798   7.219   3.841  10.303
 5748W        W 9799   7.724   8.008  11.629
 5749W        W 9800   3.146   3.688   1.835
 5750W        W 9801   5.191   9.041   9.047
 5751W        W 9802  10.638   7.687  11.696
 5752W        W 9803   2.707  10.326   8.731
 5753W        W 9804   0.049   7.497  11.348
 5754W        W 9805   0.277   1.191  11.230
 5755W        W 9806  10.773  11.264   3.430
 5756W        W 9807   5.737   1.436   8.512
 5757W        W 9808   3.273   1.362   9.313
 5758W        W 9809   6.042   6.536   2.650
 5759W        W 9810  10.943   6.252   0.054
 5760W        W 9811   3.861   3.873  10.941
 5761W        W 9812  11.364   7.179   9.392
 5762W        W 9813   0.196   1.407  10.218
 5763W        W 9814   0.789   0.848   2.172
 5764W        W 9815   1.048   6.081  11.338
 5765W        W 9816   3.177   4.951   0.393
 5766W        W 9817   0.684   8.411   0.329
 5767W        W 9818   6.708  11.366   0.368
 5768W        W 9819   8.994   0.942   0.952
 5769W        W 9820  11.278   1.129   9.481
 5770W        W 9821   0.909   4.202   2.245
 5771W        W 9822   8.099   9.237   2.779
 5772W        W 9823   9.472   2.137   1.460
 5773W        W 9824   1.254   7.562  11.857
 5774W        W 9825   2.227   6.126   1.960
 5775W        W 9826   9.490   9.334   1.754
 5776W        W 9827  10.573   6.250  10.760
 5777W        W 9828   9.395   7.026   3.318
 5778W        W 9829   8.594   6.141   1.475
 5779W        W 9830   7.080   6.172   8.318
 5780W        W 9831   0.929   5.325  10.856
 5781W        W 9832   8.880   9.584   2.229
 5782W        W 9833  11.324   7.432   0.303
 5783W        W 9834   8.742   0.356   2.754
 5784W        W 9835   6.715   3.172  10.277
 5785W        W 9836   6.019  10.002   3.419
 5786W        W 9837   5.956   4.588   0.223
 5787W        W 9838   5.718   7.386   3.591
 5788W        W 9839   6.344   8.085  11.846
 5789W        W 9840  11.378   5.761   2.344
 5790W        W 9841  10.805  10.879   0.378
 5791W        W 9842   7.012   3.708  11.806
 5792W        W 9843   6.840   2.274   2.080
 5793W        W 9844   8.159  10.452   0.503
 5794W        W 9845   2.773   1.281   1.747
 5795W        W 9846   8.529   6.645   1.185
 5796W        W 9847   8.015  10.557   2.572
 5797W        W 9848   5.619  10.979   1.622
 5798W        W 9849  11.427   4.774   9.592
 5799W        W 9850   2.918   0.408   9.100
 5800W        W 9851  10.767   4.119  10.564
 5801W        W 9852   3.104   7.121  11.379
 5802W        W 9853   4.647  10.284   2.660
 5803W        W 9854   1.302  10.065   0.921
 5804W        W 9855   5.488   3.658   8.581
 5805W        W 9856   2.308   7.202   0.054
 5806W        W 9857   6.135   9.805  11.849
 5807W        W 9858   4.057   7.541  10.023
 5808W        W 9859   5.233   8.739   4.056
 5809W        W 9860   7.432   0.993   2.889
 5810W        W 9861   0.240   1.361   1.167
 5811W        W 9862   7.138   9.613   9.828
 5812W        W 9863  10.546   2.785  10.487
 5813W        W 9864  11.333   0.734   2.230
 5814W        W 9865   1.268  10.941   3.266
 5815W        W 9866   2.482  10.825   0.695
 5816W        W 9867   0.949   9.556   8.586
 5817W        W 9868   6.742   2.286   8.954
 5818W        W 9869   2.631   0.768  10.800
 5819W        W 9870   4.574   6.201   0.286
 5820W        W 9871   3.430   0.906   0.320
 5821W        W 9872   0.556   9.488  11.794
 5822W        W 9873   5.898   2.258   1.732
 5823W        W 9874   2.774   3.340   9.754
 5824W        W 9875   2.853  10.081  11.456
 5825W        W 9876   5.139   3.279   9.631
 5826W        W 9877   0.196   3.975   9.009
 5827W        W 9878   8.202   3.692  11.529
 5828W        W 9879   6.604   0.142   0.936
 5829W        W 9880   1.775   1.368   0.749
 5830W        W 9881  11.441  10.745   3.783
 5831W        W 9882   0.106   3.824  10.284
 5832W        W 9883  10.251   4.617   3.254
 5833W        W 9884  10.424   7.997   8.949
 5834W        W 9885   5.318   8.021  10.235
 5835W        W 9886   6.974   6.612   0.355
 5836W        W 9887  10.399   6.739  11.530
 5837W        W 9888   6.162   4.571   1.699
 5838W        W 9889  10.545   7.850   1.440
 5839W        W 9890   6.297   7.951  10.055
 5840W        W 9891   4.029   6.420   1.331
 5841W        W 9892   6.729   5.532   0.848
 5842W        W 9893   0.375   0.894   2.931
 5843W        W 9894   3.088   6.212  11.084
 5844W        W 9895   7.286   4.165   0.435
 5845W        W 9896  10.135  10.271   0.285
 5846W        W 9897   6.896   2.184   9.591
 5847W        W 9898  11.072   3.800   2.842
 5848W        W 9899   6.671   0.277  10.241
 5849W        W 9900   1.818   4.386  10.963
 5850W        W 9901  10.854   1.880   9.760
 5851W        W 9902   9.123   7.700   9.268
 5852W        W 9903   0.076   0.070   0.050
 5853W        W 9904   8.270   5.687  11.812
 5854W        W 9905   0.329   9.060   1.231
 5855W        W 9906   4.369   1.751  11.685
 5856W        W 9907   4.192   8.648  10.419
 5857W        W 9908   0.807   4.847  11.456
 5858W        W 9909   6.481   7.187  10.954
 5859W        W 9910   1.722   5.262   8.514
 5860W        W 9911   7.579   0.944   1.578
 5861W        W 9912   7.140   0.142   0.397
 5862W        W 9913   3.508  10.489   9.964
 5863W        W 9914   2.419   0.293   9.114
 5864W        W 9915   9.833  10.096   2.700
 5865W        W 9916   8.234   7.662  11.972
 5866W        W 9917   4.727   6.712   0.672
 5867W        W 9918   9.430   9.284   2.783
 5868W        W 9919  11.079   4.993  10.279
 5869W        W 9920   2.858   4.235   9.849
 5870W        W 9921   3.526   3.032  10.594
 5871W        W 9922  10.923   2.657  11.730
 5872W        W 9923   7.560   1.859   0.325
 5873W        W 9924   7.560   6.678  10.472
 5874W        W 9925   1.902   5.248  10.781
 5875W        W 9926   4.668   9.525  11.722
 5876W        W 9927   7.034   4.314   2.270
 5877W        W 9928   7.112   3.412  10.068
 5878W        W 9929   5.662   5.814   1.015
 5879W        W 9930   2.845   2.866   9.585
 5880W        W 9931  10.608   7.446   1.839
 5881W        W 9932  10.507   4.985   9.509
 5882W        W 9933   7.616  10.415  10.074
 5883W        W 9934   6.305   7.560  11.768
 5884W        W 9935   5.567   8.090  11.734
 5885W        W 9936   9.132   4.167   0.506
 5886W        W 9937  11.262   3.065   9.139
 5887W        W 9938   2.827   8.357  10.149
 5888W        W 9939   7.171   9.256   0.822
 5889W        W 9940   4.212   2.316   9.895
 5890W        W 9941   3.850   6.651   9.883
 5891W        W 9942  11.041   2.719   1.226
 5892W        W 9943   0.211   7.784   2.936
 5893W        W 9944   4.013   1.477  11.969
 5894W        W 9945   5.139   4.657  10.705
 5895W        W 9946   0.284  10.708   0.330
 5896W        W 9947   7.032   7.924  10.922
 5897W        W 9948   1.762   1.797   9.593
 5898W        W 9949  10.136   1.234   3.579
 5899W        W 9950  10.854   9.141   0.544
 5900W        W 9951   8.104   1.541   3.489
 5901W        W 9952   3.585   4.688   8.528
 5902W        W 9953   7.938  10.105  10.586
 5903W        W 9954   5.187   8.068   1.740
 5904W        W 9955   1.792   9.993   2.447
 5905W        W 9956   2.340   1.928   0.399
 5906W        W 9957   6.596   8.185   2.800
 5907W        W 9958   9.786   1.211   1.244
 5908W        W 9959   2.701   3.232   2.742
 5909W        W 9960   8.935   6.855  11.276
 5910W        W 9961   6.138   0.559  11.269
 5911W        W 9962   2.910  10.427   2.870
 5912W        W 9963   9.930  10.980   8.605
 5913W        W 9964   4.626   3.893   0.992
 5914W        W 9965   9.414   9.877   9.913
 5915W        W 9966   5.228   3.728   0.472
 5916W        W 9967   3.296   2.900   0.403
 5917W        W 9968   3.243   1.257   3.851
 5918W        W 9969   0.801  11.189   1.872
 5919W        W 9970   3.706   8.401   0.160
 5920W        W 9971   4.790   8.587  11.418
 5921W        W 9972   9.952  11.364  10.046
 5922W        W 9973   3.806   0.201   8.661
 5923W        W 9974   2.190   9.438   1.643
 5924W        W 9975   9.941   3.746   2.120
 5925W        W 9976  10.896   4.063   9.772
 5926W        W 9977   5.195   7.264   3.170
 5927W        W 9978   5.093   9.457   1.892
 5928W        W 9979   9.070   3.645   2.350
 5929W        W 9980   1.092  10.410   1.653
 5930W        W 9981   1.389   1.442   9.362
 5931W        W 9982   3.315   6.634   3.661
 5932W        W 9983  10.562   7.374   9.430
 5933W        W 9984   6.224   5.584  10.895
 5934W        W 9985  11.328   6.984  11.974
 5935W        W 9986   6.068   5.635   0.757
 5936W        W 9987   4.207   7.944  11.436
 5937W        W 9988   1.268  10.883  11.240
 5938W        W 9989   0.818   3.276  10.532
 5939W        W 9990   4.205   7.814   1.821
 5940W        W 9991   2.950   8.964  11.040
 5941W        W 9992  10.904   1.645   0.442
 5942W        W 9993   4.179   0.183  10.508
 5943W        W 9994   6.387   3.629   2.882
 5944W        W 9995   0.803   7.836   1.052
 5945W        W 9996   1.712   8.946  10.322
 5946W        W 9997   7.310   6.041  11.097
 5947W        W 9998   6.837   7.195   2.731
 5948W        W 9999   8.864   2.222   0.305
 5949W        W10000   2.519   7.803   0.733
 5950W        W10001   6.763   5.480  10.678
 5951W        W10002   9.007   8.076  11.062
 5952W        W10003   3.388   1.822  11.371
 5953W        W10004   8.185   5.399   9.873
 5954W        W10005   0.842  10.694  11.645
 5955W        W10006   2.592   7.544   2.267
 5956W        W10007   2.415   2.902   3.578
 5957W        W10008   1.418   1.209   2.324
 5958W        W10009   4.696   1.938   3.318
 5959W        W10010   5.951   4.690   1.224
 5960W        W10011   8.558  10.397  10.746
 5961W        W10012   2.748   7.397  11.787
 5962W        W10013   8.645   2.816   9.623
 5963W        W10014   7.578   9.888   9.789
 5964W        W10015   4.611   4.256   3.921
 5965W        W10016   4.756   8.822   9.972
 5966W        W10017  11.180   4.301   2.472
 5967W        W10018   8.066  10.512   9.837
 5968W        W10019   1.635   9.989   2.930
 5969W        W10020   1.379  11.430   9.516
 5970W        W10021   2.588   4.126   0.582
 5971W        W10022   9.995   2.079  11.004
 5972W        W10023   4.123  11.207   0.305
 5973W        W10024   8.516   7.618  11.495
 5974W        W10025   7.693   9.594   2.783
 5975W        W10026   3.768   2.433   3.340
 5976W        W10027   7.762   1.510  11.384
 5977W        W10028   7.699   3.107   1.983
 5978W        W10029   9.892   5.397  11.552
 5979W        W10030   2.799   5.294   4.143
 5980W        W10031   8.888   0.507  11.029
 5981W        W10032   4.758   9.931   8.740
 5982W        W10033   6.315   7.038  11.919
 5983W        W10034   9.656   3.323   0.841
 5984W        W10035   0.272   6.929   9.169
 5985W        W10036   9.334   0.166   1.889
 5986W        W10037   8.526   4.694   8.299
 5987W        W10038   9.552   8.636   9.418
 5988W        W10039   2.368   0.508   3.428
 5989W        W10040   2.330   1.420   1.967
 5990W        W10041   6.984   5.641   0.335
 5991W        W10042  10.850   1.676   1.947
 5992W        W10043   0.381   4.248   9.399
 5993W        W10044   5.014  11.343  11.993
 5994W        W10045   6.214   5.264  11.308
 5995W        W10046   5.119  10.447   0.892
 5996W        W10047   9.361   8.001  10.551
 5997W        W10048   0.826  11.078  11.309
 5998W        W10049   6.036   6.937  10.909
 5999W        W10050   8.909   1.828  10.793
 6000W        W10051   8.138   9.102   9.202
 6001W        W10052   7.205   2.225   1.720
 6002W        W10053   0.038   3.836   3.071
 6003W        W10054   8.976   2.119   2.622
 6004W        W10055   3.260   6.201   2.297
 6005W        W10056   8.003   1.931  10.561
 6006W        W10057   8.445   0.795   3.238
 6007W        W10058   5.517   8.044  11.225
 6008W        W10059   3.354   4.490  10.557
 6009W        W10060   4.924   0.142   1.756
 6010W        W10061   8.085   4.943   9.090
 6011W        W10062   6.716   1.353  10.552
 6012W        W10063   6.584   8.969   1.367
 6013W        W10064   0.296   6.560   8.786
 6014W        W10065   7.756   7.067   9.203
 6015W        W10066   8.836   8.484   9.727
 6016W        W10067  10.038  10.742   9.060
 6017W        W10068   6.074   4.160  11.895
 6018W        W10069   7.971   6.837   3.597
 6019W        W10070   9.176   4.805   3.141
 6020W        W10071   9.078   2.894   3.695
 6021W        W10072   5.093   9.949   0.680
 6022W        W10073   3.615   6.588   2.232
 6023W        W10074   3.241   7.148   3.337
 6024W        W10075  10.951  10.972  11.069
 6025W        W10076   1.656  10.431   9.563
 6026W        W10077  10.908   0.471   3.475
 6027W        W10078   6.559   7.495   0.485
 6028W        W10079   5.092  10.910   2.976
 6029W        W10080   5.128   2.350   2.306
 6030W        W10081  10.659   4.049   8.939
 6031W        W10082   2.279   2.814   2.027
 6032W        W10083   9.595   6.947  11.693
 6033W        W10084   3.545   6.862   8.971
 6034W        W10085  11.282  11.173   9.786
 6035W        W10086   3.771   8.871   0.924
 6036W        W10087   6.246   6.833   3.882
 6037W        W10088   5.995   3.405   0.650
 6038W        W10089   7.872   0.820   8.572
 6039W        W10090   3.481   6.563   3.164
 6040W        W10091   2.168   9.138  10.475
 6041W        W10092   5.000   2.425   0.777
 6042W        W10093   8.933   6.194   3.697
 6043W        W10094   1.969   9.425   3.586
 6044W        W10095   6.698  11.350   9.018
 6045W        W10096   1.206   7.867   8.548
 6046W        W10097   7.671   8.214   0.598
 6047W        W10098   4.885  10.732   9.193
 6048W        W10099  10.841   4.553   0.726
 6049W        W10100   6.471   9.069   9.617
 6050W        W10101   7.284   6.676   1.289
 6051W        W10102   2.152   8.253   8.526
 6052W        W10103   0.930   4.533   3.062
 6053W        W10104   4.243   9.108  10.663
 6054W        W10105   0.885   8.746   2.333
 6055W        W10106   1.968   4.717   9.078
 6056W        W10107   2.965   4.297   2.164
 6057W        W10108  11.220   8.913   2.453
 6058W        W10109   3.900   1.062   0.251
 6059W        W10110   2.297   2.753   1.011
 6060W        W10111   7.188  11.257  11.393
 6061W        W10112   8.987   4.951   8.293
 6062W        W10113   9.322   5.827   0.634
 6063W        W10114   9.347   6.169   2.934
 6064W        W10115   6.525  10.320   0.642
 6065W        W10116  10.590   4.398  10.953
 6066W        W10117   1.360  10.278   9.957
 6067W        W10118   5.755   0.889   0.516
 6068W        W10119   8.027  10.966   9.146
 6069W        W10120   8.061   9.526  11.366
 6070W        W10121   9.929   2.875   1.620
 6071W        W10122   0.300  10.854   3.163
 6072W        W10123   8.111   3.116   3.148
 6073W        W10124  10.305   7.468   8.996
 6074W        W10125   6.984   8.009   1.562
 6075W        W10126  11.429   8.332  11.669
 6076W        W10127   5.507   6.960   8.780
 6077W        W10128   7.024  10.346  11.767
 6078W        W10129   4.255   7.980   9.828
 6079W        W10130   8.385   6.118   2.935
 6080W        W10131   4.263   8.975   2.578
 6081W        W10132  11.365   4.291   9.795
 6082W        W10133   0.774   1.741   9.960
 6083W        W10134   7.140   8.384   9.884
 6084W        W10135   6.149   7.610   9.249
 6085W        W10136   1.399   0.235   9.996
 6086W        W10137   5.011  11.206   9.336
 6087W        W10138   7.455   5.699  10.254
 6088W        W10139   6.246   1.921   2.753
 6089W        W10140   2.561   2.119   3.499
 6090W        W10141   7.099   8.202   8.520
 6091W        W10142   4.132   1.686   1.698
 6092W        W10143   1.562   9.249   1.140
 6093W        W10144   8.506   5.433   2.184
 6094W        W10145   0.301   8.364   9.093
 6095W        W10146   8.772   0.439  11.861
 6096W        W10147  10.453   3.578   9.125
 6097W        W10148   6.406  11.474   3.408
 6098W        W10149   1.288   3.780   9.407
 6099W        W10150   5.950   3.474   2.470
 6100W        W10151   9.917   9.628   3.547
 6101W        W10152   4.634   5.743   0.015
 6102W        W10153   8.996   3.737  11.716
 6103W        W10154   8.983   7.104   9.975
 6104W        W10155   9.182   9.997   2.458
 6105W        W10156   6.109   2.463  10.447
 6106W        W10157   2.900   8.488   8.628
 6107W        W10158   8.999   9.820   9.077
 6108W        W10159   8.050   5.967   1.013
 6109W        W10160   5.559   2.818   0.023
 6110W        W10161   0.410   2.217   3.026
 6111W        W10162   6.476   9.528   2.790
 6112W        W10163   5.586   3.318  11.818
 6113W        W10164   3.526   1.438   0.207
 6114W        W10165   8.779   6.152   2.232
 6115W        W10166   4.570   8.540   2.420
 6116W        W10167   0.794   9.989   3.070
 6117W        W10168   5.538   9.284   0.993
 6118W        W10169   3.726   6.135   4.028
 6119W        W10170  10.108  10.789   2.403
 6120W        W10171   0.250  11.358   9.826
 6121W        W10172   6.060   7.571   9.766
 6122W        W10173   2.736   5.152   8.626
 6123W        W10174   2.408   5.752   0.719
 6124W        W10175   5.641   1.821  10.031
 6125W        W10176   6.530   0.736   2.263
 6126W        W10177   1.264   9.175   8.454
 6127W        W10178   8.181   8.654  10.958
 6128W        W10179   3.665   4.840  10.392
 6129W        W10180  11.068   6.980   0.442
 6130W        W10181   2.517   5.238   1.501
 6131W        W10182   4.710   2.284   3.704
 6132W        W10183   9.470   3.115   0.414
 6133W        W10184   7.412   9.553   1.527
 6134W        W10185  10.481   4.025   9.423
 6135W        W10186   8.487   5.700   1.189
 6136W        W10187   4.666   9.543   2.198
 6137W        W10188   8.900  11.274  11.484
 6138W        W10189   6.604  10.002  11.866
 6139W        W10190   2.460   5.259   1.991
 6140W        W10191   7.454   1.677  10.077
 6141W        W10192   9.574   5.187   2.025
 6142W        W10193   7.131  11.347  11.908
 6143W        W10194   7.857   2.322   0.371
 6144W        W10195   0.395   2.616  11.563
 6145W        W10196   8.567   6.577   0.369
 6146W        W10197   0.787   1.839   2.836
 6147W        W10198   0.888   8.082  10.277
 6148W        W10199   1.830   0.983  11.788
 6149W        W10200   4.110   9.428   9.460
 6150W        W10201   4.342   9.840   1.349
 6151W        W10202   6.187  11.428   2.179
 6152W        W10203   1.702  10.653  11.169
 6153W        W10204  10.554   9.967   0.275
 6154W        W10205   3.980   6.574   3.346
 6155W        W10206  11.141   3.039   0.436
 6156W        W10207   1.700   6.201  10.718
 6157W        W10208  10.898   8.609   9.851
 6158W        W10209  10.636  10.510   3.084
 6159W        W10210   5.309   2.203   1.148
 6160W        W10211   4.381   4.418   0.720
 6161W        W10212   6.898   2.931  10.792
 6162W        W10213   9.552  11.076   2.672
 6163W        W10214   6.835   3.830   9.938
 6164W        W10215   9.888   3.905   3.069
 6165W        W10216   6.014   2.771   2.396
 6166W        W10217   4.793   0.490   0.364
 6167W        W10218   1.814   1.171   0.280
 6168W        W10219   9.094   4.808   1.821
 6169W        W10220  10.274   0.380   1.871
 6170W        W10221   7.984   7.218   0.863
 6171W        W10222   6.943  10.864   3.148
 6172W        W10223   6.194   7.929  10.570
 6173W        W10224   9.439   9.489  10.437
 6174W        W10225   3.866   9.863   9.359
 6175W        W10226   8.578   8.049   9.937
 6176W        W10227   3.377   0.936  11.398
 6177W        W10228   3.898   5.906   8.766
 6178W        W10229   8.533   8.998   8.866
 6179W        W10230   7.095   4.156   1.359
 6180W        W10231  11.444  11.050   1.857
 6181W        W10232   3.849   8.804   2.789
 6182W        W10233   0.843   0.531   9.374
 6183W        W10234   8.889   0.817   1.454
 6184W        W10235   4.177   1.852  10.690
 6185W        W10236   6.394  10.284   1.130
 6186W        W10237   0.949  10.196   2.111
 6187W        W10238   6.964  10.464  10.364
 6188W        W10239   7.788   2.274   1.749
 6189W        W10240   4.660   1.639   1.693
 6190W        W10241   0.904   8.914   1.849
 6191W        W10242   5.042   3.758   2.324
 6192W        W10243   4.715   0.130   9.091
 6193W        W10244   8.173   3.696  10.541
 6194W        W10245  10.780   6.418  11.591
 6195W        W10246  10.879   6.155   8.703
 6196W        W10247   1.851   9.367   0.304
 6197W        W10248   7.291  10.528   0.737
 6198W        W10249   7.415   6.600   1.972
 6199W        W10250  11.391   3.443   0.170
 6200W        W10251   9.180  10.718   2.670
 6201W        W10252   7.404   9.580  11.393
 6202W        W10253   2.330   8.084  10.229
 6203W        W10254  11.479   4.306  11.210
 6204W        W10255   4.494   3.680   3.270
 6205W        W10256   8.846   4.248   0.917
 6206W        W10257   9.089   1.748   9.277
 6207W        W10258   1.356   2.356  10.681
 6208W        W10259   3.086   0.800   3.991
 6209W        W10260  11.075   5.994   1.950
 6210W        W10261   8.044   4.556   1.680
 6211W        W10262   6.773  10.013   9.174
 6212W        W10263   2.164   0.459  10.415
 6213W        W10264   2.346   2.858   1.511
 6214W        W10265   3.337   9.877  11.012
 6215W        W10266   5.062  10.352   8.830
 6216W        W10267   5.604   7.431   2.923
 6217W        W10268  11.189   4.028   8.919
 6218W        W10269   8.930   7.074   9.068
 6219W        W10270   1.525   7.304   1.424
 6220W        W10271   9.458   0.555   2.241
 6221W        W10272  10.980   5.259   0.921
 6222W        W10273   7.454   4.122   3.694
 6223W        W10274   5.077   9.538  10.579
 6224W        W10275   9.538   7.107   8.812
 6225W        W10276   9.400   8.891   2.455
 6226W        W10277  10.125   7.624   9.481
 6227W        W10278   4.648  10.713   0.821
 6228W        W10279  11.317   1.753   2.182
 6229W        W10280   7.278   6.784  10.043
 6230W        W10281   5.488   1.967  11.017
 6231W        W10282   6.595   9.499   0.034
 6232W        W10283   8.138   8.795   2.479
 6233W        W10284   7.101   7.484   1.803
 6234W        W10285   4.192   6.144   0.661
 6235W        W10286  10.799   3.977   2.369
 6236W        W10287   4.779   3.480  11.279
 6237W        W10288   9.355   5.072   9.494
 6238W        W10289  11.049   8.375   1.712
 6239W        W10290   7.903   8.296   1.776
 6240W        W10291   2.987   6.700   3.265
 6241W        W10292   0.937   9.653   3.417
 6242W        W10293  10.755   9.754   2.788
 6243W        W10294   2.226   5.744   2.746
 6244W        W10295   1.250   3.325   0.588
 6245W        W10296   3.419   2.884   1.288
 6246W        W10297   9.590   6.603   8.710
 6247W        W10298   7.427   6.230   1.622
 6248W        W10299  10.422   9.950  11.386
 6249W        W10300   2.559  10.415   9.208
 6250W        W10301   0.649   7.885  11.367
 6251W        W10302  11.362  10.325  10.653
 6252W        W10303   8.907  10.961  11.912
 6253W        W10304   4.703   6.736   2.034
 6254W        W10305   3.639   0.115   1.753
 6255W        W10306   8.979   3.557   3.355
 6256W        W10307   7.067   1.190   0.330
 6257W        W10308   4.670   9.326   3.050
 6258W        W10309   3.176  10.891   9.873
 6259W        W10310   3.959   5.831   9.938
 6260W        W10311   5.858   4.168   1.907
 6261W        W10312   5.494   9.831  10.481
 6262W        W10313   3.615   8.902   1.444
 6263W        W10314  11.377   0.212   9.071
 6264W        W10315   2.819   7.905  10.384
 6265W        W10316  11.065   1.699   8.801
 6266W        W10317   2.172   4.408   1.955
 6267W        W10318   9.379   7.293   8.353
 6268W        W10319   4.247   4.202   9.838
 6269W        W10320   1.386   9.969  10.750
 6270W        W10321   7.668   3.771   0.342
 6271W        W10322   9.373   6.191   9.999
 6272W        W10323  11.155   8.853   1.911
 6273W        W10324   8.654  10.857  11.325
 6274W        W10325   4.812   1.299   9.764
 6275W        W10326   7.546   4.502   2.359
 6276W        W10327   4.946   4.549   0.211
 6277W        W10328   9.157   1.304   9.526
 6278W        W10329  10.742   9.162  10.472
 6279W        W10330   0.599   7.869   3.650
 6280W        W10331   0.719   3.209   8.612
 6281W        W10332   2.138   8.423  11.253
 6282W        W10333  11.438  10.832  10.644
 6283W        W10334   4.979   3.509  10.052
 6284W        W10335   7.684   5.971  11.943
 6285W        W10336   4.320  11.446   1.247
 6286W        W10337   0.365   7.651  10.976
 6287W        W10338   1.649   7.448  10.482
 6288W        W10339   6.231   7.627   8.727
 6289W        W10340   7.113   8.679  10.315
 6290W        W10341   5.628  11.478   9.914
 6291W        W10342   8.532   1.947  10.449
 6292W        W10343   3.032  11.399  11.632
 6293W        W10344  11.015   2.187  10.162
 6294W        W10345   1.729   6.895   1.712
 6295W        W10346   3.399   0.246   9.912
 6296W        W10347  10.882   3.070   8.776
 6297W        W10348   8.398   1.789  11.961
 6298W        W10349   1.924   8.587   8.966
 6299W        W10350   4.174   7.454   2.223
 6300W        W10351   7.241   1.237   9.903
 6301W        W10352   4.229  11.021   9.813
 6302W        W10353   5.769   6.731  11.495
 6303W        W10354   5.159   5.548   0.754
 6304W        W10355   6.773   3.419   1.073
 6305W        W10356   0.513   5.163   2.519
 6306W        W10357  10.864  11.372   9.552
 6307W        W10358   7.475   9.615  11.937
 6308W        W10359   8.893   6.903   3.330
 6309W        W10360   9.579   0.994   2.543
 6310W        W10361   2.176   7.133   1.859
 6311W        W10362  10.978   5.131   1.901
 6312W        W10363   4.488   0.783   2.972
 6313W        W10364   0.270  10.551   9.247
 6314W        W10365   2.960   6.740  10.341
 6315W        W10366   1.966   4.784   8.552
 6316W        W10367   1.020  10.465   3.171
 6317W        W10368   9.797  10.930   9.460
 6318W        W10369   1.897   9.601  10.069
 6319W        W10370  11.340   2.717   0.058
 6320W        W10371   8.410   6.351   9.621
 6321W        W10372   8.033  10.966   8.631
 6322W        W10373   8.358   8.031   1.763
 6323W        W10374   2.139   6.745   3.134
 6324W        W10375   1.162   5.821   9.171
 6325W        W10376   2.723   5.091   9.540
 6326W        W10377   3.122   0.375  11.448
 6327W        W10378   1.777   5.949   0.184
 6328W        W10379   6.225  11.237   0.176
 6329W        W10380   0.485   9.956   1.345
 6330W        W10381   1.207  10.392  11.392
 6331W        W10382   0.457   5.282   3.484
 6332W        W10383   6.252   1.071   0.197
 6333W        W10384   0.054   1.295   2.864
 6334W        W10385   3.190  11.004   8.916
 6335W        W10386   5.563  11.420  10.828
 6336W        W10387   3.758  10.736   0.840
 6337W        W10388   5.072   5.054   0.039
 6338W        W10389   0.910   6.266   9.022
 6339W        W10390   0.824  10.189   3.553
 6340W        W10391   9.174   2.162  10.110
 6341W        W10392   0.207   5.641  11.222
 6342W        W10393   9.893   2.900   0.617
 6343W        W10394   8.593   8.478   3.012
 6344W        W10395  10.420   1.475   0.511
 6345W        W10396   6.133   6.929   0.397
 6346W        W10397   4.638  10.600   2.248
 6347W        W10398   1.800   7.244   9.782
 6348W        W10399  10.278   9.142   3.209
 6349W        W10400   9.963   1.802   9.275
 6350W        W10401   4.620  11.303  10.065
 6351W        W10402   7.041   1.071   8.889
 6352W        W10403   8.830   5.298   2.722
 6353W        W10404   2.691   1.731   3.196
 6354W        W10405   3.114   3.347   8.855
 6355W        W10406   0.832   4.835   9.996
 6356W        W10407   9.860   5.688  11.117
 6357W        W10408   2.663   9.570   8.938
 6358W        W10409   2.754   7.537   8.309
 6359W        W10410   3.142   6.265   0.789
 6360W        W10411   4.044   5.149   2.533
 6361W        W10412  10.373   7.916   1.917
 6362W        W10413   9.006   4.713   0.783
 6363W        W10414   7.081  10.327   1.911
 6364W        W10415   5.208   1.673   0.264
 6365W        W10416   7.033   2.440   0.829
 6366W        W10417   4.399   9.590   9.852
 6367W        W10418   5.692   3.594   1.173
 6368W        W10419   3.231   2.136   0.863
 6369W        W10420   2.332   8.933   0.926
 6370W        W10421  10.869   1.776  11.908
 6371W        W10422   7.902   8.923   8.767
 6372W        W10423   4.136   6.153  11.608
 6373W        W10424   2.028   9.323  10.949
 6374W        W10425   0.676   8.842   0.021
 6375W        W10426   7.370   5.550  11.985
 6376W        W10427   3.322   5.784   0.839
 6377W        W10428   0.487   6.202   2.193
 6378W        W10429   0.457   6.098  11.262
 6379W        W10430   1.788   6.034   1.169
 6380W        W10431   8.619   3.739   9.557
 6381W        W10432   9.615   5.251   9.909
 6382W        W10433   0.330   7.492   3.409
 6383W        W10434  10.518   0.455  11.188
 6384W        W10435  11.120   6.960   1.243
 6385W        W10436   3.428  10.010   0.444
 6386W        W10437   0.465   2.175   0.744
 6387W        W10438   3.488   5.251  10.185
 6388W        W10439   1.839   1.882   2.200
 6389W        W10440  10.780   7.023   3.540
 6390W        W10441   6.346   3.617  10.127
 6391W        W10442   0.795  10.573   8.491
 6392W        W10443   7.216   8.453   1.418
 6393W        W10444   3.346   4.405   0.554
 6394W        W10445   4.534   6.733  10.438
 6395W        W10446   6.480   4.688  10.990
 6396W        W10447   9.354  11.453   8.911
 6397W        W10448   8.350   7.406   3.253
 6398W        W10449  10.798   0.799   2.866
 6399W        W10450   9.509   9.175  11.412
 6400W        W10451   9.940   5.715   1.464
 6401W        W10452  10.714   7.623   0.991
 6402W        W10453   8.944  10.401  11.305
 6403W        W10454   5.225   1.653  10.291
 6404W        W10455   6.828   3.196   3.476
 6405W        W10456   0.213   5.517   8.966
 6406W        W10457   1.684   5.804  11.712
 6407W        W10458   9.001   0.277   2.313
 6408W        W10459   2.149   5.688   1.187
 6409W        W10460   1.461   2.388   0.593
 6410W        W10461  10.425   8.074   9.469
 6411W        W10462   0.465   0.779  10.987
 6412W        W10463  11.069  11.086   0.759
 6413W        W10464   1.900   2.736   0.696
 6414W        W10465   7.130  11.293  10.888
 6415W        W10466  10.253   9.599   0.919
 6416W        W10467   7.857   2.787  10.863
 6417W        W10468   5.566   6.208   0.671
 6418W        W10469   9.467   3.106   1.786
 6419W        W10470   6.036   8.473   9.021
 6420W        W10471  11.495   6.096  11.463
 6421W        W10472  10.938   0.456  11.565
 6422W        W10473   9.202   9.315   0.778
 6423W        W10474   5.124   9.430   0.536
 6424W        W10475   6.228   8.664   3.112
 6425W        W10476   5.556   4.519  10.980
 6426W        W10477   5.451   0.750   1.491
 6427W        W10478   9.292   2.341   2.972
 6428W        W10479   1.284   8.421   2.363
 6429W        W10480   4.237   3.106  11.960
 6430W        W10481   1.019   2.181   9.866
 6431W        W10482   1.815   7.798   0.371
 6432W        W10483   4.079   2.224   0.376
 6433W        W10484   2.815   8.523   9.128
 6434W        W10485   8.581  10.804   1.431
 6435W        W10486   7.937   8.893  10.581
 6436W        W10487   8.605   8.090   0.664
 6437W        W10488   7.004   7.929   2.061
 6438W        W10489   7.212   1.911   2.135
 6439W        W10490  11.278   3.237   2.295
 6440W        W10491   8.498   2.913   2.277
 6441W        W10492   4.232   9.581   3.218
 6442W        W10493   3.080   4.239   9.380
 6443W        W10494  10.421   1.639   9.476
 6444W        W10495   9.914   2.586  10.781
 6445W        W10496   2.810   9.697  10.446
 6446W        W10497   0.612   8.180   8.711
 6447W        W10498   3.692   8.672   8.223
 6448W        W10499   2.307   5.933  11.421
 6449W        W10500  11.454   7.987  10.326
 6450W        W10501  10.564   2.641  11.355
 6451W        W10502   3.913   9.566   9.937
 6452W        W10503   2.372   4.357   2.724
 6453W        W10504  11.276   6.525  11.752
 6454W        W10505  10.755  10.237   2.684
 6455W        W10506   9.318   5.254   2.911
 6456W        W10507   0.268   6.976   3.442
 6457W        W10508   5.502   0.280   9.145
 6458W        W10509   3.190   7.631   9.476
 6459W        W10510  11.485  10.761  11.559
 6460W        W10511   8.137   9.912   8.481
 6461W        W10512   1.081   1.879   1.897
 6462W        W10513   5.171   4.144  11.608
 6463W        W10514   5.677   5.271   2.260
 6464W        W10515   1.313   2.673   2.487
 6465W        W10516   9.967   1.269  10.537
 6466W        W10517   9.833   0.687  10.065
 6467W        W10518   4.049   8.465   2.450
 6468W        W10519   8.823   0.530   0.350
 6469W        W10520   8.954   4.583  10.469
 6470W        W10521   4.972   2.112   2.754
 6471W        W10522   8.226  10.032  11.414
 6472W        W10523  10.709   9.479   0.176
 6473W        W10524   1.537   0.678  10.851
 6474W        W10525   7.408   6.606  10.956
 6475W        W10526   8.552   6.543   3.648
 6476W        W10527   3.882   2.999   3.198
 6477W        W10528   9.429   0.165  11.807
 6478W        W10529   8.384   8.592  11.436
 6479W        W10530   4.769   5.707   1.050
 6480W        W10531   0.685  10.395   2.774
 6481W        W10532  10.498   6.499   8.830
 6482W        W10533   0.463   3.666   0.669
 6483W        W10534   0.699   2.181   9.439
 6484W        W10535   1.234   0.742   2.368
 6485W        W10536  10.553   9.283  11.718
 6486W        W10537   4.930   8.299   3.356
 6487W        W10538   7.615   7.514   9.896
 6488W        W10539   1.665   1.973  10.921
 6489W        W10540   4.632   7.530   0.129
 6490W        W10541   0.796  10.185  11.659
 6491W        W10542   2.096   3.318   0.724
 6492W        W10543   0.462  11.391   1.457
 6493W        W10544   1.859   5.540  11.303
 6494W        W10545   4.923   4.097   1.962
 6495W        W10546   3.809   7.028   1.012
 6496W        W10547  10.642   5.889   2.847
 6497W        W10548   8.220   4.376   0.289
 6498W        W10549   0.802   8.878   9.730
 6499W        W10550   7.376  11.330   3.140
 6500W        W10551   9.112   1.883   0.616
 6501W        W10552   9.469  11.260   3.362
 6502W        W10553   2.712   7.664   1.184
 6503W        W10554   6.933   4.995   1.632
 6504W        W10555  11.388   3.415   0.685
 6505W        W10556   2.480   7.081   1.071
 6506W        W10557   0.301   0.680   0.641
 6507W        W10558   5.257   9.961   9.631
 6508W        W10559   3.615   3.040   1.908
 6509W        W10560   5.645   5.349   0.816
 6510W        W10561   7.397   9.420   2.410
 6511W        W10562   1.482   2.303  10.196
 6512W        W10563   3.599   6.528   8.566
 6513W        W10564   2.047   7.427   2.353
 6514W        W10565  11.286  10.055   2.718
 6515W        W10566   4.565   1.374   2.234
 6516W        W10567   6.965   4.178   0.025
 6517W        W10568   0.723   5.360   9.978
 6518W        W10569   6.683   1.708  11.186
 6519W        W10570   8.503  11.288   3.174
 6520W        W10571   7.150   1.988   0.630
 6521W        W10572   1.452   0.716   0.042
 6522W        W10573   7.765   9.913  11.231
 6523W        W10574   4.113   0.460  11.994
 6524W        W10575   8.089   8.194   9.965
 6525W        W10576   0.362   6.490   3.798
 6526W        W10577   4.547   5.749  11.500
 6527W        W10578   4.032  10.529   9.760
 6528W        W10579   5.683   2.342  10.741
 6529W        W10580   8.877   9.292   9.284
 6530W        W10581   1.859   6.937   2.225
 6531W        W10582   0.396  10.827  11.839
 6532W        W10583   3.049  10.851  11.270
 6533W        W10584   0.789   9.963  10.556
 6534W        W10585   2.548   5.384   8.198
 6535W        W10586   6.625   6.685  11.299
 6536W        W10587   3.195   3.304  10.934
 6537W        W10588  10.835  10.283  11.801
 6538W        W10589   1.284  11.176   2.779
 6539W        W10590   3.768  10.944  10.537
 6540W        W10591   7.578   1.976  11.387
 6541W        W10592   4.010  11.467  11.833
 6542W        W10593   0.896   0.857   1.314
 6543W        W10594   1.886   8.626   9.491
 6544W        W10595   3.636   6.172   0.987
 6545W        W10596   9.770   1.691  10.747
 6546W        W10597   3.280   5.608  11.968
 6547W        W10598   0.593   7.266   2.158
 6548W        W10599   5.807   7.010   2.656
 6549W        W10600   9.772  11.417  11.508
 6550W        W10601   5.275   6.736   1.365
 6551W        W10602   6.225   4.128   4.096
 6552W        W10603   1.554   5.987  11.246
 6553W        W10604   6.543   6.894   1.198
 6554W        W10605   7.142   7.662  10.433
 6555W        W10606   6.523   7.753  10.968
 6556W        W10607   4.178  10.983   2.972
 6557W        W10608   7.087   0.838  10.783
 6558W        W10609   5.956  11.495   9.466
 6559W        W10610   5.872   9.536   9.873
 6560W        W10611   3.805   8.941   2.305
 6561W        W10612   4.153   6.252   3.723
 6562W        W10613   1.279   2.803   0.371
 6563W        W10614  10.532   2.386  10.048
 6564W        W10615   0.342  11.471   2.763
 6565W        W10616   0.351   7.253   1.699
 6566W        W10617   3.181   2.115  11.972
 6567W        W10618   2.869   2.795  11.417
 6568W        W10619   5.443   9.256   3.198
 6569W        W10620   9.972   8.390   2.397
 6570W        W10621  10.837  11.159   1.693
 6571W        W10622   1.685   9.147   3.138
 6572W        W10623   2.343  11.096  10.472
 6573W        W10624   7.470   0.956   0.574
 6574W        W10625   1.630   1.327  11.441
 6575W        W10626   6.649   3.109   2.468
 6576W        W10627   2.127   6.572   8.678
 6577W        W10628   2.857   6.228  10.611
 6578W        W10629   4.241   3.526  10.883
 6579W        W10630   6.417   3.145   8.494
 6580W        W10631   2.291   2.467  10.605
 6581W        W10632   1.616   7.030   9.374
 6582W        W10633  11.246   7.629   2.696
 6583W        W10634   9.248   0.660   0.579
 6584W        W10635   1.754   8.661   2.255
 6585W        W10636   5.123  11.293   9.864
 6586W        W10637   2.220   9.465   9.176
 6587W        W10638   9.971   3.285   1.902
 6588W        W10639   8.769   3.356  11.971
 6589W        W10640   4.258   0.075   9.860
 6590W        W10641   9.845   2.438   1.868
 6591W        W10642  10.953   8.196   0.729
 6592W        W10643   9.717   0.689   0.371
 6593W        W10644   5.185   5.979   0.992
 6594W        W10645   7.749   4.550   9.035
 6595W        W10646   3.241   2.639   0.854
 6596W        W10647   5.214   6.091  10.327
 6597W        W10648  10.018   8.141  11.787
 6598W        W10649   6.117   0.948   0.878
 6599W        W10650   1.976   3.400  10.954
 6600W        W10651  10.216   6.099   0.760
 6601W        W10652   8.996   7.845  11.529
 6602W        W10653   1.361   1.956   3.282
 6603W        W10654   6.571   8.637   1.813
 6604W        W10655   6.304   7.183   8.975
 6605W        W10656  10.800   0.743   9.058
 6606W        W10657   2.772   8.864   9.539
 6607W        W10658  11.258   8.597   0.715
 6608W        W10659   3.542   4.108   0.950
 6609W        W10660   4.042   6.175   0.135
 6610W        W10661   4.408   1.774   0.695
 6611W        W10662   6.197   0.294  10.809
 6612W        W10663   4.095  11.444   0.789
 6613W        W10664   7.651   8.872   0.572
 6614W        W10665   2.014   3.027  11.713
 6615W        W10666   8.157   2.841  10.404
 6616W        W10667   1.309   3.612  11.704
 6617W        W10668   4.559   3.369  10.405
 6618W        W10669   4.893   7.149  11.392
 6619W        W10670   5.672   6.312  10.174
 6620W        W10671   7.466   3.863   1.586
 6621W        W10672   0.153   5.642   0.598
 6622W        W10673  10.276   8.583  10.109
 6623W        W10674   7.198   3.093   1.964
 6624W        W10675   6.002   2.354   9.464
 6625W        W10676   4.546   1.407   9.353
 6626W        W10677   4.491   4.687   3.238
 6627W        W10678  10.083   7.446  10.319
 6628W        W10679  10.055  10.916   0.809
 6629W        W10680  11.340   5.260  11.094
 6630W        W10681   4.789   1.348  10.291
 6631W        W10682   0.857   3.497   9.531
 6632W        W10683   5.774   4.373   0.689
 6633W        W10684  10.169   7.517   1.622
 6634W        W10685   8.713   1.299   9.769
 6635W        W10686   3.242   8.616   0.237
 6636W        W10687   5.904   1.635  11.041
 6637W        W10688   4.984   1.755   4.067
 6638W        W10689   6.988   1.330   1.199
 6639W        W10690   7.879   5.229   9.489
 6640W        W10691   0.470   3.783   2.831
 6641W        W10692   8.078  11.381  10.879
 6642W        W10693   1.936   5.261   9.000
 6643W        W10694   1.381   2.820  10.342
 6644W        W10695   8.159  11.319   9.981
 6645W        W10696   9.200   0.386   3.241
 6646W        W10697   0.419  11.216   0.181
 6647W        W10698   8.647  11.268  10.224
 6648W        W10699   2.692   6.558   8.737
 6649W        W10700  10.525   0.698  10.670
 6650W        W10701   5.738   7.744   4.028
 6651W        W10702   3.357   3.357  11.417
 6652W        W10703   4.083  10.361  10.791
 6653W        W10704   9.012   3.336   9.082
 6654W        W10705   6.197   5.693   2.739
 6655W        W10706   4.970   8.124   9.240
 6656W        W10707   9.253   5.922  10.417
 6657W        W10708  10.369   4.140   3.103
 6658W        W10709   3.420   7.389   2.905
 6659W        W10710   7.634   2.116  11.884
 6660W        W10711   3.109   1.386  11.370
 6661W        W10712  10.735  11.258   9.076
 6662W        W10713  10.356   0.972   3.173
 6663W        W10714   4.125   1.247  10.411
 6664W        W10715   5.877  10.913   2.466
 6665W        W10716   2.019  10.346   9.214
 6666W        W10717   1.369   3.727  10.690
 6667W        W10718   1.736   4.609   0.408
 6668W        W10719   4.220   1.218   1.857
 6669W        W10720   9.005   8.980   9.842
 6670W        W10721   1.303   4.578  10.802
 6671W        W10722   4.251   2.775   1.567
 6672W        W10723   0.712   4.160   1.209
 6673W        W10724   9.227  10.368   3.768
 6674W        W10725  10.736   6.071   1.551
 6675W        W10726   2.114  10.618   1.814
 6676W        W10727  11.222   0.699   3.152
 6677W        W10728   0.577   1.893  11.151
 6678W        W10729   1.852   9.925   1.561
 6679W        W10730   7.601   6.216  10.204
 6680W        W10731   4.364   6.651  11.827
 6681W        W10732   0.108   1.687  11.263
 6682W        W10733   7.613  10.323  10.967
 6683W        W10734   7.579   8.016  10.643
 6684W        W10735   3.754   4.991   9.348
 6685W        W10736   5.107   0.299   1.290
 6686W        W10737   1.222   5.943  10.854
 6687W        W10738   9.856   8.850   3.315
 6688W        W10739   7.651   5.492   0.906
 6689W        W10740   2.221   8.807   2.450
 6690W        W10741   7.575   1.919   9.224
 6691W        W10742   9.300   4.834  10.072
 6692W        W10743   7.142   7.440   9.054
 6693W        W10744  10.903  10.954   3.047
 6694W        W10745   7.978   2.335   9.705
 6695W        W10746   3.713   6.612  10.815
 6696W        W10747   7.891  10.915   3.390
 6697W        W10748   3.932  10.287  11.350
 6698W        W10749   5.392   8.472  10.956
 6699W        W10750   0.580   9.063  10.196
 6700W        W10751   0.286   3.180   2.272
 6701W        W10752   6.092   2.520  10.986
 6702W        W10753  10.632   8.394   1.360
 6703W        W10754   3.234  11.481   9.179
 6704W        W10755  10.133   4.240   9.121
 6705W        W10756   6.795   1.804   2.416
 6706W        W10757   0.811   4.570  10.474
 6707W        W10758   5.750   2.828   2.826
 6708W        W10759   9.963   2.710   0.157
 6709W        W10760   3.915   7.264   2.831
 6710W        W10761  10.151   0.292   3.425
 6711W        W10762   7.384   1.039   2.381
 6712W        W10763   7.947   3.306  11.136
 6713W        W10764   0.816   7.378   0.809
 6714W        W10765   1.853   3.117  10.172
 6715W        W10766   1.808   6.417   0.381
 6716W        W10767   5.561   1.903  11.986
 6717W        W10768   2.353   9.584  10.653
 6718W        W10769   6.177   2.513  11.506
 6719W        W10770   4.511   6.114   1.284
 6720W        W10771   4.746  11.484   0.410
 6721W        W10772   9.035   7.374  10.405
 6722W        W10773   1.655  11.008  11.546
 6723W        W10774   4.163   9.545  11.488
 6724W        W10775   6.265   8.731   2.203
 6725W        W10776   3.643   0.874  10.412
 6726W        W10777   0.941   6.268  11.821
 6727W        W10778   8.832   7.609   8.838
 6728W        W10779   5.347   4.456   0.952
 6729W        W10780  10.002   3.237   8.755
 6730W        W10781   8.067   1.934  11.568
 6731W        W10782   9.636   9.323   3.250
 6732W        W10783   5.577   4.612   1.914
 6733W        W10784   5.842   7.079   9.186
 6734W        W10785   3.422   1.945   2.163
 6735W        W10786   8.432   5.916   9.898
 6736W        W10787   8.371   8.393   9.549
 6737W        W10788   0.221   4.079   1.368
 6738W        W10789   6.131   1.574   9.073
 6739W        W10790   4.770   7.958   1.125
 6740W        W10791   8.958   9.173   3.598
 6741W        W10792  10.006   7.971   1.522
 6742W        W10793   6.812  10.864   2.219
 6743W        W10794   9.434   3.350   8.744
 6744W        W10795   8.561   0.217   3.773
 6745W        W10796   2.959   0.696   0.286
 6746W        W10797   6.021   2.150   9.925
 6747W        W10798   4.935   2.620   1.793
 6748W        W10799   7.037   8.669   9.488
 6749W        W10800   7.801  10.377  11.440
 6750W        W10801   5.679   0.729   2.721
 6751W        W10802  11.405   5.180   9.922
 6752W        W10803   7.438  10.033  11.617
 6753W        W10804   7.128  11.181   1.323
 6754W        W10805  11.388   3.829  11.368
 6755W        W10806   9.862   9.996  11.932
 6756W        W10807   7.141   8.896   0.475
 6757W        W10808   2.166   4.980  11.745
 6758W        W10809   4.740   8.921   2.756
 6759W        W10810   2.719   9.509   1.683
 6760W        W10811  10.744   7.719   2.246
 6761W        W10812   1.745   2.686   9.892
 6762W        W10813   5.392   9.356   9.924
 6763W        W10814   2.321  10.051  11.383
 6764W        W10815  11.434   8.117   0.906
 6765W        W10816   8.202   1.212   0.635
 6766W        W10817   9.977   7.601   0.324
 6767W        W10818   5.102   7.238  10.921
 6768W        W10819   3.545   6.896   2.777
 6769W        W10820   8.620   3.022   1.243
 6770W        W10821   7.761   3.585   1.254
 6771W        W10822   1.373   7.169  11.555
 6772W        W10823   0.905   3.805   0.422
 6773W        W10824   2.794   2.853   0.998
 6774W        W10825  10.315  11.013  11.866
 6775W        W10826   6.514   2.344  10.761
 6776W        W10827   9.459   6.948   9.692
 6777W        W10828   4.765   9.912  10.958
 6778W        W10829   6.668   0.809   3.879
 6779W        W10830  10.516   7.290   1.333
 6780W        W10831  11.331   0.141   9.593
 6781W        W10832   5.181   9.007  10.748
 6782W        W10833   2.344   1.966  10.525
 6783W        W10834   5.078   9.320   2.405
 6784W        W10835   3.148   5.115   3.791
 6785W        W10836  11.302   5.269   0.505
 6786W        W10837   8.175   6.007   8.440
 6787W        W10838   9.758   0.508   1.801
 6788W        W10839  10.484   3.867  10.904
 6789W        W10840   1.178   6.681   8.712
 6790W        W10841   2.111   7.610   3.666
 6791W        W10842   4.506   1.449  10.692
 6792W        W10843   6.047   7.538  10.262
 6793W        W10844   2.703   7.516   9.332
 6794W        W10845   4.405  10.687   9.410
 6795W        W10846   4.795   7.162  10.336
 6796W        W10847   7.920  10.347   1.566
 6797W        W10848   7.967   1.242   1.427
 6798W        W10849   7.149   6.795   2.687
 6799W        W10850   9.185   8.430   1.267
 6800W        W10851   5.764   2.633   0.457
 6801W        W10852   1.882   2.153  10.488
 6802W        W10853   3.034   2.490  11.040
 6803W        W10854  10.420   7.434   2.960
 6804W        W10855  11.080   0.436   1.425
 6805W        W10856   5.905   4.285  11.382
 6806W        W10857   7.501   5.349   1.366
 6807W        W10858   7.170   9.505   2.889
 6808W        W10859   9.373   8.875   1.494
 6809W        W10860   5.654  10.777   3.449
 6810W        W10861   7.887   2.367   9.207
 6811W        W10862   3.690   7.036   0.029
 6812W        W10863   2.276  11.098   1.870
 6813W        W10864  11.409   0.515   0.951
 6814W        W10865   3.277   8.887   1.035
 6815W        W10866   7.348   6.986   8.850
 6816W        W10867   8.908   7.625   9.980
 6817W        W10868  10.513   9.078   8.714
 6818W        W10869   4.830   6.661  11.268
 6819W        W10870   0.393   4.882   1.622
 6820W        W10871   2.429   6.451  11.479
 6821W        W10872   9.489   9.775   2.938
 6822W        W10873   8.802   5.754  11.898
 6823W        W10874  10.892   0.356   9.407
 6824W        W10875   5.001   7.480   0.949
 6825W        W10876   2.357  10.327   0.930
 6826W        W10877  10.331   6.306   1.270
 6827W        W10878   5.309   9.794   0.221
 6828W        W10879  11.263   4.676   3.303
 6829W        W10880   5.234   0.805  11.775
 6830W        W10881   5.128   2.599   3.623
 6831W        W10882   5.743   4.101  10.745
 6832W        W10883   9.391  10.282   2.867
 6833W        W10884   1.844   7.801   2.690
 6834W        W10885  10.767   7.103   0.903
 6835W        W10886   9.881   4.736   0.207
 6836W        W10887   9.983   1.211   2.083
 6837W        W10888   3.195   4.743   0.898
 6838W        W10889   2.972   3.428  11.747
 6839W        W10890   0.654  10.445   0.078
 6840W        W10891   6.669   8.681   2.695
 6841W        W10892   8.468   9.482  10.131
 6842W        W10893   1.811   5.539   3.001
 6843W        W10894  11.421   2.887   2.684
 6844W        W10895   5.487  11.323   9.409
 6845W        W10896   8.995   9.899   0.850
 6846W        W10897   8.407   3.467  10.921
 6847W        W10898   6.539   1.651  10.183
 6848W        W10899   0.829   5.326  11.886
 6849W        W10900   2.679   8.164   1.287
 6850W        W10901   9.386   4.220  10.371
 6851W        W10902   7.494   6.700   0.328
 6852W        W10903   9.991   3.766   1.150
 6853W        W10904   2.166   7.407  10.577
 6854W        W10905   9.232   7.910   9.732
 6855W        W10906   8.466   9.892   9.822
 6856W        W10907   2.693   3.780  11.989
 6857W        W10908   1.004   0.725  10.864
 6858W        W10909  10.539  10.280   9.639
 6859W        W10910   6.247   1.282   8.665
 6860W        W10911   0.496   6.030   3.089
 6861W        W10912   0.812   4.543   9.531
 6862W        W10913   7.477   1.412   1.397
 6863W        W10914   9.409   5.832  11.324
 6864W        W10915  10.857   1.333  11.625
 6865W        W10916   8.893   4.779  11.790
 6866W        W10917   2.510   3.314  10.863
 6867W        W10918   6.374   1.377  10.926
 6868W        W10919   7.476   7.371   0.812
 6869W        W10920   1.353  10.939   2.323
 6870W        W10921   8.874   7.404   3.284
 6871W        W10922   5.483  10.528   2.465
 6872W        W10923   4.130  10.370  11.823
 6873W        W10924   1.350   1.805   9.958
 6874W        W10925   3.788   4.155   2.806
 6875W        W10926   5.045   6.047  11.994
 6876W        W10927   9.443   8.409   2.655
 6877W        W10928   7.654   5.558   2.198
 6878W        W10929   1.270  10.008   3.303
 6879W        W10930   5.561   7.567   0.912
 6880W        W10931  10.416  10.036   3.112
 6881W        W10932   4.259   5.231   0.551
 6882W        W10933   4.258   2.192   9.303
 6883W        W10934   8.909   7.143   2.820
 6884W        W10935   5.780   3.684  11.492
 6885W        W10936   7.936   2.759   1.695
 6886W        W10937   3.200   2.338  11.510
 6887W        W10938   7.496  10.034   1.826
 6888W        W10939   2.351   6.666   9.129
 6889W        W10940   9.029   9.540   1.727
 6890W        W10941   4.122  10.298   9.264
 6891W        W10942   3.168   6.168   1.776
 6892W        W10943   1.691   8.144  11.447
 6893W        W10944   6.123   0.230   1.398
 6894W        W10945   2.948   3.320   2.283
 6895W        W10946   4.175  11.441   8.936
 6896W        W10947   8.964   8.727   3.286
 6897W        W10948   7.158   8.159  10.342
 6898W        W10949   7.293   2.242   1.217
 6899W        W10950  10.090   8.091   9.875
 6900W        W10951   5.675   1.770   0.486
 6901W        W10952   0.805  11.361  10.912
 6902W        W10953   0.714  10.738   9.444
 6903W        W10954   3.299  11.225   2.589
 6904W        W10955   0.312   7.861   9.021
 6905W        W10956   2.009   7.598  10.127
 6906W        W10957   4.705   1.907  10.508
 6907W        W10958   7.564  10.441   1.185
 6908W        W10959   5.279   8.847   9.900
 6909W        W10960   7.194   5.336   0.698
 6910W        W10961   8.011   7.460   0.420
 6911W        W10962   5.608   3.118   0.422
 6912W        W10963  10.952   8.946  10.989
 6913W        W10964   3.664  10.405   9.436
 6914W        W10965   8.048   6.340   9.263
 6915W        W10966  10.293   1.991  10.572
 6916W        W10967   2.828   5.689   3.760
 6917W        W10968   6.112   0.264   0.058
 6918W        W10969   2.360   0.916  11.258
 6919W        W10970   8.127  10.322  11.004
 6920W        W10971   2.671  10.176  10.493
 6921W        W10972   1.431   1.510  10.831
 6922W        W10973   9.538   0.327  11.325
 6923W        W10974   7.152   9.193   9.098
 6924W        W10975   3.324   5.233   0.924
 6925W        W10976   9.880   7.219   0.011
 6926W        W10977   7.497   1.808   0.993
 6927W        W10978   6.908   7.421  10.811
 6928W        W10979  11.222   4.726  11.408
 6929W        W10980   9.253   7.613   2.070
 6930W        W10981   2.843   9.949  10.926
 6931W        W10982   7.447  10.091   3.648
 6932W        W10983  10.819   5.518   0.378
 6933W        W10984  10.459   8.839  10.767
 6934W        W10985   0.877  11.494   2.739
 6935W        W10986  11.054   3.368  11.287
 6936W        W10987  10.723   5.105   2.773
 6937W        W10988   4.257  10.015   0.170
 6938W        W10989   8.074  11.073  11.411
 6939W        W10990   0.282   6.747   9.648
 6940W        W10991   9.752   9.469   9.637
 6941W        W10992   7.360   2.443  10.409
 6942W        W10993   5.275   4.335   3.160
 6943W        W10994   2.656  11.348   9.876
 6944W        W10995   3.450   0.991  10.876
 6945W        W10996   1.635   5.697   9.004
 6946W        W10997   1.659   4.025   9.137
 6947W        W10998   8.428   9.252   1.435
 6948W        W10999   3.394   4.708   1.511
 6949W        W11000   1.623   6.874   1.170
 6950W        W11001   6.805   8.817   9.923
 6951W        W11002   9.825   9.462   1.201
 6952W        W11003   9.016   9.957   1.420
 6953W        W11004   3.121   3.831   2.328
 6954W        W11005   7.356   2.670  10.856
 6955W        W11006   8.429   5.226  10.463
 6956W        W11007   8.365   8.557   0.867
 6957W        W11008   7.487   5.673   0.456
 6958W        W11009  11.393   0.303   3.475
 6959W        W11010   8.021   0.735   1.340
 6960W        W11011   0.446   4.011  10.901
 6961W        W11012  10.908   2.466  10.962
 6962W        W11013   6.528   7.684   9.647
 6963W        W11014   4.265   1.368   8.911
 6964W        W11015   6.059   5.021   9.591
 6965W        W11016   5.256   1.656   1.224
 6966W        W11017   5.795  10.029   9.105
 6967W        W11018   6.353  11.425  10.440
 6968W        W11019   4.379   5.611   1.371
 6969W        W11020   8.840   0.972  11.934
 6970W        W11021   3.317   2.199   8.737
 6971W        W11022   9.949   6.009   8.862
 6972W        W11023   7.527   1.701  10.950
 6973W        W11024   3.809  11.427  10.001
 6974W        W11025  10.248   5.340  11.002
 6975W        W11026   7.478   1.330   1.907
 6976W        W11027   9.820   7.497   2.285
 6977W        W11028   5.535   8.522  11.994
 6978W        W11029   5.787  11.033   9.698
 6979W        W11030   6.206   4.081   9.941
 6980W        W11031   5.490  11.422  11.765
 6981W        W11032   8.527   0.800   0.706
 6982W        W11033   5.721   8.892   9.089
 6983W        W11034   9.538  11.269   9.769
 6984W        W11035   2.757   0.705   3.161
 6985W        W11036   4.525   9.274  10.238
 6986W        W11037   6.643   5.176  11.057
 6987W        W11038   4.767   3.301   2.315
 6988W        W11039   2.433   5.170   9.953
 6989W        W11040  11.244   6.506   1.838
 6990W        W11041   2.876   1.949   2.163
 6991W        W11042   3.720   6.243  10.164
 6992W        W11043  11.278   7.367  10.147
 6993W        W11044   4.661  11.449   3.472
 6994W        W11045  10.306   2.051   1.200
 6995W        W11046   9.510   0.473   9.020
 6996W        W11047   8.316   0.684   9.828
 6997W        W11048   4.086  10.247   3.793
 6998W        W11049   1.203   4.554  11.693
 6999W        W11050   5.112   7.102   9.932
 7000W        W11051   6.336  11.142   0.653
 7001W        W11052   2.667   1.388  11.764
 7002W        W11053  10.335   9.536   8.494
 7003W        W11054   9.143   2.865   8.909
 7004W        W11055   1.909   0.127   9.015
 7005W        W11056   7.581   1.044   8.947
 7006W        W11057   3.779   2.871  11.841
 7007W        W11058   6.944   4.054   9.477
 7008W        W11059   2.741   2.936  10.074
 7009W        W11060   0.285   4.024   9.848
 7010W        W11061  10.182   1.932   0.724
 7011W        W11062   1.784  10.844   3.144
 7012W        W11063   8.973   4.120  10.677
 7013W        W11064   2.065   6.336   3.465
 7014W        W11065   2.785  11.241   1.644
 7015W        W11066  10.294   5.701   0.375
 7016W        W11067  10.848   1.347   1.547
 7017W        W11068   9.867   1.181   0.426
 7018W        W11069   1.029   7.042   0.463
 7019W        W11070   0.955   4.988   2.746
 7020W        W11071   7.288   7.149  10.581
 7021W        W11072  11.435   1.039   0.899
 7022W        W11073   2.922  11.295   0.127
 7023W        W11074   5.779   6.679   2.242
 7024W        W11075   1.855   0.879  11.283
 7025W        W11076   4.006   8.397  11.194
 7026W        W11077   7.354   2.340   0.288
 7027W        W11078   0.846   4.659   0.453
 7028W        W11079   1.325   9.798   8.863
 7029W        W11080   8.670   2.943   9.133
 7030W        W11081   6.729   9.003   3.404
 7031W        W11082   4.307   5.655   0.847
 7032W        W11083   6.056   3.692  10.683
 7033W        W11084   5.508   6.303   1.189
 7034W        W11085   4.977   3.654   8.667
 7035W        W11086   5.977   9.981   9.605
 7036W        W11087   6.463  10.885   1.832
 7037W        W11088  11.292   1.684   2.684
 7038W        W11089   7.604   2.768   0.424
 7039W        W11090   0.318   8.138   2.214
 7040W        W11091   9.047   4.649   9.112
 7041W        W11092   1.405  10.809   8.850
 7042W        W11093   7.822   0.213   2.204
 7043W        W11094   3.406   8.978   0.549
 7044W        W11095   7.965   3.653   0.789
 7045W        W11096   5.128   9.747  10.102
 7046W        W11097   8.834   0.907   1.951
 7047W        W11098  10.049  11.053   2.864
 7048W        W11099   5.704   1.289   3.475
 7049W        W11100   6.008   8.917  11.519
 7050W        W11101   5.632   4.668   2.413
 7051W        W11102   8.389   0.771   0.200
 7052W        W11103   8.069   5.820   3.658
 7053W        W11104   0.628   0.905   9.063
 7054W        W11105   2.851   4.215  11.714
 7055W        W11106  11.201   5.980   2.820
 7056W        W11107   7.508   8.031   1.584
 7057W        W11108   5.365   0.318  10.509
 7058W        W11109   5.719   6.583   9.147
 7059W        W11110   7.876   7.876   2.073
 7060W        W11111   8.883  10.416  10.333
 7061W        W11112   7.920  10.775  11.787
 7062W        W11113  10.992   0.323   0.533
 7063W        W11114   3.560   4.004  10.552
 7064W        W11115  10.176   1.470   0.957
 7065W        W11116   9.989   6.506  10.415
 7066W        W11117   4.187   2.688   3.517
 7067W        W11118   6.593   1.777   8.922
 7068W        W11119   5.715   8.169   9.517
 7069W        W11120   3.228   9.333   1.805
 7070W        W11121   7.549  11.465   1.197
 7071W        W11122   1.762   8.658   3.199
 7072W        W11123   7.342   8.338  11.782
 7073W        W11124   6.797  10.381  11.317
 7074W        W11125   0.838   8.540  10.781
 7075W        W11126   5.757  11.450   0.240
 7076W        W11127   6.727   6.328  11.773
 7077W        W11128   9.712   8.197   3.669
 7078W        W11129   5.754   8.828   0.960
 7079W        W11130  10.531   5.524   0.842
 7080W        W11131   9.130  10.434   3.259
 7081W        W11132   7.899  10.970   9.651
 7082W        W11133   6.634  10.891   9.237
 7083W        W11134   2.455   7.051  10.336
 7084W        W11135  10.749   0.329   0.071
 7085W        W11136   6.654   9.124  10.860
 7086W        W11137   4.070   2.838   2.051
 7087W        W11138   8.147   9.865   1.372
 7088W        W11139   5.098   4.518   2.226
 7089W        W11140   0.881   4.149   1.692
 7090W        W11141   6.889   2.508   9.989
 7091W        W11142   2.632   4.941  10.393
 7092W        W11143   8.272   0.358  11.859
 7093W        W11144   7.640   9.027   9.223
 7094W        W11145   3.728   5.740   0.182
 7095W        W11146  10.363   6.109   3.225
 7096W        W11147   0.023  10.814   1.393
 7097W        W11148   4.722   0.359   9.954
 7098W        W11149   5.966   3.373   8.560
 7099W        W11150   8.419  10.524   0.923
 7100W        W11151   4.719   4.135   0.439
 7101W        W11152  11.478   1.815   1.194
 7102W        W11153  10.814   7.354   2.588
 7103W        W11154   5.540   9.411   9.005
 7104W        W11155   1.425   9.126   0.156
 7105W        W11156   9.392   0.464  10.349
 7106W        W11157   2.633   7.057  11.206
 7107W        W11158   2.850  10.927  11.759
 7108W        W11159   2.129   7.337   9.398
 7109W        W11160   1.671   9.681   0.775
 7110W        W11161   0.954  10.120  11.020
 7111W        W11162   9.983   2.852  11.674
 7112W        W11163   2.346   1.566   9.617
 7113W        W11164   8.597   3.370   1.606
 7114W        W11165   0.161  10.510   2.803
 7115W        W11166  11.406   8.467   2.259
 7116W        W11167   8.456   7.099   9.409
 7117W        W11168   5.207   1.605   2.680
 7118W        W11169   9.854   6.134   3.075
 7119W        W11170   7.969   6.974   3.103
 7120W        W11171   6.989   6.585   8.798
 7121W        W11172   1.764   6.466   0.885
 7122W        W11173   6.546   1.830  10.668
 7123W        W11174   2.732   5.738  10.735
 7124W        W11175   6.073  11.302  10.849
 7125W        W11176   1.110   5.748  10.050
 7126W        W11177   1.265   8.861  10.017
 7127W        W11178   5.063   2.971   0.915
 7128W        W11179   0.742   6.505  11.345
 7129W        W11180   8.464   1.142   1.633
 7130W        W11181   7.855   7.422   2.324
 7131W        W11182   2.782   2.561   3.349
 7132W        W11183   5.559   1.348  11.833
 7133W        W11184   2.018   7.676  11.426
 7134W        W11185   8.431   0.740  11.150
 7135W        W11186   0.470   6.726  10.527
 7136W        W11187   1.957  11.125   1.177
 7137W        W11188   0.257  11.091  10.277
 7138W        W11189   4.014   4.573   9.554
 7139W        W11190  10.894   9.034   0.034
 7140W        W11191   5.103   5.570  11.763
 7141W        W11192   9.844   5.271   3.039
 7142W        W11193   6.596   9.602   8.459
 7143W        W11194  10.026   1.783   9.774
 7144W        W11195   4.700   5.731   0.534
 7145W        W11196   1.331   8.383  10.204
 7146W        W11197   8.390  11.290   9.290
 7147W        W11198   3.139   0.988  10.100
 7148W        W11199   8.612   5.772   8.230
 7149W        W11200   3.564   4.151   9.218
 7150W        W11201   2.339  10.053  10.863
 7151W        W11202   1.771   5.027   9.423
 7152W        W11203   8.064   5.998  10.240
 7153W        W11204   6.969   0.951   2.118
 7154W        W11205   5.221   0.848   2.948
 7155W        W11206   4.609   3.218   0.820
 7156W        W11207   3.499   0.045  11.431
 7157W        W11208   8.051   0.072  11.398
 7158W        W11209   4.668   0.294   8.601
 7159W        W11210   8.507   7.636   0.403
 7160W        W11211  10.327   2.694   1.350
 7161W        W11212   8.567   1.173  11.370
 7162W        W11213   5.303  11.358   3.028
 7163W        W11214   4.892   0.661   3.279
 7164W        W11215  10.047   8.456   9.396
 7165W        W11216   4.158   1.870   8.759
 7166W        W11217   5.213   8.260   1.275
 7167W        W11218   3.329  10.806   2.255
 7168W        W11219   5.121   9.105   1.520
 7169W        W11220   6.764  10.911   0.083
 7170W        W11221   1.614   9.004  10.870
 7171W        W11222  11.370   1.878  11.676
 7172W        W11223   2.611   5.732   1.372
 7173W        W11224   8.610   4.084   0.483
 7174W        W11225   3.352   5.215   1.453
 7175W        W11226   6.884   4.571  11.252
 7176W        W11227  10.825   2.729   0.741
 7177W        W11228   6.516  11.131   3.053
 7178W        W11229   5.098   3.092  11.085
 7179W        W11230   9.421  10.874   0.112
 7180W        W11231   3.776   7.974  10.495
 7181W        W11232   7.136   7.050   0.073
 7182W        W11233   1.470   8.511   9.180
 7183W        W11234   3.868   1.868   1.295
 7184W        W11235   1.187   6.729  11.748
 7185W        W11236   5.189   1.427   0.751
 7186W        W11237   4.731   8.678   1.912
 7187W        W11238   3.322   8.797   8.639
 7188W        W11239   1.280   4.660   0.181
 7189W        W11240   7.228   8.393  10.797
 7190W        W11241   0.654   1.487  10.402
 7191W        W11242   2.608   8.660   1.223
 7192W        W11243   7.017   1.703  10.339
 7193W        W11244   5.063  10.795   0.516
 7194W        W11245   2.643   2.336   2.459
 7195W        W11246  10.790   4.221   2.812
 7196W        W11247   4.663   6.108   1.819
 7197W        W11248   8.805   3.662   1.225
 7198W        W11249   5.524   3.265   2.671
 7199W        W11250   1.808   5.533   9.452
 7200W        W11251   4.458   2.143   2.874
 7201W        W11252   6.166   3.165   8.966
 7202W        W11253   6.551   5.645   1.730
 7203W        W11254   3.596  11.248  10.959
 7204W        W11255   3.364   7.149  10.479
 7205W        W11256   3.804   2.618  10.361
 7206W        W11257  11.405   4.358   9.275
 7207W        W11258   9.466   5.020   0.414
 7208W        W11259   6.545   5.687  11.264
 7209W        W11260   8.711   6.639   8.769
 7210W        W11261   0.588   1.259   9.911
 7211W        W11262   4.298   4.571  10.817
 7212W        W11263   1.050   7.877   3.397
 7213W        W11264   4.146   2.534  11.954
 7214W        W11265   5.745   7.515   8.910
 7215W        W11266   8.095   3.700   9.612
 7216W        W11267   0.385   4.892  11.750
 7217W        W11268   0.853   9.035  10.629
 7218W        W11269   6.966   0.841   2.620
 7219W        W11270   0.203   7.641  10.077
 7220W        W11271   3.817   2.086  11.428
 7221W        W11272   7.023  11.461   2.333
 7222W        W11273   9.139   3.330   2.764
 7223W        W11274   4.099   1.703   9.253
 7224W        W11275   9.437   2.426   9.695
 7225W        W11276   5.216   6.750   9.157
 7226W        W11277   6.127   6.230   9.396
 7227W        W11278   0.232   6.611   0.050
 7228W        W11279   2.256   0.211   1.033
 7229W        W11280   5.515  10.262  10.765
 7230W        W11281   4.953   0.188   3.138
 7231W        W11282   2.201   1.956   3.194
 7232W        W11283   0.762  11.206  11.791
 7233W        W11284   8.094  10.994   2.903
 7234W        W11285   8.674   1.331   0.760
 7235W        W11286   0.544   9.721   0.576
 7236W        W11287   7.023   7.577   9.549
 7237W        W11288   0.113   5.268   0.082
 7238W        W11289   4.675   6.170  11.234
 7239W        W11290   3.843  10.982  11.925
 7240W        W11291   4.562   7.574  10.054
 7241W        W11292   8.342   9.807   3.609
 7242W        W11293   3.600   1.308  10.153
 7243W        W11294   2.749   9.937   2.039
 7244W        W11295   2.145   5.124  10.353
 7245W        W11296   1.781   3.571  11.450
 7246W        W11297   8.553   8.877   9.400
 7247W        W11298   6.506   7.097   1.947
 7248W        W11299   2.621   0.937   9.964
 7249W        W11300   2.679   1.837   2.634
 7250W        W11301   0.234   0.012   1.894
 7251W        W11302   4.119   3.602  10.420
 7252W        W11303   3.717   6.087   8.337
 7253W        W11304   3.287   4.752  10.074
 7254W        W11305   0.413   6.665   1.133
 7255W        W11306   0.766   3.154  11.013
 7256W        W11307   8.620   8.912  11.008
 7257W        W11308   1.736   8.983  11.797
 7258W        W11309   8.350   1.108   1.114
 7259W        W11310   2.538   5.622   8.722
 7260W        W11311   7.440   0.471   2.983
 7261W        W11312   2.716   8.845  10.054
 7262W        W11313   4.773   2.486  11.467
 7263W        W11314  10.905   2.961   2.530
 7264W        W11315   3.472  10.551   0.451
 7265W        W11316   6.230   5.512  11.750
 7266W        W11317   7.545   8.076  11.139
 7267W        W11318   8.857   8.501   0.863
 7268W        W11319   8.142   6.368   1.347
 7269W        W11320   9.985   0.282   9.191
 7270W        W11321   9.757   7.893   3.260
 7271W        W11322   5.086   8.258  11.951
 7272W        W11323   1.759   2.621   8.973
 7273W        W11324  10.337   8.874   2.756
 7274W        W11325   3.689   4.212   8.717
 7275W        W11326  10.364   2.171  11.382
 7276W        W11327   6.260  10.394   9.736
 7277W        W11328   2.320   3.835   8.631
 7278W        W11329   3.803   9.722   0.205
 7279W        W11330   4.192   0.373   2.432
 7280W        W11331  10.375   1.800   1.839
 7281W        W11332  10.942   2.587   2.136
 7282W        W11333   1.853   7.740   9.656
 7283W        W11334   0.421   0.398   1.556
 7284W        W11335   9.089   2.793  11.320
 7285W        W11336  10.862   6.169   9.227
 7286W        W11337   2.208   6.661   1.652
 7287W        W11338  10.256   7.926   3.117
 7288W        W11339  10.886   4.667  11.798
 7289W        W11340   6.774   5.822   1.269
 7290W        W11341   0.843   2.902  10.179
 7291W        W11342   2.738   9.924  10.006
 7292W        W11343  11.272   9.508   9.023
 7293W        W11344   8.953   2.548   3.329
 7294W        W11345   1.002   2.824  10.689
 7295W        W11346   7.511  11.296   2.223
 7296W        W11347   5.697   4.045   4.048
 7297W        W11348   0.902  11.350   0.518
 7298W        W11349   1.182   4.180   0.996
 7299W        W11350   8.467   0.969   9.446
 7300W        W11351  11.161   1.679   3.653
 7301W        W11352   3.695   1.281   1.907
 7302W        W11353   2.293   9.364  11.539
 7303W        W11354   7.071   2.004  11.360
 7304W        W11355   1.739   7.834   0.977
 7305W        W11356   9.096  10.835   1.322
 7306W        W11357  10.127  11.050  11.382
 7307W        W11358   1.370   4.115  11.011
 7308W        W11359   4.194   4.689   1.808
 7309W        W11360  10.518   8.431   1.855
 7310W        W11361   2.349   3.442   3.682
 7311W        W11362   6.719   1.368   3.317
 7312W        W11363   1.569  10.493   0.919
 7313W        W11364   5.458   8.402   0.841
 7314W        W11365   0.368  10.403  11.426
 7315W        W11366   5.000  11.068   2.029
 7316W        W11367   1.057   7.476   1.294
 7317W        W11368   2.042   5.165   1.249
 7318W        W11369   0.476   2.647   0.995
 7319W        W11370   5.654   4.660   2.976
 7320W        W11371   4.497   3.235   9.029
 7321W        W11372   9.877   4.218   0.902
 7322W        W11373   3.865   8.353  11.679
 7323W        W11374   4.243  10.572   1.947
 7324W        W11375   8.851   2.349  11.441
 7325W        W11376   6.220   9.234   0.293
 7326W        W11377   0.298   5.150   0.664
 7327W        W11378   5.681   2.804  10.488
 7328W        W11379   0.454  10.994  10.760
 7329W        W11380   0.486   2.160   9.905
 7330W        W11381   0.497   6.719   2.128
 7331W        W11382  10.423   1.979   9.085
 7332W        W11383   6.889   6.049  11.380
 7333W        W11384   9.045   0.318   1.372
 7334W        W11385   2.714   6.216   0.478
 7335W        W11386  11.364  10.234   0.267
 7336W        W11387   9.066   2.141   2.125
 7337W        W11388   1.176   7.919   2.364
 7338W        W11389   3.318   5.088  11.908
 7339W        W11390   6.491   4.509  10.516
 7340W        W11391   9.270   0.575   0.078
 7341W        W11392   1.767   9.066   9.252
 7342W        W11393   3.357   1.706   8.519
 7343W        W11394  10.037   0.988   0.869
 7344W        W11395   9.990   2.404   0.798
 7345W        W11396   0.683  11.242   9.541
 7346W        W11397   8.705   6.055   8.672
 7347W        W11398   7.909   4.270   9.811
 7348W        W11399   8.999  10.181  11.927
 7349W        W11400   6.963   0.832   9.734
 7350W        W11401   7.961   4.499  10.276
 7351W        W11402   9.661   2.907   8.957
 7352W        W11403  10.412   0.934   2.272
 7353W        W11404  11.338   6.148   9.462
 7354W        W11405   5.828   2.299   1.191
 7355W        W11406   6.539   0.227   2.385
 7356W        W11407   8.260   7.888   9.567
 7357W        W11408   8.054   7.159   0.001
 7358W        W11409   7.952  11.239   1.445
 7359W        W11410   2.788   4.987   0.729
 7360W        W11411   4.950   7.069   9.449
 7361W        W11412   4.681   4.763   2.028
 7362W        W11413   1.790   2.332   0.978
 7363W        W11414   0.320   5.774  10.332
 7364W        W11415   2.861   3.708   0.488
 7365W        W11416   4.998   1.779   8.772
 7366W        W11417  10.690   6.806   9.909
 7367W        W11418   2.254   0.268   0.515
 7368W        W11419   4.159   4.881  10.383
 7369W        W11420   2.010   5.409   0.790
 7370W        W11421   6.062   6.482  10.683
 7371W        W11422   8.749   9.500   0.628
 7372W        W11423   9.962   5.657   2.488
 7373W        W11424  10.345   7.447   0.676
 7374W        W11425   1.476  11.386  10.448
 7375W        W11426  10.697   9.633   0.670
 7376W        W11427   8.622   2.553   1.044
 7377W        W11428   4.281   9.958  11.165
 7378W        W11429   8.761   5.919  10.302
 7379W        W11430   8.430   3.834   0.889
 7380W        W11431   2.090   8.077   0.719
 7381W        W11432  11.185   3.562   3.295
 7382W        W11433   7.527  10.514   2.731
 7383W        W11434   9.021   8.590   2.282
 7384W        W11435   0.959   6.922   2.247
 7385W        W11436   7.613  11.336  11.640
 7386W        W11437  10.381   8.913   1.392
 7387W        W11438   3.763   7.101   1.964
 7388W        W11439   0.561   3.680   1.354
 7389W        W11440   3.552   0.737   9.920
 7390W        W11441   0.595   9.143   2.218
 7391W        W11442  11.411   8.633  10.880
 7392W        W11443   7.304   2.812   2.820
 7393W        W11444   8.721   8.385   1.501
 7394W        W11445   3.685   3.644   9.372
 7395W        W11446   4.718   5.715  11.007
 7396W        W11447   5.331   7.274   9.143
 7397W        W11448   7.418   0.532   2.481
 7398W        W11449   3.217   3.136   9.914
 7399W        W11450   9.715   0.416   3.135
 7400W        W11451   2.300   9.784   3.352
 7401W        W11452   7.824  10.596  10.592
 7402W        W11453   7.205   1.312   3.208
 7403W        W11454   1.375   0.244   1.409
 7404W        W11455   4.479   8.468   1.122
 7405W        W11456   5.735   2.814  11.546
 7406W        W11457   1.151   1.021   0.335
 7407W        W11458   6.562   8.125   1.864
 7408W        W11459   2.825   2.709   0.371
 7409W        W11460   9.488   1.947   9.526
 7410W        W11461   3.577   7.009  11.528
 7411W        W11462   0.758   6.067   9.471
 7412W        W11463  10.255   2.919  11.024
 7413W        W11464   3.580   3.195   9.102
 7414W        W11465   2.019   0.876   3.600
 7415W        W11466   5.486   7.556  11.905
 7416W        W11467  11.328   2.710   0.787
 7417W        W11468   6.539   6.651  10.229
 7418W        W11469   7.431  10.245  10.512
 7419W        W11470   6.077   5.075   1.540
 7420W        W11471   3.594   1.811  11.838
 7421W        W11472   1.816   3.597   0.391
 7422W        W11473   5.072   4.230   1.338
 7423W        W11474   3.246   4.699   2.011
 7424W        W11475   6.098   7.743   3.660
 7425W        W11476   7.556   4.489   9.512
 7426W        W11477   5.408   9.065   0.199
 7427W        W11478  10.817   5.584   1.693
 7428W        W11479   8.594   8.881   2.216
 7429W        W11480   9.316   3.640   1.331
 7430W        W11481   8.227   8.151  11.754
 7431W        W11482   2.419   7.406   1.500
 7432W        W11483   9.078   2.664   9.382
 7433W        W11484   2.345   9.990   8.984
 7434W        W11485   6.763   4.198   0.495
 7435W        W11486   8.905   1.016   0.438
 7436W        W11487   9.902  11.250   0.225
 7437W        W11488   5.932  10.652  11.425
 7438W        W11489   4.269   1.353   0.430
 7439W        W11490   9.889  10.378   9.440
 7440W        W11491   2.861   4.548   0.479
 7441W        W11492   8.639   2.568   1.546
 7442W        W11493   8.685   7.566   1.888
 7443W        W11494   3.797   8.047   3.164
 7444W        W11495   9.962   3.293   2.420
 7445W        W11496   0.383   5.031   8.893
 7446W        W11497   0.378   8.594   2.496
 7447W        W11498   9.378  10.374   1.868
 7448W        W11499  11.107   4.578   0.275
 7449W        W11500   2.147   3.242   0.179
 7450W        W11501   5.237   1.227  11.449
 7451W        W11502   9.713   2.356   3.576
 7452W        W11503   4.664  10.403  11.822
 7453W        W11504   5.639   4.801  10.555
 7454W        W11505   7.153   3.852   3.047
 7455W        W11506   4.327   4.729   9.931
 7456W        W11507   0.483   2.701   9.384
 7457W        W11508   9.612   5.701   2.872
 7458W        W11509  10.046   7.474   3.317
 7459W        W11510   2.051   8.759   8.475
 7460W        W11511   1.783   6.463   1.426
 7461W        W11512   4.033   5.927   1.175
 7462W        W11513   5.143   7.844  11.585
 7463W        W11514   2.183  11.290  10.011
 7464W        W11515   1.984   2.676  11.290
 7465W        W11516   8.588   1.591   1.855
 7466W        W11517   0.158   9.425   9.451
 7467W        W11518  10.016   6.154   0.194
 7468W        W11519   3.654   8.438  10.788
 7469W        W11520   6.347  10.734   0.332
 7470W        W11521  10.342   9.952   1.769
 7471W        W11522   7.648   0.030   1.717
 7472W        W11523   5.106   8.616  10.410
 7473W        W11524   8.155   3.883   0.369
 7474W        W11525   8.911   3.270  11.474
 7475W        W11526   7.646   5.609  11.078
 7476W        W11527   6.718   3.671  11.379
 7477W        W11528   8.157   0.427   9.418
 7478W        W11529   4.624   2.467   3.233
 7479W        W11530  10.057   6.170  10.809
 7480W        W11531   2.368   3.378   8.939
 7481W        W11532   8.463   4.994  10.008
 7482W        W11533   0.012   4.800   8.617
 7483W        W11534   8.575   8.331  10.916
 7484W        W11535   0.762   4.866   3.448
 7485W        W11536  10.191   5.825  11.479
 7486W        W11537   0.496   4.723   2.871
 7487W        W11538   0.354   8.527   3.008
 7488W        W11539   8.423  11.220   1.687
 7489W        W11540   9.005   5.052  11.189
 7490W        W11541   7.852   4.522  11.760
 7491W        W11542   7.509   6.963   3.391
 7492W        W11543   8.951   9.139   2.493
 7493W        W11544   5.115   4.028   9.024
 7494W        W11545   8.954   5.664   2.306
 7495W        W11546  11.229  10.135   1.927
 7496W        W11547   5.020  10.054  10.535
 7497W        W11548   4.658   7.003   1.578
 7498W        W11549   1.702   3.098  11.262
 7499W        W11550   0.861  10.416  10.003
 7500W        W11551   6.003   4.909   2.067
 7501W        W11552   2.265   1.154   0.027
 7502W        W11553   2.699   5.439  10.323
 7503W        W11554  10.969  10.094   3.148
 7504W        W11555   7.212   8.399   3.357
 7505W        W11556  11.496   0.278   0.504
 7506W        W11557   6.399   0.208   9.262
 7507W        W11558   3.759   2.648   1.601
 7508W        W11559   6.960   7.997   3.103
 7509W        W11560   9.831   1.006   8.670
 7510W        W11561   5.248   3.596  11.497
 7511W        W11562   6.433   0.988   1.358
 7512W        W11563   1.996   5.091   2.134
 7513W        W11564   4.468   6.525   1.603
 7514W        W11565   0.863   2.106   3.279
 7515W        W11566   2.802   6.444   9.250
 7516W        W11567   5.025   1.240  11.945
 7517W        W11568   6.922   5.682  11.743
 7518W        W11569   9.992   1.354   9.530
 7519W        W11570   0.805   2.409   2.173
 7520W        W11571   6.485   8.111   3.322
 7521W        W11572   5.034   3.456   3.981
 7522W        W11573   8.323   2.980  10.858
 7523W        W11574   9.420   7.636   0.488
 7524W        W11575   7.451  10.805   3.148
 7525W        W11576   6.457   6.115   1.527
 7526W        W11577   6.097   0.686  11.781
 7527W        W11578   8.123   3.289   0.447
 7528W        W11579   8.542   6.580   2.693
 7529W        W11580  11.311   2.315   1.857
 7530W        W11581   9.088   5.217   0.679
 7531W        W11582   5.526  10.954  11.497
 7532W        W11583   0.250   8.557   0.039
 7533W        W11584   9.526   8.658   0.299
 7534W        W11585   6.449   5.935   9.105
 7535W        W11586   5.275   7.470   8.671
 7536W        W11587   4.230   6.216  10.250
 7537W        W11588   5.135   3.104   3.602
 7538W        W11589   8.277   3.704   1.366
 7539W        W11590   8.411   9.746   2.120
 7540W        W11591   6.196  10.850  11.830
 7541W        W11592   4.292   9.118   0.334
 7542W        W11593   1.276  11.435   1.799
 7543W        W11594   1.845   3.085   8.658
 7544W        W11595   3.745   9.261   1.912
 7545W        W11596   3.118   4.075  10.286
 7546W        W11597   2.636   9.006   9.056
 7547W        W11598   4.086  11.352   9.434
 7548W        W11599   6.377  10.080  11.410
 7549W        W11600   4.683   0.107   2.361
 7550W        W11601   1.277   7.039   2.911
 7551W        W11602   7.644   9.554   1.964
 7552W        W11603   7.385  10.764  10.395
 7553W        W11604  10.344   0.413   2.373
 7554W        W11605   0.033   4.656   2.644
 7555W        W11606   5.420   6.021  11.664
 7556W        W11607   7.370   1.660   9.589
 7557W        W11608   8.169   3.289   1.100
 7558W        W11609   6.140   1.338   1.670
 7559W        W11610   5.273   0.927   0.731
 7560W        W11611   2.559   7.027   9.455
 7561W        W11612   2.980   5.834   3.134
 7562W        W11613   2.658  10.686  10.440
 7563W        W11614   6.252   2.851   9.483
 7564W        W11615   0.471   6.178   0.274
 7565W        W11616   5.015   8.370   9.983
 7566W        W11617   5.785   9.551   0.222
 7567W        W11618   7.916   7.659  10.864
 7568W        W11619   2.594   4.228   8.900
 7569W        W11620   8.589  11.295   0.674
 7570W        W11621   3.105   5.880   0.400
 7571W        W11622   2.476  10.356   2.027
 7572W        W11623   9.975   4.185  11.535
 7573W        W11624   6.738   8.535   3.184
 7574W        W11625  11.283   1.739  10.289
 7575W        W11626   0.836  11.030   2.404
 7576W        W11627   6.989  10.944  10.125
 7577W        W11628   6.638   4.269  10.087
 7578W        W11629  10.247   4.601  10.406
 7579W        W11630   8.131   4.800   2.670
 7580W        W11631   1.293   7.542   2.687
 7581W        W11632   9.846   4.281  10.584
 7582W        W11633   2.826   3.715  10.973
 7583W        W11634   0.483   5.059   1.146
 7584W        W11635   9.031   6.856  10.443
 7585W        W11636   9.019   3.163   9.572
 7586W        W11637   9.306   4.090  11.993
 7587W        W11638  11.260   4.232  11.690
 7588W        W11639   5.032   3.801   9.598
 7589W        W11640   4.048   2.059   0.868
 7590W        W11641   8.967   7.866   0.343
 7591W        W11642   3.449   5.235  10.883
 7592W        W11643   7.419   3.248   0.404
 7593W        W11644   2.224   7.662   1.910
 7594W        W11645   3.908   1.718   0.441
 7595W        W11646   4.223   6.693  10.853
 7596W        W11647   3.599   6.586   1.728
 7597W        W11648  10.619   9.559   2.334
 7598W        W11649   9.608   6.439  11.661
 7599W        W11650   6.134   4.419   3.167
 7600W        W11651   9.442   7.018   2.788
 7601W        W11652   0.370  10.211   0.444
 7602W        W11653   2.293   7.953   0.275
 7603W        W11654   9.144   6.857   8.601
 7604W        W11655  10.776   1.976  10.972
 7605W        W11656   2.794   3.289  11.288
 7606W        W11657   5.993  10.456   3.172
 7607W        W11658   2.279   8.068   2.928
 7608W        W11659   1.311   1.808   2.799
 7609W        W11660   2.876   5.985   9.026
 7610W        W11661  10.962   3.543   0.423
 7611W        W11662   9.528   4.793   2.769
 7612W        W11663  10.916   4.173   8.493
 7613W        W11664   2.700  11.354  10.790
 7614W        W11665   4.712   8.446   9.576
 7615W        W11666   1.676   6.745  11.490
 7616W        W11667   9.796   5.670   3.375
 7617W        W11668   6.649   2.888   0.182
 7618W        W11669   7.392   4.565   0.002
 7619W        W11670  10.097   3.559  10.406
 7620W        W11671   6.102  10.875   1.440
 7621W        W11672   8.830   5.090   9.304
 7622W        W11673   9.951   0.735   2.222
 7623W        W11674  11.226   9.907  11.874
 7624W        W11675   7.694   3.208   2.492
 7625W        W11676   8.892   8.012   1.801
 7626W        W11677   8.230   8.608   9.067
 7627W        W11678   6.903  10.214   0.978
 7628W        W11679  10.295   4.147  11.923
 7629W        W11680   3.414   2.862  11.073
 7630W        W11681  11.008   9.972   9.022
 7631W        W11682   3.689  11.240   9.094
 7632W        W11683   8.511   5.072  11.378
 7633W        W11684   3.353   7.519   1.536
 7634W        W11685   5.056   8.686   2.439
 7635W        W11686   9.280   9.620   9.464
 7636W        W11687   2.482   9.116  10.891
 7637W        W11688   4.277   4.834  11.253
 7638W        W11689  11.341   7.208   3.619
 7639W        W11690   2.846   2.161   8.999
 7640W        W11691   0.290   0.343  11.269
 7641W        W11692  11.260   3.384   9.571
 7642W        W11693   5.599   2.368   8.706
 7643W        W11694  10.344   7.551  10.734
 7644W        W11695   1.294  10.935   1.806
 7645W        W11696   7.624   3.604   9.426
 7646W        W11697  10.994  10.562   3.445
 7647W        W11698   5.914   0.950   1.365
 7648W        W11699  11.333   9.854  10.426
 7649W        W11700   5.158   4.058   2.746
 7650W        W11701   6.578   0.681   0.917
 7651W        W11702   9.313   0.264  10.854
 7652W        W11703   6.111   1.880   1.290
 7653W        W11704   3.318   4.504   2.928
 7654W        W11705   7.610   7.593  11.339
 7655W        W11706  10.734  10.881   9.482
 7656W        W11707   4.367   9.089   9.771
 7657W        W11708   5.413   3.239  10.274
 7658W        W11709   4.377   1.808   1.229
 7659W        W11710  11.339   1.901   0.697
 7660W        W11711   1.258   8.831   3.282
 7661W        W11712   8.821   4.625   9.997
 7662W        W11713   0.506   7.924   0.241
 7663W        W11714   7.635   5.846   1.324
 7664W        W11715   5.155   7.581   2.732
 7665W        W11716   3.835   7.934   0.002
 7666W        W11717   3.152   4.980  10.520
 7667W        W11718   4.678   3.534   1.866
 7668W        W11719   0.154   3.616   3.548
 7669W        W11720   5.381   4.142   1.727
 7670W        W11721   5.684   7.602   0.388
 7671W        W11722   7.049  10.896   9.539
 7672W        W11723   1.629   8.501  11.903
 7673W        W11724  10.410   8.640   8.469
 7674W        W11725   8.354   5.055   9.517
 7675W        W11726   7.183   6.093  11.857
 7676W        W11727   6.178   4.430   2.202
 7677W        W11728   6.966   3.256  11.560
 7678W        W11729   0.476   0.268   9.613
 7679W        W11730   8.094   4.966   8.248
 7680W        W11731   3.206   7.607  11.583
 7681W        W11732   4.980   0.720  10.271
 7682W        W11733   1.809   5.645  10.337
 7683W        W11734   8.911   5.066   8.795
 7684W        W11735  11.399  10.994   2.824
 7685W        W11736   4.406   8.118   2.664
 7686W        W11737   1.401   3.812   0.688
 7687W        W11738   7.876  10.761  11.075
 7688W        W11739   5.517   5.153   3.077
 7689W        W11740   1.353   7.149   8.965
 7690W        W11741   9.856   6.059   9.391
 7691W        W11742   7.345   4.362   8.731
 7692W        W11743   5.568   3.114   8.404
 7693W        W11744   0.875   2.471   3.731
 7694W        W11745   5.008   1.502   3.483
 7695W        W11746   6.550   4.072   2.256
 7696W        W11747   8.342   2.933   0.787
 7697W        W11748   3.140   9.413   3.158
 7698W        W11749   8.657   4.886   3.005
 7699W        W11750   4.103   3.710   2.686
 7700W        W11751  11.079  10.554  10.297
 7701W        W11752   8.185   9.808  10.928
 7702W        W11753   2.435  10.426   0.392
 7703W        W11754   7.931   8.946   0.115
 7704W        W11755   4.072   3.731   9.702
 7705W        W11756   1.166   7.431  10.343
 7706W        W11757   2.636   0.555   1.192
 7707W        W11758   9.961   4.989  11.249
 7708W        W11759   6.118  11.330   9.986
 7709W        W11760   7.465   2.218   9.613
 7710W        W11761   7.182   0.663   1.733
 7711W        W11762  11.449  11.059  11.106
 7712W        W11763   5.644   0.061   2.725
 7713W        W11764   5.176   5.045   1.534
 7714W        W11765   6.070   2.645  12.000
 7715W        W11766   0.529   0.001  10.521
 7716W        W11767   3.116   0.766  10.552
 7717W        W11768   7.089  10.679   1.193
 7718W        W11769   4.290   4.065  11.666
 7719W        W11770  11.465   9.366   9.938
 7720W        W11771   0.230   8.390   0.585
 7721W        W11772   2.391   2.954   0.544
 7722W        W11773   4.786   2.413  10.555
 7723W        W11774   0.406   4.319   2.221
 7724W        W11775   7.042   8.028   2.562
 7725W        W11776   5.729  10.079   2.953
 7726W        W11777   6.519   1.600   9.428
 7727W        W11778   1.471  10.787   9.899
 7728W        W11779   1.187   2.171   2.425
 7729W        W11780   0.982   6.257   9.928
 7730W        W11781  10.897   3.841  11.453
 7731W        W11782   4.757   8.790   3.241
 7732W        W11783   6.435   2.274   3.616
 7733W        W11784  10.656   1.232   0.929
 7734W        W11785   6.443   3.142   0.796
 7735W        W11786   5.576   7.319   9.975
 7736W        W11787   4.155   8.677   0.018
 7737W        W11788   2.200  10.485  10.534
 7738W        W11789  10.518   3.132   1.156
 7739W        W11790   1.096   2.713  11.870
 7740W        W11791  10.298   5.578   3.455
 7741W        W11792   5.169   5.634  10.058
 7742W        W11793   9.867   3.133  10.096
 7743W        W11794   5.249   2.094   9.061
 7744W        W11795   0.122   0.948   9.123
 7745W        W11796  10.018   6.482   9.049
 7746W        W11797  11.367   6.658   9.367
 7747W        W11798   2.563   4.565   3.417
 7748W        W11799   9.913   0.681   1.276
 7749W        W11800   6.931   7.904   8.935
 7750W        W11801   2.665   3.838   3.524
 7751W        W11802   2.023   9.306   0.784
 7752W        W11803   0.172   4.319  10.258
 7753W        W11804   0.604  11.270   3.145
 7754W        W11805   0.737   2.585   3.237
 7755W        W11806   5.290   0.863   1.956
 7756W        W11807   8.077  10.509   3.094
 7757W        W11808   5.162   7.542   1.795
 7758W        W11809  10.382  10.854  10.060
 7759W        W11810   1.809   0.189   0.209
 7760W        W11811   5.023   7.356  11.836
 7761W        W11812  10.847   9.274   8.384
 7762W        W11813   1.292   4.789   1.694
 7763W        W11814   8.338   4.501   9.938
 7764W        W11815   1.844   5.359  11.944
 7765W        W11816  11.004   5.524   2.700
 7766W        W11817   8.563  11.322  10.711
 7767W        W11818   2.266   0.402   2.454
 7768W        W11819   9.870   8.476  10.830
 7769W        W11820   8.334   7.653   0.902
 7770W        W11821   5.530   9.206   1.875
 7771W        W11822  10.238   6.043   1.699
 7772W        W11823   9.767   8.858  10.329
 7773W        W11824   0.425   3.589  10.607
 7774W        W11825   0.356   6.567   0.583
 7775W        W11826   5.527   0.383   2.338
 7776W        W11827  10.859   7.308   9.865
 7777W        W11828   4.477   2.833   2.408
 7778W        W11829   2.256   6.549   0.644
 7779W        W11830   5.828   8.050  10.247
 7780W        W11831   1.971   3.227   1.436
 7781W        W11832   6.909   2.090   3.573
 7782W        W11833   3.107   1.795   1.733
 7783W        W11834   6.485   3.509   3.702
 7784W        W11835   1.699   8.415  10.968
 7785W        W11836   4.058   5.697  11.333
 7786W        W11837   2.190   1.378   2.457
 7787W        W11838   8.250   1.440   9.520
 7788W        W11839  11.078   9.036  10.042
 7789W        W11840  10.624  10.411  10.124
 7790W        W11841  10.956   3.789   9.312
 7791W        W11842  11.379   3.569   9.103
 7792W        W11843   2.785   7.349   0.755
 7793W        W11844   7.454   8.093   2.989
 7794W        W11845   3.258  11.119   3.104
 7795W        W11846   0.413   7.048   0.790
 7796W        W11847   0.881   0.305   0.798
 7797W        W11848   9.643  10.359   9.882
 7798W        W11849   8.651   3.533   2.615
 7799W        W11850   0.485   8.352  10.482
 7800W        W11851   5.641   9.155  11.244
 7801W        W11852   3.115   1.646  11.806
 7802W        W11853   9.689  10.086   0.422
 7803W        W11854   3.508   6.693  10.320
 7804W        W11855   6.911   4.079   8.927
 7805W        W11856   1.330   5.476   0.054
 7806W        W11857   5.857   0.278  11.582
 7807W        W11858   9.574  10.767   1.552
 7808W        W11859   5.220   2.713   9.450
 7809W        W11860   8.466   8.534  10.069
 7810W        W11861   7.735   4.888   3.599
 7811W        W11862   1.365   2.839   1.419
 7812W        W11863  10.626  11.048  11.435
 7813W        W11864  10.268  11.428   8.899
 7814W        W11865   8.018   7.396   9.543
 7815W        W11866  11.297   1.822   0.182
 7816W        W11867   8.022   5.500   1.257
 7817W        W11868   9.586   7.443   3.033
 7818W        W11869   5.487  11.158   0.807
 7819W        W11870   7.429   4.780  11.543
 7820W        W11871   7.646   2.863  11.325
 7821W        W11872   3.926   8.930   3.710
 7822W        W11873   4.753   2.891   9.590
 7823W        W11874   8.964   3.781   0.216
 7824W        W11875   0.844   4.777  11.954
 7825W        W11876   6.214   1.293   3.234
 7826W        W11877  10.533   2.294   0.778
 7827W        W11878  10.125  10.478   3.220
 7828W        W11879   0.695  11.301  10.051
 7829W        W11880   4.781   4.180   2.445
 7830W        W11881  10.307   9.326   0.468
 7831W        W11882   8.081   6.334   3.712
 7832W        W11883   6.770   9.127   2.889
 7833W        W11884   1.472  11.245   1.347
 7834W        W11885   5.328   5.177  10.695
 7835W        W11886  11.497   1.241   2.346
 7836W        W11887   8.506   7.688  10.281
 7837W        W11888   3.375   3.781  11.053
 7838W        W11889   0.641   5.427   8.667
 7839W        W11890   6.827   9.895   2.744
 7840W        W11891   0.634   8.082  10.895
 7841W        W11892   5.928   6.083   1.380
 7842W        W11893   8.578   4.093   8.733
 7843W        W11894   9.654   9.904   2.223
 7844W        W11895   8.659   5.476  10.074
 7845W        W11896   9.123   2.786  10.823
 7846W        W11897   8.051   5.367  10.788
 7847W        W11898  10.416   2.481   9.172
 7848W        W11899   2.689   1.997   9.769
 7849W        W11900   1.109   1.406  11.556
 7850W        W11901   3.616  10.721   9.023
 7851W        W11902   6.363   0.318   1.860
 7852W        W11903   7.085  10.407  10.869
 7853W        W11904   0.760   2.311  11.803
 7854W        W11905   7.952   6.912   0.432
 7855W        W11906  10.005   0.499   0.741
 7856W        W11907   7.055   7.020   3.156
 7857W        W11908   0.359   6.495  10.966
 7858W        W11909   4.069   6.708   8.978
 7859W        W11910   3.377   0.386   8.888
 7860W        W11911   8.166   5.602   3.194
 7861W        W11912   0.017   7.906   0.441
 7862W        W11913   2.301   3.313   9.968
 7863W        W11914   7.480   0.756   9.737
 7864W        W11915   9.158   1.222   1.660
 7865W        W11916  11.337   2.132  11.148
 7866W        W11917   5.654   6.528  11.029
 7867W        W11918   4.935   6.771  11.770
 7868W        W11919   5.627   9.016   1.421
 7869W        W11920   7.000   8.334  11.265
 7870W        W11921   0.574   4.056  10.397
 7871W        W11922   2.617   4.691   9.940
 7872W        W11923   8.559   1.226   3.564
 7873W        W11924   3.717   8.865  10.505
 7874W        W11925   9.020   0.305  10.000
 7875W        W11926   5.877   2.185   0.267
 7876W        W11927   2.484   6.560  10.477
 7877W        W11928   5.863   0.091  10.436
 7878W        W11929   0.341   9.881   9.656
 7879W        W11930   0.863   2.300   8.964
 7880W        W11931  11.467   3.626  10.904
 7881W        W11932   5.650   2.419   2.189
 7882W        W11933   5.956   3.159  10.763
 7883W        W11934   9.401  10.146  11.566
 7884W        W11935   9.910   8.242  11.303
 7885W        W11936   0.397   0.783   9.523
 7886W        W11937   4.673   9.040   2.269
 7887W        W11938   2.303   3.768  10.768
 7888W        W11939   7.754   1.033  10.496
 7889W        W11940  10.907  10.493  10.901
 7890W        W11941   0.193   9.969   1.773
 7891W        W11942   7.936   5.994   0.503
 7892W        W11943   3.080  10.512   9.061
 7893W        W11944  10.155   3.271   0.837
 7894W        W11945   3.314  10.990   9.396
 7895W        W11946   4.554   1.875   9.575
 7896W        W11947  10.962   5.890  10.768
 7897W        W11948   5.352   8.523   3.590
 7898W        W11949   0.509   2.715  11.056
 7899W        W11950   5.556   2.858   8.865
 7900W        W11951  10.237   0.834  11.610
 7901W        W11952  10.511   1.492   8.955
 7902W        W11953   8.189   5.086   1.876
 7903W        W11954   6.008   8.096  11.475
 7904W        W11955   7.591   9.402  10.004
 7905W        W11956   6.702   3.131   1.939
 7906W        W11957  10.726   3.606   3.535
 7907W        W11958   9.616   1.963  10.038
 7908W        W11959   8.899   0.009  11.025
 7909W        W11960   9.566   3.129   2.988
 7910W        W11961   4.135   9.569   8.548
 7911W        W11962   4.351   1.810   0.205
 7912W        W11963  10.437  11.069  10.531
 7913W        W11964   7.667   7.671   2.779
 7914W        W11965   6.350   6.115  11.470
 7915W        W11966   7.630   7.052   9.696
 7916W        W11967   3.576   6.613   1.216
 7917W        W11968  10.967   7.660   9.499
 7918W        W11969   8.613   2.804  11.528
 7919W        W11970   8.875  11.293   9.093
 7920W        W11971  10.288   4.594  11.364
 7921W        W11972   5.355   3.216   3.143
 7922W        W11973   8.905  11.387   1.715
 7923W        W11974   4.055   6.833   1.632
 7924W        W11975   9.801   6.181  11.256
 7925W        W11976   4.126   1.115   3.160
 7926W        W11977   4.087   9.102  11.748
 7927W        W11978   3.770   9.747   0.713
 7928W        W11979  10.950   2.392   9.691
 7929W        W11980   9.273   8.508   8.983
 7930W        W11981  10.042   7.156  11.530
 7931W        W11982   5.274   9.851  10.955
 7932W        W11983   2.639   4.914   0.218
 7933W        W11984   9.540  10.314  10.749
 7934W        W11985   6.570   7.203   4.026
 7935W        W11986   5.920   8.375  10.876
 7936W        W11987   1.325   4.223   3.187
 7937W        W11988   1.709   0.710   2.539
 7938W        W11989   8.662   1.210  10.290
 7939W        W11990   4.281   6.030   2.174
 7940W        W11991   3.298   9.582  10.594
 7941W        W11992  10.989   4.301   1.988
 7942W        W11993   8.951   0.791   3.488
 7943W        W11994   9.709   5.140   9.110
 7944W        W11995   6.705   1.788   1.924
 7945W        W11996   9.121   1.234   2.716
 7946W        W11997   2.779   8.075   0.365
 7947W        W11998   1.282   7.149   0.908
 7948W        W11999   4.923  10.740   8.526
 7949W        W12000  11.291   5.706   0.221
 7950W        W12001   1.281   2.232  11.715
 7951W        W12002   5.290   8.073   8.184
 7952W        W12003   5.774   9.099   2.819
 7953W        W12004   9.325   7.242  11.216
 7954W        W12005   3.511   4.578   9.521
 7955W        W12006  10.964   5.342   9.373
 7956W        W12007  11.363   6.842   8.876
 7957W        W12008   9.155  10.881  11.281
 7958W        W12009  10.576  10.940   0.862
 7959W        W12010  10.560   6.308   9.908
 7960W        W12011  10.423   8.851   0.585
 7961W        W12012   6.594   7.669   3.577
 7962W        W12013   5.038  10.970   1.013
 7963W        W12014   2.279   4.194   0.986
 7964W        W12015   8.137   3.292   2.149
 7965W        W12016  10.136   2.372  11.802
 7966W        W12017   9.097   1.248  10.561
 7967W        W12018   9.006   0.303   9.090
 7968W        W12019   4.697   7.480   2.493
 7969W        W12020   3.378  10.712   2.752
 7970W        W12021   7.557   1.901   1.503
 7971W        W12022   5.758  11.365  11.293
 7972W        W12023   5.648   2.306  10.240
 7973W        W12024   9.889   7.005  10.506
 7974W        W12025   5.921   3.254   9.404
 7975W        W12026   8.875   7.550   2.401
 7976W        W12027   9.402   7.171   1.313
 7977W        W12028   2.218   0.496   2.956
 7978W        W12029   2.821   1.559   1.332
 7979W        W12030   2.342   4.735   9.439
 7980W        W12031   9.181   8.287   9.416
 7981W        W12032   4.113   4.323   3.154
 7982W        W12033   9.548  11.323  10.757
 7983W        W12034   7.963   4.880   9.888
 7984W        W12035   1.280   6.491  10.767
 7985W        W12036   7.902   4.779   0.189
 7986W        W12037   2.040   7.093   1.355
 7987W        W12038   1.016   2.464  10.312
 7988W        W12039   0.840   0.891   2.685
 7989W        W12040   6.125   1.980   0.749
 7990W        W12041   2.733   6.102   2.307
 7991W        W12042  10.473   5.689   2.391
 7992W        W12043   9.931  10.430   0.730
 7993W        W12044   7.472   8.565  11.338
 7994W        W12045   4.457   2.502   1.963
 7995W        W12046  11.215   0.007   1.761
 7996W        W12047   9.538   0.988   9.106
 7997W        W12048   8.893   0.429   0.880
 7998W        W12049   1.373   6.131   1.445
 7999W        W12050   2.258   9.008   9.442
 8000W        W12051  10.510   8.107   0.968
 8001W        W12052   9.395  11.364   0.223
 8002W        W12053   6.600  10.435   1.986
 8003W        W12054   0.369   4.002  11.398
 8004W        W12055  10.264   5.482   8.010
 8005W        W12056  11.327   0.625   9.388
 8006W        W12057   1.807   7.196  11.282
 8007W        W12058   8.696   5.136   1.797
 8008W        W12059  10.042   5.528  10.151
 8009W        W12060   2.226   5.651   1.702
 8010W        W12061   4.165   4.528   4.002
 8011W        W12062   0.725   9.880   1.774
 8012W        W12063   9.324   6.730   1.557
 8013W        W12064   8.148   4.337  10.964
 8014W        W12065   6.003   5.360   3.091
 8015W        W12066   9.856   8.963   1.366
 8016W        W12067  10.136   0.803  11.085
 8017W        W12068   2.404   6.138   9.967
 8018W        W12069   6.075  10.304  11.762
 8019W        W12070   7.660   7.106  10.207
 8020W        W12071   9.389   0.859   3.005
 8021W        W12072   6.425   2.420   9.753
 8022W        W12073   7.629  10.379   2.202
 8023W        W12074   9.059   8.788   9.369
 8024W        W12075   8.628   3.353   0.851
 8025W        W12076   3.584   6.046  11.156
 8026W        W12077   7.041   2.773   3.255
 8027W        W12078   7.908   9.411   1.319
 8028W        W12079   0.328  10.014   2.728
 8029W        W12080   8.276  10.334   3.552
 8030W        W12081   1.807   1.161  10.840
 8031W        W12082   1.781   0.850  10.418
 8032W        W12083   5.132   4.453   8.734
 8033W        W12084   8.858  10.338   2.702
 8034W        W12085   0.848   6.248   3.429
 8035W        W12086   7.480   8.826  11.871
 8036W        W12087   5.988   2.034   3.685
 8037W        W12088   4.234  10.054   9.718
 8038W        W12089  11.324   0.767   0.473
 8039W        W12090   1.816   5.989   1.686
 8040W        W12091   6.385   2.873  10.780
 8041W        W12092   1.726   0.967   1.062
 8042W        W12093   0.352   7.208  10.294
 8043W        W12094   0.824   9.902   2.575
 8044W        W12095   8.416   5.527   0.275
 8045W        W12096   0.795   5.079   0.739
 8046W        W12097   6.407  10.348   2.877
 8047W        W12098   1.759   5.015   3.590
 8048W        W12099  11.130   2.631   3.537
 8049W        W12100   7.884   4.105  10.590
 8050W        W12101   9.476   5.335   8.661
 8051W        W12102   1.162   4.029   8.971
 8052W        W12103   9.457   5.620   2.357
 8053W        W12104   6.069  11.344  11.713
 8054W        W12105   0.866   6.855   0.935
 8055W        W12106   6.050   1.185  11.749
 8056W        W12107   8.193   1.420  10.438
 8057W        W12108   4.762   1.492   0.451
 8058W        W12109   3.700   2.146  10.588
 8059W        W12110   6.991   3.158   1.481
 8060W        W12111  11.016   2.317   3.118
 8061W        W12112   1.324   0.317  11.714
 8062W        W12113   0.874   4.265   0.137
 8063W        W12114   7.512   3.104   9.974
 8064W        W12115   9.851   7.186   9.457
 8065W        W12116  10.548   3.314  10.448
 8066W        W12117   0.824   7.503   0.299
 8067W        W12118   6.873   0.264   1.796
 8068W        W12119  11.064   8.103   2.190
 8069W        W12120   4.857   4.634   9.895
 8070W        W12121   4.318   1.286  11.486
 8071W        W12122  10.452   1.861  10.069
 8072W        W12123   1.180   7.055   3.455
 8073W        W12124   9.853   4.709  11.682
 8074W        W12125   3.127  10.508  11.635
 8075W        W12126   0.053   3.827  11.851
 8076W        W12127   3.803   6.621   3.833
 8077W        W12128   8.604   4.620   0.487
 8078W        W12129   1.895   1.779  11.484
 8079W        W12130   0.006  11.248   0.502
 8080W        W12131   1.238   3.254  10.868
 8081W        W12132   7.924   0.741  11.940
 8082W        W12133   9.601   7.670   9.464
 8083W        W12134   9.256   4.330   2.081
 8084W        W12135   6.105   1.269   9.505
 8085W        W12136   8.750   7.112   0.758
 8086W        W12137   4.933   1.220  11.023
 8087W        W12138   8.223   4.322   9.048
 8088W        W12139   8.906   0.339  10.541
 8089W        W12140   1.926  10.382  10.013
 8090W        W12141   5.493  10.540  11.198
 8091W        W12142   9.006   7.352   0.382
 8092W        W12143   8.263   9.548   0.519
 8093W        W12144   8.952   1.675  10.293
 8094W        W12145   0.394   5.107  11.234
 8095W        W12146   6.650  10.768   2.720
 8096W        W12147   6.008   5.488   0.222
 8097W        W12148   2.316   1.455   1.459
 8098W        W12149   0.782   2.774   0.289
 8099W        W12150   5.943   3.675   9.774
 8100W        W12151   3.594   5.074   2.765
 8101W        W12152   9.528   2.447   9.190
 8102W        W12153  11.377   7.124   2.642
 8103W        W12154   7.534   0.090  10.771
 8104W        W12155   0.282   1.764   2.790
 8105W        W12156   8.929   1.673   3.420
 8106W        W12157   7.038   1.167   1.670
 8107W        W12158   8.308   6.192   2.426
 8108W        W12159   6.954   8.564   0.060
 8109W        W12160  10.496  10.565  10.584
 8110W        W12161   9.139  10.353   9.890
 8111W        W12162   1.522   5.115   1.209
 8112W        W12163   6.856   5.923  10.881
 8113W        W12164   6.914   4.192  10.497
 8114W        W12165   1.859   2.658  10.401
 8115W        W12166   4.645   2.713  10.162
 8116W        W12167   6.494  10.005  10.490
 8117W        W12168   2.459   0.347   9.948
 8118W        W12169   3.766  10.305   3.400
 8119W        W12170   3.043   9.298   0.773
 8120W        W12171  11.092   0.740  10.455
 8121W        W12172   0.452   5.292   1.974
 8122W        W12173   3.582   5.761  10.300
 8123W        W12174   1.722   5.550   3.533
 8124W        W12175   5.224   2.120  10.571
 8125W        W12176   0.220   8.977  11.137
 8126W        W12177   8.121   7.369  10.429
 8127W        W12178   5.826   0.030   1.795
 8128W        W12179   5.967   0.797   9.813
 8129W        W12180   2.359   1.199  10.839
 8130W        W12181   1.731   3.862  11.879
 8131W        W12182   4.614   9.937   0.521
 8132W        W12183   9.409   3.319  10.259
 8133W        W12184   3.664   6.104   1.500
 8134W        W12185   2.922  11.051   0.572
 8135W        W12186   2.695   7.456  10.714
 8136W        W12187   6.051   1.782   3.229
 8137W        W12188   6.127   1.794   8.579
 8138W        W12189   2.055  10.489   2.350
 8139W        W12190   9.363   9.998   3.426
 8140W        W12191  10.491   9.880   9.104
 8141W        W12192   5.683   2.357  11.796
 8142W        W12193   6.772  10.386   0.205
 8143W        W12194   3.062   4.263   3.310
 8144W        W12195  10.005  11.024   1.775
 8145W        W12196   7.345   0.263   2.033
 8146W        W12197   7.771   6.231  11.043
 8147W        W12198   4.274   8.166  11.884
 8148W        W12199   6.412  11.271   9.552
 8149W        W12200   3.172   5.582   9.989
 8150W        W12201   5.362  10.314   9.250
 8151W        W12202   5.762   8.002   0.677
 8152W        W12203   0.618   6.638  10.029
 8153W        W12204   2.790   7.555   8.829
 8154W        W12205   2.099  10.480  11.574
 8155W        W12206   1.528   2.241   9.705
 8156W        W12207   1.465   3.855  10.196
 8157W        W12208   3.764   4.945   9.861
 8158W        W12209   7.991   3.552  11.999
 8159W        W12210   5.440  11.080   2.625
 8160W        W12211   7.915   6.737  11.025
 8161W        W12212   6.641  11.315   9.993
 8162W        W12213   8.380   6.224   1.914
 8163W        W12214  10.427   3.013   8.543
 8164W        W12215  10.812   5.796   9.565
 8165W        W12216  10.412   3.114   1.667
 8166W        W12217   7.763   3.160   0.791
 8167W        W12218   5.158   7.008   0.779
 8168W        W12219   0.452   9.824   9.162
 8169W        W12220   5.104   0.330   2.659
 8170W        W12221   1.785   1.849   3.542
 8171W        W12222   6.048   4.775  11.245
 8172W        W12223   3.732   9.319  10.746
 8173W        W12224   1.239   4.971  11.231
 8174W        W12225   9.830  11.200   2.244
 8175W        W12226   5.325  10.819   9.492
 8176W        W12227   9.879   9.947   0.884
 8177W        W12228   7.597  11.034   1.788
 8178W        W12229   3.794   0.865   2.207
 8179W        W12230   4.127   9.582   1.747
 8180W        W12231   4.069  10.510   8.783
 8181W        W12232   5.836  11.309   1.302
 8182W        W12233  10.117   0.858   1.726
 8183W        W12234   1.043   0.032   0.067
 8184W        W12235  11.469  10.412   0.711
 8185W        W12236   2.331   5.425  11.548
 8186W        W12237  10.434   9.931  10.127
 8187W        W12238   0.973  10.896  10.802
 8188W        W12239  10.454   8.648   9.625
 8189W        W12240   4.282   3.161   1.233
 8190W        W12241   9.067   6.051  10.891
 8191W        W12242   9.392   4.849   8.803
 8192W        W12243  11.000   7.803   9.991
 8193W        W12244   8.948   4.131   8.372
 8194W        W12245   1.318   6.604   1.652
 8195W        W12246   6.037   8.369   9.876
 8196W        W12247   9.124   4.647   9.600
 8197W        W12248   8.173   2.778   9.458
 8198W        W12249   7.727   3.001   1.285
 8199W        W12250   3.322   1.429   1.454
 8200W        W12251   6.994   9.188   9.578
 8201W        W12252   0.804   9.066   8.706
 8202W        W12253   6.157   8.711   0.377
 8203W        W12254   1.481  10.959  10.757
 8204W        W12255   1.790   3.729   2.092
 8205W        W12256   4.862   3.327   3.192
 8206W        W12257  11.460   9.339   2.285
 8207W        W12258   2.671  11.471   0.708
 8208W        W12259   1.427   8.055   0.576
 8209W        W12260   6.856   3.522   2.732
 8210W        W12261   5.658   2.226   0.731
 8211W        W12262   9.799   4.274   9.540
 8212W        W12263   3.312   6.269  11.548
 8213W        W12264   4.003   2.263  10.970
 8214W        W12265   9.369   3.613   0.498
 8215W        W12266   7.491   7.127  11.126
 8216W        W12267   2.161   9.409   2.537
 8217W        W12268   2.939   7.979   8.538
 8218W        W12269   6.665   5.295  11.564
 8219W        W12270  10.915   8.985  11.511
 8220W        W12271   2.682   3.708   2.551
 8221W        W12272   5.039   9.316   1.031
 8222W        W12273   4.559   6.380   8.303
 8223W        W12274  10.101   3.264  11.391
 8224W        W12275   7.919   2.659   0.803
 8225W        W12276   9.426   9.685  11.337
 8226W        W12277  10.434   1.915   0.242
 8227W        W12278   9.644   3.778  10.379
 8228W        W12279   8.402   3.243  11.388
 8229W        W12280  10.886   1.835   1.331
 8230W        W12281   2.524   6.161  11.919
 8231W        W12282   4.265   8.784   2.102
 8232W        W12283   0.372   4.555   1.211
 8233W        W12284   0.718   7.656  11.813
 8234W        W12285   4.546   0.251   2.830
 8235W        W12286   9.076   5.915   1.412
 8236W        W12287   0.463  10.350   3.221
 8237W        W12288   0.704   2.800   8.933
 8238W        W12289   9.107   0.763   8.855
 8239W        W12290   5.324   8.417   2.104
 8240W        W12291  10.292   2.710   1.952
 8241W        W12292  10.477  10.580   0.064
 8242W        W12293   4.971   6.700   8.700
 8243W        W12294   1.273   9.293  10.554
 8244W        W12295   2.634   6.057   2.809
 8245W        W12296   6.358   4.079   1.802
 8246W        W12297   1.647   0.363  10.432
 8247W        W12298   9.598   4.644   1.878
 8248W        W12299   5.728   0.465  10.129
 8249W        W12300   7.112   0.005   0.899
 8250W        W12301   1.481   6.572  10.288
 8251W        W12302   5.831   2.013   9.032
 8252W        W12303   9.026   2.931  11.821
 8253W        W12304   4.332   8.571   1.628
 8254W        W12305  10.375   0.969   0.491
 8255W        W12306   3.085   0.930   3.506
 8256W        W12307   4.392   3.595  11.941
 8257W        W12308   3.683   4.106  11.396
 8258W        W12309   0.188  10.348  11.903
 8259W        W12310   8.487  11.429  11.716
 8260W        W12311   6.486   4.817   1.372
 8261W        W12312   2.414   0.299  10.846
 8262W        W12313  10.551   6.558   3.481
 8263W        W12314   1.538   5.075   0.300
 8264W        W12315  11.000   7.987   1.235
 8265W        W12316   2.665   0.971   2.733
 8266W        W12317   6.594   1.080   2.909
 8267W        W12318   5.563   7.594  10.418
 8268W        W12319   8.367   5.719  10.552
 8269W        W12320   9.418   9.138   9.423
 8270W        W12321   5.221   4.248   9.952
 8271W        W12322   4.100   0.973   0.716
 8272W        W12323  10.617   5.129  10.411
 8273W        W12324  10.441  11.467   0.238
 8274W        W12325   9.003   0.811  10.299
 8275W        W12326   2.268   6.158   0.966
 8276W        W12327   1.838   4.106  11.432
 8277W        W12328   6.961   7.486   2.304
 8278W        W12329   1.054   7.523   9.839
 8279W        W12330   2.621   6.910  11.700
 8280W        W12331   3.076   6.306   2.882
 8281W        W12332  11.027  10.827   1.207
 8282W        W12333   9.859   3.680   9.034
 8283W        W12334   8.771   6.362  11.221
 8284W        W12335   6.039   4.152   1.424
 8285W        W12336   0.345   6.016   3.610
 8286W        W12337   5.012   2.185  11.050
 8287W        W12338  10.769   0.383  10.312
 8288W        W12339   8.310   5.801   8.896
 8289W        W12340   4.801   4.878  11.484
 8290W        W12341   4.653   7.489   1.384
 8291W        W12342   2.246   4.167  11.096
 8292W        W12343   7.248   5.070   0.277
 8293W        W12344   9.367   7.248   9.280
 8294W        W12345   6.834  10.055   8.624
 8295W        W12346   7.121   2.883  11.261
 8296W        W12347   1.860   0.045   1.491
 8297W        W12348   9.645  11.206   0.672
 8298W        W12349   4.414   7.032  11.311
 8299W        W12350   8.911   5.605   0.397
 8300W        W12351  11.240   6.216   0.986
 8301W        W12352   5.521   8.885  11.655
 8302W        W12353   7.460   5.273  11.431
 8303W        W12354   7.399   9.289  10.962
 8304W        W12355   1.055   9.069   0.902
 8305W        W12356   0.176   3.540   1.075
 8306W        W12357   8.126   5.189  11.972
 8307W        W12358  10.324   4.748   0.495
 8308W        W12359   5.923  11.423   0.799
 8309W        W12360   5.674   4.676   8.783
 8310W        W12361   5.502   3.852  11.872
 8311W        W12362   2.829   8.774  10.567
 8312W        W12363   5.205   4.571   2.714
 8313W        W12364  10.372   2.950   0.352
 8314W        W12365   3.862   5.386   2.072
 8315W        W12366  10.343  10.136  11.841
 8316W        W12367   3.350   3.890   0.515
 8317W        W12368   6.641   0.265   9.721
 8318W        W12369  10.936   8.165   9.583
 8319W        W12370   2.376  11.043   9.566
 8320W        W12371   6.489   8.513   0.730
 8321W        W12372   5.069   6.101  10.850
 8322W        W12373   8.236   4.881  10.955
 8323W        W12374   9.280   6.176   0.988
 8324W        W12375   7.538  10.779   8.711
 8325W        W12376   3.322   5.488   2.951
 8326W        W12377   9.892   1.213  10.033
 8327W        W12378   2.775   2.832   2.457
 8328W        W12379   4.395  10.364   1.486
 8329W        W12380   9.522   8.035   1.310
 8330W        W12381   3.907   6.568   0.769
 8331W        W12382   3.379   5.695   8.283
 8332W        W12383   7.001   6.000   0.728
 8333W        W12384   0.860   5.071   9.552
 8334W        W12385   9.778   6.185   1.867
 8335W        W12386   1.335   0.476   9.541
 8336W        W12387   5.056   8.177   0.458
 8337W        W12388  10.482   4.464   1.897
 8338W        W12389   9.469  11.469  10.261
 8339W        W12390   8.886  10.427   1.653
 8340W        W12391   1.953   6.634  10.511
 8341W        W12392   8.983   2.571   9.888
 8342W        W12393   8.544   9.852   9.320
 8343W        W12394  10.698   3.760  10.178
 8344W        W12395   3.239   0.530   3.241
 8345W        W12396   0.841   2.365   2.767
 8346W        W12397   9.271   8.448   3.574
 8347W        W12398   6.187   9.316  11.766
 8348W        W12399   1.128  11.421   2.279
 8349W        W12400   5.211   3.589   3.500
 8350W        W12401   0.253   9.094   2.614
 8351W        W12402   5.714   1.251   9.862
 8352W        W12403   1.687   4.545  10.098
 8353W        W12404   5.786   0.409   3.499
 8354W        W12405   4.540   2.719   9.148
 8355W        W12406   1.752   9.433  10.519
 8356W        W12407   7.671   6.465   3.387
 8357W        W12408   9.299   9.387   8.989
 8358W        W12409   5.063   4.577   1.724
 8359W        W12410   3.263   6.166   9.319
 8360W        W12411   7.804   4.599  11.247
 8361W        W12412   3.829   5.773   0.706
 8362W        W12413   1.227   5.901   3.479
 8363W        W12414   7.079   2.660  11.980
 8364W        W12415   1.797   7.273   3.901
 8365W        W12416   4.666   8.859  10.496
 8366W        W12417   9.100   1.660   1.942
 8367W        W12418   8.339   4.344   0.852
 8368W        W12419   2.666   0.223   1.702
 8369W        W12420  10.514   8.674   3.192
 8370W        W12421   1.419   7.124   2.417
 8371W        W12422   2.384   4.850   2.812
 8372W        W12423  10.450   5.816   9.957
 8373W        W12424   4.220   4.265   8.808
 8374W        W12425   1.995   4.616   1.040
 8375W        W12426   5.106   7.224   1.384
 8376W        W12427   2.363   1.887   2.205
 8377W        W12428   8.903   5.069  10.307
 8378W        W12429   4.064   5.311  10.090
 8379W        W12430   8.340   3.850   2.328
 8380W        W12431   9.378   9.348  10.928
 8381W        W12432   4.804   7.751   0.570
 8382W        W12433   1.328   4.632   1.202
 8383W        W12434   8.544   9.573  11.534
 8384W        W12435   2.346   1.531   3.524
 8385W        W12436   3.248   0.122   2.923
 8386W        W12437   7.499   8.498   9.342
 8387W        W12438   1.361   7.089  10.022
 8388W        W12439   8.535   0.314  11.394
 8389W        W12440   7.156  11.317   1.827
 8390W        W12441  11.424   4.851   9.103
 8391W        W12442   0.295   9.902  10.168
 8392W        W12443   5.062   1.670  10.762
 8393W        W12444   1.927   6.146   8.925
 8394W        W12445   7.184   0.020   9.078
 8395W        W12446   7.401   4.339  10.596
 8396W        W12447   2.778   3.280   9.239
 8397W        W12448   6.206   2.866   0.443
 8398W        W12449   8.459   0.168   0.980
 8399W        W12450   2.157   0.422  11.301
 8400W        W12451   3.293   3.857   9.645
 8401W        W12452   6.404   3.347  10.617
 8402W        W12453   0.350   9.525   1.978
 8403W        W12454   0.936   5.994   1.664
 8404W        W12455   1.343   0.979   9.581
 8405W        W12456   1.363   5.089  10.732
 8406W        W12457   7.515   0.258   9.654
 8407W        W12458   3.747   8.519   8.721
 8408W        W12459   4.200  10.936   0.736
 8409W        W12460   9.183   1.376   0.687
 8410W        W12461   2.365   5.270   2.490
 8411W        W12462   2.757   8.032   3.128
 8412W        W12463   6.148   3.459  11.134
 8413W        W12464   4.204   0.914   9.147
 8414W        W12465   5.990   7.242   3.165
 8415W        W12466  10.543   6.018  11.815
 8416W        W12467   3.420  11.397   8.699
 8417W        W12468   7.488   8.608   1.833
 8418W        W12469   1.237  10.423   0.521
 8419W        W12470   6.550   9.595  11.513
 8420W        W12471   9.102   2.448   0.703
 8421W        W12472   3.108   0.668  11.044
 8422W        W12473   8.563   0.715   9.011
 8423W        W12474   1.577   7.626   2.278
 8424W        W12475  11.485   6.515  10.568
 8425W        W12476   7.707   1.807   1.997
 8426W        W12477   7.176   1.207  11.760
 8427W        W12478   4.680   2.846   3.560
 8428W        W12479   6.810   0.373   8.967
 8429W        W12480   2.757   7.393   9.818
 8430W        W12481   0.395   4.983  10.727
 8431W        W12482  10.835  11.410  10.511
 8432W        W12483   1.291   3.269   3.139
 8433W        W12484  10.867   0.849   9.545
 8434W        W12485   8.407   2.467   9.081
 8435W        W12486   1.351   6.208   1.974
 8436W        W12487   7.841   6.082   8.857
 8437W        W12488   9.904   7.193   1.891
 8438W        W12489   9.543   3.873   8.598
 8439W        W12490   6.360   2.053   4.076
 8440W        W12491   2.933   8.414  11.886
 8441W        W12492   9.439   1.645   3.368
 8442W        W12493  10.852  10.086   0.894
 8443W        W12494   3.163   6.652   2.530
 8444W        W12495   4.797  10.308   1.816
 8445W        W12496   3.229  10.067   9.859
 8446W        W12497   5.986  11.011   1.969
 8447W        W12498   3.171   0.317   0.975
 8448ION    NA+12499   2.200   0.101   1.915
 8449ION    NA+12500   3.662   7.530   1.091
 8450ION    NA+12501   9.638   3.937  11.238
 8451ION    NA+12502   3.089   8.849   1.572
 8452ION    NA+12503   9.434   4.679  10.599
 8453ION    NA+12504   2.231   6.590   2.147
 8454ION    NA+12505   4.789   3.802  11.690
 8455ION    NA+12506   7.483   1.269   3.638
 8456ION    NA+12507   0.007   8.486  10.406
 8457ION    NA+12508   6.173   8.186   2.192
 8458ION    NA+12509   9.573   8.361  11.877
 8459ION    NA+12510   9.494   6.085   0.209
 8460ION    NA+12511   3.374   5.696   1.642
 8461ION    NA+12512   9.310   0.924  11.708
 8462ION    NA+12513   5.226   4.987   2.061
 8463ION    NA+12514  11.443   5.178  10.594
 8464ION    NA+12515   7.399   3.506   2.174
 8465ION    NA+12516   7.956  10.506   9.347
 8466ION    NA+12517   0.239   7.368   8.904
 8467ION    NA+12518   9.431   6.456   9.553
 8468ION    NA+12519   2.139   8.169   9.732
 8469ION    NA+12520   7.605   2.181   8.805
 8470ION    NA+12521   8.097   2.589   3.888
 8471ION    NA+12522   8.886  10.981   9.503
 8472ION    NA+12523   5.243   6.357  11.304
 8473ION    NA+12524   0.543   7.512   9.733
 8474ION    NA+12525   9.122  10.680   0.797
 8475ION    NA+12526   4.024   4.039  10.241
 8476ION    NA+12527   9.384   7.744  11.249
 8477ION    NA+12528   3.917   2.174   1.711
 8478ION    NA+12529   4.826   0.948   2.138
 8479ION    NA+12530   1.259   5.049  11.791
 8480ION    NA+12531   0.967  11.200   8.981
 8481ION    NA+12532   8.786   8.384  11.731
 8482ION    NA+12533   0.901   3.993   3.033
 8483ION    NA+12534   7.084   1.354   2.687
 8484ION    NA+12535   5.076   2.101  11.949
 8485ION    NA+12536   4.166   0.730  10.424
 8486ION    NA+12537  10.579   0.098   1.500
 8487ION    NA+12538   5.608   7.575   2.443
 8488ION    NA+12539  11.159   0.475   2.685
 8489ION    NA+12540   4.246   3.955   0.606
 8490ION    NA+12541   6.039   9.456   2.538
 8491ION    NA+12542   3.213   2.369   0.423
 8492ION    NA+12543   1.467   2.213   8.876
 8493ION    NA+12544   3.037   8.922  11.862
 8494ION    NA+12545   4.220   1.765   2.572
 8495ION    NA+12546   8.547   6.822   9.842
 8496ION    NA+12547   7.514   9.556   1.022
 8497ION    NA+12548   7.423   0.858   0.081
 8498ION    NA+12549   1.846   4.129   1.282
 8499ION    NA+12550   7.954   6.371  10.582
 8500ION    NA+12551   3.087   5.835   2.625
 8501ION    NA+12552   5.341   1.698   2.205
 8502ION    NA+12553   0.241   4.390  11.685
 8503ION    NA+12554   3.043   8.289   0.886
 8504ION    NA+12555   7.107   1.686   1.637
 8505ION    NA+12556   3.340  11.112   7.958
 8506ION    NA+12557   8.192   1.064   2.909
 8507ION    NA+12558   4.033   8.427   0.850
 8508ION    NA+12559   9.281   0.065   0.950
 8509ION    NA+12560   3.451   2.045   3.616
 8510ION    NA+12561   5.363  10.109  11.413
 8511ION    NA+12562   7.945   5.103   3.165
 8512ION    NA+12563  11.373   7.928  11.966
 8513ION    NA+12564   9.340   0.748   9.922
 8514ION    NA+12565  11.420  11.073  11.988
 8515ION    NA+12566  11.036   6.514  10.182
 8516ION    NA+12567   5.740   2.797   9.542
 8517ION    NA+12568   6.649   9.172   8.780
 8518ION    NA+12569   1.007   5.094   1.218
 8519ION    NA+12570   7.548   0.239  11.305
 8520ION    NA+12571   0.390   0.401   9.131
 8521ION    NA+12572   2.342   7.768   8.552
 8522ION    NA+12573   8.982   3.295   0.441
 8523ION    NA+12574   9.621   1.573   2.464
 8524ION    NA+12575  10.492   7.698   9.846
 8525ION    NA+12576  10.507   4.172   0.722
 8526ION    NA+12577   7.410   8.721   8.887
 8527ION    NA+12578   0.566   1.523  11.480
 8528ION    NA+12579   9.762  10.133  11.173
 8529ION    NA+12580  10.327  11.003   0.387
 8530ION    NA+12581   9.558   1.487   9.273
 8531ION    NA+12582   0.053   1.836  10.731
 8532ION    NA+12583   8.595   4.538   2.655
 8533ION    NA+12584   1.801  11.209   0.430
 8534ION    NA+12585   2.663   3.412  10.326
 8535ION    NA+12586   8.494   0.185   9.869
 8536ION    NA+12587   5.142   3.398   8.261
 8537ION    CL-12588   2.814   4.604   2.962
 8538ION    CL-12589   4.698   3.280   8.254
 8539ION    CL-12590   0.374   2.362   3.518
 8540ION    CL-12591   1.214  11.342  11.537
 8541ION    CL-12592  10.037   4.116   3.506
 8542ION    CL-12593  11.136  11.416  10.918
 8543ION    CL-12594   5.807  10.111  11.356
 8544ION    CL-12595   9.142   3.741  10.387
 8545ION    CL-12596   9.478  10.489  11.218
 8546ION    CL-12597   0.089   0.600  10.333
 8547ION    CL-12598   2.806   5.104  11.761
 8548ION    CL-12599   5.086   1.325   2.136
 8549ION    CL-12600   3.500  10.720   3.591
 8550ION    CL-12601  11.241   4.091   1.533
 8551ION    CL-12602   1.508   7.652  11.359
 8552ION    CL-12603   0.374   1.527  10.872
 8553ION    CL-12604   6.404   9.301   2.331
 8554ION    CL-12605   0.306  10.521  10.904
 8555ION    CL-12606   4.463   3.948  10.299
 8556ION    CL-12607   6.233   9.317  10.161
 8557ION    CL-12608   0.690   0.053   9.122
 8558ION    CL-12609   2.659   2.196  10.863
 8559ION    CL-12610   7.717   1.736   8.784
 8560ION    CL-12611   9.528   1.921   2.195
 8561ION    CL-12612   9.055   1.194  11.460
 8562ION    CL-12613   0.852   8.789  11.554
 8563ION    CL-12614   8.306   0.669   2.733
 8564ION    CL-12615   9.383  10.827   3.612
 8565ION    CL-12616  11.428   0.828   2.715
 8566ION    CL-12617   8.267   4.624  11.444
 8567ION    CL-12618   2.508   9.860   9.452
 8568ION    CL-12619   8.602   3.073   0.381
 8569ION    CL-12620   9.411   2.888   9.940
 8570ION    CL-12621   4.757   7.227   2.920
 8571ION    CL-12622   9.162   8.589  11.930
 8572ION    CL-12623   8.596   8.123  11.401
 8573ION    CL-12624   6.123   7.407   0.228
 8574ION    CL-12625  10.519   2.182   3.062
 8575ION    CL-12626  11.228   9.418   0.745
 8576ION    CL-12627   1.779   4.922   4.089
 8577ION    CL-12628   0.531   1.830  11.812
 8578ION    CL-12629   8.627  11.275   9.727
 8579ION    CL-12630   2.006  10.214   3.284
 8580ION    CL-12631   8.552   2.125  11.019
 8581ION    CL-12632  11.458   1.439   0.532
 8582ION    CL-12633   2.719  11.049   3.061
 8583ION    CL-12634   8.067   7.908  10.437
 8584ION    CL-12635  10.090   9.866  10.999
 8585ION    CL-12636   4.220   0.068   8.415
 8586ION    CL-12637   0.310   6.751   1.636
 8587ION    CL-12638   5.785   7.975   2.307
 8588ION    CL-12639   7.391   7.052   1.676
 8589ION    CL-12640   1.278   2.253   9.278
 8590ION    CL-12641   9.691   3.495  11.185
 8591ION    CL-12642   5.867  10.371  10.039
 8592ION    CL-12643   1.974  11.074   8.759
 8593ION    CL-12644   4.088   4.076   1.007
 8594ION    CL-12645   0.404  10.521   0.936
 8595ION    CL-12646   3.071   8.496   1.290
 8596ION    CL-12647   9.195  11.120   0.894
 8597ION    CL-12648  10.398   3.973   2.058
 8598ION    CL-12649  10.805   1.180  10.558
 8599ION    CL-12650   4.721   7.844   1.744
 8600ION    CL-12651   5.607   3.238  11.292
 8601ION    CL-12652  10.520   7.016   0.454
 8602ION    CL-12653   2.716   3.828  10.474
 8603ION    CL-12654   4.828   1.328   8.927
 8604ION    CL-12655  11.451   7.800   8.378
 8605ION    CL-12656   6.931   9.290  11.263
 8606ION    CL-12657   9.835   8.537   9.857
 8607ION    CL-12658   5.950   7.012   9.790
 8608ION    CL-12659   4.253   0.543  10.029
 8609ION    CL-12660   9.570   7.991  11.584
 8610ION    CL-12661   0.335   7.450   9.337
 8611ION    CL-12662   8.076   7.375   2.799
 8612ION    CL-12663   1.655   6.526   9.414
 8613ION    CL-12664   6.985   8.857   8.771
 8614ION    CL-12665   2.121  10.909   0.344
 8615ION    CL-12666   9.589   4.391   2.473
 8616ION    CL-12667   5.495   6.023  11.150
 8617ION    CL-12668   4.831   5.249  10.817
 8618ION    CL-12669   7.072   0.678   0.291
 8619ION    CL-12670   0.602   8.097   3.181
 8620ION    CL-12671  11.188   2.105  10.660
 8621ION    CL-12672   4.217   9.611   0.504
 8622ION    CL-12673   0.989  10.089   9.122
 8623ION    CL-12674   6.507   4.453  11.961
 8624ION    CL-12675   0.461   8.596   1.467
 8625ION    CL-12676   6.758   7.566  10.092
  11.50000  11.50000  12.00000
