Protein in INSANE! Membrane UpperLeaflet>POPC=1.0 LowerLeaflet>POPC=1.0
11530
    1AU     AUC    1   5.253   5.284   6.005
    1AU     AUC    2   5.554   5.323   5.833
    1AU     AUC    3   5.535   5.302   6.172
    1AU     AUC    4   4.960   5.268   5.844
    1AU     AUC    5   4.962   5.265   6.193
    1AU     AUC    6   5.063   5.529   6.025
    1AU     AUC    7   5.404   5.560   6.007
    1AU     AUC    8   5.093   5.000   6.008
    1AU     AUC    9   5.457   5.051   5.996
    1AU     AUC   10   5.293   5.116   6.272
    1AU     AUC   11   5.237   5.441   6.285
    1AU     AUC   12   5.266   5.127   5.727
    1AU     AUC   13   5.266   5.461   5.734
    1AU     AUC   14   5.859   5.352   5.676
    1AU     AUC   15   5.902   5.346   5.996
    1AU     AUC   16   5.841   5.307   6.364
    1AU     AUC   17   4.658   5.246   5.674
    1AU     AUC   18   4.623   5.293   6.042
    1AU     AUC   19   4.682   5.250   6.368
    1AU     AUC   20   4.894   5.831   6.011
    1AU     AUC   21   5.237   5.892   5.998
    1AU     AUC   22   5.551   5.874   6.016
    1AU     AUC   23   4.926   4.681   6.013
    1AU     AUC   24   5.272   4.720   6.002
    1AU     AUC   25   5.663   4.771   5.965
    1AU     AUC   26   5.312   4.890   6.556
    1AU     AUC   27   5.255   5.212   6.600
    1AU     AUC   28   5.250   5.592   6.572
    1AU     AUC   29   5.261   4.935   5.438
    1AU     AUC   30   5.259   5.277   5.422
    1AU     AUC   31   5.279   5.635   5.437
    1AU     AUC   32   5.593   5.063   6.466
    1AU     AUC   33   5.560   5.425   6.513
    1AU     AUC   34   5.559   5.140   5.518
    1AU     AUC   35   5.582   5.500   5.509
    1AU     AUC   36   4.966   5.050   6.487
    1AU     AUC   37   4.959   5.413   6.500
    1AU     AUC   38   4.921   5.071   5.562
    1AU     AUC   39   4.931   5.444   5.532
    1AU     AUC   40   5.757   5.618   5.856
    1AU     AUC   41   5.703   5.587   6.213
    1AU     AUC   42   4.771   5.555   5.814
    1AU     AUC   43   4.756   5.572   6.206
    1AU     AUC   44   5.770   5.041   5.806
    1AU     AUC   45   5.789   5.018   6.132
    1AU     AUC   46   4.730   4.981   5.870
    1AU     AUC   47   4.771   4.977   6.197
    1AU     AUC   48   5.057   5.759   6.300
    1AU     AUC   49   5.394   5.761   6.313
    1AU     AUC   50   5.085   4.770   6.275
    1AU     AUC   51   5.498   4.797   6.296
    1AU     AUC   52   5.059   5.723   5.682
    1AU     AUC   53   5.452   5.763   5.681
    1AU     AUC   54   5.049   4.798   5.733
    1AU     AUC   55   5.443   4.833   5.675
    1AU    AUSL   56   5.841   5.201   6.724
    1AU    AUSL   57   5.709   4.740   6.588
    1AU     AUL   58   5.969   4.825   6.785
    1AU       S   59   6.142   4.454   6.575
    1AU     LIG   60   6.054   4.178   6.890
    1AU     LIG   61   6.149   3.759   7.062
    1AU       S   62   6.098   5.258   6.885
    1AU     LIG   63   6.059   5.400   7.299
    1AU     LIG   64   6.153   5.152   7.678
    1AU    AUSL   65   5.449   5.012   6.804
    1AU    AUSL   66   5.109   5.338   6.878
    1AU     AUL   67   5.300   5.186   7.137
    1AU       S   68   5.732   4.997   7.137
    1AU     LIG   69   5.645   5.151   7.526
    1AU     LIG   70   5.721   5.042   7.970
    1AU       S   71   4.567   5.129   7.182
    1AU     LIG   72   4.734   5.440   7.500
    1AU     LIG   73   4.673   5.486   7.965
    1AU    AUSL   74   5.458   5.432   6.678
    1AU    AUSL   75   5.866   5.621   6.641
    1AU     AUL   76   5.677   5.444   6.966
    1AU       S   77   5.287   5.689   7.123
    1AU     LIG   78   5.620   5.658   7.417
    1AU     LIG   79   5.848   5.546   7.797
    1AU       S   80   5.991   5.776   6.851
    1AU     LIG   81   6.409   5.788   6.901
    1AU     LIG   82   6.801   5.933   7.086
    1AU    AUSL   83   5.809   5.386   5.268
    1AU    AUSL   84   5.695   5.825   5.332
    1AU     AUL   85   5.837   5.674   5.013
    1AU       S   86   5.712   5.273   4.809
    1AU     LIG   87   6.045   5.281   4.475
    1AU     LIG   88   6.239   5.118   4.071
    1AU       S   89   6.065   5.959   5.297
    1AU     LIG   90   5.905   6.190   5.007
    1AU     LIG   91   6.072   6.568   4.795
    1AU    AUSL   92   5.464   5.134   5.232
    1AU    AUSL   93   5.799   5.062   5.552
    1AU     AUL   94   5.892   5.079   5.183
    1AU       S   95   5.901   4.316   5.242
    1AU     LIG   96   6.363   4.313   5.193
    1AU     LIG   97   6.584   4.187   4.819
    1AU       S   98   5.521   4.926   4.910
    1AU     LIG   99   5.559   4.647   4.513
    1AU     LIG  100   5.770   4.879   4.166
    1AU    AUSL  101   5.402   5.563   5.162
    1AU    AUSL  102   5.077   5.007   5.137
    1AU     AUL  103   5.254   5.310   4.933
    1AU       S  104   4.874   5.034   4.833
    1AU     LIG  105   5.138   5.024   4.482
    1AU     LIG  106   4.950   5.026   4.039
    1AU       S  107   5.640   5.073   4.719
    1AU     LIG  108   5.548   5.313   4.331
    1AU     LIG  109   5.850   5.473   4.004
    1AU    AUSL  110   4.741   5.215   6.692
    1AU    AUSL  111   4.990   5.681   6.666
    1AU     AUL  112   4.845   5.521   6.969
    1AU       S  113   4.507   5.206   6.878
    1AU     LIG  114   4.348   5.572   7.175
    1AU     LIG  115   4.239   5.469   7.648
    1AU       S  116   4.593   5.897   6.803
    1AU     LIG  117   4.459   6.173   7.098
    1AU     LIG  118   4.281   6.410   7.462
    1AU    AUSL  119   5.032   4.912   6.847
    1AU    AUSL  120   4.651   4.820   6.545
    1AU     AUL  121   4.703   4.784   6.836
    1AU       S  122   4.510   4.380   6.645
    1AU     LIG  123   4.057   4.370   6.805
    1AU     LIG  124   3.726   4.380   7.161
    1AU       S  125   4.825   5.076   7.164
    1AU     LIG  126   4.963   4.983   7.558
    1AU     LIG  127   4.693   4.969   7.928
    1AU    AUSL  128   4.705   5.166   5.287
    1AU    AUSL  129   4.966   4.856   5.522
    1AU     AUL  130   4.816   4.771   5.208
    1AU       S  131   4.508   5.100   5.046
    1AU     LIG  132   4.345   5.465   4.802
    1AU     LIG  133   4.218   5.553   4.344
    1AU       S  134   4.377   4.569   5.239
    1AU     LIG  135   4.415   4.131   5.102
    1AU     LIG  136   4.241   3.797   4.815
    1AU    AUSL  137   5.059   5.410   5.340
    1AU    AUSL  138   4.616   5.553   5.427
    1AU     AUL  139   4.810   5.454   5.065
    1AU       S  140   4.441   5.688   5.243
    1AU     LIG  141   4.140   5.985   5.083
    1AU     LIG  142   4.038   6.176   4.657
    1AU       S  143   4.607   5.012   4.788
    1AU     LIG  144   4.716   5.342   4.468
    1AU     LIG  145   4.641   5.469   4.035
    1AU    AUSL  146   5.932   5.902   6.052
    1AU    AUSL  147   5.935   5.611   5.609
    1AU     AUL  148   6.089   5.997   5.766
    1AU       S  149   6.178   5.659   5.424
    1AU     LIG  150   6.329   5.646   4.973
    1AU     LIG  151   6.378   6.089   4.821
    1AU       S  152   6.467   5.860   6.388
    1AU     LIG  153   6.606   6.229   6.110
    1AU     LIG  154   6.887   6.310   5.756
    1AU    AUSL  155   6.205   5.569   5.923
    1AU    AUSL  156   6.221   5.184   6.162
    1AU     AUL  157   6.529   5.372   6.033
    1AU       S  158   6.377   5.788   6.148
    1AU     LIG  159   6.651   5.819   5.799
    1AU     LIG  160   7.085   5.688   5.676
    1AU       S  161   6.478   4.895   6.002
    1AU     LIG  162   6.718   4.845   6.377
    1AU     LIG  163   7.106   4.567   6.457
    1AU    AUSL  164   5.953   5.500   6.253
    1AU    AUSL  165   5.623   5.801   6.321
    1AU     AUL  166   5.977   5.902   6.396
    1AU       S  167   5.962   6.084   6.862
    1AU     LIG  168   6.337   6.254   6.677
    1AU     LIG  169   6.750   6.395   6.849
    1AU       S  170   6.313   5.570   6.429
    1AU     LIG  171   6.845   5.545   6.416
    1AU     LIG  172   7.339   5.702   6.482
    1AU    AUSL  173   4.601   5.786   6.044
    1AU    AUSL  174   4.621   5.559   6.465
    1AU     AUL  175   4.338   5.908   6.312
    1AU       S  176   4.485   5.647   6.672
    1AU     LIG  177   4.101   5.878   6.826
    1AU     LIG  178   3.978   6.025   7.248
    1AU       S  179   4.557   6.201   6.010
    1AU     LIG  180   4.135   6.141   5.859
    1AU     LIG  181   3.827   6.372   5.611
    1AU    AUSL  182   4.518   5.422   5.806
    1AU    AUSL  183   4.675   5.922   5.654
    1AU     AUL  184   4.374   5.749   5.715
    1AU       S  185   4.216   5.298   5.463
    1AU     LIG  186   3.919   5.718   5.514
    1AU     LIG  187   3.492   5.980   5.470
    1AU       S  188   4.497   6.130   5.443
    1AU     LIG  189   4.306   6.464   5.229
    1AU     LIG  190   3.903   6.528   5.041
    1AU    AUSL  191   4.317   5.478   6.184
    1AU    AUSL  192   4.297   5.088   5.930
    1AU     AUL  193   4.119   5.407   5.907
    1AU       S  194   4.033   5.025   6.187
    1AU     LIG  195   3.800   4.985   5.814
    1AU     LIG  196   3.458   4.728   5.638
    1AU       S  197   4.096   5.508   6.390
    1AU     LIG  198   3.796   5.839   6.417
    1AU     LIG  199   3.371   6.051   6.380
    1AU    AUSL  200   5.985   4.896   5.944
    1AU    AUSL  201   5.860   5.045   6.336
    1AU     AUL  202   6.184   4.925   6.370
    1AU       S  203   6.277   4.751   5.939
    1AU     LIG  204   6.347   4.373   5.828
    1AU     LIG  205   6.706   4.133   5.657
    1AU       S  206   6.381   4.466   6.357
    1AU     LIG  207   6.576   4.382   6.787
    1AU     LIG  208   6.465   4.198   7.216
    1AU    AUSL  209   6.162   5.207   5.701
    1AU    AUSL  210   5.862   4.609   5.666
    1AU     AUL  211   6.096   4.863   5.531
    1AU       S  212   6.471   4.996   5.758
    1AU     LIG  213   6.700   4.653   5.579
    1AU     LIG  214   7.137   4.459   5.663
    1AU       S  215   5.985   4.411   5.496
    1AU     LIG  216   6.131   3.998   5.545
    1AU     LIG  217   6.236   3.797   5.140
    1AU    AUSL  218   4.653   4.854   6.034
    1AU    AUSL  219   4.545   4.960   5.613
    1AU     AUL  220   4.292   4.761   5.868
    1AU       S  221   4.382   4.807   5.417
    1AU     LIG  222   3.943   4.660   5.445
    1AU     LIG  223   3.803   4.329   5.133
    1AU       S  224   3.962   4.805   6.271
    1AU     LIG  225   3.885   4.471   5.939
    1AU     LIG  226   3.618   4.250   5.606
    1AU    AUSL  227   4.476   5.122   6.327
    1AU    AUSL  228   4.757   4.518   6.251
    1AU     AUL  229   4.431   4.698   6.304
    1AU       S  230   4.643   4.269   6.302
    1AU     LIG  231   4.172   4.169   6.336
    1AU     LIG  232   3.981   3.866   6.667
    1AU       S  233   4.148   5.043   6.425
    1AU     LIG  234   3.688   5.081   6.574
    1AU     LIG  235   3.288   4.901   6.404
    1AU    AUSL  236   5.227   5.972   6.456
    1AU    AUSL  237   4.798   5.946   6.384
    1AU     AUL  238   5.046   6.012   6.754
    1AU       S  239   4.681   6.163   6.508
    1AU     LIG  240   4.258   6.322   6.612
    1AU     LIG  241   4.056   6.478   6.998
    1AU       S  242   5.202   6.390   6.502
    1AU     LIG  243   5.376   6.796   6.738
    1AU     LIG  244   5.347   7.279   6.805
    1AU    AUSL  245   5.035   6.170   6.115
    1AU    AUSL  246   5.372   6.210   5.770
    1AU     AUL  247   5.070   6.437   5.878
    1AU       S  248   5.258   6.602   6.301
    1AU     LIG  249   4.900   6.784   6.510
    1AU     LIG  250   4.844   7.205   6.606
    1AU       S  251   5.325   6.445   5.460
    1AU     LIG  252   5.714   6.728   5.542
    1AU     LIG  253   5.852   7.216   5.501
    1AU    AUSL  254   5.494   6.163   6.170
    1AU    AUSL  255   5.501   5.840   6.743
    1AU     AUL  256   5.585   6.120   6.540
    1AU       S  257   5.705   5.935   6.981
    1AU     LIG  258   6.058   5.932   7.320
    1AU     LIG  259   6.399   6.236   7.212
    1AU       S  260   5.452   6.426   6.205
    1AU     LIG  261   5.781   6.673   6.393
    1AU     LIG  262   5.787   7.101   6.586
    1AU    AUSL  263   5.341   4.538   6.615
    1AU    AUSL  264   5.887   4.584   6.211
    1AU     AUL  265   5.671   4.370   6.510
    1AU       S  266   5.200   4.009   6.601
    1AU     LIG  267   4.910   3.713   6.798
    1AU     LIG  268   4.985   3.292   7.005
    1AU       S  269   6.097   4.423   6.272
    1AU     LIG  270   6.312   3.992   6.490
    1AU     LIG  271   6.592   3.871   6.847
    1AU    AUSL  272   5.152   4.383   6.251
    1AU    AUSL  273   5.065   4.795   6.446
    1AU     AUL  274   4.985   4.461   6.598
    1AU       S  275   5.125   4.092   6.338
    1AU     LIG  276   4.907   3.702   6.285
    1AU     LIG  277   4.872   3.294   6.508
    1AU       S  278   4.647   4.106   6.545
    1AU     LIG  279   4.432   3.948   6.925
    1AU     LIG  280   4.147   4.073   7.267
    1AU    AUSL  281   5.481   4.636   6.182
    1AU    AUSL  282   5.099   4.474   5.844
    1AU     AUL  283   5.442   4.289   6.033
    1AU       S  284   4.978   4.140   5.873
    1AU     LIG  285   4.785   3.720   5.799
    1AU     LIG  286   4.917   3.420   5.514
    1AU       S  287   5.386   3.948   6.387
    1AU     LIG  288   5.378   3.506   6.391
    1AU     LIG  289   5.479   3.303   6.780
    1AU    AUSL  290   5.310   5.940   5.447
    1AU    AUSL  291   5.626   5.869   5.769
    1AU     AUL  292   5.675   6.143   5.538
    1AU       S  293   5.331   6.148   5.205
    1AU     LIG  294   5.594   6.575   5.065
    1AU     LIG  295   5.418   6.987   5.211
    1AU       S  296   6.360   5.938   5.366
    1AU     LIG  297   6.326   6.407   5.245
    1AU     LIG  298   6.565   6.691   4.940
    1AU    AUSL  299   5.063   5.901   5.803
    1AU    AUSL  300   4.938   5.817   5.318
    1AU     AUL  301   4.959   6.134   5.525
    1AU       S  302   5.148   6.400   5.173
    1AU     LIG  303   4.903   6.716   5.410
    1AU     LIG  304   4.952   7.183   5.426
    1AU       S  305   4.684   5.950   5.160
    1AU     LIG  306   4.530   6.224   4.829
    1AU     LIG  307   4.305   6.633   4.721
    1AU    AUSL  308   5.225   4.548   5.423
    1AU    AUSL  309   4.701   4.564   5.728
    1AU     AUL  310   4.931   4.420   5.492
    1AU       S  311   4.459   4.489   5.510
    1AU     LIG  312   4.112   4.185   5.516
    1AU     LIG  313   3.938   3.819   5.257
    1AU       S  314   5.186   4.023   5.669
    1AU     LIG  315   4.890   3.919   5.337
    1AU     LIG  316   4.839   3.573   5.019
    1AU    AUSL  317   5.469   4.671   5.768
    1AU    AUSL  318   5.589   4.746   5.346
    1AU     AUL  319   5.524   4.392   5.550
    1AU       S  320   5.232   3.873   5.894
    1AU     LIG  321   5.412   3.579   5.565
    1AU     LIG  322   5.329   3.212   5.276
    1AU       S  323   5.805   4.588   5.183
    1AU     LIG  324   6.023   4.355   4.771
    1AU     LIG  325   6.194   3.913   4.619
    2POPC   NC3  326   3.381   8.751   8.016
    2POPC   PO4  327   3.971   8.342   8.194
    2POPC   GL1  328   3.843   8.647   7.744
    2POPC   GL2  329   3.492   8.657   7.546
    2POPC   C1A  330   3.868   8.724   7.267
    2POPC   D2A  331   3.732   8.465   6.979
    2POPC   C3A  332   3.488   8.472   6.631
    2POPC   C4A  333   3.549   8.595   6.234
    2POPC   C1B  334   3.281   8.607   7.218
    2POPC   C2B  335   3.201   8.820   6.905
    2POPC   C3B  336   3.096   8.769   6.530
    2POPC   C4B  337   3.189   8.939   6.138
    3POPC   NC3  338   1.096   5.050   8.151
    3POPC   PO4  339   0.565   4.614   8.178
    3POPC   GL1  340   0.881   4.786   7.754
    3POPC   GL2  341   1.106   5.075   7.665
    3POPC   C1A  342   1.102   4.692   7.341
    3POPC   D2A  343   0.947   4.813   6.933
    3POPC   C3A  344   1.060   4.602   6.554
    3POPC   C4A  345   1.124   4.798   6.137
    3POPC   C1B  346   1.357   5.159   7.332
    3POPC   C2B  347   1.460   5.029   6.940
    3POPC   C3B  348   1.273   5.052   6.571
    3POPC   C4B  349   1.389   5.216   6.208
    4POPC   NC3  350   9.457   1.799   8.151
    4POPC   PO4  351   8.901   2.071   7.927
    4POPC   GL1  352   9.108   1.885   7.617
    4POPC   GL2  353   9.417   1.706   7.663
    4POPC   C1A  354   9.262   2.009   7.244
    4POPC   D2A  355   9.293   1.824   6.841
    4POPC   C3A  356   9.444   2.074   6.497
    4POPC   C4A  357   9.653   2.254   6.155
    4POPC   C1B  358   9.393   1.512   7.281
    4POPC   C2B  359   9.723   1.639   7.019
    4POPC   C3B  360   9.742   1.641   6.565
    4POPC   C4B  361   9.906   1.429   6.219
    5POPC   NC3  362   0.179   7.856   8.377
    5POPC   PO4  363   0.036   7.393   8.030
    5POPC   GL1  364   0.204   7.529   7.607
    5POPC   GL2  365   0.358   7.809   7.555
    5POPC   C1A  366   0.383   7.563   7.142
    5POPC   D2A  367   0.578   7.799   6.815
    5POPC   C3A  368   0.537   7.680   6.351
    5POPC   C4A  369   0.226   7.714   5.966
    5POPC   C1B  370   0.308   8.180   7.324
    5POPC   C2B  371   0.428   8.290   6.916
    5POPC   C3B  372   0.301   8.122   6.535
    5POPC   C4B  373   0.391   8.138   6.147
    6POPC   NC3  374   3.011   1.494   8.090
    6POPC   PO4  375   3.630   1.726   8.289
    6POPC   GL1  376   3.610   1.504   7.894
    6POPC   GL2  377   3.630   1.137   7.867
    6POPC   C1A  378   3.504   1.517   7.469
    6POPC   D2A  379   3.512   1.687   7.052
    6POPC   C3A  380   3.676   1.524   6.639
    6POPC   C4A  381   3.489   1.444   6.233
    6POPC   C1B  382   3.419   1.015   7.444
    6POPC   C2B  383   3.530   1.190   7.020
    6POPC   C3B  384   3.380   1.101   6.593
    6POPC   C4B  385   3.531   0.941   6.197
    7POPC   NC3  386   8.545   9.189   8.143
    7POPC   PO4  387   9.030   9.632   8.342
    7POPC   GL1  388   8.937   9.502   7.789
    7POPC   GL2  389   8.707   9.311   7.677
    7POPC   C1A  390   8.833   9.692   7.370
    7POPC   D2A  391   8.680   9.654   6.952
    7POPC   C3A  392   8.773   9.364   6.654
    7POPC   C4A  393   8.692   9.514   6.263
    7POPC   C1B  394   8.541   9.221   7.276
    7POPC   C2B  395   8.380   9.065   6.890
    7POPC   C3B  396   8.244   9.193   6.506
    7POPC   C4B  397   8.289   9.304   6.077
    8POPC   NC3  398   6.231   0.350   8.144
    8POPC   PO4  399   6.782  10.479   8.018
    8POPC   GL1  400   6.620   0.238   7.642
    8POPC   GL2  401   6.345   0.486   7.673
    8POPC   C1A  402   6.513   0.450   7.203
    8POPC   D2A  403   6.286   0.696   6.881
    8POPC   C3A  404   6.492   0.698   6.488
    8POPC   C4A  405   6.736   0.550   6.117
    8POPC   C1B  406   6.213   0.073   7.429
    8POPC   C2B  407   6.374  10.439   7.026
    8POPC   C3B  408   6.423   0.212   6.651
    8POPC   C4B  409   6.290   0.293   6.219
    9POPC   NC3  410   8.933   4.752   8.149
    9POPC   PO4  411   8.554   5.217   7.885
    9POPC   GL1  412   8.897   5.064   7.672
    9POPC   GL2  413   8.737   4.755   7.664
    9POPC   C1A  414   8.927   5.160   7.237
    9POPC   D2A  415   8.699   5.063   6.868
    9POPC   C3A  416   8.749   4.871   6.511
    9POPC   C4A  417   8.834   4.970   6.112
    9POPC   C1B  418   8.557   4.801   7.271
    9POPC   C2B  419   8.314   4.735   6.888
    9POPC   C3B  420   8.352   4.564   6.460
    9POPC   C4B  421   8.409   4.655   6.004
   10POPC   NC3  422   4.320   9.412   7.997
   10POPC   PO4  423   3.670   9.246   8.248
   10POPC   GL1  424   3.861   9.540   7.798
   10POPC   GL2  425   4.187   9.565   7.524
   10POPC   C1A  426   3.727   9.551   7.352
   10POPC   D2A  427   3.994   9.492   6.945
   10POPC   C3A  428   3.796   9.551   6.506
   10POPC   C4A  429   3.959   9.531   6.034
   10POPC   C1B  430   4.447   9.264   7.218
   10POPC   C2B  431   4.630   9.082   6.844
   10POPC   C3B  432   4.458   8.949   6.477
   10POPC   C4B  433   4.209   9.293   6.402
   11POPC   NC3  434   9.883   5.568   8.319
   11POPC   PO4  435   9.753   5.269   7.778
   11POPC   GL1  436   9.912   5.402   7.468
   11POPC   GL2  437  10.181   5.558   7.682
   11POPC   C1A  438   9.768   5.205   7.098
   11POPC   D2A  439   9.728   5.486   6.795
   11POPC   C3A  440   9.641   5.439   6.383
   11POPC   C4A  441   9.838   5.653   6.054
   11POPC   C1B  442  10.274   5.749   7.305
   11POPC   C2B  443  10.097   5.903   6.916
   11POPC   C3B  444  10.085   5.754   6.506
   11POPC   C4B  445  10.297   5.858   6.125
   12POPC   NC3  446   6.296   1.555   8.269
   12POPC   PO4  447   5.971   2.127   8.278
   12POPC   GL1  448   6.311   1.876   7.883
   12POPC   GL2  449   6.532   2.106   7.705
   12POPC   C1A  450   6.220   1.693   7.408
   12POPC   D2A  451   6.464   1.666   6.979
   12POPC   C3A  452   6.233   1.583   6.573
   12POPC   C4A  453   6.255   1.683   6.142
   12POPC   C1B  454   6.417   2.137   7.259
   12POPC   C2B  455   6.656   2.148   6.884
   12POPC   C3B  456   6.585   1.944   6.507
   12POPC   C4B  457   6.622   2.010   6.075
   13POPC   NC3  458   1.458   0.945   8.032
   13POPC   PO4  459   2.102   0.901   8.056
   13POPC   GL1  460   1.888   1.089   7.695
   13POPC   GL2  461   2.234   1.224   7.629
   13POPC   C1A  462   1.710   1.135   7.289
   13POPC   D2A  463   1.673   0.816   6.946
   13POPC   C3A  464   1.872   0.868   6.527
   13POPC   C4A  465   1.668   0.850   6.113
   13POPC   C1B  466   2.144   1.410   7.250
   13POPC   C2B  467   1.954   1.281   6.855
   13POPC   C3B  468   1.794   1.350   6.438
   13POPC   C4B  469   2.016   1.213   6.080
   14POPC   NC3  470   7.153   2.050   8.127
   14POPC   PO4  471   6.713   1.475   8.121
   14POPC   GL1  472   6.885   1.703   7.743
   14POPC   GL2  473   7.253   1.817   7.698
   14POPC   C1A  474   6.868   1.862   7.308
   14POPC   D2A  475   7.027   1.761   6.898
   14POPC   C3A  476   7.074   2.077   6.576
   14POPC   C4A  477   7.045   1.823   6.257
   14POPC   C1B  478   7.394   1.719   7.290
   14POPC   C2B  479   7.577   1.577   6.896
   14POPC   C3B  480   7.489   1.761   6.510
   14POPC   C4B  481   7.497   2.079   6.197
   15POPC   NC3  482   6.404   9.158   8.016
   15POPC   PO4  483   6.813   9.623   8.157
   15POPC   GL1  484   6.636   9.613   7.687
   15POPC   GL2  485   6.365   9.391   7.575
   15POPC   C1A  486   6.501   9.776   7.277
   15POPC   D2A  487   6.561   9.604   6.855
   15POPC   C3A  488   6.525   9.831   6.482
   15POPC   C4A  489   6.487   9.761   6.034
   15POPC   C1B  490   6.279   9.284   7.158
   15POPC   C2B  491   6.083   9.405   6.779
   15POPC   C3B  492   6.310   9.359   6.411
   15POPC   C4B  493   6.175   9.347   6.006
   16POPC   NC3  494   9.454   3.301   8.116
   16POPC   PO4  495   9.838   3.879   8.091
   16POPC   GL1  496   9.724   3.553   7.771
   16POPC   GL2  497   9.358   3.570   7.679
   16POPC   C1A  498   9.675   3.345   7.345
   16POPC   D2A  499   9.553   3.543   6.931
   16POPC   C3A  500   9.796   3.544   6.524
   16POPC   C4A  501   9.603   3.544   6.097
   16POPC   C1B  502   9.179   3.365   7.297
   16POPC   C2B  503   9.046   3.471   6.886
   16POPC   C3B  504   9.262   3.485   6.496
   16POPC   C4B  505   9.184   3.234   6.121
   17POPC   NC3  506   0.461   5.776   8.339
   17POPC   PO4  507  10.338   5.555   8.203
   17POPC   GL1  508   0.187   5.500   7.831
   17POPC   GL2  509   0.504   5.744   7.818
   17POPC   C1A  510   0.306   5.459   7.346
   17POPC   D2A  511   0.137   5.700   6.948
   17POPC   C3A  512   0.168   5.828   6.505
   17POPC   C4A  513   0.202   5.534   6.176
   17POPC   C1B  514   0.632   5.878   7.393
   17POPC   C2B  515   0.655   5.665   6.981
   17POPC   C3B  516   0.587   5.548   6.541
   17POPC   C4B  517   0.621   5.803   6.159
   18POPC   NC3  518  10.224   0.437   8.290
   18POPC   PO4  519   9.672   0.125   8.030
   18POPC   GL1  520   9.993   0.155   7.718
   18POPC   GL2  521  10.220   0.413   7.713
   18POPC   C1A  522   9.903   0.162   7.268
   18POPC   D2A  523  10.061   0.481   7.034
   18POPC   C3A  524  10.086   0.542   6.613
   18POPC   C4A  525  10.252   0.386   6.241
   18POPC   C1B  526  10.481   0.459   7.320
   18POPC   C2B  527   0.081   0.599   6.878
   18POPC   C3B  528   0.024   0.780   6.466
   18POPC   C4B  529  10.490   0.721   5.974
   19POPC   NC3  530   1.524  10.470   7.944
   19POPC   PO4  531   2.199  10.301   7.966
   19POPC   GL1  532   1.879  10.255   7.596
   19POPC   GL2  533   1.767   9.897   7.468
   19POPC   C1A  534   1.705  10.309   7.192
   19POPC   D2A  535   1.550  10.174   6.842
   19POPC   C3A  536   1.792  10.445   6.564
   19POPC   C4A  537   1.627  10.498   6.164
   19POPC   C1B  538   2.079   9.948   7.179
   19POPC   C2B  539   1.997  10.006   6.760
   19POPC   C3B  540   1.672  10.008   6.387
   19POPC   C4B  541   1.960   9.968   6.101
   20POPC   NC3  542   0.467   6.717   8.218
   20POPC   PO4  543   0.777   6.081   8.165
   20POPC   GL1  544   0.659   6.282   7.761
   20POPC   GL2  545   0.344   6.473   7.746
   20POPC   C1A  546   0.630   6.402   7.307
   20POPC   D2A  547   0.472   6.604   6.931
   20POPC   C3A  548   0.659   6.520   6.536
   20POPC   C4A  549   0.445   6.267   6.243
   20POPC   C1B  550   0.147   6.629   7.351
   20POPC   C2B  551  -0.003   6.805   6.955
   20POPC   C3B  552   0.101   6.688   6.570
   20POPC   C4B  553   0.303   6.773   6.202
   21POPC   NC3  554   2.467   2.088   8.029
   21POPC   PO4  555   2.509   1.417   8.083
   21POPC   GL1  556   2.669   1.640   7.730
   21POPC   GL2  557   2.757   1.986   7.603
   21POPC   C1A  558   2.623   1.589   7.317
   21POPC   D2A  559   2.813   1.778   6.991
   21POPC   C3A  560   2.615   1.729   6.618
   21POPC   C4A  561   2.542   1.527   6.248
   21POPC   C1B  562   2.483   2.076   7.274
   21POPC   C2B  563   2.349   2.186   6.850
   21POPC   C3B  564   2.438   2.195   6.420
   21POPC   C4B  565   2.831   2.067   6.289
   22POPC   NC3  566   9.252  10.418   8.130
   22POPC   PO4  567   9.276   9.857   7.873
   22POPC   GL1  568   9.375  10.256   7.654
   22POPC   GL2  569   9.712  10.270   7.553
   22POPC   C1A  570   9.393  10.432   7.211
   22POPC   D2A  571   9.548  10.388   6.813
   22POPC   C3A  572   9.173  10.384   6.548
   22POPC   C4A  573   9.017   0.065   6.157
   22POPC   C1B  574   9.609   9.961   7.274
   22POPC   C2B  575   9.664   9.849   6.865
   22POPC   C3B  576   9.507   9.972   6.536
   22POPC   C4B  577   9.679  10.326   6.288
   23POPC   NC3  578   9.636   8.516   8.033
   23POPC   PO4  579   9.131   8.250   7.724
   23POPC   GL1  580   9.441   8.535   7.563
   23POPC   GL2  581   9.394   8.870   7.706
   23POPC   C1A  582   9.694   8.541   7.199
   23POPC   D2A  583   9.554   8.467   6.835
   23POPC   C3A  584   9.810   8.443   6.535
   23POPC   C4A  585   9.671   8.382   6.165
   23POPC   C1B  586   9.602   9.007   7.350
   23POPC   C2B  587   9.484   8.981   6.934
   23POPC   C3B  588   9.633   8.927   6.514
   23POPC   C4B  589   9.358   8.793   6.189
   24POPC   NC3  590   5.488   2.144   8.250
   24POPC   PO4  591   6.030   2.279   7.772
   24POPC   GL1  592   5.681   2.411   7.554
   24POPC   GL2  593   5.619   2.768   7.605
   24POPC   C1A  594   5.717   2.480   7.125
   24POPC   D2A  595   5.714   2.311   6.756
   24POPC   C3A  596   5.757   2.525   6.393
   24POPC   C4A  597   5.565   2.745   6.022
   24POPC   C1B  598   5.614   2.976   7.182
   24POPC   C2B  599   5.522   2.806   6.760
   24POPC   C3B  600   5.747   3.045   6.415
   24POPC   C4B  601   6.006   3.106   6.056
   25POPC   NC3  602   7.428   4.171   8.107
   25POPC   PO4  603   7.048   3.757   7.852
   25POPC   GL1  604   7.300   3.925   7.553
   25POPC   GL2  605   7.198   4.240   7.628
   25POPC   C1A  606   7.469   4.243   7.213
   25POPC   D2A  607   7.492   4.420   6.781
   25POPC   C3A  608   7.418   4.118   6.437
   25POPC   C4A  609   7.202   4.076   6.022
   25POPC   C1B  610   6.975   4.071   7.204
   25POPC   C2B  611   7.028   4.143   6.761
   25POPC   C3B  612   6.804   4.152   6.362
   25POPC   C4B  613   6.797   4.463   6.047
   26POPC   NC3  614   2.648   9.936   8.007
   26POPC   PO4  615   3.128   0.019   8.165
   26POPC   GL1  616   3.067  10.358   7.762
   26POPC   GL2  617   2.711  10.370   7.742
   26POPC   C1A  618   3.005  10.267   7.309
   26POPC   D2A  619   3.152  10.251   6.876
   26POPC   C3A  620   2.840  10.313   6.562
   26POPC   C4A  621   2.745  10.109   6.153
   26POPC   C1B  622   2.485  10.233   7.355
   26POPC   C2B  623   2.518  10.089   6.915
   26POPC   C3B  624   2.376  10.139   6.488
   26POPC   C4B  625   2.343   9.767   6.325
   27POPC   NC3  626   1.099   0.252   8.157
   27POPC   PO4  627   0.975   0.961   8.059
   27POPC   GL1  628   1.137   0.625   7.755
   27POPC   GL2  629   1.205   0.277   7.677
   27POPC   C1A  630   0.984   0.525   7.321
   27POPC   D2A  631   1.121   0.508   6.892
   27POPC   C3A  632   0.921   0.313   6.509
   27POPC   C4A  633   0.839   0.517   6.094
   27POPC   C1B  634   1.464   0.283   7.300
   27POPC   C2B  635   1.467   0.157   6.902
   27POPC   C3B  636   1.425   0.316   6.517
   27POPC   C4B  637   1.367   0.437   6.116
   28POPC   NC3  638   4.398  10.348   8.055
   28POPC   PO4  639   3.875   9.972   8.096
   28POPC   GL1  640   3.991  10.030   7.668
   28POPC   GL2  641   4.126  10.345   7.616
   28POPC   C1A  642   3.893  10.060   7.211
   28POPC   D2A  643   3.996   9.975   6.769
   28POPC   C3A  644   4.160   9.899   6.354
   28POPC   C4A  645   4.111  10.004   5.907
   28POPC   C1B  646   4.384  10.176   7.299
   28POPC   C2B  647   4.493  10.214   6.858
   28POPC   C3B  648   4.258  10.383   6.534
   28POPC   C4B  649   4.346  10.395   6.131
   29POPC   NC3  650   8.505   1.817   8.003
   29POPC   PO4  651   8.294   2.461   7.887
   29POPC   GL1  652   8.513   2.178   7.601
   29POPC   GL2  653   8.578   1.883   7.527
   29POPC   C1A  654   8.388   2.216   7.158
   29POPC   D2A  655   8.349   2.296   6.738
   29POPC   C3A  656   8.485   2.000   6.438
   29POPC   C4A  657   8.517   1.973   5.975
   29POPC   C1B  658   8.781   1.885   7.195
   29POPC   C2B  659   8.819   2.044   6.824
   29POPC   C3B  660   8.951   1.804   6.469
   29POPC   C4B  661   8.997   2.144   6.245
   30POPC   NC3  662   3.374   4.237   7.950
   30POPC   PO4  663   3.786   3.734   8.114
   30POPC   GL1  664   3.680   3.848   7.623
   30POPC   GL2  665   3.392   4.061   7.462
   30POPC   C1A  666   3.709   3.856   7.133
   30POPC   D2A  667   3.446   4.113   6.832
   30POPC   C3A  668   3.634   4.154   6.408
   30POPC   C4A  669   3.761   3.978   6.014
   30POPC   C1B  670   3.192   4.428   7.270
   30POPC   C2B  671   3.173   4.624   6.851
   30POPC   C3B  672   3.179   4.386   6.473
   30POPC   C4B  673   3.378   4.485   6.079
   31POPC   NC3  674   3.704   1.281   8.437
   31POPC   PO4  675   4.263   1.468   8.135
   31POPC   GL1  676   4.127   1.340   7.747
   31POPC   GL2  677   4.286   0.996   7.709
   31POPC   C1A  678   3.894   1.148   7.408
   31POPC   D2A  679   3.923   0.835   7.066
   31POPC   C3A  680   3.879   0.990   6.635
   31POPC   C4A  681   3.945   1.243   6.255
   31POPC   C1B  682   4.389   1.180   7.311
   31POPC   C2B  683   4.435   1.009   6.922
   31POPC   C3B  684   4.371   1.119   6.529
   31POPC   C4B  685   4.296   0.874   6.228
   32POPC   NC3  686   2.029   9.144   8.180
   32POPC   PO4  687   2.283   8.543   8.164
   32POPC   GL1  688   1.902   8.637   7.870
   32POPC   GL2  689   1.639   8.910   7.912
   32POPC   C1A  690   1.805   8.545   7.407
   32POPC   D2A  691   2.008   8.383   7.021
   32POPC   C3A  692   1.966   8.576   6.643
   32POPC   C4A  693   2.283   8.817   6.429
   32POPC   C1B  694   1.577   9.002   7.464
   32POPC   C2B  695   1.645   8.866   7.020
   32POPC   C3B  696   1.493   8.789   6.590
   32POPC   C4B  697   1.734   8.704   6.203
   33POPC   NC3  698   0.195   5.029   8.093
   33POPC   PO4  699   0.710   5.409   8.170
   33POPC   GL1  700   0.622   5.234   7.739
   33POPC   GL2  701   0.403   4.936   7.653
   33POPC   C1A  702   0.748   5.126   7.303
   33POPC   D2A  703   0.570   5.167   6.889
   33POPC   C3A  704   0.762   5.044   6.495
   33POPC   C4A  705   0.632   4.989   6.062
   33POPC   C1B  706   0.261   4.927   7.242
   33POPC   C2B  707   0.107   4.980   6.839
   33POPC   C3B  708   0.230   4.975   6.396
   33POPC   C4B  709   0.265   4.614   6.079
   34POPC   NC3  710   9.911   4.926   8.034
   34POPC   PO4  711  10.499   4.625   8.007
   34POPC   GL1  712  10.250   4.710   7.705
   34POPC   GL2  713  10.290   5.056   7.710
   34POPC   C1A  714  10.299   4.679   7.288
   34POPC   D2A  715  10.122   4.875   6.953
   34POPC   C3A  716  10.237   4.785   6.538
   34POPC   C4A  717  10.312   4.858   6.111
   34POPC   C1B  718  10.345   5.208   7.306
   34POPC   C2B  719  10.235   5.386   6.936
   34POPC   C3B  720  10.410   5.364   6.562
   34POPC   C4B  721  10.099   5.260   6.319
   35POPC   NC3  722   7.859   0.775   8.066
   35POPC   PO4  723   8.093   0.223   7.978
   35POPC   GL1  724   8.146   0.494   7.618
   35POPC   GL2  725   7.795   0.641   7.562
   35POPC   C1A  726   8.110   0.479   7.151
   35POPC   D2A  727   8.233   0.728   6.806
   35POPC   C3A  728   8.052   0.646   6.400
   35POPC   C4A  729   8.304   0.625   6.023
   35POPC   C1B  730   7.763   0.198   7.396
   35POPC   C2B  731   7.775  10.476   6.995
   35POPC   C3B  732   7.692   0.007   6.566
   35POPC   C4B  733   7.747   0.280   6.183
   36POPC   NC3  734   8.055   5.851   8.632
   36POPC   PO4  735   8.019   5.428   8.154
   36POPC   GL1  736   8.076   5.460   7.714
   36POPC   GL2  737   8.064   5.830   7.740
   36POPC   C1A  738   7.948   5.510   7.276
   36POPC   D2A  739   7.660   5.313   6.941
   36POPC   C3A  740   7.778   5.345   6.499
   36POPC   C4A  741   8.110   5.576   6.362
   36POPC   C1B  742   8.077   6.012   7.340
   36POPC   C2B  743   7.809   5.904   6.974
   36POPC   C3B  744   7.883   5.992   6.551
   36POPC   C4B  745   7.743   5.947   6.140
   37POPC   NC3  746   8.556   0.340   8.132
   37POPC   PO4  747   9.094   0.784   8.012
   37POPC   GL1  748   8.724   0.663   7.734
   37POPC   GL2  749   8.666   0.302   7.654
   37POPC   C1A  750   8.593   0.609   7.281
   37POPC   D2A  751   8.770   0.519   6.883
   37POPC   C3A  752   8.582   0.523   6.474
   37POPC   C4A  753   8.805   0.555   6.091
   37POPC   C1B  754   8.424   0.060   7.394
   37POPC   C2B  755   8.301  10.496   6.977
   37POPC   C3B  756   8.155   0.222   6.658
   37POPC   C4B  757   8.237   0.191   6.241
   38POPC   NC3  758   3.066   7.133   7.857
   38POPC   PO4  759   2.509   6.985   8.109
   38POPC   GL1  760   2.625   6.925   7.679
   38POPC   GL2  761   2.604   7.292   7.671
   38POPC   C1A  762   2.768   6.887   7.233
   38POPC   D2A  763   2.635   6.829   6.796
   38POPC   C3A  764   2.863   6.922   6.419
   38POPC   C4A  765   2.880   7.208   6.077
   38POPC   C1B  766   2.725   7.389   7.267
   38POPC   C2B  767   2.585   7.457   6.872
   38POPC   C3B  768   2.475   7.251   6.513
   38POPC   C4B  769   2.486   7.520   6.192
   39POPC   NC3  770   4.794   8.662   7.963
   39POPC   PO4  771   5.492   8.663   8.010
   39POPC   GL1  772   5.236   8.880   7.691
   39POPC   GL2  773   5.131   8.561   7.546
   39POPC   C1A  774   4.981   8.991   7.305
   39POPC   D2A  775   5.025   8.766   6.903
   39POPC   C3A  776   5.017   8.998   6.523
   39POPC   C4A  777   5.223   9.058   6.131
   39POPC   C1B  778   4.744   8.528   7.261
   39POPC   C2B  779   4.607   8.535   6.777
   39POPC   C3B  780   4.832   8.528   6.389
   39POPC   C4B  781   4.728   8.421   5.939
   40POPC   NC3  782   5.821   1.901   7.896
   40POPC   PO4  783   5.218   1.765   8.138
   40POPC   GL1  784   5.350   2.058   7.766
   40POPC   GL2  785   5.462   1.792   7.563
   40POPC   C1A  786   5.330   2.154   7.270
   40POPC   D2A  787   5.435   1.891   6.904
   40POPC   C3A  788   5.418   2.032   6.470
   40POPC   C4A  789   5.508   1.735   6.159
   40POPC   C1B  790   5.819   1.980   7.237
   40POPC   C2B  791   6.112   2.023   6.837
   40POPC   C3B  792   5.936   1.995   6.389
   40POPC   C4B  793   5.695   2.179   6.029
   41POPC   NC3  794   0.473   2.107   8.058
   41POPC   PO4  795   0.474   1.476   8.082
   41POPC   GL1  796   0.470   1.735   7.675
   41POPC   GL2  797   0.676   2.051   7.594
   41POPC   C1A  798   0.540   1.768   7.214
   41POPC   D2A  799   0.737   2.014   6.949
   41POPC   C3A  800   0.553   2.056   6.587
   41POPC   C4A  801   0.667   1.841   6.234
   41POPC   C1B  802   0.303   2.200   7.333
   41POPC   C2B  803   0.151   2.459   6.959
   41POPC   C3B  804  -0.000   2.339   6.547
   41POPC   C4B  805   0.170   2.057   6.246
   42POPC   NC3  806   5.989   0.999   7.937
   42POPC   PO4  807   6.557   0.687   8.100
   42POPC   GL1  808   6.493   0.984   7.766
   42POPC   GL2  809   6.351   1.337   7.771
   42POPC   C1A  810   6.338   0.944   7.349
   42POPC   D2A  811   6.203   1.224   7.044
   42POPC   C3A  812   6.089   1.100   6.623
   42POPC   C4A  813   6.315   1.110   6.221
   42POPC   C1B  814   6.616   1.392   7.401
   42POPC   C2B  815   6.808   1.253   7.040
   42POPC   C3B  816   6.598   1.227   6.673
   42POPC   C4B  817   6.675   1.476   6.306
   43POPC   NC3  818   1.479   1.942   8.097
   43POPC   PO4  819   1.469   2.622   8.211
   43POPC   GL1  820   1.455   2.380   7.767
   43POPC   GL2  821   1.244   2.060   7.667
   43POPC   C1A  822   1.490   2.222   7.276
   43POPC   D2A  823   1.518   1.945   6.848
   43POPC   C3A  824   1.449   2.203   6.457
   43POPC   C4A  825   1.470   2.155   5.984
   43POPC   C1B  826   1.056   1.796   7.357
   43POPC   C2B  827   1.118   1.659   6.959
   43POPC   C3B  828   1.069   1.863   6.567
   43POPC   C4B  829   1.341   1.726   6.237
   44POPC   NC3  830   2.599   4.060   8.011
   44POPC   PO4  831   3.198   3.826   7.857
   44POPC   GL1  832   2.894   3.854   7.596
   44POPC   GL2  833   2.839   4.204   7.578
   44POPC   C1A  834   2.993   3.910   7.185
   44POPC   D2A  835   2.890   4.212   6.915
   44POPC   C3A  836   2.781   4.069   6.558
   44POPC   C4A  837   2.833   4.177   6.132
   44POPC   C1B  838   2.508   4.057   7.244
   44POPC   C2B  839   2.365   4.258   6.830
   44POPC   C3B  840   2.352   4.283   6.363
   44POPC   C4B  841   2.472   4.483   5.972
   45POPC   NC3  842   8.424   7.960   8.121
   45POPC   PO4  843   9.020   8.119   8.278
   45POPC   GL1  844   8.820   7.884   7.836
   45POPC   GL2  845   8.547   8.039   7.643
   45POPC   C1A  846   8.971   7.719   7.391
   45POPC   D2A  847   9.053   7.912   6.996
   45POPC   C3A  848   8.971   7.825   6.573
   45POPC   C4A  849   8.959   7.529   6.239
   45POPC   C1B  850   8.626   8.137   7.234
   45POPC   C2B  851   8.579   8.030   6.841
   45POPC   C3B  852   8.608   8.204   6.472
   45POPC   C4B  853   8.708   7.978   6.164
   46POPC   NC3  854   9.948  10.216   7.983
   46POPC   PO4  855  10.497   0.072   8.168
   46POPC   GL1  856  10.500  10.400   7.773
   46POPC   GL2  857  10.392  10.045   7.753
   46POPC   C1A  858  10.350  10.452   7.375
   46POPC   D2A  859  10.392   0.110   6.963
   46POPC   C3A  860  10.265   0.005   6.562
   46POPC   C4A  861  10.317  10.373   6.112
   46POPC   C1B  862  10.118   9.993   7.379
   46POPC   C2B  863  10.000  10.219   7.008
   46POPC   C3B  864  10.023  10.070   6.586
   46POPC   C4B  865  10.081   9.947   6.195
   47POPC   NC3  866   0.982   4.413   8.053
   47POPC   PO4  867   1.499   4.410   8.472
   47POPC   GL1  868   1.422   4.174   7.939
   47POPC   GL2  869   1.143   3.992   7.761
   47POPC   C1A  870   1.410   4.267   7.416
   47POPC   D2A  871   1.389   4.477   6.968
   47POPC   C3A  872   1.386   4.207   6.574
   47POPC   C4A  873   1.482   4.258   6.110
   47POPC   C1B  874   0.918   4.148   7.384
   47POPC   C2B  875   0.886   4.300   6.974
   47POPC   C3B  876   0.839   4.140   6.570
   47POPC   C4B  877   1.023   4.034   6.188
   48POPC   NC3  878   2.222   0.341   8.029
   48POPC   PO4  879   1.520   0.433   8.057
   48POPC   GL1  880   1.745   0.418   7.700
   48POPC   GL2  881   1.591   0.706   7.544
   48POPC   C1A  882   2.000   0.206   7.366
   48POPC   D2A  883   2.158  10.459   7.005
   48POPC   C3A  884   2.311   0.125   6.626
   48POPC   C4A  885   2.168   0.028   6.208
   48POPC   C1B  886   2.036   0.729   7.377
   48POPC   C2B  887   2.198   0.534   7.013
   48POPC   C3B  888   1.901   0.399   6.742
   48POPC   C4B  889   1.870   0.421   6.306
   49POPC   NC3  890   6.927   0.418   7.996
   49POPC   PO4  891   7.414   0.909   7.998
   49POPC   GL1  892   7.271   0.737   7.639
   49POPC   GL2  893   7.332   0.374   7.651
   49POPC   C1A  894   7.388   0.649   7.215
   49POPC   D2A  895   7.342   0.319   6.905
   49POPC   C3A  896   7.541   0.501   6.584
   49POPC   C4A  897   7.560   0.788   6.247
   49POPC   C1B  898   7.000   0.328   7.331
   49POPC   C2B  899   6.842   0.170   6.945
   49POPC   C3B  900   6.912   0.356   6.562
   49POPC   C4B  901   7.209   0.370   6.208
   50POPC   NC3  902   6.942   2.952   8.217
   50POPC   PO4  903   7.667   3.101   8.107
   50POPC   GL1  904   7.463   2.900   7.746
   50POPC   GL2  905   7.292   2.547   7.813
   50POPC   C1A  906   7.487   2.680   7.346
   50POPC   D2A  907   7.161   2.617   7.024
   50POPC   C3A  908   7.130   2.745   6.615
   50POPC   C4A  909   6.903   2.951   6.277
   50POPC   C1B  910   7.221   2.250   7.435
   50POPC   C2B  911   7.363   2.153   6.995
   50POPC   C3B  912   7.481   2.386   6.609
   50POPC   C4B  913   7.313   2.567   6.200
   51POPC   NC3  914   6.948   9.989   8.393
   51POPC   PO4  915   7.370   9.850   7.831
   51POPC   GL1  916   7.191  10.029   7.486
   51POPC   GL2  917   7.143  10.380   7.654
   51POPC   C1A  918   7.021   9.764   7.191
   51POPC   D2A  919   7.192   9.649   6.822
   51POPC   C3A  920   7.069   9.944   6.563
   51POPC   C4A  921   6.922  10.051   6.187
   51POPC   C1B  922   7.331  10.457   7.279
   51POPC   C2B  923   7.181  10.308   6.928
   51POPC   C3B  924   7.185  10.437   6.515
   51POPC   C4B  925   7.407  10.220   6.233
   52POPC   NC3  926  10.269   1.262   8.161
   52POPC   PO4  927   9.850   0.731   8.253
   52POPC   GL1  928  10.057   0.881   7.866
   52POPC   GL2  929  10.069   1.242   7.707
   52POPC   C1A  930  10.103   0.826   7.408
   52POPC   D2A  931  10.182   0.962   6.953
   52POPC   C3A  932   9.942   1.067   6.601
   52POPC   C4A  933  10.095   0.928   6.242
   52POPC   C1B  934  10.240   1.352   7.311
   52POPC   C2B  935  10.176   1.467   6.882
   52POPC   C3B  936  10.402   1.269   6.567
   52POPC   C4B  937   0.024   1.221   6.166
   53POPC   NC3  938   8.754   7.019   8.054
   53POPC   PO4  939   9.101   7.507   8.109
   53POPC   GL1  940   8.755   7.396   7.724
   53POPC   GL2  941   8.651   7.053   7.569
   53POPC   C1A  942   8.520   7.514   7.316
   53POPC   D2A  943   8.748   7.503   6.909
   53POPC   C3A  944   8.505   7.614   6.528
   53POPC   C4A  945   8.490   7.388   6.134
   53POPC   C1B  946   8.293   7.056   7.314
   53POPC   C2B  947   8.323   7.217   6.900
   53POPC   C3B  948   8.541   7.097   6.567
   53POPC   C4B  949   8.727   6.938   6.234
   54POPC   NC3  950   8.806   4.063   8.117
   54POPC   PO4  951   8.469   4.579   8.073
   54POPC   GL1  952   8.536   4.270   7.703
   54POPC   GL2  953   8.842   4.247   7.646
   54POPC   C1A  954   8.509   3.978   7.344
   54POPC   D2A  955   8.422   3.806   6.932
   54POPC   C3A  956   8.474   4.067   6.622
   54POPC   C4A  957   8.478   3.785   6.277
   54POPC   C1B  958   8.920   4.440   7.290
   54POPC   C2B  959   8.766   4.501   6.899
   54POPC   C3B  960   8.900   4.396   6.534
   54POPC   C4B  961   8.713   4.232   6.203
   55POPC   NC3  962   9.430   7.226   8.268
   55POPC   PO4  963   9.064   6.709   8.291
   55POPC   GL1  964   9.205   7.051   7.847
   55POPC   GL2  965   9.491   7.232   7.748
   55POPC   C1A  966   9.120   7.173   7.377
   55POPC   D2A  967   8.923   6.988   6.984
   55POPC   C3A  968   9.050   7.171   6.602
   55POPC   C4A  969   9.208   7.097   6.195
   55POPC   C1B  970   9.638   7.063   7.349
   55POPC   C2B  971   9.466   6.957   6.959
   55POPC   C3B  972   9.553   7.049   6.568
   55POPC   C4B  973   9.801   7.012   6.244
   56POPC   NC3  974  10.142   7.654   8.023
   56POPC   PO4  975  10.448   8.214   8.231
   56POPC   GL1  976  10.440   8.015   7.774
   56POPC   GL2  977  10.138   7.935   7.627
   56POPC   C1A  978  10.442   7.806   7.291
   56POPC   D2A  979   0.068   7.895   6.933
   56POPC   C3A  980  10.290   7.748   6.701
   56POPC   C4A  981  10.382   7.796   6.307
   56POPC   C1B  982   9.947   7.971   7.265
   56POPC   C2B  983   9.985   8.131   6.896
   56POPC   C3B  984   9.883   7.945   6.486
   56POPC   C4B  985   9.765   7.894   6.091
   57POPC   NC3  986   1.596   3.048   8.367
   57POPC   PO4  987   0.924   3.097   8.094
   57POPC   GL1  988   0.949   3.358   7.719
   57POPC   GL2  989   1.301   3.467   7.695
   57POPC   C1A  990   1.032   3.280   7.297
   57POPC   D2A  991   1.271   3.250   6.934
   57POPC   C3A  992   1.045   3.252   6.565
   57POPC   C4A  993   1.176   3.368   6.162
   57POPC   C1B  994   1.244   3.748   7.328
   57POPC   C2B  995   1.102   3.837   6.931
   57POPC   C3B  996   1.225   3.723   6.537
   57POPC   C4B  997   1.521   3.756   6.205
   58POPC   NC3  998  10.203   3.602   8.034
   58POPC   PO4  999   9.840   3.045   8.126
   58POPC   GL1 1000   9.973   3.093   7.697
   58POPC   GL2 1001  10.145   3.396   7.542
   58POPC   C1A 1002   9.999   2.964   7.279
   58POPC   D2A 1003   9.815   3.112   6.893
   58POPC   C3A 1004  10.048   3.075   6.538
   58POPC   C4A 1005   9.994   3.202   6.119
   58POPC   C1B 1006  10.082   3.602   7.156
   58POPC   C2B 1007  10.269   3.437   6.809
   58POPC   C3B 1008  10.307   3.492   6.381
   58POPC   C4B 1009  10.081   3.695   6.044
   59POPC   NC3 1010   7.221   7.824   8.419
   59POPC   PO4 1011   7.186   7.951   7.880
   59POPC   GL1 1012   7.108   7.982   7.536
   59POPC   GL2 1013   7.028   8.328   7.519
   59POPC   C1A 1014   7.120   7.734   7.225
   59POPC   D2A 1015   7.322   7.590   6.889
   59POPC   C3A 1016   7.146   7.679   6.490
   59POPC   C4A 1017   7.292   7.667   6.041
   59POPC   C1B 1018   7.324   8.263   7.199
   59POPC   C2B 1019   7.141   8.089   6.862
   59POPC   C3B 1020   7.181   8.189   6.491
   59POPC   C4B 1021   7.004   8.048   6.134
   60POPC   NC3 1022   2.764   6.600   8.139
   60POPC   PO4 1023   2.964   5.894   7.988
   60POPC   GL1 1024   2.777   6.223   7.691
   60POPC   GL2 1025   2.461   6.409   7.761
   60POPC   C1A 1026   2.852   6.364   7.228
   60POPC   D2A 1027   3.152   6.281   6.843
   60POPC   C3A 1028   3.009   6.406   6.404
   60POPC   C4A 1029   3.030   6.143   5.985
   60POPC   C1B 1030   2.301   6.314   7.341
   60POPC   C2B 1031   2.265   6.203   6.901
   60POPC   C3B 1032   2.440   6.409   6.518
   60POPC   C4B 1033   2.575   6.363   6.099
   61POPC   NC3 1034   8.119   4.266   7.973
   61POPC   PO4 1035   7.731   3.808   8.224
   61POPC   GL1 1036   7.751   3.872   7.777
   61POPC   GL2 1037   7.769   4.148   7.609
   61POPC   C1A 1038   7.711   3.743   7.317
   61POPC   D2A 1039   7.667   3.934   6.880
   61POPC   C3A 1040   7.982   3.911   6.540
   61POPC   C4A 1041   8.165   4.158   6.214
   61POPC   C1B 1042   8.015   4.174   7.223
   61POPC   C2B 1043   8.012   4.340   6.787
   61POPC   C3B 1044   7.813   4.466   6.381
   61POPC   C4B 1045   7.475   4.509   6.076
   62POPC   NC3 1046   0.182   0.414   7.928
   62POPC   PO4 1047   0.691   0.053   8.076
   62POPC   GL1 1048   0.646   0.257   7.657
   62POPC   GL2 1049   0.634   0.612   7.792
   62POPC   C1A 1050   0.390   0.130   7.238
   62POPC   D2A 1051   0.334   0.171   6.736
   62POPC   C3A 1052   0.265  10.454   6.331
   62POPC   C4A 1053   0.585   0.065   6.032
   62POPC   C1B 1054   0.482   0.656   7.369
   62POPC   C2B 1055   0.612   0.534   6.973
   62POPC   C3B 1056   0.552   0.643   6.580
   62POPC   C4B 1057   0.342   0.438   6.278
   63POPC   NC3 1058   0.170   4.410   8.392
   63POPC   PO4 1059   0.349   3.888   8.041
   63POPC   GL1 1060   0.577   4.073   7.738
   63POPC   GL2 1061   0.535   4.409   7.722
   63POPC   C1A 1062   0.412   4.090   7.288
   63POPC   D2A 1063   0.473   3.927   6.883
   63POPC   C3A 1064   0.321   4.074   6.487
   63POPC   C4A 1065   0.515   4.049   6.086
   63POPC   C1B 1066   0.611   4.572   7.332
   63POPC   C2B 1067   0.413   4.508   6.941
   63POPC   C3B 1068   0.533   4.574   6.535
   63POPC   C4B 1069   0.747   4.477   6.169
   64POPC   NC3 1070   3.948   0.741   8.038
   64POPC   PO4 1071   3.970   0.074   8.054
   64POPC   GL1 1072   3.918   0.309   7.724
   64POPC   GL2 1073   4.267   0.418   7.714
   64POPC   C1A 1074   3.933   0.196   7.308
   64POPC   D2A 1075   3.744   0.347   6.943
   64POPC   C3A 1076   3.857   0.248   6.523
   64POPC   C4A 1077   3.881   0.599   6.283
   64POPC   C1B 1078   4.452   0.182   7.354
   64POPC   C2B 1079   4.273   0.206   6.938
   64POPC   C3B 1080   4.203   0.571   6.690
   64POPC   C4B 1081   4.358   0.366   6.323
   65POPC   NC3 1082   5.009   9.600   8.237
   65POPC   PO4 1083   4.647   9.078   8.115
   65POPC   GL1 1084   4.989   9.341   7.790
   65POPC   GL2 1085   5.065   9.738   7.752
   65POPC   C1A 1086   5.171   9.472   7.355
   65POPC   D2A 1087   4.899   9.479   7.028
   65POPC   C3A 1088   5.075   9.489   6.683
   65POPC   C4A 1089   5.220   9.500   6.339
   65POPC   C1B 1090   4.687   9.645   7.466
   65POPC   C2B 1091   4.449   9.738   7.056
   65POPC   C3B 1092   4.543   9.623   6.631
   65POPC   C4B 1093   4.729   9.361   6.310
   66POPC   NC3 1094   2.720   5.049   8.096
   66POPC   PO4 1095   3.000   4.485   8.040
   66POPC   GL1 1096   2.821   4.723   7.706
   66POPC   GL2 1097   2.458   4.744   7.759
   66POPC   C1A 1098   2.714   5.023   7.368
   66POPC   D2A 1099   2.786   5.356   7.084
   66POPC   C3A 1100   2.887   5.114   6.716
   66POPC   C4A 1101   2.861   5.184   6.291
   66POPC   C1B 1102   2.523   4.544   7.345
   66POPC   C2B 1103   2.657   4.684   6.954
   66POPC   C3B 1104   2.597   4.727   6.519
   66POPC   C4B 1105   2.878   4.682   6.196
   67POPC   NC3 1106   8.832   8.458   8.004
   67POPC   PO4 1107   9.017   9.095   8.058
   67POPC   GL1 1108   8.896   8.846   7.653
   67POPC   GL2 1109   8.726   8.531   7.536
   67POPC   C1A 1110   9.099   8.782   7.264
   67POPC   D2A 1111   9.067   8.419   7.022
   67POPC   C3A 1112   9.097   8.532   6.595
   67POPC   C4A 1113   9.026   8.381   6.207
   67POPC   C1B 1114   8.568   8.705   7.211
   67POPC   C2B 1115   8.613   8.600   6.798
   67POPC   C3B 1116   8.646   8.703   6.352
   67POPC   C4B 1117   8.500   8.428   5.992
   68POPC   NC3 1118   5.258   0.532   7.895
   68POPC   PO4 1119   4.965  10.481   8.092
   68POPC   GL1 1120   4.818   0.231   7.725
   68POPC   GL2 1121   4.756   0.601   7.759
   68POPC   C1A 1122   4.982   0.351   7.305
   68POPC   D2A 1123   5.179   0.521   6.939
   68POPC   C3A 1124   5.058   0.390   6.609
   68POPC   C4A 1125   5.098   0.352   6.208
   68POPC   C1B 1126   4.574   0.683   7.349
   68POPC   C2B 1127   4.663   0.535   6.937
   68POPC   C3B 1128   4.668   0.706   6.540
   68POPC   C4B 1129   4.734   0.672   6.100
   69POPC   NC3 1130   9.347   5.439   7.937
   69POPC   PO4 1131   9.745   5.990   8.156
   69POPC   GL1 1132   9.722   5.813   7.755
   69POPC   GL2 1133   9.381   5.813   7.600
   69POPC   C1A 1134   9.786   5.947   7.332
   69POPC   D2A 1135   9.476   5.901   7.012
   69POPC   C3A 1136   9.604   5.944   6.614
   69POPC   C4A 1137   9.465   5.973   6.226
   69POPC   C1B 1138   9.367   5.475   7.281
   69POPC   C2B 1139   9.215   5.390   6.880
   69POPC   C3B 1140   9.186   5.585   6.508
   69POPC   C4B 1141   9.182   5.337   6.167
   70POPC   NC3 1142   4.312   2.801   7.994
   70POPC   PO4 1143   3.834   2.360   7.994
   70POPC   GL1 1144   4.059   2.544   7.624
   70POPC   GL2 1145   3.980   2.871   7.576
   70POPC   C1A 1146   4.331   2.537   7.224
   70POPC   D2A 1147   4.453   2.788   6.831
   70POPC   C3A 1148   4.251   2.752   6.448
   70POPC   C4A 1149   4.109   2.530   6.094
   70POPC   C1B 1150   3.838   2.695   7.181
   70POPC   C2B 1151   3.825   2.714   6.727
   70POPC   C3B 1152   3.765   2.864   6.333
   70POPC   C4B 1153   3.705   2.745   5.901
   71POPC   NC3 1154   6.988   6.898   8.439
   71POPC   PO4 1155   7.531   6.801   8.066
   71POPC   GL1 1156   7.520   6.664   7.674
   71POPC   GL2 1157   7.287   6.418   7.647
   71POPC   C1A 1158   7.323   6.795   7.279
   71POPC   D2A 1159   7.103   6.777   6.914
   71POPC   C3A 1160   7.253   6.766   6.513
   71POPC   C4A 1161   7.078   6.498   6.207
   71POPC   C1B 1162   7.147   6.327   7.202
   71POPC   C2B 1163   7.179   6.127   6.797
   71POPC   C3B 1164   6.976   6.050   6.412
   71POPC   C4B 1165   7.234   6.026   6.036
   72POPC   NC3 1166   1.046   5.704   8.077
   72POPC   PO4 1167   1.482   6.161   8.056
   72POPC   GL1 1168   1.526   5.840   7.710
   72POPC   GL2 1169   1.316   5.545   7.688
   72POPC   C1A 1170   1.557   5.685   7.275
   72POPC   D2A 1171   1.346   5.806   6.917
   72POPC   C3A 1172   1.530   5.924   6.527
   72POPC   C4A 1173   1.321   5.780   6.179
   72POPC   C1B 1174   1.044   5.570   7.338
   72POPC   C2B 1175   1.063   5.359   6.945
   72POPC   C3B 1176   1.097   5.528   6.552
   72POPC   C4B 1177   0.927   5.406   6.163
   73POPC   NC3 1178   3.567  10.319   8.101
   73POPC   PO4 1179   3.099   9.866   7.941
   73POPC   GL1 1180   3.456   9.986   7.678
   73POPC   GL2 1181   3.584  10.341   7.603
   73POPC   C1A 1182   3.400   9.949   7.251
   73POPC   D2A 1183   3.497   9.689   6.926
   73POPC   C3A 1184   3.477   9.923   6.613
   73POPC   C4A 1185   3.183  10.008   6.366
   73POPC   C1B 1186   3.510  10.442   7.197
   73POPC   C2B 1187   3.664  10.365   6.795
   73POPC   C3B 1188   3.781  10.268   6.357
   73POPC   C4B 1189   3.648   9.932   6.126
   74POPC   NC3 1190   0.261   8.437   7.966
   74POPC   PO4 1191   0.817   8.777   8.071
   74POPC   GL1 1192   0.705   8.599   7.724
   74POPC   GL2 1193   0.482   8.829   7.634
   74POPC   C1A 1194   0.718   8.503   7.298
   74POPC   D2A 1195   0.621   8.764   6.949
   74POPC   C3A 1196   0.752   8.574   6.600
   74POPC   C4A 1197   0.604   8.582   6.219
   74POPC   C1B 1198   0.212   8.697   7.308
   74POPC   C2B 1199   0.112   8.830   6.921
   74POPC   C3B 1200   0.220   8.625   6.558
   74POPC   C4B 1201   0.070   8.527   6.158
   75POPC   NC3 1202   1.094   6.437   8.045
   75POPC   PO4 1203   0.920   6.970   8.228
   75POPC   GL1 1204   1.123   6.895   7.744
   75POPC   GL2 1205   1.035   6.585   7.572
   75POPC   C1A 1206   1.424   6.735   7.319
   75POPC   D2A 1207   1.219   6.549   6.931
   75POPC   C3A 1208   1.409   6.552   6.490
   75POPC   C4A 1209   1.305   6.522   6.015
   75POPC   C1B 1210   1.104   6.168   7.394
   75POPC   C2B 1211   0.933   6.096   6.994
   75POPC   C3B 1212   1.066   6.138   6.575
   75POPC   C4B 1213   0.986   6.164   6.153
   76POPC   NC3 1214   0.078   4.209   7.831
   76POPC   PO4 1215  10.052   4.472   8.197
   76POPC   GL1 1216  10.065   4.241   7.784
   76POPC   GL2 1217  10.110   3.911   7.641
   76POPC   C1A 1218   9.939   4.288   7.342
   76POPC   D2A 1219  10.132   4.344   6.931
   76POPC   C3A 1220   9.901   4.388   6.576
   76POPC   C4A 1221  10.082   4.410   6.188
   76POPC   C1B 1222  10.365   4.020   7.266
   76POPC   C2B 1223  10.447   3.918   6.836
   76POPC   C3B 1224  10.279   4.001   6.432
   76POPC   C4B 1225  10.471   4.032   6.019
   77POPC   NC3 1226   1.825   5.836   8.137
   77POPC   PO4 1227   1.451   5.351   8.137
   77POPC   GL1 1228   1.799   5.407   7.789
   77POPC   GL2 1229   2.056   5.655   7.724
   77POPC   C1A 1230   1.845   5.283   7.381
   77POPC   D2A 1231   1.917   5.339   6.950
   77POPC   C3A 1232   1.634   5.433   6.626
   77POPC   C4A 1233   1.847   5.409   6.215
   77POPC   C1B 1234   2.043   5.867   7.329
   77POPC   C2B 1235   1.863   5.881   6.917
   77POPC   C3B 1236   2.035   5.765   6.530
   77POPC   C4B 1237   2.241   5.998   6.248
   78POPC   NC3 1238   8.443   3.320   7.949
   78POPC   PO4 1239   9.097   3.051   7.978
   78POPC   GL1 1240   8.870   3.356   7.687
   78POPC   GL2 1241   8.857   3.726   7.720
   78POPC   C1A 1242   8.686   3.498   7.285
   78POPC   D2A 1243   8.559   3.281   6.918
   78POPC   C3A 1244   8.724   3.368   6.489
   78POPC   C4A 1245   8.460   3.305   6.106
   78POPC   C1B 1246   9.069   3.883   7.343
   78POPC   C2B 1247   8.901   3.978   6.944
   78POPC   C3B 1248   8.953   3.889   6.516
   78POPC   C4B 1249   8.952   3.673   6.139
   79POPC   NC3 1250   9.858   4.141   8.479
   79POPC   PO4 1251   9.205   4.359   8.153
   79POPC   GL1 1252   9.301   4.111   7.759
   79POPC   GL2 1253   9.597   4.036   7.690
   79POPC   C1A 1254   9.416   4.315   7.328
   79POPC   D2A 1255   9.261   4.327   6.917
   79POPC   C3A 1256   9.408   4.487   6.541
   79POPC   C4A 1257   9.247   4.242   6.188
   79POPC   C1B 1258   9.654   3.855   7.334
   79POPC   C2B 1259   9.695   4.043   6.946
   79POPC   C3B 1260   9.484   3.970   6.576
   79POPC   C4B 1261   9.745   4.025   6.240
   80POPC   NC3 1262   6.277   6.681   7.771
   80POPC   PO4 1263   6.712   7.101   8.110
   80POPC   GL1 1264   6.678   7.060   7.649
   80POPC   GL2 1265   6.417   7.296   7.627
   80POPC   C1A 1266   6.703   6.809   7.242
   80POPC   D2A 1267   6.628   6.894   6.795
   80POPC   C3A 1268   6.599   6.629   6.424
   80POPC   C4A 1269   6.291   6.640   6.091
   80POPC   C1B 1270   6.520   7.372   7.200
   80POPC   C2B 1271   6.294   7.267   6.837
   80POPC   C3B 1272   6.277   7.059   6.447
   80POPC   C4B 1273   6.066   7.358   6.232
   81POPC   NC3 1274   0.616   1.112   8.325
   81POPC   PO4 1275   0.011   0.783   8.149
   81POPC   GL1 1276   0.044   0.925   7.712
   81POPC   GL2 1277   0.097   1.289   7.745
   81POPC   C1A 1278   0.082   0.948   7.252
   81POPC   D2A 1279   0.445   1.020   6.971
   81POPC   C3A 1280   0.415   1.118   6.545
   81POPC   C4A 1281   0.413   0.907   6.154
   81POPC   C1B 1282   0.310   1.359   7.365
   81POPC   C2B 1283   0.193   1.488   6.930
   81POPC   C3B 1284   0.303   1.583   6.450
   81POPC   C4B 1285   0.541   1.375   6.079
   82POPC   NC3 1286   9.310   6.241   8.140
   82POPC   PO4 1287   8.911   6.662   7.795
   82POPC   GL1 1288   9.039   6.254   7.701
   82POPC   GL2 1289   9.414   6.322   7.652
   82POPC   C1A 1290   9.108   6.127   7.293
   82POPC   D2A 1291   8.945   6.362   6.945
   82POPC   C3A 1292   9.142   6.258   6.546
   82POPC   C4A 1293   9.184   6.663   6.419
   82POPC   C1B 1294   9.324   6.586   7.283
   82POPC   C2B 1295   9.483   6.436   6.888
   82POPC   C3B 1296   9.640   6.435   6.472
   82POPC   C4B 1297   9.941   6.184   6.269
   83POPC   NC3 1298   9.514   0.585   7.944
   83POPC   PO4 1299   9.009   0.285   8.252
   83POPC   GL1 1300   9.154   0.273   7.766
   83POPC   GL2 1301   9.492   0.255   7.574
   83POPC   C1A 1302   9.105   0.460   7.321
   83POPC   D2A 1303   9.326   0.354   6.914
   83POPC   C3A 1304   9.130   0.444   6.520
   83POPC   C4A 1305   9.016   0.848   6.430
   83POPC   C1B 1306   9.625   0.607   7.297
   83POPC   C2B 1307   9.665   0.749   6.877
   83POPC   C3B 1308   9.609   0.671   6.432
   83POPC   C4B 1309   9.482   0.299   6.173
   84POPC   NC3 1310   7.163   7.016   7.865
   84POPC   PO4 1311   7.516   7.458   8.261
   84POPC   GL1 1312   7.347   7.477   7.769
   84POPC   GL2 1313   7.023   7.446   7.630
   84POPC   C1A 1314   7.458   7.355   7.337
   84POPC   D2A 1315   7.516   7.114   6.935
   84POPC   C3A 1316   7.586   7.316   6.554
   84POPC   C4A 1317   7.277   7.222   6.292
   84POPC   C1B 1318   7.004   7.226   7.188
   84POPC   C2B 1319   6.984   7.248   6.724
   84POPC   C3B 1320   6.801   7.075   6.331
   84POPC   C4B 1321   6.770   6.788   5.934
   85POPC   NC3 1322   7.862   1.752   8.191
   85POPC   PO4 1323   8.387   2.061   8.369
   85POPC   GL1 1324   8.086   2.001   7.822
   85POPC   GL2 1325   7.776   1.767   7.692
   85POPC   C1A 1326   8.125   1.816   7.336
   85POPC   D2A 1327   8.221   1.802   6.865
   85POPC   C3A 1328   7.997   1.613   6.489
   85POPC   C4A 1329   8.119   1.558   6.020
   85POPC   C1B 1330   7.718   2.104   7.372
   85POPC   C2B 1331   7.877   2.176   6.968
   85POPC   C3B 1332   7.894   2.107   6.562
   85POPC   C4B 1333   8.045   2.032   6.199
   86POPC   NC3 1334   6.999   9.192   8.147
   86POPC   PO4 1335   7.354   9.777   8.356
   86POPC   GL1 1336   7.383   9.357   7.891
   86POPC   GL2 1337   7.097   9.409   7.681
   86POPC   C1A 1338   7.441   9.117   7.429
   86POPC   D2A 1339   7.330   8.940   6.991
   86POPC   C3A 1340   7.349   9.180   6.609
   86POPC   C4A 1341   7.476   9.055   6.184
   86POPC   C1B 1342   6.814   9.290   7.325
   86POPC   C2B 1343   6.884   9.226   6.879
   86POPC   C3B 1344   6.912   9.450   6.454
   86POPC   C4B 1345   7.339   9.605   6.301
   87POPC   NC3 1346   6.965   1.086   8.136
   87POPC   PO4 1347   7.463   1.535   8.137
   87POPC   GL1 1348   7.248   1.319   7.739
   87POPC   GL2 1349   6.957   1.165   7.657
   87POPC   C1A 1350   7.285   1.219   7.293
   87POPC   D2A 1351   7.298   1.111   6.889
   87POPC   C3A 1352   7.116   1.369   6.569
   87POPC   C4A 1353   7.160   1.344   6.118
   87POPC   C1B 1354   6.854   0.840   7.362
   87POPC   C2B 1355   6.951   0.700   6.942
   87POPC   C3B 1356   7.117   0.811   6.527
   87POPC   C4B 1357   6.843   1.005   6.299
   88POPC   NC3 1358   2.541   0.946   8.170
   88POPC   PO4 1359   3.170   1.015   8.080
   88POPC   GL1 1360   3.043   1.227   7.678
   88POPC   GL2 1361   2.732   1.118   7.718
   88POPC   C1A 1362   3.073   1.368   7.249
   88POPC   D2A 1363   3.010   1.107   6.937
   88POPC   C3A 1364   2.860   1.241   6.554
   88POPC   C4A 1365   3.027   1.085   6.204
   88POPC   C1B 1366   2.610   1.084   7.295
   88POPC   C2B 1367   2.497   1.289   6.902
   88POPC   C3B 1368   2.327   1.147   6.511
   88POPC   C4B 1369   2.487   1.048   6.103
   89POPC   NC3 1370   0.515   9.140   8.051
   89POPC   PO4 1371   0.472   9.785   7.949
   89POPC   GL1 1372   0.651   9.443   7.684
   89POPC   GL2 1373   0.325   9.326   7.605
   89POPC   C1A 1374   0.650   9.159   7.270
   89POPC   D2A 1375   0.381   9.251   6.874
   89POPC   C3A 1376   0.508   9.042   6.493
   89POPC   C4A 1377   0.527   9.038   6.011
   89POPC   C1B 1378   0.458   9.637   7.279
   89POPC   C2B 1379   0.350   9.767   6.911
   89POPC   C3B 1380   0.472   9.724   6.528
   89POPC   C4B 1381   0.316   9.450   6.256
   90POPC   NC3 1382   5.772   9.023   8.011
   90POPC   PO4 1383   5.463   9.657   8.117
   90POPC   GL1 1384   5.542   9.466   7.729
   90POPC   GL2 1385   5.892   9.474   7.769
   90POPC   C1A 1386   5.593   9.180   7.369
   90POPC   D2A 1387   5.339   9.152   6.969
   90POPC   C3A 1388   5.519   9.128   6.568
   90POPC   C4A 1389   5.725   9.327   6.234
   90POPC   C1B 1390   5.916   9.600   7.352
   90POPC   C2B 1391   5.623   9.575   7.021
   90POPC   C3B 1392   5.647   9.648   6.620
   90POPC   C4B 1393   6.019   9.773   6.336
   91POPC   NC3 1394   3.686   2.811   8.003
   91POPC   PO4 1395   3.063   3.053   8.224
   91POPC   GL1 1396   3.205   2.875   7.799
   91POPC   GL2 1397   3.359   2.494   7.787
   91POPC   C1A 1398   3.182   2.991   7.358
   91POPC   D2A 1399   3.075   2.776   6.987
   91POPC   C3A 1400   3.210   2.883   6.570
   91POPC   C4A 1401   3.334   3.065   6.199
   91POPC   C1B 1402   3.358   2.507   7.352
   91POPC   C2B 1403   3.446   2.455   6.929
   91POPC   C3B 1404   3.477   2.434   6.497
   91POPC   C4B 1405   3.289   2.551   6.137
   92POPC   NC3 1406   1.797   8.173   8.122
   92POPC   PO4 1407   1.685   7.544   8.119
   92POPC   GL1 1408   1.659   7.839   7.734
   92POPC   GL2 1409   1.871   8.106   7.639
   92POPC   C1A 1410   1.734   7.691   7.293
   92POPC   D2A 1411   1.707   7.922   6.920
   92POPC   C3A 1412   1.689   7.760   6.499
   92POPC   C4A 1413   1.670   8.196   6.299
   92POPC   C1B 1414   2.119   7.997   7.325
   92POPC   C2B 1415   2.181   7.774   6.941
   92POPC   C3B 1416   2.101   8.053   6.602
   92POPC   C4B 1417   2.104   7.856   6.224
   93POPC   NC3 1418   7.693   7.786   7.930
   93POPC   PO4 1419   8.089   8.272   8.164
   93POPC   GL1 1420   8.026   8.102   7.712
   93POPC   GL2 1421   7.687   8.179   7.587
   93POPC   C1A 1422   8.142   7.899   7.289
   93POPC   D2A 1423   8.099   8.141   6.907
   93POPC   C3A 1424   8.140   8.009   6.496
   93POPC   C4A 1425   8.057   8.217   6.144
   93POPC   C1B 1426   7.629   7.853   7.267
   93POPC   C2B 1427   7.631   7.980   6.851
   93POPC   C3B 1428   7.623   7.848   6.461
   93POPC   C4B 1429   7.541   8.116   6.159
   94POPC   NC3 1430   0.570   7.567   7.940
   94POPC   PO4 1431   0.445   6.970   7.850
   94POPC   GL1 1432   0.626   6.879   7.529
   94POPC   GL2 1433   0.619   7.236   7.459
   94POPC   C1A 1434   0.836   6.873   7.166
   94POPC   D2A 1435   0.542   7.116   6.964
   94POPC   C3A 1436   0.495   7.027   6.591
   94POPC   C4A 1437   0.705   7.152   6.246
   94POPC   C1B 1438   0.156   7.137   7.312
   94POPC   C2B 1439  10.420   7.354   7.026
   94POPC   C3B 1440   0.195   7.452   6.668
   94POPC   C4B 1441   0.211   7.300   6.253
   95POPC   NC3 1442   2.119   7.362   8.083
   95POPC   PO4 1443   1.553   6.900   8.015
   95POPC   GL1 1444   1.658   7.084   7.625
   95POPC   GL2 1445   1.851   7.371   7.655
   95POPC   C1A 1446   1.702   7.187   7.176
   95POPC   D2A 1447   1.676   6.899   6.847
   95POPC   C3A 1448   1.596   7.056   6.474
   95POPC   C4A 1449   1.673   6.846   6.125
   95POPC   C1B 1450   2.197   7.438   7.370
   95POPC   C2B 1451   2.219   7.167   7.039
   95POPC   C3B 1452   1.989   7.308   6.705
   95POPC   C4B 1453   2.010   7.323   6.268
   96POPC   NC3 1454   4.255   3.538   8.064
   96POPC   PO4 1455   4.643   4.018   7.826
   96POPC   GL1 1456   4.323   3.692   7.586
   96POPC   GL2 1457   4.330   3.291   7.626
   96POPC   C1A 1458   4.175   3.551   7.174
   96POPC   D2A 1459   4.473   3.393   6.846
   96POPC   C3A 1460   4.438   3.659   6.498
   96POPC   C4A 1461   4.148   3.679   6.165
   96POPC   C1B 1462   4.302   3.062   7.249
   96POPC   C2B 1463   4.044   3.118   6.898
   96POPC   C3B 1464   4.051   3.275   6.504
   96POPC   C4B 1465   4.431   3.206   6.297
   97POPC   NC3 1466   5.119   2.916   8.100
   97POPC   PO4 1467   4.568   3.158   8.084
   97POPC   GL1 1468   4.727   2.895   7.688
   97POPC   GL2 1469   5.093   2.782   7.611
   97POPC   C1A 1470   4.775   2.860   7.215
   97POPC   D2A 1471   4.985   2.824   6.784
   97POPC   C3A 1472   4.763   2.779   6.395
   97POPC   C4A 1473   4.538   2.795   6.003
   97POPC   C1B 1474   5.240   2.640   7.201
   97POPC   C2B 1475   5.203   2.364   6.815
   97POPC   C3B 1476   5.255   2.547   6.395
   97POPC   C4B 1477   5.247   2.999   6.356
   98POPC   NC3 1478   1.769   6.515   8.107
   98POPC   PO4 1479   2.197   6.087   8.070
   98POPC   GL1 1480   1.919   6.182   7.723
   98POPC   GL2 1481   1.892   6.543   7.626
   98POPC   C1A 1482   1.652   6.201   7.332
   98POPC   D2A 1483   1.712   6.398   6.934
   98POPC   C3A 1484   1.909   6.304   6.543
   98POPC   C4A 1485   1.702   6.244   6.161
   98POPC   C1B 1486   1.966   6.740   7.252
   98POPC   C2B 1487   2.141   6.697   6.850
   98POPC   C3B 1488   2.097   6.827   6.440
   98POPC   C4B 1489   2.098   6.549   6.084
   99POPC   NC3 1490   1.310   2.905   7.885
   99POPC   PO4 1491   0.922   2.246   8.000
   99POPC   GL1 1492   0.980   2.506   7.657
   99POPC   GL2 1493   0.875   2.843   7.641
   99POPC   C1A 1494   0.974   2.313   7.271
   99POPC   D2A 1495   1.168   2.303   6.883
   99POPC   C3A 1496   0.974   2.382   6.501
   99POPC   C4A 1497   1.108   2.470   6.062
   99POPC   C1B 1498   1.128   2.787   7.242
   99POPC   C2B 1499   1.076   2.794   6.806
   99POPC   C3B 1500   1.263   2.813   6.437
   99POPC   C4B 1501   0.882   2.883   6.237
  100POPC   NC3 1502   8.039  10.292   8.098
  100POPC   PO4 1503   8.293   9.744   8.013
  100POPC   GL1 1504   7.981   9.939   7.709
  100POPC   GL2 1505   7.687  10.214   7.672
  100POPC   C1A 1506   8.064  10.197   7.345
  100POPC   D2A 1507   8.058  10.021   6.920
  100POPC   C3A 1508   8.165  10.218   6.533
  100POPC   C4A 1509   7.917  10.297   6.166
  100POPC   C1B 1510   7.611  10.031   7.225
  100POPC   C2B 1511   7.563  10.029   6.777
  100POPC   C3B 1512   7.766   9.898   6.446
  100POPC   C4B 1513   7.688   9.866   6.019
  101POPC   NC3 1514   2.018   1.375   8.066
  101POPC   PO4 1515   1.929   2.053   8.079
  101POPC   GL1 1516   1.766   1.961   7.669
  101POPC   GL2 1517   1.927   2.281   7.619
  101POPC   C1A 1518   1.723   1.716   7.261
  101POPC   D2A 1519   2.037   1.785   6.891
  101POPC   C3A 1520   2.114   1.717   6.450
  101POPC   C4A 1521   1.839   1.675   6.010
  101POPC   C1B 1522   1.986   2.151   7.238
  101POPC   C2B 1523   1.844   2.304   6.900
  101POPC   C3B 1524   1.950   2.341   6.529
  101POPC   C4B 1525   1.891   2.110   6.241
  102POPC   NC3 1526   0.607   3.487   8.083
  102POPC   PO4 1527   0.002   3.299   7.877
  102POPC   GL1 1528   0.083   3.673   7.646
  102POPC   GL2 1529   0.431   3.600   7.622
  102POPC   C1A 1530   0.149   3.606   7.211
  102POPC   D2A 1531   0.241   3.272   6.973
  102POPC   C3A 1532   0.263   3.495   6.612
  102POPC   C4A 1533   0.260   3.632   6.207
  102POPC   C1B 1534   0.698   3.660   7.289
  102POPC   C2B 1535   0.731   3.498   6.882
  102POPC   C3B 1536   0.722   3.656   6.465
  102POPC   C4B 1537   0.679   3.345   6.194
  103POPC   NC3 1538   0.430  10.188   8.170
  103POPC   PO4 1539   1.160  10.260   8.149
  103POPC   GL1 1540   0.883  10.289   7.704
  103POPC   GL2 1541   0.520  10.252   7.677
  103POPC   C1A 1542   0.780  10.059   7.283
  103POPC   D2A 1543   0.532  10.235   6.931
  103POPC   C3A 1544   0.706  10.343   6.529
  103POPC   C4A 1545   0.633  10.083   6.199
  103POPC   C1B 1546   0.241  10.099   7.372
  103POPC   C2B 1547  10.499  10.113   7.024
  103POPC   C3B 1548   0.071  10.103   6.628
  103POPC   C4B 1549   0.116   9.952   6.229
  104POPC   NC3 1550   7.724   1.270   7.870
  104POPC   PO4 1551   8.278   0.956   8.127
  104POPC   GL1 1552   8.138   1.015   7.674
  104POPC   GL2 1553   7.996   1.336   7.459
  104POPC   C1A 1554   8.264   0.985   7.248
  104POPC   D2A 1555   8.170   1.267   6.884
  104POPC   C3A 1556   8.133   1.135   6.467
  104POPC   C4A 1557   7.984   1.059   6.091
  104POPC   C1B 1558   7.762   1.025   7.200
  104POPC   C2B 1559   7.755   0.939   6.756
  104POPC   C3B 1560   7.610   1.247   6.452
  104POPC   C4B 1561   7.634   1.505   6.089
  105POPC   NC3 1562   6.914   9.980   7.879
  105POPC   PO4 1563   6.292   9.607   8.046
  105POPC   GL1 1564   6.223   9.924   7.716
  105POPC   GL2 1565   6.485  10.193   7.667
  105POPC   C1A 1566   6.074  10.084   7.312
  105POPC   D2A 1567   6.138   9.913   6.898
  105POPC   C3A 1568   6.160  10.239   6.604
  105POPC   C4A 1569   6.305  10.230   6.213
  105POPC   C1B 1570   6.763  10.276   7.313
  105POPC   C2B 1571   6.721  10.087   6.921
  105POPC   C3B 1572   6.692  10.299   6.579
  105POPC   C4B 1573   6.720   0.034   6.235
  106POPC   NC3 1574   4.826   1.943   7.991
  106POPC   PO4 1575   5.137   2.459   8.083
  106POPC   GL1 1576   4.914   2.306   7.650
  106POPC   GL2 1577   4.946   1.942   7.498
  106POPC   C1A 1578   4.829   2.347   7.214
  106POPC   D2A 1579   4.652   2.304   6.833
  106POPC   C3A 1580   4.851   2.266   6.439
  106POPC   C4A 1581   4.702   2.321   6.016
  106POPC   C1B 1582   4.780   1.843   7.107
  106POPC   C2B 1583   4.944   1.867   6.736
  106POPC   C3B 1584   5.033   1.731   6.368
  106POPC   C4B 1585   5.075   1.997   6.073
  107POPC   NC3 1586  10.221   8.533   8.011
  107POPC   PO4 1587   9.743   8.972   8.046
  107POPC   GL1 1588   9.935   8.792   7.669
  107POPC   GL2 1589   9.961   8.436   7.595
  107POPC   C1A 1590  10.162   8.774   7.275
  107POPC   D2A 1591   9.988   8.847   6.902
  107POPC   C3A 1592  10.225   8.727   6.601
  107POPC   C4A 1593  10.073   8.737   6.210
  107POPC   C1B 1594  10.324   8.314   7.358
  107POPC   C2B 1595  10.425   8.375   6.942
  107POPC   C3B 1596  10.318   8.247   6.530
  107POPC   C4B 1597  10.156   8.226   6.132
  108POPC   NC3 1598   1.963   9.879   7.934
  108POPC   PO4 1599   1.606   9.372   8.218
  108POPC   GL1 1600   1.801   9.401   7.771
  108POPC   GL2 1601   2.042   9.136   7.686
  108POPC   C1A 1602   1.951   9.441   7.301
  108POPC   D2A 1603   1.734   9.603   6.943
  108POPC   C3A 1604   1.890   9.578   6.513
  108POPC   C4A 1605   1.641   9.568   6.153
  108POPC   C1B 1606   2.124   8.939   7.316
  108POPC   C2B 1607   2.129   9.073   6.922
  108POPC   C3B 1608   1.877   9.090   6.594
  108POPC   C4B 1609   1.943   9.160   6.186
  109POPC   NC3 1610   0.918   9.858   7.946
  109POPC   PO4 1611   1.528  10.015   7.891
  109POPC   GL1 1612   1.277   9.984   7.604
  109POPC   GL2 1613   1.340  10.319   7.512
  109POPC   C1A 1614   1.283   9.945   7.196
  109POPC   D2A 1615   1.247   9.748   6.856
  109POPC   C3A 1616   0.958   9.904   6.600
  109POPC   C4A 1617   1.177   9.811   6.258
  109POPC   C1B 1618   1.039  10.501   7.258
  109POPC   C2B 1619   1.061  10.320   6.881
  109POPC   C3B 1620   1.234  10.325   6.457
  109POPC   C4B 1621   1.082   0.020   6.080
  110POPC   NC3 1622   7.715   9.645   8.094
  110POPC   PO4 1623   8.104   9.128   8.304
  110POPC   GL1 1624   7.910   9.192   7.864
  110POPC   GL2 1625   8.209   9.332   7.727
  110POPC   C1A 1626   7.817   9.450   7.441
  110POPC   D2A 1627   7.642   9.561   7.033
  110POPC   C3A 1628   7.796   9.436   6.641
  110POPC   C4A 1629   7.829   9.417   6.230
  110POPC   C1B 1630   8.281   9.646   7.373
  110POPC   C2B 1631   8.178   9.527   6.969
  110POPC   C3B 1632   8.292   9.698   6.569
  110POPC   C4B 1633   8.194   9.815   6.161
  111POPC   NC3 1634   9.292   7.896   7.980
  111POPC   PO4 1635   9.925   8.159   8.009
  111POPC   GL1 1636   9.640   8.051   7.664
  111POPC   GL2 1637   9.705   7.692   7.737
  111POPC   C1A 1638   9.466   8.096   7.228
  111POPC   D2A 1639   9.531   7.932   6.857
  111POPC   C3A 1640   9.387   8.108   6.493
  111POPC   C4A 1641   9.243   7.934   6.114
  111POPC   C1B 1642   9.483   7.590   7.354
  111POPC   C2B 1643   9.313   7.455   6.963
  111POPC   C3B 1644   9.397   7.559   6.546
  111POPC   C4B 1645   9.547   7.460   6.195
  112POPC   NC3 1646   8.729   1.118   8.069
  112POPC   PO4 1647   8.139   1.474   7.933
  112POPC   GL1 1648   8.468   1.404   7.669
  112POPC   GL2 1649   8.820   1.475   7.718
  112POPC   C1A 1650   8.488   1.462   7.228
  112POPC   D2A 1651   8.655   1.546   6.815
  112POPC   C3A 1652   8.500   1.493   6.392
  112POPC   C4A 1653   8.592   1.450   5.942
  112POPC   C1B 1654   8.784   1.092   7.428
  112POPC   C2B 1655   8.704   1.035   7.007
  112POPC   C3B 1656   8.596   1.039   6.627
  112POPC   C4B 1657   8.569   1.008   6.204
  113POPC   NC3 1658   5.290   0.179   8.362
  113POPC   PO4 1659   5.624   0.748   8.099
  113POPC   GL1 1660   5.699   0.648   7.676
  113POPC   GL2 1661   5.844   0.333   7.704
  113POPC   C1A 1662   5.532   0.479   7.281
  113POPC   D2A 1663   5.679   0.634   6.858
  113POPC   C3A 1664   5.517   0.536   6.429
  113POPC   C4A 1665   5.477   0.783   6.036
  113POPC   C1B 1666   6.019   0.525   7.303
  113POPC   C2B 1667   6.011   0.268   6.970
  113POPC   C3B 1668   5.939   0.309   6.577
  113POPC   C4B 1669   5.989   0.699   6.315
  114POPC   NC3 1670   1.997   3.622   7.998
  114POPC   PO4 1671   2.066   3.019   8.297
  114POPC   GL1 1672   2.161   3.191   7.788
  114POPC   GL2 1673   1.942   3.415   7.561
  114POPC   C1A 1674   2.158   3.045   7.327
  114POPC   D2A 1675   1.899   3.099   6.973
  114POPC   C3A 1676   2.156   3.150   6.642
  114POPC   C4A 1677   2.141   3.434   6.355
  114POPC   C1B 1678   1.628   3.422   7.274
  114POPC   C2B 1679   1.608   3.640   6.879
  114POPC   C3B 1680   1.623   3.364   6.542
  114POPC   C4B 1681   1.659   3.180   6.167
  115POPC   NC3 1682   7.950   2.653   8.126
  115POPC   PO4 1683   7.599   2.106   8.033
  115POPC   GL1 1684   7.807   2.464   7.695
  115POPC   GL2 1685   7.985   2.853   7.682
  115POPC   C1A 1686   7.987   2.567   7.274
  115POPC   D2A 1687   7.756   2.682   6.924
  115POPC   C3A 1688   7.995   2.624   6.587
  115POPC   C4A 1689   7.819   2.516   6.222
  115POPC   C1B 1690   8.223   3.046   7.352
  115POPC   C2B 1691   8.102   3.051   6.946
  115POPC   C3B 1692   7.823   3.102   6.628
  115POPC   C4B 1693   8.024   3.013   6.240
  116POPC   NC3 1694   2.966   9.493   8.209
  116POPC   PO4 1695   2.260   9.536   8.046
  116POPC   GL1 1696   2.496   9.398   7.696
  116POPC   GL2 1697   2.837   9.484   7.704
  116POPC   C1A 1698   2.469   9.401   7.248
  116POPC   D2A 1699   2.288   9.582   6.868
  116POPC   C3A 1700   2.332   9.315   6.518
  116POPC   C4A 1701   2.429   9.289   6.089
  116POPC   C1B 1702   2.784   9.798   7.367
  116POPC   C2B 1703   2.954   9.805   6.976
  116POPC   C3B 1704   2.763   9.634   6.647
  116POPC   C4B 1705   2.812   9.617   6.243
  117POPC   NC3 1706   9.468   2.768   7.948
  117POPC   PO4 1707   9.557   2.226   8.306
  117POPC   GL1 1708   9.478   2.213   7.787
  117POPC   GL2 1709   9.261   2.451   7.589
  117POPC   C1A 1710   9.652   2.313   7.294
  117POPC   D2A 1711   9.435   2.359   6.924
  117POPC   C3A 1712   9.499   2.599   6.571
  117POPC   C4A 1713   9.264   2.629   6.189
  117POPC   C1B 1714   9.470   2.795   7.293
  117POPC   C2B 1715   9.278   2.989   6.958
  117POPC   C3B 1716   9.152   2.988   6.566
  117POPC   C4B 1717   9.564   3.087   6.396
  118POPC   NC3 1718   5.710   8.263   7.931
  118POPC   PO4 1719   6.158   8.771   8.103
  118POPC   GL1 1720   6.033   8.638   7.710
  118POPC   GL2 1721   5.697   8.658   7.567
  118POPC   C1A 1722   6.067   8.839   7.303
  118POPC   D2A 1723   5.838   8.978   6.950
  118POPC   C3A 1724   5.873   8.745   6.564
  118POPC   C4A 1725   6.002   8.884   6.177
  118POPC   C1B 1726   5.469   8.712   7.204
  118POPC   C2B 1727   5.461   8.545   6.804
  118POPC   C3B 1728   5.363   8.638   6.400
  118POPC   C4B 1729   5.658   8.504   6.119
  119POPC   NC3 1730   1.193   9.048   8.159
  119POPC   PO4 1731   1.450   8.477   8.171
  119POPC   GL1 1732   1.439   8.437   7.753
  119POPC   GL2 1733   1.208   8.695   7.736
  119POPC   C1A 1734   1.319   8.394   7.307
  119POPC   D2A 1735   1.506   8.376   6.906
  119POPC   C3A 1736   1.250   8.347   6.565
  119POPC   C4A 1737   1.232   8.541   6.226
  119POPC   C1B 1738   1.080   8.851   7.354
  119POPC   C2B 1739   1.129   8.724   6.961
  119POPC   C3B 1740   1.031   8.986   6.675
  119POPC   C4B 1741   0.948   8.949   6.268
  120POPC   NC3 1742   2.779  10.329   8.377
  120POPC   PO4 1743   2.632   0.464   8.221
  120POPC   GL1 1744   2.816   0.380   7.803
  120POPC   GL2 1745   3.023   0.674   7.687
  120POPC   C1A 1746   2.620   0.254   7.400
  120POPC   D2A 1747   2.698   0.065   7.004
  120POPC   C3A 1748   2.792   0.315   6.654
  120POPC   C4A 1749   2.802   0.222   6.230
  120POPC   C1B 1750   2.915   0.664   7.235
  120POPC   C2B 1751   2.645   0.769   6.883
  120POPC   C3B 1752   2.700   0.767   6.467
  120POPC   C4B 1753   2.378   0.534   6.315
  121POPC   NC3 1754   4.203   7.901   8.227
  121POPC   PO4 1755   4.621   7.379   8.132
  121POPC   GL1 1756   4.336   7.385   7.757
  121POPC   GL2 1757   4.042   7.151   7.724
  121POPC   C1A 1758   4.262   7.351   7.284
  121POPC   D2A 1759   4.449   7.388   6.875
  121POPC   C3A 1760   4.350   7.194   6.464
  121POPC   C4A 1761   4.595   6.958   6.143
  121POPC   C1B 1762   4.071   6.877   7.327
  121POPC   C2B 1763   4.083   6.965   6.852
  121POPC   C3B 1764   3.973   6.864   6.385
  121POPC   C4B 1765   4.141   7.101   5.983
  122POPC   NC3 1766   7.958   3.380   8.344
  122POPC   PO4 1767   8.418   3.785   8.002
  122POPC   GL1 1768   8.190   3.659   7.656
  122POPC   GL2 1769   7.929   3.377   7.724
  122POPC   C1A 1770   8.173   3.531   7.268
  122POPC   D2A 1771   7.983   3.536   6.914
  122POPC   C3A 1772   8.213   3.434   6.576
  122POPC   C4A 1773   8.031   3.517   6.228
  122POPC   C1B 1774   7.734   3.203   7.320
  122POPC   C2B 1775   7.491   3.408   6.980
  122POPC   C3B 1776   7.617   3.556   6.559
  122POPC   C4B 1777   7.589   3.286   6.207
  123POPC   NC3 1778   2.567   8.353   8.472
  123POPC   PO4 1779   2.216   7.938   8.024
  123POPC   GL1 1780   2.450   7.788   7.665
  123POPC   GL2 1781   2.814   7.852   7.718
  123POPC   C1A 1782   2.583   7.874   7.241
  123POPC   D2A 1783   2.552   8.134   6.918
  123POPC   C3A 1784   2.576   7.898   6.569
  123POPC   C4A 1785   2.593   8.033   6.175
  123POPC   C1B 1786   3.045   7.778   7.341
  123POPC   C2B 1787   2.984   7.767   6.901
  123POPC   C3B 1788   2.930   7.547   6.493
  123POPC   C4B 1789   2.989   7.701   6.102
  124POPC   NC3 1790   2.521   8.257   7.889
  124POPC   PO4 1791   2.993   8.229   8.370
  124POPC   GL1 1792   3.006   8.345   7.832
  124POPC   GL2 1793   2.992   8.708   7.667
  124POPC   C1A 1794   2.894   8.303   7.338
  124POPC   D2A 1795   2.717   8.615   6.984
  124POPC   C3A 1796   2.675   8.461   6.516
  124POPC   C4A 1797   2.983   8.450   6.165
  124POPC   C1B 1798   2.896   9.021   7.298
  124POPC   C2B 1799   2.661   9.115   6.870
  124POPC   C3B 1800   2.798   9.149   6.438
  124POPC   C4B 1801   2.685   8.862   6.120
  125POPC   NC3 1802   7.840   6.422   8.221
  125POPC   PO4 1803   8.322   6.881   8.125
  125POPC   GL1 1804   8.040   6.733   7.756
  125POPC   GL2 1805   7.966   6.370   7.713
  125POPC   C1A 1806   8.139   6.560   7.294
  125POPC   D2A 1807   8.036   6.345   6.929
  125POPC   C3A 1808   7.978   6.511   6.509
  125POPC   C4A 1809   8.274   6.659   6.207
  125POPC   C1B 1810   7.677   6.361   7.306
  125POPC   C2B 1811   7.548   6.498   6.877
  125POPC   C3B 1812   7.497   6.313   6.448
  125POPC   C4B 1813   7.584   6.435   6.032
  126POPC   NC3 1814   2.517   5.798   7.926
  126POPC   PO4 1815   2.274   5.173   8.056
  126POPC   GL1 1816   2.411   5.277   7.680
  126POPC   GL2 1817   2.725   5.480   7.602
  126POPC   C1A 1818   2.320   5.441   7.297
  126POPC   D2A 1819   2.331   5.667   6.939
  126POPC   C3A 1820   2.579   5.528   6.637
  126POPC   C4A 1821   2.483   5.524   6.249
  126POPC   C1B 1822   2.645   5.858   7.294
  126POPC   C2B 1823   2.723   6.001   6.859
  126POPC   C3B 1824   2.735   5.972   6.415
  126POPC   C4B 1825   2.981   5.676   6.207
  127POPC   NC3 1826   9.346   9.424   8.082
  127POPC   PO4 1827   9.955   9.756   7.984
  127POPC   GL1 1828   9.750   9.575   7.603
  127POPC   GL2 1829   9.405   9.410   7.591
  127POPC   C1A 1830   9.669   9.467   7.169
  127POPC   D2A 1831   9.827   9.331   6.794
  127POPC   C3A 1832   9.833   9.575   6.441
  127POPC   C4A 1833   9.627   9.771   6.105
  127POPC   C1B 1834   9.173   9.332   7.204
  127POPC   C2B 1835   9.311   9.478   6.783
  127POPC   C3B 1836   9.301   9.451   6.335
  127POPC   C4B 1837   9.043   9.200   6.069
  128POPC   NC3 1838   4.653   1.337   7.928
  128POPC   PO4 1839   5.059   0.863   8.133
  128POPC   GL1 1840   5.114   0.983   7.701
  128POPC   GL2 1841   4.837   1.086   7.527
  128POPC   C1A 1842   5.247   0.920   7.257
  128POPC   D2A 1843   4.974   0.965   6.878
  128POPC   C3A 1844   5.116   0.863   6.411
  128POPC   C4A 1845   5.044   1.035   5.950
  128POPC   C1B 1846   5.100   1.418   7.287
  128POPC   C2B 1847   5.203   1.426   6.824
  128POPC   C3B 1848   4.850   1.299   6.529
  128POPC   C4B 1849   4.673   1.355   6.136
  129POPC   NC3 1850   8.766   9.865   8.054
  129POPC   PO4 1851   8.490  10.392   8.181
  129POPC   GL1 1852   8.739  10.307   7.784
  129POPC   GL2 1853   8.513  10.050   7.632
  129POPC   C1A 1854   8.955  10.207   7.361
  129POPC   D2A 1855   9.173   9.974   6.988
  129POPC   C3A 1856   9.011   9.842   6.570
  129POPC   C4A 1857   8.762  10.011   6.265
  129POPC   C1B 1858   8.513  10.067   7.176
  129POPC   C2B 1859   8.710  10.197   6.800
  129POPC   C3B 1860   8.617  10.454   6.447
  129POPC   C4B 1861   8.401  10.259   6.040
  130POPC   NC3 1862   3.410   3.478   8.074
  130POPC   PO4 1863   3.997   3.140   8.002
  130POPC   GL1 1864   3.771   3.350   7.695
  130POPC   GL2 1865   3.380   3.410   7.580
  130POPC   C1A 1866   3.749   3.228   7.286
  130POPC   D2A 1867   3.512   3.041   6.961
  130POPC   C3A 1868   3.472   3.324   6.630
  130POPC   C4A 1869   3.662   3.600   6.344
  130POPC   C1B 1870   3.344   3.517   7.127
  130POPC   C2B 1871   3.143   3.724   6.746
  130POPC   C3B 1872   3.197   3.840   6.340
  130POPC   C4B 1873   3.279   3.547   6.002
  131POPC   NC3 1874   5.302  10.113   8.022
  131POPC   PO4 1875   4.668   9.857   8.071
  131POPC   GL1 1876   4.733  10.132   7.677
  131POPC   GL2 1877   5.070  10.276   7.615
  131POPC   C1A 1878   4.870  10.033   7.208
  131POPC   D2A 1879   5.212   9.917   6.928
  131POPC   C3A 1880   5.104  10.003   6.503
  131POPC   C4A 1881   4.668  10.035   6.341
  131POPC   C1B 1882   5.223  10.394   7.220
  131POPC   C2B 1883   4.975  10.449   6.853
  131POPC   C3B 1884   4.770   0.014   6.446
  131POPC   C4B 1885   5.030  10.339   6.110
  132POPC   NC3 1886   6.517   7.614   8.033
  132POPC   PO4 1887   6.780   8.068   8.354
  132POPC   GL1 1888   6.663   8.057   7.793
  132POPC   GL2 1889   6.638   7.759   7.581
  132POPC   C1A 1890   6.700   8.087   7.236
  132POPC   D2A 1891   6.750   7.744   6.891
  132POPC   C3A 1892   6.713   7.997   6.547
  132POPC   C4A 1893   6.504   8.036   6.155
  132POPC   C1B 1894   6.276   7.809   7.331
  132POPC   C2B 1895   6.271   7.912   6.911
  132POPC   C3B 1896   6.329   7.681   6.528
  132POPC   C4B 1897   6.046   7.858   6.261
  133POPC   NC3 1898   5.382   1.150   8.281
  133POPC   PO4 1899   5.909   1.446   8.043
  133POPC   GL1 1900   5.825   1.405   7.634
  133POPC   GL2 1901   5.583   1.158   7.665
  133POPC   C1A 1902   5.637   1.476   7.238
  133POPC   D2A 1903   5.872   1.585   6.929
  133POPC   C3A 1904   5.699   1.547   6.578
  133POPC   C4A 1905   5.870   1.371   6.217
  133POPC   C1B 1906   5.772   0.983   7.281
  133POPC   C2B 1907   5.637   1.121   6.885
  133POPC   C3B 1908   5.593   1.039   6.480
  133POPC   C4B 1909   5.311   1.307   6.309
  134POPC   NC3 1910   4.791   7.719   7.888
  134POPC   PO4 1911   5.433   7.897   7.906
  134POPC   GL1 1912   5.185   7.958   7.585
  134POPC   GL2 1913   4.866   8.138   7.596
  134POPC   C1A 1914   5.213   7.708   7.218
  134POPC   D2A 1915   4.925   7.606   6.908
  134POPC   C3A 1916   5.113   7.643   6.521
  134POPC   C4A 1917   5.224   7.687   6.108
  134POPC   C1B 1918   4.835   8.044   7.180
  134POPC   C2B 1919   4.676   8.029   6.781
  134POPC   C3B 1920   4.822   8.026   6.368
  134POPC   C4B 1921   4.660   7.917   6.017
  135POPC   NC3 1922   1.036   8.280   8.083
  135POPC   PO4 1923   0.412   7.997   8.013
  135POPC   GL1 1924   0.733   8.103   7.676
  135POPC   GL2 1925   1.101   8.080   7.628
  135POPC   C1A 1926   0.765   7.982   7.259
  135POPC   D2A 1927   0.945   8.197   6.929
  135POPC   C3A 1928   0.815   8.095   6.479
  135POPC   C4A 1929   0.881   8.179   6.054
  135POPC   C1B 1930   1.266   7.862   7.281
  135POPC   C2B 1931   1.352   7.574   6.956
  135POPC   C3B 1932   1.217   7.843   6.664
  135POPC   C4B 1933   1.260   7.895   6.231
  136POPC   NC3 1934   8.675   6.501   8.148
  136POPC   PO4 1935   8.182   6.064   8.225
  136POPC   GL1 1936   8.472   6.142   7.820
  136POPC   GL2 1937   8.470   6.486   7.671
  136POPC   C1A 1938   8.602   6.129   7.356
  136POPC   D2A 1939   8.453   5.968   6.980
  136POPC   C3A 1940   8.371   6.176   6.605
  136POPC   C4A 1941   8.314   6.099   6.202
  136POPC   C1B 1942   8.621   6.646   7.240
  136POPC   C2B 1943   8.446   6.669   6.845
  136POPC   C3B 1944   8.696   6.542   6.524
  136POPC   C4B 1945   8.785   6.315   6.162
  137POPC   NC3 1946   5.683   7.536   7.987
  137POPC   PO4 1947   6.194   7.950   8.007
  137POPC   GL1 1948   5.887   7.877   7.642
  137POPC   GL2 1949   5.752   8.162   7.444
  137POPC   C1A 1950   5.752   7.720   7.205
  137POPC   D2A 1951   5.881   7.583   6.774
  137POPC   C3A 1952   5.624   7.575   6.405
  137POPC   C4A 1953   5.667   7.454   5.950
  137POPC   C1B 1954   5.368   8.208   7.197
  137POPC   C2B 1955   5.192   8.080   6.796
  137POPC   C3B 1956   5.327   8.124   6.364
  137POPC   C4B 1957   5.623   7.982   6.054
  138POPC   NC3 1958   8.422   5.631   8.046
  138POPC   PO4 1959   9.097   5.834   8.064
  138POPC   GL1 1960   8.864   5.755   7.664
  138POPC   GL2 1961   8.526   5.672   7.566
  138POPC   C1A 1962   8.896   5.676   7.216
  138POPC   D2A 1963   8.981   5.875   6.860
  138POPC   C3A 1964   8.776   5.903   6.481
  138POPC   C4A 1965   8.986   5.831   6.097
  138POPC   C1B 1966   8.467   5.423   7.224
  138POPC   C2B 1967   8.591   5.529   6.791
  138POPC   C3B 1968   8.719   5.387   6.406
  138POPC   C4B 1969   8.537   5.626   6.124
  139POPC   NC3 1970   3.821   8.022   7.874
  139POPC   PO4 1971   4.527   8.097   7.960
  139POPC   GL1 1972   4.316   7.890   7.615
  139POPC   GL2 1973   3.988   7.695   7.534
  139POPC   C1A 1974   4.358   7.843   7.163
  139POPC   D2A 1975   4.140   7.772   6.768
  139POPC   C3A 1976   4.435   7.699   6.457
  139POPC   C4A 1977   4.329   7.552   6.092
  139POPC   C1B 1978   3.867   7.996   7.176
  139POPC   C2B 1979   3.700   8.025   6.739
  139POPC   C3B 1980   3.820   8.164   6.347
  139POPC   C4B 1981   3.903   7.764   6.232
  140POPC   NC3 1982   3.360   7.953   8.340
  140POPC   PO4 1983   3.494   8.328   7.893
  140POPC   GL1 1984   3.396   8.132   7.546
  140POPC   GL2 1985   3.345   7.837   7.743
  140POPC   C1A 1986   3.348   8.116   7.102
  140POPC   D2A 1987   3.058   8.281   6.831
  140POPC   C3A 1988   3.060   8.060   6.477
  140POPC   C4A 1989   3.346   8.086   6.162
  140POPC   C1B 1990   3.520   7.688   7.334
  140POPC   C2B 1991   3.465   7.588   6.891
  140POPC   C3B 1992   3.433   7.668   6.429
  140POPC   C4B 1993   3.463   7.627   5.945
  141POPC   NC3 1994   3.510   9.702   8.106
  141POPC   PO4 1995   3.145   9.138   7.994
  141POPC   GL1 1996   3.354   9.386   7.729
  141POPC   GL2 1997   3.598   9.124   7.728
  141POPC   C1A 1998   3.198   9.495   7.324
  141POPC   D2A 1999   3.108   9.319   6.925
  141POPC   C3A 2000   3.264   9.420   6.541
  141POPC   C4A 2001   3.301   9.569   6.150
  141POPC   C1B 2002   3.482   9.086   7.302
  141POPC   C2B 2003   3.598   9.172   6.921
  141POPC   C3B 2004   3.574   8.994   6.562
  141POPC   C4B 2005   3.622   9.181   6.212
  142POPC   NC3 2006   3.384   6.078   7.982
  142POPC   PO4 2007   3.272   6.769   8.048
  142POPC   GL1 2008   3.091   6.658   7.640
  142POPC   GL2 2009   3.270   6.358   7.539
  142POPC   C1A 2010   3.259   6.752   7.208
  142POPC   D2A 2011   3.186   6.770   6.772
  142POPC   C3A 2012   3.471   6.665   6.431
  142POPC   C4A 2013   3.412   6.458   6.019
  142POPC   C1B 2014   3.570   6.349   7.156
  142POPC   C2B 2015   3.705   6.284   6.703
  142POPC   C3B 2016   3.843   6.321   6.258
  142POPC   C4B 2017   3.656   6.001   5.948
  143POPC   NC3 2018   1.957   2.576   8.136
  143POPC   PO4 2019   1.672   3.193   7.935
  143POPC   GL1 2020   1.811   2.812   7.705
  143POPC   GL2 2021   2.181   2.705   7.696
  143POPC   C1A 2022   1.785   2.661   7.285
  143POPC   D2A 2023   1.556   2.718   6.908
  143POPC   C3A 2024   1.772   2.819   6.533
  143POPC   C4A 2025   1.650   2.594   6.170
  143POPC   C1B 2026   2.286   2.545   7.305
  143POPC   C2B 2027   2.171   2.672   6.869
  143POPC   C3B 2028   2.297   2.699   6.439
  143POPC   C4B 2029   2.114   2.978   6.134
  144POPC   NC3 2030   2.498   3.072   8.135
  144POPC   PO4 2031   2.354   3.757   8.268
  144POPC   GL1 2032   2.505   3.575   7.846
  144POPC   GL2 2033   2.828   3.358   7.795
  144POPC   C1A 2034   2.406   3.554   7.402
  144POPC   D2A 2035   2.469   3.322   7.013
  144POPC   C3A 2036   2.577   3.551   6.640
  144POPC   C4A 2037   2.489   3.791   6.268
  144POPC   C1B 2038   2.891   3.415   7.326
  144POPC   C2B 2039   2.979   3.270   6.883
  144POPC   C3B 2040   2.991   3.360   6.405
  144POPC   C4B 2041   2.911   3.196   5.937
  145POPC   NC3 2042   0.798   2.650   8.172
  145POPC   PO4 2043   0.136   2.439   8.110
  145POPC   GL1 2044   0.350   2.799   7.831
  145POPC   GL2 2045   0.489   2.511   7.729
  145POPC   C1A 2046   0.484   3.108   7.449
  145POPC   D2A 2047   0.689   3.020   7.031
  145POPC   C3A 2048   0.536   3.059   6.599
  145POPC   C4A 2049   0.246   3.106   6.216
  145POPC   C1B 2050   0.565   2.620   7.312
  145POPC   C2B 2051   0.653   2.521   6.890
  145POPC   C3B 2052   0.470   2.564   6.487
  145POPC   C4B 2053   0.626   2.370   6.150
  146POPC   NC3 2054   7.887   8.735   8.180
  146POPC   PO4 2055   8.485   8.763   7.964
  146POPC   GL1 2056   8.249   8.547   7.735
  146POPC   GL2 2057   7.926   8.660   7.694
  146POPC   C1A 2058   8.167   8.413   7.327
  146POPC   D2A 2059   8.097   8.645   6.954
  146POPC   C3A 2060   8.168   8.529   6.541
  146POPC   C4A 2061   8.178   8.797   6.193
  146POPC   C1B 2062   8.066   8.962   7.381
  146POPC   C2B 2063   7.849   9.083   6.999
  146POPC   C3B 2064   7.804   8.914   6.559
  146POPC   C4B 2065   7.719   8.601   6.202
  147POPC   NC3 2066   1.365   9.794   8.264
  147POPC   PO4 2067   0.885   9.412   8.135
  147POPC   GL1 2068   1.260   9.493   7.840
  147POPC   GL2 2069   1.130   9.232   7.666
  147POPC   C1A 2070   1.459   9.502   7.401
  147POPC   D2A 2071   1.301   9.253   7.038
  147POPC   C3A 2072   1.416   9.337   6.592
  147POPC   C4A 2073   1.408   9.118   6.198
  147POPC   C1B 2074   0.974   9.552   7.326
  147POPC   C2B 2075   0.815   9.500   6.908
  147POPC   C3B 2076   0.892   9.420   6.484
  147POPC   C4B 2077   0.802   9.469   6.087
  148POPC   NC3 2078   9.640   4.425   8.000
  148POPC   PO4 2079   9.481   5.039   8.193
  148POPC   GL1 2080   9.472   4.852   7.769
  148POPC   GL2 2081   9.224   4.618   7.708
  148POPC   C1A 2082   9.776   4.758   7.398
  148POPC   D2A 2083   9.675   4.622   6.987
  148POPC   C3A 2084   9.716   4.926   6.655
  148POPC   C4A 2085   9.802   4.840   6.253
  148POPC   C1B 2086   9.283   4.816   7.304
  148POPC   C2B 2087   9.169   4.836   6.894
  148POPC   C3B 2088   9.236   4.994   6.517
  148POPC   C4B 2089   9.310   4.782   6.140
  149POPC   NC3 2090   0.856   1.368   7.852
  149POPC   PO4 2091   1.502   1.432   8.012
  149POPC   GL1 2092   1.265   1.144   7.615
  149POPC   GL2 2093   0.876   0.995   7.527
  149POPC   C1A 2094   1.231   0.960   7.189
  149POPC   D2A 2095   0.974   0.980   6.810
  149POPC   C3A 2096   1.296   0.828   6.507
  149POPC   C4A 2097   1.343   1.204   6.308
  149POPC   C1B 2098   0.805   1.316   7.197
  149POPC   C2B 2099   0.679   1.500   6.796
  149POPC   C3B 2100   0.878   1.401   6.454
  149POPC   C4B 2101   0.871   0.999   6.297
  150POPC   NC3 2102   7.888   7.118   8.182
  150POPC   PO4 2103   8.140   7.655   7.913
  150POPC   GL1 2104   7.907   7.430   7.597
  150POPC   GL2 2105   7.721   7.142   7.710
  150POPC   C1A 2106   7.920   7.398   7.150
  150POPC   D2A 2107   8.008   7.631   6.805
  150POPC   C3A 2108   8.017   7.539   6.368
  150POPC   C4A 2109   7.802   7.691   5.974
  150POPC   C1B 2110   7.799   6.929   7.333
  150POPC   C2B 2111   7.962   6.863   6.918
  150POPC   C3B 2112   8.022   7.028   6.507
  150POPC   C4B 2113   7.697   6.902   6.232
  151POPC   NC3 2114   5.965   9.886   8.181
  151POPC   PO4 2115   5.625  10.449   8.143
  151POPC   GL1 2116   5.640  10.333   7.698
  151POPC   GL2 2117   5.704   9.967   7.728
  151POPC   C1A 2118   5.722  10.485   7.275
  151POPC   D2A 2119   5.504   0.144   6.874
  151POPC   C3A 2120   5.403   0.032   6.458
  151POPC   C4A 2121   5.762   0.072   6.184
  151POPC   C1B 2122   5.537   9.982   7.324
  151POPC   C2B 2123   5.676  10.134   6.908
  151POPC   C3B 2124   5.679  10.128   6.472
  151POPC   C4B 2125   5.501   9.864   6.180
  152POPC   NC3 2126   6.280   2.534   8.066
  152POPC   PO4 2127   6.915   2.450   8.206
  152POPC   GL1 2128   6.758   2.587   7.768
  152POPC   GL2 2129   6.395   2.605   7.592
  152POPC   C1A 2130   6.777   2.490   7.319
  152POPC   D2A 2131   6.452   2.598   7.014
  152POPC   C3A 2132   6.635   2.667   6.634
  152POPC   C4A 2133   6.819   2.441   6.293
  152POPC   C1B 2134   6.085   2.783   7.322
  152POPC   C2B 2135   6.020   2.851   6.860
  152POPC   C3B 2136   6.187   2.778   6.442
  152POPC   C4B 2137   6.313   2.348   6.334
  153POPC   NC3 2138  10.194   5.965   8.010
  153POPC   PO4 2139   0.032   6.535   8.163
  153POPC   GL1 2140  10.288   6.481   7.743
  153POPC   GL2 2141   9.935   6.310   7.723
  153POPC   C1A 2142  10.284   6.265   7.327
  153POPC   D2A 2143   0.053   6.234   6.964
  153POPC   C3A 2144  10.350   6.218   6.577
  153POPC   C4A 2145  10.450   6.394   6.192
  153POPC   C1B 2146   9.833   6.502   7.307
  153POPC   C2B 2147  10.057   6.515   6.909
  153POPC   C3B 2148  10.089   6.656   6.487
  153POPC   C4B 2149  10.014   6.617   6.017
  154POPC   NC3 2150   8.165   5.000   8.020
  154POPC   PO4 2151   7.714   4.494   7.965
  154POPC   GL1 2152   7.877   4.647   7.590
  154POPC   GL2 2153   8.213   4.670   7.614
  154POPC   C1A 2154   7.798   4.651   7.142
  154POPC   D2A 2155   7.843   4.853   6.742
  154POPC   C3A 2156   7.523   4.896   6.425
  154POPC   C4A 2157   7.482   5.019   5.978
  154POPC   C1B 2158   8.109   5.029   7.303
  154POPC   C2B 2159   8.165   5.235   6.881
  154POPC   C3B 2160   8.295   5.115   6.511
  154POPC   C4B 2161   8.029   4.924   6.275
  155POPC   NC3 2162   6.382   8.328   8.214
  155POPC   PO4 2163   6.735   8.831   8.003
  155POPC   GL1 2164   6.535   8.868   7.601
  155POPC   GL2 2165   6.547   8.520   7.603
  155POPC   C1A 2166   6.543   8.827   7.128
  155POPC   D2A 2167   6.325   8.939   6.734
  155POPC   C3A 2168   6.484   8.887   6.293
  155POPC   C4A 2169   6.374   8.941   5.821
  155POPC   C1B 2170   6.237   8.338   7.344
  155POPC   C2B 2171   6.137   8.460   6.923
  155POPC   C3B 2172   6.370   8.430   6.526
  155POPC   C4B 2173   6.771   8.457   6.299
  156POPC   NC3 2174   9.391   0.829   8.383
  156POPC   PO4 2175   9.105   1.391   8.180
  156POPC   GL1 2176   9.263   1.209   7.744
  156POPC   GL2 2177   9.599   1.041   7.686
  156POPC   C1A 2178   9.264   0.975   7.323
  156POPC   D2A 2179   9.168   0.867   6.912
  156POPC   C3A 2180   9.053   1.277   6.681
  156POPC   C4A 2181   8.987   1.328   6.242
  156POPC   C1B 2182   9.747   1.142   7.227
  156POPC   C2B 2183   9.524   1.230   6.828
  156POPC   C3B 2184   9.471   1.170   6.366
  156POPC   C4B 2185   9.691   1.059   5.976
  157POPC   NC3 2186   1.779   4.473   8.109
  157POPC   PO4 2187   2.169   4.036   7.831
  157POPC   GL1 2188   1.830   4.044   7.622
  157POPC   GL2 2189   1.837   4.414   7.622
  157POPC   C1A 2190   1.897   3.861   7.239
  157POPC   D2A 2191   2.202   3.762   6.946
  157POPC   C3A 2192   2.028   3.863   6.592
  157POPC   C4A 2193   1.997   3.927   6.204
  157POPC   C1B 2194   2.045   4.365   7.239
  157POPC   C2B 2195   1.845   4.246   6.868
  157POPC   C3B 2196   1.858   4.378   6.445
  157POPC   C4B 2197   1.966   4.379   5.980
  158POPC   NC3 2198   3.995   1.853   8.023
  158POPC   PO4 2199   4.551   1.724   7.709
  158POPC   GL1 2200   4.432   2.052   7.463
  158POPC   GL2 2201   4.096   2.046   7.561
  158POPC   C1A 2202   4.234   2.038   7.060
  158POPC   D2A 2203   4.143   2.339   6.767
  158POPC   C3A 2204   4.353   2.236   6.419
  158POPC   C4A 2205   4.549   1.849   6.310
  158POPC   C1B 2206   3.975   1.661   7.341
  158POPC   C2B 2207   4.045   1.389   6.973
  158POPC   C3B 2208   4.192   1.584   6.595
  158POPC   C4B 2209   3.998   1.874   6.350
  159POPC   NC3 2210   2.842   2.812   8.539
  159POPC   PO4 2211   2.438   2.572   8.101
  159POPC   GL1 2212   2.704   2.737   7.821
  159POPC   GL2 2213   2.866   2.432   7.839
  159POPC   C1A 2214   2.660   2.980   7.455
  159POPC   D2A 2215   2.595   2.836   7.055
  159POPC   C3A 2216   2.689   2.935   6.659
  159POPC   C4A 2217   2.563   3.123   6.308
  159POPC   C1B 2218   2.827   2.482   7.389
  159POPC   C2B 2219   2.832   2.323   6.988
  159POPC   C3B 2220   2.963   2.440   6.602
  159POPC   C4B 2221   2.797   2.634   6.252
  160POPC   NC3 2222   7.462   3.513   7.983
  160POPC   PO4 2223   6.894   3.406   8.318
  160POPC   GL1 2224   7.011   3.276   7.767
  160POPC   GL2 2225   7.320   3.399   7.536
  160POPC   C1A 2226   6.916   3.505   7.264
  160POPC   D2A 2227   7.043   3.640   6.810
  160POPC   C3A 2228   6.731   3.648   6.415
  160POPC   C4A 2229   6.853   3.712   5.950
  160POPC   C1B 2230   7.168   3.067   7.320
  160POPC   C2B 2231   7.055   3.126   6.919
  160POPC   C3B 2232   7.215   3.247   6.541
  160POPC   C4B 2233   7.211   3.630   6.292
  161POPC   NC3 2234   6.638   3.571   7.984
  161POPC   PO4 2235   6.499   2.945   8.049
  161POPC   GL1 2236   6.558   3.084   7.639
  161POPC   GL2 2237   6.480   3.414   7.520
  161POPC   C1A 2238   6.650   3.031   7.209
  161POPC   D2A 2239   6.596   3.346   6.862
  161POPC   C3A 2240   6.483   3.197   6.448
  161POPC   C4A 2241   6.452   3.399   6.049
  161POPC   C1B 2242   6.190   3.259   7.173
  161POPC   C2B 2243   6.066   3.343   6.726
  161POPC   C3B 2244   6.042   3.579   6.331
  161POPC   C4B 2245   5.876   3.993   6.124
  162POPC   NC3 2246   3.471   2.136   8.163
  162POPC   PO4 2247   2.918   1.971   8.088
  162POPC   GL1 2248   3.234   1.877   7.744
  162POPC   GL2 2249   3.583   2.009   7.669
  162POPC   C1A 2250   3.191   2.018   7.288
  162POPC   D2A 2251   3.216   2.029   6.814
  162POPC   C3A 2252   3.170   1.636   6.632
  162POPC   C4A 2253   3.031   1.601   6.220
  162POPC   C1B 2254   3.721   2.136   7.227
  162POPC   C2B 2255   3.730   2.038   6.768
  162POPC   C3B 2256   3.499   1.945   6.375
  162POPC   C4B 2257   3.687   2.212   6.067
  163POPC   NC3 2258   3.670   7.024   8.136
  163POPC   PO4 2259   3.658   7.650   8.126
  163POPC   GL1 2260   3.582   7.372   7.721
  163POPC   GL2 2261   3.497   7.010   7.621
  163POPC   C1A 2262   3.753   7.259   7.278
  163POPC   D2A 2263   3.588   7.085   6.904
  163POPC   C3A 2264   3.807   7.326   6.586
  163POPC   C4A 2265   3.725   7.277   6.175
  163POPC   C1B 2266   3.239   7.262   7.269
  163POPC   C2B 2267   3.063   7.242   6.873
  163POPC   C3B 2268   3.297   7.180   6.470
  163POPC   C4B 2269   3.324   6.995   6.056
  164POPC   NC3 2270   1.832   5.094   8.172
  164POPC   PO4 2271   1.371   4.676   8.008
  164POPC   GL1 2272   1.609   4.903   7.709
  164POPC   GL2 2273   1.975   4.911   7.712
  164POPC   C1A 2274   1.720   4.770   7.279
  164POPC   D2A 2275   1.975   4.765   6.884
  164POPC   C3A 2276   1.768   4.937   6.534
  164POPC   C4A 2277   1.635   4.749   6.164
  164POPC   C1B 2278   2.212   4.939   7.310
  164POPC   C2B 2279   2.376   5.113   6.904
  164POPC   C3B 2280   2.246   5.133   6.482
  164POPC   C4B 2281   2.149   4.760   6.256
  165POPC   NC3 2282   6.959   8.401   8.014
  165POPC   PO4 2283   7.428   8.888   8.132
  165POPC   GL1 2284   7.188   8.848   7.777
  165POPC   GL2 2285   7.415   8.626   7.636
  165POPC   C1A 2286   7.005   8.809   7.368
  165POPC   D2A 2287   6.954   8.547   7.001
  165POPC   C3A 2288   6.828   8.778   6.671
  165POPC   C4A 2289   6.980   8.961   6.299
  165POPC   C1B 2290   7.670   8.636   7.254
  165POPC   C2B 2291   7.607   8.509   6.823
  165POPC   C3B 2292   7.325   8.665   6.522
  165POPC   C4B 2293   7.222   8.534   6.087
  166POPC   NC3 2294   3.118   0.506   8.198
  166POPC   PO4 2295   3.658   0.835   8.372
  166POPC   GL1 2296   3.497   0.631   7.884
  166POPC   GL2 2297   3.392   0.280   7.814
  166POPC   C1A 2298   3.566   0.540   7.406
  166POPC   D2A 2299   3.385   0.718   7.015
  166POPC   C3A 2300   3.459   0.588   6.594
  166POPC   C4A 2301   3.181   0.575   6.260
  166POPC   C1B 2302   3.151   0.242   7.418
  166POPC   C2B 2303   3.194   0.256   6.956
  166POPC   C3B 2304   3.273   0.104   6.525
  166POPC   C4B 2305   3.484   0.144   6.153
  167POPC   NC3 2306   3.881   8.823   8.230
  167POPC   PO4 2307   4.110   9.099   7.734
  167POPC   GL1 2308   4.363   8.798   7.566
  167POPC   GL2 2309   4.327   8.516   7.780
  167POPC   C1A 2310   4.337   8.775   7.124
  167POPC   D2A 2311   4.070   8.961   6.843
  167POPC   C3A 2312   3.975   8.676   6.536
  167POPC   C4A 2313   4.017   8.898   6.141
  167POPC   C1B 2314   4.229   8.330   7.358
  167POPC   C2B 2315   4.195   8.268   6.898
  167POPC   C3B 2316   4.310   8.199   6.479
  167POPC   C4B 2317   4.337   8.514   6.227
  168POPC   NC3 2318   9.994   2.283   8.163
  168POPC   PO4 2319   9.988   1.635   8.144
  168POPC   GL1 2320  10.303   1.722   7.821
  168POPC   GL2 2321  10.199   2.067   7.725
  168POPC   C1A 2322   0.010   1.778   7.411
  168POPC   D2A 2323  10.408   2.014   7.042
  168POPC   C3A 2324  10.436   1.848   6.667
  168POPC   C4A 2325  10.323   1.689   6.290
  168POPC   C1B 2326   9.995   1.942   7.335
  168POPC   C2B 2327   9.899   2.093   6.886
  168POPC   C3B 2328  10.018   2.072   6.466
  168POPC   C4B 2329  10.187   2.328   6.125
  169POPC   NC3 2330   1.287   7.279   8.107
  169POPC   PO4 2331   0.939   7.824   8.037
  169POPC   GL1 2332   0.970   7.588   7.616
  169POPC   GL2 2333   1.318   7.484   7.636
  169POPC   C1A 2334   0.889   7.508   7.137
  169POPC   D2A 2335   0.865   7.404   6.698
  169POPC   C3A 2336   1.210   7.387   6.458
  169POPC   C4A 2337   1.142   7.412   6.045
  169POPC   C1B 2338   1.214   7.196   7.349
  169POPC   C2B 2339   1.218   7.089   6.926
  169POPC   C3B 2340   1.010   6.906   6.606
  169POPC   C4B 2341   1.163   6.941   6.208
  170POPC   NC3 2342  10.344   2.870   7.967
  170POPC   PO4 2343   9.844   2.548   7.822
  170POPC   GL1 2344  10.163   2.578   7.575
  170POPC   GL2 2345  10.487   2.482   7.623
  170POPC   C1A 2346  10.178   2.458   7.181
  170POPC   D2A 2347   9.892   2.610   6.920
  170POPC   C3A 2348  10.023   2.574   6.542
  170POPC   C4A 2349   9.824   2.720   6.181
  170POPC   C1B 2350   0.054   2.821   7.329
  170POPC   C2B 2351  10.365   2.909   6.938
  170POPC   C3B 2352   0.017   2.844   6.573
  170POPC   C4B 2353  10.320   2.827   6.191
  171POPC   NC3 2354  10.035   9.314   7.953
  171POPC   PO4 2355   0.051   8.878   7.936
  171POPC   GL1 2356  10.347   9.135   7.602
  171POPC   GL2 2357  10.355   9.531   7.643
  171POPC   C1A 2358  10.115   9.265   7.241
  171POPC   D2A 2359  10.333   9.246   6.854
  171POPC   C3A 2360  10.167   9.185   6.442
  171POPC   C4A 2361   0.031   9.026   6.231
  171POPC   C1B 2362  10.454   9.639   7.244
  171POPC   C2B 2363  10.171   9.720   6.926
  171POPC   C3B 2364  10.350   9.653   6.540
  171POPC   C4B 2365  10.334   9.525   6.121
  172POPC   NC3 2366  10.483   6.943   7.956
  172POPC   PO4 2367   9.860   7.285   8.105
  172POPC   GL1 2368  10.022   7.093   7.736
  172POPC   GL2 2369  10.251   7.321   7.623
  172POPC   C1A 2370  10.150   6.930   7.313
  172POPC   D2A 2371   9.994   7.044   6.900
  172POPC   C3A 2372  10.302   7.127   6.584
  172POPC   C4A 2373  10.327   6.990   6.202
  172POPC   C1B 2374   9.991   7.462   7.338
  172POPC   C2B 2375   9.855   7.557   6.947
  172POPC   C3B 2376   9.904   7.436   6.550
  172POPC   C4B 2377  10.076   7.433   6.159
  173POPC   NC3 2378   8.650   2.390   8.157
  173POPC   PO4 2379   8.228   3.015   8.216
  173POPC   GL1 2380   8.545   2.883   7.754
  173POPC   GL2 2381   8.460   2.640   7.460
  173POPC   C1A 2382   8.761   2.982   7.299
  173POPC   D2A 2383   8.511   2.746   6.949
  173POPC   C3A 2384   8.450   2.927   6.524
  173POPC   C4A 2385   8.789   2.932   6.190
  173POPC   C1B 2386   8.843   2.444   7.255
  173POPC   C2B 2387   8.979   2.550   6.829
  173POPC   C3B 2388   8.737   2.506   6.469
  173POPC   C4B 2389   8.350   2.449   6.234
  174POPC   NC3 2390   6.373   0.640   3.971
  174POPC   PO4 2391   6.841   0.143   3.943
  174POPC   GL1 2392   6.611   0.342   4.289
  174POPC   GL2 2393   6.266   0.210   4.251
  174POPC   C1A 2394   6.732   0.520   4.697
  174POPC   D2A 2395   6.750   0.229   5.057
  174POPC   C3A 2396   6.612   0.421   5.402
  174POPC   C4A 2397   6.599   0.212   5.774
  174POPC   C1B 2398   6.232   0.462   4.627
  174POPC   C2B 2399   6.229   0.312   5.042
  174POPC   C3B 2400   6.116   0.394   5.469
  174POPC   C4B 2401   6.313   0.639   5.843
  175POPC   NC3 2402   5.606   2.163   3.946
  175POPC   PO4 2403   6.063   1.563   3.920
  175POPC   GL1 2404   6.076   1.704   4.346
  175POPC   GL2 2405   5.729   1.832   4.331
  175POPC   C1A 2406   5.935   1.748   4.797
  175POPC   D2A 2407   5.635   1.834   5.117
  175POPC   C3A 2408   5.825   1.966   5.488
  175POPC   C4A 2409   5.869   1.689   5.812
  175POPC   C1B 2410   5.607   2.115   4.677
  175POPC   C2B 2411   5.278   2.177   4.997
  175POPC   C3B 2412   5.339   2.277   5.401
  175POPC   C4B 2413   5.285   2.362   5.821
  176POPC   NC3 2414   0.069   9.534   3.783
  176POPC   PO4 2415   0.692   9.769   3.708
  176POPC   GL1 2416   0.654   9.529   4.090
  176POPC   GL2 2417   0.433   9.251   4.069
  176POPC   C1A 2418   0.689   9.560   4.544
  176POPC   D2A 2419   0.841   9.617   4.946
  176POPC   C3A 2420   0.656   9.352   5.207
  176POPC   C4A 2421   0.623   9.356   5.626
  176POPC   C1B 2422   0.209   9.341   4.471
  176POPC   C2B 2423   0.168   9.374   4.938
  176POPC   C3B 2424   0.187   9.215   5.364
  176POPC   C4B 2425   0.137   9.340   5.782
  177POPC   NC3 2426   3.542   0.891   3.816
  177POPC   PO4 2427   3.214   0.267   3.898
  177POPC   GL1 2428   3.419   0.459   4.230
  177POPC   GL2 2429   3.641   0.200   4.294
  177POPC   C1A 2430   3.546   0.541   4.684
  177POPC   D2A 2431   3.670   0.515   5.114
  177POPC   C3A 2432   3.641   0.783   5.464
  177POPC   C4A 2433   3.582   0.548   5.866
  177POPC   C1B 2434   3.308   0.103   4.612
  177POPC   C2B 2435   3.218   0.263   5.029
  177POPC   C3B 2436   3.234   0.480   5.421
  177POPC   C4B 2437   3.129   0.327   5.820
  178POPC   NC3 2438   2.955   4.353   3.979
  178POPC   PO4 2439   2.376   4.146   4.001
  178POPC   GL1 2440   2.563   4.247   4.362
  178POPC   GL2 2441   2.895   4.121   4.403
  178POPC   C1A 2442   2.654   4.330   4.791
  178POPC   D2A 2443   2.488   4.156   5.126
  178POPC   C3A 2444   2.608   4.351   5.502
  178POPC   C4A 2445   2.969   4.514   5.731
  178POPC   C1B 2446   3.065   3.876   4.697
  178POPC   C2B 2447   2.959   3.937   5.102
  178POPC   C3B 2448   3.112   4.091   5.482
  178POPC   C4B 2449   3.255   4.040   5.883
  179POPC   NC3 2450   9.478   7.815   3.864
  179POPC   PO4 2451   8.886   8.165   3.750
  179POPC   GL1 2452   9.061   8.145   4.204
  179POPC   GL2 2453   9.411   8.008   4.321
  179POPC   C1A 2454   9.043   7.998   4.663
  179POPC   D2A 2455   9.319   7.980   5.014
  179POPC   C3A 2456   9.142   7.886   5.391
  179POPC   C4A 2457   9.477   7.934   5.667
  179POPC   C1B 2458   9.630   7.821   4.640
  179POPC   C2B 2459   9.769   7.727   5.015
  179POPC   C3B 2460   9.868   7.659   5.409
  179POPC   C4B 2461   9.781   7.520   5.762
  180POPC   NC3 2462   9.468   6.296   3.571
  180POPC   PO4 2463   9.401   6.668   4.066
  180POPC   GL1 2464   9.528   6.604   4.460
  180POPC   GL2 2465   9.521   6.307   4.459
  180POPC   C1A 2466   9.596   6.483   4.902
  180POPC   D2A 2467   9.749   6.356   5.296
  180POPC   C3A 2468   9.691   6.665   5.609
  180POPC   C4A 2469   9.500   6.640   6.022
  180POPC   C1B 2470   9.285   6.088   4.750
  180POPC   C2B 2471   9.229   6.226   5.146
  180POPC   C3B 2472   9.244   6.434   5.505
  180POPC   C4B 2473   9.203   6.230   5.880
  181POPC   NC3 2474   3.235   7.213   4.076
  181POPC   PO4 2475   3.841   7.446   3.946
  181POPC   GL1 2476   3.631   7.398   4.407
  181POPC   GL2 2477   3.241   7.441   4.522
  181POPC   C1A 2478   3.602   7.410   4.889
  181POPC   D2A 2479   3.399   7.256   5.267
  181POPC   C3A 2480   3.609   7.160   5.659
  181POPC   C4A 2481   3.758   6.794   5.912
  181POPC   C1B 2482   3.147   7.033   4.770
  181POPC   C2B 2483   3.158   6.809   5.184
  181POPC   C3B 2484   3.062   7.009   5.584
  181POPC   C4B 2485   3.095   7.452   5.658
  182POPC   NC3 2486   9.759   9.925   4.039
  182POPC   PO4 2487   9.160   9.830   4.252
  182POPC   GL1 2488   9.194  10.144   4.520
  182POPC   GL2 2489   9.447  10.265   4.257
  182POPC   C1A 2490   9.179   9.958   4.947
  182POPC   D2A 2491   9.477   9.890   5.265
  182POPC   C3A 2492   9.425   9.968   5.698
  182POPC   C4A 2493   9.251  10.106   6.126
  182POPC   C1B 2494   9.669  10.421   4.596
  182POPC   C2B 2495   9.519  10.376   5.002
  182POPC   C3B 2496   9.624  10.372   5.414
  182POPC   C4B 2497   9.416  10.457   5.806
  183POPC   NC3 2498   9.583   2.725   3.800
  183POPC   PO4 2499   9.713   2.285   4.326
  183POPC   GL1 2500   9.464   2.672   4.291
  183POPC   GL2 2501   9.182   2.868   4.107
  183POPC   C1A 2502   9.559   2.864   4.672
  183POPC   D2A 2503   9.574   2.565   5.009
  183POPC   C3A 2504   9.424   2.734   5.376
  183POPC   C4A 2505   9.576   2.584   5.762
  183POPC   C1B 2506   9.049   2.855   4.535
  183POPC   C2B 2507   9.137   3.004   4.943
  183POPC   C3B 2508   9.017   3.057   5.353
  183POPC   C4B 2509   9.118   2.867   5.764
  184POPC   NC3 2510   8.721   7.645   3.955
  184POPC   PO4 2511   8.324   8.152   3.973
  184POPC   GL1 2512   8.564   8.021   4.316
  184POPC   GL2 2513   8.547   7.695   4.430
  184POPC   C1A 2514   8.563   8.113   4.761
  184POPC   D2A 2515   8.412   7.959   5.154
  184POPC   C3A 2516   8.535   8.126   5.559
  184POPC   C4A 2517   8.926   8.176   5.755
  184POPC   C1B 2518   8.729   7.553   4.810
  184POPC   C2B 2519   8.504   7.459   5.188
  184POPC   C3B 2520   8.454   7.452   5.621
  184POPC   C4B 2521   8.768   7.689   5.769
  185POPC   NC3 2522   4.699   0.557   3.834
  185POPC   PO4 2523   5.325   0.161   3.919
  185POPC   GL1 2524   5.134   0.325   4.288
  185POPC   GL2 2525   4.815   0.315   4.249
  185POPC   C1A 2526   5.247   0.569   4.678
  185POPC   D2A 2527   5.045   0.671   5.061
  185POPC   C3A 2528   5.050   0.398   5.378
  185POPC   C4A 2529   5.104   0.562   5.756
  185POPC   C1B 2530   4.757   0.445   4.654
  185POPC   C2B 2531   4.591   0.396   5.065
  185POPC   C3B 2532   4.599   0.178   5.465
  185POPC   C4B 2533   4.720   0.179   5.904
  186POPC   NC3 2534   5.716  10.405   3.857
  186POPC   PO4 2535   5.346  10.025   3.596
  186POPC   GL1 2536   5.430  10.213   4.190
  186POPC   GL2 2537   5.756  10.155   4.320
  186POPC   C1A 2538   5.403  10.067   4.658
  186POPC   D2A 2539   5.589  10.069   5.046
  186POPC   C3A 2540   5.333  10.254   5.371
  186POPC   C4A 2541   5.369  10.141   5.788
  186POPC   C1B 2542   5.845  10.400   4.706
  186POPC   C2B 2543   5.860  10.493   5.157
  186POPC   C3B 2544   5.799  10.321   5.556
  186POPC   C4B 2545   5.856  10.143   5.979
  187POPC   NC3 2546  10.360   7.902   3.977
  187POPC   PO4 2547   9.814   7.581   4.081
  187POPC   GL1 2548   9.906   7.981   4.209
  187POPC   GL2 2549  10.119   7.800   4.435
  187POPC   C1A 2550   9.907   8.222   4.608
  187POPC   D2A 2551  10.089   8.131   4.972
  187POPC   C3A 2552   9.846   8.147   5.303
  187POPC   C4A 2553   9.869   8.236   5.715
  187POPC   C1B 2554  10.453   7.937   4.644
  187POPC   C2B 2555   0.030   7.850   5.046
  187POPC   C3B 2556  10.316   7.886   5.414
  187POPC   C4B 2557  10.197   7.802   5.821
  188POPC   NC3 2558   2.835   1.533   3.957
  188POPC   PO4 2559   2.560   0.900   3.871
  188POPC   GL1 2560   2.549   1.184   4.163
  188POPC   GL2 2561   2.913   1.108   4.250
  188POPC   C1A 2562   2.502   1.222   4.575
  188POPC   D2A 2563   2.689   0.971   4.871
  188POPC   C3A 2564   2.395   0.849   5.173
  188POPC   C4A 2565   2.362   0.998   5.598
  188POPC   C1B 2566   3.005   1.394   4.597
  188POPC   C2B 2567   2.945   1.413   5.035
  188POPC   C3B 2568   2.749   1.190   5.341
  188POPC   C4B 2569   2.823   1.245   5.775
  189POPC   NC3 2570   5.634   8.826   3.864
  189POPC   PO4 2571   6.207   8.315   3.853
  189POPC   GL1 2572   5.935   8.380   4.248
  189POPC   GL2 2573   5.693   8.644   4.321
  189POPC   C1A 2574   5.798   8.344   4.694
  189POPC   D2A 2575   5.927   8.483   5.082
  189POPC   C3A 2576   5.738   8.188   5.325
  189POPC   C4A 2577   5.562   8.283   5.673
  189POPC   C1B 2578   5.544   8.950   4.649
  189POPC   C2B 2579   5.676   9.030   5.070
  189POPC   C3B 2580   5.571   8.809   5.454
  189POPC   C4B 2581   5.625   8.974   5.859
  190POPC   NC3 2582   7.356   1.207   3.913
  190POPC   PO4 2583   6.769   0.855   3.912
  190POPC   GL1 2584   7.055   0.929   4.250
  190POPC   GL2 2585   7.085   1.273   4.323
  190POPC   C1A 2586   6.994   0.969   4.713
  190POPC   D2A 2587   7.032   1.121   5.130
  190POPC   C3A 2588   6.879   0.854   5.477
  190POPC   C4A 2589   7.108   0.841   5.913
  190POPC   C1B 2590   7.253   1.420   4.707
  190POPC   C2B 2591   7.065   1.634   4.992
  190POPC   C3B 2592   7.066   1.632   5.384
  190POPC   C4B 2593   7.110   1.272   5.626
  191POPC   NC3 2594   5.884   7.982   3.925
  191POPC   PO4 2595   5.224   8.139   3.905
  191POPC   GL1 2596   5.517   8.100   4.281
  191POPC   GL2 2597   5.813   7.892   4.414
  191POPC   C1A 2598   5.393   7.975   4.701
  191POPC   D2A 2599   5.232   8.147   5.054
  191POPC   C3A 2600   5.171   7.932   5.371
  191POPC   C4A 2601   5.415   7.762   5.641
  191POPC   C1B 2602   5.859   7.867   4.868
  191POPC   C2B 2603   5.723   7.670   5.231
  191POPC   C3B 2604   5.915   7.753   5.610
  191POPC   C4B 2605   6.083   8.113   5.794
  192POPC   NC3 2606   8.094   4.120   3.663
  192POPC   PO4 2607   7.873   4.739   3.997
  192POPC   GL1 2608   7.862   4.498   4.518
  192POPC   GL2 2609   8.081   4.104   4.536
  192POPC   C1A 2610   7.957   4.368   4.932
  192POPC   D2A 2611   8.167   4.026   5.072
  192POPC   C3A 2612   8.067   4.121   5.460
  192POPC   C4A 2613   7.865   4.274   5.833
  192POPC   C1B 2614   7.762   3.894   4.805
  192POPC   C2B 2615   7.696   3.862   5.222
  192POPC   C3B 2616   7.636   3.856   5.657
  192POPC   C4B 2617   7.661   3.828   6.102
  193POPC   NC3 2618   0.298   0.489   3.770
  193POPC   PO4 2619  10.125   0.306   3.854
  193POPC   GL1 2620  10.063   0.280   4.254
  193POPC   GL2 2621  10.118   0.617   4.296
  193POPC   C1A 2622  10.208   0.024   4.625
  193POPC   D2A 2623  10.305   0.041   5.041
  193POPC   C3A 2624  10.252   0.309   5.376
  193POPC   C4A 2625  10.141   0.218   5.777
  193POPC   C1B 2626   9.926   0.418   4.713
  193POPC   C2B 2627   9.778   0.305   5.140
  193POPC   C3B 2628   9.699   0.336   5.603
  193POPC   C4B 2629   9.843   0.585   5.958
  194POPC   NC3 2630   7.374   8.466   3.871
  194POPC   PO4 2631   6.887   8.993   3.657
  194POPC   GL1 2632   6.928   8.858   4.208
  194POPC   GL2 2633   7.117   8.556   4.289
  194POPC   C1A 2634   6.910   8.769   4.692
  194POPC   D2A 2635   7.184   8.758   5.078
  194POPC   C3A 2636   7.058   8.577   5.491
  194POPC   C4A 2637   6.811   8.713   5.852
  194POPC   C1B 2638   7.421   8.615   4.630
  194POPC   C2B 2639   7.691   8.572   4.993
  194POPC   C3B 2640   7.570   8.474   5.408
  194POPC   C4B 2641   7.500   8.767   5.736
  195POPC   NC3 2642   3.826   9.567   3.956
  195POPC   PO4 2643   4.453   9.692   3.883
  195POPC   GL1 2644   4.404   9.318   4.197
  195POPC   GL2 2645   4.111   9.172   4.239
  195POPC   C1A 2646   4.456   9.098   4.631
  195POPC   D2A 2647   4.343   9.273   5.063
  195POPC   C3A 2648   4.458   9.138   5.469
  195POPC   C4A 2649   4.397   9.223   5.925
  195POPC   C1B 2650   4.034   9.393   4.661
  195POPC   C2B 2651   4.022   9.659   5.093
  195POPC   C3B 2652   4.122   9.539   5.527
  195POPC   C4B 2653   3.981   9.138   5.674
  196POPC   NC3 2654   8.795   0.368   3.854
  196POPC   PO4 2655   9.214   0.940   3.889
  196POPC   GL1 2656   9.116   0.710   4.240
  196POPC   GL2 2657   8.928   0.420   4.331
  196POPC   C1A 2658   9.118   0.779   4.664
  196POPC   D2A 2659   8.903   0.902   5.028
  196POPC   C3A 2660   8.976   0.696   5.402
  196POPC   C4A 2661   8.619   0.596   5.616
  196POPC   C1B 2662   8.671   0.514   4.687
  196POPC   C2B 2663   8.661   0.401   5.109
  196POPC   C3B 2664   8.783   0.146   5.450
  196POPC   C4B 2665   8.608   0.157   5.855
  197POPC   NC3 2666  10.246   2.905   4.059
  197POPC   PO4 2667   9.899   2.391   3.750
  197POPC   GL1 2668  10.160   2.434   4.208
  197POPC   GL2 2669  10.425   2.631   4.423
  197POPC   C1A 2670  10.175   2.373   4.740
  197POPC   D2A 2671  10.065   2.740   4.988
  197POPC   C3A 2672   9.933   2.651   5.394
  197POPC   C4A 2673  10.058   2.836   5.753
  197POPC   C1B 2674  10.407   3.027   4.657
  197POPC   C2B 2675  10.485   3.062   5.046
  197POPC   C3B 2676  10.446   2.801   5.377
  197POPC   C4B 2677   0.067   2.923   5.759
  198POPC   NC3 2678   8.315   3.572   3.839
  198POPC   PO4 2679   8.936   3.317   3.787
  198POPC   GL1 2680   8.672   3.358   4.178
  198POPC   GL2 2681   8.714   3.680   4.238
  198POPC   C1A 2682   8.761   3.279   4.628
  198POPC   D2A 2683   8.590   3.170   5.046
  198POPC   C3A 2684   8.560   3.345   5.431
  198POPC   C4A 2685   8.826   3.273   5.775
  198POPC   C1B 2686   8.538   3.769   4.637
  198POPC   C2B 2687   8.558   3.692   5.039
  198POPC   C3B 2688   8.529   3.883   5.404
  198POPC   C4B 2689   8.596   3.714   5.788
  199POPC   NC3 2690   7.806   6.996   4.240
  199POPC   PO4 2691   8.322   7.401   4.063
  199POPC   GL1 2692   8.159   7.337   4.465
  199POPC   GL2 2693   7.802   7.343   4.596
  199POPC   C1A 2694   8.201   7.198   4.875
  199POPC   D2A 2695   7.945   7.055   5.206
  199POPC   C3A 2696   7.957   7.294   5.569
  199POPC   C4A 2697   8.040   7.221   5.997
  199POPC   C1B 2698   7.572   7.140   4.873
  199POPC   C2B 2699   7.558   7.414   5.215
  199POPC   C3B 2700   7.336   7.465   5.563
  199POPC   C4B 2701   7.553   7.267   5.886
  200POPC   NC3 2702   0.421   7.813   3.800
  200POPC   PO4 2703  10.491   8.346   3.953
  200POPC   GL1 2704   0.284   8.069   4.234
  200POPC   GL2 2705   0.228   7.704   4.259
  200POPC   C1A 2706   0.453   8.113   4.670
  200POPC   D2A 2707   0.523   7.995   5.116
  200POPC   C3A 2708   0.249   8.180   5.399
  200POPC   C4A 2709   0.042   8.173   5.786
  200POPC   C1B 2710   0.342   7.615   4.658
  200POPC   C2B 2711   0.374   7.479   5.067
  200POPC   C3B 2712   0.288   7.667   5.470
  200POPC   C4B 2713   0.577   7.967   5.700
  201POPC   NC3 2714   7.424   7.015   3.822
  201POPC   PO4 2715   7.619   6.574   4.257
  201POPC   GL1 2716   7.306   6.905   4.369
  201POPC   GL2 2717   7.083   7.142   4.190
  201POPC   C1A 2718   7.090   6.849   4.767
  201POPC   D2A 2719   7.356   6.742   5.134
  201POPC   C3A 2720   7.519   6.951   5.494
  201POPC   C4A 2721   7.298   6.842   5.903
  201POPC   C1B 2722   7.150   7.327   4.636
  201POPC   C2B 2723   7.115   7.223   5.102
  201POPC   C3B 2724   7.017   7.052   5.499
  201POPC   C4B 2725   6.986   7.252   5.883
  202POPC   NC3 2726   8.912  10.208   4.069
  202POPC   PO4 2727   8.455   9.744   3.927
  202POPC   GL1 2728   8.537  10.007   4.340
  202POPC   GL2 2729   8.587  10.397   4.415
  202POPC   C1A 2730   8.690  10.085   4.779
  202POPC   D2A 2731   8.498  10.415   5.052
  202POPC   C3A 2732   8.453  10.247   5.489
  202POPC   C4A 2733   8.504   9.849   5.746
  202POPC   C1B 2734   8.906   0.054   4.676
  202POPC   C2B 2735   9.015  10.427   5.048
  202POPC   C3B 2736   9.119  10.263   5.416
  202POPC   C4B 2737   8.884  10.217   5.793
  203POPC   NC3 2738   9.589   5.606   3.625
  203POPC   PO4 2739   9.588   6.151   3.988
  203POPC   GL1 2740   9.742   5.898   4.306
  203POPC   GL2 2741   9.438   5.779   4.369
  203POPC   C1A 2742   9.774   5.965   4.750
  203POPC   D2A 2743   9.565   5.834   5.106
  203POPC   C3A 2744   9.509   5.974   5.504
  203POPC   C4A 2745   9.714   6.207   5.823
  203POPC   C1B 2746   9.287   5.545   4.715
  203POPC   C2B 2747   9.424   5.357   5.094
  203POPC   C3B 2748   9.320   5.462   5.481
  203POPC   C4B 2749   9.382   5.647   5.845
  204POPC   NC3 2750   6.424   1.926   3.939
  204POPC   PO4 2751   6.045   2.435   3.874
  204POPC   GL1 2752   6.106   2.206   4.275
  204POPC   GL2 2753   6.448   2.090   4.400
  204POPC   C1A 2754   6.127   2.254   4.740
  204POPC   D2A 2755   6.170   2.054   5.125
  204POPC   C3A 2756   6.234   2.264   5.479
  204POPC   C4A 2757   6.163   2.106   5.882
  204POPC   C1B 2758   6.421   1.827   4.743
  204POPC   C2B 2759   6.604   1.798   5.157
  204POPC   C3B 2760   6.463   1.797   5.584
  204POPC   C4B 2761   6.785   1.610   5.835
  205POPC   NC3 2762   1.599   3.415   3.907
  205POPC   PO4 2763   1.706   2.878   4.130
  205POPC   GL1 2764   1.890   3.211   4.359
  205POPC   GL2 2765   1.754   3.538   4.384
  205POPC   C1A 2766   1.730   3.228   4.785
  205POPC   D2A 2767   1.859   3.030   5.128
  205POPC   C3A 2768   1.828   3.265   5.450
  205POPC   C4A 2769   2.189   3.109   5.632
  205POPC   C1B 2770   2.055   3.624   4.728
  205POPC   C2B 2771   1.955   3.719   5.160
  205POPC   C3B 2772   2.161   3.638   5.538
  205POPC   C4B 2773   1.963   3.502   5.902
  206POPC   NC3 2774   6.352   3.558   3.925
  206POPC   PO4 2775   6.850   3.881   3.932
  206POPC   GL1 2776   6.690   3.676   4.333
  206POPC   GL2 2777   6.403   3.459   4.409
  206POPC   C1A 2778   6.635   3.666   4.807
  206POPC   D2A 2779   6.559   3.407   5.176
  206POPC   C3A 2780   6.512   3.665   5.581
  206POPC   C4A 2781   6.384   3.899   5.999
  206POPC   C1B 2782   6.194   3.370   4.791
  206POPC   C2B 2783   6.121   3.156   5.191
  206POPC   C3B 2784   6.225   3.260   5.604
  206POPC   C4B 2785   6.012   3.576   5.821
  207POPC   NC3 2786   9.889   7.192   3.854
  207POPC   PO4 2787   0.049   7.513   3.790
  207POPC   GL1 2788  10.317   7.403   4.172
  207POPC   GL2 2789  10.075   7.153   4.314
  207POPC   C1A 2790  10.399   7.372   4.633
  207POPC   D2A 2791  10.329   7.119   5.016
  207POPC   C3A 2792  10.283   7.360   5.400
  207POPC   C4A 2793  10.444   7.339   5.809
  207POPC   C1B 2794   9.871   7.343   4.671
  207POPC   C2B 2795   9.740   7.231   5.059
  207POPC   C3B 2796   9.816   7.133   5.429
  207POPC   C4B 2797  10.021   7.070   5.787
  208POPC   NC3 2798   0.822  10.011   4.095
  208POPC   PO4 2799   0.476   0.075   3.906
  208POPC   GL1 2800   0.332  10.391   4.293
  208POPC   GL2 2801   0.341  10.023   4.271
  208POPC   C1A 2802   0.209   0.001   4.703
  208POPC   D2A 2803   0.448  10.428   5.065
  208POPC   C3A 2804   0.454  10.219   5.462
  208POPC   C4A 2805   0.260  10.239   5.842
  208POPC   C1B 2806   0.526  10.069   4.693
  208POPC   C2B 2807   0.400   9.837   5.046
  208POPC   C3B 2808   0.241   9.724   5.445
  208POPC   C4B 2809   0.409   9.758   5.860
  209POPC   NC3 2810   4.051   0.376   3.970
  209POPC   PO4 2811   4.362   0.843   3.715
  209POPC   GL1 2812   4.370   0.647   4.230
  209POPC   GL2 2813   4.325   0.305   4.394
  209POPC   C1A 2814   4.333   0.728   4.689
  209POPC   D2A 2815   4.136   0.695   5.114
  209POPC   C3A 2816   4.348   0.634   5.459
  209POPC   C4A 2817   4.337   0.499   5.841
  209POPC   C1B 2818   4.031   0.297   4.745
  209POPC   C2B 2819   4.117   0.190   5.185
  209POPC   C3B 2820   3.930   0.342   5.561
  209POPC   C4B 2821   3.965   0.199   6.006
  210POPC   NC3 2822   1.962   8.137   3.796
  210POPC   PO4 2823   2.119   7.442   3.762
  210POPC   GL1 2824   2.144   7.621   4.191
  210POPC   GL2 2825   2.055   7.990   4.283
  210POPC   C1A 2826   2.315   7.629   4.617
  210POPC   D2A 2827   2.465   7.749   5.037
  210POPC   C3A 2828   2.255   7.619   5.413
  210POPC   C4A 2829   2.090   7.548   5.816
  210POPC   C1B 2830   1.956   7.962   4.734
  210POPC   C2B 2831   2.048   8.012   5.170
  210POPC   C3B 2832   1.814   7.879   5.499
  210POPC   C4B 2833   1.681   7.860   5.919
  211POPC   NC3 2834   1.794   9.787   4.017
  211POPC   PO4 2835   2.013  10.399   3.771
  211POPC   GL1 2836   1.889  10.297   4.181
  211POPC   GL2 2837   1.580  10.474   4.257
  211POPC   C1A 2838   2.006  10.235   4.627
  211POPC   D2A 2839   2.150  10.381   5.045
  211POPC   C3A 2840   2.059  10.150   5.423
  211POPC   C4A 2841   1.858  10.310   5.772
  211POPC   C1B 2842   1.485  10.332   4.671
  211POPC   C2B 2843   1.641  10.106   4.999
  211POPC   C3B 2844   1.547  10.176   5.403
  211POPC   C4B 2845   1.699   9.843   5.692
  212POPC   NC3 2846   2.330   5.643   3.769
  212POPC   PO4 2847   1.694   5.363   3.703
  212POPC   GL1 2848   1.846   5.427   4.171
  212POPC   GL2 2849   1.543   5.410   4.366
  212POPC   C1A 2850   1.995   5.574   4.648
  212POPC   D2A 2851   2.165   5.856   5.014
  212POPC   C3A 2852   2.323   5.768   5.449
  212POPC   C4A 2853   2.202   5.601   5.861
  212POPC   C1B 2854   1.518   5.768   4.667
  212POPC   C2B 2855   1.691   5.754   5.082
  212POPC   C3B 2856   1.829   5.604   5.521
  212POPC   C4B 2857   1.759   5.813   5.922
  213POPC   NC3 2858   3.071   9.501   3.924
  213POPC   PO4 2859   3.739   9.125   3.856
  213POPC   GL1 2860   3.629   9.263   4.320
  213POPC   GL2 2861   3.577   9.625   4.388
  213POPC   C1A 2862   3.584   9.176   4.757
  213POPC   D2A 2863   3.843   9.125   5.114
  213POPC   C3A 2864   3.650   9.399   5.360
  213POPC   C4A 2865   3.548   9.391   5.769
  213POPC   C1B 2866   3.246   9.567   4.671
  213POPC   C2B 2867   3.188   9.377   5.071
  213POPC   C3B 2868   3.163   9.532   5.488
  213POPC   C4B 2869   3.000   9.813   5.809
  214POPC   NC3 2870   1.753   7.159   3.803
  214POPC   PO4 2871   2.235   6.769   3.919
  214POPC   GL1 2872   2.097   7.083   4.203
  214POPC   GL2 2873   1.781   7.038   4.323
  214POPC   C1A 2874   2.174   7.141   4.645
  214POPC   D2A 2875   2.330   7.261   5.030
  214POPC   C3A 2876   2.170   7.107   5.411
  214POPC   C4A 2877   2.037   7.024   5.835
  214POPC   C1B 2878   1.788   7.460   4.585
  214POPC   C2B 2879   1.870   7.538   5.053
  214POPC   C3B 2880   1.735   7.368   5.485
  214POPC   C4B 2881   1.624   7.344   5.941
  215POPC   NC3 2882   1.791   6.456   3.991
  215POPC   PO4 2883   2.362   6.073   3.925
  215POPC   GL1 2884   2.106   6.127   4.255
  215POPC   GL2 2885   2.194   6.463   4.322
  215POPC   C1A 2886   1.911   6.116   4.657
  215POPC   D2A 2887   1.835   6.310   5.062
  215POPC   C3A 2888   1.881   6.095   5.439
  215POPC   C4A 2889   2.118   6.135   5.787
  215POPC   C1B 2890   2.021   6.644   4.675
  215POPC   C2B 2891   2.180   6.720   5.086
  215POPC   C3B 2892   2.108   6.604   5.536
  215POPC   C4B 2893   1.726   6.517   5.728
  216POPC   NC3 2894   4.619   2.107   4.099
  216POPC   PO4 2895   5.249   1.849   4.022
  216POPC   GL1 2896   5.217   1.992   4.395
  216POPC   GL2 2897   4.899   2.067   4.517
  216POPC   C1A 2898   5.220   1.734   4.764
  216POPC   D2A 2899   4.963   1.778   5.116
  216POPC   C3A 2900   5.231   1.660   5.408
  216POPC   C4A 2901   5.397   1.877   5.704
  216POPC   C1B 2902   4.807   2.380   4.822
  216POPC   C2B 2903   4.844   2.402   5.282
  216POPC   C3B 2904   4.919   2.063   5.582
  216POPC   C4B 2905   4.662   1.801   5.817
  217POPC   NC3 2906   7.959   9.969   3.884
  217POPC   PO4 2907   7.662   0.154   3.874
  217POPC   GL1 2908   7.852   0.175   4.281
  217POPC   GL2 2909   8.103  10.414   4.225
  217POPC   C1A 2910   7.749   0.073   4.715
  217POPC   D2A 2911   7.972  10.445   5.093
  217POPC   C3A 2912   7.694  10.360   5.418
  217POPC   C4A 2913   7.576  10.473   5.816
  217POPC   C1B 2914   8.157  10.219   4.644
  217POPC   C2B 2915   8.241   9.967   5.000
  217POPC   C3B 2916   8.124   9.844   5.372
  217POPC   C4B 2917   8.024  10.085   5.720
  218POPC   NC3 2918   5.009   7.733   3.970
  218POPC   PO4 2919   4.583   7.984   4.254
  218POPC   GL1 2920   4.915   7.837   4.471
  218POPC   GL2 2921   5.037   8.139   4.389
  218POPC   C1A 2922   4.942   7.747   4.915
  218POPC   D2A 2923   4.719   7.633   5.306
  218POPC   C3A 2924   4.916   7.621   5.711
  218POPC   C4A 2925   4.805   7.434   6.152
  218POPC   C1B 2926   4.850   8.287   4.761
  218POPC   C2B 2927   4.681   8.139   5.140
  218POPC   C3B 2928   4.733   8.105   5.554
  218POPC   C4B 2929   5.113   8.114   5.864
  219POPC   NC3 2930   2.718   8.631   3.965
  219POPC   PO4 2931   3.178   9.134   4.176
  219POPC   GL1 2932   3.024   8.737   4.352
  219POPC   GL2 2933   2.668   8.779   4.436
  219POPC   C1A 2934   2.906   8.438   4.721
  219POPC   D2A 2935   2.866   8.600   5.094
  219POPC   C3A 2936   2.962   8.423   5.426
  219POPC   C4A 2937   2.961   8.725   5.728
  219POPC   C1B 2938   2.446   8.708   4.811
  219POPC   C2B 2939   2.376   8.844   5.196
  219POPC   C3B 2940   2.493   8.654   5.531
  219POPC   C4B 2941   2.551   8.431   5.881
  220POPC   NC3 2942   6.268   7.178   4.135
  220POPC   PO4 2943   6.761   7.484   3.897
  220POPC   GL1 2944   6.693   7.402   4.380
  220POPC   GL2 2945   6.661   7.056   4.496
  220POPC   C1A 2946   6.709   7.417   4.858
  220POPC   D2A 2947   6.613   7.140   5.191
  220POPC   C3A 2948   6.560   7.303   5.579
  220POPC   C4A 2949   6.446   7.163   5.976
  220POPC   C1B 2950   6.290   7.107   4.790
  220POPC   C2B 2951   6.136   6.914   5.178
  220POPC   C3B 2952   6.222   6.867   5.615
  220POPC   C4B 2953   5.917   6.962   5.966
  221POPC   NC3 2954   1.036   4.702   3.817
  221POPC   PO4 2955   1.183   5.269   4.021
  221POPC   GL1 2956   1.229   4.973   4.319
  221POPC   GL2 2957   1.092   4.671   4.315
  221POPC   C1A 2958   1.379   4.957   4.692
  221POPC   D2A 2959   1.514   5.295   4.921
  221POPC   C3A 2960   1.496   5.227   5.350
  221POPC   C4A 2961   1.522   4.985   5.745
  221POPC   C1B 2962   0.892   4.760   4.691
  221POPC   C2B 2963   1.017   5.021   5.045
  221POPC   C3B 2964   1.138   4.846   5.439
  221POPC   C4B 2965   1.024   5.130   5.757
  222POPC   NC3 2966   2.830   0.541   3.924
  222POPC   PO4 2967   2.266   0.217   4.155
  222POPC   GL1 2968   2.565   0.321   4.419
  222POPC   GL2 2969   2.930   0.287   4.333
  222POPC   C1A 2970   2.428   0.277   4.830
  222POPC   D2A 2971   2.336   0.329   5.225
  222POPC   C3A 2972   2.364   0.076   5.517
  222POPC   C4A 2973   2.430   0.307   5.866
  222POPC   C1B 2974   2.937   0.534   4.705
  222POPC   C2B 2975   2.795   0.513   5.131
  222POPC   C3B 2976   2.784   0.706   5.528
  222POPC   C4B 2977   2.774   0.672   5.964
  223POPC   NC3 2978   8.504   5.774   3.927
  223POPC   PO4 2979   9.218   5.696   3.916
  223POPC   GL1 2980   8.917   5.754   4.287
  223POPC   GL2 2981   8.704   6.042   4.350
  223POPC   C1A 2982   8.712   5.519   4.637
  223POPC   D2A 2983   8.896   5.304   4.986
  223POPC   C3A 2984   8.830   5.323   5.408
  223POPC   C4A 2985   8.851   5.418   5.807
  223POPC   C1B 2986   8.798   5.996   4.817
  223POPC   C2B 2987   9.045   5.761   5.135
  223POPC   C3B 2988   8.981   5.862   5.558
  223POPC   C4B 2989   8.607   5.981   5.784
  224POPC   NC3 2990   3.318  10.320   3.943
  224POPC   PO4 2991   2.745   9.884   3.875
  224POPC   GL1 2992   3.116   9.898   4.250
  224POPC   GL2 2993   3.422  10.117   4.394
  224POPC   C1A 2994   3.046  10.035   4.700
  224POPC   D2A 2995   3.216  10.257   5.051
  224POPC   C3A 2996   3.254  10.092   5.475
  224POPC   C4A 2997   3.236  10.253   5.922
  224POPC   C1B 2998   3.716  10.333   4.649
  224POPC   C2B 2999   3.664   0.018   5.024
  224POPC   C3B 3000   3.511   0.045   5.451
  224POPC   C4B 3001   3.714  10.327   5.790
  225POPC   NC3 3002   6.686  10.190   3.968
  225POPC   PO4 3003   6.045  10.012   3.927
  225POPC   GL1 3004   6.277  10.193   4.313
  225POPC   GL2 3005   6.627  10.353   4.428
  225POPC   C1A 3006   6.303  10.180   4.764
  225POPC   D2A 3007   6.166  10.080   5.164
  225POPC   C3A 3008   6.331  10.413   5.425
  225POPC   C4A 3009   6.152   0.025   5.827
  225POPC   C1B 3010   6.822  10.095   4.753
  225POPC   C2B 3011   6.685  10.110   5.149
  225POPC   C3B 3012   6.696   9.906   5.535
  225POPC   C4B 3013   6.624  10.215   5.828
  226POPC   NC3 3014   6.619   8.659   3.897
  226POPC   PO4 3015   6.908   8.125   4.032
  226POPC   GL1 3016   6.646   8.396   4.371
  226POPC   GL2 3017   6.368   8.622   4.330
  226POPC   C1A 3018   6.496   8.512   4.819
  226POPC   D2A 3019   6.644   8.695   5.198
  226POPC   C3A 3020   6.408   8.530   5.532
  226POPC   C4A 3021   6.355   8.482   6.004
  226POPC   C1B 3022   6.083   8.779   4.648
  226POPC   C2B 3023   6.197   8.932   5.048
  226POPC   C3B 3024   6.044   8.999   5.455
  226POPC   C4B 3025   5.955   8.620   5.722
  227POPC   NC3 3026   7.140   1.835   3.854
  227POPC   PO4 3027   6.702   2.337   3.994
  227POPC   GL1 3028   6.946   2.165   4.325
  227POPC   GL2 3029   7.018   1.821   4.363
  227POPC   C1A 3030   6.862   2.047   4.768
  227POPC   D2A 3031   7.072   2.126   5.128
  227POPC   C3A 3032   6.870   2.087   5.536
  227POPC   C4A 3033   7.066   2.211   5.914
  227POPC   C1B 3034   7.345   1.960   4.680
  227POPC   C2B 3035   7.521   1.870   5.079
  227POPC   C3B 3036   7.416   2.015   5.478
  227POPC   C4B 3037   7.275   1.768   5.827
  228POPC   NC3 3038   9.453   1.318   3.811
  228POPC   PO4 3039  10.080   1.503   3.822
  228POPC   GL1 3040   9.835   1.420   4.206
  228POPC   GL2 3041   9.743   1.063   4.179
  228POPC   C1A 3042   9.813   1.369   4.693
  228POPC   D2A 3043   9.832   1.108   5.080
  228POPC   C3A 3044   9.719   1.185   5.478
  228POPC   C4A 3045   9.769   1.523   5.712
  228POPC   C1B 3046   9.391   1.182   4.477
  228POPC   C2B 3047   9.334   1.163   4.940
  228POPC   C3B 3048   9.236   1.141   5.375
  228POPC   C4B 3049   9.305   1.318   5.823
  229POPC   NC3 3050   9.334   5.254   4.074
  229POPC   PO4 3051   9.893   5.294   3.837
  229POPC   GL1 3052   9.816   5.091   4.293
  229POPC   GL2 3053   9.539   4.843   4.334
  229POPC   C1A 3054   9.687   5.031   4.774
  229POPC   D2A 3055   9.670   4.771   5.150
  229POPC   C3A 3056   9.673   5.069   5.481
  229POPC   C4A 3057   9.624   5.191   5.928
  229POPC   C1B 3058   9.190   5.014   4.636
  229POPC   C2B 3059   9.212   4.927   5.004
  229POPC   C3B 3060   9.191   4.944   5.374
  229POPC   C4B 3061   9.185   5.047   5.745
  230POPC   NC3 3062   7.085   0.531   3.811
  230POPC   PO4 3063   7.688   0.820   3.959
  230POPC   GL1 3064   7.459   0.536   4.258
  230POPC   GL2 3065   7.097   0.432   4.303
  230POPC   C1A 3066   7.316   0.559   4.712
  230POPC   D2A 3067   7.116   0.599   5.102
  230POPC   C3A 3068   7.383   0.750   5.442
  230POPC   C4A 3069   7.502   0.526   5.821
  230POPC   C1B 3070   7.037   0.119   4.651
  230POPC   C2B 3071   7.277   0.103   5.036
  230POPC   C3B 3072   7.324   0.228   5.431
  230POPC   C4B 3073   7.039   0.411   5.677
  231POPC   NC3 3074   1.951   4.346   4.009
  231POPC   PO4 3075   1.915   3.737   3.933
  231POPC   GL1 3076   2.076   3.927   4.326
  231POPC   GL2 3077   1.763   4.056   4.383
  231POPC   C1A 3078   2.151   4.224   4.695
  231POPC   D2A 3079   2.094   4.467   5.101
  231POPC   C3A 3080   2.106   4.162   5.457
  231POPC   C4A 3081   2.332   4.016   5.836
  231POPC   C1B 3082   1.695   3.992   4.803
  231POPC   C2B 3083   1.634   4.297   5.125
  231POPC   C3B 3084   1.647   4.359   5.573
  231POPC   C4B 3085   1.764   3.953   5.769
  232POPC   NC3 3086   2.483   7.168   3.875
  232POPC   PO4 3087   2.994   7.573   3.912
  232POPC   GL1 3088   2.747   7.400   4.274
  232POPC   GL2 3089   2.591   7.046   4.345
  232POPC   C1A 3090   2.733   7.341   4.721
  232POPC   D2A 3091   2.932   7.393   5.095
  232POPC   C3A 3092   2.668   7.316   5.416
  232POPC   C4A 3093   2.490   7.246   5.768
  232POPC   C1B 3094   2.551   6.818   4.727
  232POPC   C2B 3095   2.660   6.884   5.159
  232POPC   C3B 3096   2.590   6.772   5.609
  232POPC   C4B 3097   2.482   6.868   6.086
  233POPC   NC3 3098   4.013   1.304   3.909
  233POPC   PO4 3099   3.285   1.264   3.882
  233POPC   GL1 3100   3.598   1.232   4.199
  233POPC   GL2 3101   3.559   0.935   4.343
  233POPC   C1A 3102   3.674   1.358   4.618
  233POPC   D2A 3103   3.457   1.322   5.008
  233POPC   C3A 3104   3.646   1.449   5.409
  233POPC   C4A 3105   3.642   1.229   5.789
  233POPC   C1B 3106   3.249   0.957   4.660
  233POPC   C2B 3107   3.156   0.893   5.088
  233POPC   C3B 3108   3.237   1.112   5.452
  233POPC   C4B 3109   3.215   0.876   5.794
  234POPC   NC3 3110   2.032   8.708   3.720
  234POPC   PO4 3111   2.184   8.871   4.280
  234POPC   GL1 3112   1.869   8.783   4.562
  234POPC   GL2 3113   1.721   8.424   4.553
  234POPC   C1A 3114   1.937   8.944   4.960
  234POPC   D2A 3115   1.790   8.973   5.330
  234POPC   C3A 3116   2.118   9.070   5.591
  234POPC   C4A 3117   2.205   8.813   5.924
  234POPC   C1B 3118   2.002   8.444   4.917
  234POPC   C2B 3119   2.005   8.498   5.368
  234POPC   C3B 3120   1.859   8.411   5.796
  234POPC   C4B 3121   2.140   8.369   6.186
  235POPC   NC3 3122   6.863   2.747   4.156
  235POPC   PO4 3123   7.426   3.064   3.915
  235POPC   GL1 3124   7.353   2.870   4.290
  235POPC   GL2 3125   7.359   2.494   4.255
  235POPC   C1A 3126   7.280   2.959   4.701
  235POPC   D2A 3127   7.478   2.924   5.072
  235POPC   C3A 3128   7.263   2.989   5.459
  235POPC   C4A 3129   7.389   2.967   5.879
  235POPC   C1B 3130   7.164   2.457   4.681
  235POPC   C2B 3131   7.042   2.638   5.064
  235POPC   C3B 3132   7.140   2.504   5.479
  235POPC   C4B 3133   6.968   2.702   5.837
  236POPC   NC3 3134   7.192   3.619   3.805
  236POPC   PO4 3135   7.836   3.709   3.830
  236POPC   GL1 3136   7.440   3.517   4.205
  236POPC   GL2 3137   7.074   3.315   4.201
  236POPC   C1A 3138   7.354   3.465   4.631
  236POPC   D2A 3139   7.585   3.409   4.994
  236POPC   C3A 3140   7.461   3.447   5.399
  236POPC   C4A 3141   7.328   3.486   5.822
  236POPC   C1B 3142   6.866   3.248   4.615
  236POPC   C2B 3143   7.054   3.273   5.047
  236POPC   C3B 3144   6.961   3.419   5.474
  236POPC   C4B 3145   6.889   3.209   5.844
  237POPC   NC3 3146   2.386   3.685   3.863
  237POPC   PO4 3147   3.039   3.891   3.934
  237POPC   GL1 3148   2.734   3.660   4.281
  237POPC   GL2 3149   2.373   3.483   4.325
  237POPC   C1A 3150   2.549   3.820   4.689
  237POPC   D2A 3151   2.459   3.660   5.108
  237POPC   C3A 3152   2.652   3.828   5.489
  237POPC   C4A 3153   2.833   3.742   5.885
  237POPC   C1B 3154   2.505   3.303   4.727
  237POPC   C2B 3155   2.393   3.165   5.151
  237POPC   C3B 3156   2.624   3.329   5.520
  237POPC   C4B 3157   2.453   3.423   5.924
  238POPC   NC3 3158   9.681   0.411   3.888
  238POPC   PO4 3159   9.157   0.078   3.962
  238POPC   GL1 3160   9.426   0.272   4.304
  238POPC   GL2 3161   9.603   0.597   4.345
  238POPC   C1A 3162   9.405   0.331   4.733
  238POPC   D2A 3163   9.145   0.410   5.005
  238POPC   C3A 3164   9.271   0.263   5.363
  238POPC   C4A 3165   9.131   0.364   5.762
  238POPC   C1B 3166   9.621   0.804   4.739
  238POPC   C2B 3167   9.495   0.732   5.182
  238POPC   C3B 3168   9.448   0.764   5.628
  238POPC   C4B 3169   9.292   0.763   6.033
  239POPC   NC3 3170   8.462   8.611   3.940
  239POPC   PO4 3171   9.055   8.941   3.805
  239POPC   GL1 3172   8.987   8.687   4.236
  239POPC   GL2 3173   8.701   8.514   4.362
  239POPC   C1A 3174   9.008   8.705   4.713
  239POPC   D2A 3175   9.022   8.399   5.048
  239POPC   C3A 3176   8.955   8.584   5.456
  239POPC   C4A 3177   8.878   8.742   5.880
  239POPC   C1B 3178   8.496   8.633   4.738
  239POPC   C2B 3179   8.520   8.481   5.143
  239POPC   C3B 3180   8.456   8.644   5.509
  239POPC   C4B 3181   8.409   8.937   5.768
  240POPC   NC3 3182   1.845   0.284   3.961
  240POPC   PO4 3183   1.696   0.923   3.795
  240POPC   GL1 3184   1.953   0.684   4.217
  240POPC   GL2 3185   1.726   0.571   4.414
  240POPC   C1A 3186   2.183   0.694   4.648
  240POPC   D2A 3187   1.945   0.569   5.032
  240POPC   C3A 3188   2.029   0.639   5.476
  240POPC   C4A 3189   2.116   0.730   5.931
  240POPC   C1B 3190   1.821   0.226   4.669
  240POPC   C2B 3191   1.654   0.120   5.063
  240POPC   C3B 3192   1.861   0.159   5.411
  240POPC   C4B 3193   1.916   0.289   5.830
  241POPC   NC3 3194   4.252   3.638   3.930
  241POPC   PO4 3195   4.675   3.260   3.932
  241POPC   GL1 3196   4.479   3.260   4.345
  241POPC   GL2 3197   4.139   3.225   4.370
  241POPC   C1A 3198   4.422   3.293   4.822
  241POPC   D2A 3199   4.459   3.354   5.283
  241POPC   C3A 3200   4.408   3.777   5.476
  241POPC   C4A 3201   4.430   4.070   5.884
  241POPC   C1B 3202   3.977   3.044   4.720
  241POPC   C2B 3203   3.951   3.232   5.130
  241POPC   C3B 3204   4.038   3.395   5.557
  241POPC   C4B 3205   4.401   3.399   5.817
  242POPC   NC3 3206   0.370   8.753   3.935
  242POPC   PO4 3207   0.754   8.170   3.825
  242POPC   GL1 3208   0.747   8.449   4.234
  242POPC   GL2 3209   0.420   8.531   4.382
  242POPC   C1A 3210   0.803   8.777   4.615
  242POPC   D2A 3211   0.560   8.883   5.020
  242POPC   C3A 3212   0.642   8.842   5.486
  242POPC   C4A 3213   0.472   8.472   5.749
  242POPC   C1B 3214   0.213   8.841   4.608
  242POPC   C2B 3215   0.046   8.871   4.999
  242POPC   C3B 3216   0.171   8.699   5.372
  242POPC   C4B 3217   0.143   8.847   5.761
  243POPC   NC3 3218   1.318   2.638   4.070
  243POPC   PO4 3219   1.133   3.362   3.896
  243POPC   GL1 3220   1.309   3.264   4.294
  243POPC   GL2 3221   1.248   3.626   4.352
  243POPC   C1A 3222   1.244   3.045   4.679
  243POPC   D2A 3223   0.899   3.186   4.911
  243POPC   C3A 3224   0.901   3.155   5.336
  243POPC   C4A 3225   0.911   3.168   5.769
  243POPC   C1B 3226   1.340   3.572   4.752
  243POPC   C2B 3227   1.345   3.390   5.132
  243POPC   C3B 3228   1.189   3.511   5.512
  243POPC   C4B 3229   1.484   3.477   5.783
  244POPC   NC3 3230   6.042   2.836   4.097
  244POPC   PO4 3231   5.466   2.821   3.934
  244POPC   GL1 3232   5.551   2.843   4.353
  244POPC   GL2 3233   5.692   2.508   4.329
  244POPC   C1A 3234   5.505   3.015   4.806
  244POPC   D2A 3235   5.709   2.852   5.224
  244POPC   C3A 3236   5.709   3.060   5.625
  244POPC   C4A 3237   5.351   3.199   5.896
  244POPC   C1B 3238   5.765   2.591   4.770
  244POPC   C2B 3239   5.765   2.357   5.150
  244POPC   C3B 3240   5.768   2.481   5.608
  244POPC   C4B 3241   6.042   2.586   5.979
  245POPC   NC3 3242   0.257   4.523   3.953
  245POPC   PO4 3243   0.736   5.010   3.696
  245POPC   GL1 3244   0.730   5.036   4.210
  245POPC   GL2 3245   0.442   4.838   4.455
  245POPC   C1A 3246   0.673   5.214   4.662
  245POPC   D2A 3247   0.489   4.988   5.005
  245POPC   C3A 3248   0.645   4.965   5.419
  245POPC   C4A 3249   0.666   4.641   5.693
  245POPC   C1B 3250   0.069   4.795   4.774
  245POPC   C2B 3251   0.059   4.747   5.206
  245POPC   C3B 3252   0.178   4.819   5.605
  245POPC   C4B 3253   0.161   5.127   5.892
  246POPC   NC3 3254   4.323  10.133   3.915
  246POPC   PO4 3255   3.642   9.991   3.952
  246POPC   GL1 3256   3.941  10.042   4.253
  246POPC   GL2 3257   4.047  10.396   4.249
  246POPC   C1A 3258   3.940   9.886   4.643
  246POPC   D2A 3259   3.583   9.904   4.915
  246POPC   C3A 3260   3.742  10.081   5.291
  246POPC   C4A 3261   3.712   9.840   5.636
  246POPC   C1B 3262   4.219  10.313   4.655
  246POPC   C2B 3263   4.405  10.027   4.977
  246POPC   C3B 3264   4.276  10.036   5.411
  246POPC   C4B 3265   4.204  10.420   5.638
  247POPC   NC3 3266   6.226   9.567   4.002
  247POPC   PO4 3267   6.824   9.773   4.093
  247POPC   GL1 3268   6.536   9.771   4.446
  247POPC   GL2 3269   6.306   9.472   4.491
  247POPC   C1A 3270   6.453   9.713   4.902
  247POPC   D2A 3271   6.377   9.390   5.178
  247POPC   C3A 3272   6.243   9.555   5.544
  247POPC   C4A 3273   6.202   9.982   5.666
  247POPC   C1B 3274   6.565   9.167   4.721
  247POPC   C2B 3275   6.822   9.159   5.095
  247POPC   C3B 3276   6.708   9.248   5.553
  247POPC   C4B 3277   6.673   9.280   6.031
  248POPC   NC3 3278   0.813   7.011   4.109
  248POPC   PO4 3279   1.456   6.819   3.947
  248POPC   GL1 3280   1.270   7.023   4.327
  248POPC   GL2 3281   1.088   7.366   4.356
  248POPC   C1A 3282   1.149   7.008   4.750
  248POPC   D2A 3283   1.297   7.028   5.157
  248POPC   C3A 3284   0.946   6.948   5.389
  248POPC   C4A 3285   0.891   7.035   5.791
  248POPC   C1B 3286   1.279   7.514   4.756
  248POPC   C2B 3287   1.364   7.609   5.188
  248POPC   C3B 3288   1.223   7.369   5.543
  248POPC   C4B 3289   1.385   6.950   5.702
  249POPC   NC3 3290   4.191   7.170   3.851
  249POPC   PO4 3291   4.644   7.525   3.790
  249POPC   GL1 3292   4.458   7.455   4.223
  249POPC   GL2 3293   4.139   7.259   4.344
  249POPC   C1A 3294   4.483   7.382   4.692
  249POPC   D2A 3295   4.371   7.074   5.029
  249POPC   C3A 3296   4.277   7.286   5.405
  249POPC   C4A 3297   4.546   7.276   5.733
  249POPC   C1B 3298   3.950   7.054   4.730
  249POPC   C2B 3299   3.880   7.017   5.207
  249POPC   C3B 3300   4.129   6.811   5.561
  249POPC   C4B 3301   4.231   6.608   5.998
  250POPC   NC3 3302   4.775   8.313   3.975
  250POPC   PO4 3303   4.719   8.952   3.950
  250POPC   GL1 3304   4.851   8.710   4.308
  250POPC   GL2 3305   5.184   8.587   4.189
  250POPC   C1A 3306   4.919   8.813   4.742
  250POPC   D2A 3307   4.819   8.647   5.139
  250POPC   C3A 3308   4.816   8.810   5.599
  250POPC   C4A 3309   4.756   8.903   6.056
  250POPC   C1B 3310   5.308   8.488   4.618
  250POPC   C2B 3311   5.379   8.609   5.031
  250POPC   C3B 3312   5.172   8.478   5.446
  250POPC   C4B 3313   5.209   8.622   5.882
  251POPC   NC3 3314   7.735   5.251   4.295
  251POPC   PO4 3315   8.299   5.301   3.901
  251POPC   GL1 3316   8.256   5.211   4.324
  251POPC   GL2 3317   8.233   4.864   4.336
  251POPC   C1A 3318   8.179   5.346   4.745
  251POPC   D2A 3319   7.884   5.147   5.085
  251POPC   C3A 3320   7.803   5.192   5.536
  251POPC   C4A 3321   7.911   5.304   5.957
  251POPC   C1B 3322   8.092   4.860   4.732
  251POPC   C2B 3323   8.235   4.749   5.105
  251POPC   C3B 3324   7.977   4.637   5.429
  251POPC   C4B 3325   7.912   4.776   5.827
  252POPC   NC3 3326   7.579   9.151   3.707
  252POPC   PO4 3327   8.120   8.849   3.736
  252POPC   GL1 3328   7.926   8.873   4.140
  252POPC   GL2 3329   8.235   8.866   4.333
  252POPC   C1A 3330   7.831   8.936   4.614
  252POPC   D2A 3331   8.109   8.916   4.991
  252POPC   C3A 3332   7.934   8.885   5.404
  252POPC   C4A 3333   7.895   9.060   5.851
  252POPC   C1B 3334   8.061   8.488   4.518
  252POPC   C2B 3335   8.102   8.287   4.913
  252POPC   C3B 3336   8.068   8.322   5.360
  252POPC   C4B 3337   8.027   8.561   5.770
  253POPC   NC3 3338   8.848   1.235   3.987
  253POPC   PO4 3339   8.404   0.725   3.844
  253POPC   GL1 3340   8.419   1.063   4.222
  253POPC   GL2 3341   8.689   0.954   4.423
  253POPC   C1A 3342   8.419   1.406   4.598
  253POPC   D2A 3343   8.434   1.642   5.016
  253POPC   C3A 3344   8.413   1.419   5.431
  253POPC   C4A 3345   8.405   1.036   5.716
  253POPC   C1B 3346   8.914   1.290   4.669
  253POPC   C2B 3347   8.937   1.470   5.093
  253POPC   C3B 3348   8.898   1.449   5.545
  253POPC   C4B 3349   8.903   1.023   5.807
  254POPC   NC3 3350   1.347   5.652   3.829
  254POPC   PO4 3351   0.725   5.979   3.789
  254POPC   GL1 3352   0.984   5.998   4.142
  254POPC   GL2 3353   0.995   5.665   4.248
  254POPC   C1A 3354   1.066   6.022   4.602
  254POPC   D2A 3355   0.821   6.052   4.992
  254POPC   C3A 3356   0.968   6.011   5.397
  254POPC   C4A 3357   0.972   5.741   5.779
  254POPC   C1B 3358   1.108   5.464   4.647
  254POPC   C2B 3359   1.133   5.630   5.057
  254POPC   C3B 3360   1.350   5.711   5.436
  254POPC   C4B 3361   1.410   5.478   5.790
  255POPC   NC3 3362   7.225   9.538   3.988
  255POPC   PO4 3363   7.405   8.906   4.039
  255POPC   GL1 3364   7.283   9.190   4.351
  255POPC   GL2 3365   6.929   9.341   4.361
  255POPC   C1A 3366   7.230   9.152   4.751
  255POPC   D2A 3367   7.315   9.313   5.107
  255POPC   C3A 3368   7.198   9.090   5.455
  255POPC   C4A 3369   7.112   9.118   5.844
  255POPC   C1B 3370   6.911   9.557   4.732
  255POPC   C2B 3371   6.931   9.666   5.132
  255POPC   C3B 3372   7.133   9.605   5.498
  255POPC   C4B 3373   6.998   9.632   5.915
  256POPC   NC3 3374   0.336   3.717   4.088
  256POPC   PO4 3375   0.371   3.210   3.549
  256POPC   GL1 3376   0.492   3.231   4.067
  256POPC   GL2 3377   0.757   3.433   4.229
  256POPC   C1A 3378   0.356   3.269   4.551
  256POPC   D2A 3379   0.411   3.469   4.982
  256POPC   C3A 3380   0.216   3.351   5.392
  256POPC   C4A 3381   0.425   3.289   5.766
  256POPC   C1B 3382   0.798   3.644   4.637
  256POPC   C2B 3383   0.895   3.651   5.080
  256POPC   C3B 3384   0.688   3.610   5.446
  256POPC   C4B 3385   0.813   3.691   5.860
  257POPC   NC3 3386   7.274   0.031   4.071
  257POPC   PO4 3387   7.498   9.901   4.074
  257POPC   GL1 3388   7.239   9.803   4.422
  257POPC   GL2 3389   7.090  10.133   4.336
  257POPC   C1A 3390   7.372   9.745   4.855
  257POPC   D2A 3391   7.708   9.967   5.072
  257POPC   C3A 3392   7.612   9.848   5.497
  257POPC   C4A 3393   7.282  10.027   5.758
  257POPC   C1B 3394   7.341  10.215   4.724
  257POPC   C2B 3395   7.221  10.115   5.188
  257POPC   C3B 3396   6.982  10.361   5.488
  257POPC   C4B 3397   7.081  10.469   5.909
  258POPC   NC3 3398   0.144   3.607   3.621
  258POPC   PO4 3399   0.637   4.049   3.954
  258POPC   GL1 3400   0.404   4.176   4.328
  258POPC   GL2 3401   0.135   4.419   4.440
  258POPC   C1A 3402   0.355   3.956   4.700
  258POPC   D2A 3403   0.525   3.991   5.076
  258POPC   C3A 3404   0.248   3.861   5.334
  258POPC   C4A 3405   0.292   3.765   5.730
  258POPC   C1B 3406   0.473   4.463   4.789
  258POPC   C2B 3407   0.728   4.463   5.178
  258POPC   C3B 3408   0.705   4.148   5.538
  258POPC   C4B 3409   0.307   4.268   5.679
  259POPC   NC3 3410   9.161   7.197   3.849
  259POPC   PO4 3411   9.148   7.638   4.137
  259POPC   GL1 3412   9.402   7.437   4.372
  259POPC   GL2 3413   9.550   7.131   4.253
  259POPC   C1A 3414   9.278   7.503   4.772
  259POPC   D2A 3415   9.246   7.332   5.090
  259POPC   C3A 3416   9.408   7.454   5.422
  259POPC   C4A 3417   9.242   7.521   5.806
  259POPC   C1B 3418   9.457   7.017   4.705
  259POPC   C2B 3419   9.323   6.838   5.119
  259POPC   C3B 3420   9.283   6.961   5.522
  259POPC   C4B 3421   9.518   7.101   5.824
  260POPC   NC3 3422   2.803   2.518   3.853
  260POPC   PO4 3423   2.392   3.128   3.901
  260POPC   GL1 3424   2.425   2.937   4.325
  260POPC   GL2 3425   2.587   2.594   4.309
  260POPC   C1A 3426   2.497   2.796   4.749
  260POPC   D2A 3427   2.806   2.892   5.035
  260POPC   C3A 3428   2.648   2.827   5.460
  260POPC   C4A 3429   2.525   2.825   5.880
  260POPC   C1B 3430   2.951   2.573   4.599
  260POPC   C2B 3431   3.244   2.524   4.932
  260POPC   C3B 3432   3.097   2.577   5.334
  260POPC   C4B 3433   2.953   2.554   5.760
  261POPC   NC3 3434   8.942   4.340   3.970
  261POPC   PO4 3435   9.580   3.947   3.920
  261POPC   GL1 3436   9.273   4.003   4.246
  261POPC   GL2 3437   9.303   4.361   4.328
  261POPC   C1A 3438   9.396   4.012   4.692
  261POPC   D2A 3439   9.477   3.773   5.046
  261POPC   C3A 3440   9.362   3.989   5.402
  261POPC   C4A 3441   9.500   3.991   5.806
  261POPC   C1B 3442   9.377   4.532   4.728
  261POPC   C2B 3443   9.218   4.461   5.163
  261POPC   C3B 3444   9.355   4.501   5.595
  261POPC   C4B 3445   9.638   4.448   5.949
  262POPC   NC3 3446   5.048   2.993   3.921
  262POPC   PO4 3447   4.516   2.514   3.876
  262POPC   GL1 3448   4.755   2.607   4.273
  262POPC   GL2 3449   5.107   2.481   4.198
  262POPC   C1A 3450   4.908   2.870   4.658
  262POPC   D2A 3451   4.849   3.046   5.105
  262POPC   C3A 3452   4.739   2.954   5.561
  262POPC   C4A 3453   4.842   3.222   5.988
  262POPC   C1B 3454   5.268   2.512   4.623
  262POPC   C2B 3455   5.236   2.679   5.074
  262POPC   C3B 3456   5.257   2.781   5.536
  262POPC   C4B 3457   5.041   2.764   5.953
  263POPC   NC3 3458   0.266   6.112   3.960
  263POPC   PO4 3459   0.612   6.689   3.859
  263POPC   GL1 3460   0.621   6.397   4.186
  263POPC   GL2 3461   0.250   6.478   4.311
  263POPC   C1A 3462   0.565   6.212   4.585
  263POPC   D2A 3463   0.506   6.472   4.967
  263POPC   C3A 3464   0.553   6.288   5.368
  263POPC   C4A 3465   0.666   6.137   5.775
  263POPC   C1B 3466   0.073   6.342   4.722
  263POPC   C2B 3467  10.468   6.589   5.058
  263POPC   C3B 3468   0.200   6.634   5.385
  263POPC   C4B 3469   0.321   6.491   5.787
  264POPC   NC3 3470   0.461   1.411   4.018
  264POPC   PO4 3471   0.884   0.865   3.760
  264POPC   GL1 3472   0.845   1.007   4.194
  264POPC   GL2 3473   0.507   1.063   4.378
  264POPC   C1A 3474   0.927   1.097   4.632
  264POPC   D2A 3475   0.593   1.092   4.938
  264POPC   C3A 3476   0.653   1.114   5.386
  264POPC   C4A 3477   0.742   0.998   5.781
  264POPC   C1B 3478   0.146   1.051   4.647
  264POPC   C2B 3479   0.137   0.870   5.043
  264POPC   C3B 3480   0.040   0.784   5.454
  264POPC   C4B 3481   0.219   1.112   5.713
  265POPC   NC3 3482   6.543   7.911   3.848
  265POPC   PO4 3483   6.018   7.548   4.040
  265POPC   GL1 3484   6.287   7.710   4.292
  265POPC   GL2 3485   6.582   7.894   4.354
  265POPC   C1A 3486   6.288   7.638   4.722
  265POPC   D2A 3487   6.240   7.516   5.158
  265POPC   C3A 3488   6.409   7.787   5.479
  265POPC   C4A 3489   6.332   7.650   5.892
  265POPC   C1B 3490   6.251   8.127   4.586
  265POPC   C2B 3491   6.285   8.093   5.047
  265POPC   C3B 3492   6.676   8.175   5.279
  265POPC   C4B 3493   6.754   8.217   5.729
  266POPC   NC3 3494   8.070   1.056   3.838
  266POPC   PO4 3495   7.649   1.491   3.676
  266POPC   GL1 3496   7.781   1.284   4.180
  266POPC   GL2 3497   7.539   1.052   4.387
  266POPC   C1A 3498   8.006   1.104   4.542
  266POPC   D2A 3499   8.109   0.930   4.934
  266POPC   C3A 3500   7.827   0.964   5.280
  266POPC   C4A 3501   7.968   1.226   5.619
  266POPC   C1B 3502   7.542   1.014   4.846
  266POPC   C2B 3503   7.483   1.355   5.155
  266POPC   C3B 3504   7.553   1.470   5.542
  266POPC   C4B 3505   7.540   1.081   5.826
  267POPC   NC3 3506   0.638   5.442   3.855
  267POPC   PO4 3507   0.257   4.971   4.027
  267POPC   GL1 3508   0.359   5.376   4.274
  267POPC   GL2 3509   0.485   5.746   4.249
  267POPC   C1A 3510   0.209   5.466   4.674
  267POPC   D2A 3511   0.062   5.270   5.033
  267POPC   C3A 3512   0.275   5.303   5.418
  267POPC   C4A 3513   0.555   5.433   5.775
  267POPC   C1B 3514   0.655   5.713   4.651
  267POPC   C2B 3515   0.549   5.601   5.086
  267POPC   C3B 3516   0.367   5.818   5.468
  267POPC   C4B 3517   0.201   6.001   5.873
  268POPC   NC3 3518   9.152   6.236   4.125
  268POPC   PO4 3519   8.499   6.274   3.887
  268POPC   GL1 3520   8.639   6.540   4.222
  268POPC   GL2 3521   8.961   6.694   4.314
  268POPC   C1A 3522   8.595   6.446   4.653
  268POPC   D2A 3523   8.384   6.278   5.012
  268POPC   C3A 3524   8.604   6.284   5.384
  268POPC   C4A 3525   8.490   6.472   5.777
  268POPC   C1B 3526   9.096   6.576   4.721
  268POPC   C2B 3527   8.880   6.571   5.085
  268POPC   C3B 3528   8.825   6.748   5.494
  268POPC   C4B 3529   9.009   6.701   5.896
  269POPC   NC3 3530   5.595   9.824   3.915
  269POPC   PO4 3531   5.900   9.219   3.958
  269POPC   GL1 3532   5.827   9.590   4.301
  269POPC   GL2 3533   5.491   9.664   4.379
  269POPC   C1A 3534   5.929   9.829   4.690
  269POPC   D2A 3535   5.923   9.634   5.109
  269POPC   C3A 3536   5.735   9.830   5.471
  269POPC   C4A 3537   5.842   9.670   5.856
  269POPC   C1B 3538   5.556   9.483   4.764
  269POPC   C2B 3539   5.430   9.488   5.170
  269POPC   C3B 3540   5.638   9.341   5.508
  269POPC   C4B 3541   5.396   9.466   5.870
  270POPC   NC3 3542   4.329   2.956   3.917
  270POPC   PO4 3543   3.935   2.398   4.011
  270POPC   GL1 3544   4.225   2.425   4.280
  270POPC   GL2 3545   4.239   2.728   4.352
  270POPC   C1A 3546   4.258   2.276   4.666
  270POPC   D2A 3547   4.365   2.349   5.068
  270POPC   C3A 3548   4.050   2.249   5.275
  270POPC   C4A 3549   3.923   2.344   5.648
  270POPC   C1B 3550   4.419   2.763   4.743
  270POPC   C2B 3551   4.348   2.860   5.170
  270POPC   C3B 3552   4.199   2.785   5.594
  270POPC   C4B 3553   4.101   3.031   5.973
  271POPC   NC3 3554   3.473   2.137   4.030
  271POPC   PO4 3555   3.961   1.734   3.738
  271POPC   GL1 3556   3.704   1.729   4.247
  271POPC   GL2 3557   3.338   1.669   4.333
  271POPC   C1A 3558   3.534   1.809   4.767
  271POPC   D2A 3559   3.624   2.020   5.168
  271POPC   C3A 3560   3.483   1.905   5.549
  271POPC   C4A 3561   3.237   1.569   5.747
  271POPC   C1B 3562   3.081   1.991   4.659
  271POPC   C2B 3563   3.107   2.048   5.112
  271POPC   C3B 3564   3.025   2.098   5.546
  271POPC   C4B 3565   3.206   2.052   5.962
  272POPC   NC3 3566   7.837   3.290   4.041
  272POPC   PO4 3567   8.221   3.956   4.072
  272POPC   GL1 3568   8.190   3.564   4.317
  272POPC   GL2 3569   7.872   3.545   4.475
  272POPC   C1A 3570   8.266   3.307   4.670
  272POPC   D2A 3571   8.072   3.503   5.004
  272POPC   C3A 3572   8.107   3.601   5.426
  272POPC   C4A 3573   8.112   3.803   5.838
  272POPC   C1B 3574   7.788   3.112   4.640
  272POPC   C2B 3575   7.989   2.970   4.989
  272POPC   C3B 3576   7.852   3.125   5.383
  272POPC   C4B 3577   7.834   3.355   5.776
  273POPC   NC3 3578   2.124   1.026   3.916
  273POPC   PO4 3579   2.366   1.659   3.887
  273POPC   GL1 3580   2.109   1.455   4.249
  273POPC   GL2 3581   1.898   1.152   4.350
  273POPC   C1A 3582   2.054   1.457   4.710
  273POPC   D2A 3583   2.359   1.390   5.042
  273POPC   C3A 3584   2.178   1.450   5.419
  273POPC   C4A 3585   2.353   1.460   5.795
  273POPC   C1B 3586   1.776   0.986   4.735
  273POPC   C2B 3587   1.926   1.078   5.153
  273POPC   C3B 3588   1.828   1.080   5.602
  273POPC   C4B 3589   1.552   1.278   5.863
  274POPC   NC3 3590   7.117   7.703   4.076
  274POPC   PO4 3591   7.593   8.028   3.788
  274POPC   GL1 3592   7.382   8.088   4.247
  274POPC   GL2 3593   7.384   7.767   4.505
  274POPC   C1A 3594   7.127   8.180   4.638
  274POPC   D2A 3595   7.276   8.271   5.018
  274POPC   C3A 3596   7.168   8.071   5.359
  274POPC   C4A 3597   7.273   8.149   5.734
  274POPC   C1B 3598   7.227   7.734   4.956
  274POPC   C2B 3599   6.895   7.643   5.298
  274POPC   C3B 3600   6.857   7.721   5.747
  274POPC   C4B 3601   6.745   7.580   6.192
  275POPC   NC3 3602   4.219   2.123   3.758
  275POPC   PO4 3603   4.574   1.633   4.082
  275POPC   GL1 3604   4.461   1.772   4.446
  275POPC   GL2 3605   4.168   1.922   4.264
  275POPC   C1A 3606   4.514   1.881   4.873
  275POPC   D2A 3607   4.503   1.905   5.318
  275POPC   C3A 3608   4.431   2.236   5.596
  275POPC   C4A 3609   4.233   2.069   5.949
  275POPC   C1B 3610   4.023   1.805   4.684
  275POPC   C2B 3611   4.050   1.718   5.122
  275POPC   C3B 3612   3.998   1.828   5.557
  275POPC   C4B 3613   3.761   1.725   5.923
  276POPC   NC3 3614   2.420   9.249   4.194
  276POPC   PO4 3615   1.932   9.402   3.776
  276POPC   GL1 3616   1.893   9.306   4.253
  276POPC   GL2 3617   1.566   9.107   4.276
  276POPC   C1A 3618   2.121   9.358   4.724
  276POPC   D2A 3619   2.370   9.357   5.112
  276POPC   C3A 3620   2.138   9.586   5.437
  276POPC   C4A 3621   2.047   9.522   5.854
  276POPC   C1B 3622   1.626   9.224   4.681
  276POPC   C2B 3623   1.755   9.448   5.049
  276POPC   C3B 3624   1.620   9.436   5.430
  276POPC   C4B 3625   1.651   9.208   5.771
  277POPC   NC3 3626   5.010   1.479   4.189
  277POPC   PO4 3627   5.001   0.909   3.788
  277POPC   GL1 3628   4.786   0.893   4.228
  277POPC   GL2 3629   4.587   1.198   4.354
  277POPC   C1A 3630   4.813   0.935   4.704
  277POPC   D2A 3631   4.588   0.922   5.084
  277POPC   C3A 3632   4.793   0.873   5.477
  277POPC   C4A 3633   4.509   1.018   5.791
  277POPC   C1B 3634   4.777   1.433   4.760
  277POPC   C2B 3635   4.957   1.266   5.143
  277POPC   C3B 3636   4.853   1.367   5.573
  277POPC   C4B 3637   5.086   1.532   5.898
  278POPC   NC3 3638   0.872   0.503   4.036
  278POPC   PO4 3639   0.236   0.886   3.987
  278POPC   GL1 3640   0.388   0.562   4.274
  278POPC   GL2 3641   0.093   0.370   4.283
  278POPC   C1A 3642   0.535   0.375   4.673
  278POPC   D2A 3643   0.714   0.353   5.114
  278POPC   C3A 3644   0.543   0.629   5.370
  278POPC   C4A 3645   0.444   0.583   5.773
  278POPC   C1B 3646  10.472   0.487   4.698
  278POPC   C2B 3647   0.185   0.377   5.083
  278POPC   C3B 3648   0.253   0.192   5.479
  278POPC   C4B 3649   0.118   0.218   5.892
  279POPC   NC3 3650   0.482   2.237   3.952
  279POPC   PO4 3651   0.727   1.724   4.222
  279POPC   GL1 3652   0.386   1.769   4.425
  279POPC   GL2 3653   0.535   2.117   4.464
  279POPC   C1A 3654   0.301   1.527   4.804
  279POPC   D2A 3655   0.246   1.371   5.231
  279POPC   C3A 3656   0.456   1.556   5.587
  279POPC   C4A 3657   0.179   1.666   5.925
  279POPC   C1B 3658   0.631   1.965   4.839
  279POPC   C2B 3659   0.385   1.888   5.157
  279POPC   C3B 3660   0.216   1.994   5.495
  279POPC   C4B 3661   0.456   2.054   5.823
  280POPC   NC3 3662   9.887   4.382   3.960
  280POPC   PO4 3663  10.489   3.957   3.891
  280POPC   GL1 3664  10.401   3.979   4.300
  280POPC   GL2 3665  10.056   4.000   4.298
  280POPC   C1A 3666  10.348   4.088   4.726
  280POPC   D2A 3667   0.083   4.254   5.051
  280POPC   C3A 3668  10.362   4.207   5.427
  280POPC   C4A 3669  10.363   4.470   5.786
  280POPC   C1B 3670   9.851   4.219   4.644
  280POPC   C2B 3671   9.657   4.265   5.051
  280POPC   C3B 3672   9.790   4.271   5.457
  280POPC   C4B 3673  10.006   4.107   5.782
  281POPC   NC3 3674   2.587   6.466   3.926
  281POPC   PO4 3675   2.925   6.897   3.993
  281POPC   GL1 3676   2.838   6.594   4.359
  281POPC   GL2 3677   2.655   6.248   4.385
  281POPC   C1A 3678   2.945   6.507   4.792
  281POPC   D2A 3679   2.817   6.398   5.198
  281POPC   C3A 3680   3.044   6.473   5.582
  281POPC   C4A 3681   2.948   6.677   5.970
  281POPC   C1B 3682   2.406   6.302   4.794
  281POPC   C2B 3683   2.333   6.265   5.246
  281POPC   C3B 3684   2.568   6.241   5.610
  281POPC   C4B 3685   2.610   5.892   5.894
  282POPC   NC3 3686   2.406  10.299   4.005
  282POPC   PO4 3687   2.226   9.714   4.189
  282POPC   GL1 3688   2.592   9.961   4.367
  282POPC   GL2 3689   2.801  10.289   4.314
  282POPC   C1A 3690   2.517  10.119   4.761
  282POPC   D2A 3691   2.405   9.913   5.126
  282POPC   C3A 3692   2.582  10.104   5.491
  282POPC   C4A 3693   2.347  10.211   5.868
  282POPC   C1B 3694   2.836  10.499   4.723
  282POPC   C2B 3695   2.719  10.455   5.115
  282POPC   C3B 3696   2.953   0.027   5.435
  282POPC   C4B 3697   2.790  10.455   5.802
  283POPC   NC3 3698   5.370   0.677   4.025
  283POPC   PO4 3699   5.996   0.902   3.894
  283POPC   GL1 3700   5.866   0.540   4.261
  283POPC   GL2 3701   5.669   0.203   4.293
  283POPC   C1A 3702   5.743   0.442   4.742
  283POPC   D2A 3703   5.554   0.688   5.105
  283POPC   C3A 3704   5.737   0.740   5.507
  283POPC   C4A 3705   5.832   0.462   5.880
  283POPC   C1B 3706   5.372   0.067   4.632
  283POPC   C2B 3707   5.395   0.187   5.050
  283POPC   C3B 3708   5.547   0.266   5.464
  283POPC   C4B 3709   5.392   0.146   5.854
  284POPC   NC3 3710   4.612   1.200   3.838
  284POPC   PO4 3711   3.956   0.850   4.017
  284POPC   GL1 3712   4.063   1.042   4.379
  284POPC   GL2 3713   4.111   1.404   4.376
  284POPC   C1A 3714   3.873   0.935   4.770
  284POPC   D2A 3715   3.954   1.197   5.110
  284POPC   C3A 3716   4.072   1.069   5.493
  284POPC   C4A 3717   3.979   0.856   5.850
  284POPC   C1B 3718   4.290   1.315   4.760
  284POPC   C2B 3719   4.461   1.410   5.168
  284POPC   C3B 3720   4.355   1.474   5.580
  284POPC   C4B 3721   4.235   1.559   5.996
  285POPC   NC3 3722   3.232   5.226   4.024
  285POPC   PO4 3723   2.686   5.355   3.783
  285POPC   GL1 3724   2.435   5.319   4.172
  285POPC   GL2 3725   2.332   5.654   4.273
  285POPC   C1A 3726   2.419   5.258   4.633
  285POPC   D2A 3727   2.457   5.440   5.042
  285POPC   C3A 3728   2.737   5.418   5.386
  285POPC   C4A 3729   2.721   5.404   5.813
  285POPC   C1B 3730   2.521   5.801   4.656
  285POPC   C2B 3731   2.676   5.912   5.093
  285POPC   C3B 3732   2.934   5.919   5.479
  285POPC   C4B 3733   3.182   5.648   5.745
  286POPC   NC3 3734   4.809   9.390   3.897
  286POPC   PO4 3735   5.135   9.853   4.072
  286POPC   GL1 3736   4.819   9.632   4.350
  286POPC   GL2 3737   4.883   9.254   4.386
  286POPC   C1A 3738   4.648   9.572   4.783
  286POPC   D2A 3739   4.814   9.449   5.223
  286POPC   C3A 3740   4.623   9.681   5.570
  286POPC   C4A 3741   4.494   9.698   6.009
  286POPC   C1B 3742   5.083   9.298   4.789
  286POPC   C2B 3743   5.161   9.048   5.159
  286POPC   C3B 3744   5.189   9.123   5.576
  286POPC   C4B 3745   4.896   9.337   5.823
  287POPC   NC3 3746   7.880   5.166   3.761
  287POPC   PO4 3747   7.724   5.680   4.105
  287POPC   GL1 3748   7.951   5.711   4.451
  287POPC   GL2 3749   8.292   5.725   4.395
  287POPC   C1A 3750   7.818   5.658   4.877
  287POPC   D2A 3751   8.013   5.598   5.287
  287POPC   C3A 3752   7.695   5.695   5.633
  287POPC   C4A 3753   7.461   5.539   6.011
  287POPC   C1B 3754   8.322   5.809   4.847
  287POPC   C2B 3755   8.535   5.743   5.234
  287POPC   C3B 3756   8.399   5.549   5.610
  287POPC   C4B 3757   8.127   5.750   5.877
  288POPC   NC3 3758   9.776   9.324   3.791
  288POPC   PO4 3759  10.471   9.066   3.799
  288POPC   GL1 3760  10.212   9.153   4.163
  288POPC   GL2 3761  10.070   9.467   4.229
  288POPC   C1A 3762  10.256   9.094   4.623
  288POPC   D2A 3763  10.163   9.197   5.054
  288POPC   C3A 3764  10.238   8.981   5.432
  288POPC   C4A 3765  10.184   9.097   5.860
  288POPC   C1B 3766  10.280   9.608   4.611
  288POPC   C2B 3767  10.273   9.698   5.061
  288POPC   C3B 3768  10.250   9.512   5.471
  288POPC   C4B 3769   9.958   9.575   5.796
  289POPC   NC3 3770   9.255   9.119   4.169
  289POPC   PO4 3771   9.445   9.649   3.822
  289POPC   GL1 3772   9.571   9.505   4.285
  289POPC   GL2 3773   9.578   9.787   4.530
  289POPC   C1A 3774   9.812   9.375   4.714
  289POPC   D2A 3775   9.786   9.496   5.204
  289POPC   C3A 3776   9.766   9.176   5.556
  289POPC   C4A 3777   9.728   9.191   6.074
  289POPC   C1B 3778   9.308   9.444   4.741
  289POPC   C2B 3779   9.110   9.186   5.029
  289POPC   C3B 3780   9.258   9.365   5.396
  289POPC   C4B 3781   9.412   9.458   5.781
  290POPC   NC3 3782   8.902   9.639   3.931
  290POPC   PO4 3783   8.650   9.035   4.115
  290POPC   GL1 3784   8.837   9.354   4.370
  290POPC   GL2 3785   8.530   9.491   4.363
  290POPC   C1A 3786   8.801   9.570   4.789
  290POPC   D2A 3787   8.771   9.528   5.237
  290POPC   C3A 3788   8.976   9.781   5.508
  290POPC   C4A 3789   9.019   9.717   5.939
  290POPC   C1B 3790   8.468   9.161   4.701
  290POPC   C2B 3791   8.622   8.992   5.102
  290POPC   C3B 3792   8.827   9.074   5.479
  290POPC   C4B 3793   8.687   9.378   5.749
  291POPC   NC3 3794   2.506   4.938   3.824
  291POPC   PO4 3795   3.146   4.782   3.959
  291POPC   GL1 3796   2.837   4.972   4.214
  291POPC   GL2 3797   2.568   4.777   4.327
  291POPC   C1A 3798   2.906   5.133   4.619
  291POPC   D2A 3799   2.789   5.032   5.037
  291POPC   C3A 3800   3.071   4.961   5.391
  291POPC   C4A 3801   3.065   5.012   5.849
  291POPC   C1B 3802   2.335   4.735   4.720
  291POPC   C2B 3803   2.323   4.912   5.148
  291POPC   C3B 3804   2.596   4.915   5.550
  291POPC   C4B 3805   2.512   4.986   5.990
  292POPC   NC3 3806  10.181   8.692   3.833
  292POPC   PO4 3807   9.653   8.380   3.772
  292POPC   GL1 3808   9.941   8.512   4.216
  292POPC   GL2 3809  10.293   8.674   4.311
  292POPC   C1A 3810   9.919   8.715   4.657
  292POPC   D2A 3811  10.081   8.667   5.035
  292POPC   C3A 3812   9.841   8.659   5.413
  292POPC   C4A 3813   9.748   8.747   5.824
  292POPC   C1B 3814  10.380   8.438   4.627
  292POPC   C2B 3815   0.032   8.365   4.997
  292POPC   C3B 3816  10.284   8.386   5.393
  292POPC   C4B 3817  10.228   8.583   5.762
  293POPC   NC3 3818   8.306   9.250   3.882
  293POPC   PO4 3819   7.720   9.582   3.692
  293POPC   GL1 3820   7.714   9.404   4.143
  293POPC   GL2 3821   8.034   9.355   4.297
  293POPC   C1A 3822   7.655   9.409   4.626
  293POPC   D2A 3823   7.810   9.470   5.076
  293POPC   C3A 3824   7.663   9.316   5.466
  293POPC   C4A 3825   7.489   9.444   5.836
  293POPC   C1B 3826   8.143   9.579   4.678
  293POPC   C2B 3827   8.310   9.445   5.078
  293POPC   C3B 3828   8.223   9.326   5.484
  293POPC   C4B 3829   7.993   9.562   5.765
  294POPC   NC3 3830   1.048   8.543   3.816
  294POPC   PO4 3831   1.510   8.172   3.944
  294POPC   GL1 3832   1.269   8.360   4.262
  294POPC   GL2 3833   1.208   8.718   4.255
  294POPC   C1A 3834   1.067   8.342   4.658
  294POPC   D2A 3835   1.027   8.539   5.069
  294POPC   C3A 3836   0.910   8.337   5.470
  294POPC   C4A 3837   0.945   8.613   5.827
  294POPC   C1B 3838   1.344   8.789   4.651
  294POPC   C2B 3839   1.535   8.635   4.998
  294POPC   C3B 3840   1.475   8.565   5.417
  294POPC   C4B 3841   1.431   8.762   5.801
  295POPC   NC3 3842   1.381   1.032   4.121
  295POPC   PO4 3843   1.109   1.518   3.740
  295POPC   GL1 3844   1.123   1.441   4.277
  295POPC   GL2 3845   1.388   1.311   4.524
  295POPC   C1A 3846   1.013   1.565   4.769
  295POPC   D2A 3847   0.760   1.548   5.137
  295POPC   C3A 3848   0.971   1.477   5.541
  295POPC   C4A 3849   1.038   1.402   5.957
  295POPC   C1B 3850   1.348   1.180   4.929
  295POPC   C2B 3851   1.432   1.294   5.327
  295POPC   C3B 3852   1.215   1.041   5.580
  295POPC   C4B 3853   1.198   0.868   5.943
  296POPC   NC3 3854   7.966   1.691   3.940
  296POPC   PO4 3855   7.407   1.609   4.137
  296POPC   GL1 3856   7.713   1.771   4.373
  296POPC   GL2 3857   7.776   2.118   4.248
  296POPC   C1A 3858   7.950   1.615   4.717
  296POPC   D2A 3859   7.982   1.436   5.134
  296POPC   C3A 3860   8.000   1.708   5.509
  296POPC   C4A 3861   7.770   1.901   5.811
  296POPC   C1B 3862   7.825   2.131   4.709
  296POPC   C2B 3863   8.009   1.974   5.079
  296POPC   C3B 3864   7.932   2.199   5.438
  296POPC   C4B 3865   8.048   2.351   5.817
  297POPC   NC3 3866   2.552   2.018   3.658
  297POPC   PO4 3867   3.050   1.933   4.032
  297POPC   GL1 3868   2.693   2.008   4.246
  297POPC   GL2 3869   2.555   1.690   4.353
  297POPC   C1A 3870   2.582   2.207   4.651
  297POPC   D2A 3871   2.720   2.391   5.031
  297POPC   C3A 3872   2.592   2.321   5.445
  297POPC   C4A 3873   2.569   2.291   5.901
  297POPC   C1B 3874   2.641   1.713   4.747
  297POPC   C2B 3875   2.618   1.874   5.134
  297POPC   C3B 3876   2.762   1.673   5.471
  297POPC   C4B 3877   2.754   1.798   5.860
  298POPC   NC3 3878  10.471   0.015   3.949
  298POPC   PO4 3879  10.213   9.834   3.907
  298POPC   GL1 3880  10.328  10.084   4.278
  298POPC   GL2 3881  10.040  10.277   4.240
  298POPC   C1A 3882  10.487  10.062   4.741
  298POPC   D2A 3883   0.027  10.128   5.196
  298POPC   C3A 3884  10.348  10.302   5.540
  298POPC   C4A 3885  10.367   9.920   5.782
  298POPC   C1B 3886   9.991  10.039   4.657
  298POPC   C2B 3887   9.981  10.130   5.081
  298POPC   C3B 3888   9.947   9.973   5.481
  298POPC   C4B 3889   9.896  10.247   5.831
  299POPC   NC3 3890   1.066   9.453   3.772
  299POPC   PO4 3891   0.814   8.913   3.936
  299POPC   GL1 3892   0.986   9.180   4.281
  299POPC   GL2 3893   1.198   9.481   4.281
  299POPC   C1A 3894   1.104   9.240   4.721
  299POPC   D2A 3895   1.339   9.122   5.086
  299POPC   C3A 3896   1.125   9.272   5.422
  299POPC   C4A 3897   1.030   9.102   5.803
  299POPC   C1B 3898   1.419   9.677   4.643
  299POPC   C2B 3899   1.318   9.704   5.077
  299POPC   C3B 3900   1.244   9.781   5.478
  299POPC   C4B 3901   1.266   9.544   5.836
  300POPC   NC3 3902   8.017   0.457   3.881
  300POPC   PO4 3903   8.544  10.485   3.926
  300POPC   GL1 3904   8.407   0.339   4.231
  300POPC   GL2 3905   8.169   0.626   4.330
  300POPC   C1A 3906   8.244   0.231   4.653
  300POPC   D2A 3907   8.158   0.429   5.039
  300POPC   C3A 3908   8.283   0.235   5.422
  300POPC   C4A 3909   8.079   0.094   5.773
  300POPC   C1B 3910   7.828   0.592   4.641
  300POPC   C2B 3911   7.653   0.459   5.062
  300POPC   C3B 3912   7.805   0.393   5.442
  300POPC   C4B 3913   7.946   0.717   5.706
  301POPC   NC3 3914   4.134   8.831   3.851
  301POPC   PO4 3915   4.380   8.260   3.728
  301POPC   GL1 3916   4.346   8.465   4.187
  301POPC   GL2 3917   4.080   8.663   4.317
  301POPC   C1A 3918   4.445   8.577   4.651
  301POPC   D2A 3919   4.320   8.773   5.054
  301POPC   C3A 3920   4.427   8.547   5.434
  301POPC   C4A 3921   4.339   8.739   5.785
  301POPC   C1B 3922   3.967   8.837   4.681
  301POPC   C2B 3923   3.779   8.622   5.022
  301POPC   C3B 3924   3.930   8.688   5.445
  301POPC   C4B 3925   3.898   8.497   5.871
  302POPC   NC3 3926   9.957   3.634   3.963
  302POPC   PO4 3927   0.017   3.266   3.922
  302POPC   GL1 3928  10.385   3.470   4.283
  302POPC   GL2 3929  10.053   3.363   4.396
  302POPC   C1A 3930  10.451   3.571   4.735
  302POPC   D2A 3931  10.245   3.494   5.154
  302POPC   C3A 3932  10.319   3.694   5.560
  302POPC   C4A 3933  10.440   3.393   5.885
  302POPC   C1B 3934   9.942   3.703   4.715
  302POPC   C2B 3935  10.010   3.929   5.112
  302POPC   C3B 3936   9.813   3.731   5.469
  302POPC   C4B 3937   9.962   3.338   5.632
  303POPC   NC3 3938   0.951   6.386   3.747
  303POPC   PO4 3939   1.485   6.108   3.892
  303POPC   GL1 3940   1.407   6.274   4.281
  303POPC   GL2 3941   1.136   6.507   4.242
  303POPC   C1A 3942   1.452   6.365   4.701
  303POPC   D2A 3943   1.338   6.113   5.033
  303POPC   C3A 3944   1.405   6.282   5.407
  303POPC   C4A 3945   1.356   6.090   5.780
  303POPC   C1B 3946   0.958   6.528   4.677
  303POPC   C2B 3947   1.009   6.506   5.145
  303POPC   C3B 3948   0.980   6.501   5.622
  303POPC   C4B 3949   0.772   6.616   6.035
  304POPC   NC3 3950  10.015   5.970   3.898
  304POPC   PO4 3951   0.144   5.659   3.887
  304POPC   GL1 3952  10.406   5.622   4.277
  304POPC   GL2 3953  10.090   5.533   4.240
  304POPC   C1A 3954  10.267   5.747   4.697
  304POPC   D2A 3955   0.068   5.842   5.007
  304POPC   C3A 3956  10.380   5.632   5.336
  304POPC   C4A 3957  10.476   5.579   5.729
  304POPC   C1B 3958   9.804   5.494   4.603
  304POPC   C2B 3959   9.928   5.480   5.038
  304POPC   C3B 3960   9.844   5.549   5.461
  304POPC   C4B 3961  10.044   5.863   5.651
  305POPC   NC3 3962   8.466   4.798   3.879
  305POPC   PO4 3963   9.126   4.759   4.048
  305POPC   GL1 3964   8.843   4.667   4.366
  305POPC   GL2 3965   8.733   5.002   4.328
  305POPC   C1A 3966   8.875   4.624   4.806
  305POPC   D2A 3967   8.726   4.835   5.186
  305POPC   C3A 3968   8.749   4.831   5.621
  305POPC   C4A 3969   8.934   4.538   5.874
  305POPC   C1B 3970   8.563   5.020   4.741
  305POPC   C2B 3971   8.400   5.225   5.165
  305POPC   C3B 3972   8.293   5.045   5.563
  305POPC   C4B 3973   8.393   5.167   5.988
  306POPC   NC3 3974   0.733   2.960   3.704
  306POPC   PO4 3975   0.926   2.388   4.077
  306POPC   GL1 3976   0.954   2.455   4.441
  306POPC   GL2 3977   1.290   2.442   4.542
  306POPC   C1A 3978   0.785   2.472   4.794
  306POPC   D2A 3979   0.877   2.716   5.114
  306POPC   C3A 3980   1.072   2.613   5.482
  306POPC   C4A 3981   0.786   2.408   5.668
  306POPC   C1B 3982   1.315   2.495   4.998
  306POPC   C2B 3983   1.375   2.877   5.156
  306POPC   C3B 3984   1.371   3.039   5.531
  306POPC   C4B 3985   1.305   2.910   5.933
  307POPC   NC3 3986   8.084   7.763   3.889
  307POPC   PO4 3987   7.534   7.362   4.121
  307POPC   GL1 3988   7.846   7.744   4.317
  307POPC   GL2 3989   7.889   8.095   4.238
  307POPC   C1A 3990   8.094   7.796   4.718
  307POPC   D2A 3991   8.024   7.602   5.146
  307POPC   C3A 3992   8.118   7.810   5.541
  307POPC   C4A 3993   8.287   7.814   5.958
  307POPC   C1B 3994   7.681   8.155   4.649
  307POPC   C2B 3995   7.693   7.978   5.047
  307POPC   C3B 3996   7.627   7.873   5.450
  307POPC   C4B 3997   7.779   8.134   5.732
  308POPC   NC3 3998   4.316   7.849   3.904
  308POPC   PO4 3999   3.858   8.445   3.923
  308POPC   GL1 4000   3.929   8.151   4.263
  308POPC   GL2 4001   4.047   7.782   4.315
  308POPC   C1A 4002   4.005   8.294   4.673
  308POPC   D2A 4003   4.203   8.289   5.059
  308POPC   C3A 4004   4.082   8.193   5.500
  308POPC   C4A 4005   4.200   8.099   5.963
  308POPC   C1B 4006   4.225   7.830   4.763
  308POPC   C2B 4007   4.251   7.802   5.199
  308POPC   C3B 4008   4.316   7.746   5.620
  308POPC   C4B 4009   3.949   7.527   5.776
  309POPC   NC3 4010   0.793  10.163   3.499
  309POPC   PO4 4011   1.219   9.849   3.946
  309POPC   GL1 4012   1.274  10.048   4.323
  309POPC   GL2 4013   1.073  10.381   4.354
  309POPC   C1A 4014   1.065  10.028   4.740
  309POPC   D2A 4015   0.853  10.119   5.121
  309POPC   C3A 4016   0.753   9.815   5.430
  309POPC   C4A 4017   0.897   9.890   5.833
  309POPC   C1B 4018   0.950   0.029   4.786
  309POPC   C2B 4019   1.136   0.057   5.216
  309POPC   C3B 4020   1.075  10.284   5.579
  309POPC   C4B 4021   1.363  10.132   5.915
  310POPC   NC3 4022   3.401   8.818   3.934
  310POPC   PO4 4023   3.215   8.286   3.648
  310POPC   GL1 4024   3.436   8.398   4.198
  310POPC   GL2 4025   3.567   8.729   4.385
  310POPC   C1A 4026   3.495   8.306   4.640
  310POPC   D2A 4027   3.309   8.315   5.048
  310POPC   C3A 4028   3.519   8.400   5.414
  310POPC   C4A 4029   3.360   8.427   5.800
  310POPC   C1B 4030   3.302   8.762   4.761
  310POPC   C2B 4031   3.305   8.862   5.157
  310POPC   C3B 4032   3.303   9.028   5.523
  310POPC   C4B 4033   3.576   8.879   5.808
  311POPC   NC3 4034   8.693   2.942   3.895
  311POPC   PO4 4035   9.132   2.421   3.850
  311POPC   GL1 4036   8.945   2.422   4.259
  311POPC   GL2 4037   8.610   2.598   4.275
  311POPC   C1A 4038   8.801   2.384   4.699
  311POPC   D2A 4039   9.066   2.490   5.054
  311POPC   C3A 4040   8.949   2.479   5.483
  311POPC   C4A 4041   8.810   2.492   5.936
  311POPC   C1B 4042   8.553   2.822   4.684
  311POPC   C2B 4043   8.579   2.669   5.133
  311POPC   C3B 4044   8.607   2.844   5.560
  311POPC   C4B 4045   8.371   2.828   5.910
  312POPC   NC3 4046   8.880   2.016   3.845
  312POPC   PO4 4047   8.401   1.520   3.930
  312POPC   GL1 4048   8.347   1.814   4.274
  312POPC   GL2 4049   8.675   1.986   4.321
  312POPC   C1A 4050   8.316   2.018   4.670
  312POPC   D2A 4051   8.496   2.161   5.033
  312POPC   C3A 4052   8.414   1.985   5.408
  312POPC   C4A 4053   8.480   2.341   5.600
  312POPC   C1B 4054   8.817   1.827   4.725
  312POPC   C2B 4055   8.960   1.979   5.151
  312POPC   C3B 4056   8.882   1.976   5.592
  312POPC   C4B 4057   8.996   1.744   5.952
  313POPC   NC3 4058   7.906   4.285   4.104
  313POPC   PO4 4059   8.516   4.342   3.762
  313POPC   GL1 4060   8.415   4.406   4.200
  313POPC   GL2 4061   8.610   4.172   4.317
  313POPC   C1A 4062   8.410   4.477   4.663
  313POPC   D2A 4063   8.570   4.320   5.060
  313POPC   C3A 4064   8.455   4.454   5.461
  313POPC   C4A 4065   8.445   4.199   5.793
  313POPC   C1B 4066   8.904   4.149   4.629
  313POPC   C2B 4067   8.982   4.017   5.041
  313POPC   C3B 4068   8.903   4.209   5.451
  313POPC   C4B 4069   8.987   4.036   5.803
  314POPC   NC3 4070   3.569   8.076   3.848
  314POPC   PO4 4071   2.971   8.274   4.124
  314POPC   GL1 4072   3.151   7.925   4.304
  314POPC   GL2 4073   3.490   7.872   4.297
  314POPC   C1A 4074   3.251   7.879   4.765
  314POPC   D2A 4075   3.310   7.749   5.178
  314POPC   C3A 4076   3.270   7.978   5.560
  314POPC   C4A 4077   2.944   8.107   5.809
  314POPC   C1B 4078   3.730   7.856   4.673
  314POPC   C2B 4079   3.751   8.036   5.062
  314POPC   C3B 4080   3.742   7.832   5.437
  314POPC   C4B 4081   3.716   8.036   5.826
  315POPC   NC3 4082   2.848   7.999   3.781
  315POPC   PO4 4083   2.313   8.407   3.934
  315POPC   GL1 4084   2.498   8.266   4.308
  315POPC   GL2 4085   2.587   7.912   4.226
  315POPC   C1A 4086   2.418   8.182   4.734
  315POPC   D2A 4087   2.453   8.328   5.135
  315POPC   C3A 4088   2.468   8.128   5.466
  315POPC   C4A 4089   2.210   8.046   5.776
  315POPC   C1B 4090   2.776   7.852   4.631
  315POPC   C2B 4091   2.871   8.043   5.051
  315POPC   C3B 4092   2.834   7.803   5.396
  315POPC   C4B 4093   2.615   7.727   5.756
  316POPC   NC3 4094   0.079   2.864   3.639
  316POPC   PO4 4095   0.669   2.521   3.620
  316POPC   GL1 4096   0.568   2.728   4.101
  316POPC   GL2 4097   0.421   2.582   4.358
  316POPC   C1A 4098   0.736   2.926   4.512
  316POPC   D2A 4099   0.455   2.919   4.921
  316POPC   C3A 4100   0.477   2.898   5.405
  316POPC   C4A 4101   0.554   2.813   5.872
  316POPC   C1B 4102   0.274   2.453   4.771
  316POPC   C2B 4103   0.445   2.408   5.201
  316POPC   C3B 4104   0.279   2.478   5.611
  316POPC   C4B 4105   0.163   2.509   6.039
  317POPC   NC3 4106   2.117   2.729   3.975
  317POPC   PO4 4107   1.555   2.234   3.987
  317POPC   GL1 4108   1.768   2.428   4.338
  317POPC   GL2 4109   2.081   2.548   4.429
  317POPC   C1A 4110   1.708   2.687   4.755
  317POPC   D2A 4111   1.790   2.526   5.192
  317POPC   C3A 4112   1.584   2.547   5.573
  317POPC   C4A 4113   1.782   2.866   5.777
  317POPC   C1B 4114   2.147   2.431   4.819
  317POPC   C2B 4115   2.276   2.643   5.180
  317POPC   C3B 4116   2.163   2.570   5.591
  317POPC   C4B 4117   2.123   2.486   6.017
  318POPC   NC3 4118  10.213   1.964   3.879
  318POPC   PO4 4119   0.102   2.534   3.963
  318POPC   GL1 4120   0.049   2.135   4.284
  318POPC   GL2 4121  10.187   1.957   4.389
  318POPC   C1A 4122   0.049   1.992   4.746
  318POPC   D2A 4123  10.394   1.746   5.114
  318POPC   C3A 4124  10.227   1.891   5.514
  318POPC   C4A 4125  10.280   2.342   5.631
  318POPC   C1B 4126   9.967   1.897   4.817
  318POPC   C2B 4127   9.917   2.169   5.207
  318POPC   C3B 4128   9.791   2.120   5.658
  318POPC   C4B 4129   9.980   1.891   5.984
  319POPC   NC3 4130   7.709   6.153   4.098
  319POPC   PO4 4131   7.854   6.790   3.817
  319POPC   GL1 4132   8.113   6.579   4.237
  319POPC   GL2 4133   8.200   6.233   4.307
  319POPC   C1A 4134   8.113   6.633   4.676
  319POPC   D2A 4135   7.882   6.577   5.036
  319POPC   C3A 4136   8.112   6.580   5.415
  319POPC   C4A 4137   7.941   6.775   5.790
  319POPC   C1B 4138   7.973   6.152   4.700
  319POPC   C2B 4139   7.935   6.078   5.132
  319POPC   C3B 4140   8.165   6.057   5.481
  319POPC   C4B 4141   8.024   6.268   5.837
  320POPC   NC3 4142   5.039  10.249   3.853
  320POPC   PO4 4143   4.443   0.090   3.918
  320POPC   GL1 4144   4.596  10.356   4.302
  320POPC   GL2 4145   4.962  10.320   4.356
  320POPC   C1A 4146   4.678  10.468   4.753
  320POPC   D2A 4147   4.938  10.458   5.094
  320POPC   C3A 4148   4.802  10.169   5.408
  320POPC   C4A 4149   4.639  10.149   5.811
  320POPC   C1B 4150   4.895  10.017   4.702
  320POPC   C2B 4151   5.092   9.873   5.083
  320POPC   C3B 4152   5.141   9.757   5.531
  320POPC   C4B 4153   5.006   9.817   5.988
  321POPC   NC3 4154   7.723   2.775   3.722
  321POPC   PO4 4155   8.250   3.095   3.909
  321POPC   GL1 4156   8.160   2.920   4.312
  321POPC   GL2 4157   7.846   2.745   4.246
  321POPC   C1A 4158   8.159   2.537   4.603
  321POPC   D2A 4159   8.072   2.469   5.035
  321POPC   C3A 4160   8.132   2.696   5.429
  321POPC   C4A 4161   7.871   2.828   5.800
  321POPC   C1B 4162   7.659   2.615   4.661
  321POPC   C2B 4163   7.539   2.406   5.047
  321POPC   C3B 4164   7.627   2.594   5.424
  321POPC   C4B 4165   7.544   2.400   5.794
  322POPC   NC3 4166   3.761   2.825   3.973
  322POPC   PO4 4167   3.240   2.558   4.015
  322POPC   GL1 4168   3.433   2.442   4.423
  322POPC   GL2 4169   3.733   2.675   4.445
  322POPC   C1A 4170   3.722   2.289   4.746
  322POPC   D2A 4171   3.894   2.629   4.992
  322POPC   C3A 4172   3.639   2.705   5.372
  322POPC   C4A 4173   3.429   2.402   5.657
  322POPC   C1B 4174   3.385   2.917   4.617
  322POPC   C2B 4175   3.289   3.059   5.030
  322POPC   C3B 4176   3.084   3.078   5.423
  322POPC   C4B 4177   3.281   2.916   5.729
  323POPC   NC3 4178   1.075   3.867   3.948
  323POPC   PO4 4179   1.443   4.498   3.924
  323POPC   GL1 4180   1.307   4.217   4.231
  323POPC   GL2 4181   0.944   4.182   4.334
  323POPC   C1A 4182   1.353   4.356   4.646
  323POPC   D2A 4183   1.211   4.546   5.013
  323POPC   C3A 4184   1.173   4.324   5.394
  323POPC   C4A 4185   1.106   4.419   5.806
  323POPC   C1B 4186   0.897   4.153   4.765
  323POPC   C2B 4187   1.229   4.007   5.005
  323POPC   C3B 4188   1.473   3.881   5.351
  323POPC   C4B 4189   1.263   3.942   5.756
  324POPC   NC3 4190   9.199   8.507   3.788
  324POPC   PO4 4191   9.693   8.999   4.088
  324POPC   GL1 4192   9.515   8.761   4.373
  324POPC   GL2 4193   9.445   8.493   4.230
  324POPC   C1A 4194   9.466   8.923   4.754
  324POPC   D2A 4195   9.669   9.008   5.075
  324POPC   C3A 4196   9.380   8.864   5.338
  324POPC   C4A 4197   9.299   8.960   5.713
  324POPC   C1B 4198   9.406   8.371   4.658
  324POPC   C2B 4199   9.570   8.474   5.016
  324POPC   C3B 4200   9.406   8.359   5.402
  324POPC   C4B 4201   9.337   8.449   5.803
  325POPC   NC3 4202   5.680   1.274   3.861
  325POPC   PO4 4203   5.231   1.076   4.235
  325POPC   GL1 4204   5.651   0.985   4.342
  325POPC   GL2 4205   5.941   1.211   4.310
  325POPC   C1A 4206   5.840   0.956   4.757
  325POPC   D2A 4207   6.005   1.283   5.043
  325POPC   C3A 4208   5.843   1.257   5.472
  325POPC   C4A 4209   5.935   0.992   5.887
  325POPC   C1B 4210   5.623   1.406   4.627
  325POPC   C2B 4211   5.466   1.321   5.060
  325POPC   C3B 4212   5.333   1.130   5.477
  325POPC   C4B 4213   5.516   1.283   5.857
  326POPC   NC3 4214  10.371   1.143   3.842
  326POPC   PO4 4215   0.158   1.765   3.927
  326POPC   GL1 4216  10.423   1.516   4.230
  326POPC   GL2 4217  10.261   1.158   4.320
  326POPC   C1A 4218  10.306   1.525   4.656
  326POPC   D2A 4219  10.310   1.253   5.001
  326POPC   C3A 4220  10.192   1.370   5.400
  326POPC   C4A 4221  10.244   1.468   5.827
  326POPC   C1B 4222  10.123   0.925   4.678
  326POPC   C2B 4223  10.150   0.705   5.062
  326POPC   C3B 4224   9.970   0.736   5.447
  326POPC   C4B 4225  10.135   0.988   5.742
  327POPC   NC3 4226   1.088   1.941   3.992
  327POPC   PO4 4227   1.615   1.457   4.101
  327POPC   GL1 4228   1.444   1.814   4.387
  327POPC   GL2 4229   1.112   1.955   4.474
  327POPC   C1A 4230   1.504   1.685   4.832
  327POPC   D2A 4231   1.235   1.756   5.207
  327POPC   C3A 4232   1.311   2.089   5.503
  327POPC   C4A 4233   1.392   1.727   5.732
  327POPC   C1B 4234   1.139   2.068   4.836
  327POPC   C2B 4235   0.923   2.190   5.189
  327POPC   C3B 4236   0.804   1.942   5.482
  327POPC   C4B 4237   0.988   1.982   5.896
  328POPC   NC3 4238   9.314   3.576   3.810
  328POPC   PO4 4239   9.868   3.173   3.894
  328POPC   GL1 4240   9.546   3.231   4.244
  328POPC   GL2 4241   9.187   3.367   4.264
  328POPC   C1A 4242   9.508   3.378   4.690
  328POPC   D2A 4243   9.748   3.336   5.084
  328POPC   C3A 4244   9.494   3.242   5.439
  328POPC   C4A 4245   9.579   3.075   5.857
  328POPC   C1B 4246   9.076   3.650   4.605
  328POPC   C2B 4247   9.030   3.501   5.023
  328POPC   C3B 4248   8.982   3.640   5.420
  328POPC   C4B 4249   9.247   3.567   5.737
  329POPC   NC3 4250   9.520   2.179   3.943
  329POPC   PO4 4251   9.118   1.617   3.938
  329POPC   GL1 4252   9.194   1.939   4.265
  329POPC   GL2 4253   9.520   1.810   4.358
  329POPC   C1A 4254   9.224   2.129   4.687
  329POPC   D2A 4255   9.462   2.049   5.033
  329POPC   C3A 4256   9.374   2.233   5.398
  329POPC   C4A 4257   9.261   2.207   5.832
  329POPC   C1B 4258   9.347   1.632   4.749
  329POPC   C2B 4259   9.489   1.569   5.200
  329POPC   C3B 4260   9.355   1.763   5.586
  329POPC   C4B 4261   9.484   1.764   6.070
  330POPC   NC3 4262   0.276   7.106   3.850
  330POPC   PO4 4263  10.178   6.802   3.933
  330POPC   GL1 4264   0.044   6.949   4.279
  330POPC   GL2 4265   0.321   7.201   4.354
  330POPC   C1A 4266   0.230   6.861   4.708
  330POPC   D2A 4267   0.482   6.974   5.085
  330POPC   C3A 4268   0.241   7.133   5.424
  330POPC   C4A 4269   0.388   7.079   5.819
  330POPC   C1B 4270   0.682   7.243   4.688
  330POPC   C2B 4271   0.889   7.356   5.081
  330POPC   C3B 4272   0.696   7.377   5.472
  330POPC   C4B 4273   0.672   7.505   5.882
  331POPC   NC3 4274   1.527   4.986   3.903
  331POPC   PO4 4275   2.149   4.761   4.030
  331POPC   GL1 4276   2.069   5.001   4.359
  331POPC   GL2 4277   1.748   4.919   4.348
  331POPC   C1A 4278   1.965   5.082   4.794
  331POPC   D2A 4279   1.981   5.334   5.131
  331POPC   C3A 4280   2.222   5.255   5.502
  331POPC   C4A 4281   2.025   5.082   5.874
  331POPC   C1B 4282   1.784   4.622   4.690
  331POPC   C2B 4283   1.652   4.798   5.091
  331POPC   C3B 4284   1.882   4.876   5.410
  331POPC   C4B 4285   2.174   4.652   5.605
  332POPC   NC3 4286   1.118   7.918   3.947
  332POPC   PO4 4287   0.612   7.422   4.002
  332POPC   GL1 4288   0.741   7.767   4.310
  332POPC   GL2 4289   1.105   7.886   4.427
  332POPC   C1A 4290   0.807   7.749   4.771
  332POPC   D2A 4291   1.045   7.985   5.024
  332POPC   C3A 4292   0.930   7.809   5.376
  332POPC   C4A 4293   1.073   7.814   5.764
  332POPC   C1B 4294   1.453   7.993   4.664
  332POPC   C2B 4295   1.561   8.123   5.064
  332POPC   C3B 4296   1.360   8.077   5.440
  332POPC   C4B 4297   1.351   8.249   5.838
  333POPC   NC3 4298   9.854   6.519   4.096
  333POPC   PO4 4299  10.355   6.114   4.172
  333POPC   GL1 4300  10.091   6.270   4.458
  333POPC   GL2 4301  10.220   6.601   4.437
  333POPC   C1A 4302  10.077   6.334   4.871
  333POPC   D2A 4303  10.100   6.011   5.150
  333POPC   C3A 4304  10.440   6.147   5.407
  333POPC   C4A 4305  10.283   6.288   5.752
  333POPC   C1B 4306   9.953   6.825   4.698
  333POPC   C2B 4307   9.955   6.775   5.114
  333POPC   C3B 4308  10.175   6.690   5.464
  333POPC   C4B 4309  10.448   6.810   5.772
  334POPC   NC3 4310   3.383   3.625   3.837
  334POPC   PO4 4311   3.924   3.283   3.933
  334POPC   GL1 4312   3.610   3.241   4.271
  334POPC   GL2 4313   3.283   3.455   4.303
  334POPC   C1A 4314   3.586   3.381   4.717
  334POPC   D2A 4315   3.468   3.537   5.119
  334POPC   C3A 4316   3.560   3.241   5.459
  334POPC   C4A 4317   3.681   3.277   5.901
  334POPC   C1B 4318   3.034   3.361   4.678
  334POPC   C2B 4319   2.916   3.431   5.103
  334POPC   C3B 4320   3.127   3.577   5.500
  334POPC   C4B 4321   3.567   3.726   5.610
  335POPC   NC3 4322  10.398   5.241   3.932
  335POPC   PO4 4323  10.294   4.585   3.989
  335POPC   GL1 4324  10.273   4.822   4.326
  335POPC   GL2 4325  10.453   5.107   4.404
  335POPC   C1A 4326  10.052   4.692   4.674
  335POPC   D2A 4327  10.121   4.461   5.035
  335POPC   C3A 4328  10.100   4.659   5.411
  335POPC   C4A 4329   9.954   4.782   5.773
  335POPC   C1B 4330  10.194   5.196   4.685
  335POPC   C2B 4331  10.124   5.016   5.066
  335POPC   C3B 4332  10.271   5.137   5.462
  335POPC   C4B 4333  10.108   5.267   5.824
  336POPC   NC3 4334   6.357   1.214   3.871
  336POPC   PO4 4335   6.731   1.755   3.615
  336POPC   GL1 4336   6.686   1.523   4.117
  336POPC   GL2 4337   6.590   1.154   4.294
  336POPC   C1A 4338   6.747   1.478   4.623
  336POPC   D2A 4339   6.549   1.276   4.985
  336POPC   C3A 4340   6.648   1.332   5.420
  336POPC   C4A 4341   6.666   1.109   5.847
  336POPC   C1B 4342   6.334   0.977   4.612
  336POPC   C2B 4343   6.268   0.823   5.048
  336POPC   C3B 4344   6.278   0.980   5.473
  336POPC   C4B 4345   6.253   1.363   5.755
  337POPC   NC3 4346   2.346   9.640   3.753
  337POPC   PO4 4347   2.739   9.138   3.866
  337POPC   GL1 4348   2.815   9.482   4.332
  337POPC   GL2 4349   2.861   9.237   4.537
  337POPC   C1A 4350   2.724   9.644   4.775
  337POPC   D2A 4351   2.904   9.823   5.152
  337POPC   C3A 4352   2.667   9.600   5.467
  337POPC   C4A 4353   2.500   9.729   5.844
  337POPC   C1B 4354   2.812   9.059   4.889
  337POPC   C2B 4355   2.825   9.069   5.308
  337POPC   C3B 4356   2.632   9.127   5.656
  337POPC   C4B 4357   2.935   9.290   5.891
  338POPC   NC3 4358   6.449   2.529   3.658
  338POPC   PO4 4359   6.429   3.105   4.014
  338POPC   GL1 4360   6.469   2.946   4.420
  338POPC   GL2 4361   6.410   2.604   4.350
  338POPC   C1A 4362   6.475   2.930   4.871
  338POPC   D2A 4363   6.198   2.644   5.115
  338POPC   C3A 4364   6.190   2.772   5.550
  338POPC   C4A 4365   6.465   2.904   5.952
  338POPC   C1B 4366   6.614   2.472   4.705
  338POPC   C2B 4367   6.606   2.333   5.105
  338POPC   C3B 4368   6.645   2.576   5.444
  338POPC   C4B 4369   6.547   2.433   5.841
  339POPC   NC3 4370   1.288   1.086   3.615
  339POPC   PO4 4371   1.332   0.564   4.077
  339POPC   GL1 4372   1.202   0.651   4.437
  339POPC   GL2 4373   1.303   0.312   4.557
  339POPC   C1A 4374   0.961   0.628   4.779
  339POPC   D2A 4375   1.013   0.840   5.149
  339POPC   C3A 4376   1.057   0.563   5.492
  339POPC   C4A 4377   0.819   0.228   5.623
  339POPC   C1B 4378   1.458   0.591   4.879
  339POPC   C2B 4379   1.528   0.778   5.269
  339POPC   C3B 4380   1.546   0.595   5.658
  339POPC   C4B 4381   1.426   0.138   5.697
  340POPC   NC3 4382   1.876   1.814   3.968
  340POPC   PO4 4383   2.369   2.321   3.953
  340POPC   GL1 4384   2.198   2.061   4.347
  340POPC   GL2 4385   1.920   1.923   4.443
  340POPC   C1A 4386   2.188   1.931   4.846
  340POPC   D2A 4387   2.150   2.137   5.242
  340POPC   C3A 4388   2.324   1.919   5.579
  340POPC   C4A 4389   2.287   1.909   6.018
  340POPC   C1B 4390   1.684   2.158   4.737
  340POPC   C2B 4391   1.632   2.065   5.121
  340POPC   C3B 4392   1.790   1.819   5.434
  340POPC   C4B 4393   1.896   2.129   5.726
  341POPC   NC3 4394   8.326   6.735   3.831
  341POPC   PO4 4395   8.727   7.278   3.649
  341POPC   GL1 4396   8.685   7.052   4.071
  341POPC   GL2 4397   8.838   7.266   4.295
  341POPC   C1A 4398   8.500   6.938   4.533
  341POPC   D2A 4399   8.426   6.777   5.022
  341POPC   C3A 4400   8.408   7.005   5.390
  341POPC   C4A 4401   8.428   6.967   5.815
  341POPC   C1B 4402   8.962   7.088   4.674
  341POPC   C2B 4403   8.826   7.074   5.076
  341POPC   C3B 4404   8.900   7.283   5.449
  341POPC   C4B 4405   8.875   7.190   5.832
  342W        W 4406   1.288   4.687  10.469
  343W        W 4407   6.559   2.884   1.426
  344W        W 4408   6.561   8.577   9.134
  345W        W 4409   2.635   8.756  11.385
  346W        W 4410   6.216   6.133   1.304
  347W        W 4411   8.620   1.944   1.253
  348W        W 4412   3.760   7.520  11.547
  349W        W 4413   3.846   1.813   1.714
  350W        W 4414   6.938   3.256   0.068
  351W        W 4415   3.777   7.457   2.329
  352W        W 4416   7.544   7.399   3.145
  353W        W 4417   7.259   2.882  10.894
  354W        W 4418   6.630   6.059   2.559
  355W        W 4419  10.443   4.078   2.324
  356W        W 4420   0.730   2.877  11.584
  357W        W 4421   2.098   0.951  11.383
  358W        W 4422   0.812   2.614   8.771
  359W        W 4423   3.845   2.364  10.520
  360W        W 4424   7.603   0.734  11.912
  361W        W 4425   7.987   6.282  10.345
  362W        W 4426   9.607   5.014   1.956
  363W        W 4427   2.657   7.883   2.219
  364W        W 4428   3.752   6.447  10.494
  365W        W 4429   3.633   8.958   2.280
  366W        W 4430   5.598   9.698   1.311
  367W        W 4431   2.548   8.927   9.202
  368W        W 4432   4.956   4.821   1.674
  369W        W 4433   6.096   7.998   0.895
  370W        W 4434   9.179   3.298   9.369
  371W        W 4435  10.280   4.656   1.612
  372W        W 4436   8.517   9.362   3.239
  373W        W 4437   9.812   1.693  10.511
  374W        W 4438   4.634   4.384  10.883
  375W        W 4439   2.854   9.515   0.872
  376W        W 4440   3.923   8.618  11.468
  377W        W 4441  10.435   0.151   9.915
  378W        W 4442   8.520   8.373  10.432
  379W        W 4443   2.338   4.486   3.620
  380W        W 4444   3.342   9.664   0.990
  381W        W 4445   1.166   4.496   1.804
  382W        W 4446   6.133   8.570  10.944
  383W        W 4447   1.695   6.035   3.414
  384W        W 4448   1.522   9.234   0.407
  385W        W 4449   0.394   1.231   3.110
  386W        W 4450   2.177   7.863  11.031
  387W        W 4451   6.780   9.045  10.326
  388W        W 4452   3.056   7.694  11.929
  389W        W 4453   6.094   7.780  10.636
  390W        W 4454   2.603   5.221   2.824
  391W        W 4455   6.628   8.439  11.103
  392W        W 4456   9.042   9.553   3.096
  393W        W 4457   4.658  10.240   0.042
  394W        W 4458   7.329   5.916   3.865
  395W        W 4459   3.593   4.117   2.666
  396W        W 4460   1.552   9.658   3.601
  397W        W 4461  10.209   9.602   0.130
  398W        W 4462   3.747   7.706   9.965
  399W        W 4463   7.516  10.483   1.373
  400W        W 4464   5.131   4.582   8.237
  401W        W 4465   0.318   9.548  10.115
  402W        W 4466   9.726   9.523   2.486
  403W        W 4467   6.037   3.971   1.258
  404W        W 4468   7.205   1.307  10.337
  405W        W 4469   8.391   7.647   0.762
  406W        W 4470   3.796   0.267  10.066
  407W        W 4471   9.324   4.393   3.079
  408W        W 4472   2.370   3.240   9.355
  409W        W 4473   7.876   4.477  10.871
  410W        W 4474   8.017   7.542   3.293
  411W        W 4475   5.633   6.987   0.433
  412W        W 4476   9.021   9.100   2.155
  413W        W 4477   5.603   7.333   1.880
  414W        W 4478   8.462   6.172   8.670
  415W        W 4479   1.087   9.221   9.643
  416W        W 4480   8.066  10.167  10.183
  417W        W 4481   1.913  10.402   3.259
  418W        W 4482   7.894   0.949   2.283
  419W        W 4483   6.845   4.664   0.045
  420W        W 4484   8.901   3.520   2.344
  421W        W 4485   1.717   2.015   2.298
  422W        W 4486   9.659   8.365   0.823
  423W        W 4487   5.459   7.499   9.998
  424W        W 4488   1.342   7.448  10.926
  425W        W 4489   6.054   4.769  11.453
  426W        W 4490   0.922   9.551   0.420
  427W        W 4491   1.312   9.869   2.416
  428W        W 4492   4.133   4.514   0.205
  429W        W 4493   4.082   9.465   9.871
  430W        W 4494   4.813   3.211  10.291
  431W        W 4495   5.208   7.953   8.925
  432W        W 4496   6.045   9.999   2.796
  433W        W 4497   8.861   4.817  11.822
  434W        W 4498   0.852   7.530   3.106
  435W        W 4499   0.863   4.927   2.665
  436W        W 4500   4.390  10.399  10.018
  437W        W 4501   3.852   0.444  11.452
  438W        W 4502   0.015   6.985  11.340
  439W        W 4503   8.438   3.133   8.828
  440W        W 4504   3.624   6.422   3.666
  441W        W 4505   4.271   8.474   0.754
  442W        W 4506   4.270   8.843  11.108
  443W        W 4507   1.947   5.606   3.336
  444W        W 4508   7.594   8.600   1.218
  445W        W 4509   5.172   7.241   3.927
  446W        W 4510   6.446   9.797  11.489
  447W        W 4511   7.176   0.873   9.181
  448W        W 4512   4.772  10.442  10.611
  449W        W 4513   9.043   5.565   3.447
  450W        W 4514   1.674   6.631   9.322
  451W        W 4515   8.386   4.077   2.213
  452W        W 4516   9.011   6.556   1.475
  453W        W 4517   7.424   7.702   2.733
  454W        W 4518   6.992   6.034   3.114
  455W        W 4519   1.841   6.618  10.846
  456W        W 4520   8.715   3.407   0.052
  457W        W 4521   7.161   0.799   1.000
  458W        W 4522   1.911   5.276   9.128
  459W        W 4523   9.041   5.472  10.120
  460W        W 4524  10.239   5.018   0.720
  461W        W 4525   2.839   4.682   3.543
  462W        W 4526   0.981   7.012   1.305
  463W        W 4527   0.885   4.439  10.289
  464W        W 4528   6.988   4.897   0.999
  465W        W 4529   6.413   2.054   9.524
  466W        W 4530   7.506   0.508  11.289
  467W        W 4531   5.627   8.487  10.858
  468W        W 4532   3.772   7.075   9.135
  469W        W 4533  10.131   7.573  10.396
  470W        W 4534   9.342   1.837  10.359
  471W        W 4535   1.619   1.961   1.777
  472W        W 4536   7.028   3.124   3.083
  473W        W 4537   4.012   0.362   8.723
  474W        W 4538   4.760   4.900   8.433
  475W        W 4539   5.039   2.587   0.350
  476W        W 4540   6.683   6.681  11.900
  477W        W 4541   7.727   0.475   2.318
  478W        W 4542   4.531   9.582   8.491
  479W        W 4543   8.428   0.811   2.267
  480W        W 4544   5.269   9.149  11.961
  481W        W 4545   4.720   6.605  10.718
  482W        W 4546   6.721   3.098   0.979
  483W        W 4547   0.860   2.101   0.685
  484W        W 4548   8.449   7.710   3.539
  485W        W 4549   1.270  10.264   3.316
  486W        W 4550   6.432   6.960   3.334
  487W        W 4551   3.782   8.497   0.889
  488W        W 4552   5.638   8.420   2.709
  489W        W 4553   2.650   6.114   8.313
  490W        W 4554   3.746   8.735   3.533
  491W        W 4555   2.103   8.536   1.613
  492W        W 4556   7.273   6.501  10.716
  493W        W 4557   1.193   5.642   9.019
  494W        W 4558   7.729   6.756   9.288
  495W        W 4559   4.564   7.115  10.731
  496W        W 4560   5.450   3.687   8.207
  497W        W 4561   3.158   4.120   9.760
  498W        W 4562   8.956   1.324   9.726
  499W        W 4563   0.004   3.154   2.651
  500W        W 4564   6.006   4.757   2.493
  501W        W 4565   7.711   8.972  11.493
  502W        W 4566   4.113   2.592   9.449
  503W        W 4567  10.017   0.190  10.218
  504W        W 4568   7.551   0.101   3.373
  505W        W 4569   0.736   2.526  10.741
  506W        W 4570   3.219   6.738   2.478
  507W        W 4571   1.128   2.373   9.690
  508W        W 4572   4.108   6.227   1.977
  509W        W 4573   3.791   5.036  10.611
  510W        W 4574   9.243   2.767  11.369
  511W        W 4575   5.435   4.895   3.666
  512W        W 4576   8.568   9.866   1.666
  513W        W 4577   2.449   9.195   1.183
  514W        W 4578   4.509   4.534   9.989
  515W        W 4579   6.770   7.544   1.336
  516W        W 4580   4.634   9.283  11.566
  517W        W 4581   5.178   3.619   3.278
  518W        W 4582   8.918   6.012   0.877
  519W        W 4583   2.844   3.701   3.170
  520W        W 4584   7.006   4.410   3.904
  521W        W 4585   4.804   9.847  10.306
  522W        W 4586  10.381   6.098   8.880
  523W        W 4587   5.278   4.062   0.192
  524W        W 4588   9.432   4.253   0.736
  525W        W 4589   5.314   4.127  10.326
  526W        W 4590  10.252   4.254  10.097
  527W        W 4591   4.268  10.115   2.728
  528W        W 4592   2.527   1.430   3.134
  529W        W 4593   6.186   3.452   3.113
  530W        W 4594   6.940   0.367   2.002
  531W        W 4595   2.768   1.421   1.010
  532W        W 4596   5.971   3.138   8.878
  533W        W 4597   3.148   2.212   9.541
  534W        W 4598   9.123   4.174   9.568
  535W        W 4599   8.468   2.444   0.397
  536W        W 4600   5.691   5.459   9.505
  537W        W 4601   2.600   1.570   9.043
  538W        W 4602   8.906   4.285  10.510
  539W        W 4603   2.223   9.935   9.028
  540W        W 4604   5.762   7.163  11.919
  541W        W 4605   8.456   3.831   2.856
  542W        W 4606  10.232   9.568   2.389
  543W        W 4607   9.320   5.083  11.014
  544W        W 4608   7.953   6.469   2.255
  545W        W 4609   6.949   4.748   9.828
  546W        W 4610   1.279   5.116   2.377
  547W        W 4611   9.635   0.436  10.452
  548W        W 4612   9.799   0.376   1.236
  549W        W 4613   4.801   1.776   1.969
  550W        W 4614   5.326   7.374   0.308
  551W        W 4615   0.524   4.022  11.392
  552W        W 4616   8.018   5.555   3.415
  553W        W 4617   4.245   8.277  11.177
  554W        W 4618   4.727   9.867   2.698
  555W        W 4619   1.327   9.759   1.401
  556W        W 4620  10.434   1.243   1.431
  557W        W 4621   7.914   5.411   9.388
  558W        W 4622   3.869   0.682   9.752
  559W        W 4623   0.465   0.918   2.708
  560W        W 4624   3.782   9.520   0.647
  561W        W 4625   1.590   1.984  10.972
  562W        W 4626   5.474   2.628   9.237
  563W        W 4627   3.486   3.374   0.373
  564W        W 4628   4.072   8.243  10.305
  565W        W 4629   9.080   1.460   8.713
  566W        W 4630   8.041   6.253  11.710
  567W        W 4631   8.107   4.623  10.449
  568W        W 4632   3.250   0.899   8.771
  569W        W 4633   2.336   8.197   1.331
  570W        W 4634   0.708   6.073   3.263
  571W        W 4635   3.552   6.724   3.226
  572W        W 4636   8.245   3.405   0.253
  573W        W 4637   3.046   0.101   0.952
  574W        W 4638   2.626  10.228   8.850
  575W        W 4639   3.738   1.414   1.385
  576W        W 4640   2.074   5.088   9.755
  577W        W 4641   4.247   0.233  11.758
  578W        W 4642   9.911   4.885  10.049
  579W        W 4643   5.442   1.301  10.018
  580W        W 4644   9.953   8.560   9.514
  581W        W 4645   0.761   4.041   9.973
  582W        W 4646   9.330   0.476   9.529
  583W        W 4647   3.945   5.922   3.212
  584W        W 4648  10.218   7.429   8.476
  585W        W 4649   5.199   8.241   1.445
  586W        W 4650   7.042   1.533  10.833
  587W        W 4651  10.311   1.616   2.910
  588W        W 4652   2.274   2.692   0.664
  589W        W 4653  10.343   9.401   9.004
  590W        W 4654   1.749   3.329  11.484
  591W        W 4655   7.872   9.360   2.098
  592W        W 4656   9.937   3.765   1.143
  593W        W 4657   1.266   0.047  10.338
  594W        W 4658   1.474   8.986   9.389
  595W        W 4659   7.960   8.554  10.725
  596W        W 4660  10.136   4.304   3.228
  597W        W 4661   5.555   5.010  11.354
  598W        W 4662   1.746   2.710   2.936
  599W        W 4663   0.035   4.327   3.539
  600W        W 4664   8.373   0.501  11.262
  601W        W 4665  10.353  10.367   1.246
  602W        W 4666   1.047   4.730   3.121
  603W        W 4667   4.533   6.201   8.558
  604W        W 4668  10.196   3.347   3.490
  605W        W 4669  10.391   5.163  10.084
  606W        W 4670   8.959   5.153   2.428
  607W        W 4671   9.438   6.077   3.140
  608W        W 4672  10.309   0.623  10.067
  609W        W 4673   4.253   3.821   2.716
  610W        W 4674  10.360  10.075  10.772
  611W        W 4675   7.108   3.296  10.595
  612W        W 4676   4.960   2.142   9.695
  613W        W 4677   6.399   3.595   8.470
  614W        W 4678  10.395   3.761   1.445
  615W        W 4679   9.530   5.911   2.234
  616W        W 4680   5.076   2.613   9.558
  617W        W 4681   1.773  10.275  11.663
  618W        W 4682   3.634   1.300  10.402
  619W        W 4683   8.348  10.041  10.913
  620W        W 4684   2.886   1.286   0.238
  621W        W 4685   2.387   8.415   9.203
  622W        W 4686  10.249  10.199   1.752
  623W        W 4687   9.724   2.671   0.456
  624W        W 4688   0.408   1.177   1.729
  625W        W 4689   2.113   5.546   9.534
  626W        W 4690   8.050   7.004   1.378
  627W        W 4691   0.316   9.529   9.599
  628W        W 4692   5.329   5.037   1.395
  629W        W 4693   5.341   0.200   1.187
  630W        W 4694   9.495   7.955   9.928
  631W        W 4695   9.742   7.825  11.890
  632W        W 4696   3.728   2.238   3.584
  633W        W 4697   9.887   3.826   9.300
  634W        W 4698   6.623   7.444  10.029
  635W        W 4699   7.672   3.172   9.258
  636W        W 4700   3.167   0.616   3.535
  637W        W 4701   0.863   3.988   8.950
  638W        W 4702   8.459   0.350  11.729
  639W        W 4703   0.805   0.416   8.937
  640W        W 4704   7.072   4.084   2.579
  641W        W 4705   9.518   0.094   8.536
  642W        W 4706   5.158   7.238   1.656
  643W        W 4707   6.046   2.060   2.154
  644W        W 4708   9.555   7.029  11.510
  645W        W 4709   5.183   7.611   2.601
  646W        W 4710   7.495   7.640   8.851
  647W        W 4711   3.574   5.163   1.210
  648W        W 4712   7.896   3.964  11.005
  649W        W 4713   6.130   5.979   2.732
  650W        W 4714   6.166   1.878   9.101
  651W        W 4715   7.919   4.345   0.464
  652W        W 4716   5.792   8.387  10.039
  653W        W 4717   7.141   5.960  11.823
  654W        W 4718   0.910   1.422   9.801
  655W        W 4719   9.925   6.238   0.888
  656W        W 4720   8.159   5.637   0.592
  657W        W 4721   2.830   5.039   9.564
  658W        W 4722   0.388   1.252  11.845
  659W        W 4723   8.044   5.448   1.290
  660W        W 4724   4.545   9.863   2.208
  661W        W 4725   2.596   1.986  11.802
  662W        W 4726   1.859   4.745   8.547
  663W        W 4727   6.029   3.236   0.740
  664W        W 4728   0.186   9.294   2.496
  665W        W 4729   6.542   1.374   1.330
  666W        W 4730   7.194   0.380   9.399
  667W        W 4731   2.119   6.593   9.021
  668W        W 4732   7.000   3.188   0.562
  669W        W 4733   2.438   9.627   0.223
  670W        W 4734   4.017   3.273  10.040
  671W        W 4735   5.072   3.546   2.797
  672W        W 4736   8.815   8.422  11.846
  673W        W 4737   4.578   0.598  10.507
  674W        W 4738   4.243   0.922   9.986
  675W        W 4739   5.173   0.844   8.906
  676W        W 4740   9.956   0.308   0.205
  677W        W 4741   6.046   9.643   0.024
  678W        W 4742   6.534   4.722  11.641
  679W        W 4743   2.277   1.281   8.501
  680W        W 4744   1.761   4.677  10.616
  681W        W 4745   4.205   8.012   1.646
  682W        W 4746   4.639   0.527   1.008
  683W        W 4747   7.481   0.150  10.866
  684W        W 4748   0.103   4.946  11.268
  685W        W 4749   4.043   2.880  10.387
  686W        W 4750   7.952   6.792   0.920
  687W        W 4751   7.865   9.028   1.348
  688W        W 4752   5.678   4.516  10.291
  689W        W 4753   2.082   8.601  11.419
  690W        W 4754   5.666   7.591   2.347
  691W        W 4755   7.724   1.866  11.378
  692W        W 4756   0.507   6.988  11.116
  693W        W 4757   2.818   4.517   1.492
  694W        W 4758   9.858   1.208  10.676
  695W        W 4759   6.016   0.660   1.468
  696W        W 4760   0.708   0.677  10.348
  697W        W 4761   9.555   2.614   9.971
  698W        W 4762   3.552   9.185   1.821
  699W        W 4763   1.504   5.582   2.396
  700W        W 4764   5.012   6.599   9.011
  701W        W 4765   6.409   0.734   9.499
  702W        W 4766   2.367   3.067  10.973
  703W        W 4767   4.618   6.028   2.834
  704W        W 4768   5.193   2.226   0.022
  705W        W 4769   3.762   9.846   2.741
  706W        W 4770   3.038   7.978  10.056
  707W        W 4771   3.803   8.226   1.870
  708W        W 4772   2.465   0.943   2.229
  709W        W 4773   3.000   1.118  11.368
  710W        W 4774   0.348   2.385   9.155
  711W        W 4775   8.470   7.168   1.634
  712W        W 4776   2.269   1.210   1.705
  713W        W 4777   4.154   1.771   0.207
  714W        W 4778   5.670   7.919   2.861
  715W        W 4779   2.790   7.022  11.346
  716W        W 4780   7.171   1.726   2.277
  717W        W 4781   7.318   8.565  11.512
  718W        W 4782   1.323   3.323   8.730
  719W        W 4783   0.910   3.706  11.250
  720W        W 4784   1.877   4.159   1.283
  721W        W 4785   7.996   8.364   9.731
  722W        W 4786   2.062   7.619  10.057
  723W        W 4787   6.184   3.043   2.226
  724W        W 4788   1.206  10.012  11.688
  725W        W 4789   6.465   6.974  10.532
  726W        W 4790   5.718   6.613   8.424
  727W        W 4791   0.883   2.610   0.610
  728W        W 4792   9.955   6.119  11.954
  729W        W 4793   9.401   8.716  11.354
  730W        W 4794   9.230   5.220  10.524
  731W        W 4795   8.840   2.699   3.033
  732W        W 4796   0.389   9.501   3.361
  733W        W 4797   1.409   6.703   1.384
  734W        W 4798   6.549   7.996  11.375
  735W        W 4799   6.155   8.408   8.784
  736W        W 4800   0.987  10.179   2.223
  737W        W 4801   2.802   2.197   1.256
  738W        W 4802   5.139   3.600   0.034
  739W        W 4803   7.485   4.538   3.697
  740W        W 4804   5.999   0.568  10.626
  741W        W 4805   0.782   0.135   2.298
  742W        W 4806  10.167  10.229  10.005
  743W        W 4807   3.526   8.855  11.690
  744W        W 4808   2.795   5.074   1.821
  745W        W 4809   1.478   0.974   2.615
  746W        W 4810   6.613   6.537   2.199
  747W        W 4811   2.592   7.002   9.728
  748W        W 4812   4.752   7.536   2.301
  749W        W 4813   0.016   3.454  11.944
  750W        W 4814   3.256   8.945   1.473
  751W        W 4815   4.646  10.238   3.508
  752W        W 4816   9.137   8.890   1.721
  753W        W 4817   6.183  10.464   2.662
  754W        W 4818   6.466   3.388   2.665
  755W        W 4819   4.523   3.091   8.906
  756W        W 4820   4.715   0.766   3.365
  757W        W 4821   2.169   8.041   2.386
  758W        W 4822   8.656   1.805   2.019
  759W        W 4823   9.467   6.998   8.835
  760W        W 4824   7.438   2.272   8.746
  761W        W 4825   2.756   1.686   0.563
  762W        W 4826   7.702   8.618   8.898
  763W        W 4827   3.259   4.526   1.756
  764W        W 4828   9.848   8.770   1.053
  765W        W 4829   0.237   9.862  10.533
  766W        W 4830   9.393   5.116  10.031
  767W        W 4831   7.910   4.561   1.512
  768W        W 4832   3.367   9.458   1.444
  769W        W 4833   0.685   5.637   9.579
  770W        W 4834   4.049   6.627   9.204
  771W        W 4835   5.852   1.653   1.915
  772W        W 4836   7.316  10.035   9.199
  773W        W 4837   6.727   4.695   9.089
  774W        W 4838   2.306   8.222  10.672
  775W        W 4839   4.522   8.228   8.481
  776W        W 4840   5.585   8.833   9.698
  777W        W 4841   8.332   9.460  11.781
  778W        W 4842   7.330   7.850  11.028
  779W        W 4843   6.827   9.803   1.674
  780W        W 4844   7.714   2.661  10.911
  781W        W 4845   7.081   6.903   0.849
  782W        W 4846   0.471  10.300  10.481
  783W        W 4847   1.262   7.939   9.118
  784W        W 4848   1.846   8.369   0.249
  785W        W 4849   1.692   3.813   0.424
  786W        W 4850   8.414   9.032   9.267
  787W        W 4851   2.365   5.719  11.887
  788W        W 4852   6.395   4.008   9.722
  789W        W 4853   9.800   2.813   1.443
  790W        W 4854   3.180   7.484   0.387
  791W        W 4855   1.828   5.716   0.511
  792W        W 4856   6.235   5.556   3.032
  793W        W 4857   9.971   9.976   0.373
  794W        W 4858   4.576  10.416   9.178
  795W        W 4859  10.474   7.916   1.857
  796W        W 4860   3.719   7.059  11.849
  797W        W 4861   8.378   1.275   9.060
  798W        W 4862   9.130   8.038   0.625
  799W        W 4863   1.271   5.520   0.585
  800W        W 4864   2.266  10.040   2.491
  801W        W 4865   3.755   8.438  11.935
  802W        W 4866   0.788   0.183  10.467
  803W        W 4867   9.576   8.975   0.205
  804W        W 4868   4.923   1.603   3.696
  805W        W 4869   3.408  10.367  10.381
  806W        W 4870   3.118   8.521  10.341
  807W        W 4871   4.910   4.166  11.270
  808W        W 4872   6.202   1.405   0.253
  809W        W 4873   9.081   5.520  10.932
  810W        W 4874   0.392   6.051   8.852
  811W        W 4875   7.011   2.720   1.712
  812W        W 4876   2.685   3.212   1.969
  813W        W 4877   1.874   8.005   1.451
  814W        W 4878   1.933  10.412   2.680
  815W        W 4879   8.596   4.673  10.559
  816W        W 4880  10.018   8.399   3.400
  817W        W 4881   3.896   3.403   0.699
  818W        W 4882   5.051   4.550   3.689
  819W        W 4883   3.570   7.864   9.445
  820W        W 4884   5.094   8.474   8.892
  821W        W 4885   4.562   6.852   3.469
  822W        W 4886   6.950   8.044   2.538
  823W        W 4887   0.005   3.649   8.846
  824W        W 4888   8.499   9.961   2.170
  825W        W 4889   0.369   9.901   1.681
  826W        W 4890   6.919  10.492   9.690
  827W        W 4891   6.552   6.542   9.734
  828W        W 4892  10.304   6.070   3.427
  829W        W 4893   7.639   8.883   1.983
  830W        W 4894   9.115   7.583  11.958
  831W        W 4895  10.008   3.285  10.978
  832W        W 4896   6.118   0.047   0.711
  833W        W 4897   1.217   3.634  10.078
  834W        W 4898   9.842   1.903   8.583
  835W        W 4899   0.286   2.709   1.497
  836W        W 4900   9.338   8.385   2.035
  837W        W 4901   2.763   7.454   3.459
  838W        W 4902   0.098   6.581   0.703
  839W        W 4903   8.148   9.436   8.687
  840W        W 4904   2.912   1.623  10.516
  841W        W 4905   2.368   6.991   8.790
  842W        W 4906   3.260   8.449  10.924
  843W        W 4907   4.027   6.136   8.400
  844W        W 4908   5.540   3.884   3.536
  845W        W 4909   1.694   8.036   9.377
  846W        W 4910   7.529   8.383   1.871
  847W        W 4911  10.460   4.211   1.201
  848W        W 4912   7.772   6.434  10.770
  849W        W 4913   7.043   7.494   3.208
  850W        W 4914   9.674   6.472  10.730
  851W        W 4915   3.151   2.632   1.001
  852W        W 4916   2.987   1.776   0.064
  853W        W 4917   3.289   4.878  11.508
  854W        W 4918   5.182   5.748  11.856
  855W        W 4919   1.315   3.324   1.204
  856W        W 4920   9.018   3.568  10.854
  857W        W 4921   8.175   8.820   0.396
  858W        W 4922   2.739   6.967   1.457
  859W        W 4923   9.852   7.351   1.734
  860W        W 4924   5.160  10.474  11.335
  861W        W 4925   5.777   8.053   3.417
  862W        W 4926   3.342   9.398   3.482
  863W        W 4927  10.387   0.860   1.807
  864W        W 4928   7.465   6.462   3.746
  865W        W 4929   7.502   4.897  11.796
  866W        W 4930   6.462   8.870   2.517
  867W        W 4931   6.998   7.486   1.814
  868W        W 4932   1.932   4.781   2.498
  869W        W 4933   7.611   9.135   9.994
  870W        W 4934   0.268   4.268   0.465
  871W        W 4935   7.118   2.682   8.835
  872W        W 4936   8.136   3.215   1.492
  873W        W 4937   1.280   6.233   1.544
  874W        W 4938   4.253   4.685  11.725
  875W        W 4939  10.440   7.522  10.003
  876W        W 4940   9.589   0.654   9.948
  877W        W 4941   9.931   0.716  10.787
  878W        W 4942   4.153   4.534   3.688
  879W        W 4943   3.582   9.046   9.104
  880W        W 4944   3.300   9.268   2.484
  881W        W 4945   5.000   7.634   0.034
  882W        W 4946   8.614   5.059  11.386
  883W        W 4947   0.411   0.486   9.271
  884W        W 4948   0.940   8.541  10.220
  885W        W 4949   4.187   2.388   3.041
  886W        W 4950   0.458   8.319   1.250
  887W        W 4951   1.843   8.900   1.881
  888W        W 4952   5.575   3.199   8.049
  889W        W 4953   3.818   0.376   0.444
  890W        W 4954   1.186   5.160   9.695
  891W        W 4955   8.938   9.331   3.527
  892W        W 4956   1.630   0.925   1.092
  893W        W 4957   7.605   1.055   1.135
  894W        W 4958   9.989  10.024   1.223
  895W        W 4959   1.250   5.005   0.392
  896W        W 4960   1.731   0.721   9.463
  897W        W 4961   1.816   6.682   2.278
  898W        W 4962   7.810   8.996  10.446
  899W        W 4963  10.407   3.144   8.739
  900W        W 4964  10.278   7.936   8.703
  901W        W 4965   9.129   9.577  10.957
  902W        W 4966  10.115   9.935   8.966
  903W        W 4967   2.389   7.265   0.954
  904W        W 4968  10.071   9.081   0.339
  905W        W 4969   0.282   0.701  10.681
  906W        W 4970   4.785   0.830   2.183
  907W        W 4971   4.530   8.697   3.538
  908W        W 4972  10.370   8.582   0.230
  909W        W 4973   3.265   2.091  10.809
  910W        W 4974   6.509   0.742  11.277
  911W        W 4975   0.033   3.264   2.146
  912W        W 4976   5.097   7.188   2.175
  913W        W 4977   1.130   3.793   2.400
  914W        W 4978   7.617   9.275  11.933
  915W        W 4979   9.826   1.236   0.478
  916W        W 4980   5.633   7.686  10.444
  917W        W 4981   2.825   7.432   0.740
  918W        W 4982   8.502   3.571   3.342
  919W        W 4983   0.651   5.613  11.869
  920W        W 4984   2.182   9.548   1.472
  921W        W 4985   5.497   7.687   3.767
  922W        W 4986   0.458   8.447   0.395
  923W        W 4987   5.942   7.538  11.589
  924W        W 4988   6.618   7.188   0.812
  925W        W 4989   8.771   7.316   0.856
  926W        W 4990   4.973   0.768   2.681
  927W        W 4991   4.417   6.933  11.207
  928W        W 4992   7.485   5.009   3.515
  929W        W 4993   3.087   3.023   1.742
  930W        W 4994   8.624   3.286   1.738
  931W        W 4995   1.234   2.750   3.207
  932W        W 4996   7.541   8.555  10.287
  933W        W 4997   4.852   3.097   2.213
  934W        W 4998   5.820   2.251   9.205
  935W        W 4999   6.490   9.349  10.728
  936W        W 5000   7.101   7.405   0.934
  937W        W 5001   5.012   5.478   2.118
  938W        W 5002   4.638   7.578   9.020
  939W        W 5003   0.529   9.908   0.262
  940W        W 5004   3.096   2.830  10.317
  941W        W 5005   0.280   5.551   1.859
  942W        W 5006  10.327   9.953   2.754
  943W        W 5007   9.935   9.570   9.292
  944W        W 5008   7.121   9.881   2.151
  945W        W 5009   5.627   5.982   2.911
  946W        W 5010  10.066   2.513   2.826
  947W        W 5011   8.381   2.936   0.305
  948W        W 5012   3.813   7.055  11.332
  949W        W 5013   6.104   6.576  10.050
  950W        W 5014   8.089   5.552   2.373
  951W        W 5015   5.221   7.664   2.088
  952W        W 5016   6.017   9.571   0.522
  953W        W 5017   9.755  10.403   3.815
  954W        W 5018   6.068   0.020  11.272
  955W        W 5019   6.531   4.027   0.012
  956W        W 5020   7.735   2.467   0.654
  957W        W 5021   1.901   4.814   3.596
  958W        W 5022   6.559   9.136   9.866
  959W        W 5023   1.355   0.515   2.948
  960W        W 5024   9.514   6.971  10.758
  961W        W 5025   9.073   3.064   2.370
  962W        W 5026   9.996   0.800   3.758
  963W        W 5027   0.616   4.735   8.674
  964W        W 5028   3.312   6.146  10.508
  965W        W 5029   6.063   7.088   3.680
  966W        W 5030   2.794   3.700   2.124
  967W        W 5031   3.582   6.474   2.199
  968W        W 5032   5.243   2.101   1.229
  969W        W 5033   3.393   4.993   0.777
  970W        W 5034   2.670   0.204   9.309
  971W        W 5035   4.593   4.578   1.937
  972W        W 5036  10.075   7.205   2.401
  973W        W 5037   7.123   8.339   8.580
  974W        W 5038   5.225   2.217   2.106
  975W        W 5039   1.222   5.207   2.953
  976W        W 5040   8.133   1.777   9.009
  977W        W 5041   6.656   5.401   9.517
  978W        W 5042   6.509   4.133   0.936
  979W        W 5043   4.981   1.411  10.203
  980W        W 5044   2.208   5.976   8.580
  981W        W 5045   0.926   6.809   2.823
  982W        W 5046   7.148   3.111   2.047
  983W        W 5047   7.468   6.599   1.003
  984W        W 5048   2.922   9.549  11.807
  985W        W 5049   0.699   2.350   2.113
  986W        W 5050   4.551   8.213   9.989
  987W        W 5051   2.434   9.349   3.183
  988W        W 5052   4.563   1.245   9.415
  989W        W 5053   3.836   3.623   3.565
  990W        W 5054   6.273   1.549   9.456
  991W        W 5055   4.773   6.443   4.155
  992W        W 5056   6.270   1.438   3.261
  993W        W 5057   9.506   4.137  11.349
  994W        W 5058   2.372   7.905   3.616
  995W        W 5059   1.619   5.531   1.875
  996W        W 5060   8.742   1.518   1.571
  997W        W 5061   1.286   9.488   9.226
  998W        W 5062   0.839   6.838   8.720
  999W        W 5063   2.883   1.470   2.792
 1000W        W 5064   5.578   9.505   9.959
 1001W        W 5065   0.572   1.820   1.363
 1002W        W 5066   5.541   6.942   0.950
 1003W        W 5067   5.510   4.862  10.856
 1004W        W 5068   1.758   9.959  10.835
 1005W        W 5069   3.795   4.933  11.614
 1006W        W 5070   0.021   6.217  10.890
 1007W        W 5071   8.369   2.781  11.429
 1008W        W 5072   6.797   8.505  11.566
 1009W        W 5073   1.323   0.529   1.148
 1010W        W 5074   0.931   7.295   2.664
 1011W        W 5075   1.217   0.608   1.665
 1012W        W 5076   5.203   5.604   9.431
 1013W        W 5077   7.649   4.687   8.738
 1014W        W 5078   3.713   4.596   2.431
 1015W        W 5079   9.558   9.745   9.620
 1016W        W 5080   5.834   3.257   3.917
 1017W        W 5081   9.086   3.106  11.022
 1018W        W 5082   8.156   1.729   1.285
 1019W        W 5083   0.713   9.892  11.774
 1020W        W 5084   8.688   8.954   0.460
 1021W        W 5085   6.949   7.942   9.347
 1022W        W 5086   9.086   2.608  10.897
 1023W        W 5087   7.574   0.982   8.882
 1024W        W 5088   4.099   4.708  10.275
 1025W        W 5089   4.503   8.950   1.645
 1026W        W 5090   3.554   0.011   0.190
 1027W        W 5091   6.740   6.128   1.286
 1028W        W 5092   7.666   1.737   2.332
 1029W        W 5093   7.980   1.916  10.039
 1030W        W 5094   5.997   4.554   3.841
 1031W        W 5095   2.805   6.039   0.559
 1032W        W 5096   4.923  10.496   0.413
 1033W        W 5097   1.894   6.131   8.974
 1034W        W 5098   8.954   9.384   0.827
 1035W        W 5099   6.517   8.915  11.552
 1036W        W 5100   8.652   0.209  10.394
 1037W        W 5101  10.023   2.622  10.123
 1038W        W 5102   1.394   2.348   2.906
 1039W        W 5103   1.993   7.612   2.678
 1040W        W 5104   4.235   9.956   0.158
 1041W        W 5105   0.251   8.607   9.945
 1042W        W 5106   9.449   6.541  11.668
 1043W        W 5107   2.084   7.646   8.706
 1044W        W 5108   7.498   3.142  11.810
 1045W        W 5109   4.072   6.616   0.440
 1046W        W 5110   4.095   6.614   0.950
 1047W        W 5111   8.435  10.026   0.751
 1048W        W 5112   5.058   6.715   3.841
 1049W        W 5113   6.501   3.516   0.066
 1050W        W 5114   0.274   3.716   2.215
 1051W        W 5115   0.688   6.444   9.033
 1052W        W 5116   9.070   5.019   0.368
 1053W        W 5117   9.571   3.140   2.282
 1054W        W 5118   3.451   4.659   9.122
 1055W        W 5119   9.721   7.273  10.377
 1056W        W 5120   6.764   4.036   8.514
 1057W        W 5121   1.285   4.156  10.008
 1058W        W 5122   4.267   4.701  10.762
 1059W        W 5123   8.110   9.534  10.872
 1060W        W 5124   4.504   6.914   9.346
 1061W        W 5125   9.788   9.881   2.141
 1062W        W 5126   7.409   4.673   0.274
 1063W        W 5127   8.553   3.762   0.911
 1064W        W 5128   0.078   1.950  10.702
 1065W        W 5129   4.376   5.249   0.985
 1066W        W 5130   9.303   8.842   9.878
 1067W        W 5131   5.866   0.461   9.097
 1068W        W 5132   9.930   2.198   9.289
 1069W        W 5133   4.096   7.871   9.331
 1070W        W 5134   6.563   2.807   1.942
 1071W        W 5135   3.629   1.418   3.516
 1072W        W 5136   1.786   1.685   9.082
 1073W        W 5137   5.994  10.413   1.171
 1074W        W 5138  10.002   6.139   9.626
 1075W        W 5139   2.774   4.732   3.017
 1076W        W 5140   9.045   0.953   1.726
 1077W        W 5141   2.735   5.503   0.254
 1078W        W 5142   5.881   4.851   1.996
 1079W        W 5143   2.666  10.236   0.221
 1080W        W 5144   5.600   9.761   3.229
 1081W        W 5145   0.021   2.326   0.429
 1082W        W 5146   5.698   1.909   2.543
 1083W        W 5147   5.996  10.086   0.451
 1084W        W 5148   2.650   2.694  11.272
 1085W        W 5149   4.839   8.603   1.480
 1086W        W 5150   8.040   8.039   3.465
 1087W        W 5151   0.974   0.133   3.141
 1088W        W 5152   5.613   5.943   9.471
 1089W        W 5153   2.866   7.887   0.985
 1090W        W 5154   0.265   2.556   3.275
 1091W        W 5155   6.571   1.193  11.514
 1092W        W 5156   5.984   0.831   0.934
 1093W        W 5157   7.908   7.792   0.691
 1094W        W 5158   1.829   5.518   1.383
 1095W        W 5159   2.699   3.389  11.754
 1096W        W 5160   1.418   6.458   3.523
 1097W        W 5161   3.298   8.391   2.137
 1098W        W 5162   6.620   6.689   0.867
 1099W        W 5163   3.324   8.662   1.056
 1100W        W 5164   7.401   0.265   2.895
 1101W        W 5165   0.520   3.381  11.813
 1102W        W 5166   3.808   8.814   2.754
 1103W        W 5167   2.750   4.324   1.023
 1104W        W 5168   6.015   3.674   0.469
 1105W        W 5169   2.330   8.090   0.394
 1106W        W 5170   9.946   6.334  10.318
 1107W        W 5171   9.825   8.961   9.955
 1108W        W 5172   1.647   3.873   2.357
 1109W        W 5173   2.780   9.507   3.521
 1110W        W 5174   9.915   5.421   1.919
 1111W        W 5175   2.168   7.350   9.136
 1112W        W 5176  10.492   1.121   9.859
 1113W        W 5177   3.146  10.260   1.948
 1114W        W 5178   7.014  10.360   1.233
 1115W        W 5179   0.422   9.347   0.999
 1116W        W 5180   4.516   0.480   2.994
 1117W        W 5181   3.394   3.546   0.861
 1118W        W 5182   7.206  10.347  10.526
 1119W        W 5183   5.084  10.485  11.912
 1120W        W 5184   4.774   9.972   9.315
 1121W        W 5185   7.241   8.847   0.811
 1122W        W 5186   5.399   5.768   9.888
 1123W        W 5187   9.309   9.147   2.952
 1124W        W 5188   3.531   3.107  10.099
 1125W        W 5189   1.320   8.159  10.162
 1126W        W 5190   4.116   4.194  10.898
 1127W        W 5191   9.403   3.262   2.769
 1128W        W 5192   5.686  10.022   9.819
 1129W        W 5193   4.627   9.448   1.509
 1130W        W 5194   9.248   8.625   8.872
 1131W        W 5195   3.419   1.808  11.760
 1132W        W 5196   3.517   6.219   3.201
 1133W        W 5197   0.028   4.066  11.310
 1134W        W 5198   6.492   6.129  10.998
 1135W        W 5199   5.604   8.768   1.498
 1136W        W 5200   1.312   6.925  10.524
 1137W        W 5201   4.750   1.696   9.569
 1138W        W 5202   4.561   9.574   9.533
 1139W        W 5203   6.031   1.065   9.472
 1140W        W 5204   9.724   6.697   2.701
 1141W        W 5205   6.692   7.947  10.367
 1142W        W 5206   9.928   2.606   9.610
 1143W        W 5207  10.341   4.704   1.123
 1144W        W 5208   4.330   2.265   2.531
 1145W        W 5209   3.835   9.844  10.888
 1146W        W 5210   7.756   7.040   2.851
 1147W        W 5211   9.016   7.938  10.101
 1148W        W 5212   3.235   7.273  11.686
 1149W        W 5213   7.519   7.383  10.933
 1150W        W 5214  10.444   3.282   9.230
 1151W        W 5215   4.047   6.508   2.431
 1152W        W 5216   3.269   6.224   1.372
 1153W        W 5217   5.540   5.350  11.747
 1154W        W 5218   3.725   4.581   9.888
 1155W        W 5219  10.264   9.379   1.592
 1156W        W 5220   1.258   7.591   1.182
 1157W        W 5221   0.682   1.970  10.860
 1158W        W 5222   9.202   0.346   3.538
 1159W        W 5223  10.347   6.168   9.980
 1160W        W 5224   0.809  10.256   9.579
 1161W        W 5225   9.869   8.585   0.412
 1162W        W 5226   6.075   9.453   1.463
 1163W        W 5227   0.852   1.638   0.969
 1164W        W 5228   0.357   3.686  11.029
 1165W        W 5229   8.115   8.718  11.237
 1166W        W 5230   0.318   7.860   1.454
 1167W        W 5231   4.753   8.595   0.976
 1168W        W 5232   4.700   5.152   0.268
 1169W        W 5233   5.651   2.131   1.847
 1170W        W 5234   5.443   6.495   0.433
 1171W        W 5235   9.308   9.622   0.563
 1172W        W 5236   2.733   8.120   8.942
 1173W        W 5237   3.563   9.399  10.814
 1174W        W 5238   7.647   2.682   9.022
 1175W        W 5239   0.389   6.673  10.403
 1176W        W 5240   9.390   3.921  10.886
 1177W        W 5241   9.745   0.947   2.257
 1178W        W 5242   9.139   4.439   1.253
 1179W        W 5243   8.451  10.004   9.899
 1180W        W 5244   3.784   4.579  10.854
 1181W        W 5245   7.233   0.310   2.413
 1182W        W 5246   2.108   0.280   0.128
 1183W        W 5247   7.590   5.177   0.240
 1184W        W 5248   8.071   0.841   0.950
 1185W        W 5249   6.403  10.290  11.580
 1186W        W 5250   5.006   5.717   8.951
 1187W        W 5251   8.168   0.744  10.864
 1188W        W 5252   0.677   2.396   1.611
 1189W        W 5253   6.513   5.082   9.959
 1190W        W 5254   5.630   3.126  11.411
 1191W        W 5255   9.770   2.577  10.560
 1192W        W 5256   8.330   2.690   3.038
 1193W        W 5257   3.150   8.828  11.267
 1194W        W 5258   4.129   7.988   9.826
 1195W        W 5259   6.028   2.784  11.470
 1196W        W 5260   9.917   5.238   2.389
 1197W        W 5261   2.640   2.400   9.758
 1198W        W 5262   3.642   0.374   2.464
 1199W        W 5263   4.549   3.295   3.125
 1200W        W 5264   0.249   7.938   2.368
 1201W        W 5265   4.254   5.485   3.252
 1202W        W 5266   3.336   5.477   2.745
 1203W        W 5267   3.833   7.447   9.508
 1204W        W 5268   3.907   5.816   7.997
 1205W        W 5269   0.791   3.570   9.752
 1206W        W 5270   9.875   6.276   2.297
 1207W        W 5271   1.676   0.313  11.364
 1208W        W 5272   9.563   3.666  11.942
 1209W        W 5273   2.759   8.783   3.214
 1210W        W 5274   5.156   8.557   2.409
 1211W        W 5275   8.810   4.598   8.641
 1212W        W 5276   2.198   4.165   9.559
 1213W        W 5277   9.833   3.062  10.355
 1214W        W 5278   9.710   2.648   9.152
 1215W        W 5279   8.476   8.594   0.766
 1216W        W 5280   2.139   3.998   3.551
 1217W        W 5281   2.422   7.490   9.579
 1218W        W 5282   3.621   9.028  11.208
 1219W        W 5283   4.354   4.039   2.242
 1220W        W 5284   5.230   7.166  11.836
 1221W        W 5285   0.764   3.270   1.065
 1222W        W 5286   1.436   2.602  11.090
 1223W        W 5287   2.268   7.011  11.472
 1224W        W 5288   5.683   6.412   9.354
 1225W        W 5289   4.320   3.139  10.960
 1226W        W 5290   7.641   5.847  11.813
 1227W        W 5291   1.648   5.362   9.597
 1228W        W 5292   4.224   3.152   9.448
 1229W        W 5293   0.416   2.227   2.925
 1230W        W 5294   0.377   6.396   1.616
 1231W        W 5295   1.400  10.231   8.987
 1232W        W 5296   7.071   4.735  11.057
 1233W        W 5297   9.712   3.657  11.443
 1234W        W 5298   4.447   5.724   8.774
 1235W        W 5299   8.878   8.942   9.078
 1236W        W 5300   4.987   1.312   8.685
 1237W        W 5301   5.502  10.353  11.680
 1238W        W 5302   8.044   2.769   1.207
 1239W        W 5303   9.392  10.481   0.019
 1240W        W 5304   4.184   8.877   9.046
 1241W        W 5305   2.196   1.808   2.466
 1242W        W 5306  10.011   0.433   2.053
 1243W        W 5307   3.486   8.116   9.871
 1244W        W 5308   6.465   6.803   1.767
 1245W        W 5309   6.185   3.264  10.215
 1246W        W 5310   3.297   8.563   0.133
 1247W        W 5311   0.404   9.762   8.479
 1248W        W 5312   8.854   2.736   8.586
 1249W        W 5313   5.500   6.601   4.076
 1250W        W 5314   9.543   1.682   8.993
 1251W        W 5315   9.619   4.258   9.490
 1252W        W 5316   4.564   4.245   2.707
 1253W        W 5317   5.606   5.172   0.219
 1254W        W 5318   1.595   9.118  11.280
 1255W        W 5319   9.266   7.700  11.443
 1256W        W 5320   9.923   0.806   0.733
 1257W        W 5321   3.741   5.992   1.689
 1258W        W 5322   0.362   2.080   3.470
 1259W        W 5323   5.608  10.274  11.179
 1260W        W 5324   6.054  10.378   8.844
 1261W        W 5325   7.828   2.302   9.459
 1262W        W 5326   4.625   1.223   2.483
 1263W        W 5327   6.472   4.417   9.432
 1264W        W 5328   9.607   4.743  10.786
 1265W        W 5329   3.317   5.194  10.803
 1266W        W 5330   4.542   6.442   3.166
 1267W        W 5331   2.184  10.413   0.466
 1268W        W 5332   9.819   5.675   9.444
 1269W        W 5333   4.287   2.181   2.017
 1270W        W 5334  10.289   6.820   3.312
 1271W        W 5335   7.039   1.254  11.255
 1272W        W 5336   7.419   8.290  10.741
 1273W        W 5337   9.711  10.095   9.264
 1274W        W 5338   6.598   2.793   8.936
 1275W        W 5339   0.022  10.380   2.584
 1276W        W 5340   4.503   2.304   9.845
 1277W        W 5341   6.566   2.181   3.299
 1278W        W 5342   9.943   1.359   2.520
 1279W        W 5343   2.410   5.949   9.490
 1280W        W 5344   5.778   3.760   3.115
 1281W        W 5345   8.127   1.793   3.479
 1282W        W 5346   2.696   1.508   2.314
 1283W        W 5347   1.847   2.581  10.056
 1284W        W 5348   9.003   3.644   2.842
 1285W        W 5349   1.206   5.600  11.875
 1286W        W 5350   0.921   1.296  11.225
 1287W        W 5351   0.346   4.489   0.958
 1288W        W 5352   1.237   3.135  10.314
 1289W        W 5353   0.001   4.653   3.133
 1290W        W 5354   7.017   3.593   3.323
 1291W        W 5355   3.671   0.947   9.367
 1292W        W 5356   4.855   1.856  10.577
 1293W        W 5357   5.591  10.385   0.793
 1294W        W 5358   3.627   6.192  10.937
 1295W        W 5359  10.328   8.214   2.239
 1296W        W 5360   4.085   4.694  11.247
 1297W        W 5361  10.330   3.479   2.993
 1298W        W 5362   1.578  10.149  10.380
 1299W        W 5363   8.043  10.376   1.319
 1300W        W 5364   4.742   2.052   2.767
 1301W        W 5365   7.470   4.537   1.803
 1302W        W 5366   3.144   3.812  10.599
 1303W        W 5367   5.174   5.154   0.482
 1304W        W 5368   4.752   4.517  11.621
 1305W        W 5369   8.284   1.319   2.279
 1306W        W 5370   4.684   8.471   0.459
 1307W        W 5371   5.179   1.585   1.286
 1308W        W 5372  10.490   4.843   3.604
 1309W        W 5373   1.355   9.397  10.085
 1310W        W 5374   5.500   3.824  10.720
 1311W        W 5375   3.810  10.303   9.837
 1312W        W 5376   9.220   4.478   0.120
 1313W        W 5377   5.041   4.076   1.141
 1314W        W 5378   4.912   5.586   1.197
 1315W        W 5379   7.505   1.782  10.865
 1316W        W 5380   2.319   9.422   9.141
 1317W        W 5381   2.650   7.911   3.180
 1318W        W 5382   7.517   7.138   9.010
 1319W        W 5383   3.785   6.265   0.717
 1320W        W 5384   0.565   0.342   0.260
 1321W        W 5385   3.150   3.305   2.210
 1322W        W 5386   4.908   2.074   0.411
 1323W        W 5387   6.919   2.206   8.902
 1324W        W 5388   6.516  10.194   2.391
 1325W        W 5389  10.336   6.586   9.575
 1326W        W 5390   4.552   5.013  10.113
 1327W        W 5391   9.496   0.559   0.889
 1328W        W 5392   7.467   3.318   3.188
 1329W        W 5393   3.356   5.852   4.047
 1330W        W 5394   0.030   1.837   0.592
 1331W        W 5395   8.105   1.728  11.043
 1332W        W 5396   7.892   3.445  11.141
 1333W        W 5397   4.778   2.012  11.075
 1334W        W 5398   4.487   5.716   0.208
 1335W        W 5399   8.857   6.078   2.681
 1336W        W 5400   4.018   3.632   0.269
 1337W        W 5401   4.173   2.726   0.708
 1338W        W 5402   7.442   9.849  10.590
 1339W        W 5403   9.876   6.597   3.589
 1340W        W 5404   8.555   1.876   9.262
 1341W        W 5405   3.132   7.865   3.351
 1342W        W 5406   7.501   6.118  10.449
 1343W        W 5407   0.261   2.199   1.803
 1344W        W 5408   3.113   8.476   9.811
 1345W        W 5409   9.811   9.826  10.113
 1346W        W 5410   5.909   1.102   3.410
 1347W        W 5411   3.854   2.683   1.209
 1348W        W 5412   7.281   8.994  10.345
 1349W        W 5413   9.772  10.344   1.900
 1350W        W 5414   9.808   0.354   9.240
 1351W        W 5415   5.969   2.207   9.678
 1352W        W 5416   5.657   0.811   8.683
 1353W        W 5417   0.435   6.780   9.916
 1354W        W 5418   2.565   5.607   0.728
 1355W        W 5419   1.227   3.228   9.772
 1356W        W 5420   0.778   5.694  10.927
 1357W        W 5421   0.350   3.418   0.771
 1358W        W 5422   7.967   4.695   2.925
 1359W        W 5423   7.038   6.954   8.969
 1360W        W 5424   5.578   9.325   0.407
 1361W        W 5425   2.692   3.874   0.745
 1362W        W 5426   8.322   8.529  11.687
 1363W        W 5427   2.455   6.894   0.089
 1364W        W 5428   7.753   8.614   0.740
 1365W        W 5429   1.731   9.943   2.687
 1366W        W 5430   5.079   4.182  10.765
 1367W        W 5431   0.512   5.583   3.204
 1368W        W 5432   7.276   0.293   1.049
 1369W        W 5433   7.559   2.154   2.721
 1370W        W 5434   5.687   2.482  10.014
 1371W        W 5435   0.332   4.173  10.911
 1372W        W 5436   6.960   3.728   1.704
 1373W        W 5437   3.837   9.645   0.171
 1374W        W 5438   3.265   9.289   9.484
 1375W        W 5439   8.148  10.484  11.884
 1376W        W 5440   3.863   5.766   0.661
 1377W        W 5441   8.374   0.223   1.540
 1378W        W 5442   8.863   2.300   9.360
 1379W        W 5443   1.902   2.808  10.907
 1380W        W 5444   7.145   6.547   9.872
 1381W        W 5445   2.436   3.755   1.168
 1382W        W 5446   6.086   7.030   1.501
 1383W        W 5447   1.809   7.473   1.329
 1384W        W 5448   5.955   6.174  10.350
 1385W        W 5449   9.313   1.474   9.389
 1386W        W 5450   9.464   4.209   1.718
 1387W        W 5451   8.923   8.608  11.093
 1388W        W 5452   9.012   4.234   3.473
 1389W        W 5453   3.646   7.198   3.408
 1390W        W 5454   3.146   4.032   1.829
 1391W        W 5455   2.808   7.899  11.510
 1392W        W 5456   3.395   8.020   0.198
 1393W        W 5457   3.835   5.082   8.558
 1394W        W 5458   0.477   7.358   0.552
 1395W        W 5459   2.852   7.627  10.402
 1396W        W 5460   5.939   3.554  10.826
 1397W        W 5461   2.180   6.920   9.411
 1398W        W 5462   5.028   5.498   2.625
 1399W        W 5463   9.351   1.011   0.454
 1400W        W 5464   4.970   8.101  10.829
 1401W        W 5465   0.359   8.145   3.351
 1402W        W 5466   4.640   0.831   0.155
 1403W        W 5467   6.585   4.218   2.788
 1404W        W 5468   0.022   7.067   9.764
 1405W        W 5469   1.289   3.556  10.597
 1406W        W 5470   2.609   5.538   1.722
 1407W        W 5471   0.688   9.848  10.318
 1408W        W 5472   3.097   9.690   2.282
 1409W        W 5473   1.709   8.032   8.814
 1410W        W 5474   8.527   9.510  11.314
 1411W        W 5475   5.916   3.083  10.621
 1412W        W 5476   7.000  10.435   9.194
 1413W        W 5477   0.683   2.262  10.004
 1414W        W 5478   6.010   7.336   3.072
 1415W        W 5479   5.473   6.077  10.277
 1416W        W 5480   5.484   9.402  11.450
 1417W        W 5481   4.228   4.613   3.183
 1418W        W 5482   7.194   5.208   2.347
 1419W        W 5483   3.443   7.023   2.836
 1420W        W 5484   1.885   5.829   3.850
 1421W        W 5485   8.795   6.869  10.242
 1422W        W 5486   1.275   7.636  10.027
 1423W        W 5487   3.970   8.762  10.292
 1424W        W 5488   5.084  10.063   1.371
 1425W        W 5489   7.006   5.607   8.738
 1426W        W 5490   2.905  10.376   9.661
 1427W        W 5491   6.767   2.957  10.813
 1428W        W 5492   3.016  10.324   9.165
 1429W        W 5493   8.087   2.895   9.959
 1430W        W 5494   0.950   5.617   3.474
 1431W        W 5495   3.416   9.758   9.353
 1432W        W 5496   1.600   1.720   8.580
 1433W        W 5497   9.882   4.690   9.565
 1434W        W 5498   1.180   3.448   0.739
 1435W        W 5499   9.729   5.192   3.371
 1436W        W 5500   7.862   2.438  11.398
 1437W        W 5501   7.074   5.762   9.604
 1438W        W 5502   4.195   5.229   1.958
 1439W        W 5503   5.969   4.777  10.660
 1440W        W 5504   8.486   2.867   0.928
 1441W        W 5505   0.953   6.540   3.259
 1442W        W 5506   9.525   1.336  10.266
 1443W        W 5507   3.374   4.333   0.285
 1444W        W 5508   9.422   4.950   2.429
 1445W        W 5509   9.338   3.272  11.450
 1446W        W 5510   9.503   4.695  10.283
 1447W        W 5511   2.779   8.375   2.229
 1448W        W 5512   0.427   5.893   1.507
 1449W        W 5513   8.411   8.380   3.507
 1450W        W 5514   5.324   1.857   3.522
 1451W        W 5515   7.610   5.795   9.606
 1452W        W 5516   3.528   8.008  10.921
 1453W        W 5517   3.180   6.246   2.384
 1454W        W 5518   1.381   0.943  10.378
 1455W        W 5519   5.159   5.186  11.054
 1456W        W 5520   5.707   4.391  11.962
 1457W        W 5521   6.929   6.440   8.946
 1458W        W 5522   7.011   2.812  10.357
 1459W        W 5523   7.926   8.590   1.624
 1460W        W 5524   9.772   9.803  11.920
 1461W        W 5525   1.732   1.140  11.679
 1462W        W 5526  10.372   4.503   0.677
 1463W        W 5527   5.652   4.226   0.471
 1464W        W 5528   9.668   3.046   3.418
 1465W        W 5529   6.036   1.258   1.194
 1466W        W 5530   0.266   1.002   2.239
 1467W        W 5531   3.630   0.752  10.218
 1468W        W 5532   4.418  10.490   1.520
 1469W        W 5533   8.771   3.136   3.331
 1470W        W 5534   4.265   0.833   9.465
 1471W        W 5535   6.466   2.465   0.402
 1472W        W 5536   6.582   0.316  10.929
 1473W        W 5537   2.745  10.321  11.162
 1474W        W 5538   5.301   9.758   1.727
 1475W        W 5539   3.251   1.384   1.189
 1476W        W 5540   2.292   0.026  11.054
 1477W        W 5541   1.369   5.740   1.460
 1478W        W 5542   7.952   0.310  11.542
 1479W        W 5543   9.084   3.737   0.168
 1480W        W 5544   1.739   1.206   9.276
 1481W        W 5545   7.134   1.276   1.214
 1482W        W 5546   9.791   3.301   1.282
 1483W        W 5547   3.625   5.066   3.158
 1484W        W 5548   8.511   5.186   1.259
 1485W        W 5549   8.361   3.647   9.414
 1486W        W 5550   2.686   8.168  10.350
 1487W        W 5551   3.617   7.491   0.717
 1488W        W 5552   5.994   5.121   9.294
 1489W        W 5553   8.364   9.267   0.243
 1490W        W 5554   7.064   9.414   1.458
 1491W        W 5555   6.171   7.505   9.302
 1492W        W 5556   8.093   4.001   0.818
 1493W        W 5557   8.194   9.927   9.456
 1494W        W 5558   0.825   0.590   1.010
 1495W        W 5559   7.316   5.080   0.649
 1496W        W 5560  10.466   1.340  11.384
 1497W        W 5561   3.828   9.293  10.365
 1498W        W 5562   2.748   7.401   2.329
 1499W        W 5563   8.969   3.155   0.925
 1500W        W 5564   4.025   7.458  11.980
 1501W        W 5565   6.700   7.711  10.981
 1502W        W 5566   9.574   4.082   3.419
 1503W        W 5567   1.670   5.143   3.249
 1504W        W 5568   4.710   9.967   9.828
 1505W        W 5569   0.942   8.205   0.405
 1506W        W 5570   9.934   3.637   1.659
 1507W        W 5571   8.816   6.133  11.375
 1508W        W 5572   5.246   8.003   3.383
 1509W        W 5573   1.278   2.110  11.388
 1510W        W 5574   6.458   6.504   2.709
 1511W        W 5575   0.663   5.673   9.066
 1512W        W 5576   1.809   4.376   9.286
 1513W        W 5577   8.513   4.719   0.983
 1514W        W 5578   0.902   9.015  10.851
 1515W        W 5579   6.249   7.930   8.550
 1516W        W 5580   6.007   9.014   1.717
 1517W        W 5581   8.175   5.006   9.544
 1518W        W 5582   2.748   4.239   8.856
 1519W        W 5583   9.491   9.386  10.608
 1520W        W 5584   3.689   7.653   3.184
 1521W        W 5585   0.846   6.001  11.359
 1522W        W 5586   9.947   2.405   1.147
 1523W        W 5587   8.590   1.461   1.091
 1524W        W 5588   3.261   2.910   0.506
 1525W        W 5589   4.063   5.018   3.430
 1526W        W 5590   0.279   7.827   8.865
 1527W        W 5591   3.778   0.876   2.218
 1528W        W 5592  10.267   0.819  11.430
 1529W        W 5593  10.260   0.990   2.297
 1530W        W 5594   3.394   4.266   2.209
 1531W        W 5595   0.803   7.390   9.431
 1532W        W 5596   5.726   6.349  11.628
 1533W        W 5597   1.945   1.545   0.221
 1534W        W 5598   2.852   1.017   3.036
 1535W        W 5599   1.944   2.206   1.425
 1536W        W 5600   2.595   7.988   9.427
 1537W        W 5601   4.199   2.752   9.925
 1538W        W 5602   6.990   7.917   1.048
 1539W        W 5603   6.766  10.038   8.916
 1540W        W 5604   3.192   6.658   1.049
 1541W        W 5605   4.268   7.522   2.043
 1542W        W 5606   6.039   5.760   2.211
 1543W        W 5607   8.812   7.427  11.492
 1544W        W 5608   3.338   0.408   0.658
 1545W        W 5609  10.224   0.464  11.806
 1546W        W 5610   2.449  10.399  10.032
 1547W        W 5611   7.695   6.525   3.282
 1548W        W 5612   9.038   9.834   1.476
 1549W        W 5613   5.131   9.558  10.765
 1550W        W 5614   7.893   5.720  11.219
 1551W        W 5615  10.211   1.747   1.770
 1552W        W 5616   1.752   3.568   0.859
 1553W        W 5617   4.981   5.056   3.438
 1554W        W 5618   3.749   3.626   2.634
 1555W        W 5619   4.182   4.219   0.896
 1556W        W 5620   3.668   0.314  10.549
 1557W        W 5621   6.676   0.632   3.217
 1558W        W 5622   0.758   4.770   0.316
 1559W        W 5623   6.828   2.667   3.279
 1560W        W 5624   0.941   1.744   9.399
 1561W        W 5625   7.684   9.025   8.570
 1562W        W 5626   8.176   3.194   9.271
 1563W        W 5627   5.466   8.009  10.826
 1564W        W 5628   3.584   3.665  10.880
 1565W        W 5629   5.041   7.860   9.905
 1566W        W 5630   3.258   6.191   0.817
 1567W        W 5631   1.165   9.396   2.274
 1568W        W 5632   2.564   8.082   2.700
 1569W        W 5633   5.101  10.406   9.290
 1570W        W 5634   8.438   4.365   2.883
 1571W        W 5635  10.009   4.152   1.475
 1572W        W 5636   2.135   2.727   2.583
 1573W        W 5637   9.241   0.302  11.499
 1574W        W 5638   9.866   7.952  10.621
 1575W        W 5639   5.182   7.575   8.255
 1576W        W 5640   1.621   9.865   9.953
 1577W        W 5641   1.231   5.669   9.547
 1578W        W 5642   6.539   5.996  11.503
 1579W        W 5643   4.507   4.494   0.572
 1580W        W 5644   1.220   4.746   9.352
 1581W        W 5645   8.638   6.262   1.278
 1582W        W 5646   3.585   9.960   1.400
 1583W        W 5647  10.485   2.820  11.142
 1584W        W 5648   6.155   4.662   2.954
 1585W        W 5649  10.389   9.478   1.082
 1586W        W 5650   9.848   9.296  11.921
 1587W        W 5651   5.010   3.716   8.507
 1588W        W 5652   2.658   0.684   9.498
 1589W        W 5653   7.969   5.433  10.758
 1590W        W 5654   5.137   2.354   0.791
 1591W        W 5655   8.338   7.885   2.216
 1592W        W 5656   1.882   2.361  11.190
 1593W        W 5657   3.252   3.793   2.387
 1594W        W 5658   7.092   8.487   2.801
 1595W        W 5659   7.518   3.355   2.680
 1596W        W 5660   1.441   4.681   3.439
 1597W        W 5661   3.186   1.937   2.926
 1598W        W 5662   8.298  10.327   1.860
 1599W        W 5663   2.398   2.463   1.376
 1600W        W 5664   3.473   6.901   1.957
 1601W        W 5665   7.652   0.004   2.528
 1602W        W 5666   1.352   6.959   9.005
 1603W        W 5667   7.175  10.342   2.675
 1604W        W 5668   6.561   2.263   2.331
 1605W        W 5669   1.765   9.161   2.321
 1606W        W 5670   3.677   7.220  10.056
 1607W        W 5671   2.842   2.613   1.934
 1608W        W 5672   4.905   0.251   2.597
 1609W        W 5673   7.718   1.925   3.193
 1610W        W 5674   2.934   3.598   1.105
 1611W        W 5675   3.567   2.626   0.200
 1612W        W 5676   6.737   0.150   1.563
 1613W        W 5677   8.434   4.585   1.983
 1614W        W 5678   8.027   6.068   3.147
 1615W        W 5679   1.052   9.955   9.255
 1616W        W 5680   8.534   9.254  10.415
 1617W        W 5681   8.078   0.519   9.691
 1618W        W 5682   0.214  10.401   1.599
 1619W        W 5683   8.413   0.721   9.074
 1620W        W 5684   4.750   6.442   9.440
 1621W        W 5685   3.206   9.109  11.997
 1622W        W 5686  10.055   9.944   9.598
 1623W        W 5687  10.082   4.739  10.946
 1624W        W 5688   2.160   1.672  11.723
 1625W        W 5689   1.075   0.782  11.162
 1626W        W 5690   8.893   8.027   0.151
 1627W        W 5691   3.890   5.161   0.796
 1628W        W 5692   5.570   5.880   1.009
 1629W        W 5693  10.299   8.858   9.767
 1630W        W 5694   0.235   7.934   9.357
 1631W        W 5695   6.204   6.513   3.165
 1632W        W 5696   3.187   6.060   3.588
 1633W        W 5697   9.497   2.950   9.570
 1634W        W 5698   6.450   1.855   0.469
 1635W        W 5699   0.857   1.292   2.883
 1636W        W 5700   1.742   1.496   2.417
 1637W        W 5701   5.285   7.550   9.291
 1638W        W 5702   8.832   9.977  10.752
 1639W        W 5703   8.234   7.847   0.296
 1640W        W 5704   1.398   1.984   9.540
 1641W        W 5705   4.172   9.946   9.999
 1642W        W 5706   4.926   6.469   1.429
 1643W        W 5707   2.030   8.027   0.942
 1644W        W 5708   1.322   0.752   9.042
 1645W        W 5709   6.963   0.411  10.010
 1646W        W 5710   7.225   1.844   3.331
 1647W        W 5711   3.647   1.749   0.210
 1648W        W 5712   3.270   3.607   2.872
 1649W        W 5713   2.119   3.853   0.158
 1650W        W 5714   9.452   3.270  10.006
 1651W        W 5715   8.282   6.290  10.792
 1652W        W 5716   6.630   5.006   0.429
 1653W        W 5717   1.080   5.148  11.411
 1654W        W 5718   0.457   1.313  10.013
 1655W        W 5719   9.849   7.640   2.682
 1656W        W 5720   0.033   6.979   2.315
 1657W        W 5721   4.232   5.136  11.034
 1658W        W 5722   3.098   8.202  11.824
 1659W        W 5723   1.029   9.996   0.173
 1660W        W 5724   9.615   6.222   9.952
 1661W        W 5725   8.699   5.957   2.209
 1662W        W 5726   7.480   2.398   3.183
 1663W        W 5727   4.112   0.325   2.261
 1664W        W 5728   1.919   1.705  10.643
 1665W        W 5729   1.746   4.055  11.813
 1666W        W 5730   0.456   2.683  10.186
 1667W        W 5731   6.912   2.568   9.291
 1668W        W 5732   6.970   5.864   0.876
 1669W        W 5733   6.209   0.918  11.931
 1670W        W 5734   2.890   5.604   2.954
 1671W        W 5735  10.337   3.712   1.958
 1672W        W 5736   9.193   3.754  11.352
 1673W        W 5737   6.232   4.040   3.130
 1674W        W 5738   6.282  10.090   0.866
 1675W        W 5739   0.682   0.877   1.402
 1676W        W 5740   8.763   4.631   0.310
 1677W        W 5741   4.587   4.771  11.223
 1678W        W 5742   1.417   1.870  10.486
 1679W        W 5743   5.802   9.869   1.757
 1680W        W 5744   5.156   8.506  11.618
 1681W        W 5745   4.066   7.521   0.980
 1682W        W 5746   4.682   5.544   2.978
 1683W        W 5747   4.572   0.357   2.039
 1684W        W 5748   9.434   1.187   8.976
 1685W        W 5749  10.218   1.877  11.060
 1686W        W 5750   6.669   7.599   8.547
 1687W        W 5751   7.934   6.077   2.640
 1688W        W 5752   5.024   3.343   8.942
 1689W        W 5753   3.667   6.338  11.782
 1690W        W 5754   7.890   5.942  10.734
 1691W        W 5755   3.826   5.946   2.698
 1692W        W 5756   4.225   5.185  11.555
 1693W        W 5757   6.602   5.724   3.372
 1694W        W 5758   2.997   4.701   8.924
 1695W        W 5759   2.777   3.705   2.648
 1696W        W 5760   0.681   2.845   3.226
 1697W        W 5761   6.015   9.153   0.204
 1698W        W 5762   5.535   8.928   1.977
 1699W        W 5763   7.019   6.082  11.331
 1700W        W 5764   1.350   9.132  11.750
 1701W        W 5765   3.397   7.998   2.916
 1702W        W 5766   2.652   4.069   9.343
 1703W        W 5767   5.009   3.651   3.769
 1704W        W 5768   7.080   2.838  11.834
 1705W        W 5769   8.190   4.149   1.308
 1706W        W 5770   5.173   3.286  11.236
 1707W        W 5771   5.657   1.873   1.397
 1708W        W 5772   4.032   3.245   1.896
 1709W        W 5773   7.384   0.808   2.138
 1710W        W 5774   7.029   1.428  11.721
 1711W        W 5775   8.013   4.102   2.752
 1712W        W 5776   5.249   1.690   0.506
 1713W        W 5777   9.521   0.753   3.553
 1714W        W 5778   8.351   8.848   1.390
 1715W        W 5779  10.124   7.115  10.082
 1716W        W 5780   0.423   2.245  10.462
 1717W        W 5781   4.048   1.949   3.301
 1718W        W 5782   3.037   1.693   1.975
 1719W        W 5783   8.399   5.969  10.403
 1720W        W 5784   2.209   0.940   9.440
 1721W        W 5785   0.423   3.883  11.887
 1722W        W 5786  10.076   1.792   2.289
 1723W        W 5787   4.218   9.610  10.384
 1724W        W 5788   5.237   6.641   9.476
 1725W        W 5789   9.001   1.324   3.509
 1726W        W 5790   5.401   5.573   1.376
 1727W        W 5791   7.449   6.238   9.372
 1728W        W 5792   5.213   4.794   0.850
 1729W        W 5793   1.703   9.440  11.962
 1730W        W 5794   2.835   8.815   0.198
 1731W        W 5795   0.243   5.110   3.119
 1732W        W 5796   8.892   4.558   1.673
 1733W        W 5797   4.760  10.340   2.967
 1734W        W 5798   5.694   4.526  11.200
 1735W        W 5799   7.710  10.426  10.449
 1736W        W 5800   8.155   6.770  11.548
 1737W        W 5801   0.461   7.236   0.038
 1738W        W 5802   7.451   4.822   9.467
 1739W        W 5803   5.951   7.883  10.092
 1740W        W 5804   0.126   7.503  10.489
 1741W        W 5805   7.941   9.239   9.616
 1742W        W 5806   6.288   7.038  10.050
 1743W        W 5807   8.593   5.138   0.372
 1744W        W 5808   9.400   4.700   0.536
 1745W        W 5809   5.523   4.790   2.358
 1746W        W 5810   5.589   3.627  11.244
 1747W        W 5811   7.990   8.814   9.934
 1748W        W 5812   9.462   0.342   0.431
 1749W        W 5813   8.994   7.201   9.389
 1750W        W 5814   8.889   8.066   9.613
 1751W        W 5815   7.650   5.611  10.414
 1752W        W 5816   5.073   1.273   2.851
 1753W        W 5817   2.191   0.763   0.314
 1754W        W 5818   3.607   3.535   9.847
 1755W        W 5819  10.340   6.105   2.017
 1756W        W 5820   4.251   3.704   0.971
 1757W        W 5821   9.343   7.465   9.092
 1758W        W 5822   2.184   3.789   1.620
 1759W        W 5823   9.048   6.229  11.833
 1760W        W 5824   4.734   1.299   3.325
 1761W        W 5825   0.065   1.874   2.140
 1762W        W 5826   9.733   5.121  10.476
 1763W        W 5827   1.497   1.722   9.988
 1764W        W 5828   1.381   3.220   3.450
 1765W        W 5829   4.691   9.817   0.316
 1766W        W 5830  10.006   8.501   1.451
 1767W        W 5831   2.189   5.046  10.726
 1768W        W 5832   9.575   2.198   8.926
 1769W        W 5833   4.778   7.627  10.745
 1770W        W 5834   8.210   5.382  11.433
 1771W        W 5835   6.918   0.370   2.848
 1772W        W 5836   7.081   9.846   1.197
 1773W        W 5837   2.945   8.364  11.353
 1774W        W 5838   3.324   1.044   3.349
 1775W        W 5839   6.585   5.692   9.098
 1776W        W 5840   7.880   4.527   9.556
 1777W        W 5841   4.280   4.062   0.400
 1778W        W 5842   9.604   0.322   1.719
 1779W        W 5843   9.690   7.981   3.418
 1780W        W 5844   2.215   6.415   2.071
 1781W        W 5845   9.983   6.849  10.510
 1782W        W 5846   2.627   0.798   1.711
 1783W        W 5847   8.349   2.330   9.230
 1784W        W 5848  10.117   7.466  11.805
 1785W        W 5849   7.535   4.387   9.196
 1786W        W 5850   0.425   3.571   3.189
 1787W        W 5851   7.918   7.349   8.731
 1788W        W 5852   1.076   8.373   0.936
 1789W        W 5853   0.914   1.582   2.447
 1790W        W 5854   0.381   1.397   0.727
 1791W        W 5855   9.427   0.758   1.435
 1792W        W 5856   0.481   4.801  11.884
 1793W        W 5857   6.142   2.739   9.968
 1794W        W 5858   6.668   0.892   9.071
 1795W        W 5859   7.225   8.313   9.541
 1796W        W 5860   4.575   9.487  10.034
 1797W        W 5861   7.058   3.694   8.758
 1798W        W 5862   0.839   7.040   0.328
 1799W        W 5863   6.422   8.722   3.457
 1800W        W 5864   8.048  10.483   3.264
 1801W        W 5865   8.332   3.716  11.028
 1802W        W 5866  10.191   6.481   2.692
 1803W        W 5867   7.398   5.714  11.384
 1804W        W 5868   6.005   5.628  10.853
 1805W        W 5869   1.653   7.345   9.879
 1806W        W 5870   3.841   2.714   1.760
 1807W        W 5871   2.130   0.084   1.405
 1808W        W 5872   8.381   7.404   2.070
 1809W        W 5873   4.140   5.155   2.446
 1810W        W 5874   8.840   2.111  10.376
 1811W        W 5875   4.699   5.511   0.698
 1812W        W 5876   4.668   7.888   0.428
 1813W        W 5877   7.445   2.716  11.477
 1814W        W 5878   9.123   7.102  11.754
 1815W        W 5879  10.411   6.970   2.825
 1816W        W 5880   6.467   4.918   9.492
 1817W        W 5881   6.037   5.244  10.446
 1818W        W 5882   1.624   9.641  10.450
 1819W        W 5883   0.225   9.000  10.352
 1820W        W 5884   9.962   9.459   9.794
 1821W        W 5885   2.852   4.721  11.172
 1822W        W 5886   5.411   4.093  11.162
 1823W        W 5887  10.446   0.236   3.461
 1824W        W 5888   3.702   2.825   2.819
 1825W        W 5889   2.382   3.645  11.153
 1826W        W 5890   4.181   7.055   1.225
 1827W        W 5891   6.962   5.437   1.892
 1828W        W 5892   5.934   9.438   9.144
 1829W        W 5893   1.180   6.506   9.158
 1830W        W 5894   4.661   4.053   0.772
 1831W        W 5895  10.222   8.821  11.256
 1832W        W 5896   1.251   1.818   2.136
 1833W        W 5897  10.002   0.949   9.836
 1834W        W 5898   7.098   0.847   2.977
 1835W        W 5899   0.188   0.793   1.394
 1836W        W 5900   2.901   5.787   9.861
 1837W        W 5901   8.105   7.709   1.763
 1838W        W 5902   2.157   9.817   2.934
 1839W        W 5903   0.266   2.599  11.545
 1840W        W 5904   2.970   5.225  11.342
 1841W        W 5905   0.272   5.239  11.693
 1842W        W 5906   2.767   3.176   1.356
 1843W        W 5907   6.714   6.526   3.212
 1844W        W 5908   7.853   5.793   0.962
 1845W        W 5909   7.556   4.665  11.274
 1846W        W 5910   0.259   0.923  11.469
 1847W        W 5911   1.522   1.826   3.589
 1848W        W 5912   8.564   6.371   9.393
 1849W        W 5913   5.152   4.265   0.663
 1850W        W 5914   5.744  10.416   2.906
 1851W        W 5915   5.684   2.885   1.433
 1852W        W 5916   0.214  10.065  11.856
 1853W        W 5917   2.712   2.338   0.786
 1854W        W 5918   4.490   0.264  10.916
 1855W        W 5919   3.389   9.481   2.949
 1856W        W 5920   9.979   9.368  10.311
 1857W        W 5921   9.039   9.382   9.972
 1858W        W 5922   3.637   4.521  11.391
 1859W        W 5923   1.734   1.353   1.925
 1860W        W 5924   6.743   5.079   8.324
 1861W        W 5925   8.542   9.510   9.979
 1862W        W 5926   9.420   1.461   0.205
 1863W        W 5927   6.094   5.439   0.827
 1864W        W 5928   9.197   0.461   2.617
 1865W        W 5929   2.915   5.523  10.825
 1866W        W 5930   4.132   3.612  10.858
 1867W        W 5931   1.444  10.378   2.359
 1868W        W 5932   4.996   2.715  10.556
 1869W        W 5933   4.073   1.262   9.640
 1870W        W 5934   1.781   4.787  11.109
 1871W        W 5935   9.373  10.155   2.275
 1872W        W 5936   3.237   7.537   1.037
 1873W        W 5937   5.632   0.747  10.232
 1874W        W 5938   3.291   2.741   9.822
 1875W        W 5939   3.160   9.087   8.538
 1876W        W 5940   9.931   0.205  10.809
 1877W        W 5941   5.603   5.505   0.648
 1878W        W 5942   2.265   6.910  10.442
 1879W        W 5943   5.804   4.008  10.339
 1880W        W 5944   8.586  10.291  11.702
 1881W        W 5945   3.750   5.047  10.094
 1882W        W 5946   1.924   3.358   0.361
 1883W        W 5947   6.482   3.857   0.493
 1884W        W 5948   8.917   0.196  11.907
 1885W        W 5949   6.479   6.289   9.189
 1886W        W 5950   8.295   4.709   0.498
 1887W        W 5951   6.104   2.312   3.124
 1888W        W 5952   4.528   6.641  11.668
 1889W        W 5953   9.164   1.918  11.993
 1890W        W 5954   1.482   0.753  10.828
 1891W        W 5955   1.620   8.901   8.426
 1892W        W 5956   3.780   5.168   1.668
 1893W        W 5957   2.506   6.237   2.855
 1894W        W 5958  10.260   0.324   8.933
 1895W        W 5959  10.015   2.768  10.968
 1896W        W 5960   6.187   7.440   8.790
 1897W        W 5961   5.494   4.296   9.877
 1898W        W 5962   8.792   8.943  10.084
 1899W        W 5963   8.357   2.675  10.544
 1900W        W 5964   5.441   9.192   1.262
 1901W        W 5965   3.293   2.619  10.869
 1902W        W 5966   9.212   0.965   9.398
 1903W        W 5967   7.420   3.438   8.472
 1904W        W 5968   6.141   6.987   0.992
 1905W        W 5969   5.698   0.227  10.408
 1906W        W 5970   9.713   8.444   9.955
 1907W        W 5971   0.431   7.022   9.468
 1908W        W 5972   2.580   3.347   0.824
 1909W        W 5973   0.733   6.507   9.540
 1910W        W 5974   1.683   8.177   2.323
 1911W        W 5975   7.904   2.888  10.431
 1912W        W 5976   4.706   0.831   9.715
 1913W        W 5977   9.808   1.012   8.680
 1914W        W 5978   5.730   2.965  10.169
 1915W        W 5979   4.280   9.001   9.963
 1916W        W 5980   5.518   8.358   0.213
 1917W        W 5981   1.447   0.450   0.649
 1918W        W 5982   4.154   9.766   1.282
 1919W        W 5983   2.036   5.549  10.508
 1920W        W 5984   7.937   7.502   9.731
 1921W        W 5985   2.306   8.787  11.835
 1922W        W 5986   3.009   1.744   8.756
 1923W        W 5987   5.177   8.937   3.326
 1924W        W 5988   6.061   0.924  10.008
 1925W        W 5989   6.166   7.599   2.173
 1926W        W 5990   2.145   7.768   0.058
 1927W        W 5991   7.546   9.965   2.484
 1928W        W 5992   8.587   2.663   3.488
 1929W        W 5993  10.481   5.162   1.699
 1930W        W 5994   9.828   4.557   1.812
 1931W        W 5995   7.889   7.161  10.629
 1932W        W 5996   8.138   8.140   1.479
 1933W        W 5997   4.689   3.432  11.171
 1934W        W 5998   9.333   0.211   2.176
 1935W        W 5999   7.450   0.830  10.448
 1936W        W 6000   0.075   0.328   1.159
 1937W        W 6001   1.377   3.683  11.592
 1938W        W 6002   9.980   5.463   0.511
 1939W        W 6003   9.926   9.458   3.324
 1940W        W 6004   3.637   4.053  11.224
 1941W        W 6005   4.974   9.074   1.420
 1942W        W 6006   4.639   8.408  11.955
 1943W        W 6007   1.564   5.268  11.302
 1944W        W 6008   1.652   0.859   2.118
 1945W        W 6009   3.822   9.577   1.654
 1946W        W 6010   2.696   1.912   3.145
 1947W        W 6011   1.876   3.933   3.106
 1948W        W 6012   9.965   1.995   2.800
 1949W        W 6013   6.415   8.014   2.365
 1950W        W 6014   2.855   6.439  10.602
 1951W        W 6015   3.087   5.041   2.731
 1952W        W 6016   1.248   9.069  10.460
 1953W        W 6017   2.210   7.040   3.442
 1954W        W 6018   5.113   4.713   9.232
 1955W        W 6019   8.747   6.192   9.884
 1956W        W 6020   2.222   7.374   0.430
 1957W        W 6021   6.867   4.244   9.878
 1958W        W 6022   4.655   6.091  10.959
 1959W        W 6023   7.433   4.490   4.204
 1960W        W 6024   2.759   0.997  11.824
 1961W        W 6025   9.000   8.026  11.078
 1962W        W 6026   8.877   6.318   8.990
 1963W        W 6027   7.633   4.127  11.441
 1964W        W 6028   9.754   6.183   2.772
 1965W        W 6029   9.300   2.346  10.493
 1966W        W 6030   8.160   4.579   2.468
 1967W        W 6031   0.514   7.018   2.480
 1968W        W 6032  10.457   2.248  11.359
 1969W        W 6033   2.694   6.878   3.532
 1970W        W 6034   8.013   9.205   3.416
 1971W        W 6035   5.488   8.849   0.307
 1972W        W 6036   2.542   9.893  11.810
 1973W        W 6037   4.498   3.176   9.888
 1974W        W 6038   2.199  10.293   0.971
 1975W        W 6039   0.855   9.002  11.782
 1976W        W 6040   3.546   0.001   1.199
 1977W        W 6041   8.295   5.144   0.793
 1978W        W 6042   7.547   0.699   8.466
 1979W        W 6043   0.769   1.117   2.350
 1980W        W 6044   9.538   0.159  10.000
 1981W        W 6045   9.113   2.868   3.599
 1982W        W 6046   6.596   7.147  10.999
 1983W        W 6047   5.603   7.956   9.253
 1984W        W 6048   1.977   6.980   0.214
 1985W        W 6049   6.022   4.113   3.587
 1986W        W 6050   2.781  10.008   0.966
 1987W        W 6051   9.682   3.428   9.551
 1988W        W 6052   0.762   8.553   2.506
 1989W        W 6053   0.662   8.659   0.828
 1990W        W 6054   5.854   9.884   8.867
 1991W        W 6055   7.631   3.202  10.754
 1992W        W 6056   3.578   0.312   9.072
 1993W        W 6057   2.894   2.129  10.463
 1994W        W 6058   3.908   1.323   0.320
 1995W        W 6059   0.365   5.851  10.658
 1996W        W 6060   8.321   4.752  10.997
 1997W        W 6061   3.328   9.446  10.357
 1998W        W 6062   5.071   6.205   3.738
 1999W        W 6063   7.167   4.298  11.331
 2000W        W 6064   5.473   0.926   2.646
 2001W        W 6065   7.855   2.764   3.239
 2002W        W 6066   0.355   2.513   9.658
 2003W        W 6067  10.302   7.379   3.300
 2004W        W 6068   5.760   2.708   0.943
 2005W        W 6069   7.468   2.654  10.465
 2006W        W 6070   2.223   2.891   9.015
 2007W        W 6071   6.877   8.078   1.511
 2008W        W 6072   6.525   0.624   1.684
 2009W        W 6073  10.010   8.332   9.054
 2010W        W 6074   7.348   8.718   9.244
 2011W        W 6075   3.355   3.112   3.809
 2012W        W 6076   8.329   1.275   2.831
 2013W        W 6077   9.441   1.502   3.326
 2014W        W 6078   7.257   7.635   1.401
 2015W        W 6079   0.747   1.846   2.846
 2016W        W 6080   1.293   8.025   2.030
 2017W        W 6081   5.784   3.890   2.283
 2018W        W 6082   5.013   0.412   9.683
 2019W        W 6083  10.335   7.470   9.500
 2020W        W 6084   9.644  10.345   3.165
 2021W        W 6085   5.108   8.057   9.430
 2022W        W 6086   0.461   4.529  10.003
 2023W        W 6087   5.214   8.988  11.479
 2024W        W 6088   9.140   8.319  11.460
 2025W        W 6089   2.814   9.241   2.288
 2026W        W 6090   7.744   9.547   3.174
 2027W        W 6091  10.242   8.407  10.002
 2028W        W 6092   2.721   0.722   0.258
 2029W        W 6093   1.482   7.603   0.727
 2030W        W 6094   8.069   1.415  10.351
 2031W        W 6095   3.810   7.591  11.025
 2032W        W 6096   4.175   4.648   2.218
 2033W        W 6097   7.416   7.958   0.732
 2034W        W 6098   9.043   1.603  11.579
 2035W        W 6099   1.242   8.579   3.216
 2036W        W 6100   0.466   1.398  11.362
 2037W        W 6101   9.860   8.355  10.979
 2038W        W 6102   3.791   0.379   0.942
 2039W        W 6103   8.546   1.376   0.581
 2040W        W 6104   5.728   2.885   2.340
 2041W        W 6105   3.389   5.728   3.203
 2042W        W 6106   8.420   2.793   9.528
 2043W        W 6107   8.917   6.208   1.815
 2044W        W 6108   2.397   0.280   3.264
 2045W        W 6109   8.649   9.002   1.790
 2046W        W 6110   6.709   1.795   9.189
 2047W        W 6111   1.500   9.952   9.461
 2048W        W 6112   1.869   8.077  11.445
 2049W        W 6113   1.719   6.170   8.505
 2050W        W 6114   1.300   1.088   1.800
 2051W        W 6115  10.064   6.984  11.602
 2052W        W 6116   3.598   2.280   9.117
 2053W        W 6117   2.347   5.684   2.746
 2054W        W 6118   7.414   2.647   9.467
 2055W        W 6119   2.384   9.665  11.354
 2056W        W 6120   1.232   9.402  11.041
 2057W        W 6121  10.425   5.708  10.872
 2058W        W 6122   9.967   1.377  11.517
 2059W        W 6123   0.337   1.460   9.513
 2060W        W 6124  10.383   2.409   9.508
 2061W        W 6125   6.176   6.499   0.751
 2062W        W 6126   2.361   9.631  10.111
 2063W        W 6127   1.089   7.389  10.442
 2064W        W 6128   4.594   5.152   8.840
 2065W        W 6129   5.136   9.554   2.658
 2066W        W 6130   2.362   2.101   0.509
 2067W        W 6131   3.982   4.135   3.994
 2068W        W 6132   4.701   2.405   3.174
 2069W        W 6133   2.757   4.620   8.474
 2070W        W 6134   5.547   4.390   3.579
 2071W        W 6135   5.234   0.887  11.429
 2072W        W 6136   4.551   4.618   1.429
 2073W        W 6137   5.660   0.756   3.099
 2074W        W 6138   1.492   8.899   1.522
 2075W        W 6139   1.110   8.980  11.319
 2076W        W 6140   2.355   6.031   2.366
 2077W        W 6141   0.781   2.637   9.276
 2078W        W 6142   3.906   1.908  10.252
 2079W        W 6143   0.889   7.653   1.885
 2080W        W 6144   5.282   4.449  11.505
 2081W        W 6145   5.265  10.484  10.815
 2082W        W 6146   2.860   4.004   1.397
 2083W        W 6147   7.455   6.102  11.006
 2084W        W 6148   5.924   3.199   9.767
 2085W        W 6149   8.497   9.499   9.479
 2086W        W 6150   9.608  10.180  11.599
 2087W        W 6151   8.304   5.099  10.519
 2088W        W 6152   2.641   7.115   9.207
 2089W        W 6153   6.318   9.392   8.812
 2090W        W 6154   0.826   5.253   0.515
 2091W        W 6155  10.100   1.417   9.698
 2092W        W 6156   6.506   1.132   1.876
 2093W        W 6157   0.066   9.547   2.950
 2094W        W 6158   9.488   2.888  11.794
 2095W        W 6159   3.672   9.346  11.785
 2096W        W 6160   9.839   5.205   2.885
 2097W        W 6161   6.575   4.343   0.435
 2098W        W 6162   8.289  10.476  11.288
 2099W        W 6163   9.142   6.223   2.275
 2100W        W 6164   0.452   2.056   0.385
 2101W        W 6165   3.033   8.708  11.731
 2102W        W 6166   5.476   2.152   0.449
 2103W        W 6167   8.973   7.520  11.011
 2104W        W 6168   8.740   3.562  11.284
 2105W        W 6169   5.039   5.216   9.094
 2106W        W 6170   8.973   8.340  10.646
 2107W        W 6171   2.332   4.910   8.464
 2108W        W 6172   3.693   0.868   0.186
 2109W        W 6173   4.200   9.297   3.691
 2110W        W 6174   9.112   2.405   8.917
 2111W        W 6175   2.655   0.508   2.475
 2112W        W 6176   8.508   7.962  10.936
 2113W        W 6177   7.043   3.563   2.286
 2114W        W 6178   3.639  10.381   8.783
 2115W        W 6179   6.269   6.733  11.069
 2116W        W 6180   3.561   1.704   2.144
 2117W        W 6181   9.820   1.550  11.038
 2118W        W 6182   3.760   0.392   1.452
 2119W        W 6183  10.112  10.325   3.437
 2120W        W 6184   8.372   8.093   1.017
 2121W        W 6185   8.861   9.260  11.876
 2122W        W 6186   2.962   7.696   2.821
 2123W        W 6187   9.938   9.256  10.798
 2124W        W 6188   5.666   6.715   9.750
 2125W        W 6189   7.948   6.232  11.199
 2126W        W 6190   7.458   0.315   1.917
 2127W        W 6191   6.830   9.405  11.573
 2128W        W 6192   8.147   1.331   0.873
 2129W        W 6193   1.181   2.631  11.552
 2130W        W 6194   8.905   9.981   2.500
 2131W        W 6195   4.973   5.996  10.065
 2132W        W 6196   1.013   4.676   2.252
 2133W        W 6197   2.798   8.909  10.899
 2134W        W 6198   4.264   0.317   0.712
 2135W        W 6199  10.387   0.392  10.516
 2136W        W 6200   4.040   9.849   2.300
 2137W        W 6201   9.104   3.835  10.438
 2138W        W 6202   5.742   0.216   1.481
 2139W        W 6203   3.204   3.388   8.612
 2140W        W 6204   3.641   9.036   0.800
 2141W        W 6205   0.844   0.746   9.358
 2142W        W 6206   2.387   1.232   0.338
 2143W        W 6207   0.859   6.964   9.750
 2144W        W 6208   1.771   2.162   8.790
 2145W        W 6209   3.418   1.415  11.375
 2146W        W 6210   5.785   7.385   1.239
 2147W        W 6211   0.767   5.885   0.774
 2148W        W 6212   6.075   7.967   9.056
 2149W        W 6213   1.952  10.431  10.159
 2150W        W 6214   6.153   1.680   2.467
 2151W        W 6215   1.843   6.721   3.578
 2152W        W 6216   1.383   5.924  10.962
 2153W        W 6217   1.485   2.608   1.787
 2154W        W 6218   7.885   1.693   0.574
 2155W        W 6219   9.747   1.815   0.379
 2156W        W 6220   2.080   5.424   0.914
 2157W        W 6221   3.993   6.460   3.298
 2158W        W 6222   4.276   9.558   1.865
 2159W        W 6223   2.858   5.560  11.729
 2160W        W 6224   9.334   9.905   3.339
 2161W        W 6225   8.021   2.283   2.989
 2162W        W 6226   2.284   2.236   3.275
 2163W        W 6227   8.001  10.177   2.311
 2164W        W 6228   6.913  10.339  11.462
 2165W        W 6229   2.737   3.611   8.748
 2166W        W 6230   7.827   8.495  11.617
 2167W        W 6231   9.104  10.303  11.576
 2168W        W 6232   6.971   2.708   0.332
 2169W        W 6233   3.101   0.873   1.452
 2170W        W 6234   1.037   4.990   8.892
 2171W        W 6235   0.683  10.346   1.403
 2172W        W 6236   7.091   2.296   0.053
 2173W        W 6237   6.532   4.683   2.584
 2174W        W 6238   8.556   2.727  10.040
 2175W        W 6239   3.633   7.966  10.392
 2176W        W 6240   9.051   6.977   1.180
 2177W        W 6241   8.046   4.285   3.204
 2178W        W 6242   1.400   4.656  11.468
 2179W        W 6243   4.724   8.928  10.730
 2180W        W 6244   6.712   7.206  11.901
 2181W        W 6245   8.022   9.898   8.477
 2182W        W 6246   9.499   4.095   2.230
 2183W        W 6247   9.384   8.017  10.462
 2184W        W 6248   5.005   3.284  10.754
 2185W        W 6249   5.667   5.838  11.675
 2186W        W 6250   3.677   9.531   8.967
 2187W        W 6251   4.065  10.461   9.066
 2188W        W 6252   5.636   8.478   2.200
 2189W        W 6253   3.314   6.633  10.863
 2190W        W 6254   1.662   6.619   0.055
 2191W        W 6255   8.064   1.243  10.866
 2192W        W 6256   3.266   6.641  10.337
 2193W        W 6257   9.583   1.826   2.505
 2194W        W 6258   8.969   0.801   3.428
 2195W        W 6259   7.350   4.371  11.834
 2196W        W 6260   1.188   2.738  10.665
 2197W        W 6261   1.165   4.494   0.494
 2198W        W 6262   3.382   2.041   1.821
 2199W        W 6263   2.185   7.021  10.945
 2200W        W 6264   4.498   3.190   0.803
 2201W        W 6265   5.660   6.033   0.551
 2202W        W 6266   5.366   6.845   1.918
 2203W        W 6267   1.759   3.651   1.360
 2204W        W 6268   7.624   4.047   9.578
 2205W        W 6269   9.372   7.610   1.784
 2206W        W 6270   6.973   1.938  11.704
 2207W        W 6271   1.706   5.218  10.806
 2208W        W 6272   2.849   0.567   0.807
 2209W        W 6273   9.521   6.998   9.351
 2210W        W 6274   2.637   4.123   1.851
 2211W        W 6275   2.432   6.265  11.943
 2212W        W 6276   6.169   4.700   1.581
 2213W        W 6277   0.618   8.154   0.805
 2214W        W 6278   8.960   8.363   9.207
 2215W        W 6279   9.573   1.448   8.515
 2216W        W 6280   6.457   5.208   9.076
 2217W        W 6281   3.695   5.712  11.211
 2218W        W 6282   2.558   5.588  10.441
 2219W        W 6283   5.346   1.751  10.387
 2220W        W 6284   5.271   1.285   0.158
 2221W        W 6285   8.835   7.821   0.996
 2222W        W 6286   8.777   5.087  10.341
 2223W        W 6287   6.725   5.677   2.874
 2224W        W 6288   3.175   5.290   0.422
 2225W        W 6289   8.665   2.238   0.817
 2226W        W 6290   0.664   7.931  10.970
 2227W        W 6291   8.538   9.016   8.634
 2228W        W 6292   3.357   3.017   3.184
 2229W        W 6293   2.307   0.270   2.772
 2230W        W 6294   5.230   2.142   2.623
 2231W        W 6295   6.936   8.038   9.870
 2232W        W 6296   1.870   0.131   2.223
 2233W        W 6297   2.872   9.890  10.893
 2234W        W 6298   4.028   9.114  11.483
 2235W        W 6299   1.963   2.221   3.680
 2236W        W 6300   7.100   4.068   3.545
 2237W        W 6301   0.282   0.520   9.774
 2238W        W 6302   9.082   2.296   2.858
 2239W        W 6303   2.867   2.677   1.433
 2240W        W 6304   7.096   7.990   3.027
 2241W        W 6305   3.259   1.801   9.214
 2242W        W 6306   4.616   1.292   1.996
 2243W        W 6307   9.414   9.255   9.567
 2244W        W 6308   0.424   0.744   8.723
 2245W        W 6309  10.290   8.316  11.252
 2246W        W 6310   5.416   0.355   8.849
 2247W        W 6311   0.822  10.318  11.476
 2248W        W 6312   8.473   9.508   0.696
 2249W        W 6313   7.958   2.317   3.494
 2250W        W 6314   3.490   8.915  10.337
 2251W        W 6315   4.205   6.028   0.960
 2252W        W 6316   5.260  10.471   9.783
 2253W        W 6317   7.386   8.388   3.260
 2254W        W 6318   6.658   0.207   2.456
 2255W        W 6319   1.612   9.597   2.109
 2256W        W 6320   4.365   1.961  10.476
 2257W        W 6321   1.523   4.676   2.232
 2258W        W 6322   3.167   9.447   9.012
 2259W        W 6323   8.962   1.119  11.371
 2260W        W 6324   3.071   2.201  11.743
 2261W        W 6325   3.379   8.340   9.341
 2262W        W 6326   1.398   7.564   9.491
 2263W        W 6327   0.927   7.392  11.924
 2264W        W 6328   5.138   9.075   2.826
 2265W        W 6329   6.936   6.968   1.839
 2266W        W 6330   1.867   2.126  10.344
 2267W        W 6331   8.997   0.529   0.311
 2268W        W 6332   7.603   6.858   9.779
 2269W        W 6333   6.666   1.161   0.003
 2270W        W 6334   1.404   5.137  11.795
 2271W        W 6335   4.563   9.298  11.055
 2272W        W 6336   4.637   9.339   3.429
 2273W        W 6337   3.364   7.878  11.537
 2274W        W 6338   1.056  10.477  11.920
 2275W        W 6339   8.921   1.529   0.282
 2276W        W 6340   3.626   5.551   1.960
 2277W        W 6341   6.183   1.864  10.458
 2278W        W 6342   3.047   6.913   3.144
 2279W        W 6343   1.075   1.899   1.363
 2280W        W 6344   7.346   9.663  11.060
 2281W        W 6345   8.172   9.491   2.877
 2282W        W 6346   3.300   4.270   8.793
 2283W        W 6347   2.282   9.103  11.438
 2284W        W 6348   1.538   6.164   2.906
 2285W        W 6349   8.200   2.548  11.014
 2286W        W 6350   5.659   2.044  11.989
 2287W        W 6351   1.567   1.777   1.269
 2288W        W 6352   0.432   7.125  10.632
 2289W        W 6353   0.451   2.123  11.455
 2290W        W 6354   1.230   3.981   8.583
 2291W        W 6355   1.943   7.022   0.981
 2292W        W 6356   0.960   0.270   0.629
 2293W        W 6357   3.699   2.188   3.031
 2294W        W 6358   8.968   4.162   0.437
 2295W        W 6359   2.385   8.572   0.280
 2296W        W 6360   1.774   4.250  10.980
 2297W        W 6361   1.912   8.480   8.518
 2298W        W 6362   4.247   7.053   0.189
 2299W        W 6363   9.195   7.429   2.233
 2300W        W 6364   0.659   3.943   2.922
 2301W        W 6365   2.160   7.973   9.679
 2302W        W 6366   7.148   6.332   4.125
 2303W        W 6367   9.430   6.174   0.698
 2304W        W 6368   7.700   9.711   0.850
 2305W        W 6369   1.052   9.470   2.790
 2306W        W 6370   6.886   1.301   2.194
 2307W        W 6371   2.272   4.787   3.211
 2308W        W 6372   3.829   8.470   1.402
 2309W        W 6373   8.877   8.354   0.959
 2310W        W 6374   3.970   6.713   1.974
 2311W        W 6375   9.204   3.600   8.899
 2312W        W 6376   5.534   9.865   2.182
 2313W        W 6377   0.464   6.156  11.666
 2314W        W 6378   8.799   6.672   0.564
 2315W        W 6379   6.128   1.851  11.550
 2316W        W 6380  10.469   1.335   1.950
 2317W        W 6381   9.857   1.745   9.998
 2318W        W 6382   9.982   1.169  11.994
 2319W        W 6383   8.968   1.984   1.637
 2320W        W 6384   7.978   2.712   1.711
 2321W        W 6385   1.583   5.358   0.217
 2322W        W 6386   0.875   8.093  10.551
 2323W        W 6387   6.684   7.998   0.254
 2324W        W 6388   5.460   5.217   2.680
 2325W        W 6389  10.448   8.483   2.669
 2326W        W 6390   9.835   2.581   3.270
 2327W        W 6391   3.190   3.534   1.766
 2328W        W 6392   9.849   3.246  11.838
 2329W        W 6393   7.183   3.064   9.287
 2330W        W 6394   1.371   0.430   8.569
 2331W        W 6395   3.445   4.205  10.774
 2332W        W 6396   7.606   6.019   8.379
 2333W        W 6397   4.824   2.797   0.932
 2334W        W 6398   1.728   5.853   9.717
 2335W        W 6399   7.410   6.084   1.812
 2336W        W 6400   4.129   8.848   2.365
 2337W        W 6401   4.539   3.634  10.123
 2338W        W 6402   0.741   1.652   0.466
 2339W        W 6403   1.600   6.494   1.852
 2340W        W 6404   4.330   1.000  11.406
 2341W        W 6405   7.071   7.637  10.180
 2342W        W 6406   1.689   0.062   0.363
 2343W        W 6407   4.386   2.642  11.060
 2344W        W 6408   4.236   3.401  11.419
 2345W        W 6409   3.543   1.718   0.876
 2346W        W 6410   6.458   0.211   1.987
 2347W        W 6411   5.095   4.066   8.125
 2348W        W 6412   3.209   4.669  10.047
 2349W        W 6413   1.450   0.764  11.872
 2350W        W 6414   8.960   8.455  10.129
 2351W        W 6415   8.986   7.906   1.496
 2352W        W 6416   2.911   0.266   0.407
 2353W        W 6417   9.953   8.783  11.938
 2354W        W 6418   2.211   6.049  10.995
 2355W        W 6419   3.626   2.597   0.746
 2356W        W 6420  10.147   8.708  10.753
 2357W        W 6421   1.861   7.435  11.128
 2358W        W 6422   0.264   0.254   8.836
 2359W        W 6423   7.473   7.547  11.428
 2360W        W 6424   8.541   6.554  11.777
 2361W        W 6425   9.621   6.650   0.894
 2362W        W 6426   7.237   3.178   1.011
 2363W        W 6427   7.668   9.114   9.074
 2364W        W 6428   8.921   7.829  10.598
 2365W        W 6429   3.360   6.937   8.546
 2366W        W 6430   6.690   1.687  10.252
 2367W        W 6431   3.280   7.887   0.674
 2368W        W 6432   4.554   9.843   3.176
 2369W        W 6433   9.690  10.208   9.812
 2370W        W 6434   9.863   5.440  11.517
 2371W        W 6435   7.942  10.180   0.861
 2372W        W 6436   6.550   8.751   2.988
 2373W        W 6437   0.425   1.457   2.652
 2374W        W 6438   0.138   6.740  10.882
 2375W        W 6439   7.438   5.521   1.724
 2376W        W 6440   6.696   1.675   9.721
 2377W        W 6441   6.453   5.791   1.619
 2378W        W 6442   3.375   9.765  11.630
 2379W        W 6443   4.772   1.246  11.883
 2380W        W 6444   1.202   6.058   3.281
 2381W        W 6445   6.282   3.658   0.935
 2382W        W 6446   8.141   3.068  10.840
 2383W        W 6447   7.172   5.477   2.764
 2384W        W 6448   5.686  10.269   2.436
 2385W        W 6449   1.388   6.556  10.193
 2386W        W 6450   8.099   7.553  10.317
 2387W        W 6451   8.013   2.273   2.478
 2388W        W 6452   7.062   3.348  11.588
 2389W        W 6453   2.757   8.801  10.046
 2390W        W 6454  10.075   0.150   1.605
 2391W        W 6455   1.871   6.445   3.166
 2392W        W 6456   1.653   9.242  10.767
 2393W        W 6457   2.717   4.452   0.045
 2394W        W 6458   4.489   6.612   2.687
 2395W        W 6459   1.404   7.214   1.503
 2396W        W 6460   2.237   6.025  10.454
 2397W        W 6461   7.437   4.527   1.299
 2398W        W 6462   4.696   9.351   0.070
 2399W        W 6463   8.739   5.145   3.362
 2400W        W 6464   9.843   6.982   0.578
 2401W        W 6465   4.855   5.017   1.209
 2402W        W 6466   3.139   6.337   8.352
 2403W        W 6467   2.593   3.869  11.935
 2404W        W 6468   7.547   7.555   1.909
 2405W        W 6469   6.944   0.871   1.908
 2406W        W 6470   9.473   1.502   0.729
 2407W        W 6471   7.506   5.478   1.203
 2408W        W 6472   5.034   9.650   2.166
 2409W        W 6473   2.010   2.841   9.478
 2410W        W 6474   6.912   5.612  11.524
 2411W        W 6475   9.816   5.614   0.037
 2412W        W 6476   4.259   8.355   9.189
 2413W        W 6477   2.374   2.290   2.781
 2414W        W 6478   6.998   4.192   0.179
 2415W        W 6479   0.392   7.590   3.350
 2416W        W 6480   7.018   9.861  11.760
 2417W        W 6481   5.110   5.402  11.496
 2418W        W 6482   3.816   6.475   9.630
 2419W        W 6483   2.940   9.888   9.449
 2420W        W 6484   7.948   3.325  11.628
 2421W        W 6485   3.541   4.317   9.502
 2422W        W 6486   0.802   1.136   0.958
 2423W        W 6487   6.929   5.836   4.160
 2424W        W 6488   3.737   9.898   8.593
 2425W        W 6489   4.204   7.950   0.672
 2426W        W 6490   9.064   2.370   0.545
 2427W        W 6491   8.457   2.832   1.553
 2428W        W 6492   9.396   4.569   2.087
 2429W        W 6493   8.180   1.023   1.850
 2430W        W 6494   2.972   9.239   3.151
 2431W        W 6495   5.006   0.357   3.080
 2432W        W 6496   8.594   8.069   1.823
 2433W        W 6497   8.137   6.607   9.529
 2434W        W 6498   5.214   4.637  10.514
 2435W        W 6499   6.043  10.156   9.330
 2436W        W 6500   8.329   1.708   0.268
 2437W        W 6501   1.948   7.372   1.825
 2438W        W 6502   3.271   9.395   0.573
 2439W        W 6503   3.945   1.021   3.505
 2440W        W 6504   9.865   1.270   9.248
 2441W        W 6505   5.903   4.084  11.393
 2442W        W 6506   7.962   5.649   1.844
 2443W        W 6507   7.556   8.192   2.783
 2444W        W 6508  10.289   7.971   2.667
 2445W        W 6509  10.154   6.727   0.889
 2446W        W 6510   5.741  10.284  10.663
 2447W        W 6511   5.653   0.727  11.696
 2448W        W 6512   4.208  10.326  10.850
 2449W        W 6513   3.717   6.928   2.416
 2450W        W 6514   6.926   9.771   3.596
 2451W        W 6515   3.273   3.816  11.494
 2452W        W 6516   1.194   5.643  11.362
 2453W        W 6517   2.104   3.177   0.788
 2454W        W 6518  10.484   7.009  10.420
 2455W        W 6519   4.006   2.255   9.873
 2456W        W 6520   5.918   2.675   9.514
 2457W        W 6521   3.580   6.558  11.331
 2458W        W 6522   4.727   3.188   9.372
 2459W        W 6523   3.851   2.387   2.590
 2460W        W 6524   6.412   6.669   3.747
 2461W        W 6525   0.185   6.593   2.601
 2462W        W 6526   8.640   6.539   3.475
 2463W        W 6527   4.567   8.032   9.492
 2464W        W 6528   3.658   1.363  11.844
 2465W        W 6529   5.710   8.011   8.700
 2466W        W 6530   0.784   5.022   1.229
 2467W        W 6531   0.986   3.305  10.938
 2468W        W 6532   6.558   4.368   1.392
 2469W        W 6533   6.990   2.009  10.967
 2470W        W 6534   7.609   6.664  10.319
 2471W        W 6535   4.118   9.621   9.246
 2472W        W 6536   5.076   7.758   1.620
 2473W        W 6537   1.097   8.970   3.517
 2474W        W 6538   4.076   3.114   1.053
 2475W        W 6539   1.265   1.475   3.258
 2476W        W 6540   3.836   9.851   9.613
 2477W        W 6541   3.264   1.340   1.689
 2478W        W 6542   8.456  10.265   0.248
 2479W        W 6543   3.263   8.929   2.879
 2480W        W 6544   8.003   8.187   1.973
 2481W        W 6545   0.743   9.014  10.359
 2482W        W 6546   7.322   2.854   3.415
 2483W        W 6547   9.239  10.346   0.542
 2484W        W 6548   5.966   0.341   1.916
 2485W        W 6549   7.179   4.178   1.573
 2486W        W 6550   6.154   9.092   3.246
 2487W        W 6551   8.658   3.579   8.996
 2488W        W 6552  10.465   5.324   0.377
 2489W        W 6553   8.956   2.489   1.527
 2490W        W 6554   6.493   1.940   8.702
 2491W        W 6555   6.166   7.809   3.170
 2492W        W 6556   9.991   9.215   0.835
 2493W        W 6557  10.456   7.995  10.246
 2494W        W 6558   7.983   7.303   0.836
 2495W        W 6559   3.286   9.968   8.888
 2496W        W 6560   5.975   9.125   9.541
 2497W        W 6561   8.832   0.423   3.074
 2498W        W 6562   4.364   7.027   8.410
 2499W        W 6563   1.203   8.488   2.273
 2500W        W 6564   8.628   7.055  11.796
 2501W        W 6565   5.241   8.690   1.153
 2502W        W 6566   3.662   3.823   3.116
 2503W        W 6567   6.040   1.214   1.699
 2504W        W 6568  10.494   5.614   3.194
 2505W        W 6569   3.272   0.268   2.128
 2506W        W 6570  10.399   5.757   0.694
 2507W        W 6571   9.336   2.696   3.192
 2508W        W 6572  10.068   3.042   0.368
 2509W        W 6573   1.695   7.078   3.259
 2510W        W 6574   3.627   6.743   0.696
 2511W        W 6575   8.180   7.070   9.715
 2512W        W 6576   4.203   7.035   2.328
 2513W        W 6577   5.611   8.949   9.183
 2514W        W 6578   9.302   3.301   1.422
 2515W        W 6579   8.790   7.121   2.186
 2516W        W 6580   3.526   7.512   0.021
 2517W        W 6581   2.784   6.452   1.363
 2518W        W 6582   3.050   3.131   0.912
 2519W        W 6583   8.590   3.302   0.623
 2520W        W 6584   7.479   1.383   9.176
 2521W        W 6585   0.493   9.424  10.574
 2522W        W 6586   7.390   6.744   1.532
 2523W        W 6587   5.344   3.915   4.344
 2524W        W 6588   1.288   9.410   1.766
 2525W        W 6589   8.031   3.797   9.803
 2526W        W 6590   8.132   7.058   9.151
 2527W        W 6591   1.269   0.482   9.484
 2528W        W 6592   5.589   3.179   1.014
 2529W        W 6593   1.689   2.193   0.952
 2530W        W 6594   8.458   0.248   3.475
 2531W        W 6595   2.856   8.344   1.250
 2532W        W 6596   5.396   9.869   8.581
 2533W        W 6597   0.765   6.119  10.383
 2534W        W 6598   6.661   0.150   3.373
 2535W        W 6599   2.313   6.255   1.253
 2536W        W 6600   8.453   2.190   3.296
 2537W        W 6601   2.265   0.409  10.730
 2538W        W 6602   3.130   2.759   2.838
 2539W        W 6603   0.347   0.186   2.020
 2540W        W 6604   7.530   7.660   9.970
 2541W        W 6605   7.018   8.374   9.080
 2542W        W 6606   7.269   9.432   3.395
 2543W        W 6607   2.366   0.814  10.442
 2544W        W 6608   4.684   8.360   1.912
 2545W        W 6609   5.561   8.120  11.766
 2546W        W 6610   0.195   3.620  11.499
 2547W        W 6611   8.854   9.133  11.096
 2548W        W 6612  10.375   6.507  10.518
 2549W        W 6613   0.326   2.812   8.826
 2550W        W 6614   0.039   1.647   9.890
 2551W        W 6615   1.425  10.038  11.226
 2552W        W 6616   4.492   5.139   1.542
 2553W        W 6617   6.138   2.550   2.167
 2554W        W 6618   3.255   0.908  11.932
 2555W        W 6619   2.151   6.634   9.856
 2556W        W 6620   8.054   4.126   1.796
 2557W        W 6621   8.019   8.177   2.502
 2558W        W 6622   7.038   8.575  10.518
 2559W        W 6623   7.610   2.296   1.685
 2560W        W 6624   9.293   4.052   2.695
 2561W        W 6625  10.019   4.234   0.959
 2562W        W 6626   7.467   9.459   0.432
 2563W        W 6627   9.044   0.772   0.795
 2564W        W 6628   3.085   5.640  10.344
 2565W        W 6629   6.518   5.473   8.627
 2566W        W 6630   5.681   3.028  11.947
 2567W        W 6631   4.277   0.802   1.407
 2568W        W 6632   2.763   9.293  11.265
 2569W        W 6633   3.614   2.723  11.268
 2570W        W 6634   7.182   9.364   0.938
 2571W        W 6635   5.700   1.882   9.976
 2572W        W 6636   3.679   2.130   0.548
 2573W        W 6637   0.011   5.199   9.068
 2574W        W 6638   4.663   9.809  11.269
 2575W        W 6639  10.116   4.969   1.968
 2576W        W 6640   7.468   9.327   1.772
 2577W        W 6641   4.279   7.592  10.791
 2578W        W 6642   3.183   4.588  11.896
 2579W        W 6643  10.215   4.965  10.503
 2580W        W 6644   5.602   5.530  11.232
 2581W        W 6645   0.509   4.677   2.950
 2582W        W 6646   8.120   3.882   0.317
 2583W        W 6647   2.435   8.595   2.511
 2584W        W 6648   1.298   4.208   9.292
 2585W        W 6649   7.962   0.806  11.368
 2586W        W 6650   3.369   0.867   1.902
 2587W        W 6651   5.661   5.002   0.696
 2588W        W 6652   1.970   1.638   1.558
 2589W        W 6653   4.063   5.754   9.183
 2590W        W 6654   6.548   8.446   1.250
 2591W        W 6655   3.678   6.662   8.853
 2592W        W 6656   1.801   1.057   0.161
 2593W        W 6657   5.143   7.350   3.064
 2594W        W 6658   6.054   8.632   2.984
 2595W        W 6659   1.385   5.892   0.252
 2596W        W 6660   3.062   6.519  11.354
 2597W        W 6661   0.857   9.316   8.969
 2598W        W 6662   3.130   9.940  10.246
 2599W        W 6663   2.517   7.198   1.920
 2600W        W 6664   0.401   7.745  10.132
 2601W        W 6665   7.263   3.638   0.765
 2602W        W 6666   2.912   1.725   1.447
 2603W        W 6667   1.929   3.117   3.206
 2604W        W 6668   3.727   1.877  10.751
 2605W        W 6669   9.358   2.851  10.385
 2606W        W 6670   0.870   1.390   1.435
 2607W        W 6671   1.302   3.486   2.024
 2608W        W 6672   3.057   8.801   2.423
 2609W        W 6673  10.274   9.851  10.321
 2610W        W 6674   3.787  10.444  11.709
 2611W        W 6675   1.411   5.203   9.177
 2612W        W 6676   1.322   8.303   0.064
 2613W        W 6677   6.079   4.800  10.149
 2614W        W 6678   1.398   2.336   3.490
 2615W        W 6679   3.554   5.025   3.674
 2616W        W 6680   3.983   5.726   0.165
 2617W        W 6681   6.695   3.636  10.508
 2618W        W 6682   8.469   1.854   9.876
 2619W        W 6683   2.730   6.718   2.750
 2620W        W 6684   4.242   9.875   0.711
 2621W        W 6685   8.183   6.507   1.322
 2622W        W 6686   8.953   0.099   9.510
 2623W        W 6687   5.068   9.424  10.244
 2624W        W 6688   6.518  10.311  11.105
 2625W        W 6689   7.224   7.277  11.791
 2626W        W 6690   6.587   1.247  11.012
 2627W        W 6691   2.015   1.847  11.227
 2628W        W 6692   9.564   5.509  10.777
 2629W        W 6693   0.511   4.634   2.366
 2630W        W 6694   9.399   4.746   1.572
 2631W        W 6695   8.490   4.286   8.986
 2632W        W 6696   8.288   8.822  10.391
 2633W        W 6697   6.744   8.454   9.620
 2634W        W 6698   6.469   8.107   9.380
 2635W        W 6699   2.251   3.401  11.974
 2636W        W 6700   6.440   7.925   9.908
 2637W        W 6701   0.749   5.400   2.770
 2638W        W 6702   2.784   0.735   8.602
 2639W        W 6703   8.607   0.484  10.812
 2640W        W 6704   7.499   6.217  11.501
 2641W        W 6705   1.987   0.807  10.891
 2642W        W 6706   6.098   9.957   3.333
 2643W        W 6707   8.925  10.408   2.183
 2644W        W 6708   6.426   5.511  11.660
 2645W        W 6709   7.054   4.440   9.423
 2646W        W 6710   8.614   5.913   0.468
 2647W        W 6711   5.808   9.921   0.885
 2648W        W 6712   2.098   3.893   2.649
 2649W        W 6713   7.380   2.242  11.236
 2650W        W 6714   5.654   7.852   1.900
 2651W        W 6715  10.282   0.801   8.627
 2652W        W 6716   1.439   8.483   8.689
 2653W        W 6717   9.821   3.878   0.655
 2654W        W 6718   0.876   2.222  11.724
 2655W        W 6719   9.722   0.257  11.725
 2656W        W 6720   2.115   0.864   3.394
 2657W        W 6721   4.846   6.862   1.865
 2658W        W 6722   0.264  10.380   0.305
 2659W        W 6723   1.615   0.757   9.952
 2660W        W 6724   9.238   2.721   0.201
 2661W        W 6725   8.907   0.657   2.149
 2662W        W 6726   4.403   6.539   8.180
 2663W        W 6727   4.035   2.894   9.041
 2664W        W 6728   8.570   3.346  10.755
 2665W        W 6729   9.962   3.521  10.532
 2666W        W 6730   8.915   4.540   9.153
 2667W        W 6731   0.498   9.057   1.648
 2668W        W 6732   5.155   0.410   0.208
 2669W        W 6733   8.261   8.069   8.626
 2670W        W 6734   4.431   1.640   3.606
 2671W        W 6735   7.711   0.313   9.405
 2672W        W 6736   8.874   4.623   3.116
 2673W        W 6737   3.822   5.361  11.862
 2674W        W 6738   2.866   2.136   1.752
 2675W        W 6739   7.531  10.479   9.027
 2676W        W 6740   2.531  10.186   9.358
 2677W        W 6741   7.809   5.305   0.804
 2678W        W 6742   6.555   7.716  11.838
 2679W        W 6743   3.097   4.294   9.261
 2680W        W 6744   4.787   7.342   0.391
 2681W        W 6745   7.929   8.033  11.797
 2682W        W 6746   3.801   3.314  10.548
 2683W        W 6747   2.180   5.715   9.058
 2684W        W 6748  10.500   6.112  11.863
 2685W        W 6749  10.202   0.301   2.545
 2686W        W 6750   3.214   9.102   9.952
 2687W        W 6751   9.448   4.765   1.043
 2688W        W 6752   6.003   1.252   2.223
 2689W        W 6753   8.701   6.668   8.650
 2690W        W 6754   2.851   2.877  10.812
 2691W        W 6755   5.094   8.115  11.937
 2692W        W 6756   9.308   2.873   0.667
 2693W        W 6757   1.369   4.187   1.446
 2694W        W 6758   7.358   9.496  10.238
 2695W        W 6759   4.082   0.588  10.373
 2696W        W 6760   4.237   1.902   8.877
 2697W        W 6761   8.921   5.578   2.894
 2698W        W 6762   4.506   2.840  10.583
 2699W        W 6763   2.819   4.590   2.003
 2700W        W 6764   7.659   8.499  11.141
 2701W        W 6765  10.281   2.306   1.955
 2702W        W 6766  10.255  10.407   0.336
 2703W        W 6767  10.166   2.672  11.510
 2704W        W 6768   7.917   2.242   8.956
 2705W        W 6769   8.099   0.917  11.888
 2706W        W 6770   4.080   5.105   2.936
 2707W        W 6771   3.286   4.659   8.456
 2708W        W 6772   8.503  10.222  10.430
 2709W        W 6773   8.118   5.687   9.765
 2710W        W 6774   3.226   3.945   3.441
 2711W        W 6775   9.496   6.241   1.208
 2712W        W 6776   5.010   1.261   9.712
 2713W        W 6777   3.105   8.350   3.164
 2714W        W 6778   0.419   9.996  11.372
 2715W        W 6779   0.716   4.811   9.269
 2716W        W 6780   1.784   4.737   2.982
 2717W        W 6781   8.360  10.165   3.567
 2718W        W 6782   2.437   8.237  11.297
 2719W        W 6783   7.150  10.446   1.737
 2720W        W 6784   2.859   1.855  10.994
 2721W        W 6785   1.164   5.114   0.897
 2722W        W 6786   6.387   5.283  10.816
 2723W        W 6787   5.669   6.559   2.246
 2724W        W 6788   4.537   1.474  10.434
 2725W        W 6789   2.412   1.275   2.655
 2726W        W 6790   4.140   7.405   9.918
 2727W        W 6791   5.454   1.304   8.914
 2728W        W 6792   3.714   5.995   2.210
 2729W        W 6793   6.128   0.804   1.991
 2730W        W 6794   0.272   6.345   9.757
 2731W        W 6795   6.231   8.498  11.448
 2732W        W 6796  10.321   8.976   1.172
 2733W        W 6797   4.105   2.611   3.569
 2734W        W 6798   7.665   1.167  10.074
 2735W        W 6799  10.186   2.622   0.682
 2736W        W 6800   3.657   6.511   1.179
 2737W        W 6801   6.258   6.944   2.855
 2738W        W 6802   9.015   1.292   0.771
 2739W        W 6803   9.072   7.972   1.989
 2740W        W 6804   2.793   9.005   1.649
 2741W        W 6805   2.643   1.483  11.802
 2742W        W 6806   0.314   9.457   1.985
 2743W        W 6807   1.324   6.855   0.428
 2744W        W 6808   4.793   2.102   3.612
 2745W        W 6809  10.225   3.042   1.215
 2746W        W 6810   5.513   3.795   9.966
 2747W        W 6811   7.813   4.205  10.038
 2748W        W 6812   4.870   1.682  11.468
 2749W        W 6813   6.467  10.337   0.397
 2750W        W 6814   2.529   1.883   0.980
 2751W        W 6815   7.009   7.878   8.857
 2752W        W 6816   0.306  10.217  10.941
 2753W        W 6817  10.456   6.110   9.389
 2754W        W 6818   3.788   7.935  11.868
 2755W        W 6819   1.214   0.889   0.816
 2756W        W 6820   5.260   1.330   3.425
 2757W        W 6821   2.289   5.236   1.404
 2758W        W 6822   2.733   4.994   1.322
 2759W        W 6823   0.782   9.566   9.409
 2760W        W 6824   3.353   4.474   4.312
 2761W        W 6825   4.047   9.305  10.968
 2762W        W 6826   3.041   7.125  10.882
 2763W        W 6827   0.932   2.105   3.556
 2764W        W 6828   9.635   5.127   9.581
 2765W        W 6829   8.608   3.784   0.387
 2766W        W 6830   0.392  10.460   9.246
 2767W        W 6831   4.536   5.703  10.054
 2768W        W 6832   3.149  10.472   8.693
 2769W        W 6833   7.119   8.833   3.207
 2770W        W 6834   7.908   2.797   9.495
 2771W        W 6835   9.342   9.073  11.737
 2772W        W 6836   5.607   0.917   9.730
 2773W        W 6837   8.268   4.191  11.767
 2774W        W 6838   8.851   5.462   9.173
 2775W        W 6839   5.070   3.431   4.236
 2776W        W 6840   4.399   4.298  11.340
 2777W        W 6841   9.495   5.934  11.791
 2778W        W 6842   2.734   4.375   9.771
 2779W        W 6843   2.196   6.042   3.227
 2780W        W 6844   5.154   1.081   1.413
 2781W        W 6845   7.769  10.416   9.857
 2782W        W 6846   4.678   2.196   8.851
 2783W        W 6847   0.410   0.021   9.765
 2784W        W 6848   8.490   0.790   2.783
 2785W        W 6849   6.568   7.440  11.415
 2786W        W 6850   4.382   8.776  11.641
 2787W        W 6851   3.776   9.952   0.935
 2788W        W 6852   8.401   2.654   2.020
 2789W        W 6853   9.564   8.639   1.636
 2790W        W 6854   2.085   9.398  10.511
 2791W        W 6855   0.075   4.518   2.630
 2792W        W 6856   8.424   4.607   3.338
 2793W        W 6857   8.533   9.699   8.490
 2794W        W 6858   2.656   7.840  10.841
 2795W        W 6859   4.426   1.998   1.008
 2796W        W 6860   6.083   7.684   2.678
 2797W        W 6861   1.704   6.350   9.857
 2798W        W 6862   7.989   0.338   1.104
 2799W        W 6863   1.829   0.468   1.228
 2800W        W 6864   8.067   1.438   9.844
 2801W        W 6865   7.445   2.643   9.970
 2802W        W 6866   8.815   3.990   2.492
 2803W        W 6867   3.159   0.251   3.187
 2804W        W 6868   9.964   5.654  11.053
 2805W        W 6869   2.899   5.661   3.448
 2806W        W 6870   8.791   4.230   9.981
 2807W        W 6871   9.889   7.074  11.130
 2808W        W 6872   8.398   5.879   2.674
 2809W        W 6873   8.391   3.572   2.373
 2810W        W 6874   4.589   2.753   9.597
 2811W        W 6875   4.522   6.160   9.839
 2812W        W 6876   0.399   9.799   0.758
 2813W        W 6877   0.495   4.626  11.049
 2814W        W 6878   1.718   4.628   1.484
 2815W        W 6879   5.277   8.422   9.885
 2816W        W 6880   5.494   4.634   1.730
 2817W        W 6881   0.957   4.478   8.972
 2818W        W 6882   2.758   8.630   8.849
 2819W        W 6883   0.976   0.986  10.713
 2820W        W 6884   0.337   7.500   9.679
 2821W        W 6885   4.745   4.636   2.978
 2822W        W 6886   5.118   5.898   1.824
 2823W        W 6887   8.419   4.235  10.324
 2824W        W 6888   6.976   9.399   1.965
 2825W        W 6889   2.290   6.476   3.502
 2826W        W 6890   5.244   1.396  11.179
 2827W        W 6891   7.421   4.193   0.476
 2828W        W 6892   0.330   8.813   2.633
 2829W        W 6893   2.437   0.266   1.030
 2830W        W 6894   7.881   1.354   2.598
 2831W        W 6895   8.210   6.015   2.208
 2832W        W 6896  10.217   8.880  10.285
 2833W        W 6897   1.381   8.831  10.897
 2834W        W 6898   4.254   1.249  10.969
 2835W        W 6899   1.878   8.485   1.150
 2836W        W 6900   3.916   8.808   9.500
 2837W        W 6901   5.230   2.366   3.689
 2838W        W 6902   0.821   9.021   1.150
 2839W        W 6903   7.398   1.827   1.833
 2840W        W 6904   7.657   9.547   8.743
 2841W        W 6905   5.955   0.360   8.604
 2842W        W 6906   8.038   3.821  11.470
 2843W        W 6907   1.316   4.456  10.968
 2844W        W 6908   0.435   4.971   0.701
 2845W        W 6909   8.898   5.798   0.068
 2846W        W 6910   6.993   1.350   9.005
 2847W        W 6911   7.817   9.858  11.152
 2848W        W 6912   6.861   8.534   0.404
 2849W        W 6913   5.164   0.834   9.971
 2850W        W 6914   5.593   5.014  10.338
 2851W        W 6915   3.614   8.581   9.969
 2852W        W 6916   8.778  10.366   1.683
 2853W        W 6917   2.568   3.567   0.333
 2854W        W 6918   8.483   1.456   9.546
 2855W        W 6919   5.039   5.700  10.914
 2856W        W 6920   8.573   9.103   1.002
 2857W        W 6921   3.353   2.646  11.702
 2858W        W 6922   0.161   7.446   2.412
 2859W        W 6923   5.687   2.158  10.419
 2860W        W 6924   5.894   6.052   9.031
 2861W        W 6925   9.468   6.636   9.712
 2862W        W 6926   1.168   4.715   9.964
 2863W        W 6927   9.352   2.277   2.423
 2864W        W 6928   4.684   4.631   8.899
 2865W        W 6929   4.198   2.775   2.679
 2866W        W 6930   3.112   5.317   1.405
 2867W        W 6931   0.899   7.150   2.174
 2868W        W 6932   8.415   0.273   0.250
 2869W        W 6933   1.749   1.224  10.746
 2870W        W 6934  10.414   8.122   0.528
 2871W        W 6935   7.196   9.997   9.728
 2872W        W 6936   3.564   2.856  10.531
 2873W        W 6937   4.086   4.615   4.207
 2874W        W 6938   3.932  10.321  10.343
 2875W        W 6939   0.445   9.966   9.354
 2876W        W 6940   6.093  10.425   2.174
 2877W        W 6941   6.525   8.602  10.592
 2878W        W 6942   2.425   0.569   8.980
 2879W        W 6943   5.630   5.975   1.966
 2880W        W 6944   7.560   4.024   1.900
 2881W        W 6945   9.476   8.566  11.847
 2882W        W 6946   1.886   0.336   9.820
 2883W        W 6947   8.828   7.537   1.845
 2884W        W 6948   7.568   4.196   3.331
 2885W        W 6949   3.209   7.874   9.060
 2886W        W 6950   3.708   8.705   0.395
 2887W        W 6951   1.298   2.395   8.664
 2888W        W 6952   1.230   2.416   0.934
 2889W        W 6953   3.752   9.062   9.909
 2890W        W 6954   0.374   3.263   0.292
 2891W        W 6955   4.367   2.625  11.730
 2892W        W 6956   0.263   7.423   9.182
 2893W        W 6957   8.519   7.523  10.603
 2894W        W 6958   5.271   6.190   2.262
 2895W        W 6959  10.405   0.481   0.699
 2896W        W 6960   1.340   1.211   9.957
 2897W        W 6961   6.961   5.659   8.240
 2898W        W 6962   4.208   8.280  11.711
 2899W        W 6963  10.375   5.410   2.178
 2900W        W 6964   4.500   6.536   9.001
 2901W        W 6965   4.226   4.892   9.086
 2902W        W 6966   1.402   8.437   1.319
 2903W        W 6967   3.463   5.354  11.508
 2904W        W 6968   3.239   3.332  10.458
 2905W        W 6969   3.645   4.038   9.921
 2906W        W 6970   1.789   9.859   1.699
 2907W        W 6971   4.047   2.095   9.366
 2908W        W 6972   9.345   7.510  10.103
 2909W        W 6973   7.545   0.553   3.588
 2910W        W 6974   2.023   9.602   2.411
 2911W        W 6975   0.620   5.406   0.952
 2912W        W 6976   0.416   3.316   8.978
 2913W        W 6977   6.570   6.002   8.261
 2914W        W 6978   2.424   1.684  10.790
 2915W        W 6979   9.226   7.530   0.760
 2916W        W 6980   8.965   1.201  11.889
 2917W        W 6981   6.033   4.641   9.534
 2918W        W 6982   3.114   5.671   9.414
 2919W        W 6983   6.733   6.419   0.414
 2920W        W 6984   0.043   0.767   9.071
 2921W        W 6985   5.516   1.814   3.023
 2922W        W 6986   3.779   5.471   9.798
 2923W        W 6987   6.985   9.400   9.497
 2924W        W 6988   5.667   7.510   8.528
 2925W        W 6989   8.467   9.355   1.454
 2926W        W 6990   2.149   8.872  10.554
 2927W        W 6991   1.707   9.376   1.482
 2928W        W 6992   9.972   5.622   3.172
 2929W        W 6993   0.885   9.375   3.276
 2930W        W 6994   6.543   4.240   3.738
 2931W        W 6995   6.521   8.919  11.000
 2932W        W 6996   6.774   3.626   0.850
 2933W        W 6997   1.751   3.566  11.935
 2934W        W 6998   1.517   8.030   1.025
 2935W        W 6999   0.756   5.699   1.917
 2936W        W 7000   1.679   1.810   2.826
 2937W        W 7001   7.228   6.718   9.390
 2938W        W 7002   2.167   5.694  11.382
 2939W        W 7003   4.769   9.943  10.788
 2940W        W 7004   7.820   5.095  10.372
 2941W        W 7005   9.762   5.023   0.437
 2942W        W 7006   3.414   8.810   9.546
 2943W        W 7007  10.398   8.846  11.737
 2944W        W 7008   6.422   5.605   9.925
 2945W        W 7009   1.164   4.024   2.852
 2946W        W 7010   9.552   9.111   1.886
 2947W        W 7011   1.868  10.235   9.250
 2948W        W 7012   8.364   4.657  11.951
 2949W        W 7013   4.061  10.468   0.153
 2950W        W 7014   2.557   1.601   1.817
 2951W        W 7015   0.305   9.090   9.832
 2952W        W 7016   8.496   1.219   0.079
 2953W        W 7017   5.068  10.383   0.911
 2954W        W 7018   7.445   0.337   9.839
 2955W        W 7019   6.039   9.535   3.026
 2956W        W 7020   8.775   4.527  11.007
 2957W        W 7021   8.513   4.692  10.042
 2958W        W 7022   0.970   2.620   0.050
 2959W        W 7023   6.675   2.407   1.307
 2960W        W 7024   3.841   2.215   0.061
 2961W        W 7025   7.033   4.703   2.387
 2962W        W 7026   6.002   6.146  10.859
 2963W        W 7027   2.424   3.129   3.384
 2964W        W 7028   6.652   7.270   9.104
 2965W        W 7029  10.249   8.774   0.706
 2966W        W 7030   4.137   0.020  11.318
 2967W        W 7031   2.641  10.424   0.703
 2968W        W 7032   8.224   6.558   8.491
 2969W        W 7033   2.717   9.013   2.748
 2970W        W 7034   0.701   2.176   9.500
 2971W        W 7035   5.993   3.744   1.828
 2972W        W 7036   2.149   2.870  10.414
 2973W        W 7037   7.615   6.049   7.864
 2974W        W 7038  10.475   3.895   3.261
 2975W        W 7039   1.362   1.199  11.046
 2976W        W 7040   2.634   8.406  11.779
 2977W        W 7041   2.910   4.174   2.316
 2978W        W 7042   1.367   7.120   2.360
 2979W        W 7043   9.345   4.242   9.063
 2980W        W 7044   9.008   7.107   8.599
 2981W        W 7045   9.936   5.728   0.938
 2982W        W 7046   7.589   6.824   2.416
 2983W        W 7047   7.080   5.257   7.937
 2984W        W 7048   4.102   3.665   9.340
 2985W        W 7049   2.153   7.992   3.035
 2986W        W 7050   8.575   0.241   8.879
 2987W        W 7051   0.320   8.437   2.255
 2988W        W 7052   9.613   8.087  11.423
 2989W        W 7053   2.827   9.532  10.301
 2990W        W 7054   3.855   2.674  11.773
 2991W        W 7055   8.897   7.345   2.643
 2992W        W 7056   2.348   2.543   0.194
 2993W        W 7057   8.248   8.793   3.231
 2994W        W 7058   1.776   3.334  10.506
 2995W        W 7059  10.374   0.582  10.982
 2996W        W 7060   1.126   0.693  10.004
 2997W        W 7061   9.438   1.303  11.311
 2998W        W 7062   9.515   6.091   9.472
 2999W        W 7063   6.113   4.221   1.716
 3000W        W 7064   5.412   7.109   8.224
 3001W        W 7065   5.577   9.350   2.830
 3002W        W 7066   0.905   8.137   1.714
 3003W        W 7067   4.629   7.534   0.831
 3004W        W 7068   4.124   3.792  10.371
 3005W        W 7069   0.276   0.733   0.446
 3006W        W 7070   3.668   7.470   1.376
 3007W        W 7071   3.913   5.280   8.077
 3008W        W 7072   1.223   8.533   1.778
 3009W        W 7073   4.755   2.242   1.733
 3010W        W 7074   6.522   2.211  10.967
 3011W        W 7075   8.960   8.223   2.435
 3012W        W 7076   9.019   3.727   3.361
 3013W        W 7077  10.420   3.815   9.337
 3014W        W 7078   6.612   8.179   0.773
 3015W        W 7079   8.862   9.478   0.326
 3016W        W 7080   5.656   8.425   9.017
 3017W        W 7081   2.233   3.737   9.277
 3018W        W 7082   9.114   6.504  10.055
 3019W        W 7083   3.363   3.168   9.586
 3020W        W 7084   5.262   1.809   9.367
 3021W        W 7085   3.991   8.028  10.775
 3022W        W 7086   6.984   4.308  10.805
 3023W        W 7087   0.824   7.996   3.306
 3024W        W 7088   8.325   9.735  10.404
 3025W        W 7089   4.995   7.097  10.430
 3026W        W 7090   0.960   0.922   0.012
 3027W        W 7091   0.874  10.390   9.071
 3028W        W 7092   7.793   4.012   8.963
 3029W        W 7093   3.724   5.444   3.958
 3030W        W 7094   6.533   2.646  11.397
 3031W        W 7095   9.071   7.665   3.606
 3032W        W 7096   6.926   1.775   0.213
 3033W        W 7097   1.236   3.958  10.925
 3034W        W 7098   4.048   3.001   8.515
 3035W        W 7099  10.392   9.740   1.936
 3036W        W 7100   3.054   2.626   0.102
 3037W        W 7101   0.434   0.945   3.533
 3038W        W 7102   0.048   2.630   2.804
 3039W        W 7103   7.588   2.220   2.195
 3040W        W 7104   1.245   8.095   3.033
 3041W        W 7105   9.446   7.348  11.104
 3042W        W 7106   1.913   4.390   3.323
 3043W        W 7107   3.171   1.707   2.466
 3044W        W 7108   4.395   2.009  11.404
 3045W        W 7109   4.501   1.265   8.909
 3046W        W 7110   2.184   0.678   0.892
 3047W        W 7111   9.957   5.856  10.081
 3048W        W 7112   9.372   3.791   9.338
 3049W        W 7113   3.450   4.287   3.129
 3050W        W 7114   6.660   1.134   3.120
 3051W        W 7115   9.359   2.004   9.363
 3052W        W 7116   5.642   0.322   0.470
 3053W        W 7117   8.386   7.344   0.349
 3054W        W 7118   3.670   4.561   3.905
 3055W        W 7119   0.814   6.180   1.773
 3056W        W 7120   0.203   5.584   8.764
 3057W        W 7121   9.024   6.224   0.376
 3058W        W 7122   8.724   3.532  10.240
 3059W        W 7123   8.584   6.948  11.266
 3060W        W 7124   9.879   6.610  11.945
 3061W        W 7125   3.799   4.622   2.914
 3062W        W 7126   4.964   9.023   0.359
 3063W        W 7127   6.706  10.042   9.873
 3064W        W 7128   6.169   5.901   8.611
 3065W        W 7129   8.893   7.426   1.344
 3066W        W 7130   5.563   7.961   0.797
 3067W        W 7131   5.308   3.104  10.396
 3068W        W 7132   5.951   1.385   0.706
 3069W        W 7133   5.785   3.637   0.941
 3070W        W 7134   1.409   6.362   0.433
 3071W        W 7135   3.637   3.108  11.576
 3072W        W 7136   0.573   6.398   2.896
 3073W        W 7137   4.632   7.006   0.926
 3074W        W 7138   0.830   6.910  11.820
 3075W        W 7139   9.420   3.788   0.945
 3076W        W 7140   7.543   1.155   2.945
 3077W        W 7141   7.023   2.143   1.021
 3078W        W 7142   8.901   4.038  10.984
 3079W        W 7143   3.566   7.585   8.767
 3080W        W 7144   3.207   0.752   9.319
 3081W        W 7145   3.689   4.170   1.082
 3082W        W 7146  10.373   7.445   1.724
 3083W        W 7147   6.057   9.942   1.319
 3084W        W 7148  10.386  10.337   9.122
 3085W        W 7149   8.607   8.083   0.577
 3086W        W 7150   7.581   7.574   1.016
 3087W        W 7151   5.214   7.448   8.792
 3088W        W 7152   2.203   1.396   2.171
 3089W        W 7153   6.507   4.087  10.762
 3090W        W 7154   9.920   8.419  10.418
 3091W        W 7155   1.638   4.254   2.771
 3092W        W 7156   2.358   8.146   1.884
 3093W        W 7157   8.371   3.122  11.814
 3094W        W 7158   6.731  10.227  11.949
 3095W        W 7159   9.921   3.527  10.022
 3096W        W 7160   5.246   4.541   1.277
 3097W        W 7161   2.985   1.750   3.531
 3098W        W 7162   0.809   4.272   8.508
 3099W        W 7163   7.126   8.037   3.560
 3100W        W 7164   6.839   8.390   3.255
 3101W        W 7165   5.546   6.373  10.713
 3102W        W 7166   2.240   8.882   3.298
 3103W        W 7167   6.069   8.540   1.411
 3104W        W 7168   1.864   4.532  11.983
 3105W        W 7169   9.972   0.395   9.733
 3106W        W 7170   6.118   8.166   2.804
 3107W        W 7171   3.890   5.912   4.108
 3108W        W 7172   5.040   5.146   9.599
 3109W        W 7173   7.002   9.016  10.784
 3110W        W 7174   8.917   1.717  10.072
 3111W        W 7175   7.331   0.959   1.573
 3112W        W 7176   9.883   4.837   9.057
 3113W        W 7177   2.767   2.791   3.207
 3114W        W 7178   7.891   2.423  10.010
 3115W        W 7179   4.700   1.075  10.709
 3116W        W 7180   7.156   5.724  10.533
 3117W        W 7181   2.720   3.213   2.474
 3118W        W 7182   5.999   5.247   9.895
 3119W        W 7183   1.357   6.614   2.527
 3120W        W 7184   7.841   5.138   3.157
 3121W        W 7185   9.754   1.715   9.481
 3122W        W 7186   6.530   3.156  11.228
 3123W        W 7187   7.002   0.946   3.475
 3124W        W 7188   5.983   0.032   0.237
 3125W        W 7189   7.406   8.533   0.382
 3126W        W 7190   8.433   4.836   8.935
 3127W        W 7191   8.612   5.746   1.266
 3128W        W 7192   8.825   6.560   2.514
 3129W        W 7193   7.453   2.626   2.480
 3130W        W 7194   3.712   5.064  11.127
 3131W        W 7195   3.001   9.393  10.784
 3132W        W 7196   4.052   0.436   9.249
 3133W        W 7197   4.014   1.856   2.319
 3134W        W 7198   8.152   0.521   1.950
 3135W        W 7199   8.134   5.552  10.278
 3136W        W 7200   3.776  10.387   3.224
 3137W        W 7201   5.141   9.028   9.437
 3138W        W 7202   0.170   3.103  11.538
 3139W        W 7203   8.819   5.055  10.889
 3140W        W 7204   0.882   9.984   0.667
 3141W        W 7205   5.459   5.119   3.194
 3142W        W 7206   7.907   0.759   9.206
 3143W        W 7207   9.568   1.221   9.758
 3144W        W 7208   2.289   4.333   9.085
 3145W        W 7209   9.304   8.057  11.851
 3146W        W 7210   5.121   9.960   3.051
 3147W        W 7211   5.583   5.352  10.745
 3148W        W 7212   2.264   6.578   2.544
 3149W        W 7213   5.692   2.147  11.488
 3150W        W 7214   5.921   1.401   9.104
 3151W        W 7215   7.719   5.124   8.447
 3152W        W 7216   9.844   0.286   3.412
 3153W        W 7217   0.432   4.268   8.820
 3154W        W 7218  10.403   2.329  10.374
 3155W        W 7219   4.816   6.928   3.010
 3156W        W 7220   9.443   1.008  10.885
 3157W        W 7221   9.933   9.412   1.995
 3158W        W 7222   3.676   2.641   8.737
 3159W        W 7223   7.858   6.804   8.766
 3160W        W 7224   4.668   5.263  11.293
 3161W        W 7225   1.873   7.554  11.639
 3162W        W 7226   4.606   7.325   3.310
 3163W        W 7227   6.221   6.403  11.884
 3164W        W 7228   8.653   5.441   2.103
 3165W        W 7229   0.798   0.323  11.317
 3166W        W 7230   5.176   2.317  11.510
 3167W        W 7231   5.000   8.455   3.491
 3168W        W 7232   2.637   0.786  10.013
 3169W        W 7233   8.798   7.732   2.339
 3170W        W 7234   1.041   1.917   9.900
 3171W        W 7235   8.400  10.355   9.187
 3172W        W 7236   6.101   3.765   2.707
 3173W        W 7237   9.799  10.027   2.621
 3174W        W 7238   7.378   9.783   2.922
 3175W        W 7239   6.893   5.223  10.739
 3176W        W 7240   9.472   3.723   3.055
 3177W        W 7241   4.176   7.248  10.410
 3178W        W 7242   8.532   7.899  10.255
 3179W        W 7243   9.353   1.048   3.181
 3180W        W 7244   1.343   2.754   9.968
 3181W        W 7245   2.176   3.984  10.822
 3182W        W 7246   2.222   5.429   0.362
 3183W        W 7247   4.770   2.751   1.469
 3184W        W 7248   6.185   5.584   9.475
 3185W        W 7249   6.916   0.237  11.768
 3186W        W 7250   0.634   6.377   8.538
 3187W        W 7251   1.844   3.362   9.311
 3188W        W 7252   5.129   6.113   9.582
 3189W        W 7253   6.416   5.112  11.319
 3190W        W 7254   2.334   5.558  10.903
 3191W        W 7255   8.687   5.541  10.565
 3192W        W 7256   0.823   7.468  11.025
 3193W        W 7257   4.533   1.751   0.554
 3194W        W 7258   1.932   2.753   1.572
 3195W        W 7259   0.754   5.132   3.205
 3196W        W 7260   8.605   7.579  11.951
 3197W        W 7261   9.826   1.196   3.473
 3198W        W 7262   2.422   9.087   0.295
 3199W        W 7263   6.057   6.533   9.020
 3200W        W 7264   4.697   2.442  11.390
 3201W        W 7265   2.323   9.144  10.950
 3202W        W 7266   9.074   0.251  10.980
 3203W        W 7267   1.040   1.250   0.503
 3204W        W 7268   7.151   6.130   8.064
 3205W        W 7269   0.581   0.433   3.349
 3206W        W 7270   9.085   8.404   1.564
 3207W        W 7271   6.915   6.050   3.621
 3208W        W 7272   8.340   7.108  10.236
 3209W        W 7273   1.427   3.537  11.114
 3210W        W 7274   3.728   3.588  11.445
 3211W        W 7275   8.101   1.866   9.526
 3212W        W 7276   1.216   2.364   2.268
 3213W        W 7277   5.238   2.404   1.635
 3214W        W 7278   1.216   1.961   2.626
 3215W        W 7279   8.903   9.814   9.724
 3216W        W 7280   9.861  10.474   2.373
 3217W        W 7281   3.417   9.889   0.522
 3218W        W 7282   4.538   5.548  10.874
 3219W        W 7283   3.807   4.380   0.579
 3220W        W 7284   5.305   2.854   0.715
 3221W        W 7285   7.911   7.910   8.960
 3222W        W 7286   0.181   6.439   0.207
 3223W        W 7287   5.222   6.714  10.935
 3224W        W 7288   3.488   5.475   4.407
 3225W        W 7289   7.853   4.426   0.999
 3226W        W 7290   4.771   5.568   3.471
 3227W        W 7291   9.857   3.595   2.180
 3228W        W 7292   7.999   1.330  11.363
 3229W        W 7293   2.190   5.228   2.499
 3230W        W 7294   5.785   0.343   0.957
 3231W        W 7295   0.274   9.089   3.066
 3232W        W 7296   0.907   8.262   9.342
 3233W        W 7297   3.840   8.286   2.807
 3234W        W 7298   2.749  10.481   2.708
 3235W        W 7299   8.647   5.030   1.766
 3236W        W 7300   3.566   3.062   0.958
 3237W        W 7301  10.030   0.767   2.687
 3238W        W 7302   6.154   4.351  10.484
 3239W        W 7303   8.506   4.080   3.327
 3240W        W 7304  10.488  10.357   8.627
 3241W        W 7305   7.369   3.530   9.483
 3242W        W 7306   9.281   8.122   1.147
 3243W        W 7307   5.522   5.211   8.920
 3244W        W 7308   4.175   8.526  10.719
 3245W        W 7309   1.932   0.230   0.787
 3246W        W 7310   0.996   0.802   2.683
 3247W        W 7311   2.688   0.221   8.708
 3248W        W 7312   8.415   9.046   9.764
 3249W        W 7313   9.943   7.549   0.279
 3250W        W 7314  10.324   9.331  11.730
 3251W        W 7315   0.263   4.734   9.037
 3252W        W 7316   3.773   9.437   1.141
 3253W        W 7317   4.694  10.323  11.118
 3254W        W 7318   2.703   6.006   1.057
 3255W        W 7319   2.425   0.368   0.529
 3256W        W 7320   9.336   0.856  10.389
 3257W        W 7321   5.979   9.536  11.499
 3258W        W 7322   0.742   1.465  10.781
 3259W        W 7323   6.897   7.206  10.398
 3260W        W 7324   6.165   7.503   9.817
 3261W        W 7325  10.063   1.797   0.807
 3262W        W 7326   6.234   3.954   9.250
 3263W        W 7327   8.538   6.658   9.840
 3264W        W 7328   2.151   0.542   2.366
 3265W        W 7329   4.092   8.392   3.275
 3266W        W 7330   4.178   5.629   3.746
 3267W        W 7331   1.314   3.280   9.251
 3268W        W 7332   8.905   3.151   2.833
 3269W        W 7333   9.186   2.268  11.304
 3270W        W 7334   8.932   5.408   1.498
 3271W        W 7335   6.200   4.477  11.034
 3272W        W 7336   0.407   3.214  10.814
 3273W        W 7337   5.587   6.149   3.843
 3274W        W 7338   1.700   8.919   2.783
 3275W        W 7339   8.019   5.594   2.879
 3276W        W 7340   5.657   1.205  11.441
 3277W        W 7341   2.894   5.473   2.465
 3278W        W 7342   0.500  10.248   2.442
 3279W        W 7343   1.888   8.421   9.082
 3280W        W 7344   3.105   6.132  10.982
 3281W        W 7345   3.258   5.309   9.772
 3282W        W 7346   7.835   3.643   1.635
 3283W        W 7347   6.778  10.078   0.794
 3284W        W 7348   1.162   0.512  10.525
 3285W        W 7349   0.251  10.104  10.061
 3286W        W 7350   0.992  10.353   2.700
 3287W        W 7351   3.310   8.951  10.807
 3288W        W 7352   8.102   8.961   8.890
 3289W        W 7353  10.360   8.348  11.761
 3290W        W 7354   2.165   2.759  11.383
 3291W        W 7355   6.397   0.877   1.234
 3292W        W 7356   0.772   9.466   1.402
 3293W        W 7357   6.617   8.204   8.805
 3294W        W 7358   7.530   8.672   9.754
 3295W        W 7359   6.244  10.103   0.008
 3296W        W 7360   9.521   1.938   0.981
 3297W        W 7361   0.857   6.522   1.390
 3298W        W 7362  10.375   2.412  10.869
 3299W        W 7363   6.962  10.379   2.211
 3300W        W 7364   1.902   2.365   1.910
 3301W        W 7365   1.956   4.607   9.924
 3302W        W 7366   5.164   9.457   3.182
 3303W        W 7367   5.479   0.878   3.572
 3304W        W 7368   8.947   3.247   9.834
 3305W        W 7369  10.192   4.911   0.213
 3306W        W 7370   3.879   7.783   2.729
 3307W        W 7371   3.835   8.230   0.438
 3308W        W 7372   8.688   9.948   9.286
 3309W        W 7373   4.606   6.862   1.414
 3310W        W 7374   3.802   5.946  10.516
 3311W        W 7375   9.275   4.430  11.016
 3312W        W 7376   8.417   7.570   9.899
 3313W        W 7377   9.867   4.607   1.288
 3314W        W 7378   9.374   7.636   1.247
 3315W        W 7379   3.164   4.014   0.877
 3316W        W 7380   2.899   4.389   0.539
 3317W        W 7381   0.481   2.800  11.125
 3318W        W 7382   8.812   2.588  11.586
 3319W        W 7383   8.167   6.023   0.194
 3320W        W 7384   3.408   0.283  11.690
 3321W        W 7385   6.462   7.951   1.254
 3322W        W 7386   0.800   3.510   1.528
 3323W        W 7387   9.516   6.650  11.173
 3324W        W 7388   6.494   5.678   0.643
 3325W        W 7389   7.458   9.805   0.029
 3326W        W 7390   4.291   0.851   2.032
 3327W        W 7391   3.677   2.296  11.029
 3328W        W 7392   7.811   4.831   0.644
 3329W        W 7393  10.380   1.387   0.820
 3330W        W 7394   4.609   3.203   1.294
 3331W        W 7395   8.028   0.814   8.687
 3332W        W 7396   2.117   1.780   3.455
 3333W        W 7397   5.973   4.047  10.876
 3334W        W 7398   4.090   8.437   8.696
 3335W        W 7399   8.783   4.307  11.891
 3336W        W 7400   6.007   5.113   8.759
 3337W        W 7401   1.524   9.465   2.631
 3338W        W 7402   2.211   8.930   2.799
 3339W        W 7403   8.035   8.400  10.236
 3340W        W 7404   1.091   0.578   3.394
 3341W        W 7405   7.317   4.012   9.993
 3342W        W 7406   1.779   2.131   3.211
 3343W        W 7407   0.921   5.289   9.288
 3344W        W 7408   8.138   5.064   1.632
 3345W        W 7409   2.503   9.869   3.301
 3346W        W 7410   5.449   4.828  11.826
 3347W        W 7411  10.340   9.809   3.379
 3348W        W 7412  10.452   6.134   1.505
 3349W        W 7413   4.271   7.496   2.539
 3350W        W 7414   6.621   9.755   2.134
 3351W        W 7415  10.410   1.429  11.897
 3352W        W 7416   8.957   7.041   1.686
 3353W        W 7417   0.249   9.456   1.465
 3354W        W 7418   7.880   3.573   2.160
 3355W        W 7419   2.970   5.119  11.985
 3356W        W 7420   5.526   6.549   8.893
 3357W        W 7421   6.057   2.244   8.757
 3358W        W 7422   3.851   7.122   8.620
 3359W        W 7423   3.820   8.905  10.753
 3360W        W 7424   8.107   8.959   0.881
 3361W        W 7425   5.207   2.668  10.096
 3362W        W 7426   0.987   9.483  10.571
 3363W        W 7427   3.143   1.371  11.802
 3364W        W 7428   7.475   5.589   8.107
 3365W        W 7429   6.716  10.471  10.150
 3366W        W 7430   6.695   5.085   2.271
 3367W        W 7431   0.324   0.268   2.509
 3368W        W 7432   6.893   9.428  11.048
 3369W        W 7433   5.986   8.995   2.232
 3370W        W 7434  10.102   4.282   9.347
 3371W        W 7435   9.265   6.396   2.774
 3372W        W 7436   7.148   1.869  10.466
 3373W        W 7437   5.951   5.119  11.032
 3374W        W 7438   2.684   5.518   1.221
 3375W        W 7439   6.936   2.508  11.039
 3376W        W 7440   9.537   1.153   1.775
 3377W        W 7441   1.763   0.330  10.865
 3378W        W 7442   4.955  10.071  11.592
 3379W        W 7443   6.464   3.103   9.809
 3380W        W 7444   1.197   3.954   0.576
 3381W        W 7445   0.450   6.254   1.129
 3382W        W 7446   5.151   5.736   0.745
 3383W        W 7447   2.609   8.649  10.502
 3384W        W 7448   9.570   9.604   2.966
 3385W        W 7449   1.326   7.039  11.943
 3386W        W 7450   2.220   8.159   8.774
 3387W        W 7451   6.443   8.877   1.963
 3388W        W 7452   9.362   8.661   0.548
 3389W        W 7453  10.314   5.022   2.853
 3390W        W 7454   4.808   7.768   3.162
 3391W        W 7455   7.563   8.071  11.434
 3392W        W 7456   4.714   7.065  11.960
 3393W        W 7457   3.350   2.173   0.137
 3394W        W 7458   4.659   9.408   2.455
 3395W        W 7459   4.980   9.059   0.899
 3396W        W 7460   1.126  10.484   1.840
 3397W        W 7461   6.322   9.296  11.795
 3398W        W 7462   4.527   0.865   8.137
 3399W        W 7463   8.095   6.724  11.039
 3400W        W 7464  10.378   2.345   3.540
 3401W        W 7465   8.746   8.095   8.796
 3402W        W 7466   4.674   3.635  10.619
 3403W        W 7467   7.217   4.730   9.009
 3404W        W 7468   4.144   8.143   1.148
 3405W        W 7469   3.527   5.601   1.460
 3406W        W 7470   8.517   2.216   2.780
 3407W        W 7471  10.384   1.795   3.428
 3408W        W 7472   6.515   6.120  10.440
 3409W        W 7473   8.965   2.327   3.368
 3410W        W 7474   4.252   4.922   0.491
 3411W        W 7475   5.059   7.579  11.533
 3412W        W 7476   8.871   0.628  11.258
 3413W        W 7477   5.133   0.469   3.555
 3414W        W 7478   2.042   8.869   9.319
 3415W        W 7479   5.594   1.411   2.525
 3416W        W 7480   5.057   4.310   1.689
 3417W        W 7481   7.084  10.286   3.643
 3418W        W 7482   9.396   4.539  11.650
 3419W        W 7483   4.603   1.504   1.014
 3420W        W 7484   6.596  10.375  10.621
 3421W        W 7485   6.490   3.535   9.485
 3422W        W 7486   6.100   5.123   0.410
 3423W        W 7487   2.878   1.207   3.539
 3424W        W 7488   4.460   8.611  10.305
 3425W        W 7489   3.459   1.880   3.376
 3426W        W 7490   5.734   5.562   3.176
 3427W        W 7491   7.045   7.378  11.157
 3428W        W 7492   7.394   3.382   0.275
 3429W        W 7493   3.667   5.979   1.131
 3430W        W 7494   6.255   6.418   8.565
 3431W        W 7495   5.384   1.729   2.156
 3432W        W 7496   4.754   2.189   2.265
 3433W        W 7497   1.072   7.887   0.772
 3434W        W 7498   7.140   8.450   2.276
 3435W        W 7499   5.971   5.606   1.743
 3436W        W 7500   7.980   0.986   3.330
 3437W        W 7501   5.444   4.312   8.949
 3438W        W 7502   7.705   6.372   1.392
 3439W        W 7503   6.015   6.021   3.266
 3440W        W 7504  10.173   3.182  11.453
 3441W        W 7505   9.892   7.039   1.280
 3442W        W 7506   8.052   6.694  10.035
 3443W        W 7507   9.832   1.880  11.418
 3444W        W 7508   6.402   5.128  11.985
 3445W        W 7509   9.414   5.430  11.770
 3446W        W 7510   4.056   0.436   2.768
 3447W        W 7511  10.300   4.427   0.191
 3448W        W 7512   1.799   2.145   9.296
 3449W        W 7513   0.261   0.410  11.711
 3450W        W 7514   1.306   1.382   0.998
 3451W        W 7515  10.339   5.203  10.914
 3452W        W 7516   4.372   2.592   1.151
 3453W        W 7517   1.754   8.436  10.018
 3454W        W 7518   4.803   4.515   0.991
 3455W        W 7519   1.257   6.763  11.527
 3456W        W 7520   3.226   7.399   3.154
 3457W        W 7521   1.252   1.396  10.560
 3458W        W 7522   1.418  10.375  10.821
 3459W        W 7523   0.429   3.778   0.396
 3460W        W 7524   3.819   7.985   8.533
 3461W        W 7525   2.511   1.228  11.391
 3462W        W 7526   5.124   4.600   2.114
 3463W        W 7527   2.859   9.340   0.288
 3464W        W 7528   3.914   1.877  11.239
 3465W        W 7529   9.369   4.674   8.759
 3466W        W 7530   2.878   8.452   9.337
 3467W        W 7531  10.277   5.197   1.233
 3468W        W 7532   6.075   0.933  11.446
 3469W        W 7533  10.371   7.718  10.859
 3470W        W 7534   3.204   0.345  10.287
 3471W        W 7535   4.725   0.460   0.502
 3472W        W 7536   6.908   5.698  10.095
 3473W        W 7537   7.212   9.032  11.699
 3474W        W 7538   6.517   7.795   1.739
 3475W        W 7539   1.588   9.436   9.632
 3476W        W 7540   4.295   6.061   2.438
 3477W        W 7541   8.472   6.934   2.552
 3478W        W 7542   5.187   0.348   0.718
 3479W        W 7543   8.512   0.412   9.944
 3480W        W 7544   1.425   7.242  11.437
 3481W        W 7545   9.964   7.003   9.058
 3482W        W 7546   7.120   7.359   8.649
 3483W        W 7547   4.132   9.344   8.785
 3484W        W 7548   2.602   6.659   1.838
 3485W        W 7549   6.194   2.316  11.776
 3486W        W 7550   5.011   3.343   1.790
 3487W        W 7551   9.325   6.628   0.477
 3488W        W 7552   8.864   2.833   1.921
 3489W        W 7553  10.268   7.437   8.988
 3490W        W 7554   4.905   6.363   8.214
 3491W        W 7555   9.767   5.676   2.702
 3492W        W 7556   7.928   1.457   3.120
 3493W        W 7557   5.552   6.089   8.649
 3494W        W 7558   0.275   8.116   9.819
 3495W        W 7559   1.006   2.692   1.895
 3496W        W 7560   8.399   8.543   1.812
 3497W        W 7561   6.768   6.444   8.445
 3498W        W 7562   1.062   2.615   1.386
 3499W        W 7563   7.414   0.015  11.387
 3500W        W 7564   9.551   2.026  10.815
 3501W        W 7565   8.351   5.182  10.012
 3502W        W 7566   2.076   7.389  10.576
 3503W        W 7567   0.256   2.723  10.661
 3504W        W 7568   5.743   3.878   0.090
 3505W        W 7569   2.818   7.853   0.450
 3506W        W 7570   7.490   0.490   8.976
 3507W        W 7571   3.226   1.487   3.161
 3508W        W 7572   2.395   0.632  11.847
 3509W        W 7573   4.693   6.371  10.269
 3510W        W 7574   2.138  10.368   1.877
 3511W        W 7575   3.340   5.061   8.771
 3512W        W 7576   9.131   8.378   2.908
 3513W        W 7577   8.434   7.418   9.410
 3514W        W 7578   4.270   0.787   8.959
 3515W        W 7579  10.456   9.788   9.328
 3516W        W 7580   1.386   8.913   9.941
 3517W        W 7581   7.404   3.540   1.921
 3518W        W 7582   1.667   5.728   9.221
 3519W        W 7583   5.636   2.193   0.927
 3520W        W 7584   6.839   9.118   0.611
 3521W        W 7585   6.067   7.475   0.796
 3522W        W 7586   4.193   2.226   0.452
 3523W        W 7587   5.153   5.157  10.559
 3524W        W 7588   9.660  10.397   1.404
 3525W        W 7589   4.036   1.202   9.125
 3526W        W 7590   0.497   1.831   9.143
 3527W        W 7591   3.010   7.361   8.891
 3528W        W 7592   1.454   7.554   1.878
 3529W        W 7593   6.421   4.012   8.134
 3530W        W 7594   7.682   5.871   1.448
 3531W        W 7595   6.895   2.183   0.522
 3532W        W 7596   8.415   4.663   1.477
 3533W        W 7597   9.003   3.636   0.677
 3534W        W 7598   3.297   6.967  11.292
 3535W        W 7599   7.403   7.060  11.329
 3536W        W 7600   5.544   1.253   2.033
 3537W        W 7601  10.410   8.733   2.232
 3538W        W 7602  10.259   1.523  10.705
 3539W        W 7603   0.334   8.860   1.192
 3540W        W 7604   2.875   1.166   1.985
 3541W        W 7605   2.663   3.598   1.629
 3542W        W 7606   3.151   5.769   1.137
 3543W        W 7607   8.452   8.435   0.234
 3544W        W 7608   0.343   0.516  11.181
 3545W        W 7609   9.853   3.715   2.688
 3546W        W 7610   2.360   8.634  10.969
 3547W        W 7611   0.341   6.764  11.727
 3548W        W 7612  10.393   7.048   1.391
 3549W        W 7613   4.121   6.152   3.692
 3550W        W 7614   3.827  10.396   2.693
 3551W        W 7615  10.038  10.451  11.500
 3552W        W 7616   6.019   9.076   2.737
 3553W        W 7617   0.020   9.925   0.379
 3554W        W 7618   8.580   1.891  11.196
 3555W        W 7619   9.105   6.506   0.957
 3556W        W 7620  10.449   5.671  10.120
 3557W        W 7621   4.527   6.433   0.697
 3558W        W 7622   8.117   4.881  11.462
 3559W        W 7623   9.541   5.025  11.476
 3560W        W 7624   9.465   3.574   0.461
 3561W        W 7625   7.587   6.027   3.442
 3562W        W 7626  10.386   1.179   9.352
 3563W        W 7627  10.473   4.780  11.790
 3564W        W 7628   5.307   9.482   3.676
 3565W        W 7629   8.365   9.890   3.131
 3566W        W 7630   5.057   9.510   9.749
 3567W        W 7631   4.686   8.386   2.564
 3568W        W 7632   5.838   4.026   9.598
 3569W        W 7633   6.435   6.205   3.528
 3570W        W 7634   8.709   8.623   2.715
 3571W        W 7635   1.695   6.534  11.545
 3572W        W 7636   5.502   7.842   1.323
 3573W        W 7637   8.857  10.398   3.512
 3574W        W 7638   0.891   3.191   1.934
 3575W        W 7639   2.847  10.290   3.172
 3576W        W 7640  10.338   9.077   2.788
 3577W        W 7641   4.240   3.181   0.366
 3578W        W 7642   5.443   9.888  11.525
 3579W        W 7643   9.831   0.473   8.701
 3580W        W 7644   6.891   0.087   0.260
 3581W        W 7645   3.733   4.621   3.406
 3582W        W 7646   8.564   6.890   9.371
 3583W        W 7647   7.463   6.055   8.881
 3584W        W 7648   8.817   0.063   0.428
 3585W        W 7649   4.439   5.962   3.326
 3586W        W 7650   2.061   5.222  11.199
 3587W        W 7651   7.691   4.095   1.407
 3588W        W 7652   1.614   1.291   1.427
 3589W        W 7653   7.640   8.509   2.373
 3590W        W 7654   6.900   5.112   8.835
 3591W        W 7655   1.813   6.034   1.256
 3592W        W 7656   0.971   2.836  11.103
 3593W        W 7657   5.910   5.137   2.915
 3594W        W 7658   5.525  10.330   8.905
 3595W        W 7659   2.201   3.344  10.213
 3596W        W 7660   9.750   0.310   2.904
 3597W        W 7661   6.101   8.526   2.449
 3598W        W 7662   2.217   1.821   2.962
 3599W        W 7663   6.025   7.954   9.575
 3600W        W 7664   7.616   3.111   2.262
 3601W        W 7665   7.407   9.936   3.436
 3602W        W 7666   4.488   3.617   0.528
 3603W        W 7667   3.844   6.686  10.935
 3604W        W 7668   6.951   1.244   2.696
 3605W        W 7669   1.459   8.322  10.814
 3606W        W 7670   8.266   9.947  11.404
 3607W        W 7671  10.412   0.267  11.376
 3608W        W 7672   9.353   9.159   9.063
 3609W        W 7673   6.446   2.607   9.544
 3610W        W 7674   3.560   1.286   8.943
 3611W        W 7675   5.964   9.017   0.683
 3612W        W 7676   9.315   9.886  11.310
 3613W        W 7677   4.145   6.673   3.725
 3614W        W 7678   4.598   9.102   8.681
 3615W        W 7679   0.136   1.899   2.640
 3616W        W 7680   7.180   9.722   8.829
 3617W        W 7681   6.684   4.431  11.225
 3618W        W 7682   0.921   6.579  10.560
 3619W        W 7683   8.996   4.273  11.425
 3620W        W 7684   6.539   7.678   0.843
 3621W        W 7685   9.734   2.662   2.450
 3622W        W 7686   8.097  10.423   2.762
 3623W        W 7687  10.019  10.494   8.426
 3624W        W 7688   6.400   9.304   2.293
 3625W        W 7689   4.126   4.276   8.537
 3626W        W 7690   1.144   6.431   2.078
 3627W        W 7691   1.998   8.965   1.352
 3628W        W 7692   4.253   7.016   8.922
 3629W        W 7693   2.110   0.782   1.903
 3630W        W 7694  10.038   0.796   9.086
 3631W        W 7695   6.991   5.082   3.480
 3632W        W 7696   5.236   5.286   0.960
 3633W        W 7697   8.781   9.967  11.288
 3634W        W 7698   8.583   5.683  10.020
 3635W        W 7699   4.726   0.828   9.174
 3636W        W 7700   4.284   9.485   0.374
 3637W        W 7701   0.357   9.491   9.094
 3638W        W 7702   5.681   8.307   1.693
 3639W        W 7703   7.036   4.514   2.879
 3640W        W 7704   4.707   8.104   8.986
 3641W        W 7705   2.114   5.575   1.822
 3642W        W 7706  10.301   3.602   2.466
 3643W        W 7707   5.561   2.258  10.981
 3644W        W 7708   7.514   5.600   8.622
 3645W        W 7709   5.123   3.535   2.285
 3646W        W 7710   0.688   9.427  11.989
 3647W        W 7711   0.908   6.013   8.764
 3648W        W 7712   7.331   8.929   2.439
 3649W        W 7713   3.738   7.964   0.890
 3650W        W 7714   1.776   3.392   2.178
 3651W        W 7715   0.818   0.751   0.498
 3652W        W 7716   6.935   3.455   1.286
 3653W        W 7717   3.840   3.205   0.026
 3654W        W 7718   8.034   7.934   9.458
 3655W        W 7719   4.314   0.148  10.452
 3656W        W 7720   0.953   4.687  11.233
 3657W        W 7721   5.328   6.628   8.032
 3658W        W 7722   3.729   4.848   0.410
 3659W        W 7723   2.865   5.948   1.553
 3660W        W 7724   7.185   8.087   0.295
 3661W        W 7725   3.165   1.382   0.692
 3662W        W 7726   5.021   6.676  11.824
 3663W        W 7727   8.018   1.235   1.393
 3664W        W 7728   7.081   3.588   2.801
 3665W        W 7729   1.185   9.843  10.252
 3666W        W 7730   5.086   0.875   0.467
 3667W        W 7731  10.460   6.658  10.057
 3668W        W 7732   6.076   5.976   0.836
 3669W        W 7733   7.139   0.468   1.532
 3670W        W 7734   4.291  10.420   3.154
 3671W        W 7735   4.030   1.772   0.708
 3672W        W 7736   0.460   9.510  11.502
 3673W        W 7737   6.056   3.642   8.874
 3674W        W 7738   0.517   2.815   1.937
 3675W        W 7739   8.879   7.125  10.692
 3676W        W 7740   9.075   2.165   1.131
 3677W        W 7741   6.829   8.061   2.040
 3678W        W 7742   5.719   7.566  10.934
 3679W        W 7743   0.755   0.526  10.849
 3680W        W 7744   5.558   6.915  11.500
 3681W        W 7745   1.965   9.536   3.307
 3682W        W 7746   5.039   8.779   1.913
 3683W        W 7747   2.263   3.308   1.350
 3684W        W 7748   0.702   0.406   2.810
 3685W        W 7749   1.224   6.929   3.508
 3686W        W 7750   5.216   4.102   3.873
 3687W        W 7751   6.277   3.289   1.787
 3688W        W 7752   8.823   7.628   0.449
 3689W        W 7753   5.879   3.020   3.154
 3690W        W 7754   3.088   9.912   1.400
 3691W        W 7755  10.455   8.401   9.534
 3692W        W 7756   7.457   8.153   8.925
 3693W        W 7757   5.937   4.912  11.930
 3694W        W 7758   1.901   3.445   2.809
 3695W        W 7759   0.817   8.403   2.996
 3696W        W 7760   0.066   7.693  11.686
 3697W        W 7761   4.089   3.381   8.903
 3698W        W 7762   8.391   4.573   9.410
 3699W        W 7763   4.560   2.146   9.353
 3700W        W 7764   2.610   4.292  11.021
 3701W        W 7765   2.857   6.667  10.016
 3702W        W 7766   4.985   2.811   9.082
 3703W        W 7767   8.890   4.716   3.605
 3704W        W 7768   3.274  10.150   0.965
 3705W        W 7769   1.873   2.837   0.358
 3706W        W 7770   7.410  10.163  10.988
 3707W        W 7771  10.107   7.831   0.880
 3708W        W 7772   1.483   4.127  11.366
 3709W        W 7773   6.839   5.594   2.380
 3710W        W 7774   9.483   6.316   0.122
 3711W        W 7775   2.373   1.276   3.570
 3712W        W 7776   2.260   2.223  10.034
 3713W        W 7777   8.552   4.558  11.476
 3714W        W 7778   8.504   8.081   9.257
 3715W        W 7779   5.029   6.205   8.687
 3716W        W 7780   5.164  10.045   2.485
 3717W        W 7781   1.099   4.239   3.615
 3718W        W 7782   7.491   1.644   2.819
 3719W        W 7783   7.448   4.769   2.673
 3720W        W 7784   0.678   0.872   9.847
 3721W        W 7785   5.066   2.444  11.028
 3722W        W 7786   7.578   2.187   0.235
 3723W        W 7787   1.393   2.418   0.425
 3724W        W 7788   1.226   8.478   9.764
 3725W        W 7789   8.174   0.964  10.037
 3726W        W 7790   5.968   8.651  10.456
 3727W        W 7791   8.909   8.475   0.445
 3728W        W 7792   3.193   2.215   3.635
 3729W        W 7793   0.943   6.052  11.885
 3730W        W 7794  10.120   7.943  11.574
 3731W        W 7795   5.637   3.889   8.637
 3732W        W 7796   6.939   7.547   2.694
 3733W        W 7797   6.833   5.142  11.737
 3734W        W 7798   9.828   6.483   0.450
 3735W        W 7799   0.952   2.620  10.251
 3736W        W 7800   3.608   0.296   2.960
 3737W        W 7801   8.639   9.720   1.142
 3738W        W 7802   6.079   6.002   3.826
 3739W        W 7803   6.680   7.590   2.205
 3740W        W 7804   5.302   4.059   9.442
 3741W        W 7805   9.488   2.271   0.278
 3742W        W 7806   0.484   7.690   0.976
 3743W        W 7807   6.999   1.756   2.742
 3744W        W 7808   8.200   0.099  10.654
 3745W        W 7809   3.743   1.375  10.929
 3746W        W 7810   7.814   3.596   0.027
 3747W        W 7811   4.135   0.853   3.061
 3748W        W 7812   3.606   5.528   9.328
 3749W        W 7813   2.696   6.606   9.026
 3750W        W 7814   8.910   2.988   1.408
 3751W        W 7815   5.503   2.638  10.528
 3752W        W 7816   5.188   3.063   0.226
 3753W        W 7817   4.241   1.630   9.314
 3754W        W 7818   4.280   5.154  10.527
 3755W        W 7819   1.299   7.678   3.337
 3756W        W 7820  10.194   2.965   3.081
 3757W        W 7821   5.721   7.399   9.053
 3758W        W 7822   4.774   7.905   2.700
 3759W        W 7823   3.744   4.186   9.057
 3760W        W 7824   4.789   2.873  11.912
 3761W        W 7825   4.678   5.083   2.059
 3762W        W 7826   1.382   5.306   8.651
 3763W        W 7827   3.825   3.233  11.078
 3764W        W 7828   5.594   4.124   7.977
 3765W        W 7829   1.468   3.108  10.849
 3766W        W 7830   0.039   4.266   9.116
 3767W        W 7831   2.413   8.877   9.684
 3768W        W 7832   9.892   1.361   0.988
 3769W        W 7833   3.150   1.164  10.598
 3770W        W 7834   6.789   0.431   1.142
 3771W        W 7835   7.882   7.439   0.319
 3772W        W 7836   7.928   1.863  10.558
 3773W        W 7837   1.494   7.730  11.359
 3774W        W 7838   0.012  10.295   3.105
 3775W        W 7839   4.173   1.351   2.748
 3776W        W 7840   0.967   4.953   1.683
 3777W        W 7841   5.566   5.679   0.167
 3778W        W 7842   2.767   7.438   1.264
 3779W        W 7843  10.282   1.828  10.292
 3780W        W 7844   1.516   4.475   9.686
 3781W        W 7845   8.600   8.354   1.386
 3782W        W 7846   7.817   0.453  10.566
 3783W        W 7847   5.163   3.620  10.358
 3784W        W 7848   4.981   5.483   9.963
 3785W        W 7849   1.599   5.652   0.960
 3786W        W 7850   1.940   2.899   2.063
 3787W        W 7851  10.218  10.092   2.280
 3788W        W 7852   1.818   4.101   9.896
 3789W        W 7853   6.126   5.569   3.534
 3790W        W 7854   5.566   6.971   1.466
 3791W        W 7855   7.619   5.012   1.643
 3792W        W 7856   5.677   5.579  10.293
 3793W        W 7857   1.915   4.305   2.333
 3794W        W 7858   7.682   3.758   0.504
 3795W        W 7859   3.010   9.030  10.414
 3796W        W 7860   0.042   4.626  10.813
 3797W        W 7861   3.525   9.975   2.303
 3798W        W 7862   3.286   0.422   1.647
 3799W        W 7863   9.778   7.426   8.778
 3800W        W 7864   2.493   4.780   8.914
 3801W        W 7865   0.223   1.365  10.882
 3802W        W 7866   6.938   5.435   0.513
 3803W        W 7867   0.840   9.927   1.173
 3804W        W 7868   6.410   8.854   0.451
 3805W        W 7869   7.109   7.593   9.679
 3806W        W 7870   7.452   3.197  11.278
 3807W        W 7871   9.715   1.785   1.903
 3808W        W 7872   3.076   7.957  11.088
 3809W        W 7873   0.423   7.369   2.860
 3810W        W 7874   4.476   6.409   1.206
 3811W        W 7875   4.989   3.031   9.820
 3812W        W 7876   0.910   3.940   1.255
 3813W        W 7877   2.008   9.541  10.996
 3814W        W 7878   1.129   2.197   1.790
 3815W        W 7879   7.932   2.380  10.525
 3816W        W 7880   5.710   1.607  11.755
 3817W        W 7881   5.579   1.277   3.033
 3818W        W 7882  10.226   7.671   2.236
 3819W        W 7883   9.462   5.422   2.209
 3820W        W 7884   0.877   4.125   0.201
 3821W        W 7885   0.358   7.228  10.127
 3822W        W 7886   4.710   5.046  10.812
 3823W        W 7887  10.355   3.464   9.715
 3824W        W 7888   9.309   2.693   2.158
 3825W        W 7889   4.959   6.463   2.854
 3826W        W 7890   7.422   6.569   8.931
 3827W        W 7891   8.950   5.626   9.648
 3828W        W 7892   7.339   5.218  10.485
 3829W        W 7893   8.361   4.241  10.852
 3830W        W 7894   8.201   1.810  11.567
 3831W        W 7895  10.469   7.104  11.931
 3832W        W 7896   3.281   7.209   2.314
 3833W        W 7897   6.148   0.428   3.345
 3834W        W 7898   9.365   3.368  10.513
 3835W        W 7899   0.819   0.240   9.447
 3836W        W 7900   8.308   9.871   8.941
 3837W        W 7901   5.908   0.398   2.833
 3838W        W 7902   0.355   0.206  10.766
 3839W        W 7903   9.382   9.199  11.204
 3840W        W 7904   2.041   9.396   1.932
 3841W        W 7905   0.875   6.524  10.051
 3842W        W 7906   7.031   5.634  11.031
 3843W        W 7907   2.119   5.241   3.007
 3844W        W 7908   8.661   7.219   8.983
 3845W        W 7909   4.739  10.302   2.428
 3846W        W 7910   7.594   9.964  10.104
 3847W        W 7911   2.392   8.468   3.004
 3848W        W 7912   8.741   1.998   0.352
 3849W        W 7913   0.173   5.627   0.027
 3850W        W 7914   6.423   8.943   1.423
 3851W        W 7915   9.172   5.761  10.504
 3852W        W 7916   7.801   4.122  11.996
 3853W        W 7917   2.381   6.028   1.786
 3854W        W 7918   4.176   1.865   2.815
 3855W        W 7919   5.996   6.727   4.045
 3856W        W 7920   2.114   7.147   9.870
 3857W        W 7921   3.976   7.935   2.246
 3858W        W 7922   4.680   0.866   8.641
 3859W        W 7923   7.309   9.972   1.648
 3860W        W 7924   6.995   2.198   3.026
 3861W        W 7925   1.917   3.332  11.010
 3862W        W 7926   1.197   9.772   8.784
 3863W        W 7927   7.455   3.692  11.095
 3864W        W 7928   5.950   3.477   1.404
 3865W        W 7929   2.360   3.178   2.872
 3866W        W 7930   7.390  10.484   0.321
 3867W        W 7931   7.871   6.550   2.787
 3868W        W 7932   2.886   6.950  11.858
 3869W        W 7933   4.972   4.677   0.426
 3870W        W 7934   2.386   4.790   2.707
 3871W        W 7935   0.643   0.624   2.306
 3872W        W 7936   9.965   4.526  10.465
 3873W        W 7937   7.142   0.455   3.308
 3874W        W 7938   1.659   1.622  11.803
 3875W        W 7939  10.214   0.611   1.387
 3876W        W 7940   9.388   4.658   9.775
 3877W        W 7941   2.821   7.031   0.420
 3878W        W 7942   8.417   6.499   0.857
 3879W        W 7943   1.433   4.194   3.238
 3880W        W 7944   3.613   6.472   1.693
 3881W        W 7945   1.281   0.230   9.032
 3882W        W 7946  10.260   6.721   0.316
 3883W        W 7947   6.944   3.678   0.351
 3884W        W 7948   4.403   0.093   2.667
 3885W        W 7949   7.475   8.796  10.769
 3886W        W 7950   3.389   1.030  11.032
 3887W        W 7951   4.649   2.354  10.719
 3888W        W 7952   4.936   8.472  10.449
 3889W        W 7953   9.524   8.433   3.263
 3890W        W 7954   4.708   9.400   2.942
 3891W        W 7955   6.145   4.065   8.610
 3892W        W 7956   9.226   7.977   8.947
 3893W        W 7957   8.112   8.359   9.068
 3894W        W 7958   7.138   2.262   1.496
 3895W        W 7959   3.372   0.586   9.798
 3896W        W 7960   2.308   7.808  11.565
 3897W        W 7961   0.435   5.209   0.192
 3898W        W 7962   1.952   4.569   0.885
 3899W        W 7963   2.811   5.960   0.056
 3900W        W 7964   6.179   1.902   3.484
 3901W        W 7965   2.612   2.542  10.285
 3902W        W 7966   6.682   0.313   9.371
 3903W        W 7967   2.930  10.336  10.662
 3904W        W 7968   8.664   4.284   1.248
 3905W        W 7969  10.290   4.584   8.783
 3906W        W 7970   6.728   1.250  10.522
 3907W        W 7971   7.569   5.595   3.110
 3908W        W 7972   5.294   6.149   9.113
 3909W        W 7973   2.356   6.764   1.162
 3910W        W 7974   4.730   3.293   0.213
 3911W        W 7975   6.033   7.550   1.683
 3912W        W 7976   7.030   6.463   1.780
 3913W        W 7977   9.673   3.372   8.572
 3914W        W 7978   4.155   1.254  11.827
 3915W        W 7979   7.911   7.518   2.760
 3916W        W 7980   7.823   9.914   9.090
 3917W        W 7981  10.217   3.664  11.314
 3918W        W 7982   2.651   5.063   2.317
 3919W        W 7983   1.304   1.849   9.039
 3920W        W 7984   5.079   4.631  11.037
 3921W        W 7985   9.415   6.507   1.881
 3922W        W 7986   5.162   8.541  11.097
 3923W        W 7987   3.683  10.444   2.200
 3924W        W 7988   9.415   7.196   1.502
 3925W        W 7989   7.427   2.074   0.703
 3926W        W 7990   5.175   7.678  11.055
 3927W        W 7991  10.345   0.710   9.546
 3928W        W 7992   4.066  10.377   0.879
 3929W        W 7993   7.564   3.578   9.948
 3930W        W 7994   4.692   1.719   9.067
 3931W        W 7995   0.219   8.645  11.407
 3932W        W 7996   0.893   5.705   0.297
 3933W        W 7997   7.103   6.704   2.287
 3934W        W 7998  10.084   3.727  11.806
 3935W        W 7999   5.658   0.780   2.186
 3936W        W 8000   4.277   9.086  10.541
 3937W        W 8001   1.265  10.433   9.450
 3938W        W 8002   6.971   9.955  10.761
 3939W        W 8003   7.881   4.127   2.278
 3940W        W 8004   2.666   0.710   3.412
 3941W        W 8005   1.689   8.343   1.834
 3942W        W 8006   8.998   0.878   2.855
 3943W        W 8007   6.928   9.004   2.754
 3944W        W 8008   2.629   2.777   2.718
 3945W        W 8009   4.617   3.643   1.564
 3946W        W 8010   0.467   0.777  11.983
 3947W        W 8011   0.346   5.354   9.880
 3948W        W 8012   2.309   8.993   1.742
 3949W        W 8013   3.740   8.971   1.364
 3950W        W 8014   8.477   0.322   9.398
 3951W        W 8015   7.011   0.321  11.258
 3952W        W 8016  10.393   4.922   2.374
 3953W        W 8017   4.583   6.877  10.269
 3954W        W 8018   7.208   9.007   0.271
 3955W        W 8019   6.195   4.331  11.746
 3956W        W 8020   4.154   0.871   8.488
 3957W        W 8021   1.941  10.404  10.664
 3958W        W 8022   7.977  10.495   0.377
 3959W        W 8023   4.371   5.773   8.265
 3960W        W 8024   9.905  10.328  11.977
 3961W        W 8025   6.114   2.331  11.266
 3962W        W 8026   8.930   4.750   2.135
 3963W        W 8027   5.205   6.691   8.522
 3964W        W 8028   6.945   2.342  10.548
 3965W        W 8029   1.060   9.101   0.238
 3966W        W 8030   5.473   4.682   0.339
 3967W        W 8031   6.962   7.730   0.578
 3968W        W 8032   9.989   3.198   2.586
 3969W        W 8033   2.404   2.930  11.835
 3970W        W 8034   2.638   6.090   3.508
 3971W        W 8035   9.433   9.127   2.461
 3972W        W 8036   6.854   9.051   1.154
 3973W        W 8037   2.362   7.658   1.750
 3974W        W 8038   9.510   8.318   9.236
 3975W        W 8039   3.689  10.344  10.811
 3976W        W 8040   9.764   4.284  10.911
 3977W        W 8041   6.507   1.477   2.772
 3978W        W 8042   5.672   2.374   2.346
 3979W        W 8043   1.199   9.560  11.982
 3980W        W 8044   6.289   7.452   1.252
 3981W        W 8045   5.588   7.370   2.794
 3982W        W 8046   8.203   0.181   8.507
 3983W        W 8047   1.664   0.505   2.519
 3984W        W 8048   7.421   5.184   8.918
 3985W        W 8049   2.736   3.577   9.259
 3986W        W 8050   2.730   0.278  10.894
 3987W        W 8051   5.084   2.260   9.180
 3988W        W 8052   2.343  10.299   2.983
 3989W        W 8053   4.300   1.688   1.912
 3990W        W 8054   4.338   6.608   9.701
 3991W        W 8055   0.761   8.861   9.854
 3992W        W 8056   6.922   9.882  11.264
 3993W        W 8057   7.233   1.724  11.320
 3994W        W 8058   9.324   5.638   9.289
 3995W        W 8059   6.176   3.130   3.566
 3996W        W 8060   0.755   8.537   1.984
 3997W        W 8061   9.309   1.903   8.615
 3998W        W 8062   4.767   8.870  11.272
 3999W        W 8063   5.247   9.883  10.072
 4000W        W 8064   1.358   7.964   1.528
 4001W        W 8065   1.237   2.919   0.401
 4002W        W 8066   1.756   5.967  10.210
 4003W        W 8067   9.399   0.692   1.989
 4004W        W 8068   2.256   2.243  11.526
 4005W        W 8069   4.544   3.904  11.020
 4006W        W 8070   0.903   7.042  10.786
 4007W        W 8071   1.477   0.213   3.372
 4008W        W 8072   0.552   1.795   9.831
 4009W        W 8073   9.495   7.148   1.002
 4010W        W 8074   0.312   7.347   1.429
 4011W        W 8075   3.204   4.822   1.266
 4012W        W 8076   2.814   5.926   2.084
 4013W        W 8077   4.237   7.952   8.834
 4014W        W 8078   6.014   4.337   8.180
 4015W        W 8079   6.485   3.348   0.558
 4016W        W 8080   2.946   7.784   8.616
 4017W        W 8081   7.115   0.922  11.884
 4018W        W 8082   3.192   0.245   9.423
 4019W        W 8083   2.670   9.942   2.801
 4020W        W 8084   8.698   8.034   3.237
 4021W        W 8085   6.944   9.512   2.973
 4022W        W 8086   6.057   7.118   2.003
 4023W        W 8087   6.535   7.413   3.118
 4024W        W 8088   1.168   0.748   2.213
 4025W        W 8089   4.545   9.773  11.780
 4026W        W 8090   0.020   4.629  10.288
 4027W        W 8091  10.420   7.587   1.225
 4028W        W 8092   2.656   4.318  11.539
 4029W        W 8093   5.200   1.723   9.864
 4030W        W 8094   4.550   0.397   9.446
 4031W        W 8095   5.132   1.186   2.333
 4032W        W 8096   6.127   7.274  10.803
 4033W        W 8097   0.382   0.677   1.853
 4034W        W 8098   5.745   5.173   1.632
 4035W        W 8099   4.937   0.433   8.632
 4036W        W 8100   7.990   9.379   0.582
 4037W        W 8101   4.231   5.663  10.478
 4038W        W 8102   9.728   8.920  10.476
 4039W        W 8103   4.285   6.200  10.532
 4040W        W 8104   8.601   8.942   3.571
 4041W        W 8105   0.739   3.588  10.278
 4042W        W 8106   2.283   7.689   1.242
 4043W        W 8107   1.000   8.764   9.411
 4044W        W 8108   4.608   4.056   8.789
 4045W        W 8109   3.349   3.820   1.339
 4046W        W 8110   7.534   2.761   1.463
 4047W        W 8111   9.576   5.559  10.264
 4048W        W 8112   3.162   6.480   2.915
 4049W        W 8113   9.531   9.366  10.073
 4050W        W 8114   2.563   7.627   8.965
 4051W        W 8115   7.509   3.636  11.605
 4052W        W 8116  10.360   5.707   1.216
 4053W        W 8117   4.615   4.689   3.485
 4054W        W 8118   2.769   1.311  10.929
 4055W        W 8119   7.869   0.266   1.607
 4056W        W 8120   1.544   5.652  10.545
 4057W        W 8121   7.535   7.059   0.171
 4058W        W 8122   0.395   9.038  10.874
 4059W        W 8123   2.864   7.503  11.169
 4060W        W 8124   6.574   9.449   1.320
 4061W        W 8125   5.635  10.425   1.927
 4062W        W 8126   7.420   5.318   9.535
 4063W        W 8127   8.042   2.258   1.400
 4064W        W 8128   6.030   3.692   9.946
 4065W        W 8129   5.825   7.473   0.339
 4066W        W 8130   3.399   7.939   1.913
 4067W        W 8131   5.726   6.898   9.200
 4068W        W 8132   6.060   9.080  10.855
 4069W        W 8133   8.502   6.418   2.127
 4070W        W 8134   0.350   8.560   1.692
 4071W        W 8135   6.903   5.028   2.755
 4072W        W 8136   4.133   3.892   8.891
 4073W        W 8137   9.033   4.018   1.512
 4074W        W 8138   4.827   6.858   8.085
 4075W        W 8139   6.125   1.396  11.246
 4076W        W 8140   7.912   9.064   2.944
 4077W        W 8141   3.264   7.117   0.745
 4078W        W 8142   4.963   0.403  10.780
 4079W        W 8143   4.061   3.955   1.390
 4080W        W 8144   6.537   2.960   0.257
 4081W        W 8145   2.248   3.565   3.190
 4082W        W 8146   1.694   7.177   0.573
 4083W        W 8147   6.040   3.144  11.111
 4084W        W 8148   4.679   3.785   3.016
 4085W        W 8149  10.288   4.043   2.810
 4086W        W 8150   8.011   3.749   3.271
 4087W        W 8151   8.454   0.753   3.305
 4088W        W 8152   8.375   1.734   3.045
 4089W        W 8153   1.362   6.466  10.812
 4090W        W 8154   4.052   5.594   1.630
 4091W        W 8155   3.261   2.384   3.171
 4092W        W 8156   2.669   9.293   9.853
 4093W        W 8157   6.223   1.772   9.934
 4094W        W 8158   0.778   4.127   1.714
 4095W        W 8159   5.534   7.039   8.712
 4096W        W 8160   6.173   8.536   0.832
 4097W        W 8161   9.180   5.955   9.997
 4098W        W 8162   3.782   3.596   1.156
 4099W        W 8163   9.066   4.646   2.646
 4100W        W 8164   9.862   0.927   1.235
 4101W        W 8165   5.021   9.496   9.247
 4102W        W 8166   2.392   2.595  10.780
 4103W        W 8167   1.384   6.584   0.891
 4104W        W 8168   2.911   8.912   9.577
 4105W        W 8169   0.920   3.828   3.329
 4106W        W 8170   4.201   1.236   1.690
 4107W        W 8171   0.679   7.345   8.879
 4108W        W 8172   5.566   3.823   1.412
 4109W        W 8173   9.053   0.338   9.976
 4110W        W 8174   0.963   3.027   2.855
 4111W        W 8175   2.968   7.183   2.721
 4112W        W 8176   3.144   3.829   9.057
 4113W        W 8177   8.343   0.341   2.966
 4114W        W 8178   9.789   9.006  11.509
 4115W        W 8179   5.031   6.691   0.768
 4116W        W 8180  10.486   2.805   1.921
 4117W        W 8181   8.646   6.655  10.791
 4118W        W 8182   4.279   9.114   2.783
 4119W        W 8183   9.967   3.063   9.320
 4120W        W 8184   7.456   9.318  10.700
 4121W        W 8185   5.981   5.289  11.507
 4122W        W 8186   9.428   4.278  10.540
 4123W        W 8187   6.704   4.302   2.308
 4124W        W 8188   3.728   9.830  10.312
 4125W        W 8189   7.311   2.206   9.253
 4126W        W 8190   9.733   0.772   0.226
 4127W        W 8191   5.069   3.732  10.997
 4128W        W 8192   0.489   8.255  10.252
 4129W        W 8193   0.794   7.906   2.762
 4130W        W 8194   5.110   3.094   3.057
 4131W        W 8195   9.928   0.291   0.724
 4132W        W 8196   7.489   6.311   0.011
 4133W        W 8197   3.572   1.109   9.849
 4134W        W 8198   8.275   4.281   9.831
 4135W        W 8199   2.257   3.264  11.466
 4136W        W 8200   4.164   6.158   8.896
 4137W        W 8201   4.604   4.656   0.098
 4138W        W 8202   7.909   1.354   8.836
 4139W        W 8203   9.535   0.873   2.738
 4140W        W 8204   6.644   2.301   1.811
 4141W        W 8205   4.767   1.872   1.393
 4142W        W 8206   5.716  10.286   3.377
 4143W        W 8207   4.350   7.422   9.434
 4144W        W 8208   5.795   3.184   1.884
 4145W        W 8209  10.416   3.284  10.602
 4146W        W 8210   5.171   9.055  10.965
 4147W        W 8211   8.619   2.877  10.976
 4148W        W 8212   5.545   0.674   1.243
 4149W        W 8213   4.201   7.754  10.305
 4150W        W 8214   2.454   5.556   8.379
 4151W        W 8215   1.335   6.076   2.436
 4152W        W 8216   4.719   4.974   0.734
 4153W        W 8217   0.288   7.977  10.625
 4154W        W 8218   7.450   6.092   0.892
 4155W        W 8219   4.611   5.156   2.632
 4156W        W 8220   5.230  10.029  10.569
 4157W        W 8221   5.753   6.235   9.869
 4158W        W 8222  10.473   1.132   2.824
 4159W        W 8223   7.493   1.058   3.448
 4160W        W 8224   5.661   9.022  10.170
 4161W        W 8225   2.705   5.717   9.058
 4162W        W 8226   3.637   1.610   9.930
 4163W        W 8227   5.704   2.387   1.397
 4164W        W 8228   3.406   5.771   9.956
 4165W        W 8229   8.023   2.926   0.680
 4166W        W 8230   3.404   6.098  11.397
 4167W        W 8231   2.451   6.495   8.590
 4168W        W 8232   2.397   1.956   1.489
 4169W        W 8233   4.563   5.568   1.818
 4170W        W 8234   6.918   2.138   9.584
 4171W        W 8235   0.364   0.025  11.353
 4172W        W 8236   8.325   6.888   2.056
 4173W        W 8237   6.449   3.373   1.316
 4174W        W 8238   9.398   6.206  10.403
 4175W        W 8239   8.995   6.823   9.050
 4176W        W 8240   2.430   2.886   1.661
 4177W        W 8241   0.742   8.336   9.814
 4178W        W 8242   1.974   8.439   2.675
 4179W        W 8243   2.730   9.235   8.829
 4180W        W 8244   8.891   9.116   9.565
 4181W        W 8245   6.012   6.745  11.576
 4182W        W 8246   8.680   4.993   9.347
 4183W        W 8247   5.031   2.729   3.405
 4184W        W 8248   1.710   3.246   1.697
 4185W        W 8249   4.298   6.452  11.004
 4186W        W 8250   2.700   9.102  11.781
 4187W        W 8251   0.805   9.415   1.897
 4188W        W 8252   7.460  10.299   2.110
 4189W        W 8253   9.775   4.360   9.980
 4190W        W 8254   4.085   0.378   3.298
 4191W        W 8255   4.531   8.931   0.658
 4192W        W 8256   7.259   5.752   2.171
 4193W        W 8257   0.776   3.736  10.763
 4194W        W 8258   3.104   2.164   2.220
 4195W        W 8259  10.415   9.851   1.427
 4196W        W 8260   5.918   9.571   3.592
 4197W        W 8261   6.936   8.132  10.794
 4198W        W 8262   0.818   5.143   2.140
 4199W        W 8263   0.561   1.924   2.358
 4200W        W 8264   1.159   6.438   8.595
 4201W        W 8265   4.495   1.730   2.400
 4202W        W 8266   0.891   3.085   8.979
 4203W        W 8267   2.733   6.479   0.843
 4204W        W 8268   0.491   7.728  11.395
 4205W        W 8269   3.712   0.425   1.956
 4206W        W 8270   0.842   1.794  11.398
 4207W        W 8271   4.951   4.246   9.113
 4208W        W 8272   7.737   0.761   1.798
 4209W        W 8273   5.484   6.667   3.567
 4210W        W 8274   1.265   6.068   9.923
 4211W        W 8275   9.998   4.031   0.215
 4212W        W 8276   8.391   1.300   3.375
 4213W        W 8277  10.241   5.500   2.711
 4214W        W 8278   5.768   7.101  10.044
 4215W        W 8279   7.465   2.699   1.970
 4216W        W 8280   9.188  10.294   9.871
 4217W        W 8281   0.315   5.446  11.059
 4218W        W 8282   4.786   7.936  10.335
 4219W        W 8283   8.857   1.457   9.180
 4220W        W 8284   1.227   4.000   1.948
 4221W        W 8285   3.730   5.830  11.722
 4222W        W 8286   6.588   8.346   2.724
 4223W        W 8287   3.257   6.958   9.057
 4224W        W 8288   1.364   2.277  11.876
 4225W        W 8289   7.832   9.540  10.418
 4226W        W 8290   6.743   4.013   9.326
 4227W        W 8291   8.391   2.607  11.908
 4228W        W 8292   8.055   9.982   0.405
 4229W        W 8293   7.591   6.599   0.488
 4230W        W 8294   8.765   9.530   2.284
 4231W        W 8295   4.566   4.225   3.238
 4232W        W 8296   6.101   8.450   9.283
 4233W        W 8297   3.729   1.297   1.901
 4234W        W 8298   0.865   6.917   9.221
 4235W        W 8299   7.869   1.812   0.049
 4236W        W 8300   6.663   6.494  11.354
 4237W        W 8301  10.409   8.252   3.107
 4238W        W 8302   9.674   3.829   8.844
 4239W        W 8303   4.219   7.413  11.273
 4240W        W 8304  10.394   9.439   0.576
 4241W        W 8305   4.672   8.913   3.108
 4242W        W 8306   3.180   3.735  10.084
 4243W        W 8307   6.062   9.578  10.988
 4244W        W 8308  10.476   9.697  11.414
 4245W        W 8309   1.461   3.644   3.062
 4246W        W 8310   7.622   1.324  10.618
 4247W        W 8311   8.364   7.087  10.803
 4248W        W 8312   4.322   5.264   8.412
 4249W        W 8313   2.306   3.911   8.783
 4250W        W 8314   4.749   6.029   1.013
 4251W        W 8315   1.896   3.057  11.895
 4252W        W 8316   3.307   7.147  10.458
 4253W        W 8317   9.333   2.826   1.676
 4254W        W 8318   3.563   2.715   2.321
 4255W        W 8319   4.704   7.023   2.457
 4256W        W 8320   6.116   2.238  10.139
 4257W        W 8321   1.808   6.005   1.766
 4258W        W 8322   7.816   9.752  11.659
 4259W        W 8323   6.673   6.159  11.958
 4260W        W 8324   9.431   9.063   1.336
 4261W        W 8325   9.434  10.499   2.656
 4262W        W 8326   1.930   9.748   0.695
 4263W        W 8327   2.075   9.948  10.413
 4264W        W 8328   0.380   2.905   0.698
 4265W        W 8329   2.171   4.516  10.852
 4266W        W 8330   3.285   4.428   3.599
 4267W        W 8331   0.034   2.833   0.336
 4268W        W 8332  10.306   8.205  10.742
 4269W        W 8333   5.235   9.475   0.772
 4270W        W 8334   4.801   2.331   1.187
 4271W        W 8335   1.711   8.478  11.769
 4272W        W 8336   3.217   7.202   1.409
 4273W        W 8337   0.261   5.278   3.575
 4274W        W 8338   8.934   6.200   8.481
 4275W        W 8339   6.957   4.074   0.675
 4276W        W 8340   1.352   7.850   0.300
 4277W        W 8341   2.854   9.839   1.875
 4278W        W 8342   2.117   6.644  11.795
 4279W        W 8343   1.921   9.438  11.494
 4280W        W 8344   5.952   4.324   9.080
 4281W        W 8345   8.011   9.709   9.911
 4282W        W 8346   8.126   8.653   2.686
 4283W        W 8347   9.374   1.703   9.844
 4284W        W 8348   3.626   3.543   2.145
 4285W        W 8349   3.564   9.538   9.910
 4286W        W 8350   1.389   3.201  11.836
 4287W        W 8351   2.198   3.730   9.823
 4288W        W 8352   3.243   8.863   3.423
 4289W        W 8353   8.379   5.267  10.981
 4290W        W 8354   3.250   0.699   2.961
 4291W        W 8355   3.794   4.621   8.308
 4292W        W 8356  10.236   5.988   2.894
 4293W        W 8357   6.546   4.869   1.282
 4294W        W 8358   3.729   4.562   1.941
 4295W        W 8359   2.583   2.049   8.834
 4296W        W 8360   4.395  10.100  10.444
 4297W        W 8361   7.076   2.302  10.052
 4298W        W 8362   9.567   2.982  10.827
 4299W        W 8363   1.688   7.573   9.057
 4300W        W 8364   6.620   6.242   4.005
 4301W        W 8365   1.796   7.051  11.747
 4302W        W 8366   0.020  10.225   9.604
 4303W        W 8367   0.263   3.116   1.188
 4304W        W 8368   9.486   5.653   0.715
 4305W        W 8369   9.019   5.016   8.951
 4306W        W 8370   8.543   6.623   1.670
 4307W        W 8371   0.869   4.770  10.731
 4308W        W 8372   2.337   4.779  11.242
 4309W        W 8373   3.851   8.294   9.515
 4310W        W 8374   2.083   1.010   1.287
 4311W        W 8375   6.346   9.777   9.193
 4312W        W 8376   5.071   4.226   8.613
 4313W        W 8377   6.136   2.260   1.674
 4314W        W 8378   4.685   5.878  10.498
 4315W        W 8379  10.312   2.991  11.905
 4316W        W 8380   8.429   4.257   0.254
 4317W        W 8381   7.832   9.005   2.454
 4318W        W 8382   2.853   8.515   2.775
 4319W        W 8383   3.340  10.359   2.929
 4320W        W 8384   0.016  10.480   0.766
 4321W        W 8385   2.761  10.324  11.682
 4322W        W 8386   8.181   6.570   3.224
 4323W        W 8387   0.253   6.552   9.281
 4324W        W 8388   4.159   9.259   1.418
 4325W        W 8389   3.471   0.384   8.571
 4326W        W 8390   6.550   3.673   1.982
 4327W        W 8391   8.953  10.200   0.069
 4328W        W 8392   0.369   8.950   2.132
 4329W        W 8393   1.331   1.296   0.032
 4330W        W 8394   8.863  10.026   3.024
 4331W        W 8395   0.560   0.981  11.034
 4332W        W 8396   5.949   6.452   3.600
 4333W        W 8397   6.164   0.964  10.940
 4334W        W 8398   7.879   0.835   0.356
 4335W        W 8399   9.576   7.359  11.893
 4336W        W 8400   2.344   1.122   8.972
 4337W        W 8401   2.037   9.820  11.820
 4338W        W 8402   3.359   7.475  11.232
 4339W        W 8403   0.051   2.667   1.041
 4340W        W 8404   2.749   2.194  11.369
 4341W        W 8405   5.229   9.994   0.008
 4342W        W 8406   6.505   8.370   1.745
 4343W        W 8407   4.727   5.511  11.817
 4344W        W 8408   1.685   7.918   9.883
 4345W        W 8409   1.304   2.756   2.610
 4346W        W 8410  10.175   7.255   0.931
 4347W        W 8411   6.545  10.277   9.386
 4348W        W 8412   4.129   8.509   9.883
 4349W        W 8413   5.973  10.499  11.755
 4350W        W 8414   0.115   5.334   0.874
 4351W        W 8415  10.264   6.559   9.071
 4352W        W 8416   8.117   4.103   9.367
 4353W        W 8417   3.356   2.393  10.421
 4354W        W 8418   7.689   5.254  11.393
 4355W        W 8419   6.622   6.911   0.364
 4356W        W 8420   6.126   1.863   0.059
 4357W        W 8421   9.297   0.282   1.300
 4358W        W 8422   5.921   5.759   9.881
 4359W        W 8423   9.035   5.645   2.391
 4360W        W 8424   9.536   0.020   0.921
 4361W        W 8425   0.477   6.083   9.360
 4362W        W 8426   7.506   6.149   2.950
 4363W        W 8427   6.098   6.112   9.496
 4364W        W 8428   6.701   3.049   9.363
 4365W        W 8429   0.795   9.038   2.678
 4366W        W 8430   4.931   2.658   1.971
 4367W        W 8431   3.071   0.216  11.311
 4368W        W 8432   4.234   1.064  10.478
 4369W        W 8433  10.396   6.970   8.743
 4370W        W 8434   3.743   3.315   3.036
 4371W        W 8435   7.598   3.975   4.350
 4372W        W 8436   9.336   6.156  11.367
 4373W        W 8437   2.681   7.418  11.657
 4374W        W 8438   0.528   7.738  11.923
 4375W        W 8439   7.152   4.964   1.902
 4376W        W 8440   0.331   5.025   2.638
 4377W        W 8441   4.161   6.265   2.878
 4378W        W 8442   3.606   3.750  10.358
 4379W        W 8443   5.560   1.663   0.924
 4380W        W 8444   3.753   0.783   8.883
 4381W        W 8445   7.539   1.344  11.119
 4382W        W 8446   2.740   9.749   8.994
 4383W        W 8447   4.711  10.047   0.797
 4384W        W 8448   6.614   8.478   2.233
 4385W        W 8449   5.051   4.006   9.883
 4386W        W 8450   6.912   0.767   9.603
 4387W        W 8451   2.119   6.892   1.914
 4388W        W 8452   8.812   2.910   0.006
 4389W        W 8453   5.089   6.677   2.329
 4390W        W 8454   0.780   2.244   1.144
 4391W        W 8455   8.994   8.850   0.841
 4392W        W 8456   9.899   8.234   2.874
 4393W        W 8457   3.323   7.589  10.221
 4394W        W 8458   4.902   6.213  11.541
 4395W        W 8459   7.052   5.382   0.992
 4396W        W 8460   7.924   6.291   0.919
 4397W        W 8461   8.337   5.938  11.366
 4398W        W 8462   6.326   2.705  10.923
 4399W        W 8463   8.336   6.406   2.608
 4400W        W 8464  10.012   6.165  10.972
 4401W        W 8465   2.121   8.531   2.126
 4402W        W 8466   8.947   2.639   1.004
 4403W        W 8467   9.466   5.515   1.699
 4404W        W 8468   4.091   8.901   0.991
 4405W        W 8469   2.611   9.983  10.433
 4406W        W 8470   5.090   9.561   1.288
 4407W        W 8471   7.127   7.477   9.167
 4408W        W 8472  10.132   6.662  10.966
 4409W        W 8473   4.129   3.761  11.796
 4410W        W 8474   9.918   2.958   8.793
 4411W        W 8475   2.894   9.895  11.421
 4412W        W 8476   5.526   0.743   0.727
 4413W        W 8477   0.228   7.105   3.348
 4414W        W 8478   5.599  10.379   9.418
 4415W        W 8479   7.922   3.299   9.699
 4416W        W 8480   7.404   1.400   8.640
 4417W        W 8481   5.458   5.524   1.864
 4418W        W 8482   9.542   4.482   2.602
 4419W        W 8483   9.948   4.064   1.963
 4420W        W 8484   9.271   8.879  10.817
 4421W        W 8485   5.985   3.534   9.379
 4422W        W 8486   2.853   8.318   0.274
 4423W        W 8487   1.464   4.706   0.878
 4424W        W 8488   9.744   8.852  11.018
 4425W        W 8489   9.819   5.191   0.977
 4426W        W 8490   1.458   6.165   9.428
 4427W        W 8491   7.972   6.136   9.495
 4428W        W 8492   5.198   0.286  10.317
 4429W        W 8493   4.986   3.756   0.512
 4430W        W 8494   2.703   1.189  10.332
 4431W        W 8495   8.541   1.685   2.554
 4432W        W 8496   4.576   3.843  11.531
 4433W        W 8497   5.206   9.990   9.581
 4434W        W 8498   1.401   6.677   3.049
 4435W        W 8499   0.400   8.254   2.742
 4436W        W 8500   6.094   4.268   2.631
 4437W        W 8501   8.063   0.208  10.154
 4438W        W 8502   3.510   9.931   3.187
 4439W        W 8503   5.449   8.565  10.368
 4440W        W 8504   9.452   7.253   0.376
 4441W        W 8505   2.372   7.091   2.525
 4442W        W 8506   2.813   1.769   9.481
 4443W        W 8507   2.360   7.771  10.445
 4444W        W 8508   6.117   4.176   0.254
 4445W        W 8509   4.305   8.064   2.822
 4446W        W 8510   2.694   4.603   9.330
 4447W        W 8511  10.367   8.424   1.795
 4448W        W 8512   1.818   0.322   8.894
 4449W        W 8513   2.233   4.140  11.306
 4450W        W 8514   4.794   6.057   0.002
 4451W        W 8515   6.024   0.844   2.542
 4452W        W 8516   4.674   9.019   9.193
 4453W        W 8517   8.509   1.075   1.427
 4454W        W 8518   8.360   2.667   2.528
 4455W        W 8519   4.673  10.349   1.929
 4456W        W 8520   9.058   0.707  10.792
 4457W        W 8521   0.659   8.547   3.496
 4458W        W 8522   6.119   1.670   1.467
 4459W        W 8523   5.199   8.113   2.868
 4460W        W 8524   0.226   1.675   1.686
 4461W        W 8525   7.396   7.120  10.485
 4462W        W 8526   8.363   5.258   3.038
 4463W        W 8527   6.964   5.537   3.735
 4464W        W 8528  10.300   4.196  11.750
 4465W        W 8529   0.361   7.553   1.915
 4466W        W 8530   9.917   5.527   1.418
 4467W        W 8531   5.647   3.513  11.751
 4468W        W 8532   4.062   2.394  11.373
 4469W        W 8533   6.032   4.094   0.764
 4470W        W 8534   8.005   3.563  10.666
 4471W        W 8535   3.146   0.312   2.645
 4472W        W 8536   5.758   9.156  11.778
 4473W        W 8537   2.835   0.718  10.582
 4474W        W 8538   6.692   1.395   0.457
 4475W        W 8539   7.393   5.538   9.999
 4476W        W 8540   4.177   3.447   1.435
 4477W        W 8541   3.586  10.052  11.995
 4478W        W 8542   4.261   9.621   2.733
 4479W        W 8543   5.635   6.598  10.255
 4480W        W 8544   9.381   1.510  10.771
 4481W        W 8545   8.250   3.738  10.262
 4482W        W 8546   0.692   5.491  11.394
 4483W        W 8547   0.426   1.896   0.887
 4484W        W 8548   4.156   7.055   0.708
 4485W        W 8549   4.231   0.742  11.839
 4486W        W 8550   5.289   8.552   9.363
 4487W        W 8551   1.810   2.120   9.828
 4488W        W 8552   3.320   6.120   9.571
 4489W        W 8553   7.054  10.081   0.312
 4490W        W 8554   1.671   7.713   3.698
 4491W        W 8555   8.427   3.283   9.812
 4492W        W 8556   6.564   2.135  11.480
 4493W        W 8557   1.775   6.970  10.264
 4494W        W 8558   0.358   6.036   1.996
 4495W        W 8559   5.962   7.110   9.585
 4496W        W 8560   2.669   5.129   3.328
 4497W        W 8561   1.877   0.353   1.760
 4498W        W 8562   1.694   7.970  11.924
 4499W        W 8563   6.269   8.252  10.290
 4500W        W 8564   7.071   2.213   2.506
 4501W        W 8565   6.151   8.931   9.075
 4502W        W 8566   8.884   6.170  10.390
 4503W        W 8567   6.310   2.762   3.234
 4504W        W 8568   7.087   2.718   1.202
 4505W        W 8569   9.936   6.489  11.442
 4506W        W 8570   9.496   3.762   1.438
 4507W        W 8571   0.848   6.057   2.278
 4508W        W 8572   7.779   8.137   1.047
 4509W        W 8573   4.247   3.279   3.536
 4510W        W 8574   0.539   8.953   0.214
 4511W        W 8575   5.684   0.280   2.347
 4512W        W 8576   2.147   0.392  10.249
 4513W        W 8577   9.853   6.577   9.384
 4514W        W 8578   3.788   2.976   0.476
 4515W        W 8579   8.867   4.616   9.651
 4516W        W 8580   0.961   9.429  11.531
 4517W        W 8581   1.327   1.449   2.750
 4518W        W 8582   1.818   5.735  11.983
 4519W        W 8583   7.899   7.167  11.190
 4520W        W 8584   9.182   0.044   3.115
 4521W        W 8585   1.492   9.500   0.877
 4522W        W 8586   8.587   0.260   2.020
 4523W        W 8587  10.443   4.180   1.742
 4524W        W 8588   7.153   5.172   1.442
 4525W        W 8589   8.457  10.436   2.387
 4526W        W 8590   3.182   3.329  11.558
 4527W        W 8591   4.638   6.855   0.439
 4528W        W 8592   3.411   5.712  10.769
 4529W        W 8593   9.716   5.667   8.932
 4530W        W 8594   7.852   9.077  10.970
 4531W        W 8595   2.940   0.501  11.783
 4532W        W 8596   9.087   3.759   9.930
 4533W        W 8597   5.703   5.278   2.228
 4534W        W 8598   4.247  10.314   2.250
 4535W        W 8599   0.442   8.085   1.902
 4536W        W 8600   0.908   6.628  11.088
 4537W        W 8601   0.877   3.904   8.176
 4538W        W 8602   5.731   6.884   2.771
 4539W        W 8603   8.367   2.127  10.759
 4540W        W 8604   6.752   0.795  10.845
 4541W        W 8605   5.806   1.522  10.328
 4542W        W 8606   8.268   7.275  11.515
 4543W        W 8607   5.075   9.112   2.313
 4544W        W 8608   6.999   5.261   9.846
 4545W        W 8609   9.829   5.960   0.451
 4546W        W 8610   6.954   3.288   9.743
 4547W        W 8611   4.738   3.803   2.507
 4548W        W 8612   8.672   7.146   9.810
 4549W        W 8613   5.544   7.612   3.244
 4550W        W 8614   3.556   7.147  10.897
 4551W        W 8615   3.015   0.677  11.058
 4552W        W 8616   8.058   8.980  11.893
 4553W        W 8617   9.821   5.109  11.916
 4554W        W 8618   8.935   1.824   9.580
 4555W        W 8619   6.138   3.784  11.783
 4556W        W 8620   7.378   0.326  10.346
 4557W        W 8621   1.132   2.226  10.899
 4558W        W 8622   3.292   3.302   1.329
 4559W        W 8623   8.985   7.863   2.825
 4560W        W 8624   4.735   9.402   0.601
 4561W        W 8625   7.070   1.757   1.404
 4562W        W 8626   2.254   8.629  10.120
 4563W        W 8627   4.328   9.726  10.869
 4564W        W 8628   3.113   5.549   1.864
 4565W        W 8629   5.707   3.103   9.308
 4566W        W 8630   7.186   8.119  10.315
 4567W        W 8631   6.656   5.322   1.499
 4568W        W 8632   9.823   0.764  11.695
 4569W        W 8633   3.941   9.805  11.702
 4570W        W 8634   3.689   6.952   1.498
 4571W        W 8635   1.476   0.198   1.495
 4572W        W 8636   6.070   5.783  11.344
 4573W        W 8637   3.840   4.017   2.182
 4574W        W 8638   4.067   4.279   2.586
 4575W        W 8639   3.241   4.750   3.207
 4576W        W 8640   9.074   6.888   2.820
 4577W        W 8641   2.670   8.355   3.475
 4578W        W 8642   3.850   0.850   1.695
 4579W        W 8643   4.840   6.689   9.874
 4580W        W 8644   2.571   0.228  11.456
 4581W        W 8645   3.355   3.128  10.912
 4582W        W 8646   9.433   9.360   3.400
 4583W        W 8647   6.978   2.915  11.336
 4584W        W 8648   1.293   1.582   1.687
 4585W        W 8649   5.081   6.933   1.232
 4586W        W 8650   7.039   7.213   2.290
 4587W        W 8651   8.017   7.124   2.404
 4588W        W 8652   5.498   3.794   2.690
 4589W        W 8653   8.737   9.808   3.474
 4590W        W 8654   3.650   4.708   1.470
 4591W        W 8655   5.979   8.337  11.943
 4592W        W 8656   1.237   8.051   2.536
 4593W        W 8657   7.870   0.387   2.820
 4594W        W 8658   1.890   8.833  10.984
 4595W        W 8659   1.882   9.447  10.042
 4596W        W 8660   4.651   2.850   2.910
 4597W        W 8661   9.951   1.363   1.516
 4598W        W 8662   6.184   0.395   2.389
 4599W        W 8663   6.604   7.049   1.306
 4600W        W 8664   3.829   4.094   0.148
 4601W        W 8665   3.668   0.688   3.261
 4602W        W 8666   7.837   5.281   9.887
 4603W        W 8667   7.093   8.533  10.004
 4604W        W 8668   4.720   9.037  10.223
 4605W        W 8669   0.828   0.908   1.882
 4606W        W 8670   4.255   7.487   0.475
 4607W        W 8671   2.759   1.046   0.670
 4608W        W 8672   2.766   0.478   2.965
 4609W        W 8673   7.648   3.289   0.717
 4610W        W 8674   4.174   5.349  10.067
 4611W        W 8675   0.540   2.718   2.770
 4612W        W 8676   4.243   4.377   9.028
 4613W        W 8677   7.375   3.859   0.079
 4614W        W 8678   1.932   6.466  10.326
 4615W        W 8679   3.704   4.578  11.958
 4616W        W 8680   8.438   9.047   2.830
 4617W        W 8681   6.415   8.118  10.792
 4618W        W 8682  10.440   6.469  11.332
 4619W        W 8683   6.074   5.563   8.990
 4620W        W 8684   0.734   5.900   2.768
 4621W        W 8685   0.062   6.600   1.218
 4622W        W 8686   8.659  10.462  10.873
 4623W        W 8687  10.497   2.640   9.987
 4624W        W 8688   9.825   5.162  11.051
 4625W        W 8689   5.062   2.818  11.420
 4626W        W 8690   0.606   8.998  11.327
 4627W        W 8691   2.733   2.321   8.433
 4628W        W 8692   8.709   1.022   9.366
 4629W        W 8693   3.508   4.166  11.757
 4630W        W 8694   8.785   8.832  10.609
 4631W        W 8695   8.495   4.980   2.290
 4632W        W 8696   1.135   2.927   0.932
 4633W        W 8697   9.362   6.509   9.219
 4634W        W 8698   7.115   8.353   0.806
 4635W        W 8699   9.871   2.251   1.647
 4636W        W 8700   5.616   4.734   2.865
 4637W        W 8701   2.936  10.412  10.165
 4638W        W 8702   4.518   0.559   2.500
 4639W        W 8703   6.793   6.154   9.933
 4640W        W 8704   5.920   8.570   3.480
 4641W        W 8705   3.048   8.106   2.545
 4642W        W 8706   5.109   9.019   8.917
 4643W        W 8707   6.556   3.608   9.997
 4644W        W 8708   2.559   3.308   9.848
 4645W        W 8709   0.951   6.163  10.871
 4646W        W 8710   8.994   7.459   3.156
 4647W        W 8711   6.924   6.565   3.707
 4648W        W 8712  10.333   4.710   9.820
 4649W        W 8713   5.477   0.442   1.847
 4650W        W 8714   5.487   3.612   1.925
 4651W        W 8715   8.503   7.759   1.421
 4652W        W 8716   6.462   4.574   4.121
 4653W        W 8717   1.795   9.805   1.181
 4654W        W 8718   8.624   4.135   9.480
 4655W        W 8719   0.369   2.892  11.950
 4656W        W 8720   5.042   8.590   2.934
 4657W        W 8721   8.259   5.056   3.469
 4658W        W 8722   8.025  10.306   8.824
 4659W        W 8723  10.431   2.496  11.944
 4660W        W 8724   4.286   8.595   2.818
 4661W        W 8725   9.559  10.067  10.906
 4662W        W 8726   3.902   4.635   9.365
 4663W        W 8727   1.157   7.428   9.057
 4664W        W 8728   4.778   2.096  11.762
 4665W        W 8729   8.767   0.136  11.366
 4666W        W 8730   3.931   5.609   8.476
 4667W        W 8731   3.739   2.279   1.512
 4668W        W 8732   2.209   2.376   8.999
 4669W        W 8733   7.395   4.582   0.802
 4670W        W 8734   5.170   0.850   9.438
 4671W        W 8735   7.024   8.483   1.779
 4672W        W 8736   9.256   3.284   3.262
 4673W        W 8737   0.852   0.983   8.892
 4674W        W 8738   1.160   7.976  11.060
 4675W        W 8739   0.009   0.539   2.185
 4676W        W 8740   5.651   7.042  10.945
 4677W        W 8741   6.582  10.145   3.460
 4678W        W 8742   8.510   1.489  10.839
 4679W        W 8743   7.445   4.719  10.720
 4680W        W 8744   4.698   4.672  10.461
 4681W        W 8745   3.765   0.899  11.681
 4682W        W 8746   9.592   3.819  10.323
 4683W        W 8747   8.676   3.208   9.346
 4684W        W 8748   3.328   5.520  11.985
 4685W        W 8749   5.681   4.804   9.855
 4686W        W 8750   0.256   0.835  10.179
 4687W        W 8751   3.205   5.860   8.528
 4688W        W 8752   1.832   7.912  10.434
 4689W        W 8753   6.602  10.234   1.863
 4690W        W 8754   8.095   9.858   1.885
 4691W        W 8755   4.606   7.856  11.190
 4692W        W 8756   2.605   0.886   1.160
 4693W        W 8757   6.215   7.402   0.024
 4694W        W 8758   9.335   2.478   9.516
 4695W        W 8759   1.833   6.768   2.776
 4696W        W 8760   1.676   6.849   9.780
 4697W        W 8761   0.213   2.011   9.510
 4698W        W 8762   8.535   6.054  11.824
 4699W        W 8763   3.192   2.850   8.897
 4700W        W 8764   9.876   0.793   1.734
 4701W        W 8765   5.472   8.992   0.798
 4702W        W 8766   6.114   3.259  11.666
 4703W        W 8767   9.985   1.717  11.924
 4704W        W 8768   3.025   4.093  11.839
 4705W        W 8769   1.705   1.346  10.269
 4706W        W 8770   3.579   0.067  11.250
 4707W        W 8771   0.386   6.935   8.965
 4708W        W 8772   7.025   5.683   1.384
 4709W        W 8773   5.495   2.854   9.714
 4710W        W 8774   8.497   2.211   1.713
 4711W        W 8775   8.474   9.762   0.246
 4712W        W 8776   6.452   9.348   0.351
 4713W        W 8777   6.936   4.713   4.317
 4714W        W 8778   8.547   3.806   9.858
 4715W        W 8779   3.238   2.328   1.439
 4716W        W 8780   1.391   5.215   1.370
 4717W        W 8781   0.163   0.757   3.155
 4718W        W 8782   7.864   4.986  10.970
 4719W        W 8783   0.705   4.971   9.779
 4720W        W 8784  10.290   5.662   9.629
 4721W        W 8785  10.085   3.657   8.516
 4722W        W 8786   9.117   4.733  10.639
 4723W        W 8787   7.627   0.410   0.357
 4724W        W 8788   5.291   4.037   2.280
 4725W        W 8789   9.950   9.955   3.088
 4726W        W 8790   1.939   8.323  11.009
 4727W        W 8791   9.252   4.059  11.805
 4728W        W 8792   1.397   5.550  10.039
 4729W        W 8793   2.146   8.462   9.649
 4730W        W 8794   8.443   6.442  11.270
 4731W        W 8795   8.390   8.360   3.004
 4732W        W 8796   7.683   9.979   1.303
 4733W        W 8797   7.088   3.575  10.162
 4734W        W 8798   9.392   6.011  10.890
 4735W        W 8799   7.788  10.231   1.736
 4736W        W 8800   4.747   5.782   9.575
 4737W        W 8801   6.175   6.270   2.293
 4738W        W 8802   7.534   2.161  10.265
 4739W        W 8803   6.614   0.210   0.696
 4740W        W 8804   6.113   0.817   8.403
 4741W        W 8805   7.381   0.873   0.386
 4742W        W 8806   9.582   3.866   9.810
 4743W        W 8807  10.390   9.205   2.068
 4744W        W 8808   6.125   8.056   1.905
 4745W        W 8809  10.200   1.556   0.349
 4746W        W 8810   7.098   5.083   0.172
 4747W        W 8811   8.576   3.086   2.295
 4748W        W 8812   2.805   5.186   9.053
 4749W        W 8813   8.242   6.201   9.914
 4750W        W 8814   4.213   6.716  10.565
 4751W        W 8815   3.633   3.665   8.927
 4752W        W 8816   0.846   3.541   8.690
 4753W        W 8817   4.319   3.306  10.457
 4754W        W 8818   3.680   6.717  10.056
 4755W        W 8819   0.741   0.836   3.118
 4756W        W 8820   2.772   8.337  10.868
 4757W        W 8821   4.656   4.947   9.335
 4758W        W 8822   5.524   5.861  10.754
 4759W        W 8823   5.318   5.055   1.950
 4760W        W 8824   7.530   0.774   9.562
 4761W        W 8825   5.147   6.218  11.044
 4762W        W 8826   6.492   6.100   3.044
 4763W        W 8827   5.498   1.348   9.465
 4764W        W 8828  10.432   3.506   0.452
 4765W        W 8829   2.477   5.245  11.496
 4766W        W 8830  10.053   4.015   3.640
 4767W        W 8831   9.315   6.701   2.375
 4768W        W 8832   2.664   1.238   9.449
 4769W        W 8833  10.406   9.114  10.877
 4770W        W 8834   0.892   3.123   0.056
 4771W        W 8835   4.590   6.399   3.675
 4772W        W 8836   2.449   5.152  11.992
 4773W        W 8837   7.762   0.647  10.081
 4774W        W 8838   0.929   0.149   3.653
 4775W        W 8839   3.091  10.445   1.451
 4776W        W 8840   8.395   7.464   2.565
 4777W        W 8841   8.470   7.624   3.036
 4778W        W 8842   0.851   7.677   0.348
 4779W        W 8843   0.948   9.508   0.920
 4780W        W 8844   0.937   9.861  11.264
 4781W        W 8845   8.722   9.795  11.785
 4782W        W 8846   1.058   6.296   2.809
 4783W        W 8847  10.422   9.967   0.894
 4784W        W 8848   4.577   2.983  11.428
 4785W        W 8849   1.852   0.834   2.931
 4786W        W 8850   1.692   2.547   2.341
 4787W        W 8851   5.979   0.527   0.128
 4788W        W 8852   8.032   4.908   1.151
 4789W        W 8853   2.700   2.408   2.394
 4790W        W 8854   0.283   3.643  10.516
 4791W        W 8855   3.632   6.210  10.051
 4792W        W 8856   6.567   5.219   0.903
 4793W        W 8857   6.577   5.924   9.546
 4794W        W 8858   6.696   8.687   0.847
 4795W        W 8859   2.365   0.789   2.820
 4796W        W 8860   6.759   9.107   0.011
 4797W        W 8861   1.784   3.114   8.858
 4798W        W 8862   4.977   7.346   9.954
 4799W        W 8863   1.912  10.023   0.274
 4800W        W 8864   8.870   1.817   8.371
 4801W        W 8865   6.568   0.675   2.207
 4802W        W 8866   9.561   6.608   3.164
 4803W        W 8867   2.258   3.390   8.869
 4804W        W 8868   1.764   7.456   0.158
 4805W        W 8869   1.299   6.111  10.451
 4806W        W 8870   3.845   4.634   8.820
 4807W        W 8871   3.760   8.568   9.074
 4808W        W 8872   4.086   2.389   8.947
 4809W        W 8873   1.200   7.992   9.659
 4810W        W 8874   4.224   4.848   8.105
 4811W        W 8875   3.932   2.750  10.874
 4812W        W 8876   4.030  10.497   1.838
 4813W        W 8877   6.572   9.961   1.265
 4814W        W 8878   7.009   6.204   2.218
 4815W        W 8879   4.301  10.046   9.496
 4816W        W 8880   3.662   0.806   0.686
 4817W        W 8881  10.403   3.574   0.975
 4818W        W 8882   1.236   1.078  11.555
 4819W        W 8883   9.576   7.885   0.819
 4820W        W 8884   5.555   3.456   8.955
 4821W        W 8885   7.002   2.424  11.546
 4822W        W 8886   0.992   4.201  11.334
 4823W        W 8887   9.456   0.020  10.710
 4824W        W 8888   1.243  10.221   9.916
 4825W        W 8889   4.339   0.503  11.339
 4826W        W 8890   2.721   9.970   9.927
 4827W        W 8891   4.118   2.944   3.152
 4828W        W 8892  10.473   9.428  10.506
 4829W        W 8893   3.315   8.409   1.583
 4830W        W 8894   3.378   3.169   2.641
 4831W        W 8895   3.273   5.153  10.270
 4832W        W 8896   5.243   0.013   2.290
 4833W        W 8897   9.448   1.921   1.492
 4834W        W 8898   4.151   8.903   3.244
 4835W        W 8899   2.343   5.285   8.824
 4836W        W 8900   7.940   8.448   0.124
 4837W        W 8901   0.500   4.334   9.320
 4838W        W 8902   4.679   7.034   3.936
 4839W        W 8903   9.870   4.664   0.766
 4840W        W 8904   8.135   9.022   1.822
 4841W        W 8905   0.680   9.886  10.823
 4842W        W 8906   5.180   0.420  11.662
 4843W        W 8907   4.947   7.067   9.524
 4844W        W 8908   9.751   4.161  11.801
 4845W        W 8909   1.327   5.818   8.486
 4846W        W 8910   5.707   9.877  10.328
 4847W        W 8911   2.361   4.635   2.227
 4848W        W 8912   4.129   6.907  10.059
 4849W        W 8913   6.947   4.412   1.045
 4850W        W 8914   5.741  10.062   0.007
 4851W        W 8915   9.375   2.946   8.630
 4852W        W 8916   8.108   4.346  11.298
 4853W        W 8917   6.617   9.941  10.375
 4854W        W 8918   5.481   3.612   3.954
 4855W        W 8919   2.943   6.424  11.865
 4856W        W 8920   6.938   7.080   3.616
 4857W        W 8921   2.347   0.008   2.341
 4858W        W 8922   9.730   2.177  10.243
 4859W        W 8923   6.974   4.635   0.543
 4860W        W 8924   3.677   9.499   2.192
 4861W        W 8925   0.262   4.233   3.031
 4862W        W 8926   3.078   0.431   8.945
 4863W        W 8927   0.695   6.692   1.894
 4864W        W 8928   6.645   2.583  11.908
 4865W        W 8929   6.380   9.143   3.736
 4866W        W 8930   4.692   1.831  10.065
 4867W        W 8931   0.665   3.680   2.507
 4868W        W 8932   4.512   0.351   8.928
 4869W        W 8933   0.904   6.368   0.891
 4870W        W 8934   0.342   2.316  11.001
 4871W        W 8935  10.363   0.910   0.998
 4872W        W 8936   3.601   3.675  11.944
 4873W        W 8937   7.573   8.771  11.956
 4874W        W 8938   8.523   1.370  10.071
 4875W        W 8939   7.100   7.579  10.675
 4876W        W 8940   0.321  10.058   1.198
 4877W        W 8941   5.130   6.914   0.287
 4878W        W 8942   4.915   0.030   1.415
 4879W        W 8943   4.343   7.003   1.817
 4880W        W 8944   6.468   0.318   9.837
 4881W        W 8945   0.771  10.386   0.349
 4882W        W 8946   8.375   3.144  10.325
 4883W        W 8947   2.992   5.301   0.894
 4884W        W 8948   5.985   3.226   2.682
 4885W        W 8949   2.421   6.477   9.441
 4886W        W 8950   4.901   3.234   3.487
 4887W        W 8951   6.943   0.792  10.382
 4888W        W 8952   6.323   4.582   2.091
 4889W        W 8953   1.882   8.443  10.510
 4890W        W 8954   2.641   0.725  11.411
 4891W        W 8955   7.810   1.194   8.363
 4892W        W 8956   9.464   6.720   1.358
 4893W        W 8957   0.985   0.240   1.377
 4894W        W 8958   7.184   7.697   2.255
 4895W        W 8959   5.142   7.579  10.399
 4896W        W 8960   9.440   9.504   1.581
 4897W        W 8961  10.493   8.504   1.308
 4898W        W 8962   7.381   6.669   2.870
 4899W        W 8963   8.645   2.224   8.803
 4900W        W 8964   8.200   9.983  11.896
 4901W        W 8965   2.344   2.690   8.577
 4902W        W 8966   6.648   4.867   1.799
 4903W        W 8967   0.168   8.495   0.821
 4904W        W 8968   9.276   2.744   2.692
 4905W        W 8969   4.410   6.172  11.435
 4906W        W 8970   3.124  10.310   0.483
 4907W        W 8971   8.946   1.180  10.751
 4908W        W 8972   2.779   1.253   8.645
 4909W        W 8973   8.847   2.601  10.458
 4910W        W 8974   7.832   4.960   9.151
 4911W        W 8975   0.861   4.473   9.655
 4912W        W 8976   6.419   2.870  10.442
 4913W        W 8977   0.215   8.993   0.665
 4914W        W 8978   6.455   1.140   2.403
 4915W        W 8979   5.931   3.662   4.224
 4916W        W 8980   6.476   7.363   2.615
 4917W        W 8981   7.584   3.789   2.948
 4918W        W 8982   9.649   3.225   1.783
 4919W        W 8983   9.372   1.801  11.233
 4920W        W 8984   9.454   7.753   0.321
 4921W        W 8985   1.467   8.790   0.121
 4922W        W 8986   7.053   5.450   9.202
 4923W        W 8987   0.034   4.154  10.511
 4924W        W 8988   7.688   8.060  10.388
 4925W        W 8989   0.756   7.045   3.301
 4926W        W 8990   0.617   9.851   2.120
 4927W        W 8991   2.214   1.269  10.977
 4928W        W 8992   3.277   6.007  11.872
 4929W        W 8993   0.015   3.323  11.102
 4930W        W 8994   8.550   3.308   1.191
 4931W        W 8995   4.495   6.451   1.714
 4932W        W 8996   5.991   2.616  10.443
 4933W        W 8997   1.692   8.005   2.804
 4934W        W 8998   6.923   9.536   9.981
 4935W        W 8999   7.205   6.568  11.210
 4936W        W 9000   2.482   7.550   2.767
 4937W        W 9001   7.274   1.679   0.952
 4938W        W 9002   6.279   4.516   3.409
 4939W        W 9003   6.034   0.426  10.095
 4940W        W 9004   0.158   4.728   1.969
 4941W        W 9005   0.443   4.008   3.478
 4942W        W 9006   9.945   3.527   0.270
 4943W        W 9007   7.939   7.201   1.897
 4944W        W 9008   4.709   4.129   3.725
 4945W        W 9009   9.995   9.066   2.388
 4946W        W 9010   8.521   4.983   8.405
 4947W        W 9011   7.463   4.170  10.451
 4948W        W 9012   2.232   1.144  11.854
 4949W        W 9013   0.784   3.693   2.011
 4950W        W 9014   9.077   1.671   1.217
 4951W        W 9015   4.435   4.207  11.890
 4952W        W 9016   5.579   1.397   1.542
 4953W        W 9017   7.474   0.751   2.639
 4954W        W 9018   6.659   4.753   3.678
 4955W        W 9019   0.998   8.991   1.654
 4956W        W 9020   1.982   6.227   9.453
 4957W        W 9021   3.683   2.641   3.288
 4958W        W 9022   2.325   4.269  10.037
 4959W        W 9023   7.590   7.912   3.231
 4960W        W 9024   8.852   8.975   3.120
 4961W        W 9025   0.177   4.767   0.308
 4962W        W 9026   2.764   4.812  11.654
 4963W        W 9027   6.236   8.369   9.775
 4964W        W 9028   0.994   3.538   2.873
 4965W        W 9029   6.878   8.948   2.214
 4966W        W 9030   2.622   8.525   1.665
 4967W        W 9031   6.979   3.822  11.330
 4968W        W 9032  10.396   8.773   3.357
 4969W        W 9033   1.964   2.544  11.847
 4970W        W 9034   5.623   0.901   9.203
 4971W        W 9035   7.558   8.708   2.838
 4972W        W 9036   0.771   4.323   3.227
 4973W        W 9037   5.424   3.302   9.932
 4974W        W 9038   3.097   4.085   2.804
 4975W        W 9039   7.846   4.523  11.693
 4976W        W 9040   1.382   2.987   2.144
 4977W        W 9041   7.615   9.792   2.006
 4978W        W 9042   0.802   3.146   0.567
 4979W        W 9043   3.617   6.424   2.709
 4980W        W 9044   2.740   9.037   0.705
 4981W        W 9045   9.081   6.468   3.245
 4982W        W 9046   5.472   0.601  10.690
 4983W        W 9047   0.807   9.868   2.597
 4984W        W 9048   7.562  10.082   8.698
 4985W        W 9049   4.213   7.780  11.620
 4986W        W 9050   1.992   1.022   2.469
 4987W        W 9051   2.164  10.084   1.442
 4988W        W 9052   3.602   1.947   2.596
 4989W        W 9053   7.458   4.201  10.947
 4990W        W 9054   7.244   1.802   8.937
 4991W        W 9055   8.563   6.847   1.211
 4992W        W 9056   7.926   2.710   2.219
 4993W        W 9057   9.450   5.574   9.778
 4994W        W 9058   4.638   7.853   1.864
 4995W        W 9059   4.820   0.332  11.298
 4996W        W 9060   6.400   0.862  10.469
 4997W        W 9061   1.637   2.829  10.451
 4998W        W 9062   0.735   1.704   3.332
 4999W        W 9063   4.537   7.119   9.821
 5000W        W 9064   1.821   2.650   8.613
 5001W        W 9065   9.794   5.917  10.579
 5002W        W 9066   4.836   7.579   9.503
 5003W        W 9067   3.409   6.544   9.289
 5004W        W 9068   0.486   2.568   0.311
 5005W        W 9069   1.866   4.214   8.796
 5006W        W 9070   2.168   1.736   8.746
 5007W        W 9071   2.714   3.803   9.783
 5008W        W 9072   4.817   1.176  11.385
 5009W        W 9073   1.650   5.185   0.704
 5010W        W 9074   9.915   6.117   9.122
 5011W        W 9075   9.001   4.217   2.052
 5012W        W 9076   9.200  10.068   9.380
 5013W        W 9077   6.487   9.483  10.236
 5014W        W 9078   8.272   4.523   8.553
 5015W        W 9079   8.821   2.080  11.627
 5016W        W 9080   8.119   9.259  10.123
 5017W        W 9081   9.978   2.107   3.319
 5018W        W 9082  10.221   5.668   9.103
 5019W        W 9083   7.080   6.750  10.331
 5020W        W 9084   9.970  10.270  10.516
 5021W        W 9085   2.238   0.772   8.551
 5022W        W 9086   4.753   6.010   0.515
 5023W        W 9087   8.122   6.730  10.535
 5024W        W 9088   1.208   1.954   3.151
 5025W        W 9089   8.419   5.506   1.662
 5026W        W 9090   5.542   3.338   2.922
 5027W        W 9091  10.326   7.476   2.794
 5028W        W 9092   8.883   4.125   2.986
 5029W        W 9093   0.197   5.649   9.287
 5030W        W 9094   7.633   4.621  10.268
 5031W        W 9095   6.252   0.217   1.513
 5032W        W 9096   4.296  10.047   1.751
 5033W        W 9097   7.963   9.580   0.120
 5034W        W 9098   6.477   4.560   9.945
 5035W        W 9099   9.288   8.356   9.695
 5036W        W 9100   4.164   2.225  10.887
 5037W        W 9101   0.278   4.953   1.198
 5038W        W 9102   3.878   7.202   1.906
 5039W        W 9103   1.635  10.372   1.835
 5040W        W 9104   4.724   7.410   2.797
 5041W        W 9105   8.908   9.839   8.836
 5042W        W 9106   2.098   7.182   2.946
 5043W        W 9107   1.689   1.191   3.271
 5044W        W 9108   8.070   2.135   0.414
 5045W        W 9109   7.016   6.243  10.358
 5046W        W 9110   0.715   4.337  11.756
 5047W        W 9111   5.939   7.841   0.005
 5048W        W 9112  10.332   0.919  10.500
 5049W        W 9113   9.962   6.031   1.359
 5050W        W 9114   7.505   3.645  10.488
 5051W        W 9115   1.438   0.058   0.981
 5052W        W 9116   5.947   6.590   0.301
 5053W        W 9117   2.663   7.446   0.173
 5054W        W 9118   0.228   4.063  10.059
 5055W        W 9119   5.946  10.043  11.535
 5056W        W 9120   9.334   7.882   9.439
 5057W        W 9121   4.448   0.414   8.411
 5058W        W 9122   7.940   7.684  11.330
 5059W        W 9123   6.150   5.909  11.846
 5060W        W 9124   1.837   8.973  11.709
 5061W        W 9125   6.447   6.960  11.515
 5062W        W 9126   4.737   3.380  11.702
 5063W        W 9127   8.472   2.217   2.265
 5064W        W 9128   6.908   5.179  11.243
 5065W        W 9129   5.582   7.876  11.327
 5066W        W 9130   9.401   3.701   1.924
 5067W        W 9131   2.932   0.656   2.084
 5068W        W 9132   5.289   0.457  11.153
 5069W        W 9133   2.901   8.548   0.752
 5070W        W 9134   4.062   1.544  10.588
 5071W        W 9135   1.816   4.919  11.605
 5072W        W 9136   2.818   0.101   2.219
 5073W        W 9137   4.156   0.787   0.905
 5074W        W 9138   6.156   6.767   2.366
 5075W        W 9139   3.666   6.100   0.242
 5076W        W 9140   8.830   5.982  10.869
 5077W        W 9141   7.898  10.010   3.353
 5078W        W 9142   4.096   7.525   3.503
 5079W        W 9143   2.591   7.135   3.074
 5080W        W 9144   2.757   1.248   1.493
 5081W        W 9145   1.962   7.528   0.847
 5082W        W 9146   1.227   5.736   2.829
 5083W        W 9147   8.474   7.472  11.103
 5084W        W 9148   3.954   6.765   2.873
 5085W        W 9149   6.996   7.627   0.079
 5086W        W 9150   7.917   0.093   2.075
 5087W        W 9151   0.291   2.344   2.429
 5088W        W 9152   7.976   0.888   2.813
 5089W        W 9153   5.804   3.408   8.482
 5090W        W 9154   5.236   4.638   3.205
 5091W        W 9155   6.519   1.981   2.778
 5092W        W 9156   6.628   0.671  11.773
 5093W        W 9157   1.909   9.909  11.329
 5094W        W 9158   4.721   0.906   1.677
 5095W        W 9159   9.864   8.344   1.950
 5096W        W 9160   7.580   5.729   2.611
 5097W        W 9161   0.386  10.483   3.420
 5098W        W 9162   8.152   1.813   2.201
 5099W        W 9163   9.016   1.168   1.264
 5100W        W 9164   3.884   6.439   4.111
 5101W        W 9165   6.905   3.190   8.800
 5102W        W 9166   8.700   0.389   2.538
 5103W        W 9167   1.147   6.871   1.792
 5104W        W 9168   7.934   0.945  10.473
 5105W        W 9169   9.029   9.491  11.461
 5106W        W 9170   5.064   1.275   0.905
 5107W        W 9171   9.931   0.446  11.280
 5108W        W 9172   5.937   1.063  10.497
 5109W        W 9173   9.972   6.538   1.325
 5110W        W 9174   5.580  10.215   1.417
 5111W        W 9175   7.460   2.890   0.450
 5112W        W 9176   8.590   1.687   8.778
 5113W        W 9177   6.088   9.926   2.218
 5114W        W 9178   2.296   4.660   0.236
 5115W        W 9179   1.698   8.753   0.598
 5116W        W 9180   0.350   1.204   9.035
 5117W        W 9181  10.300   5.273  11.872
 5118W        W 9182   4.040   6.659  11.934
 5119W        W 9183   8.233   0.996   9.529
 5120W        W 9184   4.320   1.760  10.958
 5121W        W 9185   5.715   5.278   1.117
 5122W        W 9186   1.688   3.119  10.043
 5123W        W 9187  10.098   7.830   3.117
 5124W        W 9188   5.612   8.882  11.187
 5125W        W 9189   4.729   0.294  10.111
 5126W        W 9190   3.634   2.457   9.593
 5127W        W 9191   3.632   2.232  11.581
 5128W        W 9192   0.496   6.358  10.781
 5129W        W 9193   9.023   0.378   1.728
 5130W        W 9194   7.133   6.681   0.218
 5131W        W 9195   7.553   9.487   1.289
 5132W        W 9196   1.616   2.524   9.594
 5133W        W 9197   1.394   6.095   8.921
 5134W        W 9198   2.479   4.143   0.375
 5135W        W 9199   0.878   8.981   2.177
 5136W        W 9200   2.284   0.562   1.441
 5137W        W 9201   6.430   9.347  11.257
 5138W        W 9202   1.561   8.562   3.606
 5139W        W 9203  10.198   7.015   1.930
 5140W        W 9204  10.362   9.313   9.510
 5141W        W 9205   0.719   9.432  11.060
 5142W        W 9206   2.495   5.122   0.901
 5143W        W 9207   0.812   2.389  11.248
 5144W        W 9208   4.168   1.233   1.180
 5145W        W 9209   6.017   5.706   0.403
 5146W        W 9210   2.255   4.244  11.855
 5147W        W 9211   9.070   8.799   0.079
 5148W        W 9212   9.449   9.998   0.250
 5149W        W 9213   4.789   6.577  11.218
 5150W        W 9214   9.407   2.302   1.859
 5151W        W 9215   1.733   7.148   9.355
 5152W        W 9216   3.903   5.483  10.815
 5153W        W 9217   4.628   3.762   0.045
 5154W        W 9218   4.356   4.276  10.445
 5155W        W 9219   2.797   0.911   9.068
 5156W        W 9220   5.295   6.246  11.873
 5157W        W 9221   4.208   0.328   1.219
 5158W        W 9222   3.185   2.378   0.566
 5159W        W 9223   8.915   1.646  10.572
 5160W        W 9224  10.358   3.721  10.228
 5161W        W 9225   6.280   9.031  10.373
 5162W        W 9226   9.564   3.245   9.055
 5163W        W 9227   1.742   9.021  10.301
 5164W        W 9228   6.120   3.622  11.294
 5165W        W 9229   0.838   1.228   3.407
 5166W        W 9230   3.543  10.469   1.704
 5167W        W 9231   4.996   9.499   8.733
 5168W        W 9232   0.347   9.090  11.763
 5169W        W 9233   2.234   8.732   8.824
 5170W        W 9234   0.398   1.321   1.233
 5171W        W 9235   6.460   3.839   1.492
 5172W        W 9236   2.828   5.957   2.597
 5173W        W 9237   0.245   5.508   2.766
 5174W        W 9238   0.868   4.407   2.696
 5175W        W 9239   3.524   2.157  10.006
 5176W        W 9240   4.671   6.065   9.101
 5177W        W 9241   7.020   6.375   0.875
 5178W        W 9242   8.075   8.658   2.174
 5179W        W 9243   5.169   7.216  10.886
 5180W        W 9244   8.955   1.556  11.085
 5181W        W 9245   9.810   4.358   8.938
 5182W        W 9246   0.424   1.486   2.143
 5183W        W 9247   1.306   7.631   2.819
 5184W        W 9248   0.488   6.010   0.165
 5185W        W 9249   6.235   6.518  10.599
 5186W        W 9250   8.303   3.673   1.863
 5187W        W 9251   9.008   6.092   9.435
 5188W        W 9252   0.635   5.370  10.531
 5189W        W 9253   2.207   0.252   8.551
 5190W        W 9254   1.673   8.674   2.316
 5191W        W 9255   5.632   8.506   0.705
 5192W        W 9256   5.223   6.025   0.318
 5193W        W 9257   4.538   1.920   3.208
 5194W        W 9258   4.088   3.752   9.849
 5195W        W 9259   2.906   6.049  11.511
 5196W        W 9260   0.874   1.385  11.742
 5197W        W 9261   6.280   1.677   0.958
 5198W        W 9262   8.205   0.373   2.443
 5199W        W 9263   9.415   7.112   3.121
 5200W        W 9264   3.142   8.056  10.570
 5201W        W 9265  10.169   2.176   9.922
 5202W        W 9266   7.701   8.996   0.396
 5203W        W 9267   5.861   6.541   1.377
 5204W        W 9268   4.577  10.060   1.303
 5205W        W 9269   7.116   8.568  11.040
 5206W        W 9270   1.454   6.130  11.788
 5207W        W 9271   8.688   5.600  11.211
 5208W        W 9272   2.148   7.873   9.178
 5209W        W 9273   4.212   4.012   3.550
 5210W        W 9274   1.668   9.958   3.194
 5211W        W 9275   7.318   4.121   8.607
 5212W        W 9276   8.059   9.461   9.180
 5213W        W 9277   1.954   5.025   0.106
 5214W        W 9278   4.271   8.381   2.255
 5215W        W 9279   0.415   4.150   2.533
 5216W        W 9280   5.450   6.391   1.743
 5217W        W 9281   7.340   9.016   1.328
 5218W        W 9282   7.701   3.727   1.016
 5219W        W 9283   1.344   4.706   2.706
 5220W        W 9284   4.248   6.188   9.405
 5221W        W 9285   6.093   3.046   1.203
 5222W        W 9286   6.154   9.959  10.570
 5223W        W 9287   7.673   1.849   9.241
 5224W        W 9288   8.089   7.570  11.876
 5225W        W 9289  10.237   1.867   9.518
 5226W        W 9290   5.069   5.039   2.399
 5227W        W 9291   5.803   8.173  10.496
 5228W        W 9292   9.213   5.536   8.796
 5229W        W 9293   1.718  10.286   1.305
 5230W        W 9294   2.661   2.225   9.302
 5231W        W 9295   7.737   6.043   0.472
 5232W        W 9296   4.350   8.585   1.297
 5233W        W 9297   6.893   3.950   1.227
 5234W        W 9298   9.452   5.568   3.135
 5235W        W 9299   5.086   8.590   0.125
 5236W        W 9300   4.824   2.284  10.249
 5237W        W 9301   9.413   1.902   3.007
 5238W        W 9302   2.444   2.808   2.188
 5239W        W 9303   8.728   1.169   2.516
 5240W        W 9304   1.455   9.491   3.135
 5241W        W 9305   7.215   0.568  10.840
 5242W        W 9306   0.821   4.185   2.224
 5243W        W 9307  10.244   4.481   2.115
 5244W        W 9308   5.427   6.054   3.370
 5245W        W 9309   8.626   0.487   0.674
 5246W        W 9310   4.516   4.039   9.315
 5247W        W 9311   6.602   7.433   0.359
 5248W        W 9312   1.478  10.206   0.074
 5249W        W 9313   0.807   2.188   8.491
 5250W        W 9314   2.941   8.128   1.830
 5251W        W 9315   8.482   6.466  10.307
 5252W        W 9316   2.141   4.237   1.874
 5253W        W 9317   4.975  10.095   8.404
 5254W        W 9318   2.035   1.835   1.083
 5255W        W 9319   0.363   3.426   9.478
 5256W        W 9320   9.460   3.296   0.893
 5257W        W 9321   4.960   7.801   1.138
 5258W        W 9322   6.529   3.780   3.497
 5259W        W 9323   9.916   3.054   9.844
 5260W        W 9324   0.480   5.069   1.676
 5261W        W 9325   2.207   2.212   8.486
 5262W        W 9326   9.147   8.705   2.464
 5263W        W 9327   9.485   0.004   9.477
 5264W        W 9328   6.448   8.202  11.830
 5265W        W 9329  10.435   9.759   9.848
 5266W        W 9330   9.687   2.159   9.734
 5267W        W 9331   8.932   0.667   1.293
 5268W        W 9332   9.428   7.421   9.613
 5269W        W 9333   4.863   1.356   0.452
 5270W        W 9334   2.018   6.151   2.741
 5271W        W 9335   6.105   2.231   2.620
 5272W        W 9336   9.770   9.489   0.401
 5273W        W 9337   9.982   1.185   2.982
 5274W        W 9338   3.406   2.800   1.418
 5275W        W 9339   1.783   5.165   2.188
 5276W        W 9340   4.582   3.660   3.503
 5277W        W 9341   4.615   0.943   0.667
 5278W        W 9342   7.640   8.844   3.318
 5279W        W 9343   1.672   5.743  11.493
 5280W        W 9344   4.855   4.378   9.590
 5281W        W 9345   5.555   7.441   0.768
 5282W        W 9346   7.805   8.029  10.943
 5283W        W 9347   3.192   5.532   8.933
 5284W        W 9348   3.916   6.146  11.366
 5285W        W 9349   9.272  10.429   1.762
 5286W        W 9350   6.997   0.786   2.452
 5287W        W 9351   5.189   7.049   2.663
 5288W        W 9352   0.458   6.860   1.435
 5289W        W 9353   2.941   3.211   3.472
 5290W        W 9354   0.826   2.317   2.608
 5291W        W 9355  10.001   4.118  11.352
 5292W        W 9356   0.086   6.104   8.418
 5293W        W 9357   5.028   7.050   3.469
 5294W        W 9358   9.716   2.889   2.900
 5295W        W 9359   7.409  10.011  11.476
 5296W        W 9360  10.413   3.098   0.757
 5297W        W 9361   9.420   9.492   1.047
 5298W        W 9362   4.631   8.106   0.899
 5299W        W 9363   8.893   9.953   0.505
 5300W        W 9364   4.279   0.412   9.905
 5301W        W 9365   8.498   5.401   9.578
 5302W        W 9366  10.403   2.127   9.080
 5303W        W 9367   2.546   9.662   2.272
 5304W        W 9368   5.276   7.403   1.193
 5305W        W 9369   1.751   6.170   0.758
 5306W        W 9370   9.512   0.498  10.978
 5307W        W 9371  10.025   8.830   1.920
 5308W        W 9372   9.702   0.816   9.460
 5309W        W 9373   9.318   5.887   2.708
 5310W        W 9374   5.234   8.289   1.944
 5311W        W 9375   2.152   0.435   9.376
 5312W        W 9376   3.982  10.272   1.375
 5313W        W 9377   0.328   0.292  10.245
 5314W        W 9378   4.054   5.017   1.285
 5315W        W 9379   3.189   0.867   0.444
 5316W        W 9380  10.036   2.407   8.810
 5317W        W 9381  10.248   5.191   3.333
 5318W        W 9382   9.062   3.225   0.398
 5319W        W 9383   6.982  10.436  10.958
 5320W        W 9384   4.068   4.457   1.336
 5321W        W 9385   6.057   9.021  11.371
 5322W        W 9386   1.965   4.245  10.409
 5323W        W 9387   7.572   1.448  11.634
 5324W        W 9388   2.900   9.828   0.459
 5325W        W 9389   7.634   5.238   2.679
 5326W        W 9390   0.953   8.427   8.851
 5327W        W 9391  10.301   4.532  11.355
 5328W        W 9392   0.763   4.513   1.347
 5329W        W 9393   3.014   0.986   9.729
 5330W        W 9394   1.184   8.901   8.945
 5331W        W 9395   7.487   3.821   2.419
 5332W        W 9396   5.235   5.866  11.377
 5333W        W 9397   4.351   7.080   2.854
 5334W        W 9398   7.514   3.728   3.449
 5335W        W 9399   0.203   3.043   3.107
 5336W        W 9400   7.433   7.051   1.959
 5337W        W 9401   2.732   6.501   3.217
 5338W        W 9402   5.100   2.604   2.869
 5339W        W 9403   2.351   6.885   0.615
 5340W        W 9404   8.969   6.953   3.343
 5341W        W 9405   8.358   0.886   0.494
 5342W        W 9406   5.379   6.517   1.238
 5343W        W 9407   2.257   7.545   2.240
 5344W        W 9408   5.022   9.451  11.252
 5345W        W 9409   9.828   0.749   3.167
 5346W        W 9410   9.366   2.872   1.170
 5347W        W 9411   0.802   7.432   9.961
 5348W        W 9412   5.181   4.727   8.735
 5349W        W 9413   6.438   1.389   8.991
 5350W        W 9414   1.520   2.757   1.259
 5351W        W 9415   9.399   8.533  10.403
 5352W        W 9416   0.654   6.476   0.025
 5353W        W 9417   1.353   8.453   9.182
 5354W        W 9418   7.572   7.076   1.170
 5355W        W 9419   4.326   6.748   4.197
 5356W        W 9420   0.491   0.355   1.450
 5357W        W 9421   8.158   8.024  10.570
 5358W        W 9422   4.134   6.151  11.896
 5359W        W 9423   8.038   5.825   9.124
 5360W        W 9424   9.949   7.856   1.786
 5361W        W 9425   5.613   8.952  10.671
 5362W        W 9426   7.836   1.387   1.994
 5363W        W 9427   0.203   0.270   3.003
 5364W        W 9428   1.279   3.686   1.555
 5365W        W 9429   8.397   6.997   0.733
 5366W        W 9430   1.272   7.066   9.505
 5367W        W 9431   4.119   5.352   8.888
 5368W        W 9432   6.154   3.534   2.265
 5369W        W 9433   9.790   2.695   1.940
 5370W        W 9434   6.551   6.157   0.818
 5371W        W 9435   9.413   4.721   9.274
 5372W        W 9436   1.555   1.316   0.538
 5373W        W 9437   9.459   5.631  11.273
 5374W        W 9438   0.780   3.015  10.549
 5375W        W 9439   2.448   5.587   3.246
 5376W        W 9440   0.661   9.418   2.378
 5377W        W 9441   2.412   0.361   9.814
 5378W        W 9442   9.923   1.840   1.308
 5379W        W 9443   2.234   7.304  11.894
 5380W        W 9444   6.936   3.771  11.844
 5381W        W 9445   4.637   8.322   3.133
 5382W        W 9446   5.615   9.839  10.862
 5383W        W 9447   8.305   6.589   8.999
 5384W        W 9448   8.824   9.864  10.242
 5385W        W 9449   4.546   9.069   1.148
 5386W        W 9450   3.203   9.170   1.023
 5387W        W 9451   3.727   8.065   9.016
 5388W        W 9452   5.993   3.615   3.569
 5389W        W 9453   8.366   0.050   0.841
 5390W        W 9454   2.005   9.369   0.374
 5391W        W 9455   4.730   1.495  11.007
 5392W        W 9456   2.278   9.116   2.306
 5393W        W 9457   6.585   4.821  10.923
 5394W        W 9458   0.299   7.467  10.994
 5395W        W 9459   9.246   1.889   0.503
 5396W        W 9460   4.177   0.451   1.740
 5397W        W 9461   2.290   4.404   8.571
 5398W        W 9462   4.137   3.558   2.302
 5399W        W 9463   7.356   6.483   8.431
 5400W        W 9464   2.917   0.367   9.848
 5401W        W 9465   4.770   7.063   8.941
 5402W        W 9466   0.783   3.125   9.488
 5403W        W 9467   0.036   1.172   0.359
 5404W        W 9468   7.529   5.634   9.134
 5405W        W 9469   1.283   1.894   0.863
 5406W        W 9470   5.161   8.976  10.462
 5407W        W 9471  10.400   0.054  10.918
 5408W        W 9472   3.154   7.693   2.277
 5409W        W 9473   2.851   6.151   9.323
 5410W        W 9474   7.063   6.962  10.854
 5411W        W 9475   0.347   5.022  10.773
 5412W        W 9476   3.756   1.269   0.855
 5413W        W 9477   9.082   0.264   0.820
 5414W        W 9478   7.920   3.346  10.212
 5415W        W 9479   8.160   2.743   9.026
 5416W        W 9480   9.859   9.770  10.622
 5417W        W 9481   4.379   8.699   8.338
 5418W        W 9482   6.280  10.334   9.813
 5419W        W 9483  10.329   4.745   9.301
 5420W        W 9484   3.182   6.266   0.286
 5421W        W 9485   5.023   3.843   1.887
 5422W        W 9486  10.209   5.737  11.723
 5423W        W 9487   3.308   5.258   2.269
 5424W        W 9488   1.242   6.571   9.682
 5425W        W 9489   1.681   7.874  10.920
 5426W        W 9490   7.254   7.182   9.987
 5427W        W 9491   5.741   1.785  10.759
 5428W        W 9492   3.053   3.264   9.980
 5429W        W 9493   7.300   6.051   9.964
 5430W        W 9494   6.425   1.201   0.843
 5431W        W 9495   7.577   0.199  11.872
 5432W        W 9496   1.947   9.350   2.856
 5433W        W 9497   8.379   7.003   3.410
 5434W        W 9498   0.415   6.863   2.960
 5435W        W 9499   6.185   0.157   9.390
 5436W        W 9500   1.915   7.577   9.528
 5437W        W 9501   7.137   4.521  10.264
 5438W        W 9502   5.242   2.651   2.377
 5439W        W 9503   5.696   3.900   9.141
 5440W        W 9504   4.294  10.007   8.968
 5441W        W 9505   3.399   7.420   1.850
 5442W        W 9506   5.664   0.283  11.444
 5443W        W 9507   1.263   7.071  10.040
 5444W        W 9508   7.470   8.270  11.911
 5445W        W 9509   2.878   1.029   2.507
 5446W        W 9510   0.088   7.558   0.188
 5447W        W 9511   5.083   7.543   3.517
 5448W        W 9512   1.261   3.711   9.556
 5449W        W 9513   4.703   4.681   2.426
 5450W        W 9514   4.224   9.378   0.878
 5451W        W 9515   3.209   1.420   9.583
 5452W        W 9516   3.156   7.133   3.586
 5453W        W 9517   1.145   5.403   1.817
 5454W        W 9518  10.031   7.035   9.573
 5455W        W 9519   9.716   7.732   8.318
 5456W        W 9520   7.540   8.174   9.908
 5457W        W 9521  10.016   6.383   3.158
 5458W        W 9522   6.528   0.250  11.430
 5459W        W 9523   2.000   4.773   9.021
 5460W        W 9524   5.636   0.906   1.676
 5461W        W 9525   2.431  10.446  10.553
 5462W        W 9526   0.187   9.795   2.390
 5463W        W 9527   2.631   4.293   2.758
 5464W        W 9528   6.113   8.808  11.847
 5465W        W 9529   4.710   6.006   1.525
 5466W        W 9530   7.524   4.275   2.797
 5467W        W 9531   5.273   3.595   0.944
 5468W        W 9532   4.610   5.921   3.817
 5469W        W 9533   9.815   9.903   3.553
 5470W        W 9534   3.420   1.831   1.371
 5471W        W 9535   4.425   5.651   1.292
 5472W        W 9536   7.688   9.971   9.583
 5473W        W 9537   6.021   9.467  10.490
 5474W        W 9538   8.321   7.032   8.643
 5475W        W 9539   8.511   7.996   2.681
 5476W        W 9540   2.882   7.582   1.842
 5477W        W 9541   1.880   1.398   3.680
 5478W        W 9542   3.625   9.186   0.274
 5479W        W 9543   1.407   7.107   0.993
 5480W        W 9544   1.691   0.203   9.369
 5481W        W 9545   6.730   6.565  10.766
 5482W        W 9546   5.623   9.856   9.318
 5483W        W 9547   0.331   0.948   9.485
 5484W        W 9548  10.423   6.172   0.991
 5485W        W 9549   5.080   6.151  10.567
 5486W        W 9550   0.110   9.178  11.323
 5487W        W 9551   7.102   7.140   1.380
 5488W        W 9552   5.014  10.443   8.790
 5489W        W 9553   3.747   6.191   9.167
 5490W        W 9554   3.335   0.486   1.154
 5491W        W 9555   4.808   2.900  10.993
 5492W        W 9556   2.746   3.236  11.267
 5493W        W 9557   6.504   9.877   3.031
 5494W        W 9558   4.245   9.547  11.382
 5495W        W 9559   0.714   9.129   0.646
 5496W        W 9560   9.063   2.293   8.416
 5497W        W 9561   9.954   6.635   9.907
 5498W        W 9562   5.161   9.995  11.104
 5499W        W 9563   7.015   2.656   2.784
 5500W        W 9564   3.804   2.949   9.681
 5501W        W 9565   3.215   2.370  11.287
 5502W        W 9566   6.572   3.789   8.911
 5503W        W 9567   1.037   7.902  11.905
 5504W        W 9568  10.350   3.134  10.111
 5505W        W 9569   3.050   2.813   2.345
 5506W        W 9570   0.487   5.649   2.346
 5507W        W 9571   7.739   1.543   1.050
 5508W        W 9572   1.141   9.732   9.742
 5509W        W 9573   2.169   6.124   9.936
 5510W        W 9574   9.268   6.523   8.714
 5511W        W 9575   0.284   5.941   3.484
 5512W        W 9576   8.098   6.464   0.457
 5513W        W 9577   7.556   1.916   1.340
 5514W        W 9578   9.834   3.351   3.056
 5515W        W 9579   5.443   2.973   8.871
 5516W        W 9580   6.007   6.610   1.868
 5517W        W 9581   6.175   0.842   3.033
 5518W        W 9582   7.595   1.581   9.698
 5519W        W 9583   0.439   6.500  11.274
 5520W        W 9584   6.289   6.136   0.346
 5521W        W 9585   3.839   3.135   2.393
 5522W        W 9586   2.839   0.441   1.298
 5523W        W 9587   3.730   9.535  11.308
 5524W        W 9588   0.681   3.583   3.720
 5525W        W 9589   7.934   6.693   1.765
 5526W        W 9590   9.246   2.838   9.131
 5527W        W 9591   1.278   0.988   9.511
 5528W        W 9592   1.369   1.486   9.528
 5529W        W 9593   1.856   3.792  11.261
 5530W        W 9594   9.067   5.284  11.420
 5531W        W 9595   4.230   8.017   0.151
 5532W        W 9596   5.070   4.092   2.793
 5533W        W 9597   3.746   3.307   9.295
 5534W        W 9598   6.083   3.253   0.194
 5535W        W 9599   3.525   8.014   2.424
 5536W        W 9600   3.331   0.692  10.635
 5537W        W 9601   0.137   7.071   0.885
 5538W        W 9602   4.497   7.594   0.053
 5539W        W 9603   1.876   0.859  10.385
 5540W        W 9604   7.279   5.402   4.099
 5541W        W 9605   1.803   6.673   0.601
 5542W        W 9606   3.944   5.540   1.130
 5543W        W 9607   8.560   8.868   2.286
 5544W        W 9608   5.057   4.903  11.479
 5545W        W 9609   9.066   5.759  11.585
 5546W        W 9610   5.269   6.418   9.952
 5547W        W 9611   5.704   6.411   0.882
 5548W        W 9612   2.431  10.326   3.493
 5549W        W 9613   2.499   0.839  10.948
 5550W        W 9614   1.035   5.673  10.455
 5551W        W 9615   7.127   2.250   1.997
 5552W        W 9616   3.983   0.312  10.939
 5553W        W 9617   7.465   6.320   2.468
 5554W        W 9618   2.252   1.921   9.232
 5555W        W 9619   5.945   7.564   3.547
 5556W        W 9620   4.423  10.352   0.497
 5557W        W 9621   4.145   6.602   8.630
 5558W        W 9622   5.740   2.528  11.833
 5559W        W 9623   6.973   7.136   9.510
 5560W        W 9624   7.400   2.258  10.745
 5561W        W 9625   6.444   5.631   0.152
 5562W        W 9626   3.345   9.564   8.557
 5563W        W 9627   2.181   5.917   0.874
 5564W        W 9628   5.990   2.812   0.439
 5565W        W 9629   6.499   2.460   8.551
 5566W        W 9630   0.833   2.806   2.362
 5567W        W 9631   2.098   8.459   0.688
 5568W        W 9632   4.208   6.104   0.435
 5569W        W 9633   5.710   1.277  10.923
 5570W        W 9634   6.405   9.122   0.915
 5571W        W 9635   0.047   6.437   3.077
 5572W        W 9636   5.148   1.812   8.856
 5573W        W 9637   5.906   0.961   0.432
 5574W        W 9638   2.021   9.961   3.556
 5575W        W 9639   4.666   9.432  10.572
 5576W        W 9640   7.047   8.583   1.264
 5577W        W 9641   1.675   8.547   9.536
 5578W        W 9642   8.058   7.960   2.963
 5579W        W 9643   6.106   0.490  11.123
 5580W        W 9644   1.171   0.423   0.178
 5581W        W 9645   1.524   4.250   0.248
 5582W        W 9646   9.431   4.609   3.540
 5583W        W 9647   3.149   3.629   9.567
 5584W        W 9648   8.923   8.838  11.556
 5585W        W 9649   9.770   7.455   0.730
 5586W        W 9650   3.275   1.568  10.883
 5587W        W 9651   7.403   1.631   0.459
 5588W        W 9652   5.901   8.052   2.356
 5589W        W 9653   7.001   2.786   9.747
 5590W        W 9654   2.651   2.821   0.992
 5591W        W 9655   3.012   9.784   3.170
 5592W        W 9656   9.555   7.143   2.493
 5593W        W 9657   8.003   6.317   3.667
 5594W        W 9658   4.717   0.337  11.963
 5595W        W 9659   0.265   5.428   1.361
 5596W        W 9660   5.984   7.994   1.412
 5597W        W 9661   6.576   3.656  11.034
 5598W        W 9662   7.131   1.364   3.169
 5599W        W 9663   9.913   7.153   2.881
 5600W        W 9664   9.830   0.978  11.214
 5601W        W 9665   5.223   3.151   9.384
 5602W        W 9666   9.342   6.052   8.970
 5603W        W 9667   1.333   9.974   1.902
 5604W        W 9668   6.971   8.106  11.833
 5605W        W 9669   3.140   6.670   0.551
 5606W        W 9670   7.282  10.397  10.037
 5607W        W 9671   7.516   2.369   1.137
 5608W        W 9672   6.597   2.123  10.004
 5609W        W 9673   9.446   1.053   0.966
 5610W        W 9674   2.261   9.126  10.105
 5611W        W 9675   8.089   1.414  11.852
 5612W        W 9676   5.628   3.400   2.372
 5613W        W 9677   3.801   5.951   9.613
 5614W        W 9678  10.448   1.957   0.048
 5615W        W 9679   4.127   1.323   2.233
 5616W        W 9680   4.688   9.281   1.981
 5617W        W 9681   7.849   5.610   0.201
 5618W        W 9682   5.542   8.912   2.498
 5619W        W 9683   0.788   5.184  10.994
 5620W        W 9684   8.974   4.576   0.786
 5621W        W 9685   5.207   9.949   9.048
 5622W        W 9686   0.246   6.929   0.366
 5623W        W 9687   8.026   4.498   9.042
 5624W        W 9688   0.259   2.837   2.364
 5625W        W 9689   7.445   3.133  10.248
 5626W        W 9690   1.502   9.130   3.773
 5627W        W 9691   2.266  10.031  10.936
 5628W        W 9692   8.855   8.803   1.320
 5629W        W 9693   6.557   7.853   2.839
 5630W        W 9694   0.926   8.628   0.122
 5631W        W 9695   4.195   6.080   1.482
 5632W        W 9696   6.565   8.650   0.004
 5633W        W 9697   2.429   1.714   0.187
 5634W        W 9698   0.178   9.961   8.906
 5635W        W 9699   7.584   8.008   2.253
 5636W        W 9700   2.277   5.116   1.980
 5637W        W 9701   2.722   3.570  10.279
 5638W        W 9702   5.278   2.646   1.186
 5639W        W 9703   5.948   9.023   1.195
 5640W        W 9704   7.831   3.274   3.535
 5641W        W 9705   4.687   7.934  11.705
 5642W        W 9706   1.964   8.889   0.197
 5643W        W 9707  10.481   0.242   9.412
 5644W        W 9708   4.997   4.458  10.097
 5645W        W 9709   0.545  10.405   2.939
 5646W        W 9710   4.541   2.855   3.445
 5647W        W 9711   7.252   3.172   1.544
 5648W        W 9712   8.423   8.091   9.781
 5649W        W 9713   1.560   8.560  11.290
 5650W        W 9714   0.888   8.013   1.230
 5651W        W 9715   8.145   3.642   1.222
 5652W        W 9716   1.896   7.868   1.965
 5653W        W 9717   2.871   9.422   1.376
 5654W        W 9718   8.514   2.446   1.248
 5655W        W 9719   1.822   1.201   9.775
 5656W        W 9720   3.312   5.036   1.788
 5657W        W 9721   7.031   5.956   9.114
 5658W        W 9722   0.118   5.394  10.508
 5659W        W 9723   6.077  10.291   1.689
 5660W        W 9724   4.081   2.911  11.381
 5661W        W 9725   6.439   9.276   9.341
 5662W        W 9726   6.928   8.958  11.294
 5663W        W 9727   3.479   2.204   1.019
 5664W        W 9728   3.338   6.732  11.754
 5665W        W 9729   0.592   4.974  11.420
 5666W        W 9730  10.368   5.427  11.357
 5667W        W 9731   5.554   4.117   1.836
 5668W        W 9732   0.880   2.370   3.118
 5669W        W 9733   5.249   7.045   9.121
 5670W        W 9734   3.257   5.140   9.279
 5671W        W 9735   0.503   8.262   9.044
 5672W        W 9736   0.996   7.383   0.765
 5673W        W 9737   1.002   2.137   0.215
 5674W        W 9738   7.871   6.645   0.016
 5675W        W 9739   9.343   0.548   3.100
 5676W        W 9740   4.582   4.589   3.985
 5677W        W 9741   6.423   0.156  11.958
 5678W        W 9742  10.490   3.930   0.151
 5679W        W 9743   6.068   9.336   9.995
 5680W        W 9744   4.552   5.300   9.701
 5681W        W 9745   8.508   5.901   9.546
 5682W        W 9746   9.898   8.288  11.985
 5683W        W 9747   5.639   1.811   9.000
 5684W        W 9748   1.241   0.314  11.027
 5685W        W 9749   3.204   8.347   8.852
 5686W        W 9750   9.479   7.855  10.969
 5687W        W 9751   9.927   9.805   1.667
 5688W        W 9752   5.706   3.482  10.348
 5689W        W 9753   7.403   3.095   8.832
 5690W        W 9754   1.845   7.890   0.471
 5691W        W 9755   1.363   3.826   1.058
 5692W        W 9756   5.141   8.638   0.637
 5693W        W 9757   0.752   0.887  11.541
 5694W        W 9758   1.392   0.233   9.894
 5695W        W 9759   8.155   5.989   1.347
 5696W        W 9760   9.500   5.733   1.227
 5697W        W 9761   0.877   5.429  10.017
 5698W        W 9762   3.673   5.907   3.639
 5699W        W 9763   3.490  10.313   9.372
 5700W        W 9764   7.711   1.819   8.698
 5701W        W 9765   1.299   4.952  10.960
 5702W        W 9766   7.688   6.370   9.849
 5703W        W 9767   5.088   3.652   1.407
 5704W        W 9768   1.209  10.253   1.398
 5705W        W 9769   6.605   3.275   3.325
 5706W        W 9770   0.860   4.001   9.461
 5707W        W 9771   1.318   7.840  10.562
 5708W        W 9772   3.430   7.527   2.698
 5709W        W 9773   2.807   4.074  10.206
 5710W        W 9774   1.675   2.788  11.505
 5711W        W 9775   0.859   6.465  11.568
 5712W        W 9776   5.473   8.423   3.209
 5713W        W 9777   2.196   3.316   1.863
 5714W        W 9778   5.990   5.436  11.984
 5715W        W 9779   7.667   0.113   0.771
 5716W        W 9780   2.148   9.310   9.618
 5717W        W 9781   7.666   1.211   0.651
 5718W        W 9782   3.716   3.639   1.660
 5719W        W 9783   7.095  10.475   3.166
 5720W        W 9784   5.681   0.786  11.131
 5721W        W 9785   7.987   2.618   0.251
 5722W        W 9786   3.325   0.731  11.465
 5723W        W 9787   8.769   2.271   9.877
 5724W        W 9788   2.774   1.473   9.897
 5725W        W 9789   6.927   4.988  10.281
 5726W        W 9790   4.492   5.171   3.657
 5727W        W 9791   1.245   9.269   1.268
 5728W        W 9792   2.403   5.671   9.960
 5729W        W 9793   3.219   3.321   9.124
 5730W        W 9794   9.128   3.271   1.907
 5731W        W 9795   5.500   3.719   0.510
 5732W        W 9796   0.202   9.575  11.957
 5733W        W 9797   5.103   3.154   1.180
 5734W        W 9798   5.675   6.440   3.146
 5735W        W 9799  10.331   7.186  10.867
 5736W        W 9800   9.909   9.034   1.485
 5737W        W 9801   6.889   9.918   2.632
 5738W        W 9802   4.609   2.386   0.703
 5739W        W 9803   1.345   0.877   0.345
 5740W        W 9804   6.155   0.075  10.774
 5741W        W 9805   3.746   5.030   2.149
 5742W        W 9806   1.239   0.996   3.094
 5743W        W 9807   3.878   0.898  11.187
 5744W        W 9808   7.450   9.560   9.758
 5745W        W 9809   7.045   8.143  11.316
 5746W        W 9810  10.072  10.411   2.865
 5747W        W 9811   1.836   1.685   9.587
 5748W        W 9812   4.746  10.458   9.663
 5749W        W 9813   6.333   9.901   8.651
 5750W        W 9814   2.894   7.569   9.358
 5751W        W 9815   2.410   6.118  11.466
 5752W        W 9816   7.635   5.411   2.185
 5753W        W 9817   4.546   3.141   1.803
 5754W        W 9818   8.963   0.490   9.134
 5755W        W 9819   8.354   2.254  10.233
 5756W        W 9820   9.153  10.295   1.277
 5757W        W 9821   6.970   6.107  10.834
 5758W        W 9822   4.443   7.741   1.252
 5759W        W 9823   9.482   2.266   3.436
 5760W        W 9824   4.112   7.025   3.307
 5761W        W 9825   4.572   8.803   2.131
 5762W        W 9826   2.185   2.361   9.537
 5763W        W 9827   4.678   8.385  11.443
 5764W        W 9828   4.530   5.482   9.222
 5765W        W 9829   5.184   0.953  10.929
 5766W        W 9830   9.469   4.869   2.960
 5767W        W 9831  10.095   2.839   3.587
 5768W        W 9832   4.632   0.441   1.517
 5769W        W 9833   3.478   5.588   8.183
 5770W        W 9834   8.604   0.982   0.926
 5771W        W 9835   1.466   9.315   8.753
 5772W        W 9836   2.224   6.413   0.778
 5773W        W 9837   2.907   4.795   0.854
 5774W        W 9838   8.102   8.512   1.122
 5775W        W 9839   8.850   7.413  10.231
 5776W        W 9840   0.978  10.205  10.555
 5777W        W 9841   7.356   4.100   1.011
 5778W        W 9842   1.162   6.530  12.000
 5779W        W 9843   2.486   9.596  10.773
 5780W        W 9844   7.093   9.947  10.229
 5781W        W 9845   3.083   7.995   9.558
 5782W        W 9846   0.432   5.212   9.393
 5783W        W 9847   9.188   8.064   3.329
 5784W        W 9848   0.302   8.597  11.926
 5785W        W 9849   7.503   5.509   3.619
 5786W        W 9850   0.524   8.614  10.611
 5787W        W 9851   8.392   9.454   1.947
 5788W        W 9852   8.966   6.641  11.512
 5789W        W 9853   0.877   2.159   9.017
 5790W        W 9854   7.504   6.536   1.997
 5791W        W 9855   4.537   4.110   1.270
 5792W        W 9856   0.455   4.556  10.534
 5793W        W 9857   3.704   0.803   2.735
 5794W        W 9858   5.503   3.321  10.831
 5795W        W 9859   2.496   1.735  11.338
 5796W        W 9860   2.364   0.336   1.942
 5797W        W 9861   3.160   5.260   3.222
 5798W        W 9862   4.245  10.214  11.727
 5799W        W 9863   0.443   4.657   3.459
 5800W        W 9864   9.138   6.629  10.568
 5801W        W 9865  10.313   7.208   0.445
 5802W        W 9866   0.725   6.072   9.846
 5803W        W 9867   0.185   8.116   0.083
 5804W        W 9868   2.129   2.095   0.030
 5805W        W 9869   3.623   4.965   4.215
 5806W        W 9870   4.585   5.617   2.364
 5807W        W 9871   7.520   2.638   0.002
 5808W        W 9872   8.994   9.443  10.482
 5809W        W 9873   9.992  10.242  11.055
 5810W        W 9874   3.364   8.379   0.613
 5811W        W 9875   0.957  10.395   0.970
 5812W        W 9876   8.439   1.767  10.391
 5813W        W 9877   3.163   4.788   0.369
 5814W        W 9878   5.644   2.310   2.885
 5815W        W 9879   0.498   1.129  10.511
 5816W        W 9880   3.631   8.140   3.349
 5817W        W 9881   9.359   9.449   0.079
 5818W        W 9882   1.674   3.796  10.275
 5819W        W 9883   6.197   7.668  11.141
 5820W        W 9884   2.606  10.365   1.296
 5821W        W 9885   9.098   9.877   0.966
 5822W        W 9886   0.666   8.226  11.973
 5823W        W 9887   9.979   4.621  11.790
 5824W        W 9888   1.450   3.451   2.568
 5825W        W 9889   3.805   9.324   2.678
 5826W        W 9890   3.070   9.598   9.848
 5827W        W 9891   0.386   3.910   9.615
 5828W        W 9892   1.319   3.751   9.042
 5829W        W 9893   0.879   8.558   1.392
 5830W        W 9894   4.045   7.489   8.993
 5831W        W 9895   3.335   0.467   0.158
 5832W        W 9896   9.443   9.963   1.785
 5833W        W 9897   2.315   5.966   0.365
 5834W        W 9898   3.821   0.427  11.952
 5835W        W 9899   1.132   9.798   3.409
 5836W        W 9900   9.508   3.446  11.010
 5837W        W 9901   2.124   4.378   2.827
 5838W        W 9902   4.953   7.148   8.475
 5839W        W 9903   4.226   1.791   9.804
 5840W        W 9904   0.493  10.309   0.780
 5841W        W 9905   2.661   5.963  10.783
 5842W        W 9906   0.777   0.328   9.958
 5843W        W 9907   6.565   1.644  11.831
 5844W        W 9908   4.541   5.071   3.147
 5845W        W 9909   4.046   5.043   3.925
 5846W        W 9910   1.938   4.709   1.961
 5847W        W 9911   1.854   7.027   8.876
 5848W        W 9912   8.289   2.328   9.726
 5849W        W 9913   4.655   5.018  11.757
 5850W        W 9914   5.063   4.976  10.106
 5851W        W 9915   0.220   7.033   1.845
 5852W        W 9916  10.342   0.059   2.103
 5853W        W 9917   6.792   6.950   9.952
 5854W        W 9918   1.053   3.979  10.424
 5855W        W 9919   6.986   4.494   1.938
 5856W        W 9920   5.954   6.447   2.721
 5857W        W 9921   1.965   9.757   9.449
 5858W        W 9922   3.064  10.015  11.987
 5859W        W 9923   2.579   6.606  11.564
 5860W        W 9924   4.720   0.729  11.628
 5861W        W 9925   7.139   1.743   9.964
 5862W        W 9926   2.634  10.292   1.813
 5863W        W 9927  10.080   9.531   2.857
 5864W        W 9928   2.191   2.298   2.312
 5865W        W 9929   1.318   3.096  11.337
 5866W        W 9930   3.764   9.342   9.474
 5867W        W 9931   0.521  10.480  11.867
 5868W        W 9932   0.973   3.349  11.598
 5869W        W 9933  10.309   7.937   9.735
 5870W        W 9934   6.119   6.634   9.515
 5871W        W 9935   0.491   5.729  10.186
 5872W        W 9936   6.785   5.165   4.070
 5873W        W 9937   7.847   3.105   0.197
 5874W        W 9938   3.767   7.153   0.365
 5875W        W 9939   6.479   4.077  10.208
 5876W        W 9940   7.820   8.466   3.623
 5877W        W 9941   6.632   2.629  10.052
 5878W        W 9942   5.979   5.692   1.251
 5879W        W 9943   4.128   4.276   1.821
 5880W        W 9944  10.473  10.401  10.392
 5881W        W 9945   5.543   9.588  11.947
 5882W        W 9946   5.515   0.263   3.232
 5883W        W 9947   6.439   4.024  11.400
 5884W        W 9948   9.498   1.417   2.220
 5885W        W 9949   8.342   5.775  10.880
 5886W        W 9950   5.712   2.155   3.412
 5887W        W 9951   3.077   9.365   1.868
 5888W        W 9952   5.027   5.064   2.921
 5889W        W 9953   2.525   2.755   9.418
 5890W        W 9954   0.334   3.033   9.819
 5891W        W 9955   4.112   3.880  11.297
 5892W        W 9956   1.272   8.951   2.520
 5893W        W 9957   1.959   0.377   3.486
 5894W        W 9958   7.892   8.428   3.114
 5895W        W 9959   6.498   7.302   1.741
 5896W        W 9960   7.250   0.855   9.982
 5897W        W 9961   1.237   8.168   3.526
 5898W        W 9962   6.513   5.740   3.871
 5899W        W 9963   2.326   5.196  10.212
 5900W        W 9964   5.025   3.433   8.052
 5901W        W 9965   1.154   4.304   0.985
 5902W        W 9966   1.595   4.977   9.930
 5903W        W 9967   8.655   1.722   3.497
 5904W        W 9968   3.542   3.085   1.939
 5905W        W 9969   2.197   5.213   3.529
 5906W        W 9970   5.524   2.632   3.292
 5907W        W 9971   7.238   6.209   0.439
 5908W        W 9972   5.228   1.351  11.675
 5909W        W 9973   9.130   7.025   0.684
 5910W        W 9974   2.298   2.791   9.911
 5911W        W 9975  10.023   4.026  10.510
 5912W        W 9976  10.073   1.329  10.213
 5913W        W 9977   7.713   9.472   2.656
 5914W        W 9978   0.862   1.640  10.294
 5915W        W 9979   3.765   8.459  11.024
 5916W        W 9980   3.086   0.032   0.001
 5917W        W 9981   1.982   9.357   1.019
 5918W        W 9982   5.353   6.868   3.112
 5919W        W 9983   9.721  10.411   0.434
 5920W        W 9984   4.309   2.435  10.313
 5921W        W 9985   7.710   8.006   0.283
 5922W        W 9986   4.708   1.388   1.507
 5923W        W 9987   6.594   9.691  11.979
 5924W        W 9988   3.280   5.761   2.310
 5925W        W 9989   6.031   4.305   9.973
 5926W        W 9990   5.030   1.347   9.207
 5927W        W 9991   6.946   9.498  10.527
 5928W        W 9992   0.599   6.574   0.508
 5929W        W 9993   8.911  10.367   9.044
 5930W        W 9994   9.153   7.025   9.845
 5931W        W 9995   9.350   5.172   0.761
 5932W        W 9996   9.909   7.541   9.840
 5933W        W 9997   9.682   0.469   2.434
 5934W        W 9998   2.308   9.784   1.045
 5935W        W 9999   8.170   3.145   1.991
 5936W        W10000   3.316   1.256   2.248
 5937W        W10001   6.042   1.812   2.965
 5938W        W10002   6.060   7.409  10.309
 5939W        W10003   2.417   9.431   2.692
 5940W        W10004   7.232   1.207   9.595
 5941W        W10005   2.721   1.979  10.008
 5942W        W10006   8.618   9.532  10.824
 5943W        W10007   9.378   7.031   1.990
 5944W        W10008   5.727   6.089   2.443
 5945W        W10009   3.919   1.362  11.397
 5946W        W10010   3.250   4.321   1.288
 5947W        W10011   4.535   4.053   9.834
 5948W        W10012   5.204   5.594   3.104
 5949W        W10013   7.982   3.606   2.679
 5950W        W10014   2.782   3.368  10.750
 5951W        W10015   4.759   9.949   8.814
 5952W        W10016   1.880  10.319   8.745
 5953W        W10017   7.412   4.989   9.987
 5954W        W10018   1.909   2.325   0.472
 5955W        W10019   1.092   5.588   1.060
 5956W        W10020  10.274   8.045   1.405
 5957W        W10021   0.830   8.095  11.470
 5958W        W10022   0.996   0.018   8.595
 5959W        W10023   5.415   7.589   4.263
 5960W        W10024   0.011   5.854   2.450
 5961W        W10025   5.447   0.388   9.384
 5962W        W10026  10.450   7.006   9.259
 5963W        W10027   4.592   7.414  11.610
 5964W        W10028   1.313   2.367   9.193
 5965W        W10029   6.996   7.687  11.555
 5966W        W10030   5.291   2.169  10.087
 5967W        W10031   5.481   4.003  11.675
 5968W        W10032   3.327   5.525   3.649
 5969W        W10033   1.776   7.592   3.150
 5970W        W10034   8.985   1.465   2.199
 5971W        W10035   4.385   4.531   9.491
 5972W        W10036   6.588   2.108   0.037
 5973W        W10037   4.654  10.478  11.596
 5974W        W10038   3.194   7.053   9.985
 5975W        W10039   4.627   4.405   8.402
 5976W        W10040   3.217   9.919   2.721
 5977W        W10041   3.373   3.473   3.360
 5978W        W10042   5.756   5.568   8.589
 5979W        W10043   6.063  10.080  11.041
 5980W        W10044   2.558   9.431   1.812
 5981W        W10045   2.970   6.066   3.123
 5982W        W10046   9.984   9.721   0.812
 5983W        W10047   9.894   1.638   3.185
 5984W        W10048   5.558   4.360   8.447
 5985W        W10049   2.552   9.170  10.507
 5986W        W10050   1.258  10.326   0.536
 5987W        W10051   9.209   1.010   2.366
 5988W        W10052   5.099   8.166   0.441
 5989W        W10053  10.209   8.863   9.092
 5990W        W10054   9.534   1.400   2.826
 5991W        W10055  10.040   1.741   9.043
 5992W        W10056   2.518   8.233   0.854
 5993W        W10057   8.462   1.075  10.513
 5994W        W10058   3.719   7.103   1.020
 5995W        W10059   6.605   6.570  10.237
 5996W        W10060   3.041   2.675   9.360
 5997W        W10061   8.949   5.985   3.175
 5998W        W10062   8.734   3.872   3.768
 5999W        W10063   9.119  10.270  11.050
 6000W        W10064   9.816   8.925   3.367
 6001W        W10065   5.703   4.757   9.003
 6002W        W10066   0.287   2.244   1.271
 6003W        W10067   2.661   3.858  10.737
 6004W        W10068  10.270   2.616   1.501
 6005W        W10069   3.379   8.474   2.653
 6006W        W10070   5.485   2.258   8.799
 6007W        W10071   3.709   4.127   3.551
 6008W        W10072   5.609   4.884   8.498
 6009W        W10073   3.340   7.503   9.722
 6010W        W10074   4.673   8.143   1.427
 6011W        W10075   9.096   1.615   2.676
 6012W        W10076   9.510   9.922   1.284
 6013W        W10077   8.697   2.723   9.082
 6014W        W10078   2.631   3.065  10.339
 6015W        W10079   2.277   3.842  10.320
 6016W        W10080   0.641   7.597  10.556
 6017W        W10081   6.695   1.669  11.295
 6018W        W10082   8.560   8.869  11.972
 6019W        W10083   2.280   9.874   1.900
 6020W        W10084   6.366   0.480   8.997
 6021W        W10085   7.344   5.725   0.227
 6022W        W10086   9.852   9.228   8.928
 6023W        W10087   6.678   7.875   3.342
 6024W        W10088   1.852   6.536   1.123
 6025W        W10089   8.097   9.428   1.087
 6026W        W10090   7.416   5.614   0.707
 6027W        W10091   0.285   4.741   9.564
 6028W        W10092   1.643   1.984   0.174
 6029W        W10093   2.227  10.298  11.956
 6030W        W10094   5.704   1.584   0.273
 6031W        W10095   0.782   1.248   9.343
 6032W        W10096   2.637   5.497   9.522
 6033W        W10097   2.884   4.272   3.234
 6034W        W10098   8.899  10.451   2.706
 6035W        W10099   1.831   3.706   8.929
 6036W        W10100   7.917  10.358   9.345
 6037W        W10101   5.216   1.891   1.695
 6038W        W10102   6.597   3.063  11.734
 6039W        W10103   6.379   3.292  10.727
 6040W        W10104   8.123   5.728  11.778
 6041W        W10105   8.949   5.304  11.967
 6042W        W10106   1.849   1.280   8.773
 6043W        W10107   8.794   0.170   1.248
 6044W        W10108   3.310   8.147   1.118
 6045W        W10109   0.692   9.846   8.915
 6046W        W10110   4.264   7.571   3.025
 6047W        W10111   5.499   5.005   9.408
 6048W        W10112   2.400   9.972   0.588
 6049W        W10113   1.785   5.686   2.846
 6050W        W10114   6.517  10.458   1.130
 6051W        W10115   5.064   0.785  10.461
 6052W        W10116   6.035   2.252  10.774
 6053W        W10117   8.083   9.708   2.396
 6054W        W10118   7.265   7.957   1.817
 6055W        W10119   4.156   1.429   3.244
 6056W        W10120   4.084   2.644   2.208
 6057W        W10121   0.254   9.625  10.995
 6058W        W10122   6.925   1.340   1.671
 6059W        W10123   5.167   9.279   1.833
 6060W        W10124   8.199   2.433   0.841
 6061W        W10125   3.794   0.892  10.692
 6062W        W10126   6.006   7.226   2.507
 6063W        W10127   3.272   5.790   0.438
 6064W        W10128   6.884   8.904   9.410
 6065W        W10129   7.608   7.577  10.473
 6066W        W10130   3.472   5.505   0.840
 6067W        W10131   2.019   5.356  11.723
 6068W        W10132   8.563   0.716   0.060
 6069W        W10133   0.407   2.390   0.785
 6070W        W10134   9.732   7.874   9.060
 6071W        W10135   1.788   2.673   0.839
 6072W        W10136   7.889  10.344  10.993
 6073W        W10137   9.140   0.333  10.469
 6074W        W10138   5.857   8.438   8.379
 6075W        W10139   5.111   5.181  11.966
 6076W        W10140   4.703   7.358   1.822
 6077W        W10141   4.294   4.721   2.705
 6078W        W10142   1.005   5.577   2.359
 6079W        W10143   6.124   0.471  11.642
 6080W        W10144   7.923   5.224  11.846
 6081W        W10145   7.158   1.703   9.440
 6082W        W10146   5.722   7.558   9.559
 6083W        W10147   9.268   8.766   9.377
 6084W        W10148   7.521   4.983   1.109
 6085W        W10149   8.816   0.716  10.317
 6086W        W10150   1.739   1.789   0.643
 6087W        W10151   1.692   0.811   1.595
 6088W        W10152   1.211   5.155   3.509
 6089W        W10153  10.242   2.759   2.387
 6090W        W10154  10.479   8.912   1.656
 6091W        W10155   5.673   1.694  11.252
 6092W        W10156   8.079   1.287   0.353
 6093W        W10157   2.178  10.467   9.588
 6094W        W10158   2.650   6.358  11.101
 6095W        W10159   4.161   9.419   3.188
 6096W        W10160   8.842   5.088   0.832
 6097W        W10161   9.500   9.056   0.821
 6098W        W10162   9.301   9.828  10.047
 6099W        W10163   2.873   3.144   9.479
 6100W        W10164   3.125   6.214  10.044
 6101W        W10165   6.658   3.231   2.223
 6102W        W10166   6.900   6.993   3.109
 6103W        W10167   8.690   2.384  11.121
 6104W        W10168   3.154   4.378  11.424
 6105W        W10169   4.195   0.039   9.560
 6106W        W10170   6.615   7.610   9.530
 6107W        W10171   2.461   1.660  10.278
 6108W        W10172   0.239   5.719  11.540
 6109W        W10173   8.399   7.776  11.493
 6110W        W10174   0.206   1.793  11.174
 6111W        W10175   4.562   9.514   9.020
 6112W        W10176   3.561   2.817   9.240
 6113W        W10177   0.064   1.344  10.338
 6114W        W10178   7.617   0.645   0.805
 6115W        W10179   2.180   8.144  10.150
 6116W        W10180   8.989   1.229  10.245
 6117W        W10181   3.830   8.036  11.354
 6118W        W10182   9.000   5.521   0.494
 6119W        W10183   6.466   4.442   8.420
 6120W        W10184   7.939   2.816  11.767
 6121W        W10185   6.397   0.969   0.388
 6122W        W10186   7.088   5.552   3.257
 6123W        W10187   3.463   5.026   0.006
 6124W        W10188   4.634   0.242   3.431
 6125W        W10189   1.561  10.175   3.732
 6126W        W10190   3.623   3.148   8.818
 6127W        W10191   2.850   4.651   2.504
 6128W        W10192   7.088   4.023   2.083
 6129W        W10193   9.697   7.534   3.168
 6130W        W10194   2.682   4.997   0.428
 6131W        W10195   8.866   7.695   9.235
 6132W        W10196   6.872   1.244   9.968
 6133W        W10197   5.896   8.139   0.444
 6134W        W10198   7.198   4.901   3.917
 6135W        W10199   4.568   0.005   1.008
 6136W        W10200   8.533   4.054  11.347
 6137W        W10201   3.175   5.680  11.239
 6138W        W10202   5.625   2.650   1.893
 6139W        W10203   6.376   8.804   9.540
 6140W        W10204   2.592   1.981   2.149
 6141W        W10205   3.369   9.785   1.844
 6142W        W10206   0.661   7.715   8.473
 6143W        W10207   5.642   8.328   1.177
 6144W        W10208   2.482   4.817   9.880
 6145W        W10209   0.247   4.355  11.969
 6146W        W10210   3.714   0.868   1.199
 6147W        W10211   0.406   3.831   9.119
 6148W        W10212   5.933   9.531   2.506
 6149W        W10213   1.709   3.789   1.849
 6150W        W10214   4.787   6.264   2.416
 6151W        W10215   1.710   8.091   3.330
 6152W        W10216   1.738   3.887   9.407
 6153W        W10217   4.726   0.769  11.098
 6154W        W10218   9.889   8.504  11.506
 6155W        W10219   0.401   6.162   2.481
 6156W        W10220   2.346   1.790   9.721
 6157W        W10221   8.027   5.085   2.124
 6158W        W10222   5.462  10.324  10.224
 6159W        W10223   3.326   2.359   2.635
 6160W        W10224   1.816   3.559   3.455
 6161W        W10225   5.131   9.547   0.272
 6162W        W10226   6.035   1.291   2.794
 6163W        W10227   8.903   2.031   2.455
 6164W        W10228   9.118   5.176   1.918
 6165W        W10229   0.711   7.186   1.719
 6166W        W10230   2.260   4.158   0.894
 6167W        W10231   7.141   1.241   0.707
 6168W        W10232   7.597   2.840   0.963
 6169W        W10233   6.765   6.916   2.629
 6170W        W10234   9.497   8.328   2.524
 6171W        W10235   1.218   2.821   9.457
 6172W        W10236   2.209   9.311  11.894
 6173W        W10237   7.514   5.611  10.892
 6174W        W10238   0.379   0.857   0.926
 6175W        W10239   5.579   4.296   2.613
 6176W        W10240   1.415   3.388   0.302
 6177W        W10241   8.908   9.455   1.800
 6178W        W10242   4.720   5.762  11.356
 6179W        W10243   7.239   2.539   0.737
 6180W        W10244   3.692   7.980   1.423
 6181W        W10245   7.739  10.215   0.011
 6182W        W10246   0.389   5.988  11.148
 6183W        W10247   0.796   0.428  11.813
 6184W        W10248   3.107   3.566   0.017
 6185W        W10249   0.314   8.592   3.110
 6186W        W10250   4.254   9.185   9.463
 6187W        W10251   2.369   3.074   0.346
 6188W        W10252   3.158   2.720   3.535
 6189W        W10253   5.215   3.841   8.957
 6190W        W10254   2.843   8.850   1.174
 6191W        W10255  10.311   5.678   1.723
 6192W        W10256   0.965   2.136  10.422
 6193W        W10257   5.540   2.646   0.299
 6194W        W10258   6.460   4.299   8.922
 6195W        W10259   3.243   9.277  11.498
 6196W        W10260   3.781   4.697   0.975
 6197W        W10261   0.891   1.413   1.949
 6198W        W10262   9.530   1.593  11.725
 6199W        W10263   8.102   8.265   0.598
 6200W        W10264   1.844   5.095  10.339
 6201W        W10265   9.959   6.398   1.813
 6202W        W10266   4.946   6.446   0.313
 6203W        W10267   3.364   9.894  10.687
 6204W        W10268   6.539   2.468   2.866
 6205W        W10269   5.294   3.282   8.489
 6206W        W10270   8.949   3.158   8.894
 6207W        W10271   3.207   1.362  10.124
 6208W        W10272   9.767   6.559   8.870
 6209W        W10273   9.910   6.980   8.536
 6210W        W10274   4.617   1.546   2.875
 6211W        W10275   4.639   2.671   2.410
 6212W        W10276   3.990   4.247  11.646
 6213W        W10277   4.416   8.717   9.534
 6214W        W10278   6.235   6.904   0.004
 6215W        W10279   6.117   4.937   0.916
 6216W        W10280   2.773  10.110   2.319
 6217W        W10281   2.124  10.021   9.867
 6218W        W10282   4.692   0.993  10.201
 6219W        W10283   6.574   1.904   1.359
 6220W        W10284   6.118  10.405  10.294
 6221W        W10285   9.340   9.551   2.109
 6222W        W10286   8.373   5.462   8.558
 6223W        W10287   5.480   1.230   0.597
 6224W        W10288   0.640   9.853   9.821
 6225W        W10289   6.859   0.892   1.404
 6226W        W10290   5.222   3.200  11.733
 6227W        W10291   6.096   2.673   9.035
 6228W        W10292   0.475   9.047   3.547
 6229W        W10293   8.132   3.584   8.921
 6230W        W10294   0.689   1.809  11.979
 6231W        W10295   0.975   6.045   9.295
 6232W        W10296   8.047   7.587  10.837
 6233W        W10297   7.966   9.461   1.600
 6234W        W10298   6.967   3.781   9.700
 6235W        W10299   6.074   2.079   1.173
 6236W        W10300   9.322   7.497  10.622
 6237W        W10301   6.600   2.974   2.894
 6238W        W10302   5.635   9.364   1.702
 6239W        W10303   7.085   8.608  11.967
 6240W        W10304   2.843   2.374  10.904
 6241W        W10305   8.567   9.431   8.975
 6242W        W10306   1.318   6.079   1.032
 6243W        W10307   5.248   1.850  10.944
 6244W        W10308   9.097   6.982  11.151
 6245W        W10309   0.038   1.724   1.190
 6246W        W10310   6.589   0.792  10.002
 6247W        W10311   5.957   3.810   8.209
 6248W        W10312   9.248   2.186   9.993
 6249W        W10313   4.078   6.610   1.479
 6250W        W10314   5.176   9.009   9.950
 6251W        W10315   6.108   2.797   1.703
 6252W        W10316   5.220   4.694   9.719
 6253W        W10317   1.650   4.098   3.682
 6254W        W10318   7.363   5.147  11.008
 6255W        W10319   4.526   3.597   9.602
 6256W        W10320   1.954   1.365   2.871
 6257W        W10321   3.085   2.258   9.001
 6258W        W10322   9.464   8.258   0.284
 6259W        W10323   0.846   1.537   8.914
 6260W        W10324   3.832   7.697   1.826
 6261W        W10325   5.605   9.350  10.970
 6262W        W10326   0.732   2.991   1.502
 6263W        W10327   6.922   5.956   1.780
 6264W        W10328   3.054   4.037  11.070
 6265W        W10329   3.081   8.936   9.102
 6266W        W10330   9.845   2.226   0.682
 6267W        W10331   7.953   6.182   1.793
 6268W        W10332  10.231   0.755   0.306
 6269W        W10333   7.511   3.574   8.970
 6270W        W10334   5.929   0.549   9.606
 6271W        W10335   7.925   4.577   2.020
 6272W        W10336   6.914   0.282  10.538
 6273W        W10337   2.174   0.483  11.235
 6274W        W10338   3.304   0.756   2.418
 6275W        W10339   5.804   0.021   9.877
 6276W        W10340  10.346   1.285   3.332
 6277W        W10341   1.233   4.259  11.798
 6278W        W10342   6.635   6.053   8.761
 6279W        W10343   8.001   0.477   3.351
 6280W        W10344   1.436   0.338   2.050
 6281W        W10345   0.341   3.811   1.724
 6282W        W10346   7.926   9.986  10.641
 6283W        W10347   4.141   2.691   0.195
 6284W        W10348   9.520   5.201   9.072
 6285W        W10349   4.186   3.759   1.843
 6286W        W10350   6.632   3.817   2.468
 6287W        W10351   7.705   3.148   1.769
 6288W        W10352   5.392   0.427   2.751
 6289W        W10353   4.894   9.788   3.571
 6290W        W10354   3.782   2.122   8.609
 6291W        W10355   5.453   5.260   9.907
 6292W        W10356   3.122   4.765  10.568
 6293W        W10357   6.962   4.046  10.359
 6294W        W10358   0.281   1.735   3.093
 6295W        W10359   5.577   0.271  11.958
 6296W        W10360   3.286  10.330   3.442
 6297W        W10361   3.439   7.599   3.657
 6298W        W10362   1.253   1.709   0.373
 6299W        W10363   1.699   8.640   4.094
 6300W        W10364   3.731   1.170   3.066
 6301W        W10365   6.045   8.029  11.525
 6302W        W10366   2.859   3.136   0.180
 6303W        W10367   4.247   5.705   9.642
 6304W        W10368   3.667   8.701   1.837
 6305W        W10369   5.559   9.827   0.434
 6306W        W10370   2.269   4.743  11.737
 6307W        W10371   4.172   0.901   2.539
 6308W        W10372   6.776   3.244   1.724
 6309W        W10373   2.475   7.323  10.198
 6310W        W10374   7.930   0.343  11.045
 6311W        W10375   7.370   3.691   1.403
 6312W        W10376   9.844   5.976  11.433
 6313W        W10377   6.228   7.003   9.160
 6314W        W10378   9.155   0.883   9.905
 6315W        W10379   2.786   5.139  10.494
 6316W        W10380   7.458   2.889   2.916
 6317W        W10381   2.269   5.762   1.359
 6318W        W10382   1.225   0.477  11.540
 6319W        W10383   9.457   1.071  11.858
 6320W        W10384   6.075   8.817   9.954
 6321W        W10385   1.348   3.720   3.556
 6322W        W10386   4.844   8.893  11.812
 6323W        W10387   3.328   5.985   2.776
 6324W        W10388   9.062   2.689  10.000
 6325W        W10389   5.222   3.116   2.570
 6326W        W10390   8.956   4.918   1.307
 6327W        W10391   3.758   3.158   1.461
 6328W        W10392   3.205   7.767   1.479
 6329W        W10393  10.102   3.933   9.746
 6330W        W10394   0.018   0.364   1.691
 6331W        W10395   7.070   3.803  10.799
 6332W        W10396   7.907   3.127   8.794
 6333W        W10397   0.194   7.829   2.944
 6334W        W10398   8.430   5.140  11.869
 6335W        W10399   9.069   5.533   1.023
 6336W        W10400   5.764   1.595   3.435
 6337W        W10401   4.064   1.399  10.118
 6338W        W10402   3.176   8.850   1.952
 6339W        W10403   3.349   0.052   9.883
 6340W        W10404   2.451   6.464  10.240
 6341W        W10405   9.358   5.851   0.270
 6342W        W10406   3.142   6.577   3.517
 6343W        W10407   3.804  10.043   1.874
 6344W        W10408   3.339  10.040   9.787
 6345W        W10409   5.025   0.235   1.874
 6346W        W10410   5.303   8.074  10.312
 6347W        W10411   1.364   8.970   2.022
 6348W        W10412   1.395   2.251  10.112
 6349W        W10413   1.858   2.650   3.439
 6350W        W10414   0.208   3.732   2.750
 6351W        W10415   5.757   6.581  11.143
 6352W        W10416   8.020   9.373  11.373
 6353W        W10417   6.161   1.857  11.051
 6354W        W10418   5.089   8.072  11.365
 6355W        W10419   4.529   1.367   9.906
 6356W        W10420   6.150   7.079   0.478
 6357W        W10421   3.059   1.862   0.973
 6358W        W10422   6.993   4.682   1.474
 6359W        W10423   0.858   9.993   8.445
 6360W        W10424   6.336   8.275   3.253
 6361W        W10425   2.464   4.274  10.523
 6362W        W10426   2.127   0.791   9.922
 6363W        W10427   7.205   9.808   0.715
 6364W        W10428   9.244   1.888   2.097
 6365W        W10429   1.807   9.323   9.180
 6366W        W10430   5.595   8.676  11.817
 6367W        W10431   9.767   4.596  11.310
 6368W        W10432   7.129   5.956   2.636
 6369W        W10433   1.832   5.677  10.991
 6370W        W10434   9.348   4.947  11.956
 6371W        W10435   3.069   1.332   9.096
 6372W        W10436   7.861  10.269  11.510
 6373W        W10437   1.557   0.212  11.869
 6374W        W10438   6.366   5.580   2.537
 6375W        W10439   8.563   1.000  11.048
 6376W        W10440   0.655   4.608   1.871
 6377W        W10441   7.518   7.131   0.671
 6378W        W10442   6.647   4.750   3.126
 6379W        W10443   8.523  10.386   3.082
 6380W        W10444   7.993   1.831   2.730
 6381W        W10445   7.059   0.474   0.611
 6382W        W10446   2.212   3.236   2.384
 6383W        W10447   3.198   4.698   9.553
 6384W        W10448   9.282   9.860  10.547
 6385W        W10449   5.341   3.083   2.078
 6386W        W10450   4.344   7.942   3.343
 6387W        W10451   2.409   4.141   2.326
 6388W        W10452   0.728   4.221   0.697
 6389W        W10453   9.453   9.672   9.106
 6390W        W10454   5.742   1.151  11.974
 6391W        W10455   8.919   2.319   2.021
 6392W        W10456   6.948   0.405   8.942
 6393W        W10457   9.038   5.719   1.889
 6394W        W10458   1.719   3.779  10.772
 6395W        W10459   9.713   3.558   3.515
 6396W        W10460   8.455   8.493  10.924
 6397W        W10461   8.090   0.443   0.612
 6398W        W10462   0.789   3.141  10.049
 6399W        W10463   6.215   9.594   0.985
 6400W        W10464   5.316   9.938   0.949
 6401W        W10465  10.057   3.127   2.068
 6402W        W10466  10.386   9.288  10.026
 6403W        W10467   6.020   7.155  11.280
 6404W        W10468   2.343   1.470   1.265
 6405W        W10469   6.732   3.204  10.235
 6406W        W10470   3.673   9.108   3.173
 6407W        W10471   2.845   6.140   8.779
 6408W        W10472   3.271   4.760   2.230
 6409W        W10473   3.584  10.459   0.696
 6410W        W10474   8.928   7.603   8.728
 6411W        W10475   9.702   8.764   9.093
 6412W        W10476  10.416   2.160   3.036
 6413W        W10477   2.375   2.122  10.518
 6414W        W10478   2.067   3.246   9.749
 6415W        W10479   6.880   1.819   1.868
 6416W        W10480   9.971   1.338   2.016
 6417W        W10481   9.805   9.129   2.868
 6418W        W10482   2.956   4.301  10.644
 6419W        W10483   5.571   4.484   9.411
 6420W        W10484   5.574   3.333   3.456
 6421W        W10485   0.428   7.251  11.539
 6422W        W10486   2.181   3.764  11.642
 6423W        W10487  10.031   3.452   8.977
 6424W        W10488   2.726   3.113   8.977
 6425W        W10489   8.608   3.851  10.617
 6426W        W10490   3.763   3.095   3.498
 6427W        W10491   7.255   7.158   2.777
 6428W        W10492   1.865   5.014   1.148
 6429W        W10493   6.842   9.873   9.394
 6430W        W10494   3.617   5.047   2.651
 6431W        W10495   0.391   7.870   0.467
 6432W        W10496   8.984   9.321   1.323
 6433W        W10497   5.802   1.773   9.479
 6434W        W10498   2.178   6.518   0.291
 6435W        W10499   5.326   2.871  10.955
 6436W        W10500   8.992   9.519   9.267
 6437W        W10501   7.215   5.232   8.437
 6438W        W10502   5.146   6.619  10.413
 6439W        W10503   9.487   4.060   0.270
 6440W        W10504   8.338   1.833   0.786
 6441W        W10505   8.967   6.111   3.666
 6442W        W10506   8.891   8.518   3.359
 6443W        W10507   1.715   0.552   0.232
 6444W        W10508   1.310  10.476  11.455
 6445W        W10509   9.987   8.527   2.463
 6446W        W10510   8.455   6.029   1.747
 6447W        W10511   1.222   7.180   3.070
 6448W        W10512   5.704   8.360   9.551
 6449W        W10513   4.283   4.772   8.601
 6450W        W10514   9.978   7.887  11.109
 6451W        W10515   7.305   5.105   3.062
 6452W        W10516   8.049   2.270   1.961
 6453W        W10517   6.456   9.839   0.453
 6454W        W10518   4.981   3.655   9.373
 6455W        W10519   6.151   6.298  11.351
 6456W        W10520   1.841   0.330   2.986
 6457W        W10521   2.204   4.662   9.478
 6458W        W10522   6.490   9.619   9.709
 6459W        W10523   4.927   8.049   2.249
 6460W        W10524   4.430   2.632   1.838
 6461W        W10525  10.247   9.631  10.936
 6462W        W10526   6.187   5.174   2.295
 6463W        W10527   5.467   3.332   1.501
 6464W        W10528   0.749   7.806   9.103
 6465W        W10529   6.216  10.425   3.171
 6466W        W10530   6.325   2.831   0.805
 6467W        W10531   5.442   1.132  10.497
 6468W        W10532   4.682   2.743  10.110
 6469W        W10533   1.812   6.159   2.263
 6470W        W10534   6.238   5.050   3.294
 6471W        W10535   1.620   6.556   8.821
 6472W        W10536   6.088   6.106   1.808
 6473W        W10537   5.698   4.318   1.377
 6474W        W10538   3.830   7.743   0.353
 6475W        W10539   0.453   6.529   3.392
 6476W        W10540   0.871   4.979  10.274
 6477W        W10541   0.173  10.179   2.061
 6478W        W10542   5.270   2.702  11.863
 6479W        W10543   9.567   3.123   0.262
 6480W        W10544  10.198   6.503   8.562
 6481W        W10545   5.246  10.430   2.825
 6482W        W10546   7.429   9.121   9.517
 6483W        W10547   4.470   6.455   0.149
 6484W        W10548   8.653   9.596   2.778
 6485W        W10549   2.384   4.232   1.404
 6486W        W10550  10.386   2.191   0.933
 6487W        W10551   7.999   7.932  10.005
 6488W        W10552   1.443   9.593  11.495
 6489W        W10553   5.528   7.193   3.529
 6490W        W10554   2.855   6.893   8.630
 6491W        W10555   3.012   3.488   0.547
 6492W        W10556   0.323   9.989   3.373
 6493W        W10557   5.519   9.367   2.243
 6494W        W10558   7.685   3.268   1.257
 6495W        W10559   6.236   4.056   4.091
 6496W        W10560   8.102   0.712   1.454
 6497W        W10561   0.440   4.111   1.324
 6498W        W10562   3.541   0.534  11.055
 6499W        W10563   4.790   9.863   1.752
 6500W        W10564   5.014   6.550   3.355
 6501W        W10565   1.844   1.380   0.970
 6502W        W10566   6.231   5.152   1.789
 6503W        W10567  10.034   5.772   2.290
 6504W        W10568   8.622   1.654  11.851
 6505W        W10569   6.058   8.558   1.935
 6506W        W10570   7.389   9.196   2.944
 6507W        W10571   8.864   8.551   2.022
 6508W        W10572   7.403   1.245   2.454
 6509W        W10573   9.554   9.510  11.568
 6510W        W10574   0.965   6.874   0.801
 6511W        W10575   6.992   0.787  11.413
 6512W        W10576   1.290   1.286   2.257
 6513W        W10577   1.727   9.062   3.297
 6514W        W10578   4.036   5.881  10.066
 6515W        W10579   2.647   2.489  11.782
 6516W        W10580   1.601   7.444  10.383
 6517W        W10581   1.174   0.994   1.319
 6518W        W10582   6.132   4.465   1.111
 6519W        W10583   3.351   2.562   1.884
 6520W        W10584   5.821   2.700  10.950
 6521W        W10585   8.378   7.327   1.164
 6522W        W10586   6.249   7.786   0.420
 6523W        W10587   0.550   4.068  10.445
 6524W        W10588   6.542   2.765   2.449
 6525W        W10589   2.171   2.834   1.144
 6526W        W10590   0.641  10.310   1.896
 6527W        W10591   6.290   1.357  10.258
 6528W        W10592   8.915   4.005   9.087
 6529W        W10593   8.813   2.807   0.531
 6530W        W10594   3.198   6.718   1.544
 6531W        W10595   5.193   0.885   1.900
 6532W        W10596   8.059   7.721   1.171
 6533W        W10597   8.265  10.470   9.718
 6534W        W10598   1.739   3.031   2.532
 6535W        W10599   1.781   6.121  10.696
 6536W        W10600   9.463   2.417   1.374
 6537W        W10601   4.955   6.375   1.924
 6538W        W10602   9.360   5.361   2.698
 6539W        W10603   4.803   8.642   9.882
 6540W        W10604   2.160   6.536  11.252
 6541W        W10605   4.659   3.310   2.625
 6542W        W10606   5.703   0.228  10.939
 6543W        W10607   1.441   8.479   2.742
 6544W        W10608   2.728   6.035  10.284
 6545W        W10609   2.789   2.214   0.248
 6546W        W10610   3.788   5.449   3.454
 6547W        W10611   4.585   6.028   2.018
 6548W        W10612   6.459   2.314   9.090
 6549W        W10613   1.880   2.263   2.723
 6550W        W10614   8.805   1.360   3.027
 6551W        W10615   7.191   1.066  10.807
 6552W        W10616   2.408   2.366   1.862
 6553W        W10617   0.918   1.133  10.227
 6554W        W10618   6.582   0.779   2.733
 6555W        W10619   0.333   9.961   2.842
 6556W        W10620   4.510   2.619   9.116
 6557W        W10621   2.201   1.435   9.359
 6558W        W10622   3.681   5.367   0.367
 6559W        W10623   8.556   6.358   0.240
 6560W        W10624   7.238  10.315  11.867
 6561W        W10625   3.622   8.453  10.532
 6562W        W10626   4.709   8.897   2.606
 6563W        W10627   7.897   2.719   2.734
 6564W        W10628   3.212   0.933   0.948
 6565W        W10629   1.582   3.117   0.719
 6566W        W10630   5.405   8.051   2.397
 6567W        W10631   9.400   3.628   2.433
 6568W        W10632   4.255   5.680  11.741
 6569W        W10633   1.133   2.887   8.498
 6570W        W10634   9.059   6.440  11.034
 6571W        W10635   3.771   6.953  10.488
 6572W        W10636   8.835   3.741   1.896
 6573W        W10637  10.015   7.645   3.622
 6574W        W10638   6.618   0.514   0.264
 6575W        W10639   3.304   6.593   9.776
 6576W        W10640  10.093   9.324  11.286
 6577W        W10641   5.779   4.291   3.112
 6578W        W10642   5.615   3.204   0.459
 6579W        W10643   0.753   8.893   3.146
 6580W        W10644   7.797   7.177  10.125
 6581W        W10645   8.581   5.881   9.053
 6582W        W10646   1.457  10.485   2.885
 6583W        W10647   0.429   0.336   0.762
 6584W        W10648   3.672   5.494  10.331
 6585W        W10649   8.843  10.313   0.872
 6586W        W10650   8.545   8.575   8.935
 6587W        W10651   5.839   4.382   2.169
 6588W        W10652   0.185   6.517   8.748
 6589W        W10653   6.552   6.794   8.796
 6590W        W10654   0.111   8.610  10.918
 6591W        W10655   7.851   3.652   9.342
 6592W        W10656   3.010   7.082   1.874
 6593W        W10657   7.929   7.615   2.249
 6594W        W10658   5.167  10.231   1.856
 6595W        W10659   5.717   4.094   3.998
 6596W        W10660   5.491   7.611  11.827
 6597W        W10661   6.167   2.797  11.956
 6598W        W10662   4.900   8.740   8.469
 6599W        W10663   5.518   0.754   0.203
 6600W        W10664   8.358   6.000   0.891
 6601W        W10665   5.142   5.992   2.733
 6602W        W10666   8.567   4.165   1.739
 6603W        W10667   6.206   3.726  10.444
 6604W        W10668   2.189   2.297   0.952
 6605W        W10669   9.437   5.357   0.272
 6606W        W10670   7.452   3.095   9.735
 6607W        W10671   5.816   4.760   3.341
 6608W        W10672   1.972   6.138  11.714
 6609W        W10673   4.150   4.896   9.780
 6610W        W10674   5.901   1.395   9.830
 6611W        W10675   1.851   6.946   1.474
 6612W        W10676   4.997   1.668   2.502
 6613W        W10677   3.760   2.257   2.080
 6614W        W10678   6.931   6.304   9.464
 6615W        W10679   3.404   1.903  11.253
 6616W        W10680   1.787   0.861   0.631
 6617W        W10681   3.340   4.487   0.798
 6618W        W10682   9.753   4.165   2.924
 6619W        W10683   4.504  10.401   8.650
 6620W        W10684   0.255   6.193  10.280
 6621W        W10685   3.306   1.167   2.766
 6622W        W10686   1.777   5.676   8.709
 6623W        W10687   8.563   8.432   8.422
 6624W        W10688   5.097   1.418  10.692
 6625W        W10689   0.774   5.486   1.455
 6626W        W10690   9.484   7.970   2.923
 6627W        W10691   6.530   5.605  11.175
 6628W        W10692  10.356   5.966  11.305
 6629W        W10693   9.464   6.870   0.053
 6630W        W10694   9.674   2.491  11.522
 6631W        W10695   7.609   8.402   8.442
 6632W        W10696   7.963   1.399   9.346
 6633W        W10697   0.786   7.545   1.378
 6634W        W10698   0.901   3.591   0.294
 6635W        W10699   1.604   0.807  11.317
 6636W        W10700  10.258   7.458  11.304
 6637W        W10701   8.433   8.072  11.890
 6638W        W10702   6.999   2.253   3.566
 6639W        W10703   3.121   3.542  11.086
 6640W        W10704   0.310   5.796   1.007
 6641W        W10705   4.261   0.741  10.881
 6642W        W10706   7.972   6.957   0.437
 6643W        W10707   1.396   7.556  11.838
 6644W        W10708   4.966   3.519   9.873
 6645W        W10709   1.892   7.198   2.328
 6646W        W10710   1.274   6.296  11.304
 6647W        W10711   4.188   8.563   1.787
 6648W        W10712   4.936  10.316  10.146
 6649W        W10713   7.968   4.092  10.521
 6650W        W10714   8.940   2.814   9.533
 6651W        W10715   2.407   6.171   9.025
 6652W        W10716   1.012   8.544  10.713
 6653W        W10717   8.978   9.936   1.986
 6654W        W10718   1.241   9.046   3.019
 6655W        W10719   7.251   3.951   9.226
 6656W        W10720   7.186   0.476   0.116
 6657W        W10721   8.716  10.430   9.975
 6658W        W10722   2.776   6.898   2.277
 6659W        W10723   4.745   7.342  11.150
 6660W        W10724   2.199   3.707   0.655
 6661W        W10725   4.760   3.607   1.006
 6662W        W10726   9.168   1.873   3.476
 6663W        W10727   9.882   3.797  10.959
 6664W        W10728   6.421   9.550   3.417
 6665W        W10729   3.299   4.562   2.723
 6666W        W10730   3.292   7.036   0.181
 6667W        W10731   6.711   9.571   0.853
 6668W        W10732   5.637   9.238   3.337
 6669W        W10733   4.252   1.303   0.699
 6670W        W10734   8.809   3.818  11.727
 6671W        W10735  10.041   2.226   0.224
 6672W        W10736   6.112   0.928   8.976
 6673W        W10737   6.368   0.887   3.504
 6674W        W10738   9.212   1.527   1.736
 6675W        W10739   2.303  10.208  11.454
 6676W        W10740   0.690   7.864   9.611
 6677W        W10741   4.343   3.086   2.281
 6678W        W10742   2.463   9.713   9.568
 6679W        W10743   0.714   1.887   1.855
 6680W        W10744   5.563   9.853   2.726
 6681W        W10745   0.035   0.658   2.671
 6682W        W10746   0.365   5.001  10.249
 6683W        W10747   2.866   7.440   9.881
 6684W        W10748   8.654   1.168   1.954
 6685W        W10749   9.957   4.780   3.197
 6686W        W10750  10.066   8.692   2.966
 6687W        W10751   2.668   6.243   9.814
 6688W        W10752   6.651   5.722  10.704
 6689W        W10753   2.164   8.245  11.849
 6690W        W10754   5.278   6.935  10.026
 6691W        W10755   0.260   5.987   2.957
 6692W        W10756   1.011   7.615  11.471
 6693W        W10757   8.116   3.490   0.734
 6694W        W10758  10.446  10.208  11.316
 6695W        W10759   0.552   9.460   2.865
 6696W        W10760   6.450   2.360  10.485
 6697W        W10761   4.215   7.074  11.673
 6698W        W10762   6.388   5.122   2.765
 6699W        W10763   2.228   1.625   0.654
 6700W        W10764   9.007   1.909   9.015
 6701W        W10765   2.252   2.712   3.079
 6702W        W10766   0.377   3.607   1.251
 6703W        W10767   8.850   8.617   9.650
 6704W        W10768   5.983   2.331   0.252
 6705W        W10769   6.314   9.825   1.737
 6706W        W10770   2.572   7.328  10.732
 6707W        W10771   3.225   8.890   0.530
 6708W        W10772   3.310   4.207  10.272
 6709W        W10773   0.026   8.440   9.036
 6710W        W10774   7.419  10.202   0.946
 6711W        W10775   3.174   1.825   9.876
 6712W        W10776   8.088   3.137   2.495
 6713W        W10777   6.010   4.575   8.631
 6714W        W10778   4.594   4.094   1.784
 6715W        W10779   0.199   9.026   8.901
 6716W        W10780   4.167   3.296   2.759
 6717W        W10781   2.664   5.678  11.258
 6718W        W10782   7.067  10.473   0.718
 6719W        W10783   2.298   1.168   0.844
 6720W        W10784   3.760   5.503   2.442
 6721W        W10785   4.033   4.147   9.499
 6722W        W10786   9.857   5.908   1.835
 6723W        W10787   3.243  10.215  11.074
 6724W        W10788   0.032   7.588   0.714
 6725W        W10789   4.114   5.959  10.931
 6726W        W10790   6.998   3.362  11.080
 6727W        W10791   1.240   9.941   2.912
 6728W        W10792   7.401  10.418   9.520
 6729W        W10793   2.286   7.534   3.265
 6730W        W10794  10.238   1.259   8.870
 6731W        W10795   5.185   6.036   1.316
 6732W        W10796   8.271   3.085   3.374
 6733W        W10797   9.856   7.076   3.372
 6734W        W10798   6.979   9.998   3.144
 6735W        W10799   4.287   1.673   1.405
 6736W        W10800   6.571   3.551  11.555
 6737W        W10801   1.325   9.999   0.947
 6738W        W10802   3.657   5.752   8.870
 6739W        W10803   9.961   3.379   0.771
 6740W        W10804   4.451   7.930   2.332
 6741W        W10805   6.500   5.685   1.137
 6742W        W10806   0.930   6.206   0.385
 6743W        W10807   0.879   5.994   1.290
 6744W        W10808  10.329   3.983   0.636
 6745W        W10809   6.544   7.073   2.197
 6746W        W10810   9.520  10.231  10.291
 6747W        W10811   9.588   2.362   2.878
 6748W        W10812   6.380   1.815   1.871
 6749W        W10813   2.168   8.964   0.739
 6750W        W10814   5.099   7.192   0.762
 6751W        W10815   3.279   6.079   1.891
 6752W        W10816   7.570  10.046   0.475
 6753W        W10817   0.385   9.427   0.411
 6754W        W10818   6.967   4.260   8.942
 6755W        W10819   5.697   6.052   1.464
 6756W        W10820   9.195   3.288  11.923
 6757W        W10821   6.565   8.647  10.071
 6758W        W10822   4.654   8.484  10.940
 6759W        W10823   9.987   3.811   3.182
 6760W        W10824   5.112   0.860  11.927
 6761W        W10825   0.247   5.849   9.756
 6762W        W10826   5.547   1.156   1.086
 6763W        W10827   4.160   3.636   3.173
 6764W        W10828   2.294   6.708   3.040
 6765W        W10829   7.665   0.861  10.929
 6766W        W10830   6.867   9.428   2.469
 6767W        W10831  10.237   7.904   9.224
 6768W        W10832   2.630   8.822   2.092
 6769W        W10833   8.967   6.681   0.063
 6770W        W10834   1.613   8.991   1.031
 6771W        W10835   8.010   0.447   0.034
 6772W        W10836   2.327   4.712   1.197
 6773W        W10837   2.598   9.850   1.451
 6774W        W10838   6.595   5.388  10.347
 6775W        W10839   7.602   2.748   8.504
 6776W        W10840   8.849   1.769   0.784
 6777W        W10841   1.230   5.442  10.895
 6778W        W10842   5.293   6.509  11.416
 6779W        W10843   2.370   8.667   1.133
 6780W        W10844   5.492   0.419   9.891
 6781W        W10845   8.856   2.576   2.455
 6782W        W10846   6.682   9.028   8.941
 6783W        W10847   5.443   7.143   9.590
 6784W        W10848   0.286   8.316   8.591
 6785W        W10849   8.544   4.261   0.742
 6786W        W10850   8.909   3.086  10.346
 6787W        W10851   5.162   0.868   3.159
 6788W        W10852   7.636   1.243   0.103
 6789W        W10853   7.643   9.161   0.894
 6790W        W10854   5.577   4.342  10.743
 6791W        W10855   9.812   2.893   0.915
 6792W        W10856   1.745  10.219   0.744
 6793W        W10857   2.389   4.691   1.707
 6794W        W10858   6.350   8.349   0.360
 6795W        W10859   0.267   4.546   1.508
 6796W        W10860   5.221   2.908   1.627
 6797W        W10861   6.762   9.527   9.029
 6798W        W10862   3.553   8.578   3.113
 6799W        W10863   1.421   8.608  10.382
 6800W        W10864   8.943   6.665   2.021
 6801W        W10865   1.794   8.567   3.140
 6802W        W10866   5.094   4.136   3.348
 6803W        W10867   8.198   9.644   3.525
 6804W        W10868   6.172   9.875  10.055
 6805W        W10869   7.797   5.922  10.058
 6806W        W10870   4.164   0.879   0.394
 6807W        W10871   9.846   7.447   9.315
 6808W        W10872   4.290   0.418   0.226
 6809W        W10873   7.093   6.065   8.556
 6810W        W10874   1.258   9.854  10.782
 6811W        W10875   9.377   0.534  11.956
 6812W        W10876  10.254   5.797   0.221
 6813W        W10877   1.589   0.706   3.357
 6814W        W10878   2.450   4.599   0.708
 6815W        W10879   5.528   7.969   9.806
 6816W        W10880   5.178   5.657  10.408
 6817W        W10881   4.716   9.115   9.705
 6818W        W10882   8.345   3.256  11.282
 6819W        W10883  10.039  10.448   9.491
 6820W        W10884   6.883   8.972   1.671
 6821W        W10885   3.249   0.193  10.817
 6822W        W10886   4.472   8.078  10.695
 6823W        W10887   6.822   4.276  11.694
 6824W        W10888   9.865   4.729   2.323
 6825W        W10889   5.769   6.158   0.087
 6826W        W10890   5.110   1.395   1.823
 6827W        W10891   3.581   4.641  10.385
 6828W        W10892   5.695   8.405  11.367
 6829W        W10893   4.595   1.008   2.928
 6830W        W10894   0.520   3.268   2.775
 6831W        W10895   0.120   8.889   9.381
 6832W        W10896   4.972   1.701   0.044
 6833W        W10897  10.353   3.276   1.653
 6834W        W10898   8.969   0.976   8.925
 6835W        W10899   6.429   0.341  10.402
 6836W        W10900   3.330   9.593   0.111
 6837W        W10901   9.950   4.181   2.449
 6838W        W10902  10.289   2.235   2.466
 6839W        W10903   1.253   3.045   1.617
 6840W        W10904   2.980   1.741  11.495
 6841W        W10905   5.420   5.692   2.363
 6842W        W10906   8.872   3.679   9.478
 6843W        W10907   0.869   3.308   3.320
 6844W        W10908   3.964   8.920  11.964
 6845W        W10909   9.434   6.859   3.587
 6846W        W10910   6.478   5.496   2.033
 6847W        W10911   7.594   0.584   1.324
 6848W        W10912   5.573   7.068   2.322
 6849W        W10913   7.135   1.309   0.197
 6850W        W10914   5.447  10.381   0.286
 6851W        W10915   8.537  10.243   8.678
 6852W        W10916   8.893   7.163   0.241
 6853W        W10917   4.065   7.133  10.883
 6854W        W10918   8.836   5.095   9.839
 6855W        W10919   3.741   5.079   9.087
 6856W        W10920   0.380   2.250  11.929
 6857W        W10921   7.244   8.806   8.738
 6858W        W10922  10.399   9.289   3.349
 6859W        W10923   0.281   1.731  11.708
 6860W        W10924   1.772   2.088  11.629
 6861W        W10925   7.888   2.241   8.437
 6862W        W10926   4.040   4.154   3.084
 6863W        W10927   3.276  10.284  11.587
 6864W        W10928   7.580   1.652  10.225
 6865W        W10929   9.240   5.077   3.392
 6866W        W10930   9.571  10.020   0.773
 6867W        W10931   0.576   3.290  11.287
 6868W        W10932   1.766   2.616   9.106
 6869W        W10933   4.934   6.049   3.236
 6870W        W10934   9.805   6.786   2.210
 6871W        W10935   2.468   5.553   2.211
 6872W        W10936   5.017   1.724   3.131
 6873W        W10937   6.756   2.592   0.822
 6874W        W10938   5.463   2.247   9.597
 6875W        W10939   6.401   1.220   9.796
 6876W        W10940   7.957   2.288  11.871
 6877W        W10941   1.340   2.836   8.952
 6878W        W10942   1.265   7.356   0.327
 6879W        W10943   4.938   1.870   0.889
 6880W        W10944   0.838   4.271  10.828
 6881W        W10945   7.368   9.143  11.165
 6882W        W10946  10.049   5.236   9.322
 6883W        W10947   4.315   3.120  11.859
 6884W        W10948   3.396   1.302   0.262
 6885W        W10949   9.944   5.379   9.906
 6886W        W10950   7.482   4.067   3.866
 6887W        W10951   6.260   4.054   2.190
 6888W        W10952   2.123   1.898   1.960
 6889W        W10953   0.645   7.591   2.357
 6890W        W10954   6.446   3.310   8.989
 6891W        W10955   9.770   6.851   1.720
 6892W        W10956   5.594   8.863   2.999
 6893W        W10957  10.454   1.458   2.435
 6894W        W10958   0.348   4.234   2.032
 6895W        W10959   3.956   1.772  11.735
 6896W        W10960   0.360   1.755  10.312
 6897W        W10961   6.634   3.743   2.999
 6898W        W10962   8.604   5.538   0.810
 6899W        W10963   7.917   4.691   3.480
 6900W        W10964   7.137   9.430  11.992
 6901W        W10965   1.772   6.167  11.211
 6902W        W10966   2.613   7.942  11.981
 6903W        W10967   8.510   0.911  11.569
 6904W        W10968  10.096   5.496  10.488
 6905W        W10969   8.478   5.736   3.174
 6906W        W10970   3.705   0.237   9.563
 6907W        W10971   6.023   9.466   1.999
 6908W        W10972   0.887   0.632   8.464
 6909W        W10973   0.514  10.304   8.696
 6910W        W10974   8.988   9.307   8.727
 6911W        W10975   6.149   1.375  11.746
 6912W        W10976   0.050   8.500  10.411
 6913W        W10977   6.515   9.817  10.942
 6914W        W10978   2.684   2.589   8.957
 6915W        W10979   7.904   2.946  11.278
 6916W        W10980   0.849   3.548   9.221
 6917W        W10981   6.664   4.482  10.449
 6918W        W10982   2.608   5.150  11.000
 6919W        W10983   8.611   5.572  11.693
 6920W        W10984   4.421   1.323   0.235
 6921W        W10985   5.212   6.226   0.818
 6922W        W10986   6.482  10.067   8.170
 6923W        W10987   4.230   5.616   2.732
 6924W        W10988   9.960   7.987  10.113
 6925W        W10989   2.417   7.738   0.748
 6926W        W10990   8.989   3.608   1.186
 6927W        W10991   7.355   5.397  11.800
 6928W        W10992   8.328   3.685  11.852
 6929W        W10993   6.469   7.126   9.588
 6930W        W10994   9.953   7.078   0.095
 6931W        W10995   3.787   5.509   2.955
 6932W        W10996  10.475   0.917  11.895
 6933W        W10997   7.579  10.268   2.995
 6934W        W10998   5.123  10.428   3.356
 6935W        W10999   9.575   4.203   1.213
 6936W        W11000   7.510   4.654   3.159
 6937W        W11001   3.217  10.355   2.441
 6938W        W11002   6.973   3.159   3.666
 6939W        W11003   9.367   8.376  10.959
 6940W        W11004   7.873   7.019   3.352
 6941W        W11005   7.488   7.839   9.384
 6942W        W11006   8.417   3.309   2.873
 6943W        W11007   4.613   3.564   2.082
 6944W        W11008   6.444   4.925  10.455
 6945W        W11009   7.546   1.433   1.517
 6946W        W11010   6.033   4.596   0.545
 6947W        W11011   3.877   7.280   2.848
 6948W        W11012   8.588   0.675   1.718
 6949W        W11013   8.521   1.412  11.388
 6950W        W11014   1.230   4.711   1.322
 6951W        W11015   7.460   7.756  11.896
 6952W        W11016  10.339   2.753   9.108
 6953W        W11017   7.920   9.931   2.838
 6954W        W11018   4.495   6.624   2.179
 6955W        W11019   0.853   4.702   0.845
 6956W        W11020   7.066   4.732  11.567
 6957W        W11021   5.203   2.228  10.591
 6958W        W11022   1.699   4.714   0.435
 6959W        W11023   8.528  10.224   1.260
 6960W        W11024   0.097   8.027   1.003
 6961W        W11025   4.625   7.425  10.309
 6962W        W11026   8.442   9.030  11.483
 6963W        W11027   7.166   9.204   9.056
 6964W        W11028   6.291   6.108   9.968
 6965W        W11029   9.879  10.450   8.930
 6966W        W11030   5.942   1.905   0.602
 6967W        W11031   2.759   2.746   0.493
 6968W        W11032   0.318   5.161   2.163
 6969W        W11033   4.049   9.066   1.891
 6970W        W11034   1.874   5.109   1.662
 6971W        W11035   8.992   4.065   0.943
 6972W        W11036   0.396   5.615   0.514
 6973W        W11037   6.705   4.231   3.266
 6974W        W11038  10.452   7.886   3.470
 6975W        W11039   2.002   1.705  10.085
 6976W        W11040   7.588   0.683   3.118
 6977W        W11041   7.603   2.006   3.707
 6978W        W11042   1.213   8.638  11.686
 6979W        W11043   2.791   5.304  10.010
 6980W        W11044   2.392   2.652   3.562
 6981W        W11045  10.333   2.120   1.453
 6982W        W11046   6.004   1.732   8.642
 6983W        W11047   9.337   8.618   1.138
 6984W        W11048   0.761   3.725   0.806
 6985W        W11049   4.177   7.439   1.550
 6986W        W11050   6.329   4.651   0.129
 6987W        W11051   3.603   1.950   9.550
 6988W        W11052   3.136   6.375   3.993
 6989W        W11053   8.558   4.855   2.780
 6990W        W11054   9.361   0.169   9.020
 6991W        W11055   3.638   4.168   1.622
 6992W        W11056   1.626   4.184   0.789
 6993W        W11057   3.398   7.419   9.229
 6994W        W11058   9.900   9.076   9.452
 6995W        W11059   5.652   4.530   0.883
 6996W        W11060   2.233   4.701  10.347
 6997W        W11061  10.026   2.127  10.657
 6998W        W11062   9.237   9.857  11.807
 6999W        W11063   5.113  10.036   0.498
 7000W        W11064   1.185   0.315   2.523
 7001W        W11065   7.465   0.981  11.472
 7002W        W11066   9.985   2.302  11.176
 7003W        W11067   3.376   1.810  10.369
 7004W        W11068   8.007   4.786   9.974
 7005W        W11069   9.356   7.499   2.782
 7006W        W11070   6.410   0.334   2.907
 7007W        W11071   1.723   4.875   9.437
 7008W        W11072   3.680   1.468   9.414
 7009W        W11073   9.903   8.047   0.451
 7010W        W11074   8.848   1.010   0.378
 7011W        W11075   5.498   7.185  10.467
 7012W        W11076   2.392   9.429   0.696
 7013W        W11077   3.837   4.213  10.443
 7014W        W11078   4.824   4.218   2.235
 7015W        W11079   4.603   2.417   0.156
 7016W        W11080   8.419   5.565   0.160
 7017W        W11081   3.677  10.068  11.336
 7018W        W11082   9.060   4.782  11.342
 7019W        W11083   9.648   7.075   9.914
 7020W        W11084   4.579   8.603   8.854
 7021W        W11085   4.797   4.046  10.334
 7022W        W11086   1.940   0.807   8.998
 7023W        W11087   8.405  10.024   2.661
 7024W        W11088  10.216   5.608   3.620
 7025W        W11089   5.201   2.217   3.181
 7026W        W11090   6.912   5.547   0.021
 7027W        W11091   2.253   0.040   9.048
 7028W        W11092   8.114   5.092   2.631
 7029W        W11093   8.303   0.592  10.388
 7030W        W11094  10.040   5.274   8.799
 7031W        W11095   9.231   9.023  10.335
 7032W        W11096  10.082   4.559   2.760
 7033W        W11097   9.015   4.675  10.142
 7034W        W11098   5.771   4.807   1.284
 7035W        W11099   7.206   6.439   3.301
 7036W        W11100   1.682   3.578   9.812
 7037W        W11101   7.559   4.883   2.193
 7038W        W11102   3.756   1.792   9.031
 7039W        W11103   8.544   5.398   2.596
 7040W        W11104   4.045   9.935   3.165
 7041W        W11105   4.216   2.930   1.495
 7042W        W11106   7.066   4.572   3.403
 7043W        W11107   6.938   6.943  11.461
 7044W        W11108   9.778   4.510   0.250
 7045W        W11109   6.636   4.153   1.837
 7046W        W11110   2.642   6.820  10.894
 7047W        W11111   6.902   9.586   0.389
 7048W        W11112   1.903   3.469   8.481
 7049W        W11113  10.329   4.045   8.254
 7050W        W11114   5.458   9.489   8.963
 7051W        W11115   8.950   7.573   9.743
 7052W        W11116   1.308   3.827   0.073
 7053W        W11117   1.091   4.686   8.492
 7054W        W11118   4.555   3.589   9.066
 7055W        W11119   5.520   1.637   8.519
 7056W        W11120   0.870   7.929  10.082
 7057W        W11121  10.435  10.487  11.829
 7058W        W11122   1.438   2.265   1.391
 7059W        W11123   7.371   9.428   2.289
 7060W        W11124   5.533   6.702  11.971
 7061W        W11125   8.846   2.396   0.066
 7062W        W11126   6.379   3.060   8.536
 7063W        W11127   8.961   0.706  11.744
 7064W        W11128   0.295   4.495  11.487
 7065W        W11129   4.707   6.689   8.574
 7066W        W11130   6.685   6.757   9.294
 7067W        W11131   0.570   1.163   0.313
 7068W        W11132   9.259   2.408  11.792
 7069W        W11133   5.294   1.859  11.661
 7070W        W11134   1.182   1.799  11.853
 7071W        W11135   0.030   4.278   9.631
 7072W        W11136   1.004   3.287   2.416
 7073W        W11137   2.705   7.895   1.465
 7074W        W11138   3.270   6.041   9.052
 7075W        W11139   9.814   2.223   2.188
 7076W        W11140   4.274   2.193   1.481
 7077W        W11141   6.537   6.316   1.705
 7078W        W11142   3.085   6.560   2.003
 7079W        W11143   5.433   6.458   2.689
 7080W        W11144   0.751   9.860   3.100
 7081W        W11145   2.821   0.174   3.555
 7082W        W11146   7.883   2.042   0.949
 7083W        W11147   0.512   6.718   0.969
 7084W        W11148   2.181   1.286  10.459
 7085W        W11149   8.459   0.544   1.147
 7086W        W11150   7.894   1.842   1.727
 7087W        W11151   6.527   5.983   2.088
 7088W        W11152   6.668  10.366   2.882
 7089W        W11153   6.961   6.427   2.736
 7090W        W11154   4.286   2.147  11.873
 7091W        W11155   6.492   9.348   1.796
 7092W        W11156   6.094   2.729   2.731
 7093W        W11157   0.698   8.567  11.598
 7094W        W11158   2.284   7.215   1.455
 7095W        W11159   4.184  10.024  11.260
 7096W        W11160  10.271   6.574   2.201
 7097W        W11161  10.315   1.796  11.549
 7098W        W11162   9.289   4.223  10.062
 7099W        W11163   1.325   6.924  11.046
 7100W        W11164   3.740   7.481  10.524
 7101W        W11165   1.327   1.570  11.418
 7102W        W11166   9.579   0.029  11.214
 7103W        W11167   1.150   1.713  10.961
 7104W        W11168   0.375   3.288   1.742
 7105W        W11169   6.534   4.660   0.822
 7106W        W11170   0.043   9.110   0.173
 7107W        W11171   1.796   3.168   1.194
 7108W        W11172   9.864   7.478  10.830
 7109W        W11173   1.434   9.805   0.447
 7110W        W11174   1.633   4.298   1.893
 7111W        W11175   4.672   1.016   1.167
 7112W        W11176   6.917   6.635   1.309
 7113W        W11177   2.813   6.970  10.424
 7114W        W11178   3.545   7.005   9.591
 7115W        W11179   5.115   0.570   1.487
 7116W        W11180   1.998   4.281   0.441
 7117W        W11181   2.784   9.368   9.353
 7118W        W11182   9.292   8.863   3.372
 7119W        W11183   8.393   7.670   8.954
 7120W        W11184   4.053   7.002   9.567
 7121W        W11185   4.330   6.196   4.162
 7122W        W11186   0.805   0.382   1.857
 7123W        W11187   9.443   2.444   0.875
 7124W        W11188   9.865   5.042   1.523
 7125W        W11189   2.552   7.824   9.968
 7126W        W11190  10.224   0.442   3.049
 7127W        W11191   2.823   0.268   1.757
 7128W        W11192   3.329   4.700  11.023
 7129W        W11193   3.572   6.208   8.646
 7130W        W11194   9.557   2.508  11.022
 7131W        W11195   9.547   8.706   2.838
 7132W        W11196   5.514   9.377   9.473
 7133W        W11197   8.448   8.568   9.966
 7134W        W11198   7.910   5.385   8.848
 7135W        W11199   6.992   2.670   2.247
 7136W        W11200   2.714   1.926   2.633
 7137W        W11201   9.765   7.551  11.438
 7138W        W11202   6.925   3.518   9.222
 7139W        W11203   2.278   3.486  10.684
 7140W        W11204   9.174   9.125   0.448
 7141W        W11205   6.557   0.012   8.932
 7142W        W11206   9.021   2.052  10.869
 7143W        W11207   0.930   7.109  11.361
 7144W        W11208   1.433   5.592   3.290
 7145W        W11209   0.321   2.912   9.323
 7146W        W11210  10.298   5.996  10.478
 7147W        W11211   9.155   5.155   9.452
 7148W        W11212   0.520   3.256   2.259
 7149W        W11213   7.475   2.196  11.722
 7150W        W11214   0.288   1.461   3.542
 7151W        W11215  10.255   4.235  10.924
 7152W        W11216  10.370   2.936   9.604
 7153W        W11217   5.476   7.858   0.277
 7154W        W11218   4.767   7.345   1.309
 7155W        W11219   4.617   2.846   0.442
 7156W        W11220   2.372   7.430  11.211
 7157W        W11221   9.322  10.025   2.814
 7158W        W11222   6.532   5.268   3.642
 7159W        W11223   3.581   0.265   3.531
 7160W        W11224   6.191   5.723  10.369
 7161W        W11225   2.588   0.191   0.005
 7162W        W11226   1.434   4.972   1.845
 7163W        W11227   1.890   8.916   9.817
 7164W        W11228  10.277   1.090  10.980
 7165W        W11229   4.319   4.729   0.974
 7166W        W11230   1.820  10.378  11.161
 7167W        W11231   0.311   6.130   0.625
 7168W        W11232   6.779   1.696   0.870
 7169W        W11233   0.907   3.845  11.748
 7170W        W11234   6.158   3.334   8.092
 7171W        W11235   3.590   6.620   0.206
 7172W        W11236   6.978   5.000   9.392
 7173W        W11237   7.365   9.505  11.543
 7174W        W11238   4.640   9.615   1.043
 7175W        W11239   2.614   4.720  10.724
 7176W        W11240   5.678   7.154   4.026
 7177W        W11241   9.709   7.541   2.190
 7178W        W11242   9.726   2.969  11.330
 7179W        W11243   6.192   5.244   1.304
 7180W        W11244   0.332   3.158  10.317
 7181W        W11245   0.466   8.544   9.465
 7182W        W11246   3.775   8.466   2.324
 7183W        W11247   9.618   8.741   2.217
 7184W        W11248   8.351   2.283  11.490
 7185W        W11249   0.184   2.143   9.999
 7186W        W11250   4.985   0.385   9.151
 7187W        W11251   5.110   7.702   0.655
 7188W        W11252  10.033  10.290   0.805
 7189W        W11253   2.311   6.470  10.727
 7190W        W11254   4.991   5.340   1.633
 7191W        W11255   9.496   1.420   1.313
 7192W        W11256   1.878   4.436  11.479
 7193W        W11257   7.699   6.656  11.365
 7194W        W11258   6.673   5.268   3.148
 7195W        W11259   1.250   5.903   1.956
 7196W        W11260   7.141   4.030   3.062
 7197W        W11261   1.835   6.165   0.234
 7198W        W11262   7.538   7.333   2.390
 7199W        W11263   5.517   9.419  10.468
 7200W        W11264   2.698   6.398   2.318
 7201W        W11265   4.070   9.040   0.484
 7202W        W11266   6.086   2.379   0.747
 7203W        W11267   0.809   8.082   2.255
 7204W        W11268   3.178   6.515   8.828
 7205W        W11269   1.704   8.870   8.930
 7206W        W11270   1.317   5.200  10.433
 7207W        W11271   5.564   2.817   2.807
 7208W        W11272   3.233   1.854   0.500
 7209W        W11273   1.613   7.008   1.928
 7210W        W11274   6.207   3.064   9.359
 7211W        W11275   4.785   7.988   3.601
 7212W        W11276   7.492   9.561   9.251
 7213W        W11277   6.649   1.744   2.333
 7214W        W11278   2.800   2.845   9.889
 7215W        W11279  10.268   2.805  10.522
 7216W        W11280   1.794   6.933  11.254
 7217W        W11281   5.940   8.096  11.016
 7218W        W11282   4.129   5.704   2.124
 7219W        W11283   9.887   7.559   1.260
 7220W        W11284   0.826   9.420  10.048
 7221W        W11285   4.204   5.596  11.255
 7222W        W11286   1.337   8.162  11.555
 7223W        W11287   8.580   3.769   1.435
 7224W        W11288   6.891   0.911   0.402
 7225W        W11289   4.725   5.384  10.410
 7226W        W11290   9.860   8.021   2.347
 7227W        W11291   7.122  10.361   8.710
 7228W        W11292   8.119   8.190  11.315
 7229W        W11293   3.050   2.362  10.033
 7230W        W11294   7.575   6.868  10.901
 7231W        W11295   4.095   4.249  10.002
 7232W        W11296  10.283   6.231   0.489
 7233W        W11297   6.406   9.712   2.581
 7234W        W11298   5.049   9.575  11.748
 7235W        W11299   8.650   4.463   2.433
 7236W        W11300   1.629   7.246   2.768
 7237W        W11301   7.366   6.936   3.314
 7238W        W11302   9.399   5.213   1.295
 7239W        W11303   8.293   9.266   2.409
 7240W        W11304   0.323   8.174  11.594
 7241W        W11305   9.700   1.807   3.647
 7242W        W11306   8.472   8.363   2.311
 7243W        W11307   6.916   4.638   8.595
 7244W        W11308   0.605   7.203   1.034
 7245W        W11309   0.776  10.450  10.959
 7246W        W11310   4.171   9.346   2.310
 7247W        W11311   6.512   2.146   0.890
 7248W        W11312   0.797   6.994  10.271
 7249W        W11313   2.830   5.848   3.935
 7250W        W11314   4.074   6.621  11.431
 7251W        W11315   5.949   6.921  10.487
 7252W        W11316   8.385   8.554   9.452
 7253W        W11317   9.460   0.679   9.016
 7254W        W11318   8.093   5.181   0.334
 7255W        W11319   4.788   4.190   0.278
 7256W        W11320   9.857   0.871  10.308
 7257W        W11321   2.900   6.635   9.489
 7258W        W11322   6.837   5.918   0.371
 7259W        W11323  10.418   6.613   1.707
 7260W        W11324   7.409   4.474   9.821
 7261W        W11325   7.923   3.203   2.992
 7262W        W11326   1.389   4.689   0.023
 7263W        W11327   6.275   0.407   1.061
 7264W        W11328   3.127   0.848  10.189
 7265W        W11329   9.485   8.089   1.643
 7266W        W11330   2.111   4.980   0.606
 7267W        W11331   4.206   9.377  11.884
 7268W        W11332   2.804   6.971   0.949
 7269W        W11333   2.766   3.803  11.446
 7270W        W11334   1.703  10.336   9.733
 7271W        W11335   0.894   5.512   8.625
 7272W        W11336   5.869   6.888   3.266
 7273W        W11337   7.406   7.568   0.394
 7274W        W11338   5.208   0.537   2.281
 7275W        W11339   3.267   9.673  11.142
 7276W        W11340   9.249   7.073  10.335
 7277W        W11341   4.982   5.583   0.279
 7278W        W11342   1.794   1.389  11.247
 7279W        W11343   0.550   5.193   8.899
 7280W        W11344   5.733   9.418   0.911
 7281W        W11345   5.063   7.003  11.373
 7282W        W11346   0.889   9.903   1.680
 7283W        W11347   1.685   9.794   9.000
 7284W        W11348   8.977   6.629   9.552
 7285W        W11349   9.913   2.661  11.973
 7286W        W11350   8.110   8.563   8.594
 7287W        W11351   1.988   5.671   2.331
 7288W        W11352   7.866   7.485   9.229
 7289W        W11353   5.530   5.697   9.036
 7290W        W11354   0.306   3.547   9.985
 7291W        W11355  10.362   6.609  11.814
 7292W        W11356   3.333   3.066  11.995
 7293W        W11357   4.549   7.699   9.897
 7294W        W11358   8.415   2.106  11.973
 7295W        W11359   6.518   7.499  10.553
 7296W        W11360   2.850   2.343   2.901
 7297W        W11361   7.467   2.090   9.752
 7298W        W11362   3.645   5.011   9.591
 7299W        W11363   9.352   7.865   2.418
 7300W        W11364   5.950   8.654   0.328
 7301W        W11365   3.608   3.819   9.420
 7302W        W11366   0.268   6.536   2.105
 7303W        W11367   2.363   5.111   9.317
 7304W        W11368   9.793   8.073   1.241
 7305W        W11369   9.368  10.162   8.881
 7306W        W11370   7.369   1.758  11.971
 7307W        W11371   1.463   3.137   2.956
 7308W        W11372   0.775  10.315  10.084
 7309W        W11373   0.871   7.600   3.614
 7310W        W11374   1.265   1.284   9.070
 7311W        W11375   8.077   0.283   9.042
 7312W        W11376   5.093   0.771   0.996
 7313ION    NA+11377   6.451   4.869   8.694
 7314ION    NA+11378   1.839  10.062   2.192
 7315ION    NA+11379   7.760   7.053  11.708
 7316ION    NA+11380   9.063   5.955   1.386
 7317ION    NA+11381   5.489   3.575   9.491
 7318ION    NA+11382   7.897   4.757   0.136
 7319ION    NA+11383   5.521   4.056   0.952
 7320ION    NA+11384   6.193   1.447  10.743
 7321ION    NA+11385   2.612   8.331   9.841
 7322ION    NA+11386   2.748   4.594  10.248
 7323ION    NA+11387   1.511   2.364  10.606
 7324ION    NA+11388  10.102   4.992  11.454
 7325ION    NA+11389   2.657   0.334  10.302
 7326ION    NA+11390   0.592   9.092   9.391
 7327ION    NA+11391   5.152   4.595   2.665
 7328ION    NA+11392   4.200   8.539   0.229
 7329ION    NA+11393   7.420   4.371   2.292
 7330ION    NA+11394   1.158   7.599   2.314
 7331ION    NA+11395   8.842   0.610   9.609
 7332ION    NA+11396   3.715   2.624  10.088
 7333ION    NA+11397   7.332   1.303   1.962
 7334ION    NA+11398   4.986   3.255   0.669
 7335ION    NA+11399   4.219   5.422   0.507
 7336ION    NA+11400   0.602   8.409  11.115
 7337ION    NA+11401   0.654   2.734   1.081
 7338ION    NA+11402   8.289   1.520   1.771
 7339ION    NA+11403   0.791   2.722   9.782
 7340ION    NA+11404   1.499   2.738  12.002
 7341ION    NA+11405   7.078   9.042   9.880
 7342ION    NA+11406   8.536   6.238   3.042
 7343ION    NA+11407   2.914   9.503   2.724
 7344ION    NA+11408   8.912   9.175   2.641
 7345ION    NA+11409   2.389   2.144  11.031
 7346ION    NA+11410   0.906   5.163  11.972
 7347ION    NA+11411   9.659   2.091  11.847
 7348ION    NA+11412   7.058   7.180   0.372
 7349ION    NA+11413   2.306   1.280   9.929
 7350ION    NA+11414   4.988   4.084  11.778
 7351ION    NA+11415   6.534   7.758   9.022
 7352ION    NA+11416   8.633   8.232  11.386
 7353ION    NA+11417   2.699   6.503   0.325
 7354ION    NA+11418   1.686   5.186   2.709
 7355ION    NA+11419   5.149   8.229   0.941
 7356ION    NA+11420   5.648   6.081  11.205
 7357ION    NA+11421   3.057   7.117   9.503
 7358ION    NA+11422   6.703   9.148   3.230
 7359ION    NA+11423   1.709   7.108  10.767
 7360ION    NA+11424   0.025   1.626   9.145
 7361ION    NA+11425   1.436   8.278   0.565
 7362ION    NA+11426   7.889   8.742   9.377
 7363ION    NA+11427   8.369   9.053  10.880
 7364ION    NA+11428   4.399   1.503  11.419
 7365ION    NA+11429   3.124   2.884  11.297
 7366ION    NA+11430   3.811   3.888   0.668
 7367ION    NA+11431   7.678   7.876   1.490
 7368ION    NA+11432   9.000   5.080   2.929
 7369ION    NA+11433   6.732   1.714   3.153
 7370ION    NA+11434   3.447   8.397  11.450
 7371ION    NA+11435   9.882   9.499   1.264
 7372ION    NA+11436   7.045   3.114   2.561
 7373ION    NA+11437   6.185   2.559   1.238
 7374ION    NA+11438   4.000   2.273   0.939
 7375ION    NA+11439   5.993   9.658   9.602
 7376ION    NA+11440   9.951   9.824  11.392
 7377ION    NA+11441   9.024  10.327  10.416
 7378ION    NA+11442   1.189   9.081   0.761
 7379ION    NA+11443   8.627   7.142   3.005
 7380ION    NA+11444   3.733   1.660   3.017
 7381ION    NA+11445   6.029   6.934   8.706
 7382ION    NA+11446   6.576   0.708   0.771
 7383ION    NA+11447   8.450   6.854   0.230
 7384ION    NA+11448   7.075   6.447  11.692
 7385ION    NA+11449   1.475   4.528   8.915
 7386ION    NA+11450   1.641   0.400  10.343
 7387ION    NA+11451   2.979   3.946   0.322
 7388ION    NA+11452   2.090   0.186  11.636
 7389ION    NA+11453   3.861  10.111   0.451
 7390ION    CL-11454   5.840   5.571   2.650
 7391ION    CL-11455   8.171   9.866   1.345
 7392ION    CL-11456   6.208   0.535   0.579
 7393ION    CL-11457   6.561   1.704  10.766
 7394ION    CL-11458   7.488   7.286   9.516
 7395ION    CL-11459  10.157   8.338   0.963
 7396ION    CL-11460   4.088   5.268   9.421
 7397ION    CL-11461   1.596   7.661   2.367
 7398ION    CL-11462   1.916   5.495  10.023
 7399ION    CL-11463   9.519   7.400   3.624
 7400ION    CL-11464   5.541   2.629  11.367
 7401ION    CL-11465   2.941   9.901   8.446
 7402ION    CL-11466   4.110   6.398  10.103
 7403ION    CL-11467   2.394   4.037   3.108
 7404ION    CL-11468   1.207   8.674   0.560
 7405ION    CL-11469  10.467   5.166   9.587
 7406ION    CL-11470   9.172   9.540   2.605
 7407ION    CL-11471   2.158   8.373   3.435
 7408ION    CL-11472  10.233   7.907   0.064
 7409ION    CL-11473   0.283   1.596   0.222
 7410ION    CL-11474   7.781   7.433   1.474
 7411ION    CL-11475   7.688   8.342   9.343
 7412ION    CL-11476   2.908   2.917  11.686
 7413ION    CL-11477   4.252   5.264   0.089
 7414ION    CL-11478   0.639   8.801   9.055
 7415ION    CL-11479   2.040   6.478   1.601
 7416ION    CL-11480   7.896   6.252   8.772
 7417ION    CL-11481   7.358   6.795  11.770
 7418ION    CL-11482   5.487   7.374  11.345
 7419ION    CL-11483   2.770   2.336   3.422
 7420ION    CL-11484   0.974   4.780  11.752
 7421ION    CL-11485   0.285   3.945   0.868
 7422ION    CL-11486   8.610   6.683   2.981
 7423ION    CL-11487   1.043   8.487  11.209
 7424ION    CL-11488  10.206   9.996  11.730
 7425ION    CL-11489   7.241   6.165   1.338
 7426ION    CL-11490   9.796   5.997   3.479
 7427ION    CL-11491   3.902   1.916   1.189
 7428ION    CL-11492   2.931   3.209   2.943
 7429ION    CL-11493   6.229   4.743   9.060
 7430ION    CL-11494   4.482   1.669  11.824
 7431ION    CL-11495   1.909   0.588  11.727
 7432ION    CL-11496   7.852   2.161  10.976
 7433ION    CL-11497   9.838   8.043   9.552
 7434ION    CL-11498   9.694   9.605  11.083
 7435ION    CL-11499   6.484   9.283   2.855
 7436ION    CL-11500  10.069   2.211  11.718
 7437ION    CL-11501   3.411   3.867   0.449
 7438ION    CL-11502   2.145   3.750   2.143
 7439ION    CL-11503   8.856   7.932  11.633
 7440ION    CL-11504   3.698   1.457   2.616
 7441ION    CL-11505  10.377   3.750  10.818
 7442ION    CL-11506   7.362   8.179   1.366
 7443ION    CL-11507   6.739   1.252   9.430
 7444ION    CL-11508   4.144   4.783   1.726
 7445ION    CL-11509   9.393   6.035   1.675
 7446ION    CL-11510   0.228   8.145  11.097
 7447ION    CL-11511   6.349   6.616   1.295
 7448ION    CL-11512   8.647   0.918   9.867
 7449ION    CL-11513   8.827   3.103  11.514
 7450ION    CL-11514   9.376   0.789  11.402
 7451ION    CL-11515   4.794   8.481   9.322
 7452ION    CL-11516   0.038   0.340   0.203
 7453ION    CL-11517   5.097   4.482  11.980
 7454ION    CL-11518   3.802  10.009   9.112
 7455ION    CL-11519   1.298   4.266   2.395
 7456ION    CL-11520   8.147   7.069  11.969
 7457ION    CL-11521   8.847   1.897   3.048
 7458ION    CL-11522   3.261   7.584  10.745
 7459ION    CL-11523   9.564   6.681  10.249
 7460ION    CL-11524   4.460   8.894   0.152
 7461ION    CL-11525   7.719   5.957   2.191
 7462ION    CL-11526   1.482   4.211  10.541
 7463ION    CL-11527   0.743   6.551   2.409
 7464ION    CL-11528   8.348   5.418   9.089
 7465ION    CL-11529  10.202   4.068   8.782
 7466ION    CL-11530   5.079   3.718  11.519
  10.50000  10.50000  12.00000
