Protein in INSANE! Membrane UpperLeaflet>POPC=1.0 LowerLeaflet>POPC=1.0
11530
    1AU     AUC    1   5.253   5.287   5.999
    1AU     AUC    2   5.553   5.322   5.829
    1AU     AUC    3   5.532   5.304   6.168
    1AU     AUC    4   4.961   5.275   5.836
    1AU     AUC    5   4.973   5.267   6.187
    1AU     AUC    6   5.059   5.530   6.024
    1AU     AUC    7   5.397   5.560   6.001
    1AU     AUC    8   5.097   5.006   5.997
    1AU     AUC    9   5.459   5.060   5.993
    1AU     AUC   10   5.295   5.118   6.269
    1AU     AUC   11   5.237   5.443   6.279
    1AU     AUC   12   5.274   5.136   5.719
    1AU     AUC   13   5.254   5.462   5.725
    1AU     AUC   14   5.867   5.344   5.672
    1AU     AUC   15   5.905   5.349   5.993
    1AU     AUC   16   5.843   5.311   6.361
    1AU     AUC   17   4.657   5.256   5.667
    1AU     AUC   18   4.627   5.283   6.037
    1AU     AUC   19   4.689   5.248   6.372
    1AU     AUC   20   4.883   5.835   6.021
    1AU     AUC   21   5.224   5.897   5.994
    1AU     AUC   22   5.543   5.878   6.008
    1AU     AUC   23   4.928   4.684   5.994
    1AU     AUC   24   5.270   4.728   5.995
    1AU     AUC   25   5.664   4.772   5.968
    1AU     AUC   26   5.311   4.891   6.556
    1AU     AUC   27   5.260   5.212   6.600
    1AU     AUC   28   5.255   5.593   6.570
    1AU     AUC   29   5.280   4.942   5.420
    1AU     AUC   30   5.260   5.281   5.424
    1AU     AUC   31   5.261   5.649   5.443
    1AU     AUC   32   5.597   5.063   6.465
    1AU     AUC   33   5.564   5.427   6.511
    1AU     AUC   34   5.576   5.122   5.513
    1AU     AUC   35   5.592   5.491   5.519
    1AU     AUC   36   4.971   5.047   6.486
    1AU     AUC   37   4.965   5.411   6.501
    1AU     AUC   38   4.934   5.104   5.537
    1AU     AUC   39   4.921   5.461   5.523
    1AU     AUC   40   5.750   5.622   5.847
    1AU     AUC   41   5.701   5.589   6.205
    1AU     AUC   42   4.761   5.553   5.823
    1AU     AUC   43   4.754   5.570   6.216
    1AU     AUC   44   5.775   5.040   5.810
    1AU     AUC   45   5.792   5.021   6.131
    1AU     AUC   46   4.737   4.983   5.848
    1AU     AUC   47   4.777   4.977   6.174
    1AU     AUC   48   5.056   5.763   6.302
    1AU     AUC   49   5.393   5.765   6.306
    1AU     AUC   50   5.080   4.774   6.269
    1AU     AUC   51   5.496   4.798   6.296
    1AU     AUC   52   5.040   5.729   5.687
    1AU     AUC   53   5.441   5.769   5.685
    1AU     AUC   54   5.051   4.814   5.707
    1AU     AUC   55   5.447   4.830   5.673
    1AU    AUSL   56   5.850   5.207   6.731
    1AU    AUSL   57   5.713   4.733   6.589
    1AU     AUL   58   5.958   4.831   6.789
    1AU       S   59   6.129   4.445   6.596
    1AU     LIG   60   6.116   4.132   6.929
    1AU     LIG   61   6.255   3.777   7.220
    1AU       S   62   6.111   5.262   6.888
    1AU     LIG   63   6.058   5.382   7.318
    1AU     LIG   64   6.130   5.118   7.690
    1AU    AUSL   65   5.455   5.015   6.802
    1AU    AUSL   66   5.120   5.332   6.887
    1AU     AUL   67   5.313   5.186   7.136
    1AU       S   68   5.752   5.014   7.158
    1AU     LIG   69   5.615   5.117   7.558
    1AU     LIG   70   5.712   5.017   8.000
    1AU       S   71   4.582   5.123   7.176
    1AU     LIG   72   4.713   5.405   7.528
    1AU     LIG   73   4.646   5.432   7.994
    1AU    AUSL   74   5.463   5.440   6.671
    1AU    AUSL   75   5.877   5.629   6.634
    1AU     AUL   76   5.687   5.452   6.963
    1AU       S   77   5.293   5.696   7.121
    1AU     LIG   78   5.607   5.620   7.426
    1AU     LIG   79   5.834   5.519   7.810
    1AU       S   80   6.004   5.782   6.836
    1AU     LIG   81   6.422   5.753   6.891
    1AU     LIG   82   6.826   5.961   6.966
    1AU    AUSL   83   5.851   5.366   5.250
    1AU    AUSL   84   5.696   5.847   5.321
    1AU     AUL   85   5.771   5.666   4.994
    1AU       S   86   5.786   5.238   4.791
    1AU     LIG   87   6.068   5.229   4.427
    1AU     LIG   88   6.227   5.063   4.013
    1AU       S   89   6.044   5.926   5.273
    1AU     LIG   90   5.913   6.179   4.979
    1AU     LIG   91   6.067   6.563   4.782
    1AU    AUSL   92   5.508   5.092   5.204
    1AU    AUSL   93   5.808   5.052   5.554
    1AU     AUL   94   5.927   5.056   5.188
    1AU       S   95   5.914   4.289   5.258
    1AU     LIG   96   6.341   4.207   5.110
    1AU     LIG   97   6.570   4.199   4.692
    1AU       S   98   5.539   4.922   4.919
    1AU     LIG   99   5.570   4.625   4.530
    1AU     LIG  100   5.763   4.859   4.172
    1AU    AUSL  101   5.437   5.511   5.284
    1AU    AUSL  102   5.096   5.070   5.115
    1AU     AUL  103   5.344   5.361   4.961
    1AU       S  104   4.946   5.114   4.825
    1AU     LIG  105   5.056   5.050   4.389
    1AU     LIG  106   4.680   4.988   4.102
    1AU       S  107   5.655   5.061   4.710
    1AU     LIG  108   5.554   5.304   4.340
    1AU     LIG  109   5.845   5.448   3.995
    1AU    AUSL  110   4.755   5.206   6.688
    1AU    AUSL  111   5.001   5.677   6.667
    1AU     AUL  112   4.860   5.510   6.969
    1AU       S  113   4.514   5.200   6.878
    1AU     LIG  114   4.331   5.546   7.189
    1AU     LIG  115   4.216   5.447   7.667
    1AU       S  116   4.604   5.890   6.829
    1AU     LIG  117   4.443   6.198   7.089
    1AU     LIG  118   4.252   6.430   7.451
    1AU    AUSL  119   5.040   4.900   6.856
    1AU    AUSL  120   4.628   4.812   6.549
    1AU     AUL  121   4.716   4.779   6.832
    1AU       S  122   4.480   4.393   6.647
    1AU     LIG  123   4.017   4.300   6.837
    1AU     LIG  124   3.709   4.354   7.215
    1AU       S  125   4.834   5.066   7.170
    1AU     LIG  126   5.018   4.990   7.547
    1AU     LIG  127   4.758   4.932   7.913
    1AU    AUSL  128   4.696   5.189   5.250
    1AU    AUSL  129   4.977   4.884   5.487
    1AU     AUL  130   4.843   4.807   5.172
    1AU       S  131   4.536   5.108   4.970
    1AU     LIG  132   4.215   5.198   4.637
    1AU     LIG  133   4.182   5.279   4.171
    1AU       S  134   4.383   4.633   5.180
    1AU     LIG  135   4.449   4.171   5.065
    1AU     LIG  136   4.241   3.806   4.842
    1AU    AUSL  137   5.024   5.471   5.293
    1AU    AUSL  138   4.599   5.563   5.443
    1AU     AUL  139   4.768   5.508   5.057
    1AU       S  140   4.397   5.722   5.264
    1AU     LIG  141   4.120   6.074   5.112
    1AU     LIG  142   4.047   6.263   4.673
    1AU       S  143   4.684   5.011   4.741
    1AU     LIG  144   4.662   5.380   4.467
    1AU     LIG  145   4.629   5.488   4.013
    1AU    AUSL  146   5.933   5.912   6.040
    1AU    AUSL  147   5.914   5.603   5.606
    1AU     AUL  148   6.077   6.002   5.743
    1AU       S  149   6.178   5.656   5.422
    1AU     LIG  150   6.257   5.566   4.973
    1AU     LIG  151   6.349   5.985   4.790
    1AU       S  152   6.467   5.876   6.374
    1AU     LIG  153   6.623   6.253   6.100
    1AU     LIG  154   6.924   6.313   5.748
    1AU    AUSL  155   6.210   5.578   5.908
    1AU    AUSL  156   6.231   5.189   6.165
    1AU     AUL  157   6.529   5.384   6.020
    1AU       S  158   6.383   5.809   6.130
    1AU     LIG  159   6.676   5.831   5.795
    1AU     LIG  160   7.106   5.709   5.644
    1AU       S  161   6.489   4.905   6.013
    1AU     LIG  162   6.722   4.833   6.400
    1AU     LIG  163   7.110   4.557   6.475
    1AU    AUSL  164   5.951   5.504   6.240
    1AU    AUSL  165   5.622   5.805   6.313
    1AU     AUL  166   5.975   5.911   6.380
    1AU       S  167   5.974   6.085   6.854
    1AU     LIG  168   6.378   6.241   6.717
    1AU     LIG  169   6.706   6.463   6.954
    1AU       S  170   6.316   5.586   6.414
    1AU     LIG  171   6.835   5.546   6.412
    1AU     LIG  172   7.325   5.685   6.468
    1AU    AUSL  173   4.594   5.772   6.070
    1AU    AUSL  174   4.619   5.558   6.478
    1AU     AUL  175   4.329   5.898   6.322
    1AU       S  176   4.495   5.644   6.682
    1AU     LIG  177   4.107   5.863   6.825
    1AU     LIG  178   3.968   6.032   7.230
    1AU       S  179   4.546   6.217   6.046
    1AU     LIG  180   4.125   6.137   5.903
    1AU     LIG  181   3.838   6.358   5.628
    1AU    AUSL  182   4.508   5.416   5.824
    1AU    AUSL  183   4.637   5.935   5.683
    1AU     AUL  184   4.354   5.743   5.747
    1AU       S  185   4.197   5.312   5.475
    1AU     LIG  186   3.907   5.741   5.533
    1AU     LIG  187   3.481   5.996   5.482
    1AU       S  188   4.456   6.150   5.500
    1AU     LIG  189   4.388   6.511   5.257
    1AU     LIG  190   3.992   6.609   5.059
    1AU    AUSL  191   4.299   5.461   6.208
    1AU    AUSL  192   4.291   5.065   5.926
    1AU     AUL  193   4.112   5.383   5.930
    1AU       S  194   4.072   4.993   6.202
    1AU     LIG  195   3.785   4.958   5.847
    1AU     LIG  196   3.457   4.712   5.620
    1AU       S  197   4.095   5.492   6.418
    1AU     LIG  198   3.788   5.817   6.424
    1AU     LIG  199   3.360   6.023   6.388
    1AU    AUSL  200   5.992   4.897   5.948
    1AU    AUSL  201   5.861   5.049   6.339
    1AU     AUL  202   6.184   4.931   6.377
    1AU       S  203   6.302   4.749   5.955
    1AU     LIG  204   6.364   4.360   5.850
    1AU     LIG  205   6.728   4.127   5.681
    1AU       S  206   6.372   4.470   6.372
    1AU     LIG  207   6.589   4.398   6.777
    1AU     LIG  208   6.541   4.232   7.217
    1AU    AUSL  209   6.176   5.203   5.696
    1AU    AUSL  210   5.868   4.580   5.698
    1AU     AUL  211   6.098   4.834   5.552
    1AU       S  212   6.479   4.996   5.756
    1AU     LIG  213   6.719   4.646   5.586
    1AU     LIG  214   7.160   4.434   5.665
    1AU       S  215   6.000   4.377   5.508
    1AU     LIG  216   6.167   3.979   5.552
    1AU     LIG  217   6.194   3.702   5.187
    1AU    AUSL  218   4.664   4.828   5.995
    1AU    AUSL  219   4.557   4.995   5.597
    1AU     AUL  220   4.300   4.758   5.829
    1AU       S  221   4.388   4.848   5.378
    1AU     LIG  222   3.954   4.687   5.438
    1AU     LIG  223   3.788   4.360   5.132
    1AU       S  224   3.978   4.794   6.295
    1AU     LIG  225   3.916   4.454   5.954
    1AU     LIG  226   3.659   4.244   5.613
    1AU    AUSL  227   4.534   5.122   6.286
    1AU    AUSL  228   4.753   4.511   6.253
    1AU     AUL  229   4.447   4.686   6.270
    1AU       S  230   4.618   4.243   6.324
    1AU     LIG  231   4.154   4.115   6.370
    1AU     LIG  232   3.960   3.800   6.672
    1AU       S  233   4.185   5.032   6.435
    1AU     LIG  234   3.701   5.142   6.513
    1AU     LIG  235   3.298   4.905   6.396
    1AU    AUSL  236   5.229   5.979   6.453
    1AU    AUSL  237   4.793   5.957   6.401
    1AU     AUL  238   5.055   6.019   6.750
    1AU       S  239   4.662   6.151   6.539
    1AU     LIG  240   4.237   6.318   6.614
    1AU     LIG  241   4.029   6.495   6.988
    1AU       S  242   5.205   6.414   6.491
    1AU     LIG  243   5.388   6.804   6.731
    1AU     LIG  244   5.363   7.270   6.776
    1AU    AUSL  245   5.026   6.181   6.118
    1AU    AUSL  246   5.353   6.219   5.756
    1AU     AUL  247   5.067   6.453   5.890
    1AU       S  248   5.308   6.624   6.280
    1AU     LIG  249   5.139   7.029   6.325
    1AU     LIG  250   4.843   7.176   6.628
    1AU       S  251   5.290   6.437   5.452
    1AU     LIG  252   5.401   6.822   5.683
    1AU     LIG  253   5.715   7.189   5.588
    1AU    AUSL  254   5.493   6.171   6.156
    1AU    AUSL  255   5.511   5.852   6.743
    1AU     AUL  256   5.582   6.128   6.533
    1AU       S  257   5.708   5.943   6.973
    1AU     LIG  258   6.033   5.904   7.317
    1AU     LIG  259   6.409   6.152   7.242
    1AU       S  260   5.471   6.429   6.186
    1AU     LIG  261   5.798   6.691   6.396
    1AU     LIG  262   5.781   7.143   6.496
    1AU    AUSL  263   5.334   4.540   6.615
    1AU    AUSL  264   5.893   4.576   6.211
    1AU     AUL  265   5.659   4.364   6.507
    1AU       S  266   5.185   4.002   6.581
    1AU     LIG  267   4.930   3.689   6.795
    1AU     LIG  268   5.071   3.265   6.992
    1AU       S  269   6.090   4.433   6.279
    1AU     LIG  270   6.305   3.995   6.476
    1AU     LIG  271   6.574   3.878   6.843
    1AU    AUSL  272   5.155   4.384   6.240
    1AU    AUSL  273   5.053   4.799   6.444
    1AU     AUL  274   4.983   4.455   6.588
    1AU       S  275   5.096   4.081   6.316
    1AU     LIG  276   4.902   3.662   6.282
    1AU     LIG  277   4.869   3.262   6.528
    1AU       S  278   4.631   4.114   6.589
    1AU     LIG  279   4.385   3.945   6.935
    1AU     LIG  280   4.124   4.050   7.322
    1AU    AUSL  281   5.484   4.647   6.182
    1AU    AUSL  282   5.084   4.494   5.835
    1AU     AUL  283   5.435   4.294   6.035
    1AU       S  284   4.965   4.174   5.851
    1AU     LIG  285   4.742   3.768   5.816
    1AU     LIG  286   4.862   3.438   5.531
    1AU       S  287   5.358   3.928   6.365
    1AU     LIG  288   5.355   3.483   6.464
    1AU     LIG  289   5.575   3.316   6.821
    1AU    AUSL  290   5.294   5.925   5.441
    1AU    AUSL  291   5.614   5.879   5.763
    1AU     AUL  292   5.658   6.151   5.528
    1AU       S  293   5.296   6.137   5.213
    1AU     LIG  294   5.576   6.537   5.073
    1AU     LIG  295   5.421   6.962   5.187
    1AU       S  296   6.349   5.887   5.347
    1AU     LIG  297   6.292   6.360   5.313
    1AU     LIG  298   6.475   6.713   5.072
    1AU    AUSL  299   5.042   5.907   5.801
    1AU    AUSL  300   4.892   5.873   5.333
    1AU     AUL  301   4.926   6.148   5.550
    1AU       S  302   5.107   6.389   5.173
    1AU     LIG  303   4.909   6.757   5.413
    1AU     LIG  304   5.060   7.196   5.514
    1AU       S  305   4.629   5.986   5.194
    1AU     LIG  306   4.544   6.248   4.843
    1AU     LIG  307   4.382   6.669   4.727
    1AU    AUSL  308   5.232   4.557   5.409
    1AU    AUSL  309   4.704   4.575   5.653
    1AU     AUL  310   4.948   4.438   5.453
    1AU       S  311   4.479   4.541   5.434
    1AU     LIG  312   4.151   4.224   5.468
    1AU     LIG  313   3.923   3.851   5.263
    1AU       S  314   5.166   4.040   5.658
    1AU     LIG  315   4.875   3.918   5.333
    1AU     LIG  316   4.857   3.551   5.026
    1AU    AUSL  317   5.468   4.677   5.764
    1AU    AUSL  318   5.625   4.711   5.348
    1AU     AUL  319   5.526   4.383   5.558
    1AU       S  320   5.205   3.897   5.864
    1AU     LIG  321   5.355   3.572   5.557
    1AU     LIG  322   5.281   3.198   5.280
    1AU       S  323   5.820   4.568   5.202
    1AU     LIG  324   5.966   4.340   4.771
    1AU     LIG  325   6.157   3.896   4.670
    2POPC   NC3  326   3.352   8.736   7.981
    2POPC   PO4  327   3.934   8.456   8.186
    2POPC   GL1  328   3.823   8.854   7.716
    2POPC   GL2  329   3.479   9.007   7.594
    2POPC   C1A  330   3.757   8.815   7.234
    2POPC   D2A  331   3.737   8.479   6.949
    2POPC   C3A  332   3.485   8.418   6.572
    2POPC   C4A  333   3.556   8.588   6.212
    2POPC   C1B  334   3.245   8.760   7.298
    2POPC   C2B  335   3.259   8.682   6.929
    2POPC   C3B  336   3.103   8.743   6.547
    2POPC   C4B  337   3.174   8.919   6.146
    3POPC   NC3  338   1.118   5.059   8.158
    3POPC   PO4  339   0.593   4.620   8.197
    3POPC   GL1  340   0.884   4.791   7.765
    3POPC   GL2  341   1.098   5.084   7.669
    3POPC   C1A  342   1.111   4.701   7.343
    3POPC   D2A  343   0.949   4.816   6.931
    3POPC   C3A  344   1.067   4.610   6.544
    3POPC   C4A  345   1.119   4.798   6.123
    3POPC   C1B  346   1.354   5.169   7.328
    3POPC   C2B  347   1.452   5.033   6.934
    3POPC   C3B  348   1.272   5.059   6.565
    3POPC   C4B  349   1.402   5.200   6.207
    4POPC   NC3  350   9.424   1.820   8.149
    4POPC   PO4  351   8.902   2.149   7.919
    4POPC   GL1  352   9.081   1.947   7.602
    4POPC   GL2  353   9.366   1.761   7.655
    4POPC   C1A  354   9.181   2.048   7.207
    4POPC   D2A  355   9.308   1.851   6.831
    4POPC   C3A  356   9.483   2.080   6.502
    4POPC   C4A  357   9.665   2.263   6.150
    4POPC   C1B  358   9.358   1.552   7.278
    4POPC   C2B  359   9.715   1.631   7.027
    4POPC   C3B  360   9.755   1.633   6.566
    4POPC   C4B  361   9.941   1.413   6.222
    5POPC   NC3  362   0.210   7.820   8.376
    5POPC   PO4  363   0.023   7.378   8.012
    5POPC   GL1  364   0.190   7.570   7.595
    5POPC   GL2  365   0.316   7.878   7.522
    5POPC   C1A  366   0.389   7.576   7.148
    5POPC   D2A  367   0.588   7.796   6.809
    5POPC   C3A  368   0.558   7.679   6.347
    5POPC   C4A  369   0.239   7.728   5.983
    5POPC   C1B  370   0.328   8.244   7.292
    5POPC   C2B  371   0.443   8.289   6.887
    5POPC   C3B  372   0.289   8.092   6.526
    5POPC   C4B  373   0.390   8.154   6.152
    6POPC   NC3  374   2.966   1.511   8.123
    6POPC   PO4  375   3.606   1.677   8.234
    6POPC   GL1  376   3.593   1.442   7.856
    6POPC   GL2  377   3.631   1.078   7.842
    6POPC   C1A  378   3.503   1.507   7.440
    6POPC   D2A  379   3.513   1.672   7.033
    6POPC   C3A  380   3.679   1.516   6.641
    6POPC   C4A  381   3.494   1.474   6.233
    6POPC   C1B  382   3.409   1.009   7.422
    6POPC   C2B  383   3.522   1.155   7.002
    6POPC   C3B  384   3.396   1.048   6.574
    6POPC   C4B  385   3.570   0.994   6.155
    7POPC   NC3  386   8.504   9.193   8.113
    7POPC   PO4  387   9.002   9.591   8.345
    7POPC   GL1  388   8.902   9.502   7.792
    7POPC   GL2  389   8.725   9.238   7.636
    7POPC   C1A  390   8.816   9.668   7.374
    7POPC   D2A  391   8.675   9.675   6.951
    7POPC   C3A  392   8.741   9.375   6.652
    7POPC   C4A  393   8.685   9.522   6.250
    7POPC   C1B  394   8.531   9.228   7.236
    7POPC   C2B  395   8.374   9.033   6.870
    7POPC   C3B  396   8.230   9.206   6.503
    7POPC   C4B  397   8.279   9.313   6.069
    8POPC   NC3  398   6.211   0.430   8.169
    8POPC   PO4  399   6.791  10.484   8.067
    8POPC   GL1  400   6.649   0.212   7.643
    8POPC   GL2  401   6.388   0.457   7.698
    8POPC   C1A  402   6.536   0.453   7.215
    8POPC   D2A  403   6.336   0.720   6.891
    8POPC   C3A  404   6.507   0.700   6.484
    8POPC   C4A  405   6.746   0.544   6.117
    8POPC   C1B  406   6.225   0.072   7.426
    8POPC   C2B  407   6.347  10.469   7.006
    8POPC   C3B  408   6.407   0.216   6.637
    8POPC   C4B  409   6.285   0.299   6.210
    9POPC   NC3  410   9.027   4.750   8.162
    9POPC   PO4  411   8.620   5.253   7.963
    9POPC   GL1  412   8.934   5.080   7.728
    9POPC   GL2  413   8.774   4.779   7.673
    9POPC   C1A  414   8.905   5.176   7.297
    9POPC   D2A  415   8.689   5.091   6.923
    9POPC   C3A  416   8.733   4.882   6.552
    9POPC   C4A  417   8.818   4.954   6.121
    9POPC   C1B  418   8.570   4.762   7.285
    9POPC   C2B  419   8.339   4.725   6.890
    9POPC   C3B  420   8.343   4.566   6.444
    9POPC   C4B  421   8.385   4.666   5.978
   10POPC   NC3  422   4.448   9.422   8.005
   10POPC   PO4  423   3.761   9.354   8.147
   10POPC   GL1  424   4.010   9.524   7.733
   10POPC   GL2  425   4.139   9.261   7.522
   10POPC   C1A  426   4.069   9.688   7.265
   10POPC   D2A  427   4.084   9.471   6.857
   10POPC   C3A  428   3.794   9.511   6.504
   10POPC   C4A  429   3.946   9.482   6.038
   10POPC   C1B  430   4.446   9.267   7.161
   10POPC   C2B  431   4.616   9.006   6.847
   10POPC   C3B  432   4.456   8.860   6.474
   10POPC   C4B  433   4.215   9.245   6.398
   11POPC   NC3  434   9.847   5.501   8.322
   11POPC   PO4  435   9.604   5.226   7.789
   11POPC   GL1  436   9.887   5.331   7.513
   11POPC   GL2  437  10.143   5.518   7.699
   11POPC   C1A  438   9.759   5.202   7.108
   11POPC   D2A  439   9.687   5.513   6.813
   11POPC   C3A  440   9.646   5.433   6.389
   11POPC   C4A  441   9.847   5.645   6.071
   11POPC   C1B  442  10.309   5.713   7.331
   11POPC   C2B  443  10.103   5.884   6.944
   11POPC   C3B  444  10.074   5.754   6.526
   11POPC   C4B  445  10.299   5.867   6.150
   12POPC   NC3  446   6.296   1.574   8.274
   12POPC   PO4  447   5.962   2.128   8.287
   12POPC   GL1  448   6.295   1.887   7.884
   12POPC   GL2  449   6.536   2.110   7.735
   12POPC   C1A  450   6.237   1.722   7.406
   12POPC   D2A  451   6.463   1.676   6.970
   12POPC   C3A  452   6.238   1.592   6.569
   12POPC   C4A  453   6.260   1.688   6.136
   12POPC   C1B  454   6.440   2.176   7.281
   12POPC   C2B  455   6.655   2.167   6.885
   12POPC   C3B  456   6.583   1.952   6.509
   12POPC   C4B  457   6.631   2.012   6.078
   13POPC   NC3  458   1.433   0.928   8.054
   13POPC   PO4  459   2.087   0.872   8.048
   13POPC   GL1  460   1.958   1.087   7.667
   13POPC   GL2  461   2.262   1.267   7.651
   13POPC   C1A  462   1.719   1.095   7.283
   13POPC   D2A  463   1.649   0.840   6.879
   13POPC   C3A  464   1.903   0.869   6.470
   13POPC   C4A  465   1.713   0.843   6.031
   13POPC   C1B  466   2.140   1.411   7.258
   13POPC   C2B  467   1.969   1.256   6.865
   13POPC   C3B  468   1.744   1.339   6.490
   13POPC   C4B  469   1.999   1.246   6.117
   14POPC   NC3  470   7.143   2.049   8.100
   14POPC   PO4  471   6.702   1.479   8.110
   14POPC   GL1  472   6.855   1.693   7.728
   14POPC   GL2  473   7.203   1.806   7.666
   14POPC   C1A  474   6.843   1.850   7.290
   14POPC   D2A  475   6.986   1.761   6.870
   14POPC   C3A  476   7.066   2.083   6.553
   14POPC   C4A  477   7.061   1.824   6.247
   14POPC   C1B  478   7.353   1.693   7.260
   14POPC   C2B  479   7.601   1.582   6.896
   14POPC   C3B  480   7.504   1.774   6.514
   14POPC   C4B  481   7.511   2.074   6.187
   15POPC   NC3  482   6.342   9.238   8.056
   15POPC   PO4  483   6.885   9.630   8.240
   15POPC   GL1  484   6.655   9.563   7.758
   15POPC   GL2  485   6.422   9.349   7.576
   15POPC   C1A  486   6.564   9.747   7.317
   15POPC   D2A  487   6.519   9.572   6.896
   15POPC   C3A  488   6.528   9.810   6.521
   15POPC   C4A  489   6.512   9.765   6.074
   15POPC   C1B  490   6.236   9.219   7.188
   15POPC   C2B  491   6.060   9.353   6.789
   15POPC   C3B  492   6.273   9.331   6.405
   15POPC   C4B  493   6.194   9.364   5.960
   16POPC   NC3  494   9.499   3.338   8.145
   16POPC   PO4  495   9.835   3.919   8.095
   16POPC   GL1  496   9.744   3.563   7.768
   16POPC   GL2  497   9.384   3.558   7.684
   16POPC   C1A  498   9.699   3.339   7.339
   16POPC   D2A  499   9.562   3.502   6.905
   16POPC   C3A  500   9.764   3.546   6.509
   16POPC   C4A  501   9.579   3.546   6.095
   16POPC   C1B  502   9.213   3.411   7.265
   16POPC   C2B  503   9.048   3.450   6.868
   16POPC   C3B  504   9.246   3.471   6.487
   16POPC   C4B  505   9.183   3.213   6.123
   17POPC   NC3  506   0.437   5.774   8.319
   17POPC   PO4  507  10.317   5.533   8.193
   17POPC   GL1  508   0.169   5.494   7.823
   17POPC   GL2  509   0.476   5.742   7.803
   17POPC   C1A  510   0.291   5.444   7.342
   17POPC   D2A  511   0.131   5.675   6.939
   17POPC   C3A  512   0.184   5.834   6.513
   17POPC   C4A  513   0.189   5.523   6.196
   17POPC   C1B  514   0.615   5.873   7.381
   17POPC   C2B  515   0.648   5.668   6.968
   17POPC   C3B  516   0.590   5.537   6.532
   17POPC   C4B  517   0.609   5.784   6.143
   18POPC   NC3  518  10.191   0.449   8.267
   18POPC   PO4  519   9.639   0.132   8.028
   18POPC   GL1  520   9.994   0.153   7.741
   18POPC   GL2  521  10.177   0.435   7.711
   18POPC   C1A  522   9.920   0.204   7.277
   18POPC   D2A  523  10.038   0.525   7.023
   18POPC   C3A  524  10.096   0.533   6.617
   18POPC   C4A  525  10.201   0.399   6.224
   18POPC   C1B  526  10.442   0.456   7.321
   18POPC   C2B  527   0.070   0.601   6.884
   18POPC   C3B  528   0.027   0.755   6.443
   18POPC   C4B  529  10.485   0.734   5.952
   19POPC   NC3  530   1.500  10.436   8.036
   19POPC   PO4  531   2.188  10.309   7.996
   19POPC   GL1  532   1.834  10.279   7.665
   19POPC   GL2  533   1.741   9.937   7.536
   19POPC   C1A  534   1.633  10.359   7.247
   19POPC   D2A  535   1.526  10.225   6.842
   19POPC   C3A  536   1.766  10.464   6.539
   19POPC   C4A  537   1.625  10.467   6.124
   19POPC   C1B  538   2.017  10.018   7.236
   19POPC   C2B  539   1.908   9.931   6.834
   19POPC   C3B  540   1.707  10.003   6.390
   19POPC   C4B  541   2.046   9.872   6.109
   20POPC   NC3  542   0.466   6.728   8.228
   20POPC   PO4  543   0.760   6.076   8.163
   20POPC   GL1  544   0.651   6.272   7.764
   20POPC   GL2  545   0.337   6.465   7.752
   20POPC   C1A  546   0.633   6.396   7.325
   20POPC   D2A  547   0.450   6.533   6.947
   20POPC   C3A  548   0.650   6.507   6.564
   20POPC   C4A  549   0.468   6.268   6.225
   20POPC   C1B  550   0.131   6.627   7.358
   20POPC   C2B  551   0.031   6.828   6.958
   20POPC   C3B  552   0.121   6.682   6.576
   20POPC   C4B  553   0.319   6.762   6.202
   21POPC   NC3  554   2.443   2.083   8.040
   21POPC   PO4  555   2.488   1.417   8.076
   21POPC   GL1  556   2.648   1.657   7.735
   21POPC   GL2  557   2.762   1.995   7.625
   21POPC   C1A  558   2.617   1.613   7.315
   21POPC   D2A  559   2.793   1.805   6.983
   21POPC   C3A  560   2.615   1.719   6.601
   21POPC   C4A  561   2.544   1.524   6.232
   21POPC   C1B  562   2.479   2.099   7.313
   21POPC   C2B  563   2.361   2.106   6.874
   21POPC   C3B  564   2.433   2.179   6.445
   21POPC   C4B  565   2.840   2.089   6.293
   22POPC   NC3  566   9.235  10.414   8.155
   22POPC   PO4  567   9.273   9.873   7.907
   22POPC   GL1  568   9.404  10.268   7.675
   22POPC   GL2  569   9.735  10.291   7.505
   22POPC   C1A  570   9.364  10.429   7.224
   22POPC   D2A  571   9.529  10.379   6.829
   22POPC   C3A  572   9.166  10.373   6.551
   22POPC   C4A  573   9.031   0.072   6.165
   22POPC   C1B  574   9.601   9.947   7.292
   22POPC   C2B  575   9.665   9.841   6.870
   22POPC   C3B  576   9.516   9.979   6.532
   22POPC   C4B  577   9.685  10.335   6.276
   23POPC   NC3  578   9.675   8.530   8.057
   23POPC   PO4  579   9.176   8.279   7.753
   23POPC   GL1  580   9.472   8.559   7.593
   23POPC   GL2  581   9.440   8.908   7.739
   23POPC   C1A  582   9.705   8.509   7.227
   23POPC   D2A  583   9.545   8.498   6.868
   23POPC   C3A  584   9.803   8.453   6.567
   23POPC   C4A  585   9.677   8.358   6.192
   23POPC   C1B  586   9.627   8.996   7.361
   23POPC   C2B  587   9.487   8.999   6.949
   23POPC   C3B  588   9.638   8.941   6.530
   23POPC   C4B  589   9.364   8.791   6.232
   24POPC   NC3  590   5.470   2.117   8.265
   24POPC   PO4  591   6.016   2.296   7.790
   24POPC   GL1  592   5.667   2.406   7.559
   24POPC   GL2  593   5.602   2.760   7.615
   24POPC   C1A  594   5.716   2.478   7.126
   24POPC   D2A  595   5.714   2.317   6.750
   24POPC   C3A  596   5.758   2.534   6.395
   24POPC   C4A  597   5.565   2.737   6.019
   24POPC   C1B  598   5.607   2.969   7.199
   24POPC   C2B  599   5.509   2.818   6.764
   24POPC   C3B  600   5.735   3.051   6.407
   24POPC   C4B  601   6.013   3.101   6.052
   25POPC   NC3  602   7.563   4.082   8.149
   25POPC   PO4  603   7.122   3.726   7.870
   25POPC   GL1  604   7.348   3.893   7.552
   25POPC   GL2  605   7.232   4.198   7.644
   25POPC   C1A  606   7.508   4.260   7.244
   25POPC   D2A  607   7.513   4.438   6.808
   25POPC   C3A  608   7.433   4.139   6.464
   25POPC   C4A  609   7.201   4.091   6.058
   25POPC   C1B  610   7.025   4.037   7.202
   25POPC   C2B  611   7.019   4.120   6.752
   25POPC   C3B  612   6.787   4.165   6.354
   25POPC   C4B  613   6.816   4.479   6.052
   26POPC   NC3  614   2.627   9.997   7.956
   26POPC   PO4  615   3.143   0.032   8.191
   26POPC   GL1  616   3.005  10.398   7.803
   26POPC   GL2  617   2.648  10.454   7.764
   26POPC   C1A  618   3.004  10.305   7.369
   26POPC   D2A  619   3.186  10.123   7.020
   26POPC   C3A  620   2.875  10.165   6.734
   26POPC   C4A  621   2.667  10.374   6.400
   26POPC   C1B  622   2.474  10.246   7.362
   26POPC   C2B  623   2.404  10.108   6.918
   26POPC   C3B  624   2.224  10.144   6.511
   26POPC   C4B  625   2.486   9.868   6.332
   27POPC   NC3  626   1.052   0.240   8.121
   27POPC   PO4  627   0.954   0.946   8.047
   27POPC   GL1  628   1.136   0.614   7.740
   27POPC   GL2  629   1.240   0.281   7.667
   27POPC   C1A  630   0.957   0.484   7.316
   27POPC   D2A  631   1.085   0.512   6.868
   27POPC   C3A  632   0.907   0.271   6.496
   27POPC   C4A  633   0.870   0.515   6.086
   27POPC   C1B  634   1.464   0.357   7.288
   27POPC   C2B  635   1.472   0.208   6.897
   27POPC   C3B  636   1.415   0.353   6.494
   27POPC   C4B  637   1.413   0.425   6.083
   28POPC   NC3  638   4.384  10.293   8.076
   28POPC   PO4  639   3.864   9.976   7.935
   28POPC   GL1  640   4.129  10.079   7.584
   28POPC   GL2  641   4.246  10.405   7.607
   28POPC   C1A  642   4.034  10.207   7.130
   28POPC   D2A  643   3.928   9.958   6.744
   28POPC   C3A  644   4.203   9.850   6.374
   28POPC   C4A  645   4.185   9.910   5.896
   28POPC   C1B  646   4.536  10.294   7.273
   28POPC   C2B  647   4.496  10.240   6.842
   28POPC   C3B  648   4.210  10.365   6.546
   28POPC   C4B  649   4.250  10.359   6.134
   29POPC   NC3  650   8.455   1.867   8.055
   29POPC   PO4  651   8.390   2.524   8.320
   29POPC   GL1  652   8.428   2.288   7.770
   29POPC   GL2  653   8.564   1.968   7.597
   29POPC   C1A  654   8.280   2.170   7.267
   29POPC   D2A  655   8.344   2.282   6.806
   29POPC   C3A  656   8.488   2.011   6.455
   29POPC   C4A  657   8.555   1.989   5.992
   29POPC   C1B  658   8.711   1.875   7.232
   29POPC   C2B  659   8.802   2.005   6.851
   29POPC   C3B  660   8.943   1.790   6.487
   29POPC   C4B  661   9.021   2.148   6.277
   30POPC   NC3  662   3.384   4.215   7.909
   30POPC   PO4  663   3.786   3.716   8.087
   30POPC   GL1  664   3.676   3.840   7.603
   30POPC   GL2  665   3.362   4.012   7.430
   30POPC   C1A  666   3.708   3.844   7.119
   30POPC   D2A  667   3.457   4.124   6.838
   30POPC   C3A  668   3.635   4.146   6.424
   30POPC   C4A  669   3.738   3.968   6.032
   30POPC   C1B  670   3.177   4.403   7.268
   30POPC   C2B  671   3.162   4.615   6.852
   30POPC   C3B  672   3.183   4.391   6.466
   30POPC   C4B  673   3.393   4.473   6.071
   31POPC   NC3  674   3.612   1.209   8.359
   31POPC   PO4  675   4.264   1.388   8.125
   31POPC   GL1  676   4.116   1.331   7.735
   31POPC   GL2  677   4.262   0.994   7.743
   31POPC   C1A  678   3.894   1.142   7.394
   31POPC   D2A  679   3.933   0.829   7.055
   31POPC   C3A  680   3.902   1.005   6.630
   31POPC   C4A  681   3.962   1.277   6.266
   31POPC   C1B  682   4.406   1.115   7.331
   31POPC   C2B  683   4.472   0.988   6.915
   31POPC   C3B  684   4.395   1.100   6.519
   31POPC   C4B  685   4.250   0.859   6.235
   32POPC   NC3  686   2.026   9.170   8.164
   32POPC   PO4  687   2.222   8.538   8.140
   32POPC   GL1  688   1.879   8.667   7.835
   32POPC   GL2  689   1.634   8.941   7.891
   32POPC   C1A  690   1.812   8.553   7.386
   32POPC   D2A  691   2.019   8.352   7.024
   32POPC   C3A  692   1.990   8.572   6.649
   32POPC   C4A  693   2.289   8.831   6.413
   32POPC   C1B  694   1.586   9.020   7.440
   32POPC   C2B  695   1.640   8.893   6.998
   32POPC   C3B  696   1.493   8.779   6.576
   32POPC   C4B  697   1.740   8.681   6.216
   33POPC   NC3  698   0.219   5.025   8.107
   33POPC   PO4  699   0.709   5.415   8.160
   33POPC   GL1  700   0.612   5.236   7.735
   33POPC   GL2  701   0.399   4.943   7.655
   33POPC   C1A  702   0.738   5.120   7.302
   33POPC   D2A  703   0.556   5.161   6.890
   33POPC   C3A  704   0.763   5.049   6.497
   33POPC   C4A  705   0.640   4.992   6.063
   33POPC   C1B  706   0.245   4.910   7.255
   33POPC   C2B  707   0.093   4.964   6.849
   33POPC   C3B  708   0.230   4.979   6.406
   33POPC   C4B  709   0.275   4.633   6.078
   34POPC   NC3  710   9.938   4.950   7.973
   34POPC   PO4  711   0.034   4.627   7.988
   34POPC   GL1  712  10.328   4.737   7.684
   34POPC   GL2  713  10.382   5.068   7.714
   34POPC   C1A  714  10.289   4.641   7.280
   34POPC   D2A  715  10.104   4.854   6.956
   34POPC   C3A  716  10.224   4.778   6.539
   34POPC   C4A  717  10.313   4.857   6.117
   34POPC   C1B  718  10.319   5.181   7.306
   34POPC   C2B  719  10.216   5.373   6.943
   34POPC   C3B  720  10.402   5.359   6.580
   34POPC   C4B  721  10.110   5.265   6.326
   35POPC   NC3  722   7.859   0.757   8.079
   35POPC   PO4  723   8.072   0.191   7.999
   35POPC   GL1  724   8.136   0.491   7.634
   35POPC   GL2  725   7.803   0.682   7.566
   35POPC   C1A  726   8.117   0.471   7.155
   35POPC   D2A  727   8.243   0.724   6.806
   35POPC   C3A  728   8.058   0.647   6.398
   35POPC   C4A  729   8.310   0.618   6.026
   35POPC   C1B  730   7.735   0.243   7.389
   35POPC   C2B  731   7.782   0.006   6.994
   35POPC   C3B  732   7.705   0.022   6.555
   35POPC   C4B  733   7.749   0.285   6.173
   36POPC   NC3  734   8.111   5.805   8.599
   36POPC   PO4  735   8.009   5.402   8.082
   36POPC   GL1  736   8.110   5.475   7.662
   36POPC   GL2  737   8.117   5.823   7.687
   36POPC   C1A  738   7.901   5.503   7.241
   36POPC   D2A  739   7.644   5.278   6.899
   36POPC   C3A  740   7.750   5.339   6.464
   36POPC   C4A  741   8.093   5.557   6.353
   36POPC   C1B  742   8.070   5.985   7.297
   36POPC   C2B  743   7.781   5.950   6.961
   36POPC   C3B  744   7.910   5.992   6.548
   36POPC   C4B  745   7.748   5.949   6.134
   37POPC   NC3  746   8.550   0.336   8.158
   37POPC   PO4  747   9.072   0.786   8.016
   37POPC   GL1  748   8.693   0.672   7.745
   37POPC   GL2  749   8.656   0.309   7.676
   37POPC   C1A  750   8.595   0.599   7.284
   37POPC   D2A  751   8.776   0.526   6.875
   37POPC   C3A  752   8.593   0.520   6.465
   37POPC   C4A  753   8.817   0.572   6.083
   37POPC   C1B  754   8.414   0.064   7.409
   37POPC   C2B  755   8.311   0.001   6.980
   37POPC   C3B  756   8.168   0.226   6.665
   37POPC   C4B  757   8.233   0.186   6.251
   38POPC   NC3  758   3.084   7.135   7.895
   38POPC   PO4  759   2.527   6.993   8.122
   38POPC   GL1  760   2.640   6.981   7.684
   38POPC   GL2  761   2.666   7.334   7.687
   38POPC   C1A  762   2.764   6.913   7.245
   38POPC   D2A  763   2.627   6.821   6.815
   38POPC   C3A  764   2.855   6.894   6.431
   38POPC   C4A  765   2.879   7.198   6.102
   38POPC   C1B  766   2.723   7.431   7.272
   38POPC   C2B  767   2.569   7.456   6.873
   38POPC   C3B  768   2.484   7.239   6.511
   38POPC   C4B  769   2.489   7.521   6.199
   39POPC   NC3  770   4.695   8.684   8.012
   39POPC   PO4  771   5.389   8.652   8.059
   39POPC   GL1  772   5.155   8.859   7.745
   39POPC   GL2  773   5.121   8.546   7.575
   39POPC   C1A  774   5.003   8.968   7.321
   39POPC   D2A  775   5.017   8.709   6.966
   39POPC   C3A  776   5.036   8.941   6.572
   39POPC   C4A  777   5.220   9.097   6.185
   39POPC   C1B  778   4.697   8.554   7.334
   39POPC   C2B  779   4.563   8.488   6.904
   39POPC   C3B  780   4.816   8.466   6.561
   39POPC   C4B  781   4.875   8.434   6.159
   40POPC   NC3  782   5.804   1.915   7.902
   40POPC   PO4  783   5.196   1.749   8.145
   40POPC   GL1  784   5.329   2.049   7.773
   40POPC   GL2  785   5.455   1.781   7.565
   40POPC   C1A  786   5.322   2.144   7.274
   40POPC   D2A  787   5.448   1.886   6.908
   40POPC   C3A  788   5.420   2.023   6.471
   40POPC   C4A  789   5.510   1.736   6.158
   40POPC   C1B  790   5.817   1.984   7.251
   40POPC   C2B  791   6.118   2.043   6.857
   40POPC   C3B  792   5.946   1.998   6.403
   40POPC   C4B  793   5.712   2.176   6.036
   41POPC   NC3  794   0.466   2.108   8.058
   41POPC   PO4  795   0.477   1.477   8.069
   41POPC   GL1  796   0.458   1.736   7.668
   41POPC   GL2  797   0.678   2.041   7.597
   41POPC   C1A  798   0.539   1.765   7.205
   41POPC   D2A  799   0.719   2.025   6.948
   41POPC   C3A  800   0.564   2.062   6.568
   41POPC   C4A  801   0.678   1.834   6.213
   41POPC   C1B  802   0.306   2.194   7.342
   41POPC   C2B  803   0.161   2.434   6.968
   41POPC   C3B  804   0.013   2.332   6.555
   41POPC   C4B  805   0.182   2.075   6.235
   42POPC   NC3  806   6.015   1.026   7.937
   42POPC   PO4  807   6.580   0.728   8.107
   42POPC   GL1  808   6.504   0.997   7.761
   42POPC   GL2  809   6.359   1.357   7.757
   42POPC   C1A  810   6.350   0.957   7.352
   42POPC   D2A  811   6.211   1.232   7.036
   42POPC   C3A  812   6.118   1.107   6.611
   42POPC   C4A  813   6.327   1.116   6.211
   42POPC   C1B  814   6.613   1.390   7.384
   42POPC   C2B  815   6.816   1.264   7.031
   42POPC   C3B  816   6.614   1.240   6.665
   42POPC   C4B  817   6.683   1.485   6.300
   43POPC   NC3  818   1.453   1.953   8.103
   43POPC   PO4  819   1.448   2.622   8.205
   43POPC   GL1  820   1.472   2.380   7.756
   43POPC   GL2  821   1.248   2.062   7.659
   43POPC   C1A  822   1.486   2.216   7.264
   43POPC   D2A  823   1.537   1.977   6.845
   43POPC   C3A  824   1.452   2.216   6.456
   43POPC   C4A  825   1.470   2.171   5.992
   43POPC   C1B  826   1.056   1.798   7.354
   43POPC   C2B  827   1.117   1.688   6.953
   43POPC   C3B  828   1.061   1.889   6.572
   43POPC   C4B  829   1.281   1.753   6.233
   44POPC   NC3  830   2.607   4.061   8.016
   44POPC   PO4  831   3.192   3.807   7.847
   44POPC   GL1  832   2.872   3.850   7.587
   44POPC   GL2  833   2.795   4.192   7.555
   44POPC   C1A  834   2.940   3.886   7.168
   44POPC   D2A  835   2.869   4.206   6.912
   44POPC   C3A  836   2.783   4.085   6.547
   44POPC   C4A  837   2.835   4.179   6.117
   44POPC   C1B  838   2.464   4.062   7.221
   44POPC   C2B  839   2.349   4.269   6.803
   44POPC   C3B  840   2.363   4.286   6.331
   44POPC   C4B  841   2.487   4.495   5.941
   45POPC   NC3  842   8.501   7.873   8.176
   45POPC   PO4  843   9.091   8.129   8.313
   45POPC   GL1  844   8.821   7.974   7.821
   45POPC   GL2  845   8.525   8.005   7.674
   45POPC   C1A  846   8.960   7.782   7.381
   45POPC   D2A  847   9.079   7.877   6.954
   45POPC   C3A  848   8.971   7.785   6.538
   45POPC   C4A  849   9.045   7.554   6.152
   45POPC   C1B  850   8.604   8.138   7.251
   45POPC   C2B  851   8.613   8.027   6.846
   45POPC   C3B  852   8.592   8.182   6.465
   45POPC   C4B  853   8.700   7.957   6.128
   46POPC   NC3  854   9.867  10.210   7.968
   46POPC   PO4  855  10.454   0.077   8.131
   46POPC   GL1  856   0.015  10.403   7.759
   46POPC   GL2  857  10.359  10.064   7.774
   46POPC   C1A  858  10.336  10.448   7.380
   46POPC   D2A  859  10.339   0.124   6.964
   46POPC   C3A  860  10.280   0.029   6.557
   46POPC   C4A  861  10.312  10.383   6.133
   46POPC   C1B  862  10.122   9.988   7.381
   46POPC   C2B  863   9.985  10.222   7.023
   46POPC   C3B  864  10.025  10.093   6.592
   46POPC   C4B  865  10.070   9.951   6.190
   47POPC   NC3  866   1.012   4.418   8.063
   47POPC   PO4  867   1.564   4.546   8.481
   47POPC   GL1  868   1.478   4.212   7.959
   47POPC   GL2  869   1.209   4.012   7.766
   47POPC   C1A  870   1.432   4.289   7.413
   47POPC   D2A  871   1.402   4.497   6.961
   47POPC   C3A  872   1.399   4.217   6.564
   47POPC   C4A  873   1.503   4.237   6.096
   47POPC   C1B  874   0.937   4.151   7.399
   47POPC   C2B  875   0.920   4.303   6.980
   47POPC   C3B  876   0.873   4.143   6.563
   47POPC   C4B  877   1.039   4.037   6.170
   48POPC   NC3  878   2.168   0.382   8.042
   48POPC   PO4  879   1.486   0.410   8.088
   48POPC   GL1  880   1.747   0.352   7.725
   48POPC   GL2  881   1.635   0.690   7.624
   48POPC   C1A  882   2.031   0.163   7.386
   48POPC   D2A  883   2.052  10.472   6.968
   48POPC   C3A  884   2.281   0.136   6.614
   48POPC   C4A  885   2.232   0.060   6.170
   48POPC   C1B  886   2.036   0.679   7.385
   48POPC   C2B  887   2.196   0.496   7.012
   48POPC   C3B  888   1.892   0.424   6.718
   48POPC   C4B  889   1.886   0.404   6.288
   49POPC   NC3  890   6.919   0.423   8.005
   49POPC   PO4  891   7.426   0.904   7.987
   49POPC   GL1  892   7.268   0.742   7.637
   49POPC   GL2  893   7.320   0.382   7.660
   49POPC   C1A  894   7.392   0.658   7.214
   49POPC   D2A  895   7.345   0.318   6.907
   49POPC   C3A  896   7.560   0.509   6.589
   49POPC   C4A  897   7.566   0.784   6.243
   49POPC   C1B  898   7.018   0.325   7.328
   49POPC   C2B  899   6.841   0.157   6.952
   49POPC   C3B  900   6.906   0.343   6.570
   49POPC   C4B  901   7.218   0.367   6.226
   50POPC   NC3  902   6.961   2.947   8.237
   50POPC   PO4  903   7.677   3.053   8.097
   50POPC   GL1  904   7.385   2.864   7.779
   50POPC   GL2  905   7.272   2.491   7.803
   50POPC   C1A  906   7.469   2.666   7.363
   50POPC   D2A  907   7.180   2.597   7.012
   50POPC   C3A  908   7.129   2.717   6.614
   50POPC   C4A  909   6.926   2.947   6.272
   50POPC   C1B  910   7.186   2.236   7.397
   50POPC   C2B  911   7.344   2.125   6.968
   50POPC   C3B  912   7.490   2.368   6.598
   50POPC   C4B  913   7.324   2.566   6.191
   51POPC   NC3  914   7.090  10.019   8.397
   51POPC   PO4  915   7.320   9.801   7.804
   51POPC   GL1  916   7.144  10.030   7.488
   51POPC   GL2  917   7.091  10.385   7.651
   51POPC   C1A  918   7.057   9.788   7.148
   51POPC   D2A  919   7.230   9.719   6.785
   51POPC   C3A  920   7.048   9.946   6.548
   51POPC   C4A  921   6.937  10.065   6.191
   51POPC   C1B  922   7.339  10.433   7.281
   51POPC   C2B  923   7.170  10.280   6.929
   51POPC   C3B  924   7.195  10.432   6.526
   51POPC   C4B  925   7.411  10.241   6.223
   52POPC   NC3  926  10.263   1.282   8.161
   52POPC   PO4  927   9.832   0.752   8.226
   52POPC   GL1  928  10.062   0.914   7.855
   52POPC   GL2  929  10.059   1.273   7.703
   52POPC   C1A  930  10.095   0.853   7.402
   52POPC   D2A  931  10.213   0.985   6.949
   52POPC   C3A  932   9.952   1.042   6.606
   52POPC   C4A  933  10.097   0.917   6.233
   52POPC   C1B  934  10.225   1.373   7.296
   52POPC   C2B  935  10.166   1.479   6.858
   52POPC   C3B  936  10.390   1.276   6.538
   52POPC   C4B  937   0.026   1.220   6.147
   53POPC   NC3  938   8.518   7.097   7.943
   53POPC   PO4  939   8.952   7.585   8.113
   53POPC   GL1  940   8.685   7.499   7.704
   53POPC   GL2  941   8.726   7.168   7.503
   53POPC   C1A  942   8.509   7.566   7.278
   53POPC   D2A  943   8.738   7.498   6.899
   53POPC   C3A  944   8.503   7.616   6.518
   53POPC   C4A  945   8.539   7.448   6.093
   53POPC   C1B  946   8.371   7.063   7.263
   53POPC   C2B  947   8.311   7.230   6.859
   53POPC   C3B  948   8.494   7.101   6.514
   53POPC   C4B  949   8.719   6.986   6.202
   54POPC   NC3  950   8.756   4.007   8.150
   54POPC   PO4  951   8.509   4.577   8.062
   54POPC   GL1  952   8.558   4.305   7.679
   54POPC   GL2  953   8.847   4.239   7.712
   54POPC   C1A  954   8.539   3.995   7.344
   54POPC   D2A  955   8.361   3.854   6.958
   54POPC   C3A  956   8.466   4.074   6.630
   54POPC   C4A  957   8.502   3.787   6.313
   54POPC   C1B  958   8.917   4.397   7.319
   54POPC   C2B  959   8.748   4.434   6.929
   54POPC   C3B  960   8.880   4.403   6.543
   54POPC   C4B  961   8.693   4.251   6.206
   55POPC   NC3  962   9.307   7.274   8.201
   55POPC   PO4  963   9.073   6.670   8.319
   55POPC   GL1  964   9.302   6.880   7.828
   55POPC   GL2  965   9.491   7.195   7.723
   55POPC   C1A  966   9.179   7.087   7.346
   55POPC   D2A  967   8.937   6.997   6.940
   55POPC   C3A  968   9.034   7.225   6.546
   55POPC   C4A  969   9.220   7.079   6.139
   55POPC   C1B  970   9.678   7.026   7.350
   55POPC   C2B  971   9.499   6.957   6.952
   55POPC   C3B  972   9.541   7.097   6.563
   55POPC   C4B  973   9.827   7.014   6.285
   56POPC   NC3  974  10.131   7.641   8.033
   56POPC   PO4  975  10.475   8.182   8.237
   56POPC   GL1  976  10.409   8.006   7.781
   56POPC   GL2  977  10.124   7.916   7.634
   56POPC   C1A  978  10.405   7.803   7.275
   56POPC   D2A  979   0.071   7.913   6.949
   56POPC   C3A  980  10.313   7.768   6.691
   56POPC   C4A  981  10.365   7.796   6.296
   56POPC   C1B  982   9.933   7.993   7.276
   56POPC   C2B  983  10.020   8.134   6.906
   56POPC   C3B  984   9.884   7.959   6.494
   56POPC   C4B  985   9.786   7.870   6.090
   57POPC   NC3  986   1.604   3.032   8.367
   57POPC   PO4  987   0.929   3.099   8.104
   57POPC   GL1  988   0.952   3.361   7.735
   57POPC   GL2  989   1.303   3.480   7.696
   57POPC   C1A  990   1.025   3.279   7.315
   57POPC   D2A  991   1.250   3.255   6.954
   57POPC   C3A  992   1.018   3.276   6.596
   57POPC   C4A  993   1.171   3.355   6.194
   57POPC   C1B  994   1.255   3.744   7.321
   57POPC   C2B  995   1.064   3.797   6.927
   57POPC   C3B  996   1.222   3.737   6.528
   57POPC   C4B  997   1.534   3.738   6.189
   58POPC   NC3  998  10.198   3.625   8.041
   58POPC   PO4  999   9.864   3.060   8.150
   58POPC   GL1 1000  10.000   3.111   7.709
   58POPC   GL2 1001  10.164   3.418   7.536
   58POPC   C1A 1002  10.040   2.972   7.281
   58POPC   D2A 1003   9.856   3.094   6.881
   58POPC   C3A 1004  10.099   3.137   6.532
   58POPC   C4A 1005   9.992   3.223   6.120
   58POPC   C1B 1006  10.054   3.674   7.185
   58POPC   C2B 1007  10.202   3.570   6.791
   58POPC   C3B 1008  10.233   3.632   6.347
   58POPC   C4B 1009  10.037   3.693   5.963
   59POPC   NC3 1010   7.113   7.821   8.387
   59POPC   PO4 1011   7.303   7.871   7.857
   59POPC   GL1 1012   7.110   7.987   7.560
   59POPC   GL2 1013   7.006   8.332   7.538
   59POPC   C1A 1014   7.133   7.757   7.227
   59POPC   D2A 1015   7.349   7.615   6.892
   59POPC   C3A 1016   7.166   7.680   6.479
   59POPC   C4A 1017   7.308   7.673   6.021
   59POPC   C1B 1018   7.304   8.277   7.211
   59POPC   C2B 1019   7.134   8.100   6.860
   59POPC   C3B 1020   7.174   8.182   6.491
   59POPC   C4B 1021   6.992   8.044   6.130
   60POPC   NC3 1022   2.756   6.591   8.142
   60POPC   PO4 1023   2.960   5.878   7.985
   60POPC   GL1 1024   2.789   6.197   7.673
   60POPC   GL2 1025   2.543   6.459   7.697
   60POPC   C1A 1026   2.864   6.368   7.225
   60POPC   D2A 1027   3.151   6.261   6.838
   60POPC   C3A 1028   3.022   6.398   6.400
   60POPC   C4A 1029   3.038   6.139   5.982
   60POPC   C1B 1030   2.345   6.253   7.336
   60POPC   C2B 1031   2.245   6.212   6.897
   60POPC   C3B 1032   2.438   6.416   6.519
   60POPC   C4B 1033   2.581   6.358   6.099
   61POPC   NC3 1034   8.186   4.234   7.996
   61POPC   PO4 1035   7.865   3.722   8.201
   61POPC   GL1 1036   7.806   3.849   7.768
   61POPC   GL2 1037   7.808   4.151   7.639
   61POPC   C1A 1038   7.764   3.758   7.314
   61POPC   D2A 1039   7.686   3.954   6.902
   61POPC   C3A 1040   7.961   3.910   6.547
   61POPC   C4A 1041   8.151   4.118   6.213
   61POPC   C1B 1042   8.053   4.188   7.248
   61POPC   C2B 1043   8.034   4.332   6.803
   61POPC   C3B 1044   7.831   4.456   6.393
   61POPC   C4B 1045   7.495   4.511   6.084
   62POPC   NC3 1046   0.149   0.432   7.917
   62POPC   PO4 1047   0.644   0.048   8.036
   62POPC   GL1 1048   0.581   0.215   7.640
   62POPC   GL2 1049   0.627   0.572   7.761
   62POPC   C1A 1050   0.336   0.085   7.237
   62POPC   D2A 1051   0.296   0.148   6.758
   62POPC   C3A 1052   0.282  10.459   6.348
   62POPC   C4A 1053   0.592   0.082   6.028
   62POPC   C1B 1054   0.454   0.610   7.346
   62POPC   C2B 1055   0.587   0.525   6.959
   62POPC   C3B 1056   0.666   0.698   6.589
   62POPC   C4B 1057   0.425   0.442   6.345
   63POPC   NC3 1058   0.184   4.428   8.385
   63POPC   PO4 1059   0.352   3.893   8.059
   63POPC   GL1 1060   0.576   4.094   7.742
   63POPC   GL2 1061   0.517   4.435   7.735
   63POPC   C1A 1062   0.424   4.105   7.298
   63POPC   D2A 1063   0.526   3.978   6.907
   63POPC   C3A 1064   0.364   4.096   6.510
   63POPC   C4A 1065   0.529   4.018   6.122
   63POPC   C1B 1066   0.623   4.577   7.338
   63POPC   C2B 1067   0.443   4.519   6.939
   63POPC   C3B 1068   0.548   4.581   6.528
   63POPC   C4B 1069   0.748   4.463   6.158
   64POPC   NC3 1070   4.007   0.703   8.096
   64POPC   PO4 1071   3.960   0.050   8.095
   64POPC   GL1 1072   3.945   0.297   7.752
   64POPC   GL2 1073   4.274   0.451   7.738
   64POPC   C1A 1074   3.926   0.193   7.328
   64POPC   D2A 1075   3.728   0.333   6.963
   64POPC   C3A 1076   3.831   0.240   6.537
   64POPC   C4A 1077   3.816   0.598   6.307
   64POPC   C1B 1078   4.407   0.304   7.341
   64POPC   C2B 1079   4.246   0.207   6.940
   64POPC   C3B 1080   4.194   0.559   6.675
   64POPC   C4B 1081   4.312   0.357   6.306
   65POPC   NC3 1082   5.021   9.597   8.260
   65POPC   PO4 1083   4.700   9.096   8.246
   65POPC   GL1 1084   4.943   9.329   7.819
   65POPC   GL2 1085   5.042   9.695   7.766
   65POPC   C1A 1086   5.155   9.447   7.364
   65POPC   D2A 1087   4.931   9.410   6.980
   65POPC   C3A 1088   5.173   9.437   6.613
   65POPC   C4A 1089   5.079   9.600   6.250
   65POPC   C1B 1090   4.670   9.629   7.449
   65POPC   C2B 1091   4.522   9.763   7.030
   65POPC   C3B 1092   4.604   9.618   6.610
   65POPC   C4B 1093   4.721   9.276   6.354
   66POPC   NC3 1094   2.736   5.053   8.037
   66POPC   PO4 1095   3.016   4.470   8.002
   66POPC   GL1 1096   2.807   4.701   7.677
   66POPC   GL2 1097   2.439   4.731   7.748
   66POPC   C1A 1098   2.690   5.023   7.362
   66POPC   D2A 1099   2.789   5.352   7.090
   66POPC   C3A 1100   2.884   5.111   6.722
   66POPC   C4A 1101   2.862   5.181   6.299
   66POPC   C1B 1102   2.488   4.550   7.326
   66POPC   C2B 1103   2.647   4.682   6.944
   66POPC   C3B 1104   2.606   4.720   6.506
   66POPC   C4B 1105   2.887   4.683   6.178
   67POPC   NC3 1106   8.871   8.452   8.055
   67POPC   PO4 1107   9.024   9.081   8.015
   67POPC   GL1 1108   8.953   8.781   7.661
   67POPC   GL2 1109   8.721   8.498   7.590
   67POPC   C1A 1110   9.122   8.731   7.259
   67POPC   D2A 1111   9.059   8.379   7.010
   67POPC   C3A 1112   9.075   8.541   6.605
   67POPC   C4A 1113   8.977   8.409   6.209
   67POPC   C1B 1114   8.575   8.700   7.243
   67POPC   C2B 1115   8.596   8.562   6.829
   67POPC   C3B 1116   8.616   8.707   6.399
   67POPC   C4B 1117   8.496   8.440   6.016
   68POPC   NC3 1118   5.291   0.402   7.779
   68POPC   PO4 1119   4.928  10.467   8.093
   68POPC   GL1 1120   4.739   0.200   7.741
   68POPC   GL2 1121   4.788   0.570   7.721
   68POPC   C1A 1122   4.885   0.211   7.299
   68POPC   D2A 1123   5.136   0.445   7.054
   68POPC   C3A 1124   5.112   0.414   6.635
   68POPC   C4A 1125   5.048   0.371   6.226
   68POPC   C1B 1126   4.742   0.705   7.291
   68POPC   C2B 1127   4.660   0.498   6.903
   68POPC   C3B 1128   4.671   0.659   6.514
   68POPC   C4B 1129   4.696   0.693   6.098
   69POPC   NC3 1130   9.239   5.483   7.911
   69POPC   PO4 1131   9.720   5.921   8.176
   69POPC   GL1 1132   9.696   5.761   7.781
   69POPC   GL2 1133   9.388   5.871   7.607
   69POPC   C1A 1134   9.835   5.877   7.384
   69POPC   D2A 1135   9.558   6.025   7.098
   69POPC   C3A 1136   9.623   5.998   6.670
   69POPC   C4A 1137   9.459   5.929   6.279
   69POPC   C1B 1138   9.403   5.556   7.262
   69POPC   C2B 1139   9.212   5.331   6.922
   69POPC   C3B 1140   9.169   5.482   6.527
   69POPC   C4B 1141   9.201   5.317   6.153
   70POPC   NC3 1142   4.286   2.766   8.047
   70POPC   PO4 1143   3.825   2.338   7.970
   70POPC   GL1 1144   4.087   2.540   7.631
   70POPC   GL2 1145   4.009   2.862   7.572
   70POPC   C1A 1146   4.337   2.538   7.226
   70POPC   D2A 1147   4.456   2.777   6.830
   70POPC   C3A 1148   4.248   2.771   6.451
   70POPC   C4A 1149   4.105   2.549   6.101
   70POPC   C1B 1150   3.838   2.681   7.191
   70POPC   C2B 1151   3.835   2.693   6.734
   70POPC   C3B 1152   3.749   2.853   6.345
   70POPC   C4B 1153   3.703   2.774   5.894
   71POPC   NC3 1154   7.053   7.026   8.425
   71POPC   PO4 1155   7.514   6.848   8.012
   71POPC   GL1 1156   7.560   6.698   7.653
   71POPC   GL2 1157   7.369   6.408   7.646
   71POPC   C1A 1158   7.387   6.809   7.258
   71POPC   D2A 1159   7.123   6.795   6.917
   71POPC   C3A 1160   7.252   6.774   6.508
   71POPC   C4A 1161   7.101   6.492   6.210
   71POPC   C1B 1162   7.190   6.343   7.192
   71POPC   C2B 1163   7.123   6.306   6.732
   71POPC   C3B 1164   6.968   6.050   6.417
   71POPC   C4B 1165   7.228   6.010   6.045
   72POPC   NC3 1166   1.041   5.714   8.073
   72POPC   PO4 1167   1.481   6.178   8.052
   72POPC   GL1 1168   1.540   5.855   7.719
   72POPC   GL2 1169   1.326   5.547   7.693
   72POPC   C1A 1170   1.530   5.723   7.282
   72POPC   D2A 1171   1.327   5.815   6.919
   72POPC   C3A 1172   1.523   5.940   6.540
   72POPC   C4A 1173   1.343   5.776   6.180
   72POPC   C1B 1174   1.029   5.563   7.349
   72POPC   C2B 1175   1.050   5.359   6.944
   72POPC   C3B 1176   1.099   5.533   6.548
   72POPC   C4B 1177   0.942   5.402   6.159
   73POPC   NC3 1178   3.568  10.305   8.095
   73POPC   PO4 1179   3.074   9.879   7.910
   73POPC   GL1 1180   3.413  10.062   7.643
   73POPC   GL2 1181   3.688  10.343   7.617
   73POPC   C1A 1182   3.605   9.914   7.271
   73POPC   D2A 1183   3.509   9.687   6.903
   73POPC   C3A 1184   3.345   9.940   6.561
   73POPC   C4A 1185   2.986   9.989   6.277
   73POPC   C1B 1186   3.517  10.426   7.245
   73POPC   C2B 1187   3.605  10.357   6.814
   73POPC   C3B 1188   3.711  10.274   6.385
   73POPC   C4B 1189   3.741   9.908   6.199
   74POPC   NC3 1190   0.273   8.403   7.952
   74POPC   PO4 1191   0.830   8.739   8.079
   74POPC   GL1 1192   0.720   8.559   7.727
   74POPC   GL2 1193   0.506   8.794   7.609
   74POPC   C1A 1194   0.771   8.493   7.297
   74POPC   D2A 1195   0.642   8.758   6.963
   74POPC   C3A 1196   0.762   8.579   6.599
   74POPC   C4A 1197   0.624   8.578   6.215
   74POPC   C1B 1198   0.207   8.763   7.279
   74POPC   C2B 1199   0.155   8.855   6.862
   74POPC   C3B 1200   0.225   8.608   6.532
   74POPC   C4B 1201   0.066   8.539   6.150
   75POPC   NC3 1202   1.071   6.426   8.054
   75POPC   PO4 1203   0.910   6.977   8.242
   75POPC   GL1 1204   1.134   6.883   7.772
   75POPC   GL2 1205   1.028   6.593   7.585
   75POPC   C1A 1206   1.426   6.718   7.338
   75POPC   D2A 1207   1.203   6.553   6.939
   75POPC   C3A 1208   1.401   6.543   6.496
   75POPC   C4A 1209   1.307   6.512   6.030
   75POPC   C1B 1210   1.127   6.200   7.374
   75POPC   C2B 1211   0.918   6.109   6.989
   75POPC   C3B 1212   1.049   6.140   6.567
   75POPC   C4B 1213   0.985   6.140   6.139
   76POPC   NC3 1214   0.081   4.198   7.832
   76POPC   PO4 1215  10.058   4.495   8.148
   76POPC   GL1 1216  10.067   4.287   7.740
   76POPC   GL2 1217  10.140   3.940   7.651
   76POPC   C1A 1218   9.925   4.251   7.304
   76POPC   D2A 1219  10.109   4.326   6.911
   76POPC   C3A 1220   9.877   4.388   6.569
   76POPC   C4A 1221  10.046   4.431   6.182
   76POPC   C1B 1222  10.391   4.046   7.262
   76POPC   C2B 1223   0.001   3.985   6.853
   76POPC   C3B 1224  10.348   4.121   6.454
   76POPC   C4B 1225  10.443   4.003   6.020
   77POPC   NC3 1226   1.834   5.869   8.154
   77POPC   PO4 1227   1.457   5.380   8.149
   77POPC   GL1 1228   1.809   5.423   7.812
   77POPC   GL2 1229   2.051   5.666   7.742
   77POPC   C1A 1230   1.834   5.323   7.396
   77POPC   D2A 1231   1.910   5.323   6.961
   77POPC   C3A 1232   1.632   5.443   6.632
   77POPC   C4A 1233   1.832   5.447   6.218
   77POPC   C1B 1234   2.022   5.853   7.339
   77POPC   C2B 1235   1.856   5.869   6.925
   77POPC   C3B 1236   2.037   5.780   6.542
   77POPC   C4B 1237   2.242   6.005   6.254
   78POPC   NC3 1238   8.502   3.337   7.878
   78POPC   PO4 1239   9.130   3.116   8.003
   78POPC   GL1 1240   8.926   3.341   7.646
   78POPC   GL2 1241   8.860   3.711   7.716
   78POPC   C1A 1242   8.700   3.499   7.261
   78POPC   D2A 1243   8.536   3.291   6.902
   78POPC   C3A 1244   8.714   3.349   6.489
   78POPC   C4A 1245   8.460   3.286   6.119
   78POPC   C1B 1246   9.049   3.893   7.342
   78POPC   C2B 1247   8.882   3.935   6.931
   78POPC   C3B 1248   8.964   3.899   6.496
   78POPC   C4B 1249   8.936   3.641   6.129
   79POPC   NC3 1250   9.829   4.222   8.476
   79POPC   PO4 1251   9.160   4.289   8.160
   79POPC   GL1 1252   9.313   4.075   7.740
   79POPC   GL2 1253   9.626   4.028   7.650
   79POPC   C1A 1254   9.412   4.316   7.318
   79POPC   D2A 1255   9.246   4.292   6.916
   79POPC   C3A 1256   9.384   4.477   6.540
   79POPC   C4A 1257   9.226   4.250   6.179
   79POPC   C1B 1258   9.575   3.837   7.296
   79POPC   C2B 1259   9.679   4.006   6.916
   79POPC   C3B 1260   9.477   3.968   6.547
   79POPC   C4B 1261   9.744   4.024   6.220
   80POPC   NC3 1262   6.282   6.728   7.686
   80POPC   PO4 1263   6.661   7.147   8.109
   80POPC   GL1 1264   6.656   7.147   7.654
   80POPC   GL2 1265   6.349   7.312   7.617
   80POPC   C1A 1266   6.737   6.888   7.251
   80POPC   D2A 1267   6.640   6.939   6.796
   80POPC   C3A 1268   6.629   6.624   6.457
   80POPC   C4A 1269   6.312   6.691   6.111
   80POPC   C1B 1270   6.551   7.368   7.205
   80POPC   C2B 1271   6.343   7.347   6.820
   80POPC   C3B 1272   6.293   7.145   6.406
   80POPC   C4B 1273   5.997   7.130   6.032
   81POPC   NC3 1274   0.608   1.113   8.319
   81POPC   PO4 1275  10.491   0.796   8.154
   81POPC   GL1 1276   0.058   0.947   7.733
   81POPC   GL2 1277   0.086   1.311   7.742
   81POPC   C1A 1278   0.081   0.939   7.282
   81POPC   D2A 1279   0.427   1.015   6.981
   81POPC   C3A 1280   0.387   1.108   6.549
   81POPC   C4A 1281   0.426   0.895   6.156
   81POPC   C1B 1282   0.289   1.370   7.351
   81POPC   C2B 1283   0.187   1.483   6.913
   81POPC   C3B 1284   0.310   1.584   6.444
   81POPC   C4B 1285   0.540   1.361   6.094
   82POPC   NC3 1286   9.240   6.277   8.154
   82POPC   PO4 1287   8.825   6.773   7.846
   82POPC   GL1 1288   9.014   6.362   7.694
   82POPC   GL2 1289   9.387   6.377   7.678
   82POPC   C1A 1290   9.075   6.171   7.283
   82POPC   D2A 1291   8.873   6.278   6.874
   82POPC   C3A 1292   9.147   6.290   6.507
   82POPC   C4A 1293   9.193   6.720   6.474
   82POPC   C1B 1294   9.323   6.607   7.309
   82POPC   C2B 1295   9.405   6.465   6.898
   82POPC   C3B 1296   9.647   6.484   6.507
   82POPC   C4B 1297   9.936   6.198   6.292
   83POPC   NC3 1298   9.491   0.591   7.934
   83POPC   PO4 1299   9.008   0.287   8.273
   83POPC   GL1 1300   9.150   0.253   7.773
   83POPC   GL2 1301   9.498   0.266   7.561
   83POPC   C1A 1302   9.090   0.449   7.331
   83POPC   D2A 1303   9.290   0.332   6.920
   83POPC   C3A 1304   9.157   0.453   6.515
   83POPC   C4A 1305   9.034   0.848   6.444
   83POPC   C1B 1306   9.596   0.618   7.264
   83POPC   C2B 1307   9.624   0.713   6.811
   83POPC   C3B 1308   9.647   0.664   6.377
   83POPC   C4B 1309   9.505   0.316   6.141
   84POPC   NC3 1310   7.105   6.986   7.838
   84POPC   PO4 1311   7.377   7.357   8.383
   84POPC   GL1 1312   7.404   7.371   7.868
   84POPC   GL2 1313   7.101   7.445   7.631
   84POPC   C1A 1314   7.524   7.360   7.379
   84POPC   D2A 1315   7.582   7.156   6.947
   84POPC   C3A 1316   7.559   7.323   6.540
   84POPC   C4A 1317   7.282   7.222   6.262
   84POPC   C1B 1318   7.070   7.259   7.174
   84POPC   C2B 1319   7.023   7.254   6.710
   84POPC   C3B 1320   6.815   7.068   6.323
   84POPC   C4B 1321   6.789   6.777   5.941
   85POPC   NC3 1322   7.800   1.738   8.169
   85POPC   PO4 1323   8.098   2.145   8.087
   85POPC   GL1 1324   8.047   1.883   7.679
   85POPC   GL2 1325   7.722   1.708   7.630
   85POPC   C1A 1326   8.030   1.717   7.217
   85POPC   D2A 1327   8.206   1.775   6.817
   85POPC   C3A 1328   7.996   1.608   6.449
   85POPC   C4A 1329   8.122   1.548   5.988
   85POPC   C1B 1330   7.698   2.074   7.322
   85POPC   C2B 1331   7.853   2.152   6.927
   85POPC   C3B 1332   7.927   2.115   6.527
   85POPC   C4B 1333   8.073   2.021   6.172
   86POPC   NC3 1334   7.150   9.194   8.229
   86POPC   PO4 1335   7.498   9.821   8.315
   86POPC   GL1 1336   7.447   9.335   7.879
   86POPC   GL2 1337   7.103   9.333   7.743
   86POPC   C1A 1338   7.443   9.114   7.427
   86POPC   D2A 1339   7.334   8.951   6.992
   86POPC   C3A 1340   7.348   9.173   6.603
   86POPC   C4A 1341   7.468   9.051   6.176
   86POPC   C1B 1342   6.889   9.313   7.353
   86POPC   C2B 1343   6.945   9.296   6.915
   86POPC   C3B 1344   6.930   9.447   6.482
   86POPC   C4B 1345   7.336   9.600   6.294
   87POPC   NC3 1346   6.964   1.088   8.128
   87POPC   PO4 1347   7.425   1.485   8.157
   87POPC   GL1 1348   7.272   1.315   7.728
   87POPC   GL2 1349   6.963   1.185   7.652
   87POPC   C1A 1350   7.284   1.188   7.286
   87POPC   D2A 1351   7.299   1.108   6.875
   87POPC   C3A 1352   7.126   1.374   6.557
   87POPC   C4A 1353   7.163   1.347   6.104
   87POPC   C1B 1354   6.860   0.852   7.356
   87POPC   C2B 1355   6.948   0.695   6.940
   87POPC   C3B 1356   7.113   0.798   6.523
   87POPC   C4B 1357   6.850   1.009   6.289
   88POPC   NC3 1358   2.534   0.946   8.137
   88POPC   PO4 1359   3.204   1.030   8.164
   88POPC   GL1 1360   3.114   1.241   7.739
   88POPC   GL2 1361   2.778   1.149   7.710
   88POPC   C1A 1362   3.049   1.350   7.284
   88POPC   D2A 1363   3.015   1.099   6.936
   88POPC   C3A 1364   2.876   1.259   6.557
   88POPC   C4A 1365   3.043   1.118   6.207
   88POPC   C1B 1366   2.584   1.107   7.300
   88POPC   C2B 1367   2.506   1.301   6.907
   88POPC   C3B 1368   2.344   1.158   6.523
   88POPC   C4B 1369   2.458   1.041   6.118
   89POPC   NC3 1370   0.529   9.100   8.025
   89POPC   PO4 1371   0.416   9.768   7.976
   89POPC   GL1 1372   0.629   9.443   7.683
   89POPC   GL2 1373   0.328   9.280   7.582
   89POPC   C1A 1374   0.689   9.177   7.259
   89POPC   D2A 1375   0.456   9.265   6.855
   89POPC   C3A 1376   0.518   9.031   6.471
   89POPC   C4A 1377   0.533   9.023   5.993
   89POPC   C1B 1378   0.433   9.628   7.281
   89POPC   C2B 1379   0.303   9.753   6.905
   89POPC   C3B 1380   0.480   9.789   6.537
   89POPC   C4B 1381   0.368   9.482   6.232
   90POPC   NC3 1382   5.629   9.040   8.049
   90POPC   PO4 1383   5.483   9.701   8.102
   90POPC   GL1 1384   5.579   9.467   7.717
   90POPC   GL2 1385   5.928   9.310   7.717
   90POPC   C1A 1386   5.590   9.165   7.360
   90POPC   D2A 1387   5.354   9.096   6.961
   90POPC   C3A 1388   5.574   9.106   6.566
   90POPC   C4A 1389   5.743   9.341   6.225
   90POPC   C1B 1390   5.915   9.584   7.338
   90POPC   C2B 1391   5.618   9.535   7.005
   90POPC   C3B 1392   5.666   9.646   6.626
   90POPC   C4B 1393   6.029   9.765   6.346
   91POPC   NC3 1394   3.669   2.787   7.951
   91POPC   PO4 1395   3.058   3.041   8.210
   91POPC   GL1 1396   3.187   2.842   7.786
   91POPC   GL2 1397   3.337   2.447   7.782
   91POPC   C1A 1398   3.192   2.985   7.355
   91POPC   D2A 1399   3.056   2.791   6.992
   91POPC   C3A 1400   3.187   2.897   6.562
   91POPC   C4A 1401   3.342   3.088   6.194
   91POPC   C1B 1402   3.323   2.485   7.349
   91POPC   C2B 1403   3.436   2.479   6.938
   91POPC   C3B 1404   3.452   2.448   6.513
   91POPC   C4B 1405   3.293   2.573   6.137
   92POPC   NC3 1406   1.827   8.193   8.088
   92POPC   PO4 1407   1.716   7.566   8.243
   92POPC   GL1 1408   1.601   7.788   7.801
   92POPC   GL2 1409   1.688   8.093   7.600
   92POPC   C1A 1410   1.695   7.645   7.342
   92POPC   D2A 1411   1.699   7.917   6.965
   92POPC   C3A 1412   1.683   7.768   6.526
   92POPC   C4A 1413   1.684   8.182   6.295
   92POPC   C1B 1414   2.071   7.969   7.357
   92POPC   C2B 1415   2.174   7.775   6.957
   92POPC   C3B 1416   2.102   8.042   6.610
   92POPC   C4B 1417   2.102   7.850   6.233
   93POPC   NC3 1418   7.748   7.733   7.895
   93POPC   PO4 1419   8.151   8.180   8.186
   93POPC   GL1 1420   8.039   8.097   7.743
   93POPC   GL2 1421   7.703   8.174   7.612
   93POPC   C1A 1422   8.132   7.897   7.341
   93POPC   D2A 1423   8.130   8.105   6.952
   93POPC   C3A 1424   8.126   7.992   6.547
   93POPC   C4A 1425   8.072   8.196   6.174
   93POPC   C1B 1426   7.636   7.881   7.258
   93POPC   C2B 1427   7.636   8.032   6.862
   93POPC   C3B 1428   7.626   7.872   6.487
   93POPC   C4B 1429   7.546   8.111   6.173
   94POPC   NC3 1430   0.585   7.552   7.872
   94POPC   PO4 1431   0.419   6.963   7.851
   94POPC   GL1 1432   0.625   6.884   7.533
   94POPC   GL2 1433   0.622   7.234   7.457
   94POPC   C1A 1434   0.787   6.860   7.142
   94POPC   D2A 1435   0.515   7.118   6.954
   94POPC   C3A 1436   0.500   7.028   6.586
   94POPC   C4A 1437   0.713   7.157   6.243
   94POPC   C1B 1438   0.155   7.157   7.323
   94POPC   C2B 1439  10.430   7.360   7.019
   94POPC   C3B 1440   0.206   7.461   6.668
   94POPC   C4B 1441   0.218   7.309   6.257
   95POPC   NC3 1442   2.148   7.398   8.128
   95POPC   PO4 1443   1.581   6.955   8.003
   95POPC   GL1 1444   1.750   7.050   7.617
   95POPC   GL2 1445   1.868   7.363   7.711
   95POPC   C1A 1446   1.687   7.157   7.184
   95POPC   D2A 1447   1.638   6.874   6.856
   95POPC   C3A 1448   1.605   7.044   6.480
   95POPC   C4A 1449   1.679   6.831   6.131
   95POPC   C1B 1450   2.210   7.447   7.423
   95POPC   C2B 1451   2.242   7.150   7.099
   95POPC   C3B 1452   2.009   7.249   6.737
   95POPC   C4B 1453   2.010   7.330   6.292
   96POPC   NC3 1454   4.243   3.511   8.057
   96POPC   PO4 1455   4.646   3.978   7.815
   96POPC   GL1 1456   4.332   3.657   7.583
   96POPC   GL2 1457   4.338   3.267   7.626
   96POPC   C1A 1458   4.151   3.544   7.175
   96POPC   D2A 1459   4.450   3.423   6.824
   96POPC   C3A 1460   4.415   3.684   6.461
   96POPC   C4A 1461   4.102   3.612   6.123
   96POPC   C1B 1462   4.307   3.065   7.233
   96POPC   C2B 1463   4.041   3.112   6.889
   96POPC   C3B 1464   4.040   3.268   6.501
   96POPC   C4B 1465   4.443   3.222   6.296
   97POPC   NC3 1466   5.095   2.896   8.090
   97POPC   PO4 1467   4.546   3.128   8.094
   97POPC   GL1 1468   4.697   2.860   7.692
   97POPC   GL2 1469   5.075   2.755   7.608
   97POPC   C1A 1470   4.778   2.866   7.212
   97POPC   D2A 1471   4.978   2.801   6.782
   97POPC   C3A 1472   4.758   2.751   6.392
   97POPC   C4A 1473   4.535   2.808   6.002
   97POPC   C1B 1474   5.238   2.631   7.199
   97POPC   C2B 1475   5.208   2.353   6.819
   97POPC   C3B 1476   5.258   2.535   6.398
   97POPC   C4B 1477   5.238   2.980   6.349
   98POPC   NC3 1478   1.762   6.543   8.045
   98POPC   PO4 1479   2.211   6.107   8.062
   98POPC   GL1 1480   1.953   6.189   7.722
   98POPC   GL2 1481   2.027   6.538   7.626
   98POPC   C1A 1482   1.683   6.237   7.354
   98POPC   D2A 1483   1.682   6.369   6.923
   98POPC   C3A 1484   1.902   6.319   6.538
   98POPC   C4A 1485   1.707   6.238   6.163
   98POPC   C1B 1486   1.952   6.700   7.237
   98POPC   C2B 1487   2.120   6.714   6.836
   98POPC   C3B 1488   2.104   6.827   6.427
   98POPC   C4B 1489   2.103   6.542   6.085
   99POPC   NC3 1490   1.309   2.918   7.883
   99POPC   PO4 1491   0.928   2.237   8.001
   99POPC   GL1 1492   0.994   2.509   7.662
   99POPC   GL2 1493   0.878   2.847   7.640
   99POPC   C1A 1494   0.969   2.313   7.272
   99POPC   D2A 1495   1.154   2.304   6.877
   99POPC   C3A 1496   0.980   2.406   6.479
   99POPC   C4A 1497   1.107   2.501   6.032
   99POPC   C1B 1498   1.120   2.787   7.238
   99POPC   C2B 1499   1.077   2.803   6.795
   99POPC   C3B 1500   1.246   2.858   6.418
   99POPC   C4B 1501   0.865   2.910   6.219
  100POPC   NC3 1502   8.032  10.277   8.181
  100POPC   PO4 1503   8.290   9.715   8.004
  100POPC   GL1 1504   8.049  10.009   7.726
  100POPC   GL2 1505   7.691  10.118   7.679
  100POPC   C1A 1506   8.046  10.206   7.326
  100POPC   D2A 1507   8.088  10.018   6.921
  100POPC   C3A 1508   8.157  10.224   6.530
  100POPC   C4A 1509   7.917  10.296   6.156
  100POPC   C1B 1510   7.595   9.974   7.221
  100POPC   C2B 1511   7.599  10.066   6.779
  100POPC   C3B 1512   7.754   9.903   6.433
  100POPC   C4B 1513   7.672   9.871   6.002
  101POPC   NC3 1514   1.978   1.363   8.075
  101POPC   PO4 1515   1.905   2.046   8.094
  101POPC   GL1 1516   1.763   1.949   7.681
  101POPC   GL2 1517   1.956   2.263   7.637
  101POPC   C1A 1518   1.699   1.706   7.266
  101POPC   D2A 1519   2.007   1.760   6.895
  101POPC   C3A 1520   2.093   1.695   6.455
  101POPC   C4A 1521   1.779   1.695   6.089
  101POPC   C1B 1522   1.983   2.125   7.254
  101POPC   C2B 1523   1.894   2.330   6.933
  101POPC   C3B 1524   1.949   2.345   6.547
  101POPC   C4B 1525   1.908   2.141   6.246
  102POPC   NC3 1526   0.616   3.501   8.106
  102POPC   PO4 1527   0.004   3.326   7.887
  102POPC   GL1 1528   0.106   3.690   7.639
  102POPC   GL2 1529   0.449   3.609   7.639
  102POPC   C1A 1530   0.191   3.626   7.194
  102POPC   D2A 1531   0.200   3.235   6.968
  102POPC   C3A 1532   0.103   3.327   6.541
  102POPC   C4A 1533   0.232   3.636   6.264
  102POPC   C1B 1534   0.706   3.669   7.307
  102POPC   C2B 1535   0.654   3.499   6.904
  102POPC   C3B 1536   0.693   3.665   6.506
  102POPC   C4B 1537   0.668   3.384   6.199
  103POPC   NC3 1538   0.353  10.210   8.135
  103POPC   PO4 1539   1.091  10.226   8.141
  103POPC   GL1 1540   0.831  10.250   7.685
  103POPC   GL2 1541   0.496  10.193   7.659
  103POPC   C1A 1542   0.761  10.058   7.253
  103POPC   D2A 1543   0.518  10.209   6.909
  103POPC   C3A 1544   0.711  10.280   6.515
  103POPC   C4A 1545   0.621  10.097   6.150
  103POPC   C1B 1546   0.197  10.071   7.374
  103POPC   C2B 1547  10.487  10.133   7.015
  103POPC   C3B 1548   0.058  10.114   6.624
  103POPC   C4B 1549   0.116   9.970   6.223
  104POPC   NC3 1550   7.744   1.276   7.902
  104POPC   PO4 1551   8.269   0.948   8.149
  104POPC   GL1 1552   8.194   1.016   7.702
  104POPC   GL2 1553   8.030   1.310   7.508
  104POPC   C1A 1554   8.258   0.964   7.256
  104POPC   D2A 1555   8.172   1.257   6.893
  104POPC   C3A 1556   8.145   1.133   6.477
  104POPC   C4A 1557   7.987   1.066   6.095
  104POPC   C1B 1558   7.769   1.064   7.205
  104POPC   C2B 1559   7.765   0.950   6.764
  104POPC   C3B 1560   7.616   1.246   6.446
  104POPC   C4B 1561   7.634   1.513   6.083
  105POPC   NC3 1562   6.883   9.968   7.904
  105POPC   PO4 1563   6.209   9.679   7.951
  105POPC   GL1 1564   6.263   9.973   7.668
  105POPC   GL2 1565   6.461  10.240   7.750
  105POPC   C1A 1566   6.124  10.070   7.272
  105POPC   D2A 1567   6.085   9.876   6.882
  105POPC   C3A 1568   6.135  10.215   6.607
  105POPC   C4A 1569   6.333  10.208   6.250
  105POPC   C1B 1570   6.681  10.269   7.347
  105POPC   C2B 1571   6.685  10.085   6.943
  105POPC   C3B 1572   6.695  10.305   6.593
  105POPC   C4B 1573   6.717   0.037   6.228
  106POPC   NC3 1574   4.808   1.916   7.985
  106POPC   PO4 1575   5.112   2.437   8.089
  106POPC   GL1 1576   4.884   2.289   7.659
  106POPC   GL2 1577   4.932   1.931   7.498
  106POPC   C1A 1578   4.825   2.348   7.223
  106POPC   D2A 1579   4.669   2.301   6.832
  106POPC   C3A 1580   4.862   2.245   6.441
  106POPC   C4A 1581   4.701   2.323   6.010
  106POPC   C1B 1582   4.773   1.848   7.107
  106POPC   C2B 1583   4.963   1.846   6.743
  106POPC   C3B 1584   5.031   1.723   6.364
  106POPC   C4B 1585   5.074   1.992   6.065
  107POPC   NC3 1586  10.242   8.506   8.032
  107POPC   PO4 1587   9.811   8.981   8.076
  107POPC   GL1 1588   9.962   8.778   7.686
  107POPC   GL2 1589   9.989   8.423   7.614
  107POPC   C1A 1590  10.164   8.761   7.284
  107POPC   D2A 1591   9.980   8.842   6.922
  107POPC   C3A 1592  10.224   8.741   6.614
  107POPC   C4A 1593  10.071   8.735   6.229
  107POPC   C1B 1594  10.336   8.302   7.362
  107POPC   C2B 1595  10.445   8.405   6.943
  107POPC   C3B 1596  10.320   8.262   6.522
  107POPC   C4B 1597  10.157   8.226   6.127
  108POPC   NC3 1598   1.972   9.883   7.985
  108POPC   PO4 1599   1.593   9.367   8.237
  108POPC   GL1 1600   1.789   9.442   7.781
  108POPC   GL2 1601   2.026   9.179   7.671
  108POPC   C1A 1602   1.961   9.515   7.318
  108POPC   D2A 1603   1.762   9.422   6.933
  108POPC   C3A 1604   1.877   9.558   6.509
  108POPC   C4A 1605   1.648   9.560   6.147
  108POPC   C1B 1606   2.108   8.994   7.293
  108POPC   C2B 1607   2.132   9.058   6.874
  108POPC   C3B 1608   1.876   9.075   6.554
  108POPC   C4B 1609   1.928   9.139   6.151
  109POPC   NC3 1610   0.868   9.831   7.954
  109POPC   PO4 1611   1.527   9.981   7.991
  109POPC   GL1 1612   1.260   9.975   7.668
  109POPC   GL2 1613   1.316  10.287   7.610
  109POPC   C1A 1614   1.276   9.979   7.226
  109POPC   D2A 1615   1.333   9.752   6.899
  109POPC   C3A 1616   1.061   9.909   6.616
  109POPC   C4A 1617   1.185   9.765   6.265
  109POPC   C1B 1618   1.095  10.473   7.286
  109POPC   C2B 1619   1.046  10.377   6.874
  109POPC   C3B 1620   1.230  10.359   6.443
  109POPC   C4B 1621   1.088   0.038   6.055
  110POPC   NC3 1622   7.786   9.651   7.998
  110POPC   PO4 1623   8.034   9.118   8.151
  110POPC   GL1 1624   7.928   9.205   7.757
  110POPC   GL2 1625   8.229   9.344   7.672
  110POPC   C1A 1626   7.828   9.434   7.367
  110POPC   D2A 1627   7.558   9.458   7.035
  110POPC   C3A 1628   7.773   9.448   6.645
  110POPC   C4A 1629   7.820   9.420   6.226
  110POPC   C1B 1630   8.276   9.663   7.348
  110POPC   C2B 1631   8.182   9.515   6.944
  110POPC   C3B 1632   8.293   9.708   6.553
  110POPC   C4B 1633   8.178   9.819   6.147
  111POPC   NC3 1634   9.289   7.888   7.982
  111POPC   PO4 1635   9.938   8.148   8.028
  111POPC   GL1 1636   9.642   8.063   7.681
  111POPC   GL2 1637   9.676   7.689   7.694
  111POPC   C1A 1638   9.444   8.066   7.250
  111POPC   D2A 1639   9.560   7.958   6.884
  111POPC   C3A 1640   9.369   8.130   6.563
  111POPC   C4A 1641   9.269   8.008   6.187
  111POPC   C1B 1642   9.452   7.548   7.325
  111POPC   C2B 1643   9.344   7.447   6.912
  111POPC   C3B 1644   9.446   7.613   6.518
  111POPC   C4B 1645   9.561   7.439   6.159
  112POPC   NC3 1646   8.720   1.112   8.090
  112POPC   PO4 1647   8.154   1.489   7.993
  112POPC   GL1 1648   8.474   1.465   7.702
  112POPC   GL2 1649   8.821   1.516   7.744
  112POPC   C1A 1650   8.459   1.450   7.256
  112POPC   D2A 1651   8.649   1.520   6.844
  112POPC   C3A 1652   8.503   1.498   6.409
  112POPC   C4A 1653   8.604   1.456   5.961
  112POPC   C1B 1654   8.768   1.113   7.458
  112POPC   C2B 1655   8.699   1.035   7.031
  112POPC   C3B 1656   8.611   1.034   6.637
  112POPC   C4B 1657   8.575   1.007   6.215
  113POPC   NC3 1658   5.226   0.293   8.270
  113POPC   PO4 1659   5.768   0.702   8.154
  113POPC   GL1 1660   5.712   0.668   7.695
  113POPC   GL2 1661   5.838   0.333   7.687
  113POPC   C1A 1662   5.588   0.508   7.233
  113POPC   D2A 1663   5.550   0.646   6.786
  113POPC   C3A 1664   5.522   0.541   6.322
  113POPC   C4A 1665   5.450   0.770   5.921
  113POPC   C1B 1666   6.058   0.541   7.338
  113POPC   C2B 1667   6.001   0.337   6.963
  113POPC   C3B 1668   5.917   0.344   6.566
  113POPC   C4B 1669   6.006   0.714   6.319
  114POPC   NC3 1670   1.992   3.637   8.021
  114POPC   PO4 1671   2.062   3.013   8.297
  114POPC   GL1 1672   2.149   3.206   7.802
  114POPC   GL2 1673   1.936   3.443   7.577
  114POPC   C1A 1674   2.182   3.080   7.357
  114POPC   D2A 1675   1.978   2.956   6.999
  114POPC   C3A 1676   2.168   3.099   6.644
  114POPC   C4A 1677   2.144   3.442   6.381
  114POPC   C1B 1678   1.644   3.401   7.268
  114POPC   C2B 1679   1.578   3.643   6.897
  114POPC   C3B 1680   1.599   3.376   6.553
  114POPC   C4B 1681   1.653   3.165   6.197
  115POPC   NC3 1682   7.976   2.601   8.112
  115POPC   PO4 1683   7.569   2.070   7.944
  115POPC   GL1 1684   7.867   2.387   7.671
  115POPC   GL2 1685   7.882   2.797   7.656
  115POPC   C1A 1686   7.952   2.539   7.243
  115POPC   D2A 1687   7.726   2.680   6.924
  115POPC   C3A 1688   7.992   2.630   6.600
  115POPC   C4A 1689   7.825   2.529   6.225
  115POPC   C1B 1690   8.151   2.999   7.328
  115POPC   C2B 1691   8.074   3.049   6.924
  115POPC   C3B 1692   7.784   3.107   6.618
  115POPC   C4B 1693   7.994   3.040   6.227
  116POPC   NC3 1694   2.964   9.515   8.205
  116POPC   PO4 1695   2.293   9.528   8.014
  116POPC   GL1 1696   2.511   9.355   7.681
  116POPC   GL2 1697   2.746   9.590   7.646
  116POPC   C1A 1698   2.462   9.431   7.238
  116POPC   D2A 1699   2.294   9.592   6.847
  116POPC   C3A 1700   2.331   9.355   6.468
  116POPC   C4A 1701   2.404   9.248   6.058
  116POPC   C1B 1702   2.831   9.820   7.273
  116POPC   C2B 1703   2.987   9.680   6.898
  116POPC   C3B 1704   2.787   9.568   6.602
  116POPC   C4B 1705   2.814   9.512   6.203
  117POPC   NC3 1706   9.486   2.801   7.963
  117POPC   PO4 1707   9.535   2.250   8.296
  117POPC   GL1 1708   9.446   2.262   7.805
  117POPC   GL2 1709   9.191   2.477   7.622
  117POPC   C1A 1710   9.602   2.294   7.321
  117POPC   D2A 1711   9.424   2.383   6.921
  117POPC   C3A 1712   9.524   2.596   6.563
  117POPC   C4A 1713   9.274   2.633   6.187
  117POPC   C1B 1714   9.410   2.776   7.313
  117POPC   C2B 1715   9.317   2.998   6.959
  117POPC   C3B 1716   9.163   2.972   6.573
  117POPC   C4B 1717   9.577   3.084   6.402
  118POPC   NC3 1718   5.618   8.267   7.967
  118POPC   PO4 1719   6.058   8.827   8.104
  118POPC   GL1 1720   5.974   8.594   7.750
  118POPC   GL2 1721   5.652   8.716   7.645
  118POPC   C1A 1722   6.027   8.763   7.327
  118POPC   D2A 1723   5.846   8.914   6.959
  118POPC   C3A 1724   5.906   8.707   6.553
  118POPC   C4A 1725   6.011   8.904   6.165
  118POPC   C1B 1726   5.481   8.688   7.242
  118POPC   C2B 1727   5.461   8.561   6.799
  118POPC   C3B 1728   5.352   8.613   6.375
  118POPC   C4B 1729   5.649   8.531   6.092
  119POPC   NC3 1730   1.207   9.020   8.159
  119POPC   PO4 1731   1.462   8.473   8.129
  119POPC   GL1 1732   1.396   8.499   7.718
  119POPC   GL2 1733   1.197   8.734   7.719
  119POPC   C1A 1734   1.326   8.396   7.288
  119POPC   D2A 1735   1.526   8.382   6.899
  119POPC   C3A 1736   1.271   8.325   6.566
  119POPC   C4A 1737   1.220   8.511   6.231
  119POPC   C1B 1738   1.103   8.864   7.334
  119POPC   C2B 1739   1.143   8.730   6.944
  119POPC   C3B 1740   1.035   8.989   6.646
  119POPC   C4B 1741   0.963   8.938   6.242
  120POPC   NC3 1742   2.780  10.345   8.387
  120POPC   PO4 1743   2.619   0.476   8.203
  120POPC   GL1 1744   2.842   0.430   7.791
  120POPC   GL2 1745   3.093   0.706   7.729
  120POPC   C1A 1746   2.644   0.275   7.383
  120POPC   D2A 1747   2.631   0.064   6.993
  120POPC   C3A 1748   2.771   0.306   6.670
  120POPC   C4A 1749   2.894   0.307   6.270
  120POPC   C1B 1750   2.910   0.721   7.310
  120POPC   C2B 1751   2.648   0.758   6.920
  120POPC   C3B 1752   2.731   0.778   6.483
  120POPC   C4B 1753   2.430   0.523   6.302
  121POPC   NC3 1754   4.240   7.817   8.268
  121POPC   PO4 1755   4.620   7.335   8.070
  121POPC   GL1 1756   4.303   7.407   7.732
  121POPC   GL2 1757   4.007   7.176   7.708
  121POPC   C1A 1758   4.219   7.365   7.262
  121POPC   D2A 1759   4.450   7.414   6.862
  121POPC   C3A 1760   4.356   7.228   6.451
  121POPC   C4A 1761   4.595   6.930   6.184
  121POPC   C1B 1762   4.033   6.894   7.313
  121POPC   C2B 1763   4.104   6.974   6.840
  121POPC   C3B 1764   4.022   6.854   6.371
  121POPC   C4B 1765   4.158   7.108   5.971
  122POPC   NC3 1766   8.043   3.281   8.262
  122POPC   PO4 1767   8.388   3.786   7.967
  122POPC   GL1 1768   8.217   3.637   7.600
  122POPC   GL2 1769   7.967   3.350   7.705
  122POPC   C1A 1770   8.179   3.480   7.234
  122POPC   D2A 1771   7.955   3.527   6.889
  122POPC   C3A 1772   8.185   3.430   6.550
  122POPC   C4A 1773   8.072   3.578   6.179
  122POPC   C1B 1774   7.707   3.227   7.323
  122POPC   C2B 1775   7.460   3.444   7.008
  122POPC   C3B 1776   7.528   3.617   6.571
  122POPC   C4B 1777   7.623   3.384   6.227
  123POPC   NC3 1778   2.541   8.348   8.419
  123POPC   PO4 1779   2.221   7.935   7.981
  123POPC   GL1 1780   2.542   7.824   7.670
  123POPC   GL2 1781   2.882   7.881   7.844
  123POPC   C1A 1782   2.562   7.920   7.238
  123POPC   D2A 1783   2.514   8.174   6.915
  123POPC   C3A 1784   2.592   7.920   6.584
  123POPC   C4A 1785   2.601   8.027   6.178
  123POPC   C1B 1786   3.011   7.856   7.413
  123POPC   C2B 1787   2.983   7.760   6.947
  123POPC   C3B 1788   2.932   7.548   6.520
  123POPC   C4B 1789   2.990   7.689   6.115
  124POPC   NC3 1790   2.467   8.297   7.827
  124POPC   PO4 1791   2.966   8.259   8.239
  124POPC   GL1 1792   3.019   8.377   7.759
  124POPC   GL2 1793   2.922   8.746   7.680
  124POPC   C1A 1794   2.878   8.374   7.292
  124POPC   D2A 1795   2.723   8.653   6.923
  124POPC   C3A 1796   2.661   8.467   6.484
  124POPC   C4A 1797   2.989   8.435   6.162
  124POPC   C1B 1798   2.804   9.035   7.299
  124POPC   C2B 1799   2.629   9.149   6.860
  124POPC   C3B 1800   2.752   9.073   6.444
  124POPC   C4B 1801   2.678   8.835   6.088
  125POPC   NC3 1802   7.778   6.436   8.068
  125POPC   PO4 1803   8.222   6.854   8.205
  125POPC   GL1 1804   8.086   6.706   7.748
  125POPC   GL2 1805   8.002   6.332   7.653
  125POPC   C1A 1806   8.212   6.570   7.287
  125POPC   D2A 1807   8.096   6.341   6.918
  125POPC   C3A 1808   8.026   6.506   6.504
  125POPC   C4A 1809   8.260   6.729   6.195
  125POPC   C1B 1810   7.727   6.400   7.275
  125POPC   C2B 1811   7.590   6.510   6.854
  125POPC   C3B 1812   7.536   6.328   6.439
  125POPC   C4B 1813   7.580   6.431   6.012
  126POPC   NC3 1814   2.512   5.792   7.926
  126POPC   PO4 1815   2.275   5.137   8.074
  126POPC   GL1 1816   2.399   5.282   7.694
  126POPC   GL2 1817   2.732   5.463   7.618
  126POPC   C1A 1818   2.324   5.446   7.309
  126POPC   D2A 1819   2.326   5.670   6.955
  126POPC   C3A 1820   2.577   5.531   6.649
  126POPC   C4A 1821   2.488   5.526   6.259
  126POPC   C1B 1822   2.678   5.836   7.296
  126POPC   C2B 1823   2.706   6.011   6.863
  126POPC   C3B 1824   2.741   5.970   6.416
  126POPC   C4B 1825   2.990   5.671   6.202
  127POPC   NC3 1826   9.332   9.423   8.072
  127POPC   PO4 1827   9.916   9.753   7.973
  127POPC   GL1 1828   9.735   9.475   7.635
  127POPC   GL2 1829   9.366   9.461   7.579
  127POPC   C1A 1830   9.664   9.458   7.179
  127POPC   D2A 1831   9.834   9.336   6.797
  127POPC   C3A 1832   9.845   9.581   6.447
  127POPC   C4A 1833   9.611   9.751   6.110
  127POPC   C1B 1834   9.163   9.312   7.219
  127POPC   C2B 1835   9.296   9.475   6.814
  127POPC   C3B 1836   9.347   9.416   6.389
  127POPC   C4B 1837   9.077   9.240   6.095
  128POPC   NC3 1838   4.680   1.294   7.942
  128POPC   PO4 1839   5.147   0.757   8.065
  128POPC   GL1 1840   5.190   0.893   7.636
  128POPC   GL2 1841   4.919   1.113   7.537
  128POPC   C1A 1842   5.285   0.935   7.188
  128POPC   D2A 1843   5.012   0.894   6.828
  128POPC   C3A 1844   5.117   0.857   6.364
  128POPC   C4A 1845   5.022   1.030   5.921
  128POPC   C1B 1846   5.139   1.439   7.274
  128POPC   C2B 1847   5.231   1.396   6.817
  128POPC   C3B 1848   4.867   1.283   6.535
  128POPC   C4B 1849   4.662   1.357   6.136
  129POPC   NC3 1850   8.764   9.862   8.072
  129POPC   PO4 1851   8.484  10.391   8.237
  129POPC   GL1 1852   8.744  10.313   7.815
  129POPC   GL2 1853   8.551  10.034   7.644
  129POPC   C1A 1854   8.975  10.162   7.394
  129POPC   D2A 1855   9.176   9.973   6.987
  129POPC   C3A 1856   9.019   9.835   6.567
  129POPC   C4A 1857   8.773  10.012   6.260
  129POPC   C1B 1858   8.523  10.086   7.197
  129POPC   C2B 1859   8.701  10.186   6.795
  129POPC   C3B 1860   8.620  10.449   6.442
  129POPC   C4B 1861   8.405  10.257   6.036
  130POPC   NC3 1862   3.407   3.464   8.070
  130POPC   PO4 1863   3.980   3.112   8.008
  130POPC   GL1 1864   3.780   3.341   7.688
  130POPC   GL2 1865   3.387   3.404   7.574
  130POPC   C1A 1866   3.742   3.202   7.282
  130POPC   D2A 1867   3.513   3.023   6.950
  130POPC   C3A 1868   3.470   3.318   6.642
  130POPC   C4A 1869   3.630   3.589   6.354
  130POPC   C1B 1870   3.337   3.510   7.125
  130POPC   C2B 1871   3.157   3.736   6.740
  130POPC   C3B 1872   3.194   3.862   6.322
  130POPC   C4B 1873   3.270   3.566   5.997
  131POPC   NC3 1874   5.251  10.120   7.979
  131POPC   PO4 1875   4.667   9.843   8.097
  131POPC   GL1 1876   4.755  10.112   7.692
  131POPC   GL2 1877   5.055  10.333   7.589
  131POPC   C1A 1878   4.957   9.975   7.246
  131POPC   D2A 1879   5.219   9.866   6.883
  131POPC   C3A 1880   5.112  10.056   6.493
  131POPC   C4A 1881   4.658  10.088   6.363
  131POPC   C1B 1882   5.248  10.379   7.194
  131POPC   C2B 1883   4.980  10.458   6.845
  131POPC   C3B 1884   4.735   0.072   6.483
  131POPC   C4B 1885   4.983  10.385   6.118
  132POPC   NC3 1886   6.451   7.655   8.019
  132POPC   PO4 1887   6.742   8.125   8.300
  132POPC   GL1 1888   6.643   8.054   7.771
  132POPC   GL2 1889   6.676   7.713   7.585
  132POPC   C1A 1890   6.705   8.059   7.239
  132POPC   D2A 1891   6.765   7.720   6.892
  132POPC   C3A 1892   6.707   7.956   6.547
  132POPC   C4A 1893   6.490   8.039   6.184
  132POPC   C1B 1894   6.285   7.785   7.339
  132POPC   C2B 1895   6.272   7.882   6.889
  132POPC   C3B 1896   6.263   7.683   6.461
  132POPC   C4B 1897   5.981   7.632   6.130
  133POPC   NC3 1898   5.439   1.059   8.267
  133POPC   PO4 1899   5.904   1.463   8.051
  133POPC   GL1 1900   5.846   1.433   7.638
  133POPC   GL2 1901   5.599   1.189   7.670
  133POPC   C1A 1902   5.664   1.481   7.237
  133POPC   D2A 1903   5.884   1.601   6.927
  133POPC   C3A 1904   5.703   1.541   6.576
  133POPC   C4A 1905   5.876   1.378   6.213
  133POPC   C1B 1906   5.801   0.995   7.299
  133POPC   C2B 1907   5.698   1.110   6.888
  133POPC   C3B 1908   5.600   1.037   6.463
  133POPC   C4B 1909   5.313   1.304   6.296
  134POPC   NC3 1910   4.783   7.700   7.858
  134POPC   PO4 1911   5.433   7.853   7.884
  134POPC   GL1 1912   5.166   7.997   7.601
  134POPC   GL2 1913   4.824   8.140   7.606
  134POPC   C1A 1914   5.174   7.743   7.238
  134POPC   D2A 1915   4.921   7.598   6.930
  134POPC   C3A 1916   5.089   7.621   6.536
  134POPC   C4A 1917   5.186   7.727   6.118
  134POPC   C1B 1918   4.779   8.076   7.181
  134POPC   C2B 1919   4.633   7.992   6.785
  134POPC   C3B 1920   4.791   7.983   6.387
  134POPC   C4B 1921   4.661   7.981   6.004
  135POPC   NC3 1922   1.058   8.253   8.071
  135POPC   PO4 1923   0.420   7.964   7.995
  135POPC   GL1 1924   0.748   8.067   7.655
  135POPC   GL2 1925   1.118   8.077   7.612
  135POPC   C1A 1926   0.760   7.979   7.248
  135POPC   D2A 1927   0.952   8.193   6.923
  135POPC   C3A 1928   0.815   8.103   6.475
  135POPC   C4A 1929   0.881   8.165   6.047
  135POPC   C1B 1930   1.261   7.868   7.259
  135POPC   C2B 1931   1.356   7.556   6.950
  135POPC   C3B 1932   1.198   7.825   6.664
  135POPC   C4B 1933   1.261   7.890   6.231
  136POPC   NC3 1934   8.634   6.561   8.206
  136POPC   PO4 1935   8.129   6.081   8.185
  136POPC   GL1 1936   8.491   6.130   7.853
  136POPC   GL2 1937   8.505   6.440   7.689
  136POPC   C1A 1938   8.575   6.088   7.367
  136POPC   D2A 1939   8.472   5.971   6.972
  136POPC   C3A 1940   8.431   6.163   6.588
  136POPC   C4A 1941   8.272   6.131   6.195
  136POPC   C1B 1942   8.707   6.595   7.256
  136POPC   C2B 1943   8.501   6.690   6.856
  136POPC   C3B 1944   8.689   6.578   6.476
  136POPC   C4B 1945   8.763   6.257   6.182
  137POPC   NC3 1946   5.706   7.507   7.931
  137POPC   PO4 1947   6.148   8.003   8.010
  137POPC   GL1 1948   5.880   7.966   7.628
  137POPC   GL2 1949   5.663   8.232   7.472
  137POPC   C1A 1950   5.754   7.810   7.200
  137POPC   D2A 1951   5.853   7.571   6.805
  137POPC   C3A 1952   5.584   7.616   6.441
  137POPC   C4A 1953   5.529   7.355   6.054
  137POPC   C1B 1954   5.297   8.231   7.185
  137POPC   C2B 1955   5.139   8.088   6.803
  137POPC   C3B 1956   5.304   8.112   6.410
  137POPC   C4B 1957   5.642   8.014   6.110
  138POPC   NC3 1958   8.394   5.648   8.074
  138POPC   PO4 1959   9.043   5.862   8.098
  138POPC   GL1 1960   8.885   5.821   7.672
  138POPC   GL2 1961   8.605   5.634   7.617
  138POPC   C1A 1962   8.910   5.697   7.215
  138POPC   D2A 1963   9.129   5.848   6.868
  138POPC   C3A 1964   8.853   5.878   6.520
  138POPC   C4A 1965   8.994   5.787   6.115
  138POPC   C1B 1966   8.433   5.518   7.229
  138POPC   C2B 1967   8.564   5.532   6.770
  138POPC   C3B 1968   8.695   5.383   6.392
  138POPC   C4B 1969   8.526   5.667   6.156
  139POPC   NC3 1970   3.868   8.103   7.879
  139POPC   PO4 1971   4.515   8.057   7.990
  139POPC   GL1 1972   4.284   7.915   7.610
  139POPC   GL2 1973   3.933   7.721   7.550
  139POPC   C1A 1974   4.312   7.841   7.162
  139POPC   D2A 1975   4.056   7.707   6.802
  139POPC   C3A 1976   4.335   7.740   6.456
  139POPC   C4A 1977   4.363   7.571   6.066
  139POPC   C1B 1978   3.826   8.013   7.196
  139POPC   C2B 1979   3.653   8.000   6.774
  139POPC   C3B 1980   3.843   8.102   6.388
  139POPC   C4B 1981   3.892   7.724   6.220
  140POPC   NC3 1982   3.356   8.012   8.192
  140POPC   PO4 1983   3.586   8.431   7.737
  140POPC   GL1 1984   3.428   8.163   7.503
  140POPC   GL2 1985   3.428   7.887   7.692
  140POPC   C1A 1986   3.309   8.178   7.096
  140POPC   D2A 1987   3.012   8.254   6.798
  140POPC   C3A 1988   3.084   8.041   6.475
  140POPC   C4A 1989   3.365   8.079   6.165
  140POPC   C1B 1990   3.454   7.699   7.267
  140POPC   C2B 1991   3.437   7.539   6.850
  140POPC   C3B 1992   3.433   7.645   6.411
  140POPC   C4B 1993   3.461   7.600   5.936
  141POPC   NC3 1994   3.502   9.734   8.063
  141POPC   PO4 1995   3.210   9.143   8.111
  141POPC   GL1 1996   3.213   9.411   7.743
  141POPC   GL2 1997   3.519   9.533   7.619
  141POPC   C1A 1998   3.184   9.394   7.274
  141POPC   D2A 1999   3.125   9.169   6.881
  141POPC   C3A 2000   3.261   9.375   6.526
  141POPC   C4A 2001   3.323   9.615   6.165
  141POPC   C1B 2002   3.703   9.343   7.286
  141POPC   C2B 2003   3.628   9.190   6.912
  141POPC   C3B 2004   3.577   8.949   6.586
  141POPC   C4B 2005   3.604   9.148   6.214
  142POPC   NC3 2006   3.380   6.063   7.980
  142POPC   PO4 2007   3.279   6.755   8.058
  142POPC   GL1 2008   3.079   6.664   7.653
  142POPC   GL2 2009   3.269   6.368   7.553
  142POPC   C1A 2010   3.249   6.751   7.215
  142POPC   D2A 2011   3.189   6.751   6.777
  142POPC   C3A 2012   3.484   6.671   6.435
  142POPC   C4A 2013   3.414   6.457   6.022
  142POPC   C1B 2014   3.555   6.348   7.164
  142POPC   C2B 2015   3.686   6.259   6.717
  142POPC   C3B 2016   3.824   6.304   6.280
  142POPC   C4B 2017   3.643   5.992   5.959
  143POPC   NC3 2018   1.938   2.573   8.136
  143POPC   PO4 2019   1.663   3.214   7.948
  143POPC   GL1 2020   1.803   2.831   7.723
  143POPC   GL2 2021   2.169   2.715   7.691
  143POPC   C1A 2022   1.748   2.642   7.337
  143POPC   D2A 2023   1.536   2.677   6.933
  143POPC   C3A 2024   1.748   2.806   6.555
  143POPC   C4A 2025   1.632   2.621   6.171
  143POPC   C1B 2026   2.252   2.557   7.266
  143POPC   C2B 2027   2.307   2.597   6.802
  143POPC   C3B 2028   2.306   2.679   6.370
  143POPC   C4B 2029   2.120   3.001   6.126
  144POPC   NC3 2030   2.488   3.076   8.140
  144POPC   PO4 2031   2.366   3.760   8.276
  144POPC   GL1 2032   2.502   3.577   7.853
  144POPC   GL2 2033   2.835   3.371   7.805
  144POPC   C1A 2034   2.404   3.573   7.406
  144POPC   D2A 2035   2.447   3.361   7.000
  144POPC   C3A 2036   2.590   3.586   6.646
  144POPC   C4A 2037   2.499   3.791   6.265
  144POPC   C1B 2038   2.882   3.400   7.325
  144POPC   C2B 2039   2.961   3.283   6.872
  144POPC   C3B 2040   2.993   3.380   6.401
  144POPC   C4B 2041   2.909   3.208   5.945
  145POPC   NC3 2042   0.824   2.645   8.177
  145POPC   PO4 2043   0.161   2.457   8.118
  145POPC   GL1 2044   0.377   2.799   7.837
  145POPC   GL2 2045   0.505   2.505   7.729
  145POPC   C1A 2046   0.483   3.110   7.455
  145POPC   D2A 2047   0.690   3.022   7.038
  145POPC   C3A 2048   0.543   3.062   6.608
  145POPC   C4A 2049   0.335   3.004   6.194
  145POPC   C1B 2050   0.562   2.620   7.313
  145POPC   C2B 2051   0.655   2.531   6.882
  145POPC   C3B 2052   0.479   2.568   6.475
  145POPC   C4B 2053   0.633   2.385   6.125
  146POPC   NC3 2054   7.906   8.676   8.187
  146POPC   PO4 2055   8.507   8.730   8.118
  146POPC   GL1 2056   8.252   8.553   7.793
  146POPC   GL2 2057   7.931   8.687   7.695
  146POPC   C1A 2058   8.170   8.410   7.359
  146POPC   D2A 2059   8.090   8.610   6.966
  146POPC   C3A 2060   8.154   8.519   6.555
  146POPC   C4A 2061   8.167   8.803   6.205
  146POPC   C1B 2062   8.088   8.946   7.351
  146POPC   C2B 2063   7.864   9.061   6.974
  146POPC   C3B 2064   7.799   8.917   6.549
  146POPC   C4B 2065   7.719   8.591   6.213
  147POPC   NC3 2066   1.272   9.783   8.313
  147POPC   PO4 2067   0.895   9.363   8.101
  147POPC   GL1 2068   1.265   9.493   7.846
  147POPC   GL2 2069   1.146   9.244   7.653
  147POPC   C1A 2070   1.463   9.521   7.389
  147POPC   D2A 2071   1.266   9.263   7.032
  147POPC   C3A 2072   1.392   9.344   6.576
  147POPC   C4A 2073   1.416   9.115   6.191
  147POPC   C1B 2074   0.976   9.583   7.356
  147POPC   C2B 2075   0.823   9.614   6.949
  147POPC   C3B 2076   0.851   9.440   6.539
  147POPC   C4B 2077   0.857   9.411   6.112
  148POPC   NC3 2078   9.637   4.344   8.025
  148POPC   PO4 2079   9.517   4.935   8.246
  148POPC   GL1 2080   9.497   4.751   7.791
  148POPC   GL2 2081   9.236   4.576   7.724
  148POPC   C1A 2082   9.759   4.724   7.388
  148POPC   D2A 2083   9.641   4.631   6.970
  148POPC   C3A 2084   9.714   4.945   6.647
  148POPC   C4A 2085   9.791   4.871   6.237
  148POPC   C1B 2086   9.248   4.807   7.340
  148POPC   C2B 2087   9.125   4.802   6.917
  148POPC   C3B 2088   9.225   4.970   6.525
  148POPC   C4B 2089   9.297   4.785   6.140
  149POPC   NC3 2090   0.849   1.351   7.833
  149POPC   PO4 2091   1.486   1.407   8.023
  149POPC   GL1 2092   1.264   1.113   7.618
  149POPC   GL2 2093   0.870   0.976   7.508
  149POPC   C1A 2094   1.247   0.900   7.198
  149POPC   D2A 2095   1.065   1.018   6.779
  149POPC   C3A 2096   1.376   0.953   6.427
  149POPC   C4A 2097   1.436   1.278   6.087
  149POPC   C1B 2098   0.802   1.311   7.182
  149POPC   C2B 2099   0.684   1.495   6.785
  149POPC   C3B 2100   0.913   1.417   6.435
  149POPC   C4B 2101   0.902   1.029   6.264
  150POPC   NC3 2102   7.811   7.126   8.272
  150POPC   PO4 2103   8.215   7.559   7.947
  150POPC   GL1 2104   8.064   7.392   7.604
  150POPC   GL2 2105   7.848   7.159   7.743
  150POPC   C1A 2106   7.988   7.418   7.190
  150POPC   D2A 2107   7.905   7.609   6.839
  150POPC   C3A 2108   8.014   7.520   6.426
  150POPC   C4A 2109   7.822   7.678   6.049
  150POPC   C1B 2110   7.868   6.947   7.345
  150POPC   C2B 2111   7.988   6.847   6.928
  150POPC   C3B 2112   7.976   7.017   6.531
  150POPC   C4B 2113   7.694   6.891   6.234
  151POPC   NC3 2114   5.897   9.986   8.073
  151POPC   PO4 2115   5.499   0.022   7.978
  151POPC   GL1 2116   5.610  10.329   7.614
  151POPC   GL2 2117   5.713   9.974   7.622
  151POPC   C1A 2118   5.754  10.475   7.221
  151POPC   D2A 2119   5.505   0.147   6.851
  151POPC   C3A 2120   5.419   0.050   6.421
  151POPC   C4A 2121   5.802   0.052   6.169
  151POPC   C1B 2122   5.560   9.973   7.245
  151POPC   C2B 2123   5.647  10.147   6.849
  151POPC   C3B 2124   5.655  10.116   6.438
  151POPC   C4B 2125   5.517   9.812   6.180
  152POPC   NC3 2126   6.280   2.554   8.075
  152POPC   PO4 2127   6.909   2.442   8.218
  152POPC   GL1 2128   6.750   2.597   7.782
  152POPC   GL2 2129   6.388   2.588   7.595
  152POPC   C1A 2130   6.788   2.576   7.324
  152POPC   D2A 2131   6.453   2.621   7.004
  152POPC   C3A 2132   6.634   2.667   6.620
  152POPC   C4A 2133   6.821   2.448   6.278
  152POPC   C1B 2134   6.086   2.788   7.325
  152POPC   C2B 2135   6.005   2.858   6.865
  152POPC   C3B 2136   6.184   2.792   6.447
  152POPC   C4B 2137   6.317   2.356   6.330
  153POPC   NC3 2138  10.159   5.940   8.023
  153POPC   PO4 2139   0.028   6.510   8.174
  153POPC   GL1 2140  10.277   6.443   7.763
  153POPC   GL2 2141   9.907   6.286   7.725
  153POPC   C1A 2142  10.274   6.237   7.346
  153POPC   D2A 2143   0.043   6.191   6.991
  153POPC   C3A 2144  10.348   6.205   6.598
  153POPC   C4A 2145  10.464   6.377   6.211
  153POPC   C1B 2146   9.828   6.485   7.298
  153POPC   C2B 2147  10.095   6.535   6.925
  153POPC   C3B 2148  10.120   6.652   6.487
  153POPC   C4B 2149   9.991   6.634   6.023
  154POPC   NC3 2150   8.231   4.988   8.016
  154POPC   PO4 2151   7.778   4.464   8.033
  154POPC   GL1 2152   7.867   4.664   7.640
  154POPC   GL2 2153   8.201   4.660   7.611
  154POPC   C1A 2154   7.854   4.661   7.173
  154POPC   D2A 2155   7.870   4.833   6.754
  154POPC   C3A 2156   7.527   4.871   6.480
  154POPC   C4A 2157   7.485   5.034   6.060
  154POPC   C1B 2158   8.157   5.054   7.338
  154POPC   C2B 2159   8.173   5.221   6.913
  154POPC   C3B 2160   8.277   5.109   6.531
  154POPC   C4B 2161   8.009   4.927   6.272
  155POPC   NC3 2162   6.320   8.400   8.198
  155POPC   PO4 2163   6.787   8.880   8.060
  155POPC   GL1 2164   6.587   8.863   7.657
  155POPC   GL2 2165   6.500   8.535   7.698
  155POPC   C1A 2166   6.526   8.772   7.183
  155POPC   D2A 2167   6.336   8.911   6.763
  155POPC   C3A 2168   6.485   8.875   6.312
  155POPC   C4A 2169   6.421   8.943   5.836
  155POPC   C1B 2170   6.254   8.307   7.391
  155POPC   C2B 2171   6.155   8.421   6.948
  155POPC   C3B 2172   6.374   8.417   6.540
  155POPC   C4B 2173   6.781   8.462   6.334
  156POPC   NC3 2174   9.383   0.846   8.373
  156POPC   PO4 2175   9.097   1.395   8.190
  156POPC   GL1 2176   9.254   1.229   7.765
  156POPC   GL2 2177   9.584   1.064   7.736
  156POPC   C1A 2178   9.243   0.972   7.367
  156POPC   D2A 2179   9.162   0.868   6.945
  156POPC   C3A 2180   9.067   1.276   6.701
  156POPC   C4A 2181   8.999   1.323   6.254
  156POPC   C1B 2182   9.716   1.165   7.278
  156POPC   C2B 2183   9.540   1.207   6.850
  156POPC   C3B 2184   9.487   1.162   6.383
  156POPC   C4B 2185   9.691   1.054   5.981
  157POPC   NC3 2186   1.818   4.551   8.091
  157POPC   PO4 2187   2.167   4.053   7.852
  157POPC   GL1 2188   1.845   4.055   7.621
  157POPC   GL2 2189   1.860   4.427   7.616
  157POPC   C1A 2190   1.895   3.861   7.242
  157POPC   D2A 2191   2.154   3.780   6.901
  157POPC   C3A 2192   1.909   3.850   6.556
  157POPC   C4A 2193   2.014   3.922   6.177
  157POPC   C1B 2194   2.020   4.368   7.224
  157POPC   C2B 2195   1.838   4.245   6.861
  157POPC   C3B 2196   1.871   4.366   6.433
  157POPC   C4B 2197   1.977   4.376   5.959
  158POPC   NC3 2198   3.995   1.776   7.995
  158POPC   PO4 2199   4.554   1.669   7.707
  158POPC   GL1 2200   4.422   2.024   7.483
  158POPC   GL2 2201   4.078   2.042   7.559
  158POPC   C1A 2202   4.253   2.035   7.066
  158POPC   D2A 2203   4.162   2.331   6.770
  158POPC   C3A 2204   4.364   2.253   6.418
  158POPC   C4A 2205   4.549   1.856   6.305
  158POPC   C1B 2206   3.974   1.660   7.323
  158POPC   C2B 2207   4.074   1.379   6.970
  158POPC   C3B 2208   4.214   1.577   6.597
  158POPC   C4B 2209   4.006   1.882   6.364
  159POPC   NC3 2210   2.841   2.782   8.511
  159POPC   PO4 2211   2.406   2.566   8.107
  159POPC   GL1 2212   2.688   2.721   7.854
  159POPC   GL2 2213   2.848   2.436   7.871
  159POPC   C1A 2214   2.678   2.976   7.501
  159POPC   D2A 2215   2.582   2.889   7.096
  159POPC   C3A 2216   2.675   2.922   6.672
  159POPC   C4A 2217   2.572   3.125   6.324
  159POPC   C1B 2218   2.808   2.491   7.411
  159POPC   C2B 2219   2.802   2.346   6.999
  159POPC   C3B 2220   2.945   2.450   6.619
  159POPC   C4B 2221   2.810   2.650   6.255
  160POPC   NC3 2222   7.524   3.482   7.973
  160POPC   PO4 2223   6.954   3.405   8.336
  160POPC   GL1 2224   6.988   3.253   7.785
  160POPC   GL2 2225   7.285   3.344   7.568
  160POPC   C1A 2226   6.898   3.490   7.285
  160POPC   D2A 2227   7.022   3.613   6.810
  160POPC   C3A 2228   6.732   3.666   6.419
  160POPC   C4A 2229   6.875   3.719   5.966
  160POPC   C1B 2230   7.119   3.027   7.336
  160POPC   C2B 2231   7.039   3.100   6.928
  160POPC   C3B 2232   7.265   3.195   6.581
  160POPC   C4B 2233   7.129   3.414   6.265
  161POPC   NC3 2234   6.700   3.595   8.014
  161POPC   PO4 2235   6.514   2.960   8.077
  161POPC   GL1 2236   6.529   3.069   7.649
  161POPC   GL2 2237   6.454   3.404   7.558
  161POPC   C1A 2238   6.616   3.054   7.214
  161POPC   D2A 2239   6.584   3.352   6.872
  161POPC   C3A 2240   6.518   3.191   6.457
  161POPC   C4A 2241   6.473   3.386   6.060
  161POPC   C1B 2242   6.161   3.274   7.172
  161POPC   C2B 2243   6.087   3.337   6.704
  161POPC   C3B 2244   6.052   3.578   6.314
  161POPC   C4B 2245   5.904   3.997   6.086
  162POPC   NC3 2246   3.482   2.112   8.168
  162POPC   PO4 2247   2.902   1.982   8.115
  162POPC   GL1 2248   3.224   1.838   7.772
  162POPC   GL2 2249   3.573   1.966   7.678
  162POPC   C1A 2250   3.188   1.972   7.312
  162POPC   D2A 2251   3.213   2.047   6.846
  162POPC   C3A 2252   3.165   1.672   6.623
  162POPC   C4A 2253   3.030   1.625   6.208
  162POPC   C1B 2254   3.694   2.127   7.237
  162POPC   C2B 2255   3.727   2.053   6.779
  162POPC   C3B 2256   3.508   1.967   6.385
  162POPC   C4B 2257   3.687   2.250   6.090
  163POPC   NC3 2258   3.666   7.007   8.146
  163POPC   PO4 2259   3.678   7.671   8.089
  163POPC   GL1 2260   3.541   7.385   7.700
  163POPC   GL2 2261   3.492   7.007   7.623
  163POPC   C1A 2262   3.714   7.279   7.268
  163POPC   D2A 2263   3.595   7.053   6.906
  163POPC   C3A 2264   3.799   7.292   6.573
  163POPC   C4A 2265   3.730   7.251   6.169
  163POPC   C1B 2266   3.207   7.250   7.285
  163POPC   C2B 2267   3.036   7.214   6.881
  163POPC   C3B 2268   3.284   7.165   6.475
  163POPC   C4B 2269   3.323   6.991   6.048
  164POPC   NC3 2270   1.830   5.112   8.194
  164POPC   PO4 2271   1.382   4.695   7.992
  164POPC   GL1 2272   1.609   4.928   7.709
  164POPC   GL2 2273   1.962   4.929   7.721
  164POPC   C1A 2274   1.710   4.786   7.284
  164POPC   D2A 2275   1.966   4.773   6.887
  164POPC   C3A 2276   1.768   4.944   6.528
  164POPC   C4A 2277   1.631   4.734   6.162
  164POPC   C1B 2278   2.188   4.957   7.319
  164POPC   C2B 2279   2.373   5.116   6.914
  164POPC   C3B 2280   2.256   5.125   6.483
  164POPC   C4B 2281   2.148   4.752   6.252
  165POPC   NC3 2282   6.948   8.443   8.022
  165POPC   PO4 2283   7.453   8.832   8.177
  165POPC   GL1 2284   7.225   8.834   7.797
  165POPC   GL2 2285   7.421   8.609   7.643
  165POPC   C1A 2286   7.022   8.805   7.376
  165POPC   D2A 2287   6.960   8.573   6.981
  165POPC   C3A 2288   6.856   8.854   6.677
  165POPC   C4A 2289   6.983   8.952   6.281
  165POPC   C1B 2290   7.664   8.639   7.261
  165POPC   C2B 2291   7.594   8.534   6.831
  165POPC   C3B 2292   7.319   8.661   6.527
  165POPC   C4B 2293   7.231   8.528   6.099
  166POPC   NC3 2294   3.120   0.528   8.225
  166POPC   PO4 2295   3.715   0.769   8.428
  166POPC   GL1 2296   3.545   0.582   7.948
  166POPC   GL2 2297   3.406   0.256   7.817
  166POPC   C1A 2298   3.599   0.556   7.450
  166POPC   D2A 2299   3.343   0.660   7.043
  166POPC   C3A 2300   3.367   0.483   6.614
  166POPC   C4A 2301   3.243   0.640   6.230
  166POPC   C1B 2302   3.173   0.280   7.406
  166POPC   C2B 2303   3.157   0.136   6.951
  166POPC   C3B 2304   3.214  10.478   6.500
  166POPC   C4B 2305   3.442   0.135   6.130
  167POPC   NC3 2306   3.936   8.923   8.183
  167POPC   PO4 2307   4.511   9.033   7.769
  167POPC   GL1 2308   4.296   8.758   7.567
  167POPC   GL2 2309   4.241   8.455   7.749
  167POPC   C1A 2310   4.249   8.798   7.147
  167POPC   D2A 2311   4.058   8.935   6.807
  167POPC   C3A 2312   3.988   8.636   6.492
  167POPC   C4A 2313   4.010   8.880   6.117
  167POPC   C1B 2314   4.220   8.322   7.295
  167POPC   C2B 2315   4.148   8.211   6.836
  167POPC   C3B 2316   4.344   8.250   6.451
  167POPC   C4B 2317   4.371   8.488   6.125
  168POPC   NC3 2318   9.982   2.302   8.162
  168POPC   PO4 2319   9.998   1.665   8.152
  168POPC   GL1 2320  10.309   1.750   7.825
  168POPC   GL2 2321  10.191   2.086   7.720
  168POPC   C1A 2322  10.496   1.791   7.406
  168POPC   D2A 2323  10.385   2.005   7.026
  168POPC   C3A 2324  10.442   1.847   6.652
  168POPC   C4A 2325  10.334   1.709   6.276
  168POPC   C1B 2326   9.980   1.949   7.337
  168POPC   C2B 2327   9.868   2.087   6.893
  168POPC   C3B 2328  10.023   2.094   6.477
  168POPC   C4B 2329  10.199   2.345   6.138
  169POPC   NC3 2330   1.294   7.286   8.171
  169POPC   PO4 2331   0.943   7.798   8.016
  169POPC   GL1 2332   1.020   7.570   7.602
  169POPC   GL2 2333   1.338   7.379   7.657
  169POPC   C1A 2334   0.892   7.506   7.131
  169POPC   D2A 2335   0.865   7.396   6.693
  169POPC   C3A 2336   1.219   7.380   6.452
  169POPC   C4A 2337   1.138   7.416   6.035
  169POPC   C1B 2338   1.170   7.149   7.345
  169POPC   C2B 2339   1.188   7.079   6.928
  169POPC   C3B 2340   1.013   6.896   6.585
  169POPC   C4B 2341   1.185   6.951   6.194
  170POPC   NC3 2342  10.375   2.886   7.976
  170POPC   PO4 2343   9.850   2.573   7.817
  170POPC   GL1 2344  10.184   2.595   7.591
  170POPC   GL2 2345   0.003   2.489   7.634
  170POPC   C1A 2346  10.186   2.443   7.205
  170POPC   D2A 2347   9.892   2.592   6.944
  170POPC   C3A 2348  10.045   2.619   6.549
  170POPC   C4A 2349   9.843   2.729   6.178
  170POPC   C1B 2350   0.061   2.814   7.318
  170POPC   C2B 2351  10.363   2.853   6.915
  170POPC   C3B 2352   0.031   2.828   6.553
  170POPC   C4B 2353  10.340   2.865   6.178
  171POPC   NC3 2354  10.098   9.343   8.001
  171POPC   PO4 2355   0.063   8.839   7.921
  171POPC   GL1 2356  10.340   9.134   7.613
  171POPC   GL2 2357  10.386   9.536   7.644
  171POPC   C1A 2358  10.108   9.251   7.251
  171POPC   D2A 2359  10.331   9.246   6.860
  171POPC   C3A 2360  10.177   9.193   6.437
  171POPC   C4A 2361   0.053   9.045   6.232
  171POPC   C1B 2362  10.434   9.628   7.235
  171POPC   C2B 2363  10.174   9.728   6.916
  171POPC   C3B 2364  10.359   9.660   6.539
  171POPC   C4B 2365  10.358   9.541   6.124
  172POPC   NC3 2366  10.455   6.926   7.975
  172POPC   PO4 2367   9.787   7.335   8.103
  172POPC   GL1 2368  10.030   7.145   7.748
  172POPC   GL2 2369  10.236   7.375   7.599
  172POPC   C1A 2370  10.176   6.947   7.322
  172POPC   D2A 2371  10.012   7.057   6.898
  172POPC   C3A 2372  10.320   7.124   6.577
  172POPC   C4A 2373  10.347   6.989   6.186
  172POPC   C1B 2374   9.969   7.468   7.315
  172POPC   C2B 2375   9.880   7.577   6.925
  172POPC   C3B 2376   9.933   7.452   6.529
  172POPC   C4B 2377  10.085   7.421   6.134
  173POPC   NC3 2378   8.756   2.559   8.063
  173POPC   PO4 2379   8.237   2.982   7.967
  173POPC   GL1 2380   8.587   2.874   7.670
  173POPC   GL2 2381   8.436   2.634   7.440
  173POPC   C1A 2382   8.766   2.952   7.240
  173POPC   D2A 2383   8.480   2.754   6.928
  173POPC   C3A 2384   8.428   2.922   6.506
  173POPC   C4A 2385   8.784   2.911   6.191
  173POPC   C1B 2386   8.770   2.398   7.279
  173POPC   C2B 2387   8.939   2.511   6.884
  173POPC   C3B 2388   8.728   2.498   6.496
  173POPC   C4B 2389   8.346   2.451   6.257
  174POPC   NC3 2390   6.408   0.662   4.055
  174POPC   PO4 2391   6.855   0.142   3.996
  174POPC   GL1 2392   6.609   0.305   4.333
  174POPC   GL2 2393   6.270   0.194   4.275
  174POPC   C1A 2394   6.717   0.548   4.698
  174POPC   D2A 2395   6.690   0.286   5.053
  174POPC   C3A 2396   6.574   0.470   5.401
  174POPC   C4A 2397   6.606   0.217   5.758
  174POPC   C1B 2398   6.228   0.425   4.672
  174POPC   C2B 2399   6.132   0.295   5.089
  174POPC   C3B 2400   6.119   0.320   5.518
  174POPC   C4B 2401   6.324   0.649   5.841
  175POPC   NC3 2402   5.627   2.160   3.936
  175POPC   PO4 2403   6.098   1.556   3.912
  175POPC   GL1 2404   6.082   1.708   4.338
  175POPC   GL2 2405   5.733   1.827   4.327
  175POPC   C1A 2406   5.937   1.728   4.790
  175POPC   D2A 2407   5.636   1.829   5.112
  175POPC   C3A 2408   5.823   1.974   5.485
  175POPC   C4A 2409   5.874   1.698   5.810
  175POPC   C1B 2410   5.614   2.111   4.672
  175POPC   C2B 2411   5.285   2.174   4.987
  175POPC   C3B 2412   5.342   2.261   5.394
  175POPC   C4B 2413   5.303   2.344   5.815
  176POPC   NC3 2414   0.004   9.536   4.007
  176POPC   PO4 2415   0.577   9.839   3.740
  176POPC   GL1 2416   0.594   9.596   4.132
  176POPC   GL2 2417   0.429   9.265   4.124
  176POPC   C1A 2418   0.754   9.597   4.557
  176POPC   D2A 2419   0.903   9.587   4.982
  176POPC   C3A 2420   0.647   9.374   5.230
  176POPC   C4A 2421   0.637   9.382   5.652
  176POPC   C1B 2422   0.251   9.232   4.558
  176POPC   C2B 2423   0.176   9.358   4.983
  176POPC   C3B 2424   0.195   9.216   5.387
  176POPC   C4B 2425   0.148   9.342   5.785
  177POPC   NC3 2426   3.531   0.992   3.755
  177POPC   PO4 2427   3.404   0.348   3.967
  177POPC   GL1 2428   3.445   0.415   4.356
  177POPC   GL2 2429   3.637   0.149   4.397
  177POPC   C1A 2430   3.472   0.509   4.780
  177POPC   D2A 2431   3.703   0.575   5.123
  177POPC   C3A 2432   3.616   0.804   5.466
  177POPC   C4A 2433   3.570   0.561   5.848
  177POPC   C1B 2434   3.283   0.042   4.665
  177POPC   C2B 2435   3.152   0.215   5.055
  177POPC   C3B 2436   3.260   0.439   5.403
  177POPC   C4B 2437   3.112   0.370   5.803
  178POPC   NC3 2438   2.952   4.350   3.988
  178POPC   PO4 2439   2.368   4.504   3.730
  178POPC   GL1 2440   2.441   4.385   4.169
  178POPC   GL2 2441   2.579   4.054   4.201
  178POPC   C1A 2442   2.585   4.356   4.611
  178POPC   D2A 2443   2.484   4.199   5.032
  178POPC   C3A 2444   2.611   4.404   5.436
  178POPC   C4A 2445   2.976   4.502   5.710
  178POPC   C1B 2446   2.948   4.006   4.559
  178POPC   C2B 2447   2.955   3.963   5.012
  178POPC   C3B 2448   3.166   4.091   5.408
  178POPC   C4B 2449   3.239   4.048   5.841
  179POPC   NC3 2450   9.519   8.128   3.567
  179POPC   PO4 2451   8.930   7.966   3.889
  179POPC   GL1 2452   9.123   8.149   4.286
  179POPC   GL2 2453   9.428   7.989   4.365
  179POPC   C1A 2454   9.105   7.984   4.731
  179POPC   D2A 2455   9.430   7.961   5.040
  179POPC   C3A 2456   9.223   7.863   5.393
  179POPC   C4A 2457   9.428   7.931   5.736
  179POPC   C1B 2458   9.600   7.662   4.637
  179POPC   C2B 2459   9.842   7.623   5.003
  179POPC   C3B 2460   9.777   7.726   5.410
  179POPC   C4B 2461   9.816   7.494   5.722
  180POPC   NC3 2462   9.430   6.484   3.593
  180POPC   PO4 2463   9.768   6.989   3.909
  180POPC   GL1 2464   9.728   6.762   4.343
  180POPC   GL2 2465   9.388   6.634   4.407
  180POPC   C1A 2466   9.705   6.629   4.777
  180POPC   D2A 2467   9.690   6.365   5.162
  180POPC   C3A 2468   9.696   6.590   5.579
  180POPC   C4A 2469   9.479   6.601   6.029
  180POPC   C1B 2470   9.320   6.303   4.762
  180POPC   C2B 2471   9.209   6.206   5.163
  180POPC   C3B 2472   9.219   6.389   5.540
  180POPC   C4B 2473   9.191   6.193   5.917
  181POPC   NC3 2474   3.213   7.223   4.062
  181POPC   PO4 2475   3.816   7.435   3.962
  181POPC   GL1 2476   3.616   7.392   4.415
  181POPC   GL2 2477   3.229   7.442   4.517
  181POPC   C1A 2478   3.589   7.417   4.893
  181POPC   D2A 2479   3.401   7.280   5.296
  181POPC   C3A 2480   3.632   7.152   5.663
  181POPC   C4A 2481   3.768   6.788   5.928
  181POPC   C1B 2482   3.104   7.027   4.744
  181POPC   C2B 2483   3.145   6.831   5.171
  181POPC   C3B 2484   3.049   7.014   5.580
  181POPC   C4B 2485   3.068   7.453   5.668
  182POPC   NC3 2486   9.663   9.961   3.894
  182POPC   PO4 2487   9.086   9.780   4.207
  182POPC   GL1 2488   9.099  10.082   4.478
  182POPC   GL2 2489   9.381  10.213   4.261
  182POPC   C1A 2490   9.154   9.949   4.920
  182POPC   D2A 2491   9.458   9.893   5.243
  182POPC   C3A 2492   9.433   9.967   5.692
  182POPC   C4A 2493   9.257  10.108   6.119
  182POPC   C1B 2494   9.605  10.348   4.609
  182POPC   C2B 2495   9.485  10.382   5.010
  182POPC   C3B 2496   9.633  10.365   5.403
  182POPC   C4B 2497   9.443  10.456   5.804
  183POPC   NC3 2498   9.616   2.706   3.838
  183POPC   PO4 2499   9.694   2.278   4.325
  183POPC   GL1 2500   9.432   2.646   4.310
  183POPC   GL2 2501   9.212   2.903   4.109
  183POPC   C1A 2502   9.542   2.831   4.684
  183POPC   D2A 2503   9.560   2.556   5.021
  183POPC   C3A 2504   9.416   2.731   5.378
  183POPC   C4A 2505   9.577   2.588   5.762
  183POPC   C1B 2506   9.049   2.914   4.520
  183POPC   C2B 2507   9.118   2.976   4.950
  183POPC   C3B 2508   9.001   3.053   5.354
  183POPC   C4B 2509   9.112   2.864   5.765
  184POPC   NC3 2510   8.735   7.547   3.946
  184POPC   PO4 2511   8.358   8.085   4.140
  184POPC   GL1 2512   8.633   8.189   4.409
  184POPC   GL2 2513   8.747   7.840   4.387
  184POPC   C1A 2514   8.649   8.171   4.826
  184POPC   D2A 2515   8.535   7.946   5.197
  184POPC   C3A 2516   8.551   8.125   5.585
  184POPC   C4A 2517   8.937   8.186   5.748
  184POPC   C1B 2518   8.674   7.666   4.777
  184POPC   C2B 2519   8.557   7.449   5.121
  184POPC   C3B 2520   8.497   7.484   5.557
  184POPC   C4B 2521   8.836   7.697   5.713
  185POPC   NC3 2522   4.674   0.573   3.814
  185POPC   PO4 2523   5.311   0.178   3.913
  185POPC   GL1 2524   5.109   0.364   4.288
  185POPC   GL2 2525   4.768   0.381   4.269
  185POPC   C1A 2526   5.271   0.643   4.660
  185POPC   D2A 2527   5.145   0.817   5.048
  185POPC   C3A 2528   5.070   0.480   5.315
  185POPC   C4A 2529   5.001   0.507   5.741
  185POPC   C1B 2530   4.802   0.437   4.707
  185POPC   C2B 2531   4.613   0.343   5.086
  185POPC   C3B 2532   4.676   0.169   5.502
  185POPC   C4B 2533   4.630   0.176   5.953
  186POPC   NC3 2534   5.726  10.448   3.901
  186POPC   PO4 2535   5.380  10.039   3.604
  186POPC   GL1 2536   5.423  10.221   4.193
  186POPC   GL2 2537   5.756  10.190   4.357
  186POPC   C1A 2538   5.348  10.139   4.672
  186POPC   D2A 2539   5.398  10.145   5.140
  186POPC   C3A 2540   5.280  10.344   5.540
  186POPC   C4A 2541   5.426  10.247   5.972
  186POPC   C1B 2542   5.812  10.293   4.810
  186POPC   C2B 2543   5.840  10.404   5.240
  186POPC   C3B 2544   5.779  10.375   5.645
  186POPC   C4B 2545   5.903  10.103   5.996
  187POPC   NC3 2546  10.399   7.934   4.000
  187POPC   PO4 2547   9.922   8.265   3.798
  187POPC   GL1 2548   9.947   8.081   4.216
  187POPC   GL2 2549   9.983   7.708   4.276
  187POPC   C1A 2550   9.834   8.111   4.625
  187POPC   D2A 2551  10.045   8.086   4.968
  187POPC   C3A 2552   9.853   8.199   5.280
  187POPC   C4A 2553   9.856   8.221   5.715
  187POPC   C1B 2554  10.290   7.754   4.620
  187POPC   C2B 2555  10.490   7.829   5.022
  187POPC   C3B 2556  10.291   7.920   5.401
  187POPC   C4B 2557  10.200   7.813   5.805
  188POPC   NC3 2558   2.835   1.615   3.989
  188POPC   PO4 2559   2.745   0.947   3.859
  188POPC   GL1 2560   2.583   1.213   4.147
  188POPC   GL2 2561   2.953   1.199   4.284
  188POPC   C1A 2562   2.524   1.233   4.561
  188POPC   D2A 2563   2.722   1.002   4.883
  188POPC   C3A 2564   2.403   0.864   5.186
  188POPC   C4A 2565   2.373   0.978   5.609
  188POPC   C1B 2566   3.059   1.439   4.646
  188POPC   C2B 2567   2.924   1.454   5.061
  188POPC   C3B 2568   2.730   1.219   5.356
  188POPC   C4B 2569   2.809   1.258   5.791
  189POPC   NC3 2570   5.625   8.819   3.878
  189POPC   PO4 2571   6.137   8.275   3.865
  189POPC   GL1 2572   5.881   8.354   4.252
  189POPC   GL2 2573   5.785   8.682   4.330
  189POPC   C1A 2574   5.824   8.375   4.721
  189POPC   D2A 2575   5.989   8.513   5.113
  189POPC   C3A 2576   5.919   8.177   5.367
  189POPC   C4A 2577   5.619   8.251   5.657
  189POPC   C1B 2578   5.643   8.969   4.652
  189POPC   C2B 2579   5.754   9.010   5.070
  189POPC   C3B 2580   5.602   8.849   5.450
  189POPC   C4B 2581   5.622   9.004   5.856
  190POPC   NC3 2582   7.374   1.221   3.892
  190POPC   PO4 2583   6.797   0.842   3.896
  190POPC   GL1 2584   7.058   0.947   4.231
  190POPC   GL2 2585   7.083   1.280   4.294
  190POPC   C1A 2586   7.012   0.967   4.690
  190POPC   D2A 2587   7.024   1.127   5.109
  190POPC   C3A 2588   6.874   0.870   5.457
  190POPC   C4A 2589   7.099   0.839   5.893
  190POPC   C1B 2590   7.256   1.420   4.687
  190POPC   C2B 2591   7.068   1.634   4.975
  190POPC   C3B 2592   7.073   1.633   5.371
  190POPC   C4B 2593   7.113   1.274   5.613
  191POPC   NC3 2594   5.835   7.921   3.971
  191POPC   PO4 2595   5.208   8.084   3.953
  191POPC   GL1 2596   5.456   8.085   4.336
  191POPC   GL2 2597   5.778   7.891   4.462
  191POPC   C1A 2598   5.393   8.046   4.765
  191POPC   D2A 2599   5.133   8.198   5.061
  191POPC   C3A 2600   5.169   7.969   5.427
  191POPC   C4A 2601   5.460   7.745   5.694
  191POPC   C1B 2602   5.873   7.886   4.900
  191POPC   C2B 2603   5.770   7.648   5.260
  191POPC   C3B 2604   5.960   7.697   5.627
  191POPC   C4B 2605   6.096   8.086   5.840
  192POPC   NC3 2606   8.068   4.105   3.637
  192POPC   PO4 2607   7.901   4.737   4.000
  192POPC   GL1 2608   7.879   4.495   4.505
  192POPC   GL2 2609   8.069   4.088   4.519
  192POPC   C1A 2610   7.952   4.362   4.913
  192POPC   D2A 2611   8.176   4.028   5.051
  192POPC   C3A 2612   8.075   4.160   5.421
  192POPC   C4A 2613   7.904   4.304   5.824
  192POPC   C1B 2614   7.757   3.886   4.814
  192POPC   C2B 2615   7.687   3.899   5.235
  192POPC   C3B 2616   7.550   3.978   5.662
  192POPC   C4B 2617   7.674   3.889   6.101
  193POPC   NC3 2618   0.339   0.494   3.682
  193POPC   PO4 2619  10.095   0.425   3.816
  193POPC   GL1 2620   9.983   0.236   4.230
  193POPC   GL2 2621  10.158   0.511   4.342
  193POPC   C1A 2622  10.166  10.488   4.594
  193POPC   D2A 2623  10.250   0.004   5.015
  193POPC   C3A 2624  10.220   0.290   5.339
  193POPC   C4A 2625  10.194   0.209   5.750
  193POPC   C1B 2626   9.906   0.387   4.710
  193POPC   C2B 2627   9.755   0.302   5.122
  193POPC   C3B 2628   9.736   0.323   5.584
  193POPC   C4B 2629   9.868   0.592   5.904
  194POPC   NC3 2630   7.233   8.537   3.989
  194POPC   PO4 2631   6.810   8.949   3.668
  194POPC   GL1 2632   6.861   8.845   4.221
  194POPC   GL2 2633   7.099   8.604   4.452
  194POPC   C1A 2634   6.861   8.910   4.731
  194POPC   D2A 2635   7.191   8.732   5.047
  194POPC   C3A 2636   7.076   8.541   5.465
  194POPC   C4A 2637   6.843   8.683   5.829
  194POPC   C1B 2638   7.467   8.463   4.655
  194POPC   C2B 2639   7.712   8.480   5.032
  194POPC   C3B 2640   7.588   8.458   5.449
  194POPC   C4B 2641   7.463   8.792   5.723
  195POPC   NC3 2642   3.818   9.565   3.892
  195POPC   PO4 2643   4.471   9.711   3.862
  195POPC   GL1 2644   4.407   9.366   4.226
  195POPC   GL2 2645   4.157   9.125   4.228
  195POPC   C1A 2646   4.448   9.107   4.648
  195POPC   D2A 2647   4.224   9.191   5.062
  195POPC   C3A 2648   4.480   9.172   5.454
  195POPC   C4A 2649   4.400   9.264   5.909
  195POPC   C1B 2650   4.044   9.425   4.617
  195POPC   C2B 2651   4.053   9.667   5.063
  195POPC   C3B 2652   4.131   9.552   5.501
  195POPC   C4B 2653   3.975   9.151   5.644
  196POPC   NC3 2654   8.801   0.328   3.870
  196POPC   PO4 2655   9.220   0.885   3.967
  196POPC   GL1 2656   9.100   0.638   4.298
  196POPC   GL2 2657   8.974   0.309   4.335
  196POPC   C1A 2658   9.115   0.772   4.694
  196POPC   D2A 2659   8.895   0.880   5.040
  196POPC   C3A 2660   8.969   0.673   5.401
  196POPC   C4A 2661   8.601   0.599   5.609
  196POPC   C1B 2662   8.711   0.462   4.668
  196POPC   C2B 2663   8.667   0.361   5.098
  196POPC   C3B 2664   8.781   0.150   5.467
  196POPC   C4B 2665   8.608   0.170   5.874
  197POPC   NC3 2666  10.226   2.896   3.967
  197POPC   PO4 2667   9.869   2.338   3.725
  197POPC   GL1 2668  10.121   2.458   4.188
  197POPC   GL2 2669  10.404   2.647   4.361
  197POPC   C1A 2670  10.157   2.436   4.719
  197POPC   D2A 2671  10.021   2.783   4.987
  197POPC   C3A 2672   9.928   2.670   5.393
  197POPC   C4A 2673  10.070   2.832   5.751
  197POPC   C1B 2674  10.324   3.009   4.606
  197POPC   C2B 2675  10.458   3.073   5.002
  197POPC   C3B 2676  10.446   2.807   5.346
  197POPC   C4B 2677   0.074   2.924   5.735
  198POPC   NC3 2678   8.300   3.557   3.816
  198POPC   PO4 2679   8.927   3.300   3.800
  198POPC   GL1 2680   8.870   3.328   4.222
  198POPC   GL2 2681   8.663   3.630   4.224
  198POPC   C1A 2682   8.746   3.308   4.667
  198POPC   D2A 2683   8.502   3.181   5.049
  198POPC   C3A 2684   8.540   3.337   5.442
  198POPC   C4A 2685   8.818   3.273   5.778
  198POPC   C1B 2686   8.489   3.769   4.634
  198POPC   C2B 2687   8.578   3.700   5.043
  198POPC   C3B 2688   8.509   3.870   5.419
  198POPC   C4B 2689   8.532   3.695   5.815
  199POPC   NC3 2690   7.798   7.095   4.136
  199POPC   PO4 2691   8.422   7.213   4.013
  199POPC   GL1 2692   8.186   7.251   4.423
  199POPC   GL2 2693   7.824   7.360   4.554
  199POPC   C1A 2694   8.219   7.203   4.848
  199POPC   D2A 2695   7.982   7.068   5.215
  199POPC   C3A 2696   8.006   7.313   5.586
  199POPC   C4A 2697   8.080   7.221   6.040
  199POPC   C1B 2698   7.643   7.186   4.862
  199POPC   C2B 2699   7.592   7.437   5.219
  199POPC   C3B 2700   7.335   7.436   5.550
  199POPC   C4B 2701   7.590   7.267   5.880
  200POPC   NC3 2702   0.441   7.802   3.827
  200POPC   PO4 2703   0.089   8.364   3.984
  200POPC   GL1 2704   0.313   8.062   4.261
  200POPC   GL2 2705   0.245   7.700   4.285
  200POPC   C1A 2706   0.348   8.100   4.701
  200POPC   D2A 2707   0.496   7.996   5.112
  200POPC   C3A 2708   0.241   8.188   5.394
  200POPC   C4A 2709   0.047   8.178   5.785
  200POPC   C1B 2710   0.313   7.596   4.668
  200POPC   C2B 2711   0.366   7.487   5.075
  200POPC   C3B 2712   0.273   7.679   5.476
  200POPC   C4B 2713   0.570   7.976   5.699
  201POPC   NC3 2714   7.475   7.098   3.710
  201POPC   PO4 2715   7.610   6.662   4.205
  201POPC   GL1 2716   7.240   6.891   4.300
  201POPC   GL2 2717   7.159   7.207   4.129
  201POPC   C1A 2718   7.112   6.848   4.743
  201POPC   D2A 2719   7.436   6.769   5.084
  201POPC   C3A 2720   7.534   6.957   5.480
  201POPC   C4A 2721   7.310   6.846   5.886
  201POPC   C1B 2722   7.215   7.316   4.588
  201POPC   C2B 2723   7.165   7.230   5.064
  201POPC   C3B 2724   7.024   7.042   5.465
  201POPC   C4B 2725   6.989   7.240   5.860
  202POPC   NC3 2726   8.899  10.167   4.003
  202POPC   PO4 2727   8.405   9.715   3.883
  202POPC   GL1 2728   8.570   9.948   4.314
  202POPC   GL2 2729   8.610  10.337   4.396
  202POPC   C1A 2730   8.657  10.018   4.777
  202POPC   D2A 2731   8.481  10.371   5.046
  202POPC   C3A 2732   8.471  10.231   5.490
  202POPC   C4A 2733   8.508   9.835   5.749
  202POPC   C1B 2734   8.895  10.484   4.702
  202POPC   C2B 2735   8.986  10.398   5.081
  202POPC   C3B 2736   9.129  10.284   5.437
  202POPC   C4B 2737   8.885  10.230   5.801
  203POPC   NC3 2738   9.526   5.705   3.688
  203POPC   PO4 2739   9.468   6.337   4.021
  203POPC   GL1 2740   9.637   6.031   4.265
  203POPC   GL2 2741   9.580   5.672   4.283
  203POPC   C1A 2742   9.725   5.979   4.689
  203POPC   D2A 2743   9.569   5.824   5.069
  203POPC   C3A 2744   9.550   5.985   5.475
  203POPC   C4A 2745   9.691   6.159   5.860
  203POPC   C1B 2746   9.296   5.555   4.663
  203POPC   C2B 2747   9.427   5.346   5.058
  203POPC   C3B 2748   9.345   5.456   5.472
  203POPC   C4B 2749   9.400   5.675   5.840
  204POPC   NC3 2750   6.437   1.930   3.931
  204POPC   PO4 2751   6.059   2.440   3.860
  204POPC   GL1 2752   6.108   2.209   4.262
  204POPC   GL2 2753   6.449   2.093   4.392
  204POPC   C1A 2754   6.126   2.250   4.731
  204POPC   D2A 2755   6.167   2.050   5.114
  204POPC   C3A 2756   6.240   2.262   5.470
  204POPC   C4A 2757   6.176   2.113   5.875
  204POPC   C1B 2758   6.425   1.822   4.735
  204POPC   C2B 2759   6.609   1.802   5.151
  204POPC   C3B 2760   6.476   1.803   5.581
  204POPC   C4B 2761   6.796   1.618   5.828
  205POPC   NC3 2762   1.726   3.463   3.869
  205POPC   PO4 2763   1.600   2.866   3.875
  205POPC   GL1 2764   1.813   3.136   4.262
  205POPC   GL2 2765   1.737   3.549   4.358
  205POPC   C1A 2766   1.709   3.198   4.714
  205POPC   D2A 2767   1.799   3.030   5.108
  205POPC   C3A 2768   1.826   3.287   5.431
  205POPC   C4A 2769   2.198   3.118   5.613
  205POPC   C1B 2770   2.030   3.611   4.705
  205POPC   C2B 2771   1.952   3.749   5.143
  205POPC   C3B 2772   2.170   3.643   5.540
  205POPC   C4B 2773   1.950   3.479   5.913
  206POPC   NC3 2774   6.348   3.563   3.929
  206POPC   PO4 2775   6.847   3.870   3.918
  206POPC   GL1 2776   6.695   3.697   4.338
  206POPC   GL2 2777   6.418   3.471   4.411
  206POPC   C1A 2778   6.623   3.685   4.817
  206POPC   D2A 2779   6.596   3.400   5.177
  206POPC   C3A 2780   6.553   3.652   5.586
  206POPC   C4A 2781   6.403   3.878   5.998
  206POPC   C1B 2782   6.215   3.348   4.785
  206POPC   C2B 2783   6.147   3.153   5.194
  206POPC   C3B 2784   6.267   3.250   5.602
  206POPC   C4B 2785   6.042   3.555   5.807
  207POPC   NC3 2786   9.862   7.441   3.834
  207POPC   PO4 2787   0.068   7.520   3.838
  207POPC   GL1 2788  10.371   7.359   4.215
  207POPC   GL2 2789  10.129   7.094   4.246
  207POPC   C1A 2790  10.450   7.256   4.659
  207POPC   D2A 2791  10.332   7.135   5.076
  207POPC   C3A 2792  10.258   7.416   5.407
  207POPC   C4A 2793  10.460   7.374   5.802
  207POPC   C1B 2794   9.950   7.283   4.597
  207POPC   C2B 2795   9.772   7.119   4.961
  207POPC   C3B 2796   9.832   7.093   5.388
  207POPC   C4B 2797  10.090   7.054   5.751
  208POPC   NC3 2798   0.139   9.990   3.679
  208POPC   PO4 2799   0.460   0.081   3.911
  208POPC   GL1 2800   0.266  10.370   4.259
  208POPC   GL2 2801   0.311  10.027   4.172
  208POPC   C1A 2802   0.213  10.478   4.714
  208POPC   D2A 2803   0.497  10.487   5.083
  208POPC   C3A 2804   0.464  10.248   5.477
  208POPC   C4A 2805   0.230  10.283   5.845
  208POPC   C1B 2806   0.476  10.044   4.610
  208POPC   C2B 2807   0.439   9.806   4.993
  208POPC   C3B 2808   0.239   9.733   5.400
  208POPC   C4B 2809   0.369   9.795   5.816
  209POPC   NC3 2810   3.884   0.425   3.999
  209POPC   PO4 2811   4.280   0.787   3.677
  209POPC   GL1 2812   4.315   0.650   4.167
  209POPC   GL2 2813   4.254   0.309   4.337
  209POPC   C1A 2814   4.356   0.714   4.625
  209POPC   D2A 2815   4.174   0.715   5.050
  209POPC   C3A 2816   4.359   0.613   5.424
  209POPC   C4A 2817   4.317   0.527   5.818
  209POPC   C1B 2818   3.999   0.334   4.722
  209POPC   C2B 2819   4.102   0.209   5.150
  209POPC   C3B 2820   3.915   0.349   5.539
  209POPC   C4B 2821   3.938   0.242   5.985
  210POPC   NC3 2822   1.933   8.186   3.809
  210POPC   PO4 2823   2.146   7.486   3.753
  210POPC   GL1 2824   2.120   7.624   4.197
  210POPC   GL2 2825   2.026   8.001   4.289
  210POPC   C1A 2826   2.306   7.640   4.613
  210POPC   D2A 2827   2.442   7.762   5.035
  210POPC   C3A 2828   2.238   7.624   5.420
  210POPC   C4A 2829   2.093   7.536   5.827
  210POPC   C1B 2830   1.946   7.961   4.747
  210POPC   C2B 2831   2.015   8.013   5.181
  210POPC   C3B 2832   1.793   7.888   5.514
  210POPC   C4B 2833   1.680   7.834   5.929
  211POPC   NC3 2834   1.748   9.731   4.006
  211POPC   PO4 2835   2.042  10.332   3.818
  211POPC   GL1 2836   1.933  10.184   4.217
  211POPC   GL2 2837   1.557  10.198   4.220
  211POPC   C1A 2838   2.067  10.157   4.665
  211POPC   D2A 2839   2.191  10.348   5.077
  211POPC   C3A 2840   2.089  10.113   5.455
  211POPC   C4A 2841   1.986  10.274   5.828
  211POPC   C1B 2842   1.501  10.190   4.670
  211POPC   C2B 2843   1.727  10.134   5.059
  211POPC   C3B 2844   1.579  10.190   5.468
  211POPC   C4B 2845   1.700   9.863   5.739
  212POPC   NC3 2846   2.317   5.632   3.859
  212POPC   PO4 2847   1.703   5.327   3.733
  212POPC   GL1 2848   1.845   5.485   4.175
  212POPC   GL2 2849   1.510   5.521   4.325
  212POPC   C1A 2850   1.966   5.559   4.657
  212POPC   D2A 2851   2.194   5.848   4.994
  212POPC   C3A 2852   2.319   5.776   5.454
  212POPC   C4A 2853   2.199   5.614   5.878
  212POPC   C1B 2854   1.521   5.802   4.680
  212POPC   C2B 2855   1.714   5.777   5.089
  212POPC   C3B 2856   1.838   5.609   5.523
  212POPC   C4B 2857   1.756   5.827   5.894
  213POPC   NC3 2858   3.102   9.513   3.924
  213POPC   PO4 2859   3.742   9.111   3.811
  213POPC   GL1 2860   3.680   9.261   4.285
  213POPC   GL2 2861   3.602   9.620   4.352
  213POPC   C1A 2862   3.612   9.182   4.726
  213POPC   D2A 2863   3.720   9.086   5.135
  213POPC   C3A 2864   3.650   9.436   5.357
  213POPC   C4A 2865   3.518   9.383   5.780
  213POPC   C1B 2866   3.301   9.579   4.667
  213POPC   C2B 2867   3.205   9.339   5.050
  213POPC   C3B 2868   3.159   9.513   5.461
  213POPC   C4B 2869   2.975   9.781   5.801
  214POPC   NC3 2870   1.787   7.197   3.790
  214POPC   PO4 2871   2.234   6.772   3.901
  214POPC   GL1 2872   2.140   7.005   4.239
  214POPC   GL2 2873   1.816   7.092   4.299
  214POPC   C1A 2874   2.177   7.150   4.657
  214POPC   D2A 2875   2.320   7.272   5.038
  214POPC   C3A 2876   2.163   7.109   5.422
  214POPC   C4A 2877   2.047   7.019   5.853
  214POPC   C1B 2878   1.782   7.474   4.598
  214POPC   C2B 2879   1.856   7.537   5.065
  214POPC   C3B 2880   1.727   7.375   5.501
  214POPC   C4B 2881   1.624   7.321   5.959
  215POPC   NC3 2882   1.781   6.471   3.976
  215POPC   PO4 2883   2.341   6.078   3.937
  215POPC   GL1 2884   2.030   6.095   4.224
  215POPC   GL2 2885   2.175   6.433   4.302
  215POPC   C1A 2886   1.927   6.117   4.658
  215POPC   D2A 2887   1.838   6.316   5.060
  215POPC   C3A 2888   1.882   6.106   5.445
  215POPC   C4A 2889   2.129   6.140   5.787
  215POPC   C1B 2890   2.034   6.647   4.657
  215POPC   C2B 2891   2.174   6.730   5.078
  215POPC   C3B 2892   2.101   6.606   5.531
  215POPC   C4B 2893   1.725   6.515   5.733
  216POPC   NC3 2894   4.642   2.100   4.095
  216POPC   PO4 2895   5.271   1.848   4.028
  216POPC   GL1 2896   5.214   1.991   4.401
  216POPC   GL2 2897   4.889   2.053   4.527
  216POPC   C1A 2898   5.212   1.722   4.757
  216POPC   D2A 2899   4.965   1.790   5.100
  216POPC   C3A 2900   5.225   1.661   5.395
  216POPC   C4A 2901   5.398   1.858   5.697
  216POPC   C1B 2902   4.803   2.372   4.824
  216POPC   C2B 2903   4.844   2.397   5.281
  216POPC   C3B 2904   4.917   2.060   5.579
  216POPC   C4B 2905   4.657   1.799   5.815
  217POPC   NC3 2906   7.936   9.953   3.841
  217POPC   PO4 2907   7.629   0.152   3.829
  217POPC   GL1 2908   7.812   0.166   4.258
  217POPC   GL2 2909   8.090  10.428   4.213
  217POPC   C1A 2910   7.746   0.073   4.703
  217POPC   D2A 2911   7.967  10.434   5.071
  217POPC   C3A 2912   7.704  10.363   5.408
  217POPC   C4A 2913   7.582  10.475   5.803
  217POPC   C1B 2914   8.162  10.208   4.613
  217POPC   C2B 2915   8.189   9.946   4.967
  217POPC   C3B 2916   8.121   9.851   5.363
  217POPC   C4B 2917   8.027  10.086   5.712
  218POPC   NC3 2918   4.979   7.683   3.944
  218POPC   PO4 2919   4.599   7.937   4.264
  218POPC   GL1 2920   4.972   7.893   4.457
  218POPC   GL2 2921   4.967   8.236   4.525
  218POPC   C1A 2922   4.964   7.738   4.910
  218POPC   D2A 2923   4.725   7.559   5.281
  218POPC   C3A 2924   4.878   7.638   5.717
  218POPC   C4A 2925   4.817   7.404   6.157
  218POPC   C1B 2926   4.660   8.157   4.866
  218POPC   C2B 2927   4.642   8.078   5.306
  218POPC   C3B 2928   4.823   8.286   5.649
  218POPC   C4B 2929   5.192   8.173   5.898
  219POPC   NC3 2930   2.699   8.661   3.975
  219POPC   PO4 2931   3.226   9.133   4.152
  219POPC   GL1 2932   3.037   8.739   4.338
  219POPC   GL2 2933   2.684   8.813   4.442
  219POPC   C1A 2934   2.929   8.448   4.710
  219POPC   D2A 2935   2.833   8.574   5.085
  219POPC   C3A 2936   2.961   8.403   5.421
  219POPC   C4A 2937   2.974   8.719   5.707
  219POPC   C1B 2938   2.437   8.679   4.783
  219POPC   C2B 2939   2.348   8.821   5.167
  219POPC   C3B 2940   2.492   8.635   5.514
  219POPC   C4B 2941   2.563   8.405   5.859
  220POPC   NC3 2942   6.318   7.151   4.073
  220POPC   PO4 2943   6.774   7.504   3.830
  220POPC   GL1 2944   6.732   7.427   4.308
  220POPC   GL2 2945   6.726   7.084   4.441
  220POPC   C1A 2946   6.769   7.467   4.784
  220POPC   D2A 2947   6.666   7.190   5.127
  220POPC   C3A 2948   6.568   7.320   5.526
  220POPC   C4A 2949   6.488   7.181   5.938
  220POPC   C1B 2950   6.342   7.129   4.750
  220POPC   C2B 2951   6.153   7.095   5.202
  220POPC   C3B 2952   6.169   6.880   5.613
  220POPC   C4B 2953   5.842   6.650   5.881
  221POPC   NC3 2954   0.986   4.663   3.884
  221POPC   PO4 2955   1.152   5.267   4.042
  221POPC   GL1 2956   1.188   5.071   4.375
  221POPC   GL2 2957   1.262   4.742   4.319
  221POPC   C1A 2958   1.329   5.038   4.752
  221POPC   D2A 2959   1.543   5.326   4.939
  221POPC   C3A 2960   1.502   5.235   5.356
  221POPC   C4A 2961   1.509   4.956   5.731
  221POPC   C1B 2962   0.938   4.692   4.618
  221POPC   C2B 2963   0.924   4.896   5.020
  221POPC   C3B 2964   1.115   4.827   5.419
  221POPC   C4B 2965   1.026   5.135   5.739
  222POPC   NC3 2966   3.020   0.633   4.039
  222POPC   PO4 2967   2.414   0.255   4.064
  222POPC   GL1 2968   2.576   0.335   4.426
  222POPC   GL2 2969   2.942   0.255   4.348
  222POPC   C1A 2970   2.366   0.250   4.812
  222POPC   D2A 2971   2.357   0.310   5.237
  222POPC   C3A 2972   2.369   0.047   5.569
  222POPC   C4A 2973   2.599   0.246   5.867
  222POPC   C1B 2974   2.951   0.535   4.710
  222POPC   C2B 2975   2.791   0.547   5.122
  222POPC   C3B 2976   2.836   0.739   5.514
  222POPC   C4B 2977   2.794   0.723   5.961
  223POPC   NC3 2978   8.489   5.758   3.954
  223POPC   PO4 2979   9.181   5.688   3.998
  223POPC   GL1 2980   8.851   5.660   4.314
  223POPC   GL2 2981   8.664   5.963   4.400
  223POPC   C1A 2982   8.702   5.502   4.695
  223POPC   D2A 2983   8.908   5.276   5.003
  223POPC   C3A 2984   8.846   5.329   5.424
  223POPC   C4A 2985   8.820   5.396   5.840
  223POPC   C1B 2986   8.863   5.984   4.815
  223POPC   C2B 2987   9.058   5.733   5.138
  223POPC   C3B 2988   8.983   5.838   5.565
  223POPC   C4B 2989   8.613   5.976   5.785
  224POPC   NC3 2990   3.378  10.369   3.950
  224POPC   PO4 2991   2.813   9.920   3.863
  224POPC   GL1 2992   3.167   9.920   4.253
  224POPC   GL2 2993   3.492  10.135   4.414
  224POPC   C1A 2994   3.092  10.039   4.710
  224POPC   D2A 2995   3.230  10.227   5.094
  224POPC   C3A 2996   3.278  10.033   5.486
  224POPC   C4A 2997   3.356  10.096   5.941
  224POPC   C1B 2998   3.723  10.358   4.803
  224POPC   C2B 2999   3.612   0.070   5.186
  224POPC   C3B 3000   3.509   0.010   5.617
  224POPC   C4B 3001   3.810  10.286   5.866
  225POPC   NC3 3002   6.687  10.204   3.989
  225POPC   PO4 3003   6.042  10.029   3.956
  225POPC   GL1 3004   6.283  10.176   4.333
  225POPC   GL2 3005   6.636  10.320   4.459
  225POPC   C1A 3006   6.303  10.143   4.776
  225POPC   D2A 3007   6.166  10.009   5.168
  225POPC   C3A 3008   6.326  10.354   5.436
  225POPC   C4A 3009   6.207  10.465   5.853
  225POPC   C1B 3010   6.839  10.066   4.767
  225POPC   C2B 3011   6.680  10.097   5.154
  225POPC   C3B 3012   6.730   9.919   5.541
  225POPC   C4B 3013   6.640  10.209   5.833
  226POPC   NC3 3014   6.517   8.649   3.897
  226POPC   PO4 3015   6.855   8.140   3.988
  226POPC   GL1 3016   6.648   8.390   4.349
  226POPC   GL2 3017   6.328   8.580   4.355
  226POPC   C1A 3018   6.580   8.493   4.800
  226POPC   D2A 3019   6.685   8.705   5.190
  226POPC   C3A 3020   6.422   8.536   5.516
  226POPC   C4A 3021   6.383   8.479   5.993
  226POPC   C1B 3022   6.146   8.799   4.706
  226POPC   C2B 3023   6.255   8.956   5.118
  226POPC   C3B 3024   6.066   9.024   5.501
  226POPC   C4B 3025   5.974   8.631   5.724
  227POPC   NC3 3026   7.138   1.854   3.872
  227POPC   PO4 3027   6.702   2.352   3.990
  227POPC   GL1 3028   6.949   2.148   4.312
  227POPC   GL2 3029   7.024   1.799   4.365
  227POPC   C1A 3030   6.868   2.044   4.758
  227POPC   D2A 3031   7.082   2.127   5.117
  227POPC   C3A 3032   6.886   2.092   5.524
  227POPC   C4A 3033   7.070   2.217   5.906
  227POPC   C1B 3034   7.353   1.963   4.664
  227POPC   C2B 3035   7.532   1.859   5.054
  227POPC   C3B 3036   7.438   2.008   5.452
  227POPC   C4B 3037   7.283   1.777   5.810
  228POPC   NC3 3038   9.401   1.298   3.901
  228POPC   PO4 3039  10.035   1.457   3.868
  228POPC   GL1 3040   9.773   1.447   4.227
  228POPC   GL2 3041   9.708   1.092   4.270
  228POPC   C1A 3042   9.814   1.401   4.703
  228POPC   D2A 3043   9.827   1.110   5.063
  228POPC   C3A 3044   9.710   1.177   5.474
  228POPC   C4A 3045   9.781   1.503   5.733
  228POPC   C1B 3046   9.371   1.197   4.537
  228POPC   C2B 3047   9.320   1.160   4.967
  228POPC   C3B 3048   9.222   1.125   5.393
  228POPC   C4B 3049   9.304   1.315   5.830
  229POPC   NC3 3050   9.300   5.179   4.036
  229POPC   PO4 3051   9.840   5.417   3.897
  229POPC   GL1 3052   9.750   5.127   4.305
  229POPC   GL2 3053   9.529   4.806   4.305
  229POPC   C1A 3054   9.706   4.959   4.756
  229POPC   D2A 3055   9.675   4.746   5.167
  229POPC   C3A 3056   9.697   5.067   5.460
  229POPC   C4A 3057   9.631   5.212   5.893
  229POPC   C1B 3058   9.205   5.001   4.620
  229POPC   C2B 3059   9.229   4.905   4.980
  229POPC   C3B 3060   9.207   4.951   5.356
  229POPC   C4B 3061   9.186   5.046   5.735
  230POPC   NC3 3062   7.104   0.505   3.811
  230POPC   PO4 3063   7.728   0.745   3.995
  230POPC   GL1 3064   7.440   0.537   4.278
  230POPC   GL2 3065   7.082   0.455   4.317
  230POPC   C1A 3066   7.325   0.555   4.721
  230POPC   D2A 3067   7.114   0.598   5.097
  230POPC   C3A 3068   7.380   0.755   5.437
  230POPC   C4A 3069   7.485   0.519   5.818
  230POPC   C1B 3070   7.023   0.136   4.680
  230POPC   C2B 3071   7.306   0.107   5.032
  230POPC   C3B 3072   7.338   0.229   5.420
  230POPC   C4B 3073   7.032   0.419   5.629
  231POPC   NC3 3074   1.957   4.432   3.949
  231POPC   PO4 3075   2.054   3.750   3.991
  231POPC   GL1 3076   2.046   4.038   4.324
  231POPC   GL2 3077   1.690   4.107   4.278
  231POPC   C1A 3078   2.076   4.343   4.685
  231POPC   D2A 3079   2.092   4.512   5.123
  231POPC   C3A 3080   2.156   4.164   5.436
  231POPC   C4A 3081   2.364   4.020   5.824
  231POPC   C1B 3082   1.691   3.992   4.722
  231POPC   C2B 3083   1.665   4.273   5.068
  231POPC   C3B 3084   1.690   4.349   5.519
  231POPC   C4B 3085   1.789   3.946   5.737
  232POPC   NC3 3086   2.486   7.173   3.878
  232POPC   PO4 3087   2.994   7.597   3.893
  232POPC   GL1 3088   2.748   7.444   4.275
  232POPC   GL2 3089   2.637   7.087   4.352
  232POPC   C1A 3090   2.728   7.377   4.741
  232POPC   D2A 3091   2.928   7.358   5.117
  232POPC   C3A 3092   2.648   7.320   5.422
  232POPC   C4A 3093   2.500   7.242   5.777
  232POPC   C1B 3094   2.565   6.842   4.729
  232POPC   C2B 3095   2.645   6.892   5.165
  232POPC   C3B 3096   2.585   6.766   5.609
  232POPC   C4B 3097   2.488   6.858   6.085
  233POPC   NC3 3098   3.977   1.358   3.987
  233POPC   PO4 3099   3.292   1.341   3.929
  233POPC   GL1 3100   3.534   1.219   4.237
  233POPC   GL2 3101   3.437   0.907   4.259
  233POPC   C1A 3102   3.623   1.329   4.634
  233POPC   D2A 3103   3.422   1.393   5.016
  233POPC   C3A 3104   3.649   1.469   5.388
  233POPC   C4A 3105   3.690   1.292   5.769
  233POPC   C1B 3106   3.256   0.961   4.654
  233POPC   C2B 3107   3.208   0.887   5.083
  233POPC   C3B 3108   3.227   1.143   5.434
  233POPC   C4B 3109   3.233   0.934   5.787
  234POPC   NC3 3110   2.034   8.798   3.721
  234POPC   PO4 3111   2.200   8.941   4.282
  234POPC   GL1 3112   1.926   8.771   4.572
  234POPC   GL2 3113   1.744   8.417   4.575
  234POPC   C1A 3114   1.906   8.974   4.934
  234POPC   D2A 3115   1.777   8.991   5.304
  234POPC   C3A 3116   2.102   9.023   5.579
  234POPC   C4A 3117   2.198   8.778   5.911
  234POPC   C1B 3118   1.987   8.457   4.948
  234POPC   C2B 3119   1.989   8.504   5.392
  234POPC   C3B 3120   1.858   8.392   5.812
  234POPC   C4B 3121   2.163   8.359   6.198
  235POPC   NC3 3122   6.846   2.769   4.154
  235POPC   PO4 3123   7.422   3.052   3.905
  235POPC   GL1 3124   7.349   2.861   4.282
  235POPC   GL2 3125   7.350   2.489   4.239
  235POPC   C1A 3126   7.280   2.957   4.696
  235POPC   D2A 3127   7.495   2.913   5.074
  235POPC   C3A 3128   7.332   3.000   5.499
  235POPC   C4A 3129   7.378   3.031   5.960
  235POPC   C1B 3130   7.161   2.455   4.663
  235POPC   C2B 3131   7.042   2.638   5.047
  235POPC   C3B 3132   7.148   2.519   5.462
  235POPC   C4B 3133   6.992   2.713   5.825
  236POPC   NC3 3134   7.182   3.597   3.795
  236POPC   PO4 3135   7.826   3.693   3.809
  236POPC   GL1 3136   7.437   3.542   4.199
  236POPC   GL2 3137   7.084   3.318   4.212
  236POPC   C1A 3138   7.371   3.469   4.644
  236POPC   D2A 3139   7.614   3.408   5.024
  236POPC   C3A 3140   7.513   3.478   5.441
  236POPC   C4A 3141   7.351   3.544   5.836
  236POPC   C1B 3142   6.872   3.265   4.630
  236POPC   C2B 3143   7.085   3.265   5.056
  236POPC   C3B 3144   7.009   3.418   5.474
  236POPC   C4B 3145   6.897   3.217   5.836
  237POPC   NC3 3146   2.451   3.572   3.824
  237POPC   PO4 3147   3.046   3.869   3.938
  237POPC   GL1 3148   2.763   3.600   4.293
  237POPC   GL2 3149   2.397   3.437   4.324
  237POPC   C1A 3150   2.505   3.810   4.663
  237POPC   D2A 3151   2.453   3.698   5.100
  237POPC   C3A 3152   2.681   3.871   5.446
  237POPC   C4A 3153   2.816   3.743   5.866
  237POPC   C1B 3154   2.579   3.313   4.741
  237POPC   C2B 3155   2.438   3.198   5.159
  237POPC   C3B 3156   2.631   3.360   5.536
  237POPC   C4B 3157   2.442   3.414   5.939
  238POPC   NC3 3158   9.631   0.462   3.826
  238POPC   PO4 3159   9.178   0.039   3.912
  238POPC   GL1 3160   9.470   0.225   4.249
  238POPC   GL2 3161   9.614   0.589   4.310
  238POPC   C1A 3162   9.398   0.315   4.680
  238POPC   D2A 3163   9.151   0.370   4.994
  238POPC   C3A 3164   9.286   0.263   5.367
  238POPC   C4A 3165   9.141   0.356   5.764
  238POPC   C1B 3166   9.618   0.793   4.727
  238POPC   C2B 3167   9.481   0.726   5.169
  238POPC   C3B 3168   9.458   0.742   5.618
  238POPC   C4B 3169   9.285   0.774   6.024
  239POPC   NC3 3170   8.502   8.518   4.007
  239POPC   PO4 3171   9.153   8.689   4.082
  239POPC   GL1 3172   8.985   8.658   4.466
  239POPC   GL2 3173   8.665   8.712   4.457
  239POPC   C1A 3174   8.933   8.625   4.896
  239POPC   D2A 3175   9.000   8.315   5.198
  239POPC   C3A 3176   8.978   8.627   5.516
  239POPC   C4A 3177   8.843   8.811   5.916
  239POPC   C1B 3178   8.401   8.613   4.793
  239POPC   C2B 3179   8.511   8.480   5.191
  239POPC   C3B 3180   8.471   8.629   5.547
  239POPC   C4B 3181   8.366   8.933   5.769
  240POPC   NC3 3182   1.942   0.211   4.037
  240POPC   PO4 3183   1.827   0.808   3.853
  240POPC   GL1 3184   2.136   0.658   4.235
  240POPC   GL2 3185   1.923   0.488   4.467
  240POPC   C1A 3186   2.301   0.739   4.683
  240POPC   D2A 3187   1.977   0.559   5.004
  240POPC   C3A 3188   2.037   0.606   5.463
  240POPC   C4A 3189   2.161   0.662   5.914
  240POPC   C1B 3190   1.853   0.123   4.716
  240POPC   C2B 3191   1.638   0.126   5.089
  240POPC   C3B 3192   1.875   0.111   5.424
  240POPC   C4B 3193   1.894   0.260   5.814
  241POPC   NC3 3194   4.294   3.649   3.914
  241POPC   PO4 3195   4.699   3.257   3.920
  241POPC   GL1 3196   4.477   3.314   4.315
  241POPC   GL2 3197   4.154   3.185   4.356
  241POPC   C1A 3198   4.426   3.305   4.794
  241POPC   D2A 3199   4.440   3.353   5.251
  241POPC   C3A 3200   4.387   3.766   5.461
  241POPC   C4A 3201   4.310   4.020   5.891
  241POPC   C1B 3202   3.978   3.054   4.720
  241POPC   C2B 3203   3.933   3.227   5.134
  241POPC   C3B 3204   4.046   3.369   5.562
  241POPC   C4B 3205   4.427   3.366   5.798
  242POPC   NC3 3206   0.366   8.756   3.981
  242POPC   PO4 3207   0.739   8.168   3.839
  242POPC   GL1 3208   0.769   8.367   4.291
  242POPC   GL2 3209   0.458   8.516   4.409
  242POPC   C1A 3210   0.845   8.744   4.617
  242POPC   D2A 3211   0.579   8.932   4.988
  242POPC   C3A 3212   0.654   8.858   5.470
  242POPC   C4A 3213   0.472   8.485   5.745
  242POPC   C1B 3214   0.130   8.729   4.621
  242POPC   C2B 3215   0.052   8.861   5.016
  242POPC   C3B 3216   0.187   8.704   5.366
  242POPC   C4B 3217   0.134   8.848   5.758
  243POPC   NC3 3218   1.247   2.603   4.018
  243POPC   PO4 3219   1.260   3.385   3.851
  243POPC   GL1 3220   1.309   3.244   4.239
  243POPC   GL2 3221   1.202   3.573   4.341
  243POPC   C1A 3222   1.201   3.073   4.645
  243POPC   D2A 3223   0.874   3.181   4.938
  243POPC   C3A 3224   0.913   3.115   5.362
  243POPC   C4A 3225   0.918   3.207   5.781
  243POPC   C1B 3226   1.352   3.576   4.728
  243POPC   C2B 3227   1.354   3.369   5.098
  243POPC   C3B 3228   1.216   3.487   5.485
  243POPC   C4B 3229   1.467   3.425   5.794
  244POPC   NC3 3230   6.045   2.837   4.090
  244POPC   PO4 3231   5.482   2.812   3.914
  244POPC   GL1 3232   5.547   2.840   4.340
  244POPC   GL2 3233   5.692   2.507   4.323
  244POPC   C1A 3234   5.490   3.009   4.796
  244POPC   D2A 3235   5.712   2.862   5.212
  244POPC   C3A 3236   5.717   3.056   5.620
  244POPC   C4A 3237   5.392   3.210   5.921
  244POPC   C1B 3238   5.769   2.594   4.762
  244POPC   C2B 3239   5.766   2.363   5.145
  244POPC   C3B 3240   5.771   2.483   5.603
  244POPC   C4B 3241   6.043   2.587   5.980
  245POPC   NC3 3242   0.225   4.495   3.965
  245POPC   PO4 3243   0.730   5.003   3.741
  245POPC   GL1 3244   0.723   4.993   4.201
  245POPC   GL2 3245   0.494   4.790   4.414
  245POPC   C1A 3246   0.714   5.180   4.633
  245POPC   D2A 3247   0.465   5.092   5.010
  245POPC   C3A 3248   0.620   4.977   5.428
  245POPC   C4A 3249   0.665   4.640   5.690
  245POPC   C1B 3250   0.122   4.869   4.708
  245POPC   C2B 3251   0.070   4.769   5.151
  245POPC   C3B 3252   0.146   4.817   5.587
  245POPC   C4B 3253   0.164   5.125   5.896
  246POPC   NC3 3254   4.351  10.139   3.949
  246POPC   PO4 3255   3.661  10.006   3.932
  246POPC   GL1 3256   3.960   9.988   4.231
  246POPC   GL2 3257   4.017  10.344   4.276
  246POPC   C1A 3258   3.934   9.922   4.640
  246POPC   D2A 3259   3.598   9.885   4.947
  246POPC   C3A 3260   3.762  10.066   5.322
  246POPC   C4A 3261   3.726   9.826   5.691
  246POPC   C1B 3262   4.219  10.356   4.670
  246POPC   C2B 3263   4.398  10.060   4.976
  246POPC   C3B 3264   4.296  10.051   5.407
  246POPC   C4B 3265   4.229  10.453   5.630
  247POPC   NC3 3266   6.223   9.586   3.993
  247POPC   PO4 3267   6.817   9.782   4.090
  247POPC   GL1 3268   6.568   9.771   4.457
  247POPC   GL2 3269   6.329   9.501   4.465
  247POPC   C1A 3270   6.470   9.686   4.906
  247POPC   D2A 3271   6.130   9.448   5.065
  247POPC   C3A 3272   6.169   9.534   5.466
  247POPC   C4A 3273   6.240   9.919   5.679
  247POPC   C1B 3274   6.472   9.213   4.733
  247POPC   C2B 3275   6.691   9.232   5.142
  247POPC   C3B 3276   6.661   9.359   5.602
  247POPC   C4B 3277   6.676   9.293   6.077
  248POPC   NC3 3278   0.859   7.015   4.115
  248POPC   PO4 3279   1.484   6.859   3.943
  248POPC   GL1 3280   1.308   7.078   4.335
  248POPC   GL2 3281   1.096   7.408   4.350
  248POPC   C1A 3282   1.159   7.017   4.751
  248POPC   D2A 3283   1.279   6.978   5.169
  248POPC   C3A 3284   0.917   6.937   5.390
  248POPC   C4A 3285   0.873   7.021   5.790
  248POPC   C1B 3286   1.259   7.528   4.762
  248POPC   C2B 3287   1.353   7.612   5.197
  248POPC   C3B 3288   1.211   7.352   5.536
  248POPC   C4B 3289   1.375   6.937   5.705
  249POPC   NC3 3290   4.145   7.135   3.881
  249POPC   PO4 3291   4.618   7.465   3.776
  249POPC   GL1 3292   4.472   7.411   4.226
  249POPC   GL2 3293   4.138   7.285   4.358
  249POPC   C1A 3294   4.493   7.345   4.709
  249POPC   D2A 3295   4.372   7.058   5.064
  249POPC   C3A 3296   4.297   7.268   5.435
  249POPC   C4A 3297   4.588   7.225   5.741
  249POPC   C1B 3298   3.971   7.088   4.736
  249POPC   C2B 3299   3.874   7.085   5.199
  249POPC   C3B 3300   4.079   6.823   5.532
  249POPC   C4B 3301   4.255   6.619   5.917
  250POPC   NC3 3302   4.784   8.290   4.021
  250POPC   PO4 3303   4.716   8.950   3.973
  250POPC   GL1 3304   4.901   8.714   4.310
  250POPC   GL2 3305   5.225   8.551   4.180
  250POPC   C1A 3306   4.917   8.769   4.763
  250POPC   D2A 3307   4.818   8.572   5.163
  250POPC   C3A 3308   4.801   8.790   5.585
  250POPC   C4A 3309   4.743   8.892   6.030
  250POPC   C1B 3310   5.357   8.540   4.603
  250POPC   C2B 3311   5.366   8.655   5.035
  250POPC   C3B 3312   5.230   8.520   5.456
  250POPC   C4B 3313   5.214   8.689   5.868
  251POPC   NC3 3314   7.703   5.288   4.353
  251POPC   PO4 3315   8.264   5.297   3.955
  251POPC   GL1 3316   8.226   5.176   4.354
  251POPC   GL2 3317   8.262   4.840   4.356
  251POPC   C1A 3318   8.194   5.341   4.773
  251POPC   D2A 3319   7.906   5.135   5.098
  251POPC   C3A 3320   7.815   5.210   5.526
  251POPC   C4A 3321   7.906   5.310   5.942
  251POPC   C1B 3322   8.105   4.846   4.743
  251POPC   C2B 3323   8.252   4.723   5.107
  251POPC   C3B 3324   7.999   4.664   5.436
  251POPC   C4B 3325   7.878   4.801   5.821
  252POPC   NC3 3326   7.646   8.996   3.806
  252POPC   PO4 3327   8.122   8.550   3.725
  252POPC   GL1 3328   7.884   8.686   4.147
  252POPC   GL2 3329   8.163   8.698   4.344
  252POPC   C1A 3330   7.782   8.857   4.631
  252POPC   D2A 3331   8.036   9.022   4.970
  252POPC   C3A 3332   7.977   8.880   5.406
  252POPC   C4A 3333   7.880   9.053   5.853
  252POPC   C1B 3334   7.992   8.383   4.601
  252POPC   C2B 3335   8.125   8.164   4.977
  252POPC   C3B 3336   8.080   8.320   5.394
  252POPC   C4B 3337   8.016   8.552   5.789
  253POPC   NC3 3338   8.829   1.200   4.022
  253POPC   PO4 3339   8.415   0.682   3.840
  253POPC   GL1 3340   8.404   1.022   4.232
  253POPC   GL2 3341   8.674   0.928   4.451
  253POPC   C1A 3342   8.407   1.384   4.597
  253POPC   D2A 3343   8.428   1.636   5.004
  253POPC   C3A 3344   8.414   1.410   5.427
  253POPC   C4A 3345   8.400   1.045   5.737
  253POPC   C1B 3346   8.891   1.272   4.692
  253POPC   C2B 3347   8.903   1.441   5.108
  253POPC   C3B 3348   8.897   1.453   5.556
  253POPC   C4B 3349   8.897   1.027   5.806
  254POPC   NC3 3350   1.345   5.629   3.832
  254POPC   PO4 3351   0.728   5.965   3.781
  254POPC   GL1 3352   1.002   5.994   4.131
  254POPC   GL2 3353   0.945   5.668   4.250
  254POPC   C1A 3354   1.067   6.023   4.597
  254POPC   D2A 3355   0.825   6.035   4.987
  254POPC   C3A 3356   0.973   6.012   5.398
  254POPC   C4A 3357   0.982   5.733   5.777
  254POPC   C1B 3358   1.106   5.506   4.657
  254POPC   C2B 3359   1.153   5.640   5.068
  254POPC   C3B 3360   1.365   5.720   5.440
  254POPC   C4B 3361   1.424   5.466   5.796
  255POPC   NC3 3362   7.227   9.547   3.995
  255POPC   PO4 3363   7.362   8.945   4.151
  255POPC   GL1 3364   7.210   9.233   4.400
  255POPC   GL2 3365   6.861   9.339   4.341
  255POPC   C1A 3366   7.284   9.155   4.788
  255POPC   D2A 3367   7.284   9.301   5.123
  255POPC   C3A 3368   7.097   9.069   5.428
  255POPC   C4A 3369   7.085   9.135   5.830
  255POPC   C1B 3370   6.917   9.509   4.734
  255POPC   C2B 3371   6.945   9.675   5.129
  255POPC   C3B 3372   7.133   9.599   5.506
  255POPC   C4B 3373   6.997   9.642   5.919
  256POPC   NC3 3374   0.409   3.704   4.134
  256POPC   PO4 3375   0.628   3.185   3.804
  256POPC   GL1 3376   0.422   3.194   4.195
  256POPC   GL2 3377   0.730   3.353   4.328
  256POPC   C1A 3378   0.283   3.262   4.609
  256POPC   D2A 3379   0.392   3.477   5.001
  256POPC   C3A 3380   0.204   3.340   5.393
  256POPC   C4A 3381   0.425   3.273   5.768
  256POPC   C1B 3382   0.804   3.641   4.681
  256POPC   C2B 3383   0.904   3.649   5.103
  256POPC   C3B 3384   0.695   3.584   5.455
  256POPC   C4B 3385   0.825   3.705   5.847
  257POPC   NC3 3386   7.294   0.038   4.113
  257POPC   PO4 3387   7.526   9.903   4.062
  257POPC   GL1 3388   7.236   9.804   4.421
  257POPC   GL2 3389   7.096  10.125   4.333
  257POPC   C1A 3390   7.367   9.732   4.847
  257POPC   D2A 3391   7.684   9.966   5.071
  257POPC   C3A 3392   7.601   9.851   5.491
  257POPC   C4A 3393   7.263  10.044   5.744
  257POPC   C1B 3394   7.336  10.212   4.725
  257POPC   C2B 3395   7.208  10.126   5.185
  257POPC   C3B 3396   6.968  10.388   5.478
  257POPC   C4B 3397   7.084  10.496   5.900
  258POPC   NC3 3398   0.132   3.694   3.661
  258POPC   PO4 3399   0.653   4.055   3.958
  258POPC   GL1 3400   0.434   4.185   4.342
  258POPC   GL2 3401   0.174   4.404   4.479
  258POPC   C1A 3402   0.361   3.976   4.721
  258POPC   D2A 3403   0.533   3.987   5.097
  258POPC   C3A 3404   0.268   3.859   5.366
  258POPC   C4A 3405   0.298   3.744   5.767
  258POPC   C1B 3406   0.482   4.502   4.833
  258POPC   C2B 3407   0.750   4.444   5.200
  258POPC   C3B 3408   0.722   4.140   5.554
  258POPC   C4B 3409   0.324   4.249   5.722
  259POPC   NC3 3410   9.192   7.450   3.691
  259POPC   PO4 3411   9.617   7.815   3.938
  259POPC   GL1 3412   9.370   7.519   4.164
  259POPC   GL2 3413   9.530   7.236   4.313
  259POPC   C1A 3414   9.136   7.503   4.536
  259POPC   D2A 3415   9.126   7.532   4.985
  259POPC   C3A 3416   9.417   7.373   5.272
  259POPC   C4A 3417   9.315   7.440   5.713
  259POPC   C1B 3418   9.335   7.040   4.716
  259POPC   C2B 3419   9.364   6.784   5.128
  259POPC   C3B 3420   9.307   6.926   5.554
  259POPC   C4B 3421   9.606   7.042   5.835
  260POPC   NC3 3422   2.812   2.469   3.868
  260POPC   PO4 3423   2.393   3.098   3.864
  260POPC   GL1 3424   2.445   2.900   4.270
  260POPC   GL2 3425   2.532   2.547   4.304
  260POPC   C1A 3426   2.485   2.817   4.722
  260POPC   D2A 3427   2.801   2.874   5.027
  260POPC   C3A 3428   2.645   2.830   5.461
  260POPC   C4A 3429   2.527   2.836   5.882
  260POPC   C1B 3430   2.919   2.560   4.585
  260POPC   C2B 3431   3.219   2.528   4.919
  260POPC   C3B 3432   3.104   2.589   5.339
  260POPC   C4B 3433   2.940   2.536   5.772
  261POPC   NC3 3434   8.913   4.340   3.920
  261POPC   PO4 3435   9.570   3.941   3.913
  261POPC   GL1 3436   9.513   4.172   4.284
  261POPC   GL2 3437   9.225   4.364   4.323
  261POPC   C1A 3438   9.405   3.999   4.690
  261POPC   D2A 3439   9.492   3.751   5.050
  261POPC   C3A 3440   9.369   3.966   5.400
  261POPC   C4A 3441   9.476   3.998   5.800
  261POPC   C1B 3442   9.379   4.508   4.711
  261POPC   C2B 3443   9.199   4.450   5.150
  261POPC   C3B 3444   9.333   4.494   5.574
  261POPC   C4B 3445   9.612   4.462   5.932
  262POPC   NC3 3446   5.068   2.989   3.927
  262POPC   PO4 3447   4.531   2.505   3.888
  262POPC   GL1 3448   4.773   2.578   4.285
  262POPC   GL2 3449   5.125   2.477   4.199
  262POPC   C1A 3450   4.901   2.858   4.658
  262POPC   D2A 3451   4.815   3.025   5.097
  262POPC   C3A 3452   4.761   2.947   5.563
  262POPC   C4A 3453   4.871   3.208   5.995
  262POPC   C1B 3454   5.271   2.514   4.624
  262POPC   C2B 3455   5.235   2.676   5.079
  262POPC   C3B 3456   5.274   2.766   5.543
  262POPC   C4B 3457   5.041   2.736   5.952
  263POPC   NC3 3458   0.276   6.112   3.911
  263POPC   PO4 3459   0.649   6.707   3.855
  263POPC   GL1 3460   0.622   6.383   4.169
  263POPC   GL2 3461   0.244   6.416   4.301
  263POPC   C1A 3462   0.586   6.205   4.578
  263POPC   D2A 3463   0.514   6.462   4.958
  263POPC   C3A 3464   0.539   6.265   5.351
  263POPC   C4A 3465   0.657   6.120   5.764
  263POPC   C1B 3466   0.086   6.297   4.706
  263POPC   C2B 3467  10.493   6.493   5.062
  263POPC   C3B 3468   0.212   6.644   5.377
  263POPC   C4B 3469   0.453   6.576   5.748
  264POPC   NC3 3470   0.622   1.477   3.816
  264POPC   PO4 3471   0.882   0.832   3.750
  264POPC   GL1 3472   0.647   1.057   4.121
  264POPC   GL2 3473   0.327   1.266   4.172
  264POPC   C1A 3474   0.636   1.186   4.588
  264POPC   D2A 3475   0.542   1.048   5.001
  264POPC   C3A 3476   0.654   1.146   5.394
  264POPC   C4A 3477   0.767   0.995   5.769
  264POPC   C1B 3478   0.127   1.123   4.572
  264POPC   C2B 3479   0.093   0.857   4.928
  264POPC   C3B 3480   0.035   0.856   5.384
  264POPC   C4B 3481   0.246   1.107   5.707
  265POPC   NC3 3482   6.489   7.891   3.822
  265POPC   PO4 3483   6.005   7.483   4.021
  265POPC   GL1 3484   6.255   7.701   4.285
  265POPC   GL2 3485   6.552   7.896   4.326
  265POPC   C1A 3486   6.303   7.652   4.720
  265POPC   D2A 3487   6.291   7.581   5.147
  265POPC   C3A 3488   6.433   7.835   5.469
  265POPC   C4A 3489   6.407   7.673   5.864
  265POPC   C1B 3490   6.250   8.131   4.581
  265POPC   C2B 3491   6.322   8.114   5.030
  265POPC   C3B 3492   6.724   8.189   5.251
  265POPC   C4B 3493   6.753   8.195   5.711
  266POPC   NC3 3494   8.073   1.009   3.838
  266POPC   PO4 3495   7.706   1.478   3.675
  266POPC   GL1 3496   7.807   1.284   4.163
  266POPC   GL2 3497   7.543   1.064   4.360
  266POPC   C1A 3498   8.001   1.087   4.541
  266POPC   D2A 3499   8.109   0.918   4.936
  266POPC   C3A 3500   7.829   0.951   5.279
  266POPC   C4A 3501   7.963   1.213   5.609
  266POPC   C1B 3502   7.551   1.016   4.828
  266POPC   C2B 3503   7.481   1.346   5.144
  266POPC   C3B 3504   7.554   1.465   5.535
  266POPC   C4B 3505   7.537   1.082   5.829
  267POPC   NC3 3506   0.602   5.441   3.880
  267POPC   PO4 3507   0.206   4.942   4.053
  267POPC   GL1 3508   0.335   5.310   4.295
  267POPC   GL2 3509   0.393   5.715   4.265
  267POPC   C1A 3510   0.203   5.416   4.686
  267POPC   D2A 3511   0.012   5.306   5.044
  267POPC   C3A 3512   0.244   5.308   5.425
  267POPC   C4A 3513   0.561   5.422   5.762
  267POPC   C1B 3514   0.625   5.694   4.653
  267POPC   C2B 3515   0.534   5.609   5.100
  267POPC   C3B 3516   0.352   5.812   5.482
  267POPC   C4B 3517   0.178   6.046   5.858
  268POPC   NC3 3518   9.106   6.120   4.189
  268POPC   PO4 3519   8.482   6.228   3.896
  268POPC   GL1 3520   8.638   6.450   4.241
  268POPC   GL2 3521   8.926   6.595   4.183
  268POPC   C1A 3522   8.533   6.374   4.669
  268POPC   D2A 3523   8.392   6.275   5.059
  268POPC   C3A 3524   8.614   6.297   5.409
  268POPC   C4A 3525   8.494   6.477   5.812
  268POPC   C1B 3526   8.962   6.664   4.661
  268POPC   C2B 3527   8.883   6.565   5.079
  268POPC   C3B 3528   8.842   6.737   5.509
  268POPC   C4B 3529   8.981   6.664   5.928
  269POPC   NC3 3530   5.597   9.824   3.935
  269POPC   PO4 3531   5.891   9.214   3.961
  269POPC   GL1 3532   5.828   9.561   4.309
  269POPC   GL2 3533   5.512   9.737   4.417
  269POPC   C1A 3534   5.950   9.781   4.689
  269POPC   D2A 3535   5.690   9.745   5.047
  269POPC   C3A 3536   5.752   9.893   5.462
  269POPC   C4A 3537   5.831   9.656   5.823
  269POPC   C1B 3538   5.386   9.448   4.700
  269POPC   C2B 3539   5.372   9.340   5.115
  269POPC   C3B 3540   5.620   9.371   5.465
  269POPC   C4B 3541   5.387   9.457   5.857
  270POPC   NC3 3542   4.363   2.944   3.939
  270POPC   PO4 3543   3.938   2.430   4.014
  270POPC   GL1 3544   4.236   2.391   4.279
  270POPC   GL2 3545   4.263   2.694   4.372
  270POPC   C1A 3546   4.264   2.268   4.672
  270POPC   D2A 3547   4.359   2.328   5.079
  270POPC   C3A 3548   4.017   2.255   5.286
  270POPC   C4A 3549   3.924   2.355   5.662
  270POPC   C1B 3550   4.413   2.760   4.779
  270POPC   C2B 3551   4.328   2.848   5.205
  270POPC   C3B 3552   4.171   2.819   5.623
  270POPC   C4B 3553   4.093   3.052   6.007
  271POPC   NC3 3554   3.459   2.183   4.027
  271POPC   PO4 3555   3.920   1.731   3.719
  271POPC   GL1 3556   3.649   1.717   4.198
  271POPC   GL2 3557   3.273   1.709   4.281
  271POPC   C1A 3558   3.510   1.813   4.697
  271POPC   D2A 3559   3.654   1.952   5.112
  271POPC   C3A 3560   3.489   1.923   5.519
  271POPC   C4A 3561   3.240   1.584   5.736
  271POPC   C1B 3562   3.052   2.003   4.648
  271POPC   C2B 3563   3.118   2.019   5.098
  271POPC   C3B 3564   3.031   2.108   5.528
  271POPC   C4B 3565   3.217   2.059   5.958
  272POPC   NC3 3566   7.821   3.283   4.035
  272POPC   PO4 3567   8.207   3.948   4.045
  272POPC   GL1 3568   8.154   3.574   4.291
  272POPC   GL2 3569   7.861   3.558   4.464
  272POPC   C1A 3570   8.256   3.292   4.614
  272POPC   D2A 3571   8.100   3.512   4.952
  272POPC   C3A 3572   8.084   3.584   5.377
  272POPC   C4A 3573   8.040   3.809   5.753
  272POPC   C1B 3574   7.780   3.117   4.638
  272POPC   C2B 3575   8.003   2.973   4.979
  272POPC   C3B 3576   7.867   3.115   5.379
  272POPC   C4B 3577   7.864   3.326   5.784
  273POPC   NC3 3578   2.280   0.931   3.833
  273POPC   PO4 3579   2.344   1.643   3.880
  273POPC   GL1 3580   2.107   1.453   4.227
  273POPC   GL2 3581   1.998   1.139   4.241
  273POPC   C1A 3582   2.070   1.465   4.673
  273POPC   D2A 3583   2.359   1.385   5.020
  273POPC   C3A 3584   2.189   1.423   5.397
  273POPC   C4A 3585   2.332   1.447   5.789
  273POPC   C1B 3586   1.860   0.992   4.666
  273POPC   C2B 3587   1.934   1.060   5.105
  273POPC   C3B 3588   1.844   1.050   5.542
  273POPC   C4B 3589   1.748   1.388   5.695
  274POPC   NC3 3590   7.122   7.753   3.998
  274POPC   PO4 3591   7.583   8.249   3.999
  274POPC   GL1 3592   7.300   8.107   4.317
  274POPC   GL2 3593   7.385   7.760   4.441
  274POPC   C1A 3594   7.036   8.140   4.679
  274POPC   D2A 3595   7.241   8.232   5.058
  274POPC   C3A 3596   7.196   8.017   5.399
  274POPC   C4A 3597   7.287   8.159   5.752
  274POPC   C1B 3598   7.246   7.723   4.920
  274POPC   C2B 3599   6.906   7.636   5.262
  274POPC   C3B 3600   6.894   7.710   5.721
  274POPC   C4B 3601   6.774   7.572   6.185
  275POPC   NC3 3602   4.199   2.114   3.791
  275POPC   PO4 3603   4.551   1.644   4.092
  275POPC   GL1 3604   4.421   1.796   4.441
  275POPC   GL2 3605   4.119   1.898   4.274
  275POPC   C1A 3606   4.507   1.869   4.873
  275POPC   D2A 3607   4.510   1.866   5.316
  275POPC   C3A 3608   4.422   2.208   5.587
  275POPC   C4A 3609   4.229   2.084   5.957
  275POPC   C1B 3610   4.006   1.819   4.721
  275POPC   C2B 3611   4.072   1.656   5.136
  275POPC   C3B 3612   4.001   1.830   5.557
  275POPC   C4B 3613   3.754   1.779   5.927
  276POPC   NC3 3614   2.458   9.302   4.205
  276POPC   PO4 3615   1.939   9.375   3.755
  276POPC   GL1 3616   1.921   9.342   4.251
  276POPC   GL2 3617   1.681   9.091   4.266
  276POPC   C1A 3618   2.105   9.406   4.724
  276POPC   D2A 3619   2.372   9.338   5.087
  276POPC   C3A 3620   2.148   9.539   5.412
  276POPC   C4A 3621   2.021   9.479   5.799
  276POPC   C1B 3622   1.613   9.278   4.649
  276POPC   C2B 3623   1.708   9.517   5.020
  276POPC   C3B 3624   1.629   9.472   5.426
  276POPC   C4B 3625   1.621   9.185   5.740
  277POPC   NC3 3626   4.988   1.474   4.164
  277POPC   PO4 3627   4.943   0.949   3.735
  277POPC   GL1 3628   4.743   0.920   4.188
  277POPC   GL2 3629   4.542   1.194   4.330
  277POPC   C1A 3630   4.821   0.935   4.660
  277POPC   D2A 3631   4.644   0.858   5.043
  277POPC   C3A 3632   4.784   0.894   5.459
  277POPC   C4A 3633   4.487   1.023   5.783
  277POPC   C1B 3634   4.733   1.424   4.743
  277POPC   C2B 3635   4.940   1.285   5.128
  277POPC   C3B 3636   4.840   1.381   5.563
  277POPC   C4B 3637   5.077   1.526   5.893
  278POPC   NC3 3638   0.808   0.541   4.111
  278POPC   PO4 3639   0.196   0.800   3.987
  278POPC   GL1 3640   0.357   0.682   4.382
  278POPC   GL2 3641   0.181   0.376   4.340
  278POPC   C1A 3642   0.530   0.401   4.723
  278POPC   D2A 3643   0.765   0.415   5.108
  278POPC   C3A 3644   0.544   0.653   5.381
  278POPC   C4A 3645   0.459   0.577   5.782
  278POPC   C1B 3646  10.458   0.413   4.734
  278POPC   C2B 3647   0.171   0.384   5.124
  278POPC   C3B 3648   0.212   0.201   5.530
  278POPC   C4B 3649   0.126   0.260   5.981
  279POPC   NC3 3650   0.469   2.272   3.916
  279POPC   PO4 3651   0.695   1.705   4.201
  279POPC   GL1 3652   0.351   1.775   4.405
  279POPC   GL2 3653   0.488   2.144   4.409
  279POPC   C1A 3654   0.295   1.541   4.813
  279POPC   D2A 3655   0.229   1.382   5.247
  279POPC   C3A 3656   0.477   1.560   5.607
  279POPC   C4A 3657   0.203   1.672   5.935
  279POPC   C1B 3658   0.518   2.019   4.814
  279POPC   C2B 3659   0.420   1.871   5.177
  279POPC   C3B 3660   0.227   1.985   5.494
  279POPC   C4B 3661   0.469   2.058   5.808
  280POPC   NC3 3662   9.886   4.317   3.924
  280POPC   PO4 3663   0.027   3.959   4.015
  280POPC   GL1 3664  10.273   4.157   4.271
  280POPC   GL2 3665   9.998   3.979   4.332
  280POPC   C1A 3666  10.333   4.118   4.721
  280POPC   D2A 3667   0.085   4.249   5.066
  280POPC   C3A 3668  10.379   4.193   5.450
  280POPC   C4A 3669  10.377   4.457   5.814
  280POPC   C1B 3670   9.845   4.235   4.664
  280POPC   C2B 3671   9.643   4.251   5.058
  280POPC   C3B 3672   9.780   4.290   5.451
  280POPC   C4B 3673   9.987   4.141   5.769
  281POPC   NC3 3674   2.579   6.463   3.905
  281POPC   PO4 3675   2.919   6.893   3.980
  281POPC   GL1 3676   2.808   6.594   4.348
  281POPC   GL2 3677   2.649   6.233   4.363
  281POPC   C1A 3678   2.934   6.497   4.780
  281POPC   D2A 3679   2.815   6.418   5.196
  281POPC   C3A 3680   3.051   6.475   5.577
  281POPC   C4A 3681   2.951   6.672   5.966
  281POPC   C1B 3682   2.419   6.308   4.783
  281POPC   C2B 3683   2.332   6.271   5.237
  281POPC   C3B 3684   2.578   6.236   5.605
  281POPC   C4B 3685   2.613   5.891   5.898
  282POPC   NC3 3686   2.480  10.295   3.971
  282POPC   PO4 3687   2.263   9.729   4.177
  282POPC   GL1 3688   2.639   9.921   4.368
  282POPC   GL2 3689   2.802  10.265   4.356
  282POPC   C1A 3690   2.569  10.061   4.787
  282POPC   D2A 3691   2.409   9.887   5.137
  282POPC   C3A 3692   2.607  10.078   5.516
  282POPC   C4A 3693   2.503  10.199   5.939
  282POPC   C1B 3694   2.796  10.498   4.751
  282POPC   C2B 3695   2.715  10.440   5.163
  282POPC   C3B 3696   2.969  10.461   5.526
  282POPC   C4B 3697   2.973  10.405   5.976
  283POPC   NC3 3698   5.361   0.679   3.990
  283POPC   PO4 3699   6.017   0.887   3.931
  283POPC   GL1 3700   5.867   0.527   4.290
  283POPC   GL2 3701   5.612   0.222   4.322
  283POPC   C1A 3702   5.734   0.431   4.760
  283POPC   D2A 3703   5.613   0.674   5.125
  283POPC   C3A 3704   5.832   0.723   5.493
  283POPC   C4A 3705   5.855   0.474   5.905
  283POPC   C1B 3706   5.309   0.135   4.684
  283POPC   C2B 3707   5.429   0.170   5.101
  283POPC   C3B 3708   5.543   0.305   5.501
  283POPC   C4B 3709   5.404   0.238   5.905
  284POPC   NC3 3710   4.516   1.164   3.765
  284POPC   PO4 3711   3.890   0.897   4.016
  284POPC   GL1 3712   4.013   1.025   4.383
  284POPC   GL2 3713   4.088   1.388   4.464
  284POPC   C1A 3714   3.833   0.881   4.725
  284POPC   D2A 3715   3.853   1.126   5.085
  284POPC   C3A 3716   4.073   1.043   5.451
  284POPC   C4A 3717   3.963   0.875   5.839
  284POPC   C1B 3718   4.283   1.192   4.806
  284POPC   C2B 3719   4.445   1.309   5.199
  284POPC   C3B 3720   4.334   1.462   5.585
  284POPC   C4B 3721   4.227   1.582   5.987
  285POPC   NC3 3722   3.250   5.223   4.050
  285POPC   PO4 3723   2.688   5.365   3.838
  285POPC   GL1 3724   2.436   5.342   4.249
  285POPC   GL2 3725   2.350   5.701   4.353
  285POPC   C1A 3726   2.401   5.292   4.702
  285POPC   D2A 3727   2.501   5.456   5.085
  285POPC   C3A 3728   2.755   5.426   5.415
  285POPC   C4A 3729   2.733   5.402   5.830
  285POPC   C1B 3730   2.608   5.803   4.698
  285POPC   C2B 3731   2.697   5.927   5.135
  285POPC   C3B 3732   2.955   5.911   5.507
  285POPC   C4B 3733   3.205   5.614   5.743
  286POPC   NC3 3734   4.802   9.387   3.899
  286POPC   PO4 3735   5.131   9.853   4.079
  286POPC   GL1 3736   4.837   9.630   4.351
  286POPC   GL2 3737   4.894   9.254   4.382
  286POPC   C1A 3738   4.508   9.634   4.686
  286POPC   D2A 3739   4.557   9.574   5.146
  286POPC   C3A 3740   4.636   9.693   5.589
  286POPC   C4A 3741   4.613   9.695   6.059
  286POPC   C1B 3742   4.896   9.317   4.818
  286POPC   C2B 3743   4.942   9.076   5.180
  286POPC   C3B 3744   5.170   9.119   5.553
  286POPC   C4B 3745   4.904   9.333   5.840
  287POPC   NC3 3746   7.855   5.182   3.790
  287POPC   PO4 3747   7.667   5.700   4.135
  287POPC   GL1 3748   7.920   5.754   4.472
  287POPC   GL2 3749   8.242   5.683   4.395
  287POPC   C1A 3750   7.825   5.648   4.887
  287POPC   D2A 3751   8.026   5.601   5.276
  287POPC   C3A 3752   7.707   5.710   5.619
  287POPC   C4A 3753   7.462   5.547   5.991
  287POPC   C1B 3754   8.332   5.833   4.821
  287POPC   C2B 3755   8.542   5.734   5.215
  287POPC   C3B 3756   8.401   5.552   5.605
  287POPC   C4B 3757   8.133   5.754   5.875
  288POPC   NC3 3758   9.739   9.090   3.729
  288POPC   PO4 3759  10.473   9.079   3.872
  288POPC   GL1 3760  10.272   9.163   4.267
  288POPC   GL2 3761  10.076   9.492   4.264
  288POPC   C1A 3762  10.202   9.040   4.684
  288POPC   D2A 3763  10.172   9.207   5.080
  288POPC   C3A 3764  10.249   8.985   5.449
  288POPC   C4A 3765  10.189   9.102   5.882
  288POPC   C1B 3766  10.317   9.554   4.658
  288POPC   C2B 3767  10.305   9.711   5.093
  288POPC   C3B 3768  10.254   9.513   5.494
  288POPC   C4B 3769   9.966   9.581   5.815
  289POPC   NC3 3770   9.291   9.111   4.168
  289POPC   PO4 3771   9.391   9.605   3.760
  289POPC   GL1 3772   9.573   9.548   4.249
  289POPC   GL2 3773   9.485   9.757   4.531
  289POPC   C1A 3774   9.822   9.425   4.720
  289POPC   D2A 3775   9.798   9.517   5.210
  289POPC   C3A 3776   9.791   9.182   5.565
  289POPC   C4A 3777   9.721   9.193   6.074
  289POPC   C1B 3778   9.335   9.438   4.840
  289POPC   C2B 3779   9.067   9.177   5.084
  289POPC   C3B 3780   9.137   9.349   5.481
  289POPC   C4B 3781   9.426   9.463   5.753
  290POPC   NC3 3782   8.840   9.533   3.916
  290POPC   PO4 3783   8.489   8.989   4.070
  290POPC   GL1 3784   8.796   9.209   4.325
  290POPC   GL2 3785   8.531   9.439   4.334
  290POPC   C1A 3786   8.839   9.497   4.728
  290POPC   D2A 3787   8.780   9.603   5.165
  290POPC   C3A 3788   8.965   9.819   5.480
  290POPC   C4A 3789   9.020   9.722   5.912
  290POPC   C1B 3790   8.472   9.124   4.701
  290POPC   C2B 3791   8.546   8.984   5.113
  290POPC   C3B 3792   8.729   9.069   5.457
  290POPC   C4B 3793   8.693   9.356   5.762
  291POPC   NC3 3794   2.478   4.939   3.853
  291POPC   PO4 3795   3.139   4.782   4.011
  291POPC   GL1 3796   2.830   5.009   4.221
  291POPC   GL2 3797   2.579   4.846   4.380
  291POPC   C1A 3798   2.885   5.211   4.619
  291POPC   D2A 3799   2.821   5.053   5.040
  291POPC   C3A 3800   3.098   5.031   5.409
  291POPC   C4A 3801   3.095   5.019   5.863
  291POPC   C1B 3802   2.380   4.785   4.777
  291POPC   C2B 3803   2.367   4.930   5.189
  291POPC   C3B 3804   2.626   4.923   5.581
  291POPC   C4B 3805   2.499   4.999   6.004
  292POPC   NC3 3806  10.235   8.642   3.842
  292POPC   PO4 3807   9.615   8.651   3.666
  292POPC   GL1 3808   9.882   8.586   4.188
  292POPC   GL2 3809  10.211   8.647   4.331
  292POPC   C1A 3810   9.887   8.603   4.705
  292POPC   D2A 3811  10.065   8.690   5.061
  292POPC   C3A 3812   9.840   8.682   5.437
  292POPC   C4A 3813   9.744   8.738   5.847
  292POPC   C1B 3814  10.329   8.302   4.593
  292POPC   C2B 3815  10.472   8.352   5.005
  292POPC   C3B 3816  10.285   8.419   5.414
  292POPC   C4B 3817  10.216   8.585   5.776
  293POPC   NC3 3818   8.196   9.307   3.937
  293POPC   PO4 3819   7.677   9.445   3.707
  293POPC   GL1 3820   7.720   9.347   4.189
  293POPC   GL2 3821   8.045   9.195   4.382
  293POPC   C1A 3822   7.684   9.396   4.651
  293POPC   D2A 3823   7.813   9.480   5.095
  293POPC   C3A 3824   7.649   9.285   5.461
  293POPC   C4A 3825   7.486   9.433   5.832
  293POPC   C1B 3826   8.167   9.530   4.669
  293POPC   C2B 3827   8.321   9.452   5.072
  293POPC   C3B 3828   8.234   9.337   5.479
  293POPC   C4B 3829   7.978   9.559   5.750
  294POPC   NC3 3830   1.002   8.545   3.872
  294POPC   PO4 3831   1.487   8.192   3.979
  294POPC   GL1 3832   1.296   8.431   4.292
  294POPC   GL2 3833   1.261   8.800   4.218
  294POPC   C1A 3834   1.171   8.369   4.717
  294POPC   D2A 3835   1.007   8.558   5.093
  294POPC   C3A 3836   0.895   8.336   5.470
  294POPC   C4A 3837   0.950   8.602   5.818
  294POPC   C1B 3838   1.406   8.816   4.632
  294POPC   C2B 3839   1.518   8.640   5.007
  294POPC   C3B 3840   1.462   8.581   5.429
  294POPC   C4B 3841   1.435   8.737   5.826
  295POPC   NC3 3842   1.485   0.994   4.136
  295POPC   PO4 3843   1.104   1.459   3.737
  295POPC   GL1 3844   1.106   1.378   4.217
  295POPC   GL2 3845   1.077   1.044   4.404
  295POPC   C1A 3846   1.075   1.482   4.689
  295POPC   D2A 3847   0.796   1.534   5.060
  295POPC   C3A 3848   1.035   1.459   5.457
  295POPC   C4A 3849   0.991   1.463   5.903
  295POPC   C1B 3850   1.359   1.066   4.798
  295POPC   C2B 3851   1.449   1.248   5.223
  295POPC   C3B 3852   1.328   1.078   5.611
  295POPC   C4B 3853   1.218   0.847   5.925
  296POPC   NC3 3854   8.008   1.712   3.932
  296POPC   PO4 3855   7.427   1.616   4.121
  296POPC   GL1 3856   7.728   1.771   4.357
  296POPC   GL2 3857   7.761   2.122   4.238
  296POPC   C1A 3858   7.949   1.614   4.713
  296POPC   D2A 3859   7.981   1.424   5.124
  296POPC   C3A 3860   7.997   1.696   5.493
  296POPC   C4A 3861   7.779   1.900   5.798
  296POPC   C1B 3862   7.838   2.131   4.696
  296POPC   C2B 3863   8.021   1.974   5.075
  296POPC   C3B 3864   7.975   2.193   5.443
  296POPC   C4B 3865   8.052   2.368   5.822
  297POPC   NC3 3866   2.507   1.976   3.612
  297POPC   PO4 3867   3.016   2.041   4.017
  297POPC   GL1 3868   2.666   2.046   4.277
  297POPC   GL2 3869   2.491   1.749   4.352
  297POPC   C1A 3870   2.564   2.213   4.692
  297POPC   D2A 3871   2.727   2.375   5.066
  297POPC   C3A 3872   2.576   2.319   5.481
  297POPC   C4A 3873   2.529   2.313   5.943
  297POPC   C1B 3874   2.630   1.713   4.732
  297POPC   C2B 3875   2.607   1.869   5.132
  297POPC   C3B 3876   2.757   1.693   5.491
  297POPC   C4B 3877   2.742   1.837   5.864
  298POPC   NC3 3878  10.403   0.133   3.992
  298POPC   PO4 3879  10.229   9.936   3.886
  298POPC   GL1 3880  10.291  10.122   4.260
  298POPC   GL2 3881   9.937  10.198   4.254
  298POPC   C1A 3882  10.432  10.056   4.708
  298POPC   D2A 3883   0.102  10.161   5.116
  298POPC   C3A 3884  10.366  10.268   5.477
  298POPC   C4A 3885  10.360   9.935   5.776
  298POPC   C1B 3886   9.944   9.941   4.620
  298POPC   C2B 3887   9.930  10.072   5.043
  298POPC   C3B 3888   9.939   9.961   5.472
  298POPC   C4B 3889   9.925  10.260   5.813
  299POPC   NC3 3890   0.985   9.523   3.814
  299POPC   PO4 3891   0.800   8.936   3.964
  299POPC   GL1 3892   0.932   9.201   4.287
  299POPC   GL2 3893   1.232   9.398   4.284
  299POPC   C1A 3894   1.074   9.194   4.716
  299POPC   D2A 3895   1.340   9.146   5.062
  299POPC   C3A 3896   1.130   9.303   5.398
  299POPC   C4A 3897   1.049   9.088   5.767
  299POPC   C1B 3898   1.312   9.674   4.655
  299POPC   C2B 3899   1.315   9.853   5.079
  299POPC   C3B 3900   1.249   9.804   5.486
  299POPC   C4B 3901   1.277   9.536   5.825
  300POPC   NC3 3902   8.029   0.406   3.863
  300POPC   PO4 3903   8.536  10.456   3.921
  300POPC   GL1 3904   8.432   0.307   4.241
  300POPC   GL2 3905   8.165   0.579   4.315
  300POPC   C1A 3906   8.259   0.211   4.660
  300POPC   D2A 3907   8.167   0.415   5.039
  300POPC   C3A 3908   8.281   0.210   5.414
  300POPC   C4A 3909   8.085   0.100   5.777
  300POPC   C1B 3910   7.838   0.581   4.643
  300POPC   C2B 3911   7.668   0.473   5.066
  300POPC   C3B 3912   7.814   0.403   5.449
  300POPC   C4B 3913   7.932   0.716   5.729
  301POPC   NC3 3914   4.073   8.777   3.831
  301POPC   PO4 3915   4.398   8.233   3.757
  301POPC   GL1 3916   4.346   8.477   4.175
  301POPC   GL2 3917   4.053   8.628   4.303
  301POPC   C1A 3918   4.464   8.566   4.616
  301POPC   D2A 3919   4.345   8.714   5.029
  301POPC   C3A 3920   4.399   8.528   5.436
  301POPC   C4A 3921   4.320   8.786   5.743
  301POPC   C1B 3922   3.969   8.813   4.679
  301POPC   C2B 3923   3.793   8.592   5.019
  301POPC   C3B 3924   3.915   8.682   5.436
  301POPC   C4B 3925   3.902   8.477   5.847
  302POPC   NC3 3926   9.947   3.639   3.980
  302POPC   PO4 3927   0.018   3.289   3.861
  302POPC   GL1 3928  10.394   3.514   4.267
  302POPC   GL2 3929  10.053   3.415   4.418
  302POPC   C1A 3930  10.427   3.609   4.741
  302POPC   D2A 3931  10.233   3.493   5.156
  302POPC   C3A 3932  10.336   3.671   5.558
  302POPC   C4A 3933  10.444   3.384   5.925
  302POPC   C1B 3934   9.913   3.710   4.748
  302POPC   C2B 3935  10.014   3.937   5.131
  302POPC   C3B 3936   9.825   3.728   5.482
  302POPC   C4B 3937   9.973   3.313   5.610
  303POPC   NC3 3938   0.951   6.367   3.736
  303POPC   PO4 3939   1.491   6.104   3.881
  303POPC   GL1 3940   1.451   6.221   4.286
  303POPC   GL2 3941   1.186   6.490   4.246
  303POPC   C1A 3942   1.464   6.353   4.696
  303POPC   D2A 3943   1.338   6.124   5.038
  303POPC   C3A 3944   1.403   6.296   5.409
  303POPC   C4A 3945   1.351   6.096   5.777
  303POPC   C1B 3946   0.975   6.529   4.680
  303POPC   C2B 3947   0.994   6.495   5.156
  303POPC   C3B 3948   0.970   6.498   5.643
  303POPC   C4B 3949   0.814   6.624   6.094
  304POPC   NC3 3950  10.021   5.868   3.963
  304POPC   PO4 3951   0.144   5.599   3.837
  304POPC   GL1 3952  10.387   5.532   4.278
  304POPC   GL2 3953  10.067   5.526   4.328
  304POPC   C1A 3954  10.284   5.716   4.729
  304POPC   D2A 3955   0.061   5.852   5.031
  304POPC   C3A 3956  10.371   5.651   5.363
  304POPC   C4A 3957  10.472   5.593   5.754
  304POPC   C1B 3958   9.804   5.478   4.699
  304POPC   C2B 3959   9.939   5.454   5.106
  304POPC   C3B 3960   9.848   5.546   5.500
  304POPC   C4B 3961  10.025   5.844   5.659
  305POPC   NC3 3962   8.394   4.787   3.873
  305POPC   PO4 3963   9.101   4.754   4.015
  305POPC   GL1 3964   8.805   4.700   4.327
  305POPC   GL2 3965   8.737   5.062   4.320
  305POPC   C1A 3966   8.880   4.606   4.765
  305POPC   D2A 3967   8.752   4.802   5.170
  305POPC   C3A 3968   8.759   4.835   5.605
  305POPC   C4A 3969   8.920   4.531   5.861
  305POPC   C1B 3970   8.573   5.007   4.743
  305POPC   C2B 3971   8.422   5.195   5.184
  305POPC   C3B 3972   8.301   5.051   5.597
  305POPC   C4B 3973   8.382   5.190   6.022
  306POPC   NC3 3974   1.030   2.959   3.719
  306POPC   PO4 3975   0.892   2.330   4.118
  306POPC   GL1 3976   0.960   2.460   4.446
  306POPC   GL2 3977   1.281   2.351   4.487
  306POPC   C1A 3978   0.765   2.466   4.787
  306POPC   D2A 3979   0.853   2.687   5.112
  306POPC   C3A 3980   1.096   2.564   5.451
  306POPC   C4A 3981   0.792   2.389   5.625
  306POPC   C1B 3982   1.276   2.413   4.943
  306POPC   C2B 3983   1.330   2.843   5.099
  306POPC   C3B 3984   1.392   3.008   5.482
  306POPC   C4B 3985   1.306   2.934   5.908
  307POPC   NC3 3986   7.991   8.061   3.882
  307POPC   PO4 3987   7.563   7.477   3.971
  307POPC   GL1 3988   7.956   7.675   4.203
  307POPC   GL2 3989   7.847   7.973   4.358
  307POPC   C1A 3990   8.167   7.726   4.665
  307POPC   D2A 3991   8.058   7.610   5.101
  307POPC   C3A 3992   8.128   7.820   5.470
  307POPC   C4A 3993   8.272   7.823   5.890
  307POPC   C1B 3994   7.675   8.003   4.767
  307POPC   C2B 3995   7.672   7.961   5.187
  307POPC   C3B 3996   7.639   7.821   5.577
  307POPC   C4B 3997   7.812   8.102   5.763
  308POPC   NC3 3998   4.321   7.816   3.911
  308POPC   PO4 3999   3.832   8.383   3.887
  308POPC   GL1 4000   3.941   8.132   4.248
  308POPC   GL2 4001   4.043   7.783   4.315
  308POPC   C1A 4002   4.031   8.271   4.670
  308POPC   D2A 4003   4.204   8.238   5.068
  308POPC   C3A 4004   4.062   8.158   5.484
  308POPC   C4A 4005   4.170   8.055   5.957
  308POPC   C1B 4006   4.221   7.792   4.757
  308POPC   C2B 4007   4.240   7.742   5.184
  308POPC   C3B 4008   4.342   7.742   5.595
  308POPC   C4B 4009   3.967   7.532   5.766
  309POPC   NC3 4010   0.802  10.204   3.899
  309POPC   PO4 4011   1.283   9.812   3.994
  309POPC   GL1 4012   1.028   9.971   4.305
  309POPC   GL2 4013   1.047  10.360   4.351
  309POPC   C1A 4014   0.976  10.036   4.737
  309POPC   D2A 4015   0.844  10.119   5.127
  309POPC   C3A 4016   0.751   9.831   5.424
  309POPC   C4A 4017   0.877   9.828   5.831
  309POPC   C1B 4018   0.925   0.036   4.787
  309POPC   C2B 4019   1.119   0.045   5.214
  309POPC   C3B 4020   1.048  10.269   5.589
  309POPC   C4B 4021   1.311  10.108   5.926
  310POPC   NC3 4022   3.397   8.802   3.898
  310POPC   PO4 4023   3.175   8.281   3.632
  310POPC   GL1 4024   3.413   8.390   4.177
  310POPC   GL2 4025   3.556   8.739   4.362
  310POPC   C1A 4026   3.508   8.319   4.631
  310POPC   D2A 4027   3.311   8.305   5.041
  310POPC   C3A 4028   3.525   8.373   5.407
  310POPC   C4A 4029   3.362   8.414   5.789
  310POPC   C1B 4030   3.312   8.783   4.758
  310POPC   C2B 4031   3.267   8.808   5.169
  310POPC   C3B 4032   3.321   9.020   5.493
  310POPC   C4B 4033   3.577   8.873   5.793
  311POPC   NC3 4034   8.677   2.935   3.920
  311POPC   PO4 4035   9.137   2.419   3.881
  311POPC   GL1 4036   8.933   2.463   4.273
  311POPC   GL2 4037   8.581   2.583   4.282
  311POPC   C1A 4038   8.796   2.388   4.705
  311POPC   D2A 4039   9.055   2.467   5.074
  311POPC   C3A 4040   8.943   2.476   5.494
  311POPC   C4A 4041   8.806   2.470   5.947
  311POPC   C1B 4042   8.565   2.833   4.683
  311POPC   C2B 4043   8.586   2.683   5.138
  311POPC   C3B 4044   8.601   2.836   5.581
  311POPC   C4B 4045   8.340   2.821   5.920
  312POPC   NC3 4046   8.894   2.014   3.858
  312POPC   PO4 4047   8.419   1.483   3.939
  312POPC   GL1 4048   8.377   1.801   4.285
  312POPC   GL2 4049   8.675   2.016   4.320
  312POPC   C1A 4050   8.334   2.038   4.678
  312POPC   D2A 4051   8.519   2.154   5.055
  312POPC   C3A 4052   8.431   1.953   5.417
  312POPC   C4A 4053   8.479   2.325   5.598
  312POPC   C1B 4054   8.821   1.817   4.716
  312POPC   C2B 4055   8.977   1.940   5.147
  312POPC   C3B 4056   8.902   1.971   5.589
  312POPC   C4B 4057   9.011   1.749   5.967
  313POPC   NC3 4058   7.897   4.278   4.091
  313POPC   PO4 4059   8.477   4.349   3.721
  313POPC   GL1 4060   8.410   4.386   4.183
  313POPC   GL2 4061   8.614   4.146   4.292
  313POPC   C1A 4062   8.410   4.442   4.656
  313POPC   D2A 4063   8.595   4.306   5.057
  313POPC   C3A 4064   8.481   4.446   5.467
  313POPC   C4A 4065   8.422   4.190   5.799
  313POPC   C1B 4066   8.896   4.104   4.628
  313POPC   C2B 4067   9.003   3.997   5.036
  313POPC   C3B 4068   8.910   4.175   5.448
  313POPC   C4B 4069   8.943   4.018   5.814
  314POPC   NC3 4070   3.501   8.032   3.839
  314POPC   PO4 4071   2.932   8.282   4.112
  314POPC   GL1 4072   3.143   7.928   4.287
  314POPC   GL2 4073   3.495   7.872   4.305
  314POPC   C1A 4074   3.244   7.892   4.745
  314POPC   D2A 4075   3.285   7.750   5.151
  314POPC   C3A 4076   3.261   7.964   5.539
  314POPC   C4A 4077   2.960   8.085   5.810
  314POPC   C1B 4078   3.728   7.858   4.675
  314POPC   C2B 4079   3.744   8.013   5.058
  314POPC   C3B 4080   3.721   7.791   5.419
  314POPC   C4B 4081   3.699   8.013   5.806
  315POPC   NC3 4082   2.797   8.012   3.768
  315POPC   PO4 4083   2.282   8.456   3.949
  315POPC   GL1 4084   2.464   8.300   4.312
  315POPC   GL2 4085   2.551   7.941   4.231
  315POPC   C1A 4086   2.395   8.178   4.724
  315POPC   D2A 4087   2.427   8.305   5.129
  315POPC   C3A 4088   2.445   8.112   5.458
  315POPC   C4A 4089   2.205   8.033   5.783
  315POPC   C1B 4090   2.767   7.871   4.620
  315POPC   C2B 4091   2.860   8.044   5.037
  315POPC   C3B 4092   2.820   7.799   5.384
  315POPC   C4B 4093   2.612   7.726   5.759
  316POPC   NC3 4094   0.280   2.896   3.793
  316POPC   PO4 4095   0.784   2.544   3.665
  316POPC   GL1 4096   0.698   2.777   4.092
  316POPC   GL2 4097   0.407   2.642   4.263
  316POPC   C1A 4098   0.706   2.906   4.552
  316POPC   D2A 4099   0.430   2.911   4.940
  316POPC   C3A 4100   0.466   2.898   5.385
  316POPC   C4A 4101   0.599   2.804   5.809
  316POPC   C1B 4102   0.258   2.497   4.697
  316POPC   C2B 4103   0.391   2.411   5.154
  316POPC   C3B 4104   0.279   2.475   5.592
  316POPC   C4B 4105   0.170   2.527   6.028
  317POPC   NC3 4106   2.050   2.678   3.905
  317POPC   PO4 4107   1.541   2.214   4.045
  317POPC   GL1 4108   1.710   2.550   4.298
  317POPC   GL2 4109   2.027   2.641   4.406
  317POPC   C1A 4110   1.647   2.689   4.733
  317POPC   D2A 4111   1.767   2.519   5.164
  317POPC   C3A 4112   1.611   2.541   5.588
  317POPC   C4A 4113   1.783   2.901   5.776
  317POPC   C1B 4114   2.126   2.463   4.790
  317POPC   C2B 4115   2.278   2.650   5.158
  317POPC   C3B 4116   2.152   2.598   5.559
  317POPC   C4B 4117   2.069   2.509   5.956
  318POPC   NC3 4118  10.221   1.910   3.852
  318POPC   PO4 4119   0.041   2.522   3.906
  318POPC   GL1 4120   0.002   2.132   4.237
  318POPC   GL2 4121  10.140   1.977   4.362
  318POPC   C1A 4122   0.012   2.038   4.715
  318POPC   D2A 4123  10.412   1.772   5.103
  318POPC   C3A 4124  10.234   1.913   5.501
  318POPC   C4A 4125  10.279   2.357   5.638
  318POPC   C1B 4126   9.973   1.930   4.812
  318POPC   C2B 4127   9.931   2.195   5.198
  318POPC   C3B 4128   9.799   2.134   5.649
  318POPC   C4B 4129   9.985   1.902   5.979
  319POPC   NC3 4130   7.679   6.215   4.104
  319POPC   PO4 4131   7.877   6.836   3.757
  319POPC   GL1 4132   8.103   6.725   4.246
  319POPC   GL2 4133   8.140   6.380   4.282
  319POPC   C1A 4134   8.039   6.757   4.685
  319POPC   D2A 4135   7.933   6.578   5.062
  319POPC   C3A 4136   8.160   6.616   5.433
  319POPC   C4A 4137   7.935   6.800   5.789
  319POPC   C1B 4138   8.020   6.220   4.685
  319POPC   C2B 4139   7.935   6.076   5.107
  319POPC   C3B 4140   8.162   6.058   5.471
  319POPC   C4B 4141   8.014   6.279   5.805
  320POPC   NC3 4142   5.046  10.242   3.841
  320POPC   PO4 4143   4.471   0.088   3.924
  320POPC   GL1 4144   4.599  10.396   4.325
  320POPC   GL2 4145   4.947  10.298   4.355
  320POPC   C1A 4146   4.705  10.451   4.770
  320POPC   D2A 4147   4.971  10.442   5.113
  320POPC   C3A 4148   4.824  10.144   5.416
  320POPC   C4A 4149   4.619  10.169   5.824
  320POPC   C1B 4150   4.877   9.982   4.724
  320POPC   C2B 4151   5.049   9.754   5.075
  320POPC   C3B 4152   5.231   9.771   5.479
  320POPC   C4B 4153   5.060   9.914   5.864
  321POPC   NC3 4154   7.714   2.754   3.716
  321POPC   PO4 4155   8.234   3.083   3.905
  321POPC   GL1 4156   8.137   2.904   4.299
  321POPC   GL2 4157   7.840   2.718   4.233
  321POPC   C1A 4158   8.161   2.553   4.612
  321POPC   D2A 4159   8.083   2.468   5.036
  321POPC   C3A 4160   8.133   2.695   5.432
  321POPC   C4A 4161   7.829   2.821   5.794
  321POPC   C1B 4162   7.657   2.612   4.648
  321POPC   C2B 4163   7.539   2.395   5.025
  321POPC   C3B 4164   7.639   2.557   5.403
  321POPC   C4B 4165   7.547   2.384   5.784
  322POPC   NC3 4166   3.774   2.862   3.966
  322POPC   PO4 4167   3.250   2.610   4.031
  322POPC   GL1 4168   3.428   2.473   4.430
  322POPC   GL2 4169   3.736   2.699   4.439
  322POPC   C1A 4170   3.720   2.301   4.736
  322POPC   D2A 4171   3.908   2.630   4.980
  322POPC   C3A 4172   3.658   2.712   5.371
  322POPC   C4A 4173   3.432   2.415   5.664
  322POPC   C1B 4174   3.381   2.942   4.616
  322POPC   C2B 4175   3.265   3.087   5.017
  322POPC   C3B 4176   3.074   3.091   5.416
  322POPC   C4B 4177   3.259   2.911   5.733
  323POPC   NC3 4178   1.091   3.827   3.911
  323POPC   PO4 4179   1.412   4.469   3.896
  323POPC   GL1 4180   1.188   4.249   4.194
  323POPC   GL2 4181   0.940   4.039   4.362
  323POPC   C1A 4182   1.325   4.321   4.602
  323POPC   D2A 4183   1.228   4.510   4.988
  323POPC   C3A 4184   1.202   4.310   5.386
  323POPC   C4A 4185   1.116   4.408   5.798
  323POPC   C1B 4186   0.883   4.154   4.773
  323POPC   C2B 4187   1.238   3.997   4.988
  323POPC   C3B 4188   1.479   3.876   5.330
  323POPC   C4B 4189   1.285   3.920   5.743
  324POPC   NC3 4190   9.488   8.353   4.001
  324POPC   PO4 4191   9.762   9.065   4.177
  324POPC   GL1 4192   9.515   8.801   4.455
  324POPC   GL2 4193   9.468   8.494   4.458
  324POPC   C1A 4194   9.391   8.908   4.795
  324POPC   D2A 4195   9.653   9.030   5.082
  324POPC   C3A 4196   9.392   8.908   5.388
  324POPC   C4A 4197   9.306   8.959   5.762
  324POPC   C1B 4198   9.377   8.392   4.771
  324POPC   C2B 4199   9.501   8.507   5.097
  324POPC   C3B 4200   9.423   8.373   5.477
  324POPC   C4B 4201   9.331   8.453   5.857
  325POPC   NC3 4202   5.711   1.281   3.891
  325POPC   PO4 4203   5.216   1.071   4.187
  325POPC   GL1 4204   5.644   0.978   4.326
  325POPC   GL2 4205   5.957   1.212   4.333
  325POPC   C1A 4206   5.840   0.935   4.741
  325POPC   D2A 4207   6.000   1.254   5.033
  325POPC   C3A 4208   5.842   1.240   5.464
  325POPC   C4A 4209   5.931   0.997   5.892
  325POPC   C1B 4210   5.611   1.390   4.621
  325POPC   C2B 4211   5.452   1.301   5.050
  325POPC   C3B 4212   5.319   1.135   5.470
  325POPC   C4B 4213   5.518   1.296   5.844
  326POPC   NC3 4214  10.377   1.126   3.881
  326POPC   PO4 4215   0.181   1.762   3.821
  326POPC   GL1 4216  10.413   1.568   4.201
  326POPC   GL2 4217  10.210   1.230   4.323
  326POPC   C1A 4218  10.314   1.574   4.643
  326POPC   D2A 4219  10.305   1.273   4.970
  326POPC   C3A 4220  10.173   1.392   5.374
  326POPC   C4A 4221  10.269   1.495   5.803
  326POPC   C1B 4222  10.120   0.921   4.641
  326POPC   C2B 4223  10.126   0.698   5.034
  326POPC   C3B 4224   9.980   0.746   5.424
  326POPC   C4B 4225  10.134   1.019   5.732
  327POPC   NC3 4226   1.096   1.913   4.068
  327POPC   PO4 4227   1.617   1.429   4.071
  327POPC   GL1 4228   1.575   1.497   4.456
  327POPC   GL2 4229   1.389   1.831   4.471
  327POPC   C1A 4230   1.584   1.588   4.875
  327POPC   D2A 4231   1.247   1.788   5.123
  327POPC   C3A 4232   1.334   2.077   5.464
  327POPC   C4A 4233   1.399   1.739   5.736
  327POPC   C1B 4234   1.019   2.005   4.729
  327POPC   C2B 4235   0.878   2.144   5.154
  327POPC   C3B 4236   0.840   1.911   5.493
  327POPC   C4B 4237   0.999   2.013   5.890
  328POPC   NC3 4238   9.299   3.555   3.868
  328POPC   PO4 4239   9.866   3.187   3.944
  328POPC   GL1 4240   9.549   3.297   4.263
  328POPC   GL2 4241   9.561   3.653   4.337
  328POPC   C1A 4242   9.518   3.334   4.730
  328POPC   D2A 4243   9.754   3.291   5.102
  328POPC   C3A 4244   9.488   3.236   5.448
  328POPC   C4A 4245   9.583   3.075   5.860
  328POPC   C1B 4246   9.133   3.611   4.559
  328POPC   C2B 4247   9.053   3.486   5.013
  328POPC   C3B 4248   8.967   3.629   5.415
  328POPC   C4B 4249   9.234   3.564   5.733
  329POPC   NC3 4250   9.509   2.143   3.945
  329POPC   PO4 4251   9.072   1.602   4.016
  329POPC   GL1 4252   9.182   1.959   4.293
  329POPC   GL2 4253   9.486   1.823   4.403
  329POPC   C1A 4254   9.224   2.137   4.716
  329POPC   D2A 4255   9.473   2.049   5.055
  329POPC   C3A 4256   9.367   2.229   5.414
  329POPC   C4A 4257   9.261   2.209   5.847
  329POPC   C1B 4258   9.324   1.638   4.789
  329POPC   C2B 4259   9.481   1.567   5.221
  329POPC   C3B 4260   9.378   1.765   5.609
  329POPC   C4B 4261   9.500   1.760   6.086
  330POPC   NC3 4262   0.305   7.107   3.863
  330POPC   PO4 4263  10.435   6.563   3.899
  330POPC   GL1 4264   0.096   6.892   4.272
  330POPC   GL2 4265   0.363   7.166   4.365
  330POPC   C1A 4266   0.219   6.819   4.718
  330POPC   D2A 4267   0.470   6.981   5.075
  330POPC   C3A 4268   0.226   7.143   5.425
  330POPC   C4A 4269   0.372   7.085   5.825
  330POPC   C1B 4270   0.698   7.258   4.693
  330POPC   C2B 4271   0.886   7.363   5.086
  330POPC   C3B 4272   0.683   7.376   5.474
  330POPC   C4B 4273   0.670   7.505   5.873
  331POPC   NC3 4274   1.484   4.972   3.923
  331POPC   PO4 4275   2.140   4.812   4.137
  331POPC   GL1 4276   2.034   5.061   4.431
  331POPC   GL2 4277   1.701   5.034   4.387
  331POPC   C1A 4278   1.967   5.063   4.862
  331POPC   D2A 4279   2.022   5.356   5.144
  331POPC   C3A 4280   2.239   5.262   5.536
  331POPC   C4A 4281   2.000   5.093   5.894
  331POPC   C1B 4282   1.680   4.680   4.683
  331POPC   C2B 4283   1.618   4.787   5.123
  331POPC   C3B 4284   1.894   4.910   5.401
  331POPC   C4B 4285   2.176   4.685   5.609
  332POPC   NC3 4286   1.114   7.923   3.933
  332POPC   PO4 4287   0.643   7.418   4.016
  332POPC   GL1 4288   0.748   7.789   4.291
  332POPC   GL2 4289   1.076   7.958   4.415
  332POPC   C1A 4290   0.780   7.767   4.745
  332POPC   D2A 4291   1.025   7.978   5.010
  332POPC   C3A 4292   0.912   7.812   5.368
  332POPC   C4A 4293   1.077   7.812   5.748
  332POPC   C1B 4294   1.461   7.968   4.621
  332POPC   C2B 4295   1.539   8.119   5.031
  332POPC   C3B 4296   1.344   8.092   5.415
  332POPC   C4B 4297   1.359   8.231   5.836
  333POPC   NC3 4298   9.971   6.561   3.951
  333POPC   PO4 4299  10.404   6.015   4.166
  333POPC   GL1 4300  10.106   6.244   4.369
  333POPC   GL2 4301  10.234   6.559   4.382
  333POPC   C1A 4302  10.087   6.294   4.813
  333POPC   D2A 4303  10.069   6.003   5.142
  333POPC   C3A 4304  10.386   6.152   5.435
  333POPC   C4A 4305  10.218   6.259   5.810
  333POPC   C1B 4306  10.179   6.811   4.708
  333POPC   C2B 4307  10.048   6.720   5.126
  333POPC   C3B 4308  10.199   6.642   5.483
  333POPC   C4B 4309  10.474   6.708   5.810
  334POPC   NC3 4310   3.444   3.689   3.844
  334POPC   PO4 4311   3.949   3.318   3.928
  334POPC   GL1 4312   3.638   3.255   4.276
  334POPC   GL2 4313   3.284   3.407   4.277
  334POPC   C1A 4314   3.598   3.398   4.717
  334POPC   D2A 4315   3.477   3.539   5.129
  334POPC   C3A 4316   3.555   3.239   5.481
  334POPC   C4A 4317   3.691   3.316   5.917
  334POPC   C1B 4318   3.078   3.494   4.700
  334POPC   C2B 4319   2.919   3.470   5.122
  334POPC   C3B 4320   3.135   3.585   5.506
  334POPC   C4B 4321   3.572   3.729   5.612
  335POPC   NC3 4322  10.369   5.204   3.884
  335POPC   PO4 4323  10.274   4.519   3.823
  335POPC   GL1 4324  10.297   4.676   4.242
  335POPC   GL2 4325  10.278   5.016   4.327
  335POPC   C1A 4326  10.149   4.647   4.665
  335POPC   D2A 4327  10.114   4.448   5.058
  335POPC   C3A 4328  10.139   4.650   5.420
  335POPC   C4A 4329   9.961   4.773   5.768
  335POPC   C1B 4330  10.195   5.171   4.680
  335POPC   C2B 4331  10.117   4.991   5.058
  335POPC   C3B 4332  10.240   5.148   5.453
  335POPC   C4B 4333  10.124   5.255   5.834
  336POPC   NC3 4334   6.378   1.193   3.812
  336POPC   PO4 4335   6.749   1.760   3.614
  336POPC   GL1 4336   6.672   1.518   4.108
  336POPC   GL2 4337   6.571   1.147   4.266
  336POPC   C1A 4338   6.740   1.455   4.613
  336POPC   D2A 4339   6.535   1.278   4.988
  336POPC   C3A 4340   6.651   1.342   5.413
  336POPC   C4A 4341   6.671   1.120   5.837
  336POPC   C1B 4342   6.348   0.953   4.631
  336POPC   C2B 4343   6.272   0.796   5.061
  336POPC   C3B 4344   6.295   0.984   5.469
  336POPC   C4B 4345   6.251   1.367   5.746
  337POPC   NC3 4346   2.338   9.651   3.735
  337POPC   PO4 4347   2.755   9.155   3.877
  337POPC   GL1 4348   2.892   9.441   4.359
  337POPC   GL2 4349   3.003   9.192   4.585
  337POPC   C1A 4350   2.784   9.602   4.776
  337POPC   D2A 4351   2.908   9.810   5.144
  337POPC   C3A 4352   2.663   9.575   5.456
  337POPC   C4A 4353   2.471   9.697   5.841
  337POPC   C1B 4354   2.780   9.050   4.888
  337POPC   C2B 4355   2.807   9.045   5.294
  337POPC   C3B 4356   2.616   9.106   5.631
  337POPC   C4B 4357   2.957   9.236   5.830
  338POPC   NC3 4358   6.459   2.545   3.644
  338POPC   PO4 4359   6.431   3.110   4.022
  338POPC   GL1 4360   6.460   2.956   4.432
  338POPC   GL2 4361   6.404   2.611   4.359
  338POPC   C1A 4362   6.498   2.919   4.881
  338POPC   D2A 4363   6.204   2.643   5.113
  338POPC   C3A 4364   6.196   2.767   5.552
  338POPC   C4A 4365   6.475   2.892   5.961
  338POPC   C1B 4366   6.616   2.465   4.699
  338POPC   C2B 4367   6.610   2.330   5.098
  338POPC   C3B 4368   6.651   2.580   5.432
  338POPC   C4B 4369   6.570   2.429   5.824
  339POPC   NC3 4370   1.301   1.039   3.658
  339POPC   PO4 4371   1.270   0.589   4.203
  339POPC   GL1 4372   1.078   0.451   4.531
  339POPC   GL2 4373   1.360   0.213   4.609
  339POPC   C1A 4374   0.907   0.769   4.788
  339POPC   D2A 4375   1.043   0.913   5.191
  339POPC   C3A 4376   1.053   0.595   5.506
  339POPC   C4A 4377   0.809   0.226   5.599
  339POPC   C1B 4378   1.306   0.502   4.972
  339POPC   C2B 4379   1.539   0.743   5.241
  339POPC   C3B 4380   1.553   0.580   5.616
  339POPC   C4B 4381   1.402   0.143   5.658
  340POPC   NC3 4382   1.854   1.810   3.972
  340POPC   PO4 4383   2.338   2.279   3.924
  340POPC   GL1 4384   2.156   2.143   4.365
  340POPC   GL2 4385   1.901   1.913   4.437
  340POPC   C1A 4386   2.166   1.948   4.842
  340POPC   D2A 4387   2.157   2.152   5.234
  340POPC   C3A 4388   2.305   1.905   5.568
  340POPC   C4A 4389   2.265   1.891   6.017
  340POPC   C1B 4390   1.708   2.175   4.700
  340POPC   C2B 4391   1.674   2.044   5.073
  340POPC   C3B 4392   1.798   1.804   5.395
  340POPC   C4B 4393   1.873   2.084   5.725
  341POPC   NC3 4394   8.399   6.750   3.867
  341POPC   PO4 4395   8.853   7.157   3.666
  341POPC   GL1 4396   8.869   7.093   4.194
  341POPC   GL2 4397   8.693   7.329   4.408
  341POPC   C1A 4398   8.521   6.864   4.526
  341POPC   D2A 4399   8.442   6.774   4.987
  341POPC   C3A 4400   8.468   7.017   5.339
  341POPC   C4A 4401   8.426   6.984   5.766
  341POPC   C1B 4402   8.825   7.162   4.769
  341POPC   C2B 4403   8.946   7.062   5.110
  341POPC   C3B 4404   8.938   7.274   5.418
  341POPC   C4B 4405   8.883   7.191   5.789
  342W        W 4406   1.291   4.694  10.454
  343W        W 4407   6.560   2.884   1.426
  344W        W 4408   6.486   8.513   9.161
  345W        W 4409   2.638   8.752  11.379
  346W        W 4410   6.228   6.131   1.322
  347W        W 4411   8.627   1.967   1.222
  348W        W 4412   3.760   7.518  11.551
  349W        W 4413   3.846   1.827   1.726
  350W        W 4414   6.951   3.256   0.067
  351W        W 4415   3.745   7.477   2.325
  352W        W 4416   7.599   7.410   3.135
  353W        W 4417   7.256   2.906  10.933
  354W        W 4418   6.605   6.050   2.548
  355W        W 4419  10.432   4.075   2.343
  356W        W 4420   0.729   2.879  11.585
  357W        W 4421   2.105   0.952  11.405
  358W        W 4422   0.785   2.625   8.758
  359W        W 4423   3.843   2.357  10.515
  360W        W 4424   7.602   0.743  11.922
  361W        W 4425   7.978   6.286  10.354
  362W        W 4426   9.602   5.032   1.964
  363W        W 4427   2.656   7.882   2.243
  364W        W 4428   3.776   6.448  10.482
  365W        W 4429   3.665   8.975   2.263
  366W        W 4430   5.589   9.694   1.306
  367W        W 4431   2.549   8.877   9.198
  368W        W 4432   4.953   4.817   1.666
  369W        W 4433   6.094   8.005   0.895
  370W        W 4434   9.176   3.294   9.369
  371W        W 4435  10.270   4.670   1.622
  372W        W 4436   8.584   9.443   3.196
  373W        W 4437   9.812   1.690  10.509
  374W        W 4438   4.627   4.391  10.877
  375W        W 4439   2.844   9.546   0.904
  376W        W 4440   3.923   8.615  11.475
  377W        W 4441  10.438   0.154   9.913
  378W        W 4442   8.532   8.325  10.378
  379W        W 4443   2.249   4.354   3.253
  380W        W 4444   3.347   9.672   0.981
  381W        W 4445   1.137   4.472   1.788
  382W        W 4446   6.141   8.566  10.912
  383W        W 4447   1.674   6.032   3.376
  384W        W 4448   1.536   9.237   0.401
  385W        W 4449   0.427   1.175   3.116
  386W        W 4450   2.186   7.842  11.029
  387W        W 4451   6.795   9.034  10.333
  388W        W 4452   3.061   7.695  11.926
  389W        W 4453   6.088   7.793  10.622
  390W        W 4454   2.587   5.234   2.845
  391W        W 4455   6.635   8.449  11.102
  392W        W 4456   9.052   9.503   2.995
  393W        W 4457   4.642  10.253   0.038
  394W        W 4458   7.345   5.971   3.831
  395W        W 4459   3.560   4.131   2.682
  396W        W 4460   1.503   9.633   3.556
  397W        W 4461  10.206   9.588   0.146
  398W        W 4462   3.788   7.716  10.050
  399W        W 4463   7.526  10.499   1.362
  400W        W 4464   5.114   4.563   8.228
  401W        W 4465   0.314   9.549  10.116
  402W        W 4466   9.698   9.436   2.426
  403W        W 4467   6.036   3.973   1.264
  404W        W 4468   7.205   1.312  10.338
  405W        W 4469   8.389   7.650   0.763
  406W        W 4470   3.789   0.257  10.074
  407W        W 4471   9.325   4.456   3.087
  408W        W 4472   2.370   3.243   9.357
  409W        W 4473   7.898   4.487  10.887
  410W        W 4474   8.013   7.636   3.384
  411W        W 4475   5.623   6.978   0.438
  412W        W 4476   9.097   9.158   2.147
  413W        W 4477   5.611   7.311   1.875
  414W        W 4478   8.414   6.268   8.593
  415W        W 4479   1.089   9.221   9.651
  416W        W 4480   8.052  10.167  10.201
  417W        W 4481   1.899  10.444   3.303
  418W        W 4482   7.900   0.959   2.278
  419W        W 4483   6.865   4.666   0.040
  420W        W 4484   8.863   3.470   2.388
  421W        W 4485   1.682   2.034   2.298
  422W        W 4486   9.669   8.357   0.791
  423W        W 4487   5.461   7.461  10.010
  424W        W 4488   1.356   7.449  10.912
  425W        W 4489   6.054   4.762  11.448
  426W        W 4490   0.926   9.551   0.420
  427W        W 4491   1.364   9.894   2.407
  428W        W 4492   4.129   4.504   0.208
  429W        W 4493   4.081   9.458   9.869
  430W        W 4494   4.817   3.211  10.302
  431W        W 4495   5.167   7.918   8.958
  432W        W 4496   6.056   9.996   2.734
  433W        W 4497   8.865   4.818  11.821
  434W        W 4498   0.850   7.554   3.100
  435W        W 4499   0.840   4.958   2.618
  436W        W 4500   4.372  10.393  10.013
  437W        W 4501   3.847   0.442  11.454
  438W        W 4502   0.004   6.976  11.323
  439W        W 4503   8.430   3.123   8.817
  440W        W 4504   3.586   6.407   3.659
  441W        W 4505   4.260   8.472   0.748
  442W        W 4506   4.268   8.840  11.108
  443W        W 4507   1.922   5.589   3.313
  444W        W 4508   7.588   8.596   1.228
  445W        W 4509   4.987   7.218   4.130
  446W        W 4510   6.451   9.798  11.493
  447W        W 4511   7.171   0.877   9.182
  448W        W 4512   4.777  10.450  10.593
  449W        W 4513   9.053   5.504   3.531
  450W        W 4514   1.664   6.637   9.342
  451W        W 4515   8.427   4.011   2.198
  452W        W 4516   8.989   6.566   1.453
  453W        W 4517   7.475   7.682   2.712
  454W        W 4518   7.002   6.046   3.102
  455W        W 4519   1.837   6.596  10.874
  456W        W 4520   8.711   3.406   0.067
  457W        W 4521   7.165   0.807   0.995
  458W        W 4522   1.909   5.269   9.140
  459W        W 4523   9.042   5.466  10.117
  460W        W 4524  10.247   5.014   0.728
  461W        W 4525   2.840   4.705   3.573
  462W        W 4526   0.992   7.019   1.311
  463W        W 4527   0.885   4.437  10.294
  464W        W 4528   6.976   4.904   0.977
  465W        W 4529   6.406   2.044   9.527
  466W        W 4530   7.504   0.505  11.291
  467W        W 4531   5.629   8.499  10.843
  468W        W 4532   3.778   7.109   9.157
  469W        W 4533  10.128   7.590  10.400
  470W        W 4534   9.344   1.839  10.356
  471W        W 4535   1.600   1.942   1.766
  472W        W 4536   7.043   3.131   3.077
  473W        W 4537   3.995   0.367   8.707
  474W        W 4538   4.746   4.894   8.421
  475W        W 4539   5.040   2.586   0.350
  476W        W 4540   6.693   6.684  11.924
  477W        W 4541   7.746   0.483   2.294
  478W        W 4542   4.539   9.555   8.509
  479W        W 4543   8.432   0.838   2.261
  480W        W 4544   5.269   9.148  11.967
  481W        W 4545   4.709   6.598  10.732
  482W        W 4546   6.727   3.095   0.982
  483W        W 4547   0.848   2.126   0.694
  484W        W 4548   8.465   7.378   3.358
  485W        W 4549   1.313  10.333   3.304
  486W        W 4550   6.523   6.922   3.313
  487W        W 4551   3.765   8.494   0.894
  488W        W 4552   5.709   8.438   2.692
  489W        W 4553   2.651   6.090   8.328
  490W        W 4554   3.704   8.698   3.505
  491W        W 4555   2.141   8.534   1.633
  492W        W 4556   7.270   6.491  10.718
  493W        W 4557   1.183   5.640   9.024
  494W        W 4558   7.729   6.874   9.259
  495W        W 4559   4.558   7.116  10.739
  496W        W 4560   5.414   3.663   8.209
  497W        W 4561   3.158   4.112   9.763
  498W        W 4562   8.967   1.328   9.725
  499W        W 4563   0.062   3.174   2.674
  500W        W 4564   6.022   4.784   2.486
  501W        W 4565   7.742   8.967  11.489
  502W        W 4566   4.127   2.591   9.457
  503W        W 4567  10.020   0.188  10.210
  504W        W 4568   7.579   0.154   3.317
  505W        W 4569   0.737   2.519  10.744
  506W        W 4570   3.203   6.745   2.476
  507W        W 4571   1.138   2.371   9.696
  508W        W 4572   4.095   6.243   1.979
  509W        W 4573   3.831   5.013  10.627
  510W        W 4574   9.239   2.770  11.368
  511W        W 4575   5.403   4.866   3.644
  512W        W 4576   8.564   9.862   1.669
  513W        W 4577   2.436   9.189   1.222
  514W        W 4578   4.502   4.550   9.990
  515W        W 4579   6.762   7.539   1.327
  516W        W 4580   4.646   9.293  11.562
  517W        W 4581   5.198   3.614   3.251
  518W        W 4582   8.924   6.009   0.869
  519W        W 4583   2.785   3.708   3.186
  520W        W 4584   6.994   4.376   3.919
  521W        W 4585   4.822   9.840  10.304
  522W        W 4586  10.405   6.104   8.902
  523W        W 4587   5.275   4.069   0.193
  524W        W 4588   9.485   4.253   0.728
  525W        W 4589   5.305   4.130  10.324
  526W        W 4590  10.251   4.258  10.097
  527W        W 4591   4.295  10.106   2.716
  528W        W 4592   2.656   1.374   3.104
  529W        W 4593   6.177   3.455   3.101
  530W        W 4594   6.933   0.369   1.990
  531W        W 4595   2.781   1.420   1.017
  532W        W 4596   5.964   3.145   8.886
  533W        W 4597   3.154   2.223   9.540
  534W        W 4598   9.121   4.173   9.569
  535W        W 4599   8.461   2.447   0.391
  536W        W 4600   5.697   5.478   9.468
  537W        W 4601   2.607   1.563   9.043
  538W        W 4602   8.901   4.291  10.518
  539W        W 4603   2.216   9.968   9.003
  540W        W 4604   5.757   7.178  11.882
  541W        W 4605   8.487   3.876   2.729
  542W        W 4606  10.202   9.554   2.392
  543W        W 4607   9.326   5.087  11.014
  544W        W 4608   7.917   6.413   2.251
  545W        W 4609   6.926   4.766   9.766
  546W        W 4610   1.270   5.130   2.347
  547W        W 4611   9.639   0.430  10.444
  548W        W 4612   9.810   0.378   1.234
  549W        W 4613   4.795   1.772   1.947
  550W        W 4614   5.316   7.369   0.303
  551W        W 4615   0.529   4.010  11.391
  552W        W 4616   7.969   5.566   3.431
  553W        W 4617   4.245   8.292  11.183
  554W        W 4618   4.739   9.851   2.694
  555W        W 4619   1.330   9.765   1.399
  556W        W 4620  10.353   1.183   1.395
  557W        W 4621   7.935   5.441   9.380
  558W        W 4622   3.874   0.675   9.786
  559W        W 4623   0.496   0.851   2.737
  560W        W 4624   3.765   9.526   0.648
  561W        W 4625   1.590   1.975  10.981
  562W        W 4626   5.472   2.625   9.233
  563W        W 4627   3.491   3.375   0.366
  564W        W 4628   4.040   8.225  10.310
  565W        W 4629   9.084   1.479   8.720
  566W        W 4630   8.037   6.245  11.717
  567W        W 4631   8.086   4.619  10.442
  568W        W 4632   3.267   0.896   8.685
  569W        W 4633   2.323   8.186   1.328
  570W        W 4634   0.673   6.052   3.260
  571W        W 4635   3.518   6.729   3.230
  572W        W 4636   8.241   3.408   0.260
  573W        W 4637   3.033   0.106   0.948
  574W        W 4638   2.648  10.254   8.871
  575W        W 4639   3.755   1.421   1.396
  576W        W 4640   2.066   5.086   9.758
  577W        W 4641   4.237   0.223  11.759
  578W        W 4642   9.913   4.879  10.051
  579W        W 4643   5.445   1.304  10.016
  580W        W 4644   9.991   8.531   9.473
  581W        W 4645   0.769   4.042   9.974
  582W        W 4646   9.331   0.485   9.522
  583W        W 4647   3.945   5.921   3.215
  584W        W 4648  10.298   7.456   8.486
  585W        W 4649   5.183   8.230   1.438
  586W        W 4650   7.056   1.539  10.827
  587W        W 4651  10.232   1.637   2.882
  588W        W 4652   2.283   2.688   0.661
  589W        W 4653  10.333   9.394   9.007
  590W        W 4654   1.744   3.326  11.487
  591W        W 4655   7.878   9.357   2.108
  592W        W 4656   9.950   3.757   1.141
  593W        W 4657   1.257   0.045  10.329
  594W        W 4658   1.477   8.979   9.396
  595W        W 4659   7.940   8.501  10.714
  596W        W 4660  10.108   4.329   3.332
  597W        W 4661   5.557   5.001  11.356
  598W        W 4662   1.731   2.702   2.915
  599W        W 4663   0.084   4.239   3.540
  600W        W 4664   8.372   0.487  11.255
  601W        W 4665  10.354  10.371   1.251
  602W        W 4666   0.985   4.789   3.074
  603W        W 4667   4.535   6.204   8.541
  604W        W 4668  10.189   3.438   3.482
  605W        W 4669  10.387   5.156  10.087
  606W        W 4670   8.947   5.264   2.370
  607W        W 4671   9.388   6.009   3.289
  608W        W 4672  10.302   0.625  10.066
  609W        W 4673   4.279   3.768   2.719
  610W        W 4674  10.351  10.077  10.761
  611W        W 4675   7.113   3.283  10.588
  612W        W 4676   4.957   2.140   9.691
  613W        W 4677   6.442   3.565   8.482
  614W        W 4678  10.390   3.763   1.448
  615W        W 4679   9.555   5.933   2.326
  616W        W 4680   5.074   2.613   9.561
  617W        W 4681   1.768  10.279  11.659
  618W        W 4682   3.629   1.302  10.405
  619W        W 4683   8.349  10.059  10.911
  620W        W 4684   2.893   1.269   0.231
  621W        W 4685   2.388   8.370   9.209
  622W        W 4686  10.251  10.194   1.747
  623W        W 4687   9.725   2.672   0.459
  624W        W 4688   0.380   1.169   1.748
  625W        W 4689   2.113   5.547   9.538
  626W        W 4690   8.045   6.969   1.398
  627W        W 4691   0.320   9.528   9.603
  628W        W 4692   5.319   5.039   1.396
  629W        W 4693   5.341   0.208   1.175
  630W        W 4694   9.497   7.965   9.937
  631W        W 4695   9.751   7.829  11.862
  632W        W 4696   3.743   2.272   3.588
  633W        W 4697   9.882   3.841   9.302
  634W        W 4698   6.535   7.433  10.134
  635W        W 4699   7.675   3.178   9.246
  636W        W 4700   3.206   0.611   3.556
  637W        W 4701   0.867   3.968   8.935
  638W        W 4702   8.453   0.351  11.725
  639W        W 4703   0.829   0.455   8.964
  640W        W 4704   7.081   4.102   2.578
  641W        W 4705   9.516   0.101   8.542
  642W        W 4706   5.152   7.244   1.670
  643W        W 4707   6.045   2.058   2.158
  644W        W 4708   9.571   7.037  11.509
  645W        W 4709   5.175   7.645   2.577
  646W        W 4710   7.457   7.645   8.968
  647W        W 4711   3.584   5.159   1.220
  648W        W 4712   7.872   3.979  11.001
  649W        W 4713   6.123   5.979   2.742
  650W        W 4714   6.162   1.871   9.106
  651W        W 4715   7.910   4.342   0.456
  652W        W 4716   5.798   8.385  10.008
  653W        W 4717   7.129   5.949  11.812
  654W        W 4718   0.925   1.425   9.807
  655W        W 4719   9.954   6.241   0.894
  656W        W 4720   8.168   5.637   0.581
  657W        W 4721   2.830   5.041   9.565
  658W        W 4722   0.396   1.249  11.851
  659W        W 4723   8.044   5.463   1.326
  660W        W 4724   4.548   9.858   2.206
  661W        W 4725   2.599   1.984  11.799
  662W        W 4726   2.027   4.772   8.514
  663W        W 4727   6.028   3.237   0.740
  664W        W 4728   0.174   9.312   2.494
  665W        W 4729   6.535   1.385   1.325
  666W        W 4730   7.193   0.378   9.405
  667W        W 4731   2.129   6.597   9.020
  668W        W 4732   7.002   3.193   0.564
  669W        W 4733   2.443   9.657   0.209
  670W        W 4734   4.017   3.269  10.034
  671W        W 4735   5.064   3.519   2.782
  672W        W 4736   8.802   8.413  11.861
  673W        W 4737   4.577   0.600  10.501
  674W        W 4738   4.252   0.927   9.984
  675W        W 4739   5.161   0.868   8.910
  676W        W 4740   9.967   0.310   0.215
  677W        W 4741   6.046   9.643   0.020
  678W        W 4742   6.521   4.746  11.673
  679W        W 4743   2.307   1.313   8.522
  680W        W 4744   1.761   4.678  10.612
  681W        W 4745   4.205   7.987   1.638
  682W        W 4746   4.628   0.524   1.008
  683W        W 4747   7.470   0.147  10.867
  684W        W 4748   0.103   4.942  11.275
  685W        W 4749   4.042   2.882  10.390
  686W        W 4750   7.955   6.794   0.918
  687W        W 4751   7.868   9.032   1.338
  688W        W 4752   5.671   4.517  10.300
  689W        W 4753   2.097   8.586  11.432
  690W        W 4754   5.668   7.562   2.324
  691W        W 4755   7.724   1.864  11.388
  692W        W 4756   0.507   6.983  11.133
  693W        W 4757   2.820   4.510   1.506
  694W        W 4758   9.855   1.204  10.664
  695W        W 4759   6.014   0.650   1.467
  696W        W 4760   0.710   0.677  10.349
  697W        W 4761   9.561   2.618   9.971
  698W        W 4762   3.577   9.182   1.790
  699W        W 4763   1.487   5.595   2.383
  700W        W 4764   4.987   6.598   9.020
  701W        W 4765   6.402   0.715   9.509
  702W        W 4766   2.366   3.061  10.970
  703W        W 4767   4.618   6.059   2.846
  704W        W 4768   5.197   2.228   0.021
  705W        W 4769   3.781   9.861   2.737
  706W        W 4770   3.041   7.996  10.057
  707W        W 4771   3.825   8.217   1.879
  708W        W 4772   2.481   0.954   2.187
  709W        W 4773   3.003   1.116  11.363
  710W        W 4774   0.350   2.396   9.154
  711W        W 4775   8.527   7.150   1.584
  712W        W 4776   2.293   1.213   1.724
  713W        W 4777   4.152   1.773   0.207
  714W        W 4778   5.683   7.962   2.931
  715W        W 4779   2.769   7.018  11.327
  716W        W 4780   7.177   1.706   2.274
  717W        W 4781   7.312   8.562  11.512
  718W        W 4782   1.334   3.318   8.734
  719W        W 4783   0.931   3.697  11.253
  720W        W 4784   1.869   4.142   1.252
  721W        W 4785   7.993   8.352   9.729
  722W        W 4786   2.072   7.623  10.046
  723W        W 4787   6.188   3.045   2.233
  724W        W 4788   1.200  10.006  11.689
  725W        W 4789   6.442   6.996  10.523
  726W        W 4790   5.768   6.586   8.488
  727W        W 4791   0.877   2.630   0.604
  728W        W 4792   9.964   6.122  11.982
  729W        W 4793   9.413   8.702  11.313
  730W        W 4794   9.221   5.226  10.526
  731W        W 4795   8.968   2.732   3.138
  732W        W 4796   0.549   9.495   3.373
  733W        W 4797   1.406   6.706   1.404
  734W        W 4798   6.526   8.027  11.383
  735W        W 4799   6.091   8.424   8.857
  736W        W 4800   1.003  10.190   2.239
  737W        W 4801   2.799   2.171   1.281
  738W        W 4802   5.142   3.602   0.038
  739W        W 4803   7.536   4.526   3.698
  740W        W 4804   5.999   0.568  10.629
  741W        W 4805   0.793   0.141   2.294
  742W        W 4806  10.168  10.230   9.991
  743W        W 4807   3.520   8.847  11.687
  744W        W 4808   2.805   5.071   1.862
  745W        W 4809   1.479   0.964   2.553
  746W        W 4810   6.599   6.539   2.208
  747W        W 4811   2.587   7.001   9.745
  748W        W 4812   4.752   7.519   2.280
  749W        W 4813   0.003   3.449  11.953
  750W        W 4814   3.241   8.958   1.470
  751W        W 4815   4.636  10.231   3.506
  752W        W 4816   9.125   8.811   1.800
  753W        W 4817   6.146  10.482   2.668
  754W        W 4818   6.439   3.380   2.652
  755W        W 4819   4.520   3.091   8.921
  756W        W 4820   4.662   0.783   3.350
  757W        W 4821   2.168   8.032   2.426
  758W        W 4822   8.653   1.801   2.006
  759W        W 4823   9.500   6.988   8.799
  760W        W 4824   7.397   2.286   8.790
  761W        W 4825   2.754   1.655   0.562
  762W        W 4826   7.742   8.602   8.861
  763W        W 4827   3.261   4.523   1.767
  764W        W 4828   9.853   8.770   1.016
  765W        W 4829   0.232   9.861  10.537
  766W        W 4830   9.400   5.117  10.027
  767W        W 4831   7.906   4.566   1.518
  768W        W 4832   3.364   9.469   1.437
  769W        W 4833   0.685   5.632   9.581
  770W        W 4834   4.030   6.630   9.218
  771W        W 4835   5.847   1.655   1.916
  772W        W 4836   7.301  10.013   9.188
  773W        W 4837   6.738   4.690   9.093
  774W        W 4838   2.314   8.212  10.687
  775W        W 4839   4.496   8.262   8.472
  776W        W 4840   5.610   8.793   9.696
  777W        W 4841   8.360   9.442  11.793
  778W        W 4842   7.325   7.848  11.035
  779W        W 4843   6.823   9.812   1.672
  780W        W 4844   7.678   2.635  10.961
  781W        W 4845   7.087   6.897   0.856
  782W        W 4846   0.466  10.300  10.481
  783W        W 4847   1.260   7.939   9.127
  784W        W 4848   1.851   8.386   0.260
  785W        W 4849   1.692   3.823   0.423
  786W        W 4850   8.412   9.020   9.290
  787W        W 4851   2.367   5.726  11.890
  788W        W 4852   6.383   4.012   9.715
  789W        W 4853   9.789   2.822   1.457
  790W        W 4854   3.180   7.486   0.389
  791W        W 4855   1.820   5.718   0.515
  792W        W 4856   6.227   5.551   3.031
  793W        W 4857   9.969   9.975   0.371
  794W        W 4858   4.562  10.419   9.189
  795W        W 4859  10.476   7.901   1.789
  796W        W 4860   3.721   7.057  11.854
  797W        W 4861   8.378   1.298   9.075
  798W        W 4862   9.126   8.040   0.615
  799W        W 4863   1.265   5.522   0.590
  800W        W 4864   2.275  10.031   2.523
  801W        W 4865   3.755   8.435  11.940
  802W        W 4866   0.787   0.181  10.471
  803W        W 4867   9.564   8.947   0.181
  804W        W 4868   4.898   1.617   3.687
  805W        W 4869   3.413  10.378  10.379
  806W        W 4870   3.098   8.528  10.365
  807W        W 4871   4.907   4.173  11.271
  808W        W 4872   6.197   1.403   0.245
  809W        W 4873   9.089   5.529  10.938
  810W        W 4874   0.407   6.046   8.813
  811W        W 4875   7.015   2.722   1.714
  812W        W 4876   2.658   3.218   1.978
  813W        W 4877   1.872   7.953   1.454
  814W        W 4878   1.928  10.403   2.665
  815W        W 4879   8.582   4.679  10.569
  816W        W 4880   9.908   8.388   3.291
  817W        W 4881   3.900   3.402   0.695
  818W        W 4882   5.004   4.514   3.611
  819W        W 4883   3.590   7.873   9.400
  820W        W 4884   5.079   8.437   8.912
  821W        W 4885   4.624   6.851   3.463
  822W        W 4886   6.945   8.039   2.538
  823W        W 4887  10.489   3.693   8.868
  824W        W 4888   8.510   9.974   2.165
  825W        W 4889   0.342   9.904   1.721
  826W        W 4890   6.923  10.490   9.693
  827W        W 4891   6.482   6.610   9.803
  828W        W 4892  10.236   6.121   3.563
  829W        W 4893   7.661   8.887   1.985
  830W        W 4894   9.105   7.566  11.952
  831W        W 4895  10.009   3.282  10.976
  832W        W 4896   6.120   0.052   0.714
  833W        W 4897   1.214   3.638  10.079
  834W        W 4898   9.818   1.927   8.580
  835W        W 4899   0.276   2.696   1.510
  836W        W 4900   9.355   8.376   1.971
  837W        W 4901   2.813   7.432   3.424
  838W        W 4902   0.054   6.584   0.703
  839W        W 4903   8.151   9.361   8.588
  840W        W 4904   2.911   1.625  10.516
  841W        W 4905   2.339   7.008   8.766
  842W        W 4906   3.265   8.446  10.935
  843W        W 4907   3.996   6.074   8.441
  844W        W 4908   5.545   3.854   3.563
  845W        W 4909   1.705   8.025   9.371
  846W        W 4910   7.553   8.372   1.845
  847W        W 4911  10.437   4.199   1.177
  848W        W 4912   7.771   6.427  10.784
  849W        W 4913   7.057   7.450   3.205
  850W        W 4914   9.678   6.467  10.731
  851W        W 4915   3.165   2.652   0.981
  852W        W 4916   2.989   1.771   0.061
  853W        W 4917   3.285   4.895  11.549
  854W        W 4918   5.173   5.747  11.862
  855W        W 4919   1.348   3.313   1.185
  856W        W 4920   9.023   3.565  10.833
  857W        W 4921   8.177   8.806   0.403
  858W        W 4922   2.740   6.970   1.453
  859W        W 4923   9.852   7.335   1.748
  860W        W 4924   5.161  10.477  11.353
  861W        W 4925   5.694   8.082   3.461
  862W        W 4926   3.347   9.387   3.474
  863W        W 4927  10.432   0.863   1.810
  864W        W 4928   7.457   6.543   3.718
  865W        W 4929   7.494   4.900  11.802
  866W        W 4930   6.472   8.851   2.527
  867W        W 4931   7.002   7.488   1.812
  868W        W 4932   1.927   4.776   2.517
  869W        W 4933   7.620   9.127   9.975
  870W        W 4934   0.261   4.264   0.468
  871W        W 4935   7.071   2.695   8.792
  872W        W 4936   8.141   3.228   1.502
  873W        W 4937   1.307   6.217   1.529
  874W        W 4938   4.244   4.684  11.729
  875W        W 4939  10.440   7.531  10.008
  876W        W 4940   9.598   0.662   9.935
  877W        W 4941   9.930   0.717  10.781
  878W        W 4942   4.129   4.560   3.693
  879W        W 4943   3.535   9.070   9.090
  880W        W 4944   3.310   9.268   2.461
  881W        W 4945   5.002   7.638   0.019
  882W        W 4946   8.616   5.061  11.378
  883W        W 4947   0.415   0.491   9.269
  884W        W 4948   0.963   8.579  10.217
  885W        W 4949   4.216   2.340   2.984
  886W        W 4950   0.469   8.312   1.249
  887W        W 4951   1.841   8.868   1.889
  888W        W 4952   5.548   3.178   8.050
  889W        W 4953   3.814   0.381   0.447
  890W        W 4954   1.187   5.160   9.703
  891W        W 4955   9.028   9.406   3.471
  892W        W 4956   1.627   0.942   1.088
  893W        W 4957   7.618   1.052   1.144
  894W        W 4958   9.986  10.034   1.252
  895W        W 4959   1.246   5.015   0.383
  896W        W 4960   1.741   0.717   9.482
  897W        W 4961   1.807   6.669   2.281
  898W        W 4962   7.832   8.952  10.422
  899W        W 4963  10.409   3.186   8.734
  900W        W 4964  10.291   7.959   8.690
  901W        W 4965   9.128   9.591  10.959
  902W        W 4966  10.110   9.951   8.989
  903W        W 4967   2.391   7.261   0.948
  904W        W 4968  10.057   9.085   0.345
  905W        W 4969   0.285   0.698  10.679
  906W        W 4970   4.787   0.830   2.177
  907W        W 4971   4.521   8.684   3.579
  908W        W 4972  10.378   8.570   0.227
  909W        W 4973   3.270   2.094  10.808
  910W        W 4974   6.515   0.739  11.275
  911W        W 4975   0.044   3.271   2.171
  912W        W 4976   5.139   7.190   2.217
  913W        W 4977   1.121   3.792   2.386
  914W        W 4978   7.625   9.279  11.909
  915W        W 4979   9.844   1.241   0.500
  916W        W 4980   5.625   7.703  10.430
  917W        W 4981   2.816   7.433   0.729
  918W        W 4982   8.506   3.589   3.317
  919W        W 4983   0.649   5.608  11.858
  920W        W 4984   2.179   9.561   1.471
  921W        W 4985   5.447   7.686   3.722
  922W        W 4986   0.468   8.459   0.390
  923W        W 4987   5.963   7.565  11.585
  924W        W 4988   6.630   7.195   0.822
  925W        W 4989   8.759   7.322   0.885
  926W        W 4990   4.972   0.773   2.674
  927W        W 4991   4.434   6.933  11.213
  928W        W 4992   7.475   5.013   3.528
  929W        W 4993   3.065   3.017   1.745
  930W        W 4994   8.631   3.289   1.749
  931W        W 4995   1.296   2.786   3.283
  932W        W 4996   7.536   8.553  10.276
  933W        W 4997   4.850   3.099   2.250
  934W        W 4998   5.814   2.242   9.209
  935W        W 4999   6.497   9.351  10.728
  936W        W 5000   7.113   7.404   0.922
  937W        W 5001   4.982   5.496   2.139
  938W        W 5002   4.635   7.589   9.040
  939W        W 5003   0.528   9.908   0.272
  940W        W 5004   3.097   2.830  10.312
  941W        W 5005   0.271   5.562   1.865
  942W        W 5006  10.361   9.956   2.763
  943W        W 5007   9.909   9.562   9.283
  944W        W 5008   7.112   9.877   2.185
  945W        W 5009   5.635   6.014   2.911
  946W        W 5010  10.064   2.518   2.814
  947W        W 5011   8.389   2.942   0.306
  948W        W 5012   3.801   7.056  11.334
  949W        W 5013   6.095   6.543  10.124
  950W        W 5014   8.056   5.550   2.394
  951W        W 5015   5.217   7.656   2.052
  952W        W 5016   6.013   9.572   0.519
  953W        W 5017   9.768  10.470   3.849
  954W        W 5018   6.065   0.020  11.270
  955W        W 5019   6.532   4.010   0.020
  956W        W 5020   7.732   2.473   0.650
  957W        W 5021   1.941   4.871   3.665
  958W        W 5022   6.583   9.133   9.884
  959W        W 5023   1.425   0.562   2.925
  960W        W 5024   9.520   6.963  10.748
  961W        W 5025   9.099   3.036   2.354
  962W        W 5026   9.884   0.942   3.807
  963W        W 5027   0.620   4.724   8.696
  964W        W 5028   3.321   6.165  10.502
  965W        W 5029   6.221   7.232   3.576
  966W        W 5030   2.798   3.697   2.127
  967W        W 5031   3.574   6.483   2.203
  968W        W 5032   5.241   2.102   1.231
  969W        W 5033   3.391   5.000   0.787
  970W        W 5034   2.674   0.172   9.277
  971W        W 5035   4.597   4.588   1.945
  972W        W 5036  10.108   7.232   2.444
  973W        W 5037   7.082   8.356   8.581
  974W        W 5038   5.228   2.215   2.108
  975W        W 5039   1.212   5.235   2.956
  976W        W 5040   8.128   1.791   9.016
  977W        W 5041   6.674   5.430   9.479
  978W        W 5042   6.500   4.136   0.936
  979W        W 5043   4.985   1.413  10.202
  980W        W 5044   2.189   6.005   8.575
  981W        W 5045   0.905   6.824   2.829
  982W        W 5046   7.155   3.115   2.042
  983W        W 5047   7.478   6.592   1.008
  984W        W 5048   2.929   9.550  11.775
  985W        W 5049   0.729   2.344   2.147
  986W        W 5050   4.569   8.193   9.921
  987W        W 5051   2.430   9.389   3.205
  988W        W 5052   4.555   1.242   9.419
  989W        W 5053   3.864   3.645   3.528
  990W        W 5054   6.273   1.539   9.457
  991W        W 5055   4.733   6.543   4.228
  992W        W 5056   6.272   1.442   3.265
  993W        W 5057   9.509   4.134  11.346
  994W        W 5058   2.307   7.957   3.573
  995W        W 5059   1.634   5.530   1.878
  996W        W 5060   8.683   1.580   1.534
  997W        W 5061   1.289   9.474   9.248
  998W        W 5062   0.862   6.837   8.732
  999W        W 5063   2.963   1.461   2.721
 1000W        W 5064   5.629   9.527   9.949
 1001W        W 5065   0.556   1.801   1.368
 1002W        W 5066   5.536   6.966   0.956
 1003W        W 5067   5.505   4.862  10.852
 1004W        W 5068   1.751   9.972  10.836
 1005W        W 5069   3.791   4.942  11.616
 1006W        W 5070   0.029   6.206  10.884
 1007W        W 5071   8.367   2.788  11.430
 1008W        W 5072   6.789   8.501  11.572
 1009W        W 5073   1.323   0.537   1.147
 1010W        W 5074   0.924   7.309   2.662
 1011W        W 5075   1.232   0.602   1.664
 1012W        W 5076   5.206   5.616   9.439
 1013W        W 5077   7.664   4.741   8.726
 1014W        W 5078   3.737   4.569   2.445
 1015W        W 5079   9.548   9.748   9.625
 1016W        W 5080   5.840   3.263   3.918
 1017W        W 5081   9.082   3.109  11.020
 1018W        W 5082   8.175   1.735   1.289
 1019W        W 5083   0.705   9.906  11.783
 1020W        W 5084   8.691   8.951   0.485
 1021W        W 5085   6.940   7.961   9.362
 1022W        W 5086   9.079   2.611  10.897
 1023W        W 5087   7.582   0.984   8.892
 1024W        W 5088   4.087   4.701  10.272
 1025W        W 5089   4.507   8.947   1.655
 1026W        W 5090   3.550   0.010   0.193
 1027W        W 5091   6.754   6.146   1.306
 1028W        W 5092   7.670   1.750   2.342
 1029W        W 5093   7.961   1.944  10.026
 1030W        W 5094   6.001   4.547   3.842
 1031W        W 5095   2.817   6.030   0.554
 1032W        W 5096   4.917  10.497   0.408
 1033W        W 5097   1.901   6.132   8.982
 1034W        W 5098   8.941   9.391   0.786
 1035W        W 5099   6.509   8.913  11.546
 1036W        W 5100   8.655   0.211  10.387
 1037W        W 5101  10.031   2.635  10.128
 1038W        W 5102   1.323   2.376   2.958
 1039W        W 5103   1.979   7.594   2.652
 1040W        W 5104   4.232   9.954   0.162
 1041W        W 5105   0.266   8.607   9.962
 1042W        W 5106   9.429   6.565  11.668
 1043W        W 5107   2.082   7.620   8.707
 1044W        W 5108   7.492   3.147  11.819
 1045W        W 5109   4.071   6.617   0.440
 1046W        W 5110   4.097   6.619   0.952
 1047W        W 5111   8.434  10.043   0.739
 1048W        W 5112   5.065   6.729   3.881
 1049W        W 5113   6.507   3.502   0.063
 1050W        W 5114   0.272   3.722   2.222
 1051W        W 5115   0.677   6.447   9.032
 1052W        W 5116   9.075   5.018   0.366
 1053W        W 5117   9.579   3.157   2.278
 1054W        W 5118   3.435   4.659   9.114
 1055W        W 5119   9.719   7.287  10.392
 1056W        W 5120   6.758   4.039   8.503
 1057W        W 5121   1.294   4.160  10.027
 1058W        W 5122   4.242   4.689  10.761
 1059W        W 5123   8.145   9.558  10.935
 1060W        W 5124   4.412   6.963   9.326
 1061W        W 5125   9.777   9.868   2.173
 1062W        W 5126   7.416   4.671   0.280
 1063W        W 5127   8.565   3.776   0.921
 1064W        W 5128   0.075   1.952  10.701
 1065W        W 5129   4.374   5.244   1.010
 1066W        W 5130   9.304   8.832   9.886
 1067W        W 5131   5.868   0.451   9.125
 1068W        W 5132   9.931   2.205   9.289
 1069W        W 5133   4.084   7.868   9.276
 1070W        W 5134   6.561   2.804   1.938
 1071W        W 5135   3.565   1.428   3.501
 1072W        W 5136   1.750   1.669   9.099
 1073W        W 5137   5.986  10.410   1.169
 1074W        W 5138   9.984   6.149   9.632
 1075W        W 5139   2.772   4.732   3.047
 1076W        W 5140   9.009   0.947   1.697
 1077W        W 5141   2.737   5.508   0.263
 1078W        W 5142   5.912   4.861   1.991
 1079W        W 5143   2.659  10.217   0.209
 1080W        W 5144   5.587   9.751   3.224
 1081W        W 5145   0.009   2.313   0.435
 1082W        W 5146   5.702   1.904   2.542
 1083W        W 5147   5.994  10.088   0.454
 1084W        W 5148   2.641   2.691  11.273
 1085W        W 5149   4.831   8.598   1.475
 1086W        W 5150   8.055   8.152   3.394
 1087W        W 5151   0.797  10.319   3.327
 1088W        W 5152   5.603   5.963   9.481
 1089W        W 5153   2.868   7.888   0.980
 1090W        W 5154   0.283   2.617   3.340
 1091W        W 5155   6.576   1.189  11.516
 1092W        W 5156   5.981   0.838   0.938
 1093W        W 5157   7.905   7.791   0.683
 1094W        W 5158   1.821   5.504   1.389
 1095W        W 5159   2.702   3.389  11.754
 1096W        W 5160   1.417   6.459   3.516
 1097W        W 5161   3.315   8.394   2.110
 1098W        W 5162   6.621   6.694   0.880
 1099W        W 5163   3.304   8.673   1.046
 1100W        W 5164   7.394   0.282   2.858
 1101W        W 5165   0.506   3.378  11.828
 1102W        W 5166   3.792   8.812   2.748
 1103W        W 5167   2.762   4.316   1.031
 1104W        W 5168   6.013   3.674   0.471
 1105W        W 5169   2.325   8.112   0.386
 1106W        W 5170   9.949   6.330  10.310
 1107W        W 5171   9.811   8.973   9.954
 1108W        W 5172   1.604   3.883   2.271
 1109W        W 5173   2.795   9.522   3.531
 1110W        W 5174   9.892   5.444   1.928
 1111W        W 5175   2.169   7.337   9.151
 1112W        W 5176  10.495   1.124   9.859
 1113W        W 5177   3.123  10.276   1.941
 1114W        W 5178   7.013  10.370   1.223
 1115W        W 5179   0.423   9.334   1.005
 1116W        W 5180   4.528   0.467   2.986
 1117W        W 5181   3.407   3.552   0.848
 1118W        W 5182   7.170  10.349  10.516
 1119W        W 5183   5.077  10.483  11.906
 1120W        W 5184   4.763   9.972   9.316
 1121W        W 5185   7.234   8.845   0.813
 1122W        W 5186   5.400   5.785   9.902
 1123W        W 5187   9.350   9.076   3.036
 1124W        W 5188   3.527   3.101  10.093
 1125W        W 5189   1.313   8.173  10.158
 1126W        W 5190   4.104   4.182  10.879
 1127W        W 5191   9.406   3.262   2.768
 1128W        W 5192   5.718  10.036   9.833
 1129W        W 5193   4.602   9.448   1.505
 1130W        W 5194   9.243   8.618   8.877
 1131W        W 5195   3.422   1.808  11.760
 1132W        W 5196   3.522   6.222   3.185
 1133W        W 5197   0.030   4.062  11.320
 1134W        W 5198   6.500   6.116  10.993
 1135W        W 5199   5.597   8.767   1.506
 1136W        W 5200   1.301   6.951  10.524
 1137W        W 5201   4.747   1.694   9.570
 1138W        W 5202   4.554   9.575   9.548
 1139W        W 5203   6.028   1.051   9.464
 1140W        W 5204   9.680   6.682   2.653
 1141W        W 5205   6.681   7.948  10.382
 1142W        W 5206   9.934   2.607   9.615
 1143W        W 5207  10.368   4.707   1.136
 1144W        W 5208   4.313   2.237   2.489
 1145W        W 5209   3.842   9.828  10.885
 1146W        W 5210   7.764   7.003   2.826
 1147W        W 5211   9.023   7.917  10.119
 1148W        W 5212   3.246   7.274  11.685
 1149W        W 5213   7.526   7.384  10.958
 1150W        W 5214  10.447   3.282   9.234
 1151W        W 5215   4.036   6.542   2.447
 1152W        W 5216   3.273   6.227   1.376
 1153W        W 5217   5.544   5.337  11.755
 1154W        W 5218   3.704   4.586   9.897
 1155W        W 5219  10.271   9.359   1.582
 1156W        W 5220   1.274   7.604   1.199
 1157W        W 5221   0.675   1.969  10.871
 1158W        W 5222   9.183   0.391   3.548
 1159W        W 5223  10.353   6.150   9.963
 1160W        W 5224   0.811  10.259   9.579
 1161W        W 5225   9.877   8.593   0.406
 1162W        W 5226   6.064   9.445   1.447
 1163W        W 5227   0.866   1.654   0.992
 1164W        W 5228   0.350   3.688  11.035
 1165W        W 5229   8.122   8.695  11.209
 1166W        W 5230   0.380   7.832   1.443
 1167W        W 5231   4.746   8.606   0.971
 1168W        W 5232   4.695   5.147   0.274
 1169W        W 5233   5.654   2.133   1.847
 1170W        W 5234   5.439   6.480   0.383
 1171W        W 5235   9.296   9.632   0.528
 1172W        W 5236   2.709   8.019   8.985
 1173W        W 5237   3.559   9.389  10.819
 1174W        W 5238   7.612   2.699   9.036
 1175W        W 5239   0.387   6.665  10.410
 1176W        W 5240   9.393   3.919  10.881
 1177W        W 5241   9.741   0.901   2.235
 1178W        W 5242   9.088   4.462   1.267
 1179W        W 5243   8.436  10.036   9.906
 1180W        W 5244   3.755   4.565  10.874
 1181W        W 5245   7.239   0.317   2.383
 1182W        W 5246   2.110   0.281   0.129
 1183W        W 5247   7.597   5.171   0.247
 1184W        W 5248   8.075   0.841   0.938
 1185W        W 5249   6.398  10.290  11.581
 1186W        W 5250   4.990   5.721   8.972
 1187W        W 5251   8.164   0.730  10.862
 1188W        W 5252   0.674   2.401   1.637
 1189W        W 5253   6.498   5.076   9.954
 1190W        W 5254   5.629   3.128  11.412
 1191W        W 5255   9.779   2.576  10.567
 1192W        W 5256   8.389   2.674   3.039
 1193W        W 5257   3.147   8.830  11.266
 1194W        W 5258   4.143   7.939   9.779
 1195W        W 5259   6.029   2.788  11.458
 1196W        W 5260   9.861   5.274   2.412
 1197W        W 5261   2.626   2.396   9.765
 1198W        W 5262   3.646   0.353   2.497
 1199W        W 5263   4.608   3.261   3.130
 1200W        W 5264   0.292   7.929   2.374
 1201W        W 5265   4.235   5.456   3.239
 1202W        W 5266   3.359   5.475   2.726
 1203W        W 5267   3.843   7.466   9.536
 1204W        W 5268   3.903   5.800   7.996
 1205W        W 5269   0.791   3.573   9.754
 1206W        W 5270   9.956   6.253   2.480
 1207W        W 5271   1.671   0.309  11.377
 1208W        W 5272   9.565   3.662  11.940
 1209W        W 5273   2.697   8.814   3.197
 1210W        W 5274   5.167   8.567   2.394
 1211W        W 5275   8.837   4.543   8.620
 1212W        W 5276   2.193   4.175   9.565
 1213W        W 5277   9.835   3.064  10.357
 1214W        W 5278   9.718   2.660   9.156
 1215W        W 5279   8.467   8.587   0.769
 1216W        W 5280   2.199   3.925   3.530
 1217W        W 5281   2.423   7.489   9.596
 1218W        W 5282   3.626   9.005  11.202
 1219W        W 5283   4.349   4.011   2.271
 1220W        W 5284   5.225   7.166  11.832
 1221W        W 5285   0.764   3.268   1.077
 1222W        W 5286   1.431   2.598  11.097
 1223W        W 5287   2.257   7.002  11.481
 1224W        W 5288   5.702   6.424   9.357
 1225W        W 5289   4.317   3.136  10.959
 1226W        W 5290   7.637   5.837  11.805
 1227W        W 5291   1.648   5.358   9.609
 1228W        W 5292   4.226   3.149   9.461
 1229W        W 5293   0.402   2.268   2.961
 1230W        W 5294   0.350   6.421   1.649
 1231W        W 5295   1.388  10.221   8.967
 1232W        W 5296   7.102   4.714  11.010
 1233W        W 5297   9.709   3.653  11.443
 1234W        W 5298   4.443   5.739   8.781
 1235W        W 5299   8.878   8.925   9.104
 1236W        W 5300   4.985   1.334   8.684
 1237W        W 5301   5.505  10.354  11.691
 1238W        W 5302   8.050   2.781   1.208
 1239W        W 5303   9.392  10.492   0.012
 1240W        W 5304   4.183   8.873   9.056
 1241W        W 5305   2.129   1.824   2.513
 1242W        W 5306  10.018   0.503   2.012
 1243W        W 5307   3.504   8.083   9.858
 1244W        W 5308   6.479   6.789   1.764
 1245W        W 5309   6.183   3.257  10.203
 1246W        W 5310   3.295   8.570   0.130
 1247W        W 5311   0.542   9.865   8.466
 1248W        W 5312   8.807   2.748   8.578
 1249W        W 5313   5.534   6.535   4.053
 1250W        W 5314   9.535   1.694   8.983
 1251W        W 5315   9.612   4.266   9.475
 1252W        W 5316   4.557   4.219   2.756
 1253W        W 5317   5.613   5.170   0.228
 1254W        W 5318   1.596   9.112  11.283
 1255W        W 5319   9.276   7.681  11.453
 1256W        W 5320   9.925   0.792   0.724
 1257W        W 5321   3.735   5.999   1.697
 1258W        W 5322   0.363   2.092   3.446
 1259W        W 5323   5.605  10.279  11.188
 1260W        W 5324   6.014  10.456   8.974
 1261W        W 5325   7.823   2.295   9.489
 1262W        W 5326   4.633   1.226   2.476
 1263W        W 5327   6.449   4.417   9.413
 1264W        W 5328   9.609   4.747  10.779
 1265W        W 5329   3.364   5.216  10.757
 1266W        W 5330   4.539   6.431   3.200
 1267W        W 5331   2.184  10.412   0.461
 1268W        W 5332   9.812   5.677   9.444
 1269W        W 5333   4.281   2.166   1.985
 1270W        W 5334  10.305   6.899   3.224
 1271W        W 5335   7.046   1.258  11.254
 1272W        W 5336   7.419   8.282  10.743
 1273W        W 5337   9.695  10.094   9.263
 1274W        W 5338   6.570   2.798   8.961
 1275W        W 5339   0.014  10.390   2.566
 1276W        W 5340   4.506   2.314   9.839
 1277W        W 5341   6.575   2.182   3.302
 1278W        W 5342   9.943   1.286   2.536
 1279W        W 5343   2.403   5.952   9.488
 1280W        W 5344   5.767   3.771   3.119
 1281W        W 5345   8.127   1.801   3.456
 1282W        W 5346   2.706   1.481   2.290
 1283W        W 5347   1.854   2.586  10.050
 1284W        W 5348   8.965   3.642   2.877
 1285W        W 5349   1.217   5.593  11.878
 1286W        W 5350   0.920   1.292  11.227
 1287W        W 5351   0.339   4.485   0.959
 1288W        W 5352   1.229   3.133  10.315
 1289W        W 5353  10.465   4.600   3.086
 1290W        W 5354   7.010   3.588   3.317
 1291W        W 5355   3.723   0.943   9.396
 1292W        W 5356   4.856   1.857  10.575
 1293W        W 5357   5.593  10.388   0.791
 1294W        W 5358   3.634   6.200  10.927
 1295W        W 5359  10.360   8.173   2.201
 1296W        W 5360   4.075   4.705  11.249
 1297W        W 5361  10.288   3.491   2.960
 1298W        W 5362   1.562  10.148  10.388
 1299W        W 5363   8.035  10.373   1.310
 1300W        W 5364   4.723   2.066   2.757
 1301W        W 5365   7.455   4.529   1.819
 1302W        W 5366   3.135   3.800  10.604
 1303W        W 5367   5.174   5.154   0.491
 1304W        W 5368   4.741   4.513  11.623
 1305W        W 5369   8.287   1.330   2.280
 1306W        W 5370   4.679   8.492   0.458
 1307W        W 5371   5.179   1.585   1.284
 1308W        W 5372   0.110   4.759   3.543
 1309W        W 5373   1.360   9.394  10.088
 1310W        W 5374   5.491   3.812  10.727
 1311W        W 5375   3.810  10.302   9.839
 1312W        W 5376   9.226   4.479   0.116
 1313W        W 5377   5.039   4.076   1.156
 1314W        W 5378   4.916   5.587   1.212
 1315W        W 5379   7.521   1.775  10.855
 1316W        W 5380   2.300   9.456   9.147
 1317W        W 5381   2.663   7.966   3.221
 1318W        W 5382   7.463   7.140   8.883
 1319W        W 5383   3.792   6.261   0.722
 1320W        W 5384   0.567   0.339   0.265
 1321W        W 5385   3.146   3.311   2.194
 1322W        W 5386   4.908   2.073   0.408
 1323W        W 5387   6.902   2.203   8.921
 1324W        W 5388   6.498  10.190   2.410
 1325W        W 5389  10.338   6.593   9.579
 1326W        W 5390   4.600   5.029  10.091
 1327W        W 5391   9.498   0.555   0.886
 1328W        W 5392   7.490   3.311   3.192
 1329W        W 5393   3.358   5.887   4.049
 1330W        W 5394   0.035   1.827   0.602
 1331W        W 5395   8.101   1.715  11.043
 1332W        W 5396   7.881   3.458  11.134
 1333W        W 5397   4.786   2.011  11.076
 1334W        W 5398   4.482   5.711   0.211
 1335W        W 5399   8.864   6.088   2.765
 1336W        W 5400   4.023   3.630   0.266
 1337W        W 5401   4.171   2.726   0.701
 1338W        W 5402   7.444   9.869  10.585
 1339W        W 5403  10.282   7.047   3.758
 1340W        W 5404   8.553   1.886   9.263
 1341W        W 5405   3.151   7.846   3.365
 1342W        W 5406   7.484   6.085  10.475
 1343W        W 5407   0.270   2.209   1.873
 1344W        W 5408   3.120   8.474   9.826
 1345W        W 5409   9.805   9.833  10.112
 1346W        W 5410   5.934   1.090   3.445
 1347W        W 5411   3.855   2.683   1.207
 1348W        W 5412   7.297   9.002  10.342
 1349W        W 5413   9.789  10.348   1.925
 1350W        W 5414   9.793   0.365   9.236
 1351W        W 5415   5.964   2.197   9.681
 1352W        W 5416   5.667   0.865   8.688
 1353W        W 5417   0.428   6.780   9.925
 1354W        W 5418   2.558   5.607   0.734
 1355W        W 5419   1.227   3.232   9.775
 1356W        W 5420   0.776   5.699  10.912
 1357W        W 5421   0.351   3.409   0.778
 1358W        W 5422   7.944   4.712   2.874
 1359W        W 5423   7.001   6.968   8.987
 1360W        W 5424   5.580   9.324   0.405
 1361W        W 5425   2.710   3.885   0.725
 1362W        W 5426   8.311   8.533  11.698
 1363W        W 5427   2.461   6.881   0.082
 1364W        W 5428   7.748   8.636   0.746
 1365W        W 5429   1.776   9.895   2.701
 1366W        W 5430   5.067   4.176  10.765
 1367W        W 5431   0.446   5.580   3.232
 1368W        W 5432   7.276   0.301   1.044
 1369W        W 5433   7.562   2.154   2.716
 1370W        W 5434   5.685   2.478  10.014
 1371W        W 5435   0.328   4.175  10.916
 1372W        W 5436   6.959   3.730   1.714
 1373W        W 5437   3.841   9.634   0.171
 1374W        W 5438   3.241   9.314   9.490
 1375W        W 5439   8.155  10.472  11.873
 1376W        W 5440   3.875   5.765   0.669
 1377W        W 5441   8.374   0.207   1.519
 1378W        W 5442   8.859   2.308   9.353
 1379W        W 5443   1.899   2.801  10.897
 1380W        W 5444   7.107   6.606   9.864
 1381W        W 5445   2.467   3.767   1.146
 1382W        W 5446   6.083   7.033   1.508
 1383W        W 5447   1.811   7.447   1.303
 1384W        W 5448   5.961   6.112  10.397
 1385W        W 5449   9.324   1.473   9.383
 1386W        W 5450   9.469   4.216   1.734
 1387W        W 5451   8.920   8.588  11.084
 1388W        W 5452   8.969   4.228   3.421
 1389W        W 5453   3.696   7.187   3.387
 1390W        W 5454   3.143   4.029   1.839
 1391W        W 5455   2.809   7.898  11.514
 1392W        W 5456   3.392   8.021   0.200
 1393W        W 5457   3.812   5.075   8.581
 1394W        W 5458   0.466   7.359   0.551
 1395W        W 5459   2.849   7.632  10.398
 1396W        W 5460   5.959   3.566  10.806
 1397W        W 5461   2.154   6.903   9.429
 1398W        W 5462   5.050   5.494   2.648
 1399W        W 5463   9.355   1.018   0.431
 1400W        W 5464   4.974   8.105  10.813
 1401W        W 5465   0.390   8.151   3.325
 1402W        W 5466   4.638   0.828   0.151
 1403W        W 5467   6.608   4.200   2.803
 1404W        W 5468   0.015   7.067   9.778
 1405W        W 5469   1.288   3.553  10.597
 1406W        W 5470   2.625   5.532   1.729
 1407W        W 5471   0.683   9.849  10.319
 1408W        W 5472   3.104   9.698   2.278
 1409W        W 5473   1.707   8.021   8.813
 1410W        W 5474   8.546   9.471  11.311
 1411W        W 5475   5.930   3.081  10.614
 1412W        W 5476   7.000  10.429   9.196
 1413W        W 5477   0.680   2.261  10.003
 1414W        W 5478   5.981   7.336   3.097
 1415W        W 5479   5.472   6.080  10.303
 1416W        W 5480   5.498   9.410  11.432
 1417W        W 5481   4.213   4.445   3.206
 1418W        W 5482   7.185   5.164   2.369
 1419W        W 5483   3.431   7.021   2.827
 1420W        W 5484   1.873   5.816   3.782
 1421W        W 5485   8.797   6.872  10.246
 1422W        W 5486   1.279   7.640  10.038
 1423W        W 5487   3.967   8.747  10.285
 1424W        W 5488   5.075  10.063   1.371
 1425W        W 5489   6.953   5.691   8.655
 1426W        W 5490   2.893  10.374   9.662
 1427W        W 5491   6.773   2.941  10.792
 1428W        W 5492   3.044  10.254   9.192
 1429W        W 5493   8.098   2.910   9.944
 1430W        W 5494   0.924   5.620   3.467
 1431W        W 5495   3.408   9.777   9.339
 1432W        W 5496   1.632   1.704   8.567
 1433W        W 5497   9.874   4.698   9.566
 1434W        W 5498   1.184   3.450   0.735
 1435W        W 5499   9.781   5.256   3.431
 1436W        W 5500   7.859   2.438  11.410
 1437W        W 5501   7.106   5.754   9.552
 1438W        W 5502   4.190   5.272   1.973
 1439W        W 5503   5.970   4.761  10.679
 1440W        W 5504   8.489   2.874   0.921
 1441W        W 5505   0.927   6.540   3.260
 1442W        W 5506   9.522   1.335  10.267
 1443W        W 5507   3.392   4.350   0.308
 1444W        W 5508   9.365   4.968   2.418
 1445W        W 5509   9.318   3.277  11.454
 1446W        W 5510   9.499   4.691  10.275
 1447W        W 5511   2.824   8.366   2.266
 1448W        W 5512   0.445   5.891   1.520
 1449W        W 5513   8.552   8.230   3.588
 1450W        W 5514   5.315   1.851   3.520
 1451W        W 5515   7.641   5.806   9.605
 1452W        W 5516   3.531   8.009  10.956
 1453W        W 5517   3.171   6.249   2.392
 1454W        W 5518   1.390   0.946  10.383
 1455W        W 5519   5.164   5.189  11.062
 1456W        W 5520   5.720   4.393  11.964
 1457W        W 5521   6.956   6.466   9.016
 1458W        W 5522   7.027   2.831  10.289
 1459W        W 5523   7.936   8.604   1.617
 1460W        W 5524   9.776   9.793  11.918
 1461W        W 5525   1.729   1.141  11.684
 1462W        W 5526  10.364   4.500   0.690
 1463W        W 5527   5.649   4.227   0.475
 1464W        W 5528   9.825   3.050   3.466
 1465W        W 5529   6.031   1.272   1.193
 1466W        W 5530   0.256   0.949   2.268
 1467W        W 5531   3.618   0.749  10.225
 1468W        W 5532   4.428  10.486   1.530
 1469W        W 5533   8.823   3.190   3.311
 1470W        W 5534   4.250   0.832   9.463
 1471W        W 5535   6.470   2.476   0.402
 1472W        W 5536   6.570   0.311  10.929
 1473W        W 5537   2.732  10.326  11.153
 1474W        W 5538   5.297   9.750   1.720
 1475W        W 5539   3.275   1.380   1.180
 1476W        W 5540   2.282   0.040  11.036
 1477W        W 5541   1.358   5.720   1.471
 1478W        W 5542   7.946   0.298  11.541
 1479W        W 5543   9.082   3.738   0.165
 1480W        W 5544   1.714   1.180   9.263
 1481W        W 5545   7.146   1.279   1.223
 1482W        W 5546   9.780   3.306   1.283
 1483W        W 5547   3.645   5.062   3.128
 1484W        W 5548   8.523   5.206   1.246
 1485W        W 5549   8.352   3.645   9.413
 1486W        W 5550   2.683   8.165  10.358
 1487W        W 5551   3.619   7.480   0.722
 1488W        W 5552   6.010   5.129   9.303
 1489W        W 5553   8.367   9.259   0.263
 1490W        W 5554   7.061   9.418   1.455
 1491W        W 5555   6.192   7.526   9.331
 1492W        W 5556   8.109   4.016   0.817
 1493W        W 5557   8.188   9.948   9.460
 1494W        W 5558   0.821   0.595   1.014
 1495W        W 5559   7.327   5.090   0.664
 1496W        W 5560  10.464   1.348  11.369
 1497W        W 5561   3.819   9.290  10.367
 1498W        W 5562   2.758   7.394   2.307
 1499W        W 5563   8.971   3.161   0.928
 1500W        W 5564   4.024   7.457  11.988
 1501W        W 5565   6.753   7.747  11.036
 1502W        W 5566   9.538   4.089   3.417
 1503W        W 5567   1.639   5.112   3.265
 1504W        W 5568   4.681   9.975   9.839
 1505W        W 5569   0.938   8.193   0.402
 1506W        W 5570   9.935   3.641   1.670
 1507W        W 5571   8.820   6.110  11.359
 1508W        W 5572   5.181   8.008   3.233
 1509W        W 5573   1.274   2.106  11.392
 1510W        W 5574   6.451   6.506   2.704
 1511W        W 5575   0.657   5.674   9.071
 1512W        W 5576   1.809   4.366   9.286
 1513W        W 5577   8.545   4.713   0.995
 1514W        W 5578   0.893   8.978  10.854
 1515W        W 5579   6.164   7.975   8.535
 1516W        W 5580   6.009   9.013   1.712
 1517W        W 5581   8.152   4.997   9.546
 1518W        W 5582   2.753   4.196   8.878
 1519W        W 5583   9.502   9.403  10.614
 1520W        W 5584   3.723   7.674   3.219
 1521W        W 5585   0.859   6.013  11.335
 1522W        W 5586   9.943   2.416   1.157
 1523W        W 5587   8.595   1.465   1.066
 1524W        W 5588   3.261   2.906   0.498
 1525W        W 5589   4.112   4.943   3.295
 1526W        W 5590   0.255   7.824   8.883
 1527W        W 5591   3.776   0.903   2.237
 1528W        W 5592  10.268   0.822  11.425
 1529W        W 5593  10.241   0.960   2.266
 1530W        W 5594   3.361   4.265   2.231
 1531W        W 5595   0.796   7.388   9.431
 1532W        W 5596   5.759   6.321  11.644
 1533W        W 5597   1.946   1.543   0.221
 1534W        W 5598   2.848   0.940   2.927
 1535W        W 5599   1.936   2.214   1.428
 1536W        W 5600   2.611   7.986   9.485
 1537W        W 5601   4.201   2.762   9.928
 1538W        W 5602   6.975   7.911   1.041
 1539W        W 5603   6.824  10.031   8.899
 1540W        W 5604   3.190   6.659   1.053
 1541W        W 5605   4.267   7.512   2.053
 1542W        W 5606   6.004   5.724   2.195
 1543W        W 5607   8.823   7.423  11.498
 1544W        W 5608   3.336   0.416   0.667
 1545W        W 5609  10.220   0.464  11.802
 1546W        W 5610   2.445  10.414  10.025
 1547W        W 5611   7.748   6.458   3.245
 1548W        W 5612   9.026   9.869   1.463
 1549W        W 5613   5.139   9.571  10.747
 1550W        W 5614   7.882   5.714  11.208
 1551W        W 5615  10.356   1.670   1.594
 1552W        W 5616   1.755   3.561   0.845
 1553W        W 5617   4.967   5.029   3.402
 1554W        W 5618   3.750   3.660   2.636
 1555W        W 5619   4.186   4.210   0.916
 1556W        W 5620   3.669   0.316  10.557
 1557W        W 5621   6.687   0.626   3.226
 1558W        W 5622   0.762   4.771   0.314
 1559W        W 5623   6.837   2.675   3.277
 1560W        W 5624   0.933   1.740   9.394
 1561W        W 5625   7.744   9.024   8.554
 1562W        W 5626   8.178   3.185   9.263
 1563W        W 5627   5.470   8.020  10.820
 1564W        W 5628   3.582   3.656  10.893
 1565W        W 5629   5.059   7.823   9.912
 1566W        W 5630   3.265   6.194   0.821
 1567W        W 5631   1.143   9.444   2.261
 1568W        W 5632   2.588   8.071   2.721
 1569W        W 5633   5.084  10.410   9.296
 1570W        W 5634   8.426   4.435   2.885
 1571W        W 5635   9.979   4.146   1.474
 1572W        W 5636   2.138   2.730   2.581
 1573W        W 5637   9.241   0.302  11.503
 1574W        W 5638   9.850   7.963  10.616
 1575W        W 5639   5.150   7.525   8.195
 1576W        W 5640   1.617   9.879   9.958
 1577W        W 5641   1.232   5.663   9.551
 1578W        W 5642   6.552   5.997  11.499
 1579W        W 5643   4.507   4.489   0.579
 1580W        W 5644   1.206   4.744   9.367
 1581W        W 5645   8.643   6.254   1.259
 1582W        W 5646   3.570   9.996   1.406
 1583W        W 5647  10.486   2.819  11.139
 1584W        W 5648   6.147   4.668   2.954
 1585W        W 5649  10.402   9.470   1.086
 1586W        W 5650   9.841   9.286  11.928
 1587W        W 5651   4.989   3.707   8.529
 1588W        W 5652   2.683   0.663   9.464
 1589W        W 5653   7.941   5.415  10.762
 1590W        W 5654   5.137   2.350   0.788
 1591W        W 5655   8.303   7.870   2.264
 1592W        W 5656   1.883   2.360  11.184
 1593W        W 5657   3.224   3.795   2.433
 1594W        W 5658   7.077   8.515   2.737
 1595W        W 5659   7.542   3.356   2.685
 1596W        W 5660   1.317   4.694   3.450
 1597W        W 5661   3.229   1.960   2.951
 1598W        W 5662   8.303  10.310   1.828
 1599W        W 5663   2.402   2.447   1.387
 1600W        W 5664   3.465   6.906   1.958
 1601W        W 5665   7.669   0.023   2.499
 1602W        W 5666   1.341   6.955   9.014
 1603W        W 5667   7.194  10.351   2.621
 1604W        W 5668   6.547   2.237   2.327
 1605W        W 5669   1.822   9.152   2.324
 1606W        W 5670   3.674   7.227  10.046
 1607W        W 5671   2.820   2.592   1.891
 1608W        W 5672   4.902   0.245   2.598
 1609W        W 5673   7.712   1.934   3.188
 1610W        W 5674   2.952   3.610   1.091
 1611W        W 5675   3.571   2.621   0.196
 1612W        W 5676   6.733   0.142   1.563
 1613W        W 5677   8.446   4.607   2.000
 1614W        W 5678   7.987   6.004   3.145
 1615W        W 5679   1.060   9.959   9.265
 1616W        W 5680   8.552   9.260  10.374
 1617W        W 5681   8.078   0.526   9.687
 1618W        W 5682   0.220  10.399   1.597
 1619W        W 5683   8.413   0.732   9.065
 1620W        W 5684   4.735   6.465   9.433
 1621W        W 5685   3.204   9.111  11.981
 1622W        W 5686  10.053   9.941   9.581
 1623W        W 5687  10.080   4.734  10.947
 1624W        W 5688   2.162   1.676  11.725
 1625W        W 5689   1.071   0.784  11.164
 1626W        W 5690   8.877   8.007   0.148
 1627W        W 5691   3.899   5.146   0.807
 1628W        W 5692   5.561   5.877   1.017
 1629W        W 5693  10.292   8.860   9.763
 1630W        W 5694   0.221   7.913   9.380
 1631W        W 5695   6.211   6.504   3.158
 1632W        W 5696   3.179   6.057   3.578
 1633W        W 5697   9.503   2.951   9.563
 1634W        W 5698   6.448   1.862   0.472
 1635W        W 5699   0.878   1.266   2.887
 1636W        W 5700   1.697   1.518   2.346
 1637W        W 5701   5.294   7.488   9.244
 1638W        W 5702   8.826   9.976  10.747
 1639W        W 5703   8.235   7.854   0.293
 1640W        W 5704   1.391   1.974   9.532
 1641W        W 5705   4.160   9.938  10.002
 1642W        W 5706   4.935   6.482   1.449
 1643W        W 5707   2.019   8.011   0.945
 1644W        W 5708   1.302   0.756   9.045
 1645W        W 5709   6.965   0.411  10.007
 1646W        W 5710   7.231   1.838   3.352
 1647W        W 5711   3.644   1.746   0.213
 1648W        W 5712   3.194   3.575   2.899
 1649W        W 5713   2.120   3.851   0.159
 1650W        W 5714   9.449   3.258  10.001
 1651W        W 5715   8.282   6.284  10.801
 1652W        W 5716   6.649   4.995   0.437
 1653W        W 5717   1.078   5.154  11.413
 1654W        W 5718   0.463   1.316  10.012
 1655W        W 5719   9.866   7.657   2.687
 1656W        W 5720   0.082   7.072   2.240
 1657W        W 5721   4.235   5.136  11.018
 1658W        W 5722   3.100   8.203  11.822
 1659W        W 5723   1.028   9.995   0.176
 1660W        W 5724   9.601   6.230   9.954
 1661W        W 5725   8.707   6.078   2.267
 1662W        W 5726   7.506   2.420   3.168
 1663W        W 5727   4.113   0.319   2.274
 1664W        W 5728   1.936   1.711  10.636
 1665W        W 5729   1.742   4.056  11.819
 1666W        W 5730   0.472   2.690  10.190
 1667W        W 5731   6.925   2.578   9.281
 1668W        W 5732   6.966   5.867   0.853
 1669W        W 5733   6.212   0.920  11.930
 1670W        W 5734   2.919   5.591   2.956
 1671W        W 5735  10.334   3.717   1.966
 1672W        W 5736   9.189   3.757  11.345
 1673W        W 5737   6.237   4.034   3.130
 1674W        W 5738   6.277  10.094   0.867
 1675W        W 5739   0.681   0.877   1.413
 1676W        W 5740   8.767   4.629   0.306
 1677W        W 5741   4.581   4.772  11.224
 1678W        W 5742   1.417   1.881  10.494
 1679W        W 5743   5.800   9.851   1.751
 1680W        W 5744   5.154   8.518  11.607
 1681W        W 5745   4.069   7.515   0.972
 1682W        W 5746   4.682   5.569   2.979
 1683W        W 5747   4.573   0.343   2.041
 1684W        W 5748   9.446   1.191   8.963
 1685W        W 5749  10.221   1.865  11.061
 1686W        W 5750   6.605   7.694   8.529
 1687W        W 5751   7.938   6.022   2.642
 1688W        W 5752   5.022   3.350   8.953
 1689W        W 5753   3.680   6.345  11.768
 1690W        W 5754   7.894   5.933  10.724
 1691W        W 5755   3.799   5.958   2.709
 1692W        W 5756   4.226   5.179  11.551
 1693W        W 5757   6.571   5.717   3.383
 1694W        W 5758   2.970   4.698   8.924
 1695W        W 5759   2.724   3.748   2.656
 1696W        W 5760   0.760   2.802   3.251
 1697W        W 5761   6.014   9.151   0.197
 1698W        W 5762   5.533   8.934   1.984
 1699W        W 5763   7.020   6.078  11.312
 1700W        W 5764   1.352   9.126  11.751
 1701W        W 5765   3.430   8.013   2.936
 1702W        W 5766   2.651   4.070   9.368
 1703W        W 5767   5.044   3.645   3.746
 1704W        W 5768   7.084   2.830  11.844
 1705W        W 5769   8.168   4.154   1.318
 1706W        W 5770   5.172   3.288  11.240
 1707W        W 5771   5.654   1.870   1.398
 1708W        W 5772   4.037   3.240   1.886
 1709W        W 5773   7.381   0.807   2.125
 1710W        W 5774   7.028   1.431  11.721
 1711W        W 5775   8.021   4.105   2.805
 1712W        W 5776   5.246   1.688   0.510
 1713W        W 5777   9.452   0.849   3.546
 1714W        W 5778   8.372   8.844   1.382
 1715W        W 5779  10.113   7.132  10.086
 1716W        W 5780   0.418   2.250  10.460
 1717W        W 5781   4.048   1.977   3.307
 1718W        W 5782   3.055   1.674   1.980
 1719W        W 5783   8.405   5.976  10.411
 1720W        W 5784   2.227   0.932   9.459
 1721W        W 5785   0.425   3.884  11.888
 1722W        W 5786  10.050   1.757   2.358
 1723W        W 5787   4.210   9.606  10.392
 1724W        W 5788   5.240   6.625   9.469
 1725W        W 5789   9.010   1.327   3.557
 1726W        W 5790   5.409   5.572   1.391
 1727W        W 5791   7.482   6.229   9.353
 1728W        W 5792   5.199   4.798   0.860
 1729W        W 5793   1.708   9.428  11.947
 1730W        W 5794   2.835   8.830   0.206
 1731W        W 5795   0.277   5.027   3.122
 1732W        W 5796   8.921   4.594   1.717
 1733W        W 5797   4.762  10.330   2.959
 1734W        W 5798   5.703   4.521  11.184
 1735W        W 5799   7.682  10.400  10.461
 1736W        W 5800   8.150   6.761  11.552
 1737W        W 5801   0.462   7.229   0.042
 1738W        W 5802   7.431   4.815   9.465
 1739W        W 5803   5.980   7.879  10.114
 1740W        W 5804   0.114   7.499  10.500
 1741W        W 5805   7.948   9.271   9.591
 1742W        W 5806   6.259   7.011  10.042
 1743W        W 5807   8.598   5.130   0.361
 1744W        W 5808   9.406   4.698   0.533
 1745W        W 5809   5.533   4.785   2.334
 1746W        W 5810   5.585   3.630  11.255
 1747W        W 5811   8.013   8.828   9.876
 1748W        W 5812   9.469   0.348   0.423
 1749W        W 5813   8.982   7.215   9.401
 1750W        W 5814   8.890   8.065   9.636
 1751W        W 5815   7.641   5.590  10.395
 1752W        W 5816   5.070   1.281   2.853
 1753W        W 5817   2.199   0.772   0.304
 1754W        W 5818   3.607   3.534   9.850
 1755W        W 5819  10.340   6.162   2.051
 1756W        W 5820   4.253   3.695   0.967
 1757W        W 5821   9.341   7.451   9.089
 1758W        W 5822   2.159   3.796   1.541
 1759W        W 5823   9.047   6.226  11.824
 1760W        W 5824   4.705   1.319   3.307
 1761W        W 5825  10.472   1.854   2.103
 1762W        W 5826   9.721   5.126  10.463
 1763W        W 5827   1.495   1.704  10.001
 1764W        W 5828   1.228   3.315   3.337
 1765W        W 5829   4.696   9.826   0.307
 1766W        W 5830  10.015   8.519   1.424
 1767W        W 5831   2.180   5.041  10.723
 1768W        W 5832   9.560   2.214   8.941
 1769W        W 5833   4.776   7.637  10.727
 1770W        W 5834   8.205   5.376  11.418
 1771W        W 5835   6.906   0.366   2.843
 1772W        W 5836   7.084   9.854   1.201
 1773W        W 5837   2.950   8.362  11.352
 1774W        W 5838   3.266   1.042   3.303
 1775W        W 5839   6.551   5.734   9.058
 1776W        W 5840   7.869   4.530   9.560
 1777W        W 5841   4.276   4.058   0.415
 1778W        W 5842   9.612   0.325   1.722
 1779W        W 5843   9.675   7.985   3.082
 1780W        W 5844   2.213   6.416   2.068
 1781W        W 5845   9.981   6.850  10.501
 1782W        W 5846   2.634   0.785   1.700
 1783W        W 5847   8.328   2.338   9.245
 1784W        W 5848  10.121   7.461  11.797
 1785W        W 5849   7.539   4.386   9.189
 1786W        W 5850   0.393   3.658   3.216
 1787W        W 5851   7.923   7.373   8.759
 1788W        W 5852   1.057   8.350   0.934
 1789W        W 5853   0.884   1.606   2.473
 1790W        W 5854   0.343   1.400   0.737
 1791W        W 5855   9.425   0.803   1.415
 1792W        W 5856   0.483   4.797  11.881
 1793W        W 5857   6.143   2.735   9.964
 1794W        W 5858   6.655   0.887   9.085
 1795W        W 5859   7.235   8.329   9.523
 1796W        W 5860   4.569   9.481  10.049
 1797W        W 5861   7.077   3.713   8.755
 1798W        W 5862   0.852   7.085   0.348
 1799W        W 5863   6.404   8.731   3.422
 1800W        W 5864   8.049  10.456   3.262
 1801W        W 5865   8.317   3.733  11.027
 1802W        W 5866  10.122   6.570   2.868
 1803W        W 5867   7.389   5.715  11.374
 1804W        W 5868   6.008   5.637  10.830
 1805W        W 5869   1.658   7.353   9.889
 1806W        W 5870   3.842   2.729   1.757
 1807W        W 5871   2.121   0.090   1.392
 1808W        W 5872   8.413   7.479   1.949
 1809W        W 5873   4.218   4.979   2.369
 1810W        W 5874   8.843   2.113  10.367
 1811W        W 5875   4.698   5.496   0.714
 1812W        W 5876   4.659   7.887   0.433
 1813W        W 5877   7.443   2.726  11.472
 1814W        W 5878   9.125   7.075  11.736
 1815W        W 5879  10.446   6.969   2.726
 1816W        W 5880   6.500   4.930   9.478
 1817W        W 5881   6.022   5.231  10.482
 1818W        W 5882   1.614   9.636  10.464
 1819W        W 5883   0.219   9.009  10.353
 1820W        W 5884   9.950   9.459   9.785
 1821W        W 5885   2.843   4.714  11.167
 1822W        W 5886   5.410   4.093  11.165
 1823W        W 5887  10.410   0.213   3.455
 1824W        W 5888   3.715   2.851   2.805
 1825W        W 5889   2.382   3.651  11.153
 1826W        W 5890   4.203   7.062   1.222
 1827W        W 5891   7.101   5.460   1.773
 1828W        W 5892   5.936   9.461   9.149
 1829W        W 5893   1.172   6.494   9.152
 1830W        W 5894   4.661   4.053   0.789
 1831W        W 5895  10.227   8.814  11.258
 1832W        W 5896   1.209   1.848   2.154
 1833W        W 5897  10.007   0.956   9.825
 1834W        W 5898   7.104   0.833   2.966
 1835W        W 5899   0.191   0.788   1.384
 1836W        W 5900   2.905   5.787   9.866
 1837W        W 5901   8.040   7.767   1.791
 1838W        W 5902   2.196   9.816   2.981
 1839W        W 5903   0.264   2.595  11.545
 1840W        W 5904   2.975   5.222  11.324
 1841W        W 5905   0.267   5.229  11.697
 1842W        W 5906   2.790   3.195   1.347
 1843W        W 5907   6.743   6.500   3.151
 1844W        W 5908   7.867   5.784   0.955
 1845W        W 5909   7.553   4.664  11.279
 1846W        W 5910   0.258   0.932  11.463
 1847W        W 5911   1.505   1.785   3.603
 1848W        W 5912   8.530   6.371   9.426
 1849W        W 5913   5.144   4.268   0.672
 1850W        W 5914   5.731  10.322   2.940
 1851W        W 5915   5.684   2.881   1.432
 1852W        W 5916   0.203  10.061  11.874
 1853W        W 5917   2.710   2.361   0.825
 1854W        W 5918   4.493   0.267  10.911
 1855W        W 5919   3.387   9.465   2.942
 1856W        W 5920   9.967   9.374  10.292
 1857W        W 5921   9.010   9.403   9.983
 1858W        W 5922   3.627   4.529  11.400
 1859W        W 5923   1.804   1.235   1.913
 1860W        W 5924   6.748   5.068   8.317
 1861W        W 5925   8.516   9.546   9.951
 1862W        W 5926   9.415   1.468   0.197
 1863W        W 5927   6.096   5.445   0.814
 1864W        W 5928   9.205   0.454   2.658
 1865W        W 5929   2.919   5.490  10.829
 1866W        W 5930   4.131   3.608  10.860
 1867W        W 5931   1.454  10.397   2.372
 1868W        W 5932   4.995   2.719  10.557
 1869W        W 5933   4.072   1.271   9.641
 1870W        W 5934   1.779   4.785  11.106
 1871W        W 5935   9.369  10.164   2.260
 1872W        W 5936   3.227   7.523   1.026
 1873W        W 5937   5.627   0.754  10.237
 1874W        W 5938   3.295   2.726   9.810
 1875W        W 5939   3.148   9.091   8.625
 1876W        W 5940   9.934   0.208  10.809
 1877W        W 5941   5.603   5.510   0.654
 1878W        W 5942   2.280   6.923  10.444
 1879W        W 5943   5.789   3.999  10.347
 1880W        W 5944   8.592  10.272  11.685
 1881W        W 5945   3.749   5.053  10.107
 1882W        W 5946   1.932   3.365   0.365
 1883W        W 5947   6.481   3.852   0.500
 1884W        W 5948   8.909   0.194  11.901
 1885W        W 5949   6.431   6.302   9.165
 1886W        W 5950   8.298   4.702   0.501
 1887W        W 5951   6.111   2.323   3.131
 1888W        W 5952   4.530   6.654  11.667
 1889W        W 5953   9.164   1.922  11.984
 1890W        W 5954   1.475   0.753  10.833
 1891W        W 5955   1.653   8.880   8.405
 1892W        W 5956   3.791   5.188   1.675
 1893W        W 5957   2.502   6.241   2.835
 1894W        W 5958  10.233   0.334   8.955
 1895W        W 5959  10.007   2.764  10.992
 1896W        W 5960   6.215   7.466   8.799
 1897W        W 5961   5.500   4.293   9.882
 1898W        W 5962   8.828   8.925  10.087
 1899W        W 5963   8.359   2.677  10.549
 1900W        W 5964   5.432   9.192   1.262
 1901W        W 5965   3.293   2.620  10.866
 1902W        W 5966   9.210   0.971   9.393
 1903W        W 5967   7.532   3.420   8.471
 1904W        W 5968   6.126   6.997   0.995
 1905W        W 5969   5.684   0.234  10.423
 1906W        W 5970   9.739   8.448   9.920
 1907W        W 5971   0.426   7.015   9.477
 1908W        W 5972   2.591   3.363   0.814
 1909W        W 5973   0.728   6.502   9.538
 1910W        W 5974   1.686   8.186   2.310
 1911W        W 5975   7.905   2.889  10.412
 1912W        W 5976   4.699   0.835   9.714
 1913W        W 5977   9.825   1.033   8.656
 1914W        W 5978   5.734   2.963  10.163
 1915W        W 5979   4.274   8.987   9.959
 1916W        W 5980   5.513   8.356   0.214
 1917W        W 5981   1.448   0.452   0.650
 1918W        W 5982   4.165   9.739   1.278
 1919W        W 5983   2.035   5.549  10.513
 1920W        W 5984   7.823   7.500   9.763
 1921W        W 5985   2.311   8.779  11.860
 1922W        W 5986   3.005   1.749   8.738
 1923W        W 5987   5.221   8.921   3.312
 1924W        W 5988   6.059   0.915  10.007
 1925W        W 5989   6.178   7.593   2.180
 1926W        W 5990   2.155   7.760   0.069
 1927W        W 5991   7.535   9.981   2.501
 1928W        W 5992   8.610   2.651   3.503
 1929W        W 5993  10.481   5.171   1.701
 1930W        W 5994   9.821   4.572   1.824
 1931W        W 5995   7.898   7.173  10.650
 1932W        W 5996   8.138   8.151   1.481
 1933W        W 5997   4.685   3.432  11.165
 1934W        W 5998   9.239   0.269   2.190
 1935W        W 5999   7.451   0.829  10.450
 1936W        W 6000   0.054   0.343   1.152
 1937W        W 6001   1.374   3.674  11.593
 1938W        W 6002   9.989   5.455   0.522
 1939W        W 6003  10.116   9.290   3.279
 1940W        W 6004   3.636   4.059  11.231
 1941W        W 6005   4.966   9.075   1.428
 1942W        W 6006   4.637   8.410  11.958
 1943W        W 6007   1.564   5.263  11.302
 1944W        W 6008   1.649   0.761   2.082
 1945W        W 6009   3.816   9.600   1.636
 1946W        W 6010   2.740   1.870   3.145
 1947W        W 6011   1.850   4.031   3.167
 1948W        W 6012   9.887   2.037   2.743
 1949W        W 6013   6.435   8.008   2.362
 1950W        W 6014   2.867   6.446  10.583
 1951W        W 6015   3.078   5.054   2.770
 1952W        W 6016   1.242   9.063  10.467
 1953W        W 6017   2.204   7.063   3.440
 1954W        W 6018   5.152   4.710   9.218
 1955W        W 6019   8.747   6.204   9.881
 1956W        W 6020   2.242   7.360   0.429
 1957W        W 6021   6.871   4.250   9.863
 1958W        W 6022   4.641   6.084  10.960
 1959W        W 6023   7.434   4.496   4.198
 1960W        W 6024   2.758   0.994  11.812
 1961W        W 6025   8.989   8.027  11.105
 1962W        W 6026   8.888   6.382   9.052
 1963W        W 6027   7.627   4.135  11.435
 1964W        W 6028   9.732   6.224   2.963
 1965W        W 6029   9.303   2.348  10.497
 1966W        W 6030   8.187   4.561   2.453
 1967W        W 6031   0.443   6.886   2.563
 1968W        W 6032  10.454   2.249  11.353
 1969W        W 6033   2.686   6.890   3.520
 1970W        W 6034   8.041   9.057   3.501
 1971W        W 6035   5.489   8.848   0.311
 1972W        W 6036   2.526   9.878  11.767
 1973W        W 6037   4.504   3.183   9.896
 1974W        W 6038   2.218  10.294   0.969
 1975W        W 6039   0.857   9.004  11.786
 1976W        W 6040   3.588  10.490   1.208
 1977W        W 6041   8.308   5.136   0.785
 1978W        W 6042   7.517   0.716   8.467
 1979W        W 6043   0.757   1.119   2.382
 1980W        W 6044   9.549   0.167   9.981
 1981W        W 6045   9.088   2.856   3.620
 1982W        W 6046   6.605   7.123  10.999
 1983W        W 6047   5.601   7.896   9.239
 1984W        W 6048   1.985   6.975   0.223
 1985W        W 6049   6.020   4.102   3.589
 1986W        W 6050   2.774  10.045   0.980
 1987W        W 6051   9.685   3.432   9.549
 1988W        W 6052   0.747   8.535   2.492
 1989W        W 6053   0.664   8.658   0.829
 1990W        W 6054   5.811   9.955   8.944
 1991W        W 6055   7.636   3.191  10.752
 1992W        W 6056   3.575   0.264   9.060
 1993W        W 6057   2.895   2.131  10.467
 1994W        W 6058   3.908   1.322   0.317
 1995W        W 6059   0.355   5.847  10.653
 1996W        W 6060   8.336   4.744  11.027
 1997W        W 6061   3.324   9.457  10.363
 1998W        W 6062   5.150   6.246   3.734
 1999W        W 6063   7.158   4.284  11.335
 2000W        W 6064   5.476   0.927   2.664
 2001W        W 6065   7.896   2.778   3.243
 2002W        W 6066   0.360   2.514   9.658
 2003W        W 6067  10.252   7.437   3.429
 2004W        W 6068   5.766   2.707   0.942
 2005W        W 6069   7.454   2.684  10.509
 2006W        W 6070   2.227   2.886   9.021
 2007W        W 6071   6.876   8.082   1.508
 2008W        W 6072   6.521   0.623   1.678
 2009W        W 6073   9.988   8.322   8.995
 2010W        W 6074   7.377   8.696   9.196
 2011W        W 6075   3.375   3.164   3.817
 2012W        W 6076   8.342   1.259   2.821
 2013W        W 6077   9.255   1.570   3.185
 2014W        W 6078   7.247   7.630   1.391
 2015W        W 6079   0.741   1.886   2.872
 2016W        W 6080   1.285   8.058   2.019
 2017W        W 6081   5.767   3.901   2.275
 2018W        W 6082   5.004   0.417   9.694
 2019W        W 6083  10.338   7.479   9.506
 2020W        W 6084   9.641  10.314   3.113
 2021W        W 6085   5.148   8.053   9.461
 2022W        W 6086   0.460   4.535  10.008
 2023W        W 6087   5.209   9.008  11.481
 2024W        W 6088   9.133   8.335  11.481
 2025W        W 6089   2.831   9.236   2.261
 2026W        W 6090   7.726   9.483   3.184
 2027W        W 6091  10.257   8.412  10.007
 2028W        W 6092   2.726   0.730   0.251
 2029W        W 6093   1.488   7.608   0.736
 2030W        W 6094   8.074   1.416  10.370
 2031W        W 6095   3.812   7.587  11.029
 2032W        W 6096   4.206   4.496   2.255
 2033W        W 6097   7.408   7.948   0.733
 2034W        W 6098   9.045   1.603  11.577
 2035W        W 6099   1.235   8.563   3.249
 2036W        W 6100   0.466   1.399  11.364
 2037W        W 6101   9.852   8.387  10.980
 2038W        W 6102   3.790   0.389   0.949
 2039W        W 6103   8.545   1.373   0.570
 2040W        W 6104   5.724   2.888   2.343
 2041W        W 6105   3.391   5.736   3.213
 2042W        W 6106   8.420   2.792   9.532
 2043W        W 6107   8.878   6.214   1.787
 2044W        W 6108   2.348   0.370   3.237
 2045W        W 6109   8.658   9.028   1.786
 2046W        W 6110   6.708   1.784   9.196
 2047W        W 6111   1.509   9.941   9.460
 2048W        W 6112   1.875   8.075  11.460
 2049W        W 6113   1.701   6.198   8.510
 2050W        W 6114   1.319   1.067   1.819
 2051W        W 6115  10.074   6.978  11.604
 2052W        W 6116   3.583   2.269   9.120
 2053W        W 6117   2.318   5.690   2.732
 2054W        W 6118   7.419   2.627   9.502
 2055W        W 6119   2.391   9.662  11.308
 2056W        W 6120   1.242   9.396  11.034
 2057W        W 6121  10.414   5.699  10.863
 2058W        W 6122   9.971   1.362  11.525
 2059W        W 6123   0.336   1.465   9.510
 2060W        W 6124  10.388   2.407   9.511
 2061W        W 6125   6.181   6.512   0.742
 2062W        W 6126   2.369   9.634  10.130
 2063W        W 6127   1.070   7.408  10.445
 2064W        W 6128   4.602   5.139   8.839
 2065W        W 6129   5.144   9.536   2.654
 2066W        W 6130   2.373   2.124   0.517
 2067W        W 6131   3.935   4.195   4.005
 2068W        W 6132   4.701   2.420   3.164
 2069W        W 6133   2.829   4.511   8.472
 2070W        W 6134   5.559   4.374   3.572
 2071W        W 6135   5.241   0.888  11.431
 2072W        W 6136   4.520   4.660   1.435
 2073W        W 6137   5.647   0.745   3.127
 2074W        W 6138   1.488   8.925   1.536
 2075W        W 6139   1.106   8.983  11.322
 2076W        W 6140   2.342   6.021   2.347
 2077W        W 6141   0.789   2.640   9.271
 2078W        W 6142   3.901   1.900  10.253
 2079W        W 6143   0.847   7.676   1.866
 2080W        W 6144   5.292   4.447  11.508
 2081W        W 6145   5.254  10.492  10.837
 2082W        W 6146   2.859   3.994   1.414
 2083W        W 6147   7.454   6.115  11.022
 2084W        W 6148   5.929   3.193   9.755
 2085W        W 6149   8.454   9.508   9.443
 2086W        W 6150   9.615  10.179  11.603
 2087W        W 6151   8.294   5.096  10.491
 2088W        W 6152   2.606   7.063   9.216
 2089W        W 6153   6.321   9.433   8.814
 2090W        W 6154   0.823   5.251   0.531
 2091W        W 6155  10.105   1.425   9.694
 2092W        W 6156   6.498   1.129   1.889
 2093W        W 6157   0.071   9.553   2.990
 2094W        W 6158   9.483   2.892  11.794
 2095W        W 6159   3.670   9.338  11.789
 2096W        W 6160   9.876   5.297   2.943
 2097W        W 6161   6.571   4.337   0.427
 2098W        W 6162   8.290  10.464  11.275
 2099W        W 6163   9.179   6.244   2.196
 2100W        W 6164   0.447   2.051   0.390
 2101W        W 6165   3.021   8.706  11.732
 2102W        W 6166   5.476   2.146   0.448
 2103W        W 6167   8.983   7.528  11.014
 2104W        W 6168   8.738   3.563  11.261
 2105W        W 6169   5.059   5.212   9.088
 2106W        W 6170   8.979   8.384  10.610
 2107W        W 6171   2.512   4.918   8.470
 2108W        W 6172   3.691   0.864   0.187
 2109W        W 6173   4.255   9.248   3.732
 2110W        W 6174   9.093   2.416   8.899
 2111W        W 6175   2.693   0.565   2.514
 2112W        W 6176   8.485   7.947  10.971
 2113W        W 6177   7.040   3.572   2.273
 2114W        W 6178   3.656  10.367   8.732
 2115W        W 6179   6.246   6.752  11.056
 2116W        W 6180   3.543   1.719   2.162
 2117W        W 6181   9.827   1.528  11.041
 2118W        W 6182   3.759   0.401   1.467
 2119W        W 6183  10.072  10.265   3.474
 2120W        W 6184   8.375   8.112   1.022
 2121W        W 6185   8.854   9.239  11.854
 2122W        W 6186   2.948   7.689   2.904
 2123W        W 6187   9.961   9.281  10.774
 2124W        W 6188   5.655   6.698   9.772
 2125W        W 6189   7.950   6.224  11.208
 2126W        W 6190   7.466   0.316   1.906
 2127W        W 6191   6.827   9.402  11.578
 2128W        W 6192   8.148   1.333   0.870
 2129W        W 6193   1.178   2.629  11.559
 2130W        W 6194   8.920   9.952   2.484
 2131W        W 6195   4.971   5.991  10.086
 2132W        W 6196   1.011   4.696   2.216
 2133W        W 6197   2.794   8.908  10.892
 2134W        W 6198   4.260   0.312   0.713
 2135W        W 6199  10.386   0.392  10.513
 2136W        W 6200   4.048   9.841   2.296
 2137W        W 6201   9.107   3.846  10.427
 2138W        W 6202   5.733   0.210   1.481
 2139W        W 6203   3.214   3.403   8.608
 2140W        W 6204   3.637   9.040   0.802
 2141W        W 6205   0.841   0.751   9.385
 2142W        W 6206   2.394   1.247   0.343
 2143W        W 6207   0.854   6.958   9.756
 2144W        W 6208   1.743   2.151   8.805
 2145W        W 6209   3.422   1.413  11.371
 2146W        W 6210   5.782   7.383   1.241
 2147W        W 6211   0.799   5.853   0.772
 2148W        W 6212   6.076   7.950   9.060
 2149W        W 6213   1.943  10.412  10.154
 2150W        W 6214   6.163   1.683   2.477
 2151W        W 6215   1.835   6.744   3.569
 2152W        W 6216   1.390   5.926  10.972
 2153W        W 6217   1.486   2.654   1.760
 2154W        W 6218   7.887   1.694   0.578
 2155W        W 6219   9.747   1.817   0.367
 2156W        W 6220   2.079   5.422   0.920
 2157W        W 6221   3.973   6.496   3.316
 2158W        W 6222   4.255   9.550   1.871
 2159W        W 6223   2.853   5.544  11.731
 2160W        W 6224   9.281   9.851   3.304
 2161W        W 6225   8.031   2.289   2.995
 2162W        W 6226   2.217   2.203   3.266
 2163W        W 6227   7.994  10.146   2.321
 2164W        W 6228   6.906  10.337  11.461
 2165W        W 6229   2.743   3.616   8.750
 2166W        W 6230   7.821   8.487  11.612
 2167W        W 6231   9.110  10.299  11.570
 2168W        W 6232   6.965   2.710   0.340
 2169W        W 6233   3.111   0.882   1.461
 2170W        W 6234   1.048   4.975   8.902
 2171W        W 6235   0.695  10.341   1.423
 2172W        W 6236   7.091   2.301   0.057
 2173W        W 6237   6.529   4.658   2.608
 2174W        W 6238   8.557   2.727  10.043
 2175W        W 6239   3.609   7.966  10.449
 2176W        W 6240   9.049   6.987   1.170
 2177W        W 6241   8.040   4.366   3.221
 2178W        W 6242   1.403   4.672  11.467
 2179W        W 6243   4.709   8.924  10.737
 2180W        W 6244   6.696   7.205  11.896
 2181W        W 6245   7.999   9.869   8.515
 2182W        W 6246   9.482   4.102   2.247
 2183W        W 6247   9.370   8.036  10.476
 2184W        W 6248   5.033   3.297  10.755
 2185W        W 6249   5.659   5.824  11.678
 2186W        W 6250   3.673   9.542   8.960
 2187W        W 6251   4.061  10.463   9.051
 2188W        W 6252   5.649   8.478   2.188
 2189W        W 6253   3.316   6.643  10.850
 2190W        W 6254   1.654   6.627   0.067
 2191W        W 6255   8.066   1.229  10.873
 2192W        W 6256   3.289   6.651  10.320
 2193W        W 6257   9.529   1.799   2.449
 2194W        W 6258   8.948   0.837   3.394
 2195W        W 6259   7.342   4.373  11.834
 2196W        W 6260   1.184   2.739  10.668
 2197W        W 6261   1.173   4.509   0.515
 2198W        W 6262   3.372   2.042   1.818
 2199W        W 6263   2.184   7.004  10.956
 2200W        W 6264   4.511   3.185   0.812
 2201W        W 6265   5.649   6.040   0.564
 2202W        W 6266   5.356   6.834   1.917
 2203W        W 6267   1.734   3.626   1.337
 2204W        W 6268   7.621   4.057   9.581
 2205W        W 6269   9.413   7.609   1.793
 2206W        W 6270   6.974   1.939  11.708
 2207W        W 6271   1.703   5.219  10.808
 2208W        W 6272   2.841   0.568   0.811
 2209W        W 6273   9.526   6.998   9.326
 2210W        W 6274   2.622   4.117   1.866
 2211W        W 6275   2.440   6.263  11.942
 2212W        W 6276   6.175   4.742   1.572
 2213W        W 6277   0.604   8.151   0.796
 2214W        W 6278   8.985   8.323   9.211
 2215W        W 6279   9.561   1.463   8.502
 2216W        W 6280   6.452   5.228   9.066
 2217W        W 6281   3.690   5.721  11.199
 2218W        W 6282   2.559   5.583  10.444
 2219W        W 6283   5.351   1.746  10.389
 2220W        W 6284   5.273   1.285   0.160
 2221W        W 6285   8.827   7.835   1.007
 2222W        W 6286   8.774   5.082  10.333
 2223W        W 6287   6.720   5.677   2.877
 2224W        W 6288   3.184   5.299   0.424
 2225W        W 6289   8.669   2.259   0.807
 2226W        W 6290   0.660   7.923  10.990
 2227W        W 6291   8.543   8.964   8.594
 2228W        W 6292   3.350   3.011   3.163
 2229W        W 6293   2.330   0.246   2.735
 2230W        W 6294   5.229   2.125   2.630
 2231W        W 6295   6.946   8.038   9.870
 2232W        W 6296   1.876   0.128   2.205
 2233W        W 6297   2.879   9.891  10.875
 2234W        W 6298   4.026   9.112  11.483
 2235W        W 6299   1.902   2.220   3.682
 2236W        W 6300   7.110   4.063   3.542
 2237W        W 6301   0.287   0.519   9.774
 2238W        W 6302   9.014   2.315   2.857
 2239W        W 6303   2.869   2.682   1.393
 2240W        W 6304   7.121   7.941   3.011
 2241W        W 6305   3.245   1.825   9.201
 2242W        W 6306   4.625   1.289   1.992
 2243W        W 6307   9.450   9.242   9.577
 2244W        W 6308   0.422   0.737   8.737
 2245W        W 6309  10.289   8.314  11.238
 2246W        W 6310   5.423   0.416   8.854
 2247W        W 6311   0.816  10.325  11.482
 2248W        W 6312   8.454   9.513   0.711
 2249W        W 6313   7.953   2.316   3.497
 2250W        W 6314   3.484   8.905  10.326
 2251W        W 6315   4.218   6.049   0.956
 2252W        W 6316   5.268  10.487   9.773
 2253W        W 6317   7.366   8.388   3.156
 2254W        W 6318   6.646   0.210   2.448
 2255W        W 6319   1.612   9.583   2.095
 2256W        W 6320   4.364   1.960  10.470
 2257W        W 6321   1.522   4.693   2.242
 2258W        W 6322   3.154   9.458   9.004
 2259W        W 6323   8.957   1.118  11.364
 2260W        W 6324   3.075   2.202  11.743
 2261W        W 6325   3.381   8.344   9.387
 2262W        W 6326   1.404   7.564   9.496
 2263W        W 6327   0.928   7.388  11.913
 2264W        W 6328   5.156   9.049   2.823
 2265W        W 6329   6.946   6.966   1.828
 2266W        W 6330   1.864   2.145  10.355
 2267W        W 6331   8.990   0.509   0.311
 2268W        W 6332   7.612   6.881   9.761
 2269W        W 6333   6.668   1.158   0.006
 2270W        W 6334   1.413   5.131  11.792
 2271W        W 6335   4.570   9.300  11.058
 2272W        W 6336   4.646   9.367   3.425
 2273W        W 6337   3.369   7.877  11.537
 2274W        W 6338   1.049  10.473  11.928
 2275W        W 6339   8.915   1.535   0.273
 2276W        W 6340   3.651   5.561   1.980
 2277W        W 6341   6.196   1.863  10.459
 2278W        W 6342   3.031   6.914   3.132
 2279W        W 6343   1.084   1.885   1.399
 2280W        W 6344   7.341   9.665  11.051
 2281W        W 6345   8.169   9.490   2.888
 2282W        W 6346   3.275   4.272   8.789
 2283W        W 6347   2.281   9.086  11.442
 2284W        W 6348   1.531   6.176   2.902
 2285W        W 6349   8.185   2.560  11.016
 2286W        W 6350   5.663   2.047  11.988
 2287W        W 6351   1.566   1.779   1.255
 2288W        W 6352   0.408   7.112  10.648
 2289W        W 6353   0.448   2.124  11.452
 2290W        W 6354   1.296   4.139   8.691
 2291W        W 6355   1.951   7.011   0.974
 2292W        W 6356   0.963   0.273   0.636
 2293W        W 6357   3.698   2.213   3.037
 2294W        W 6358   8.981   4.163   0.432
 2295W        W 6359   2.383   8.608   0.338
 2296W        W 6360   1.767   4.247  10.980
 2297W        W 6361   1.895   8.443   8.535
 2298W        W 6362   4.256   7.051   0.187
 2299W        W 6363   9.216   7.488   2.259
 2300W        W 6364   0.675   3.939   2.907
 2301W        W 6365   2.153   7.988   9.681
 2302W        W 6366   7.151   6.378   4.099
 2303W        W 6367   9.439   6.172   0.704
 2304W        W 6368   7.686   9.720   0.850
 2305W        W 6369   1.053   9.429   2.788
 2306W        W 6370   6.884   1.283   2.202
 2307W        W 6371   2.335   4.835   3.308
 2308W        W 6372   3.826   8.460   1.404
 2309W        W 6373   8.883   8.378   0.959
 2310W        W 6374   3.964   6.723   1.980
 2311W        W 6375   9.224   3.582   8.892
 2312W        W 6376   5.535   9.871   2.176
 2313W        W 6377   0.474   6.128  11.657
 2314W        W 6378   8.804   6.670   0.557
 2315W        W 6379   6.126   1.853  11.547
 2316W        W 6380  10.433   1.342   1.963
 2317W        W 6381   9.857   1.748   9.997
 2318W        W 6382   9.988   1.174   0.009
 2319W        W 6383   8.997   1.982   1.618
 2320W        W 6384   7.983   2.713   1.714
 2321W        W 6385   1.578   5.364   0.216
 2322W        W 6386   0.864   8.047  10.558
 2323W        W 6387   6.678   7.992   0.251
 2324W        W 6388   5.472   5.202   2.660
 2325W        W 6389  10.446   8.412   2.636
 2326W        W 6390   9.979   2.610   3.303
 2327W        W 6391   3.136   3.534   1.737
 2328W        W 6392   9.853   3.240  11.835
 2329W        W 6393   7.193   3.044   9.295
 2330W        W 6394   1.362   0.477   8.584
 2331W        W 6395   3.460   4.166  10.762
 2332W        W 6396   7.639   6.016   8.348
 2333W        W 6397   4.833   2.788   0.924
 2334W        W 6398   1.725   5.854   9.720
 2335W        W 6399   7.378   6.047   1.810
 2336W        W 6400   4.152   8.836   2.384
 2337W        W 6401   4.537   3.638  10.129
 2338W        W 6402   0.736   1.652   0.496
 2339W        W 6403   1.627   6.476   1.840
 2340W        W 6404   4.334   0.995  11.403
 2341W        W 6405   6.997   7.615  10.153
 2342W        W 6406   1.690   0.060   0.363
 2343W        W 6407   4.398   2.642  11.061
 2344W        W 6408   4.235   3.399  11.418
 2345W        W 6409   3.545   1.725   0.872
 2346W        W 6410   6.452   0.214   1.983
 2347W        W 6411   5.059   4.047   8.139
 2348W        W 6412   3.195   4.640  10.046
 2349W        W 6413   1.450   0.762  11.876
 2350W        W 6414   8.955   8.423  10.085
 2351W        W 6415   8.971   7.926   1.522
 2352W        W 6416   2.916   0.276   0.404
 2353W        W 6417   9.970   8.779  11.937
 2354W        W 6418   2.221   6.045  10.994
 2355W        W 6419   3.630   2.596   0.739
 2356W        W 6420  10.155   8.712  10.741
 2357W        W 6421   1.864   7.421  11.132
 2358W        W 6422   0.226   0.256   8.852
 2359W        W 6423   7.457   7.544  11.439
 2360W        W 6424   8.543   6.560  11.785
 2361W        W 6425   9.635   6.631   0.898
 2362W        W 6426   7.241   3.190   1.013
 2363W        W 6427   7.668   9.090   9.048
 2364W        W 6428   8.900   7.869  10.620
 2365W        W 6429   3.313   6.975   8.532
 2366W        W 6430   6.690   1.682  10.259
 2367W        W 6431   3.290   7.885   0.678
 2368W        W 6432   4.578   9.833   3.172
 2369W        W 6433   9.693  10.210   9.801
 2370W        W 6434   9.868   5.445  11.524
 2371W        W 6435   7.942  10.182   0.847
 2372W        W 6436   6.629   8.741   2.985
 2373W        W 6437   0.434   1.449   2.698
 2374W        W 6438   0.143   6.727  10.886
 2375W        W 6439   7.591   5.523   1.702
 2376W        W 6440   6.692   1.670   9.732
 2377W        W 6441   6.393   5.723   1.615
 2378W        W 6442   3.385   9.765  11.630
 2379W        W 6443   4.767   1.244  11.876
 2380W        W 6444   1.174   6.063   3.276
 2381W        W 6445   6.282   3.659   0.939
 2382W        W 6446   8.138   3.069  10.831
 2383W        W 6447   7.161   5.454   2.773
 2384W        W 6448   5.681  10.272   2.444
 2385W        W 6449   1.376   6.576  10.196
 2386W        W 6450   8.110   7.540  10.328
 2387W        W 6451   8.019   2.264   2.479
 2388W        W 6452   7.057   3.355  11.584
 2389W        W 6453   2.752   8.804  10.054
 2390W        W 6454  10.079   0.151   1.606
 2391W        W 6455   1.860   6.454   3.165
 2392W        W 6456   1.659   9.221  10.765
 2393W        W 6457   2.708   4.457   0.038
 2394W        W 6458   4.489   6.608   2.710
 2395W        W 6459   1.407   7.220   1.520
 2396W        W 6460   2.242   6.021  10.457
 2397W        W 6461   7.422   4.548   1.314
 2398W        W 6462   4.700   9.355   0.068
 2399W        W 6463   8.760   5.157   3.256
 2400W        W 6464   9.830   6.967   0.571
 2401W        W 6465   4.843   5.037   1.213
 2402W        W 6466   3.131   6.320   8.347
 2403W        W 6467   2.588   3.871  11.928
 2404W        W 6468   7.554   7.546   1.894
 2405W        W 6469   6.939   0.869   1.899
 2406W        W 6470   9.472   1.508   0.714
 2407W        W 6471   7.525   5.470   1.193
 2408W        W 6472   5.036   9.655   2.168
 2409W        W 6473   2.002   2.855   9.476
 2410W        W 6474   6.910   5.596  11.515
 2411W        W 6475   9.819   5.612   0.042
 2412W        W 6476   4.259   8.347   9.188
 2413W        W 6477   2.363   2.268   2.782
 2414W        W 6478   6.996   4.189   0.183
 2415W        W 6479   0.418   7.624   3.362
 2416W        W 6480   7.014   9.858  11.767
 2417W        W 6481   5.107   5.384  11.513
 2418W        W 6482   3.803   6.458   9.625
 2419W        W 6483   2.933   9.846   9.486
 2420W        W 6484   7.938   3.331  11.624
 2421W        W 6485   3.538   4.314   9.505
 2422W        W 6486   0.797   1.155   0.968
 2423W        W 6487   6.976   5.838   4.142
 2424W        W 6488   3.770   9.884   8.557
 2425W        W 6489   4.202   7.948   0.676
 2426W        W 6490   9.093   2.373   0.566
 2427W        W 6491   8.460   2.841   1.560
 2428W        W 6492   9.370   4.586   2.085
 2429W        W 6493   8.197   1.031   1.845
 2430W        W 6494   2.959   9.248   3.145
 2431W        W 6495   5.012   0.347   3.081
 2432W        W 6496   8.538   8.023   1.842
 2433W        W 6497   8.106   6.636   9.518
 2434W        W 6498   5.198   4.635  10.517
 2435W        W 6499   6.037  10.141   9.411
 2436W        W 6500   8.331   1.710   0.263
 2437W        W 6501   1.931   7.371   1.811
 2438W        W 6502   3.244   9.402   0.571
 2439W        W 6503   3.985   1.152   3.526
 2440W        W 6504   9.876   1.284   9.235
 2441W        W 6505   5.904   4.100  11.418
 2442W        W 6506   8.046   5.636   1.886
 2443W        W 6507   7.524   8.190   2.710
 2444W        W 6508  10.321   7.885   2.607
 2445W        W 6509  10.144   6.759   0.934
 2446W        W 6510   5.722  10.288  10.673
 2447W        W 6511   5.659   0.730  11.698
 2448W        W 6512   4.220  10.323  10.847
 2449W        W 6513   3.714   6.948   2.410
 2450W        W 6514   7.108  10.017   3.754
 2451W        W 6515   3.278   3.810  11.500
 2452W        W 6516   1.198   5.648  11.371
 2453W        W 6517   2.117   3.172   0.786
 2454W        W 6518  10.477   7.001  10.409
 2455W        W 6519   4.014   2.261   9.892
 2456W        W 6520   5.917   2.663   9.515
 2457W        W 6521   3.577   6.565  11.320
 2458W        W 6522   4.731   3.200   9.382
 2459W        W 6523   3.848   2.393   2.585
 2460W        W 6524   6.383   6.702   3.746
 2461W        W 6525   0.085   6.472   2.685
 2462W        W 6526   8.727   6.438   3.494
 2463W        W 6527   4.564   7.963   9.447
 2464W        W 6528   3.662   1.364  11.841
 2465W        W 6529   5.675   7.907   8.728
 2466W        W 6530   0.815   5.018   1.243
 2467W        W 6531   0.977   3.297  10.924
 2468W        W 6532   6.538   4.369   1.394
 2469W        W 6533   6.988   2.014  10.966
 2470W        W 6534   7.617   6.693  10.351
 2471W        W 6535   4.107   9.618   9.254
 2472W        W 6536   5.016   7.755   1.607
 2473W        W 6537   1.126   8.953   3.558
 2474W        W 6538   4.083   3.112   1.048
 2475W        W 6539   1.312   1.428   3.263
 2476W        W 6540   3.824   9.850   9.611
 2477W        W 6541   3.296   1.349   1.678
 2478W        W 6542   8.457  10.258   0.228
 2479W        W 6543   3.261   8.941   2.867
 2480W        W 6544   8.038   8.245   2.002
 2481W        W 6545   0.737   9.031  10.361
 2482W        W 6546   7.323   2.857   3.410
 2483W        W 6547   9.237  10.361   0.526
 2484W        W 6548   5.962   0.338   1.911
 2485W        W 6549   7.167   4.183   1.581
 2486W        W 6550   6.137   9.099   3.213
 2487W        W 6551   8.649   3.569   8.993
 2488W        W 6552  10.477   5.313   0.386
 2489W        W 6553   8.934   2.495   1.516
 2490W        W 6554   6.488   1.937   8.707
 2491W        W 6555   6.176   7.808   3.165
 2492W        W 6556  10.003   9.228   0.847
 2493W        W 6557  10.462   8.000  10.250
 2494W        W 6558   7.975   7.303   0.812
 2495W        W 6559   3.325   9.956   8.858
 2496W        W 6560   5.990   9.112   9.531
 2497W        W 6561   8.833   0.423   3.073
 2498W        W 6562   4.445   7.040   8.446
 2499W        W 6563   1.196   8.520   2.268
 2500W        W 6564   8.627   7.058  11.794
 2501W        W 6565   5.236   8.691   1.155
 2502W        W 6566   3.567   3.830   3.111
 2503W        W 6567   6.042   1.220   1.698
 2504W        W 6568  10.418   5.629   3.137
 2505W        W 6569   3.285   0.249   2.137
 2506W        W 6570  10.404   5.756   0.698
 2507W        W 6571   9.462   2.700   3.338
 2508W        W 6572  10.074   3.037   0.364
 2509W        W 6573   1.677   7.090   3.249
 2510W        W 6574   3.619   6.729   0.691
 2511W        W 6575   8.146   7.105   9.704
 2512W        W 6576   4.212   7.034   2.338
 2513W        W 6577   5.616   8.918   9.184
 2514W        W 6578   9.297   3.318   1.432
 2515W        W 6579   8.852   7.134   2.213
 2516W        W 6580   3.527   7.509   0.027
 2517W        W 6581   2.786   6.452   1.362
 2518W        W 6582   3.070   3.152   0.899
 2519W        W 6583   8.593   3.311   0.625
 2520W        W 6584   7.473   1.381   9.190
 2521W        W 6585   0.486   9.429  10.576
 2522W        W 6586   7.357   6.752   1.517
 2523W        W 6587   5.320   3.953   4.344
 2524W        W 6588   1.272   9.418   1.757
 2525W        W 6589   8.025   3.804   9.808
 2526W        W 6590   8.183   7.064   9.138
 2527W        W 6591   1.270   0.480   9.482
 2528W        W 6592   5.592   3.177   1.011
 2529W        W 6593   1.685   2.201   0.942
 2530W        W 6594   8.455   0.240   3.483
 2531W        W 6595   2.857   8.354   1.226
 2532W        W 6596   5.388   9.816   8.604
 2533W        W 6597   0.765   6.120  10.376
 2534W        W 6598   6.700   0.120   3.340
 2535W        W 6599   2.320   6.244   1.247
 2536W        W 6600   8.459   2.182   3.298
 2537W        W 6601   2.247   0.442  10.730
 2538W        W 6602   3.131   2.757   2.783
 2539W        W 6603   0.360   0.192   2.010
 2540W        W 6604   7.490   7.699  10.080
 2541W        W 6605   6.972   8.403   9.084
 2542W        W 6606   7.273   9.615   3.430
 2543W        W 6607   2.378   0.800  10.396
 2544W        W 6608   4.697   8.373   1.930
 2545W        W 6609   5.552   8.127  11.760
 2546W        W 6610   0.189   3.615  11.507
 2547W        W 6611   8.881   9.122  11.091
 2548W        W 6612  10.370   6.504  10.524
 2549W        W 6613   0.303   2.825   8.823
 2550W        W 6614   0.044   1.648   9.889
 2551W        W 6615   1.422  10.039  11.230
 2552W        W 6616   4.477   5.170   1.548
 2553W        W 6617   6.128   2.551   2.164
 2554W        W 6618   3.249   0.904  11.934
 2555W        W 6619   2.139   6.627   9.865
 2556W        W 6620   8.070   4.125   1.812
 2557W        W 6621   8.038   8.208   2.534
 2558W        W 6622   7.059   8.573  10.506
 2559W        W 6623   7.616   2.302   1.685
 2560W        W 6624   9.343   4.046   2.744
 2561W        W 6625   9.980   4.228   0.955
 2562W        W 6626   7.460   9.456   0.436
 2563W        W 6627   9.052   0.778   0.779
 2564W        W 6628   3.083   5.620  10.345
 2565W        W 6629   6.499   5.443   8.605
 2566W        W 6630   5.680   3.025  11.948
 2567W        W 6631   4.265   0.791   1.398
 2568W        W 6632   2.766   9.278  11.274
 2569W        W 6633   3.612   2.731  11.258
 2570W        W 6634   7.183   9.364   0.933
 2571W        W 6635   5.694   1.876   9.975
 2572W        W 6636   3.677   2.128   0.548
 2573W        W 6637   0.004   5.195   9.067
 2574W        W 6638   4.659   9.820  11.267
 2575W        W 6639  10.108   4.991   1.970
 2576W        W 6640   7.468   9.320   1.771
 2577W        W 6641   4.281   7.601  10.803
 2578W        W 6642   3.182   4.583  11.916
 2579W        W 6643  10.198   4.966  10.504
 2580W        W 6644   5.599   5.526  11.233
 2581W        W 6645   0.498   4.619   2.897
 2582W        W 6646   8.121   3.887   0.313
 2583W        W 6647   2.413   8.515   2.511
 2584W        W 6648   1.303   4.199   9.284
 2585W        W 6649   7.966   0.796  11.368
 2586W        W 6650   3.370   0.887   1.919
 2587W        W 6651   5.654   5.004   0.709
 2588W        W 6652   1.963   1.619   1.562
 2589W        W 6653   4.066   5.757   9.177
 2590W        W 6654   6.543   8.444   1.259
 2591W        W 6655   3.682   6.703   8.843
 2592W        W 6656   1.799   1.055   0.165
 2593W        W 6657   5.109   7.363   3.015
 2594W        W 6658   6.138   8.645   2.924
 2595W        W 6659   1.380   5.892   0.255
 2596W        W 6660   3.059   6.517  11.358
 2597W        W 6661   0.861   9.310   8.980
 2598W        W 6662   3.119   9.963  10.267
 2599W        W 6663   2.510   7.197   1.908
 2600W        W 6664   0.405   7.741  10.153
 2601W        W 6665   7.267   3.651   0.771
 2602W        W 6666   2.942   1.709   1.455
 2603W        W 6667   1.947   3.082   3.208
 2604W        W 6668   3.731   1.876  10.755
 2605W        W 6669   9.364   2.850  10.386
 2606W        W 6670   0.849   1.381   1.458
 2607W        W 6671   1.310   3.484   2.016
 2608W        W 6672   3.059   8.808   2.416
 2609W        W 6673  10.279   9.854  10.307
 2610W        W 6674   3.776  10.438  11.712
 2611W        W 6675   1.408   5.205   9.188
 2612W        W 6676   1.321   8.300   0.063
 2613W        W 6677   6.085   4.783  10.169
 2614W        W 6678   1.304   2.314   3.562
 2615W        W 6679   3.441   5.024   3.627
 2616W        W 6680   3.981   5.725   0.169
 2617W        W 6681   6.694   3.660  10.507
 2618W        W 6682   8.466   1.863   9.894
 2619W        W 6683   2.721   6.726   2.747
 2620W        W 6684   4.246   9.869   0.719
 2621W        W 6685   8.197   6.492   1.285
 2622W        W 6686   8.958   0.111   9.508
 2623W        W 6687   5.062   9.402  10.243
 2624W        W 6688   6.509  10.308  11.104
 2625W        W 6689   7.214   7.269  11.794
 2626W        W 6690   6.595   1.240  11.015
 2627W        W 6691   2.022   1.848  11.225
 2628W        W 6692   9.566   5.510  10.773
 2629W        W 6693   0.511   4.639   2.349
 2630W        W 6694   9.405   4.749   1.569
 2631W        W 6695   8.473   4.265   8.986
 2632W        W 6696   8.326   8.806  10.426
 2633W        W 6697   6.741   8.432   9.614
 2634W        W 6698   6.449   8.063   9.418
 2635W        W 6699   2.252   3.401  11.970
 2636W        W 6700   6.449   7.907   9.918
 2637W        W 6701   0.740   5.408   2.822
 2638W        W 6702   2.778   0.752   8.583
 2639W        W 6703   8.609   0.485  10.806
 2640W        W 6704   7.497   6.222  11.515
 2641W        W 6705   1.968   0.830  10.926
 2642W        W 6706   6.062   9.956   3.291
 2643W        W 6707   8.902  10.392   2.197
 2644W        W 6708   6.422   5.515  11.657
 2645W        W 6709   7.065   4.427   9.409
 2646W        W 6710   8.612   5.915   0.472
 2647W        W 6711   5.803   9.918   0.883
 2648W        W 6712   1.910   3.897   2.668
 2649W        W 6713   7.385   2.248  11.236
 2650W        W 6714   5.675   7.834   1.889
 2651W        W 6715  10.286   0.780   8.632
 2652W        W 6716   1.405   8.492   8.657
 2653W        W 6717   9.836   3.854   0.647
 2654W        W 6718   0.872   2.214  11.732
 2655W        W 6719   9.725   0.271  11.733
 2656W        W 6720   2.164   0.874   3.328
 2657W        W 6721   4.840   6.891   1.907
 2658W        W 6722   0.265  10.377   0.315
 2659W        W 6723   1.624   0.740   9.976
 2660W        W 6724   9.240   2.725   0.206
 2661W        W 6725   8.873   0.649   2.103
 2662W        W 6726   4.478   6.588   8.159
 2663W        W 6727   4.027   2.898   9.055
 2664W        W 6728   8.562   3.356  10.765
 2665W        W 6729   9.955   3.524  10.534
 2666W        W 6730   8.899   4.536   9.149
 2667W        W 6731   0.497   9.051   1.650
 2668W        W 6732   5.147   0.412   0.200
 2669W        W 6733   8.249   8.033   8.671
 2670W        W 6734   4.406   1.665   3.617
 2671W        W 6735   7.711   0.310   9.408
 2672W        W 6736   8.855   4.663   3.090
 2673W        W 6737   3.817   5.367  11.864
 2674W        W 6738   2.841   2.098   1.776
 2675W        W 6739   7.505  10.496   9.034
 2676W        W 6740   2.532  10.153   9.367
 2677W        W 6741   7.821   5.306   0.780
 2678W        W 6742   6.545   7.723  11.823
 2679W        W 6743   3.093   4.296   9.268
 2680W        W 6744   4.787   7.345   0.374
 2681W        W 6745   7.915   8.031  11.802
 2682W        W 6746   3.800   3.320  10.543
 2683W        W 6747   2.182   5.707   9.055
 2684W        W 6748   0.021   6.100  11.898
 2685W        W 6749  10.196   0.316   2.552
 2686W        W 6750   3.211   9.102   9.950
 2687W        W 6751   9.438   4.749   1.046
 2688W        W 6752   6.004   1.259   2.225
 2689W        W 6753   8.738   6.714   8.695
 2690W        W 6754   2.849   2.874  10.811
 2691W        W 6755   5.086   8.125  11.928
 2692W        W 6756   9.309   2.865   0.678
 2693W        W 6757   1.375   4.170   1.444
 2694W        W 6758   7.408   9.501  10.244
 2695W        W 6759   4.078   0.590  10.367
 2696W        W 6760   4.244   1.916   8.899
 2697W        W 6761   8.944   5.559   2.900
 2698W        W 6762   4.504   2.839  10.584
 2699W        W 6763   2.824   4.579   2.027
 2700W        W 6764   7.654   8.491  11.140
 2701W        W 6765  10.277   2.363   1.970
 2702W        W 6766  10.257  10.405   0.340
 2703W        W 6767  10.168   2.669  11.506
 2704W        W 6768   7.885   2.254   8.973
 2705W        W 6769   8.099   0.912  11.894
 2706W        W 6770   4.101   5.159   2.825
 2707W        W 6771   3.335   4.664   8.460
 2708W        W 6772   8.500  10.226  10.424
 2709W        W 6773   8.127   5.690   9.796
 2710W        W 6774   3.187   3.963   3.438
 2711W        W 6775   9.510   6.240   1.222
 2712W        W 6776   5.008   1.261   9.711
 2713W        W 6777   3.057   8.305   3.148
 2714W        W 6778   0.412  10.007  11.385
 2715W        W 6779   0.704   4.805   9.256
 2716W        W 6780   1.875   4.722   3.030
 2717W        W 6781   8.340  10.153   3.568
 2718W        W 6782   2.445   8.224  11.275
 2719W        W 6783   7.160  10.450   1.722
 2720W        W 6784   2.868   1.854  10.997
 2721W        W 6785   1.171   5.095   0.887
 2722W        W 6786   6.392   5.276  10.826
 2723W        W 6787   5.659   6.520   2.204
 2724W        W 6788   4.540   1.474  10.435
 2725W        W 6789   2.471   1.210   2.649
 2726W        W 6790   4.153   7.397   9.936
 2727W        W 6791   5.451   1.311   8.918
 2728W        W 6792   3.710   6.004   2.219
 2729W        W 6793   6.116   0.804   1.990
 2730W        W 6794   0.277   6.344   9.754
 2731W        W 6795   6.221   8.507  11.423
 2732W        W 6796  10.323   8.964   1.171
 2733W        W 6797   4.191   2.512   3.472
 2734W        W 6798   7.666   1.175  10.085
 2735W        W 6799  10.185   2.626   0.687
 2736W        W 6800   3.659   6.516   1.180
 2737W        W 6801   6.274   6.956   2.871
 2738W        W 6802   9.017   1.297   0.751
 2739W        W 6803   9.096   7.948   2.030
 2740W        W 6804   2.793   8.999   1.680
 2741W        W 6805   2.640   1.481  11.816
 2742W        W 6806   0.310   9.456   1.990
 2743W        W 6807   1.311   6.854   0.436
 2744W        W 6808   4.786   2.122   3.596
 2745W        W 6809  10.224   3.073   1.209
 2746W        W 6810   5.507   3.795   9.968
 2747W        W 6811   7.813   4.228  10.037
 2748W        W 6812   4.871   1.679  11.471
 2749W        W 6813   6.468  10.338   0.400
 2750W        W 6814   2.533   1.883   0.973
 2751W        W 6815   7.004   7.919   8.865
 2752W        W 6816   0.301  10.208  10.942
 2753W        W 6817  10.445   6.111   9.409
 2754W        W 6818   3.787   7.931  11.873
 2755W        W 6819   1.204   0.894   0.820
 2756W        W 6820   5.216   1.358   3.376
 2757W        W 6821   2.288   5.239   1.399
 2758W        W 6822   2.736   4.995   1.353
 2759W        W 6823   0.785   9.570   9.413
 2760W        W 6824   3.380   4.417   4.292
 2761W        W 6825   4.052   9.304  10.961
 2762W        W 6826   3.039   7.133  10.870
 2763W        W 6827   0.852   2.026   3.647
 2764W        W 6828   9.618   5.131   9.561
 2765W        W 6829   8.608   3.792   0.395
 2766W        W 6830   0.409  10.466   9.245
 2767W        W 6831   4.538   5.705  10.043
 2768W        W 6832   3.145  10.455   8.730
 2769W        W 6833   7.095   8.819   3.177
 2770W        W 6834   7.907   2.795   9.486
 2771W        W 6835   9.320   9.063  11.698
 2772W        W 6836   5.604   0.917   9.729
 2773W        W 6837   8.274   4.188  11.770
 2774W        W 6838   8.816   5.499   9.148
 2775W        W 6839   5.031   3.488   4.243
 2776W        W 6840   4.389   4.302  11.331
 2777W        W 6841   9.504   5.937  11.797
 2778W        W 6842   2.744   4.381   9.784
 2779W        W 6843   2.181   6.040   3.209
 2780W        W 6844   5.149   1.079   1.411
 2781W        W 6845   7.774  10.402   9.846
 2782W        W 6846   4.693   2.192   8.851
 2783W        W 6847   0.410   0.020   9.764
 2784W        W 6848   8.491   0.766   2.763
 2785W        W 6849   6.537   7.403  11.422
 2786W        W 6850   4.379   8.775  11.644
 2787W        W 6851   3.783   9.948   0.952
 2788W        W 6852   8.415   2.635   2.019
 2789W        W 6853   9.565   8.660   1.594
 2790W        W 6854   2.081   9.401  10.510
 2791W        W 6855   0.060   4.519   2.587
 2792W        W 6856   8.416   4.685   3.335
 2793W        W 6857   8.509   9.713   8.495
 2794W        W 6858   2.664   7.846  10.834
 2795W        W 6859   4.426   1.993   1.002
 2796W        W 6860   6.051   7.674   2.691
 2797W        W 6861   1.691   6.350   9.868
 2798W        W 6862   7.979   0.337   1.101
 2799W        W 6863   1.825   0.475   1.213
 2800W        W 6864   8.071   1.457   9.862
 2801W        W 6865   7.432   2.653  10.008
 2802W        W 6866   8.932   3.958   2.450
 2803W        W 6867   3.179   0.218   3.232
 2804W        W 6868   9.957   5.662  11.058
 2805W        W 6869   2.874   5.658   3.457
 2806W        W 6870   8.792   4.223   9.985
 2807W        W 6871   9.904   7.080  11.131
 2808W        W 6872   8.420   5.847   2.678
 2809W        W 6873   8.367   3.522   2.323
 2810W        W 6874   4.593   2.764   9.599
 2811W        W 6875   4.547   6.172   9.828
 2812W        W 6876   0.404   9.786   0.766
 2813W        W 6877   0.498   4.628  11.050
 2814W        W 6878   1.737   4.611   1.476
 2815W        W 6879   5.269   8.391   9.877
 2816W        W 6880   5.508   4.636   1.741
 2817W        W 6881   0.960   4.460   8.981
 2818W        W 6882   2.740   8.537   8.856
 2819W        W 6883   0.981   0.989  10.713
 2820W        W 6884   0.341   7.498   9.691
 2821W        W 6885   4.782   4.603   3.006
 2822W        W 6886   5.092   5.911   1.837
 2823W        W 6887   8.422   4.244  10.327
 2824W        W 6888   6.984   9.419   1.959
 2825W        W 6889   2.267   6.472   3.492
 2826W        W 6890   5.249   1.400  11.179
 2827W        W 6891   7.411   4.195   0.494
 2828W        W 6892   0.289   8.813   2.640
 2829W        W 6893   2.450   0.261   1.024
 2830W        W 6894   7.888   1.360   2.598
 2831W        W 6895   8.215   5.999   2.222
 2832W        W 6896  10.214   8.883  10.274
 2833W        W 6897   1.374   8.817  10.904
 2834W        W 6898   4.256   1.250  10.971
 2835W        W 6899   1.883   8.450   1.197
 2836W        W 6900   3.925   8.797   9.522
 2837W        W 6901   5.234   2.355   3.703
 2838W        W 6902   0.828   9.022   1.147
 2839W        W 6903   7.397   1.833   1.834
 2840W        W 6904   7.680   9.521   8.735
 2841W        W 6905   5.968   0.450   8.627
 2842W        W 6906   8.030   3.828  11.469
 2843W        W 6907   1.312   4.460  10.963
 2844W        W 6908   0.418   4.979   0.691
 2845W        W 6909   8.898   5.805   0.070
 2846W        W 6910   6.994   1.343   8.989
 2847W        W 6911   7.800   9.859  11.161
 2848W        W 6912   6.860   8.532   0.409
 2849W        W 6913   5.161   0.841   9.971
 2850W        W 6914   5.588   5.020  10.340
 2851W        W 6915   3.623   8.564   9.947
 2852W        W 6916   8.791  10.360   1.684
 2853W        W 6917   2.573   3.568   0.324
 2854W        W 6918   8.490   1.466   9.561
 2855W        W 6919   5.026   5.691  10.907
 2856W        W 6920   8.584   9.111   1.007
 2857W        W 6921   3.358   2.648  11.693
 2858W        W 6922   0.125   7.474   2.530
 2859W        W 6923   5.685   2.156  10.421
 2860W        W 6924   5.929   6.068   9.051
 2861W        W 6925   9.473   6.651   9.709
 2862W        W 6926   1.157   4.702   9.949
 2863W        W 6927   9.390   2.285   2.497
 2864W        W 6928   4.684   4.622   8.895
 2865W        W 6929   4.204   2.752   2.675
 2866W        W 6930   3.121   5.318   1.395
 2867W        W 6931   0.838   7.040   2.240
 2868W        W 6932   8.416   0.269   0.241
 2869W        W 6933   1.742   1.240  10.738
 2870W        W 6934  10.420   8.107   0.530
 2871W        W 6935   7.194   9.993   9.724
 2872W        W 6936   3.564   2.863  10.534
 2873W        W 6937   4.135   4.757   4.163
 2874W        W 6938   3.936  10.313  10.346
 2875W        W 6939   0.437   9.972   9.363
 2876W        W 6940   6.090  10.425   2.176
 2877W        W 6941   6.554   8.588  10.594
 2878W        W 6942   2.451   0.580   8.978
 2879W        W 6943   5.603   5.990   1.961
 2880W        W 6944   7.582   4.023   1.924
 2881W        W 6945   9.483   8.561  11.818
 2882W        W 6946   1.900   0.325   9.819
 2883W        W 6947   8.901   7.512   1.847
 2884W        W 6948   7.585   4.185   3.326
 2885W        W 6949   3.219   7.899   9.057
 2886W        W 6950   3.705   8.704   0.400
 2887W        W 6951   1.280   2.401   8.666
 2888W        W 6952   1.216   2.427   0.939
 2889W        W 6953   3.749   9.057   9.914
 2890W        W 6954   0.355   3.246   0.301
 2891W        W 6955   4.368   2.629  11.730
 2892W        W 6956   0.268   7.416   9.191
 2893W        W 6957   8.539   7.514  10.617
 2894W        W 6958   5.259   6.182   2.273
 2895W        W 6959  10.396   0.445   0.671
 2896W        W 6960   1.353   1.202   9.957
 2897W        W 6961   6.925   5.551   8.163
 2898W        W 6962   4.210   8.275  11.713
 2899W        W 6963  10.359   5.415   2.165
 2900W        W 6964   4.481   6.568   8.988
 2901W        W 6965   4.233   4.894   9.104
 2902W        W 6966   1.389   8.501   1.276
 2903W        W 6967   3.462   5.368  11.505
 2904W        W 6968   3.242   3.328  10.455
 2905W        W 6969   3.644   4.036   9.924
 2906W        W 6970   1.786   9.871   1.701
 2907W        W 6971   4.033   2.098   9.386
 2908W        W 6972   9.356   7.509  10.094
 2909W        W 6973   7.541   0.591   3.577
 2910W        W 6974   2.049   9.611   2.366
 2911W        W 6975   0.617   5.392   0.972
 2912W        W 6976   0.413   3.322   8.978
 2913W        W 6977   6.630   5.948   8.302
 2914W        W 6978   2.434   1.681  10.794
 2915W        W 6979   9.218   7.533   0.787
 2916W        W 6980   8.966   1.202  11.885
 2917W        W 6981   6.055   4.683   9.574
 2918W        W 6982   3.120   5.679   9.417
 2919W        W 6983   6.744   6.415   0.428
 2920W        W 6984   0.038   0.764   9.077
 2921W        W 6985   5.511   1.795   3.020
 2922W        W 6986   3.774   5.471   9.804
 2923W        W 6987   6.961   9.367   9.494
 2924W        W 6988   5.812   7.459   8.473
 2925W        W 6989   8.452   9.363   1.449
 2926W        W 6990   2.128   8.879  10.555
 2927W        W 6991   1.704   9.386   1.478
 2928W        W 6992   9.871   5.782   3.243
 2929W        W 6993   1.053   9.422   3.319
 2930W        W 6994   6.524   4.230   3.743
 2931W        W 6995   6.514   8.921  10.994
 2932W        W 6996   6.776   3.622   0.853
 2933W        W 6997   1.751   3.565  11.936
 2934W        W 6998   1.508   8.050   1.021
 2935W        W 6999   0.760   5.697   1.925
 2936W        W 7000   1.708   1.764   2.865
 2937W        W 7001   7.250   6.730   9.389
 2938W        W 7002   2.172   5.692  11.385
 2939W        W 7003   4.775   9.947  10.782
 2940W        W 7004   7.808   5.096  10.357
 2941W        W 7005   9.762   5.024   0.432
 2942W        W 7006   3.419   8.833   9.544
 2943W        W 7007  10.409   8.857  11.731
 2944W        W 7008   6.444   5.593   9.904
 2945W        W 7009   1.174   4.036   2.821
 2946W        W 7010   9.509   9.139   1.808
 2947W        W 7011   1.850  10.245   9.236
 2948W        W 7012   8.371   4.659  11.948
 2949W        W 7013   4.056  10.462   0.158
 2950W        W 7014   2.573   1.612   1.810
 2951W        W 7015   0.289   9.084   9.825
 2952W        W 7016   8.495   1.217   0.073
 2953W        W 7017   5.066  10.388   0.904
 2954W        W 7018   7.451   0.333   9.842
 2955W        W 7019   6.037   9.545   2.989
 2956W        W 7020   8.786   4.524  11.003
 2957W        W 7021   8.502   4.707  10.047
 2958W        W 7022   0.975   2.614   0.057
 2959W        W 7023   6.683   2.408   1.315
 2960W        W 7024   3.839   2.208   0.058
 2961W        W 7025   7.040   4.646   2.421
 2962W        W 7026   5.999   6.156  10.904
 2963W        W 7027   2.454   3.061   3.357
 2964W        W 7028   6.599   7.254   9.110
 2965W        W 7029  10.263   8.783   0.694
 2966W        W 7030   4.120   0.013  11.318
 2967W        W 7031   2.643  10.431   0.679
 2968W        W 7032   7.919   6.376   8.575
 2969W        W 7033   2.713   9.025   2.725
 2970W        W 7034   0.708   2.180   9.498
 2971W        W 7035   5.994   3.768   1.813
 2972W        W 7036   2.145   2.865  10.414
 2973W        W 7037   7.647   5.988   7.834
 2974W        W 7038  10.437   3.871   3.238
 2975W        W 7039   1.361   1.198  11.047
 2976W        W 7040   2.627   8.392  11.755
 2977W        W 7041   2.863   4.164   2.344
 2978W        W 7042   1.337   7.158   2.327
 2979W        W 7043   9.328   4.246   9.050
 2980W        W 7044   8.803   7.122   8.376
 2981W        W 7045   9.944   5.728   0.945
 2982W        W 7046   7.564   6.789   2.381
 2983W        W 7047   7.179   5.150   7.960
 2984W        W 7048   4.103   3.652   9.350
 2985W        W 7049   2.170   7.961   2.992
 2986W        W 7050   8.571   0.244   8.872
 2987W        W 7051   0.329   8.423   2.242
 2988W        W 7052   9.595   8.093  11.415
 2989W        W 7053   2.822   9.554  10.347
 2990W        W 7054   3.857   2.671  11.769
 2991W        W 7055   8.971   7.341   2.675
 2992W        W 7056   2.340   2.553   0.186
 2993W        W 7057   8.410   8.786   3.300
 2994W        W 7058   1.776   3.329  10.517
 2995W        W 7059  10.374   0.585  10.978
 2996W        W 7060   1.129   0.698   9.994
 2997W        W 7061   9.435   1.302  11.313
 2998W        W 7062   9.496   6.069   9.485
 2999W        W 7063   6.116   4.254   1.710
 3000W        W 7064   5.455   7.115   8.257
 3001W        W 7065   5.586   9.340   2.825
 3002W        W 7066   0.888   8.155   1.697
 3003W        W 7067   4.625   7.515   0.822
 3004W        W 7068   4.120   3.799  10.377
 3005W        W 7069   0.267   0.725   0.451
 3006W        W 7070   3.667   7.467   1.361
 3007W        W 7071   3.908   5.191   8.086
 3008W        W 7072   1.239   8.532   1.765
 3009W        W 7073   4.766   2.245   1.727
 3010W        W 7074   6.524   2.224  10.973
 3011W        W 7075   8.960   8.208   2.460
 3012W        W 7076   9.038   3.668   3.414
 3013W        W 7077  10.430   3.807   9.367
 3014W        W 7078   6.609   8.182   0.771
 3015W        W 7079   8.868   9.491   0.283
 3016W        W 7080   5.600   8.367   9.018
 3017W        W 7081   2.232   3.742   9.283
 3018W        W 7082   9.119   6.508  10.053
 3019W        W 7083   3.360   3.165   9.588
 3020W        W 7084   5.248   1.799   9.359
 3021W        W 7085   3.994   8.035  10.799
 3022W        W 7086   6.913   4.251  10.870
 3023W        W 7087   0.867   8.012   3.344
 3024W        W 7088   8.323   9.732  10.402
 3025W        W 7089   5.018   7.106  10.514
 3026W        W 7090   0.960   0.924   0.015
 3027W        W 7091   0.892  10.398   9.069
 3028W        W 7092   7.812   4.017   8.958
 3029W        W 7093   3.716   5.476   3.961
 3030W        W 7094   6.530   2.639  11.395
 3031W        W 7095   8.821   7.708   3.479
 3032W        W 7096   6.929   1.782   0.220
 3033W        W 7097   1.237   3.960  10.922
 3034W        W 7098   4.060   2.995   8.526
 3035W        W 7099  10.374   9.724   1.930
 3036W        W 7100   3.062   2.621   0.094
 3037W        W 7101   0.430   0.997   3.594
 3038W        W 7102   0.050   2.632   2.828
 3039W        W 7103   7.596   2.228   2.191
 3040W        W 7104   1.265   8.089   3.032
 3041W        W 7105   9.451   7.336  11.090
 3042W        W 7106   1.778   4.447   3.461
 3043W        W 7107   3.132   1.853   2.455
 3044W        W 7108   4.402   2.004  11.404
 3045W        W 7109   4.510   1.264   8.910
 3046W        W 7110   2.199   0.681   0.899
 3047W        W 7111   9.953   5.854  10.072
 3048W        W 7112   9.367   3.792   9.332
 3049W        W 7113   3.445   4.316   3.146
 3050W        W 7114   6.670   1.130   3.144
 3051W        W 7115   9.356   2.001   9.371
 3052W        W 7116   5.646   0.325   0.474
 3053W        W 7117   8.382   7.346   0.346
 3054W        W 7118   3.660   4.637   3.924
 3055W        W 7119   0.814   6.181   1.763
 3056W        W 7120   0.204   5.580   8.762
 3057W        W 7121   9.026   6.228   0.379
 3058W        W 7122   8.728   3.535  10.237
 3059W        W 7123   8.574   6.934  11.270
 3060W        W 7124   9.872   6.612  11.935
 3061W        W 7125   3.817   4.626   2.930
 3062W        W 7126   4.957   9.024   0.361
 3063W        W 7127   6.712  10.046   9.874
 3064W        W 7128   6.231   5.906   8.663
 3065W        W 7129   8.949   7.446   1.345
 3066W        W 7130   5.558   7.958   0.798
 3067W        W 7131   5.316   3.105  10.392
 3068W        W 7132   5.955   1.388   0.701
 3069W        W 7133   5.784   3.638   0.943
 3070W        W 7134   1.388   6.359   0.443
 3071W        W 7135   3.642   3.108  11.575
 3072W        W 7136   0.570   6.413   2.898
 3073W        W 7137   4.641   6.964   0.941
 3074W        W 7138   0.831   6.894  11.856
 3075W        W 7139   9.438   3.792   0.944
 3076W        W 7140   7.542   1.153   2.923
 3077W        W 7141   7.025   2.145   1.024
 3078W        W 7142   8.907   4.033  10.985
 3079W        W 7143   3.643   7.622   8.869
 3080W        W 7144   3.272   0.740   9.295
 3081W        W 7145   3.686   4.165   1.081
 3082W        W 7146  10.363   7.418   1.703
 3083W        W 7147   6.050   9.938   1.315
 3084W        W 7148  10.415  10.350   9.090
 3085W        W 7149   8.609   8.081   0.582
 3086W        W 7150   7.588   7.572   1.016
 3087W        W 7151   5.354   7.480   8.719
 3088W        W 7152   2.207   1.417   2.201
 3089W        W 7153   6.454   4.059  10.756
 3090W        W 7154   9.914   8.428  10.406
 3091W        W 7155   1.609   4.313   2.784
 3092W        W 7156   2.379   8.141   1.895
 3093W        W 7157   8.365   3.130  11.815
 3094W        W 7158   6.727  10.229  11.948
 3095W        W 7159   9.913   3.528  10.025
 3096W        W 7160   5.248   4.543   1.284
 3097W        W 7161   3.015   1.815   3.560
 3098W        W 7162   0.819   4.255   8.507
 3099W        W 7163   7.198   8.105   3.575
 3100W        W 7164   6.857   8.340   3.201
 3101W        W 7165   5.539   6.366  10.743
 3102W        W 7166   2.146   8.937   3.225
 3103W        W 7167   6.053   8.532   1.378
 3104W        W 7168   1.862   4.537  11.989
 3105W        W 7169   9.976   0.386   9.723
 3106W        W 7170   6.131   8.157   2.792
 3107W        W 7171   3.901   5.943   4.089
 3108W        W 7172   5.058   5.145   9.596
 3109W        W 7173   7.008   9.005  10.788
 3110W        W 7174   8.921   1.712  10.073
 3111W        W 7175   7.332   0.954   1.574
 3112W        W 7176   9.879   4.854   9.062
 3113W        W 7177   2.800   2.727   3.202
 3114W        W 7178   7.893   2.457  10.035
 3115W        W 7179   4.698   1.074  10.712
 3116W        W 7180   7.126   5.680  10.499
 3117W        W 7181   2.736   3.196   2.482
 3118W        W 7182   5.999   5.245   9.950
 3119W        W 7183   1.329   6.649   2.516
 3120W        W 7184   7.831   5.127   3.170
 3121W        W 7185   9.759   1.722   9.474
 3122W        W 7186   6.528   3.150  11.216
 3123W        W 7187   7.046   0.917   3.467
 3124W        W 7188   5.985   0.033   0.239
 3125W        W 7189   7.414   8.530   0.379
 3126W        W 7190   8.473   4.789   8.919
 3127W        W 7191   8.610   5.743   1.275
 3128W        W 7192   8.834   6.525   2.502
 3129W        W 7193   7.464   2.628   2.483
 3130W        W 7194   3.729   5.101  11.134
 3131W        W 7195   3.008   9.386  10.805
 3132W        W 7196   4.042   0.436   9.236
 3133W        W 7197   4.011   1.846   2.295
 3134W        W 7198   8.161   0.530   1.953
 3135W        W 7199   8.139   5.558  10.299
 3136W        W 7200   3.790  10.361   3.228
 3137W        W 7201   5.138   9.039   9.452
 3138W        W 7202   0.175   3.098  11.538
 3139W        W 7203   8.826   5.063  10.890
 3140W        W 7204   0.885   9.981   0.672
 3141W        W 7205   5.450   5.125   3.178
 3142W        W 7206   7.914   0.757   9.212
 3143W        W 7207   9.569   1.226   9.762
 3144W        W 7208   2.289   4.320   9.088
 3145W        W 7209   9.300   8.045  11.856
 3146W        W 7210   5.128   9.953   3.041
 3147W        W 7211   5.575   5.355  10.746
 3148W        W 7212   2.259   6.594   2.537
 3149W        W 7213   5.688   2.145  11.485
 3150W        W 7214   5.922   1.393   9.100
 3151W        W 7215   7.707   5.184   8.441
 3152W        W 7216   9.852   0.235   3.390
 3153W        W 7217   0.433   4.256   8.815
 3154W        W 7218  10.401   2.333  10.378
 3155W        W 7219   4.826   6.933   3.001
 3156W        W 7220   9.440   1.011  10.884
 3157W        W 7221   9.926   9.372   1.971
 3158W        W 7222   3.671   2.637   8.749
 3159W        W 7223   7.867   6.845   8.753
 3160W        W 7224   4.668   5.264  11.294
 3161W        W 7225   1.877   7.553  11.646
 3162W        W 7226   4.603   7.310   3.279
 3163W        W 7227   6.224   6.426  11.882
 3164W        W 7228   8.547   5.598   2.188
 3165W        W 7229   0.796   0.324  11.313
 3166W        W 7230   5.177   2.313  11.506
 3167W        W 7231   5.007   8.473   3.479
 3168W        W 7232   2.642   0.813   9.965
 3169W        W 7233   8.773   7.711   2.364
 3170W        W 7234   1.047   1.920   9.911
 3171W        W 7235   8.392  10.366   9.192
 3172W        W 7236   6.082   3.774   2.699
 3173W        W 7237   9.825  10.004   2.690
 3174W        W 7238   7.404   9.832   2.967
 3175W        W 7239   6.898   5.191  10.726
 3176W        W 7240   9.442   3.694   3.090
 3177W        W 7241   4.183   7.266  10.422
 3178W        W 7242   8.536   7.839  10.235
 3179W        W 7243   9.332   1.091   3.140
 3180W        W 7244   1.353   2.761   9.966
 3181W        W 7245   2.171   3.981  10.821
 3182W        W 7246   2.218   5.438   0.364
 3183W        W 7247   4.769   2.750   1.458
 3184W        W 7248   6.197   5.609   9.464
 3185W        W 7249   6.925   0.239  11.763
 3186W        W 7250   0.671   6.395   8.533
 3187W        W 7251   1.844   3.367   9.298
 3188W        W 7252   5.102   6.123   9.607
 3189W        W 7253   6.413   5.104  11.317
 3190W        W 7254   2.336   5.553  10.905
 3191W        W 7255   8.686   5.529  10.570
 3192W        W 7256   0.845   7.468  11.037
 3193W        W 7257   4.534   1.749   0.550
 3194W        W 7258   1.952   2.745   1.564
 3195W        W 7259   0.746   5.175   3.273
 3196W        W 7260   8.597   7.580  11.947
 3197W        W 7261   9.677   1.313   3.472
 3198W        W 7262   2.424   9.112   0.288
 3199W        W 7263   6.000   6.575   8.966
 3200W        W 7264   4.697   2.438  11.398
 3201W        W 7265   2.313   9.149  10.951
 3202W        W 7266   9.079   0.247  10.983
 3203W        W 7267   1.039   1.249   0.496
 3204W        W 7268   7.179   6.008   8.107
 3205W        W 7269   0.529   0.292   3.235
 3206W        W 7270   9.115   8.409   1.500
 3207W        W 7271   6.910   6.019   3.603
 3208W        W 7272   8.333   7.091  10.240
 3209W        W 7273   1.423   3.536  11.112
 3210W        W 7274   3.730   3.584  11.434
 3211W        W 7275   8.111   1.872   9.531
 3212W        W 7276   1.224   2.362   2.302
 3213W        W 7277   5.245   2.407   1.637
 3214W        W 7278   1.245   1.958   2.662
 3215W        W 7279   8.892   9.845   9.731
 3216W        W 7280   9.870  10.442   2.414
 3217W        W 7281   3.411   9.894   0.516
 3218W        W 7282   4.527   5.551  10.875
 3219W        W 7283   3.822   4.380   0.600
 3220W        W 7284   5.312   2.852   0.712
 3221W        W 7285   7.887   7.916   9.024
 3222W        W 7286   0.193   6.451   0.223
 3223W        W 7287   5.223   6.697  10.982
 3224W        W 7288   3.481   5.515   4.414
 3225W        W 7289   7.830   4.415   1.005
 3226W        W 7290   4.752   5.538   3.477
 3227W        W 7291   9.822   3.634   2.197
 3228W        W 7292   7.996   1.320  11.367
 3229W        W 7293   2.172   5.229   2.516
 3230W        W 7294   5.788   0.348   0.962
 3231W        W 7295   0.220   9.098   3.144
 3232W        W 7296   0.913   8.267   9.352
 3233W        W 7297   3.848   8.297   2.782
 3234W        W 7298   2.753  10.458   2.714
 3235W        W 7299   8.657   5.019   1.732
 3236W        W 7300   3.575   3.063   0.951
 3237W        W 7301  10.023   0.783   2.691
 3238W        W 7302   6.137   4.339  10.482
 3239W        W 7303   8.481   4.097   3.271
 3240W        W 7304   0.006  10.343   8.583
 3241W        W 7305   7.368   3.521   9.480
 3242W        W 7306   9.270   8.108   1.119
 3243W        W 7307   5.574   5.251   8.977
 3244W        W 7308   4.180   8.528  10.712
 3245W        W 7309   1.942   0.236   0.779
 3246W        W 7310   1.006   0.790   2.702
 3247W        W 7311   2.698   0.241   8.694
 3248W        W 7312   8.452   9.077   9.781
 3249W        W 7313   9.934   7.557   0.266
 3250W        W 7314  10.303   9.339  11.727
 3251W        W 7315   0.248   4.720   9.036
 3252W        W 7316   3.769   9.430   1.140
 3253W        W 7317   4.717  10.334  11.103
 3254W        W 7318   2.717   6.007   1.052
 3255W        W 7319   2.426   0.376   0.525
 3256W        W 7320   9.344   0.851  10.387
 3257W        W 7321   5.989   9.539  11.497
 3258W        W 7322   0.737   1.464  10.785
 3259W        W 7323   6.890   7.217  10.456
 3260W        W 7324   6.141   7.487   9.833
 3261W        W 7325  10.065   1.791   0.778
 3262W        W 7326   6.232   3.945   9.234
 3263W        W 7327   8.525   6.669   9.847
 3264W        W 7328   2.199   0.520   2.328
 3265W        W 7329   4.067   8.432   3.245
 3266W        W 7330   4.157   5.633   3.719
 3267W        W 7331   1.313   3.278   9.257
 3268W        W 7332   8.899   3.123   2.805
 3269W        W 7333   9.181   2.269  11.304
 3270W        W 7334   8.960   5.431   1.497
 3271W        W 7335   6.219   4.464  11.037
 3272W        W 7336   0.417   3.222  10.815
 3273W        W 7337   5.624   6.065   3.851
 3274W        W 7338   1.699   8.945   2.807
 3275W        W 7339   8.035   5.525   2.896
 3276W        W 7340   5.662   1.206  11.444
 3277W        W 7341   2.901   5.446   2.465
 3278W        W 7342   0.510  10.249   2.436
 3279W        W 7343   1.897   8.407   9.080
 3280W        W 7344   3.113   6.153  10.978
 3281W        W 7345   3.255   5.322   9.775
 3282W        W 7346   7.821   3.652   1.620
 3283W        W 7347   6.775  10.088   0.798
 3284W        W 7348   1.170   0.511  10.515
 3285W        W 7349   0.249  10.105  10.057
 3286W        W 7350   0.958  10.384   2.745
 3287W        W 7351   3.310   8.938  10.800
 3288W        W 7352   8.128   8.942   8.896
 3289W        W 7353  10.362   8.356  11.748
 3290W        W 7354   2.153   2.767  11.373
 3291W        W 7355   6.390   0.888   1.241
 3292W        W 7356   0.778   9.461   1.405
 3293W        W 7357   6.572   8.200   8.771
 3294W        W 7358   7.542   8.667   9.744
 3295W        W 7359   6.242  10.105   0.011
 3296W        W 7360   9.536   1.938   0.972
 3297W        W 7361   0.907   6.508   1.372
 3298W        W 7362  10.367   2.412  10.872
 3299W        W 7363   6.934  10.377   2.184
 3300W        W 7364   1.865   2.361   1.914
 3301W        W 7365   1.960   4.598   9.910
 3302W        W 7366   5.163   9.444   3.178
 3303W        W 7367   5.451   0.948   3.569
 3304W        W 7368   8.944   3.239   9.836
 3305W        W 7369  10.195   4.911   0.214
 3306W        W 7370   3.861   7.793   2.738
 3307W        W 7371   3.830   8.230   0.446
 3308W        W 7372   8.688   9.959   9.285
 3309W        W 7373   4.620   6.881   1.443
 3310W        W 7374   3.798   5.941  10.509
 3311W        W 7375   9.283   4.434  11.017
 3312W        W 7376   8.340   7.577   9.855
 3313W        W 7377   9.876   4.612   1.286
 3314W        W 7378   9.427   7.655   1.252
 3315W        W 7379   3.182   4.018   0.868
 3316W        W 7380   2.896   4.391   0.544
 3317W        W 7381   0.481   2.804  11.126
 3318W        W 7382   8.810   2.587  11.587
 3319W        W 7383   8.164   6.015   0.194
 3320W        W 7384   3.401   0.281  11.689
 3321W        W 7385   6.462   7.949   1.250
 3322W        W 7386   0.785   3.502   1.537
 3323W        W 7387   9.501   6.661  11.168
 3324W        W 7388   6.494   5.695   0.630
 3325W        W 7389   7.451   9.815   0.045
 3326W        W 7390   4.291   0.849   2.048
 3327W        W 7391   3.680   2.297  11.031
 3328W        W 7392   7.812   4.823   0.640
 3329W        W 7393  10.326   1.338   0.794
 3330W        W 7394   4.625   3.216   1.313
 3331W        W 7395   8.006   0.745   8.685
 3332W        W 7396   2.031   1.756   3.475
 3333W        W 7397   5.942   4.055  10.905
 3334W        W 7398   4.066   8.442   8.712
 3335W        W 7399   8.789   4.302  11.889
 3336W        W 7400   6.022   5.119   8.755
 3337W        W 7401   1.523   9.449   2.582
 3338W        W 7402   2.203   8.933   2.711
 3339W        W 7403   8.042   8.426  10.222
 3340W        W 7404   1.049   0.259   3.135
 3341W        W 7405   7.314   4.006   9.989
 3342W        W 7406   1.692   2.129   3.232
 3343W        W 7407   0.918   5.281   9.292
 3344W        W 7408   8.163   5.047   1.604
 3345W        W 7409   2.558   9.925   3.333
 3346W        W 7410   5.458   4.824  11.832
 3347W        W 7411  10.299   9.828   3.319
 3348W        W 7412  10.478   6.121   1.500
 3349W        W 7413   4.227   7.496   2.548
 3350W        W 7414   6.607   9.756   2.128
 3351W        W 7415  10.416   1.424  11.884
 3352W        W 7416   9.001   7.023   1.690
 3353W        W 7417   0.261   9.466   1.471
 3354W        W 7418   7.868   3.557   2.145
 3355W        W 7419   2.969   5.112  11.998
 3356W        W 7420   5.486   6.567   8.929
 3357W        W 7421   6.051   2.235   8.763
 3358W        W 7422   3.779   7.180   8.635
 3359W        W 7423   3.821   8.906  10.742
 3360W        W 7424   8.118   8.976   0.877
 3361W        W 7425   5.206   2.664  10.097
 3362W        W 7426   0.983   9.481  10.571
 3363W        W 7427   3.145   1.367  11.797
 3364W        W 7428   7.480   5.563   8.126
 3365W        W 7429   6.734  10.469  10.157
 3366W        W 7430   6.701   5.009   2.275
 3367W        W 7431   0.318   0.286   2.497
 3368W        W 7432   6.898   9.421  11.049
 3369W        W 7433   5.993   8.958   2.223
 3370W        W 7434  10.108   4.288   9.368
 3371W        W 7435   9.298   6.366   2.677
 3372W        W 7436   7.136   1.894  10.462
 3373W        W 7437   5.944   5.125  11.029
 3374W        W 7438   2.688   5.525   1.228
 3375W        W 7439   6.947   2.513  11.049
 3376W        W 7440   9.505   1.168   1.809
 3377W        W 7441   1.765   0.340  10.883
 3378W        W 7442   4.951  10.070  11.595
 3379W        W 7443   6.474   3.096   9.811
 3380W        W 7444   1.192   3.958   0.573
 3381W        W 7445   0.466   6.266   1.177
 3382W        W 7446   5.144   5.733   0.755
 3383W        W 7447   2.587   8.647  10.502
 3384W        W 7448   9.541   9.575   2.884
 3385W        W 7449   1.325   7.039  11.950
 3386W        W 7450   2.234   8.138   8.768
 3387W        W 7451   6.443   8.855   1.974
 3388W        W 7452   9.350   8.661   0.554
 3389W        W 7453  10.326   5.047   2.878
 3390W        W 7454   4.632   7.804   3.205
 3391W        W 7455   7.553   8.068  11.436
 3392W        W 7456   4.722   7.046  11.958
 3393W        W 7457   3.349   2.169   0.140
 3394W        W 7458   4.661   9.406   2.451
 3395W        W 7459   4.978   9.068   0.905
 3396W        W 7460   1.103  10.473   1.827
 3397W        W 7461   6.324   9.292  11.796
 3398W        W 7462   4.577   0.813   8.127
 3399W        W 7463   8.109   6.716  11.043
 3400W        W 7464  10.372   2.306   3.481
 3401W        W 7465   8.746   8.024   8.829
 3402W        W 7466   4.681   3.630  10.624
 3403W        W 7467   7.224   4.725   8.990
 3404W        W 7468   4.145   8.144   1.149
 3405W        W 7469   3.533   5.601   1.472
 3406W        W 7470   8.503   2.175   2.782
 3407W        W 7471  10.334   1.790   3.374
 3408W        W 7472   6.540   6.113  10.436
 3409W        W 7473   8.975   2.277   3.405
 3410W        W 7474   4.247   4.913   0.483
 3411W        W 7475   5.071   7.569  11.516
 3412W        W 7476   8.869   0.626  11.252
 3413W        W 7477   5.124   0.499   3.548
 3414W        W 7478   2.039   8.868   9.313
 3415W        W 7479   5.590   1.409   2.537
 3416W        W 7480   5.053   4.306   1.687
 3417W        W 7481   7.162   0.020   3.612
 3418W        W 7482   9.397   4.538  11.647
 3419W        W 7483   4.604   1.501   1.011
 3420W        W 7484   6.594  10.378  10.622
 3421W        W 7485   6.488   3.537   9.486
 3422W        W 7486   6.101   5.108   0.416
 3423W        W 7487   2.917   1.314   3.560
 3424W        W 7488   4.457   8.571  10.285
 3425W        W 7489   3.481   1.905   3.395
 3426W        W 7490   5.721   5.578   3.173
 3427W        W 7491   7.049   7.364  11.139
 3428W        W 7492   7.398   3.389   0.284
 3429W        W 7493   3.681   5.982   1.145
 3430W        W 7494   6.307   6.427   8.580
 3431W        W 7495   5.381   1.725   2.161
 3432W        W 7496   4.753   2.174   2.252
 3433W        W 7497   1.061   7.872   0.771
 3434W        W 7498   7.224   8.346   2.251
 3435W        W 7499   5.892   5.630   1.716
 3436W        W 7500   7.989   0.975   3.314
 3437W        W 7501   5.441   4.323   8.968
 3438W        W 7502   7.732   6.430   1.428
 3439W        W 7503   6.028   6.008   3.271
 3440W        W 7504  10.178   3.177  11.450
 3441W        W 7505   9.879   7.051   1.290
 3442W        W 7506   8.045   6.700  10.033
 3443W        W 7507   9.843   1.862  11.417
 3444W        W 7508   6.422   5.159   0.011
 3445W        W 7509   9.419   5.430  11.771
 3446W        W 7510   4.070   0.433   2.787
 3447W        W 7511  10.301   4.424   0.202
 3448W        W 7512   1.805   2.132   9.305
 3449W        W 7513   0.260   0.420  11.702
 3450W        W 7514   1.306   1.385   0.993
 3451W        W 7515  10.351   5.191  10.912
 3452W        W 7516   4.375   2.598   1.141
 3453W        W 7517   1.755   8.438  10.018
 3454W        W 7518   4.791   4.519   1.012
 3455W        W 7519   1.257   6.770  11.532
 3456W        W 7520   3.273   7.383   3.161
 3457W        W 7521   1.257   1.401  10.553
 3458W        W 7522   1.407  10.379  10.823
 3459W        W 7523   0.420   3.764   0.394
 3460W        W 7524   3.807   8.031   8.457
 3461W        W 7525   2.518   1.231  11.399
 3462W        W 7526   5.117   4.600   2.108
 3463W        W 7527   2.857   9.361   0.253
 3464W        W 7528   3.916   1.878  11.241
 3465W        W 7529   9.367   4.682   8.742
 3466W        W 7530   2.878   8.427   9.350
 3467W        W 7531  10.273   5.194   1.239
 3468W        W 7532   6.082   0.934  11.444
 3469W        W 7533  10.375   7.730  10.873
 3470W        W 7534   3.221   0.354  10.272
 3471W        W 7535   4.720   0.460   0.501
 3472W        W 7536   6.914   5.765  10.040
 3473W        W 7537   7.210   9.030  11.694
 3474W        W 7538   6.529   7.780   1.732
 3475W        W 7539   1.600   9.437   9.639
 3476W        W 7540   4.289   6.113   2.449
 3477W        W 7541   8.436   6.837   2.541
 3478W        W 7542   5.185   0.350   0.706
 3479W        W 7543   8.510   0.421   9.941
 3480W        W 7544   1.423   7.248  11.446
 3481W        W 7545   9.977   7.004   9.057
 3482W        W 7546   6.992   7.426   8.721
 3483W        W 7547   4.132   9.337   8.796
 3484W        W 7548   2.594   6.656   1.825
 3485W        W 7549   6.198   2.319  11.774
 3486W        W 7550   5.001   3.337   1.794
 3487W        W 7551   9.331   6.637   0.489
 3488W        W 7552   8.870   2.836   1.923
 3489W        W 7553  10.274   7.442   8.997
 3490W        W 7554   4.965   6.377   8.202
 3491W        W 7555   9.817   5.759   2.733
 3492W        W 7556   7.927   1.453   3.118
 3493W        W 7557   5.568   6.125   8.678
 3494W        W 7558   0.291   8.111   9.835
 3495W        W 7559   1.010   2.707   1.915
 3496W        W 7560   8.403   8.565   1.811
 3497W        W 7561   6.831   6.575   8.533
 3498W        W 7562   1.060   2.613   1.405
 3499W        W 7563   7.411   0.014  11.391
 3500W        W 7564   9.553   2.026  10.814
 3501W        W 7565   8.347   5.207   9.987
 3502W        W 7566   2.063   7.388  10.593
 3503W        W 7567   0.257   2.728  10.661
 3504W        W 7568   5.742   3.882   0.093
 3505W        W 7569   2.828   7.867   0.450
 3506W        W 7570   7.490   0.499   8.981
 3507W        W 7571   3.191   1.515   3.166
 3508W        W 7572   2.399   0.626  11.839
 3509W        W 7573   4.694   6.378  10.270
 3510W        W 7574   2.107  10.356   1.851
 3511W        W 7575   3.320   5.062   8.784
 3512W        W 7576   9.124   8.686   2.814
 3513W        W 7577   8.480   7.403   9.404
 3514W        W 7578   4.253   0.793   8.944
 3515W        W 7579  10.463   9.785   9.320
 3516W        W 7580   1.356   8.901   9.963
 3517W        W 7581   7.401   3.546   1.911
 3518W        W 7582   1.666   5.723   9.224
 3519W        W 7583   5.632   2.199   0.926
 3520W        W 7584   6.837   9.119   0.612
 3521W        W 7585   6.051   7.485   0.792
 3522W        W 7586   4.189   2.229   0.448
 3523W        W 7587   5.148   5.152  10.564
 3524W        W 7588   9.659  10.404   1.427
 3525W        W 7589   4.046   1.223   9.124
 3526W        W 7590   0.485   1.857   9.121
 3527W        W 7591   3.117   7.428   8.823
 3528W        W 7592   1.454   7.605   1.849
 3529W        W 7593   6.387   3.984   8.156
 3530W        W 7594   7.647   5.925   1.395
 3531W        W 7595   6.894   2.189   0.527
 3532W        W 7596   8.429   4.622   1.482
 3533W        W 7597   9.009   3.645   0.675
 3534W        W 7598   3.281   6.969  11.285
 3535W        W 7599   7.397   7.052  11.329
 3536W        W 7600   5.545   1.252   2.038
 3537W        W 7601  10.432   8.721   2.208
 3538W        W 7602  10.258   1.520  10.697
 3539W        W 7603   0.343   8.851   1.195
 3540W        W 7604   2.911   1.152   1.954
 3541W        W 7605   2.622   3.596   1.631
 3542W        W 7606   3.163   5.772   1.141
 3543W        W 7607   8.437   8.411   0.234
 3544W        W 7608   0.343   0.523  11.180
 3545W        W 7609   9.814   3.736   2.711
 3546W        W 7610   2.357   8.637  10.968
 3547W        W 7611   0.344   6.758  11.723
 3548W        W 7612  10.378   7.038   1.371
 3549W        W 7613   4.122   6.148   3.653
 3550W        W 7614   3.884  10.426   2.710
 3551W        W 7615  10.034  10.462  11.502
 3552W        W 7616   6.038   9.097   2.705
 3553W        W 7617   0.018   9.919   0.393
 3554W        W 7618   8.573   1.892  11.196
 3555W        W 7619   9.111   6.505   0.955
 3556W        W 7620  10.451   5.662  10.116
 3557W        W 7621   4.525   6.434   0.700
 3558W        W 7622   8.141   4.873  11.499
 3559W        W 7623   9.547   5.026  11.474
 3560W        W 7624   9.466   3.573   0.454
 3561W        W 7625   7.498   5.991   3.361
 3562W        W 7626  10.386   1.175   9.354
 3563W        W 7627  10.472   4.778  11.791
 3564W        W 7628   5.322   9.489   3.670
 3565W        W 7629   8.359   9.892   3.139
 3566W        W 7630   5.083   9.501   9.755
 3567W        W 7631   4.694   8.413   2.534
 3568W        W 7632   5.840   4.025   9.589
 3569W        W 7633   6.459   6.243   3.519
 3570W        W 7634   8.647   8.588   2.695
 3571W        W 7635   1.689   6.524  11.558
 3572W        W 7636   5.498   7.832   1.376
 3573W        W 7637   8.858  10.389   3.510
 3574W        W 7638   0.870   3.195   1.954
 3575W        W 7639   2.856  10.316   3.188
 3576W        W 7640  10.328   9.137   2.807
 3577W        W 7641   4.244   3.179   0.373
 3578W        W 7642   5.437   9.892  11.525
 3579W        W 7643   9.826   0.493   8.682
 3580W        W 7644   6.887   0.093   0.256
 3581W        W 7645   3.718   4.645   3.421
 3582W        W 7646   8.588   6.883   9.380
 3583W        W 7647   7.593   6.086   8.857
 3584W        W 7648   8.791   0.046   0.459
 3585W        W 7649   4.441   5.927   3.301
 3586W        W 7650   2.063   5.217  11.201
 3587W        W 7651   7.672   4.112   1.428
 3588W        W 7652   1.584   1.302   1.438
 3589W        W 7653   7.694   8.516   2.342
 3590W        W 7654   6.888   5.106   8.827
 3591W        W 7655   1.797   6.026   1.251
 3592W        W 7656   0.972   2.833  11.107
 3593W        W 7657   5.908   5.144   2.923
 3594W        W 7658   5.469  10.388   8.901
 3595W        W 7659   2.196   3.340  10.214
 3596W        W 7660   9.729   0.335   2.898
 3597W        W 7661   6.161   8.481   2.390
 3598W        W 7662   2.255   1.734   3.008
 3599W        W 7663   5.999   7.936   9.598
 3600W        W 7664   7.612   3.100   2.269
 3601W        W 7665   7.435  10.140   3.399
 3602W        W 7666   4.495   3.612   0.528
 3603W        W 7667   3.843   6.690  10.925
 3604W        W 7668   6.965   1.243   2.701
 3605W        W 7669   1.475   8.314  10.827
 3606W        W 7670   8.266   9.901  11.387
 3607W        W 7671  10.409   0.272  11.371
 3608W        W 7672   9.353   9.157   9.077
 3609W        W 7673   6.460   2.607   9.541
 3610W        W 7674   3.572   1.264   8.918
 3611W        W 7675   5.964   9.022   0.678
 3612W        W 7676   9.331   9.885  11.311
 3613W        W 7677   4.214   6.649   3.743
 3614W        W 7678   4.602   9.093   8.737
 3615W        W 7679   0.127   1.859   2.599
 3616W        W 7680   7.201   9.681   8.779
 3617W        W 7681   6.686   4.485  11.267
 3618W        W 7682   0.913   6.585  10.553
 3619W        W 7683   9.002   4.273  11.422
 3620W        W 7684   6.527   7.682   0.832
 3621W        W 7685   9.725   2.694   2.478
 3622W        W 7686   8.105  10.425   2.756
 3623W        W 7687  10.008  10.490   8.409
 3624W        W 7688   6.401   9.287   2.301
 3625W        W 7689   4.127   4.272   8.543
 3626W        W 7690   1.163   6.428   2.055
 3627W        W 7691   1.988   8.956   1.371
 3628W        W 7692   4.181   6.967   8.872
 3629W        W 7693   2.118   0.774   1.880
 3630W        W 7694  10.029   0.807   9.077
 3631W        W 7695   6.980   5.078   3.476
 3632W        W 7696   5.246   5.291   0.968
 3633W        W 7697   8.794   9.936  11.287
 3634W        W 7698   8.592   5.692  10.026
 3635W        W 7699   4.712   0.826   9.176
 3636W        W 7700   4.294   9.484   0.373
 3637W        W 7701   0.350   9.480   9.102
 3638W        W 7702   5.662   8.293   1.686
 3639W        W 7703   7.050   4.511   2.919
 3640W        W 7704   4.670   8.101   8.952
 3641W        W 7705   2.128   5.561   1.813
 3642W        W 7706  10.273   3.601   2.463
 3643W        W 7707   5.559   2.263  10.977
 3644W        W 7708   7.467   5.639   8.640
 3645W        W 7709   5.137   3.531   2.276
 3646W        W 7710   0.693   9.437  11.986
 3647W        W 7711   0.921   6.036   8.798
 3648W        W 7712   7.318   8.860   2.413
 3649W        W 7713   3.743   7.952   0.899
 3650W        W 7714   1.810   3.420   2.147
 3651W        W 7715   0.815   0.749   0.498
 3652W        W 7716   6.931   3.457   1.293
 3653W        W 7717   3.847   3.205   0.023
 3654W        W 7718   8.077   7.892   9.503
 3655W        W 7719   4.310   0.149  10.448
 3656W        W 7720   0.955   4.691  11.235
 3657W        W 7721   5.420   6.627   8.049
 3658W        W 7722   3.719   4.837   0.422
 3659W        W 7723   2.868   5.948   1.551
 3660W        W 7724   7.178   8.086   0.295
 3661W        W 7725   3.173   1.370   0.690
 3662W        W 7726   5.019   6.642  11.842
 3663W        W 7727   8.029   1.245   1.394
 3664W        W 7728   7.093   3.589   2.789
 3665W        W 7729   1.179   9.839  10.249
 3666W        W 7730   5.085   0.873   0.468
 3667W        W 7731  10.459   6.639  10.060
 3668W        W 7732   6.076   5.995   0.835
 3669W        W 7733   7.135   0.466   1.528
 3670W        W 7734   4.292  10.438   3.133
 3671W        W 7735   4.032   1.774   0.708
 3672W        W 7736   0.472   9.516  11.498
 3673W        W 7737   6.047   3.643   8.837
 3674W        W 7738   0.513   2.800   1.955
 3675W        W 7739   8.900   7.118  10.701
 3676W        W 7740   9.086   2.165   1.111
 3677W        W 7741   6.839   8.043   2.034
 3678W        W 7742   5.720   7.571  10.919
 3679W        W 7743   0.760   0.529  10.846
 3680W        W 7744   5.485   6.915  11.454
 3681W        W 7745   1.938   9.523   3.293
 3682W        W 7746   5.046   8.779   1.898
 3683W        W 7747   2.293   3.316   1.299
 3684W        W 7748   0.723   0.369   2.768
 3685W        W 7749   1.195   6.921   3.515
 3686W        W 7750   5.214   4.112   3.861
 3687W        W 7751   6.273   3.288   1.786
 3688W        W 7752   8.824   7.615   0.460
 3689W        W 7753   5.882   3.023   3.166
 3690W        W 7754   3.082   9.901   1.387
 3691W        W 7755  10.493   8.410   9.552
 3692W        W 7756   7.433   8.186   8.932
 3693W        W 7757   5.951   4.940  11.915
 3694W        W 7758   1.927   3.423   2.827
 3695W        W 7759   0.851   8.389   2.965
 3696W        W 7760   0.076   7.683  11.689
 3697W        W 7761   4.088   3.382   8.905
 3698W        W 7762   8.383   4.568   9.407
 3699W        W 7763   4.549   2.136   9.350
 3700W        W 7764   2.607   4.280  11.020
 3701W        W 7765   2.859   6.662  10.024
 3702W        W 7766   4.989   2.827   9.092
 3703W        W 7767   8.847   4.740   3.587
 3704W        W 7768   3.279  10.161   0.970
 3705W        W 7769   1.878   2.845   0.368
 3706W        W 7770   7.400  10.165  10.994
 3707W        W 7771  10.108   7.831   0.883
 3708W        W 7772   1.480   4.119  11.367
 3709W        W 7773   6.827   5.541   2.396
 3710W        W 7774   9.472   6.329   0.117
 3711W        W 7775   2.402   1.303   3.517
 3712W        W 7776   2.245   2.207  10.027
 3713W        W 7777   8.565   4.556  11.476
 3714W        W 7778   8.508   8.065   9.279
 3715W        W 7779   5.039   6.216   8.685
 3716W        W 7780   5.172  10.039   2.493
 3717W        W 7781   1.031   4.231   3.624
 3718W        W 7782   7.494   1.644   2.819
 3719W        W 7783   7.449   4.762   2.687
 3720W        W 7784   0.672   0.870   9.858
 3721W        W 7785   5.057   2.451  11.027
 3722W        W 7786   7.575   2.185   0.237
 3723W        W 7787   1.390   2.424   0.435
 3724W        W 7788   1.237   8.474   9.744
 3725W        W 7789   8.176   0.974  10.039
 3726W        W 7790   5.965   8.659  10.429
 3727W        W 7791   8.902   8.473   0.428
 3728W        W 7792   3.231   2.279   3.613
 3729W        W 7793   0.947   6.039  11.876
 3730W        W 7794  10.142   7.935  11.558
 3731W        W 7795   5.600   3.892   8.630
 3732W        W 7796   6.959   7.549   2.689
 3733W        W 7797   6.847   5.134  11.737
 3734W        W 7798   9.831   6.467   0.444
 3735W        W 7799   0.968   2.605  10.246
 3736W        W 7800   3.637   0.303   3.008
 3737W        W 7801   8.624   9.736   1.142
 3738W        W 7802   6.123   5.990   3.798
 3739W        W 7803   6.692   7.578   2.211
 3740W        W 7804   5.316   4.075   9.438
 3741W        W 7805   9.494   2.274   0.266
 3742W        W 7806   0.506   7.676   0.962
 3743W        W 7807   7.004   1.759   2.735
 3744W        W 7808   8.205   0.107  10.654
 3745W        W 7809   3.746   1.371  10.929
 3746W        W 7810   7.813   3.593   0.034
 3747W        W 7811   4.144   0.858   3.104
 3748W        W 7812   3.611   5.534   9.320
 3749W        W 7813   2.707   6.584   9.029
 3750W        W 7814   8.911   2.998   1.413
 3751W        W 7815   5.501   2.638  10.527
 3752W        W 7816   5.190   3.058   0.224
 3753W        W 7817   4.255   1.644   9.330
 3754W        W 7818   4.308   5.131  10.506
 3755W        W 7819   1.311   7.659   3.325
 3756W        W 7820  10.214   2.986   3.013
 3757W        W 7821   5.765   7.433   9.041
 3758W        W 7822   4.817   7.986   2.788
 3759W        W 7823   3.723   4.182   9.052
 3760W        W 7824   4.793   2.871  11.909
 3761W        W 7825   4.674   5.090   2.042
 3762W        W 7826   1.378   5.313   8.660
 3763W        W 7827   3.822   3.222  11.071
 3764W        W 7828   5.560   4.117   8.018
 3765W        W 7829   1.467   3.100  10.860
 3766W        W 7830   0.025   4.237   9.098
 3767W        W 7831   2.412   8.901   9.682
 3768W        W 7832   9.866   1.408   1.021
 3769W        W 7833   3.152   1.165  10.597
 3770W        W 7834   6.789   0.428   1.142
 3771W        W 7835   7.879   7.437   0.309
 3772W        W 7836   7.942   1.882  10.552
 3773W        W 7837   1.509   7.731  11.350
 3774W        W 7838  10.478  10.277   3.138
 3775W        W 7839   4.173   1.338   2.741
 3776W        W 7840   0.965   4.949   1.710
 3777W        W 7841   5.559   5.676   0.172
 3778W        W 7842   2.763   7.443   1.264
 3779W        W 7843  10.283   1.829  10.288
 3780W        W 7844   1.514   4.462   9.683
 3781W        W 7845   8.620   8.338   1.410
 3782W        W 7846   7.812   0.449  10.566
 3783W        W 7847   5.165   3.623  10.356
 3784W        W 7848   4.986   5.482   9.961
 3785W        W 7849   1.597   5.639   0.964
 3786W        W 7850   1.914   2.889   2.053
 3787W        W 7851  10.212  10.080   2.283
 3788W        W 7852   1.818   4.096   9.901
 3789W        W 7853   6.104   5.539   3.533
 3790W        W 7854   5.560   6.969   1.469
 3791W        W 7855   7.640   4.996   1.666
 3792W        W 7856   5.702   5.602  10.311
 3793W        W 7857   1.880   4.304   2.324
 3794W        W 7858   7.687   3.768   0.511
 3795W        W 7859   3.007   9.046  10.414
 3796W        W 7860   0.043   4.631  10.819
 3797W        W 7861   3.534   9.970   2.301
 3798W        W 7862   3.287   0.443   1.669
 3799W        W 7863   9.789   7.418   8.805
 3800W        W 7864   2.454   4.778   8.941
 3801W        W 7865   0.220   1.359  10.880
 3802W        W 7866   6.942   5.436   0.525
 3803W        W 7867   0.855   9.928   1.179
 3804W        W 7868   6.410   8.853   0.457
 3805W        W 7869   7.166   7.609   9.682
 3806W        W 7870   7.457   3.218  11.294
 3807W        W 7871   9.963   1.868   1.847
 3808W        W 7872   3.074   7.954  11.095
 3809W        W 7873   0.428   7.300   2.912
 3810W        W 7874   4.489   6.434   1.211
 3811W        W 7875   4.993   3.033   9.826
 3812W        W 7876   0.894   3.928   1.247
 3813W        W 7877   1.993   9.548  10.983
 3814W        W 7878   1.167   2.237   1.804
 3815W        W 7879   7.918   2.398  10.550
 3816W        W 7880   5.712   1.608  11.756
 3817W        W 7881   5.594   1.262   3.052
 3818W        W 7882  10.252   7.633   2.165
 3819W        W 7883   9.414   5.455   2.184
 3820W        W 7884   0.894   4.149   0.196
 3821W        W 7885   0.355   7.231  10.138
 3822W        W 7886   4.717   5.050  10.819
 3823W        W 7887  10.350   3.446   9.728
 3824W        W 7888   9.326   2.642   2.151
 3825W        W 7889   4.964   6.463   2.863
 3826W        W 7890   7.441   6.582   8.942
 3827W        W 7891   8.931   5.590   9.641
 3828W        W 7892   7.321   5.197  10.450
 3829W        W 7893   8.369   4.243  10.859
 3830W        W 7894   8.201   1.809  11.569
 3831W        W 7895  10.467   7.088  11.939
 3832W        W 7896   3.274   7.218   2.312
 3833W        W 7897   6.032   0.388   3.305
 3834W        W 7898   9.391   3.377  10.508
 3835W        W 7899   0.821   0.242   9.451
 3836W        W 7900   8.310   9.848   8.957
 3837W        W 7901   5.883   0.409   2.810
 3838W        W 7902   0.362   0.203  10.775
 3839W        W 7903   9.393   9.200  11.178
 3840W        W 7904   2.023   9.382   1.904
 3841W        W 7905   0.867   6.522  10.048
 3842W        W 7906   7.018   5.610  11.020
 3843W        W 7907   2.103   5.204   3.025
 3844W        W 7908   8.695   7.202   8.972
 3845W        W 7909   4.742  10.290   2.431
 3846W        W 7910   7.589   9.967  10.087
 3847W        W 7911   2.382   8.447   3.016
 3848W        W 7912   8.742   2.006   0.353
 3849W        W 7913   0.177   5.612   0.030
 3850W        W 7914   6.421   8.936   1.422
 3851W        W 7915   9.159   5.763  10.502
 3852W        W 7916   7.803   4.112  11.980
 3853W        W 7917   2.381   6.028   1.776
 3854W        W 7918   4.159   1.852   2.803
 3855W        W 7919   5.914   6.892   3.848
 3856W        W 7920   2.111   7.140   9.882
 3857W        W 7921   4.008   7.922   2.257
 3858W        W 7922   4.691   0.868   8.647
 3859W        W 7923   7.308   9.963   1.666
 3860W        W 7924   7.013   2.196   3.032
 3861W        W 7925   1.917   3.325  11.016
 3862W        W 7926   1.198   9.723   8.824
 3863W        W 7927   7.443   3.726  11.129
 3864W        W 7928   5.952   3.477   1.404
 3865W        W 7929   2.356   3.147   2.854
 3866W        W 7930   7.385  10.493   0.307
 3867W        W 7931   7.822   6.503   2.731
 3868W        W 7932   2.888   6.953  11.843
 3869W        W 7933   4.968   4.679   0.428
 3870W        W 7934   2.364   4.793   2.764
 3871W        W 7935   0.657   0.625   2.298
 3872W        W 7936   9.959   4.523  10.460
 3873W        W 7937   7.149   0.430   3.295
 3874W        W 7938   1.659   1.627  11.801
 3875W        W 7939  10.205   0.630   1.414
 3876W        W 7940   9.378   4.655   9.767
 3877W        W 7941   2.824   7.031   0.411
 3878W        W 7942   8.416   6.487   0.822
 3879W        W 7943   1.380   4.206   3.253
 3880W        W 7944   3.616   6.480   1.695
 3881W        W 7945   1.294   0.230   9.028
 3882W        W 7946  10.252   6.721   0.301
 3883W        W 7947   6.943   3.678   0.352
 3884W        W 7948   4.406   0.090   2.651
 3885W        W 7949   7.489   8.790  10.761
 3886W        W 7950   3.391   1.028  11.030
 3887W        W 7951   4.650   2.349  10.716
 3888W        W 7952   4.936   8.479  10.445
 3889W        W 7953   9.352   8.537   3.254
 3890W        W 7954   4.712   9.377   2.935
 3891W        W 7955   6.116   4.085   8.617
 3892W        W 7956   9.244   7.958   8.929
 3893W        W 7957   8.136   8.356   9.061
 3894W        W 7958   7.146   2.264   1.497
 3895W        W 7959   3.375   0.584   9.794
 3896W        W 7960   2.312   7.805  11.569
 3897W        W 7961   0.444   5.204   0.194
 3898W        W 7962   1.964   4.566   0.889
 3899W        W 7963   2.824   5.957   0.048
 3900W        W 7964   6.183   1.904   3.484
 3901W        W 7965   2.603   2.536  10.278
 3902W        W 7966   6.682   0.306   9.378
 3903W        W 7967   2.910  10.350  10.659
 3904W        W 7968   8.648   4.229   1.229
 3905W        W 7969  10.278   4.602   8.803
 3906W        W 7970   6.729   1.248  10.527
 3907W        W 7971   7.560   5.556   3.098
 3908W        W 7972   5.261   6.164   9.138
 3909W        W 7973   2.359   6.757   1.165
 3910W        W 7974   4.732   3.291   0.208
 3911W        W 7975   6.048   7.541   1.686
 3912W        W 7976   7.015   6.450   1.782
 3913W        W 7977   9.683   3.381   8.608
 3914W        W 7978   4.158   1.246  11.827
 3915W        W 7979   7.977   7.450   2.736
 3916W        W 7980   7.820   9.905   9.075
 3917W        W 7981  10.216   3.660  11.312
 3918W        W 7982   2.623   5.038   2.354
 3919W        W 7983   1.284   1.858   9.021
 3920W        W 7984   5.079   4.626  11.038
 3921W        W 7985   9.343   6.565   1.832
 3922W        W 7986   5.165   8.545  11.086
 3923W        W 7987   3.707  10.440   2.216
 3924W        W 7988   9.424   7.209   1.479
 3925W        W 7989   7.426   2.079   0.706
 3926W        W 7990   5.179   7.683  11.038
 3927W        W 7991  10.350   0.704   9.549
 3928W        W 7992   4.064  10.376   0.886
 3929W        W 7993   7.559   3.572   9.945
 3930W        W 7994   4.703   1.715   9.067
 3931W        W 7995   0.223   8.637  11.404
 3932W        W 7996   0.891   5.689   0.285
 3933W        W 7997   7.088   6.685   2.257
 3934W        W 7998  10.083   3.727  11.801
 3935W        W 7999   5.650   0.778   2.199
 3936W        W 8000   4.273   9.082  10.527
 3937W        W 8001   1.272  10.427   9.442
 3938W        W 8002   6.968   9.947  10.763
 3939W        W 8003   7.923   4.096   2.309
 3940W        W 8004   2.681   0.798   3.380
 3941W        W 8005   1.703   8.324   1.799
 3942W        W 8006   8.980   0.875   2.853
 3943W        W 8007   6.943   9.031   2.726
 3944W        W 8008   2.628   2.749   2.724
 3945W        W 8009   4.614   3.666   1.565
 3946W        W 8010   0.469   0.774  11.993
 3947W        W 8011   0.346   5.351   9.879
 3948W        W 8012   2.309   8.993   1.757
 3949W        W 8013   3.716   8.952   1.329
 3950W        W 8014   8.482   0.337   9.391
 3951W        W 8015   7.009   0.323  11.254
 3952W        W 8016  10.358   4.944   2.392
 3953W        W 8017   4.632   6.886  10.278
 3954W        W 8018   7.210   9.003   0.277
 3955W        W 8019   6.220   4.331  11.756
 3956W        W 8020   4.206   0.969   8.475
 3957W        W 8021   1.926  10.420  10.657
 3958W        W 8022   7.966   0.002   0.361
 3959W        W 8023   4.362   5.753   8.274
 3960W        W 8024   9.905  10.335  11.980
 3961W        W 8025   6.110   2.330  11.266
 3962W        W 8026   8.904   4.782   2.194
 3963W        W 8027   5.251   6.709   8.520
 3964W        W 8028   6.959   2.392  10.550
 3965W        W 8029   1.069   9.103   0.240
 3966W        W 8030   5.470   4.683   0.346
 3967W        W 8031   6.956   7.722   0.571
 3968W        W 8032   9.974   3.203   2.605
 3969W        W 8033   2.401   2.931  11.823
 3970W        W 8034   2.618   6.093   3.515
 3971W        W 8035   9.423   9.021   2.536
 3972W        W 8036   6.851   9.056   1.155
 3973W        W 8037   2.352   7.659   1.734
 3974W        W 8038   9.520   8.307   9.232
 3975W        W 8039   3.695  10.335  10.815
 3976W        W 8040   9.768   4.285  10.908
 3977W        W 8041   6.518   1.470   2.788
 3978W        W 8042   5.668   2.376   2.355
 3979W        W 8043   1.210   9.559  11.986
 3980W        W 8044   6.280   7.458   1.243
 3981W        W 8045   5.579   7.370   2.778
 3982W        W 8046   8.178   0.211   8.522
 3983W        W 8047   1.706   0.487   2.514
 3984W        W 8048   7.405   5.200   8.944
 3985W        W 8049   2.735   3.582   9.260
 3986W        W 8050   2.717   0.294  10.887
 3987W        W 8051   5.088   2.260   9.183
 3988W        W 8052   2.330  10.304   2.992
 3989W        W 8053   4.298   1.671   1.903
 3990W        W 8054   4.334   6.621   9.692
 3991W        W 8055   0.754   8.877   9.856
 3992W        W 8056   6.924   9.876  11.269
 3993W        W 8057   7.235   1.730  11.318
 3994W        W 8058   9.310   5.624   9.285
 3995W        W 8059   6.185   3.117   3.574
 3996W        W 8060   0.764   8.557   1.972
 3997W        W 8061   9.293   1.934   8.616
 3998W        W 8062   4.766   8.867  11.276
 3999W        W 8063   5.275   9.865  10.087
 4000W        W 8064   1.350   8.026   1.510
 4001W        W 8065   1.235   2.931   0.398
 4002W        W 8066   1.757   5.963  10.215
 4003W        W 8067   9.373   0.697   1.946
 4004W        W 8068   2.260   2.245  11.519
 4005W        W 8069   4.543   3.909  11.015
 4006W        W 8070   0.884   7.045  10.783
 4007W        W 8071   1.514   0.306   3.362
 4008W        W 8072   0.559   1.794   9.830
 4009W        W 8073   9.498   7.125   0.975
 4010W        W 8074   0.319   7.312   1.423
 4011W        W 8075   3.211   4.819   1.276
 4012W        W 8076   2.809   5.920   2.077
 4013W        W 8077   4.206   7.940   8.785
 4014W        W 8078   5.994   4.333   8.182
 4015W        W 8079   6.485   3.344   0.562
 4016W        W 8080   3.015   7.884   8.586
 4017W        W 8081   7.121   0.934  11.879
 4018W        W 8082   3.183   0.236   9.406
 4019W        W 8083   2.689   9.945   2.816
 4020W        W 8084   8.483   7.916   3.196
 4021W        W 8085   6.979   9.507   2.973
 4022W        W 8086   6.067   7.111   2.009
 4023W        W 8087   6.519   7.412   3.152
 4024W        W 8088   1.157   0.734   2.211
 4025W        W 8089   4.543   9.776  11.780
 4026W        W 8090   0.015   4.636  10.294
 4027W        W 8091  10.454   7.597   1.231
 4028W        W 8092   2.642   4.327  11.533
 4029W        W 8093   5.200   1.722   9.859
 4030W        W 8094   4.542   0.399   9.450
 4031W        W 8095   5.136   1.183   2.337
 4032W        W 8096   6.126   7.269  10.825
 4033W        W 8097   0.398   0.672   1.848
 4034W        W 8098   5.724   5.169   1.644
 4035W        W 8099   4.929   0.428   8.655
 4036W        W 8100   7.978   9.392   0.581
 4037W        W 8101   4.225   5.644  10.468
 4038W        W 8102   9.733   8.923  10.482
 4039W        W 8103   4.272   6.211  10.527
 4040W        W 8104   8.577   9.175   3.612
 4041W        W 8105   0.739   3.585  10.285
 4042W        W 8106   2.289   7.681   1.228
 4043W        W 8107   0.998   8.771   9.413
 4044W        W 8108   4.604   4.059   8.796
 4045W        W 8109   3.354   3.822   1.336
 4046W        W 8110   7.541   2.769   1.464
 4047W        W 8111   9.566   5.569  10.260
 4048W        W 8112   3.141   6.471   2.913
 4049W        W 8113   9.513   9.384  10.072
 4050W        W 8114   2.582   7.490   8.874
 4051W        W 8115   7.501   3.647  11.628
 4052W        W 8116  10.372   5.702   1.222
 4053W        W 8117   4.561   4.711   3.458
 4054W        W 8118   2.772   1.309  10.929
 4055W        W 8119   7.881   0.266   1.615
 4056W        W 8120   1.544   5.653  10.553
 4057W        W 8121   7.530   7.059   0.169
 4058W        W 8122   0.394   9.048  10.880
 4059W        W 8123   2.862   7.502  11.167
 4060W        W 8124   6.567   9.452   1.325
 4061W        W 8125   5.630  10.424   1.931
 4062W        W 8126   7.416   5.324   9.507
 4063W        W 8127   8.040   2.264   1.397
 4064W        W 8128   6.021   3.681   9.926
 4065W        W 8129   5.814   7.465   0.328
 4066W        W 8130   3.407   7.949   1.881
 4067W        W 8131   5.652   6.924   9.240
 4068W        W 8132   6.056   9.079  10.838
 4069W        W 8133   8.410   6.458   2.119
 4070W        W 8134   0.356   8.545   1.689
 4071W        W 8135   6.894   5.004   2.763
 4072W        W 8136   4.128   3.896   8.910
 4073W        W 8137   9.042   4.018   1.526
 4074W        W 8138   4.937   6.888   8.116
 4075W        W 8139   6.133   1.395  11.239
 4076W        W 8140   7.939   9.063   2.984
 4077W        W 8141   3.268   7.109   0.735
 4078W        W 8142   4.963   0.411  10.778
 4079W        W 8143   4.063   3.952   1.383
 4080W        W 8144   6.539   2.970   0.244
 4081W        W 8145   2.300   3.503   3.225
 4082W        W 8146   1.687   7.170   0.576
 4083W        W 8147   6.035   3.158  11.105
 4084W        W 8148   4.695   3.776   3.014
 4085W        W 8149  10.279   4.128   2.840
 4086W        W 8150   7.996   3.714   3.283
 4087W        W 8151   8.450   0.742   3.291
 4088W        W 8152   8.396   1.710   3.043
 4089W        W 8153   1.356   6.493  10.795
 4090W        W 8154   4.063   5.620   1.632
 4091W        W 8155   3.262   2.448   3.153
 4092W        W 8156   2.684   9.291   9.883
 4093W        W 8157   6.214   1.766   9.936
 4094W        W 8158   0.760   4.114   1.704
 4095W        W 8159   5.632   7.030   8.732
 4096W        W 8160   6.172   8.540   0.829
 4097W        W 8161   9.171   5.952   9.992
 4098W        W 8162   3.786   3.590   1.155
 4099W        W 8163   9.072   4.583   2.639
 4100W        W 8164   9.877   0.952   1.223
 4101W        W 8165   5.013   9.508   9.261
 4102W        W 8166   2.392   2.588  10.776
 4103W        W 8167   1.374   6.569   0.910
 4104W        W 8168   2.911   8.898   9.583
 4105W        W 8169   0.959   3.808   3.293
 4106W        W 8170   4.214   1.221   1.687
 4107W        W 8171   0.684   7.335   8.891
 4108W        W 8172   5.561   3.823   1.418
 4109W        W 8173   9.061   0.345   9.975
 4110W        W 8174   0.981   3.043   2.881
 4111W        W 8175   2.961   7.199   2.719
 4112W        W 8176   3.148   3.830   9.064
 4113W        W 8177   8.347   0.326   2.972
 4114W        W 8178   9.783   8.991  11.518
 4115W        W 8179   5.087   6.708   0.769
 4116W        W 8180  10.485   2.837   1.923
 4117W        W 8181   8.656   6.642  10.803
 4118W        W 8182   4.250   9.105   2.822
 4119W        W 8183   9.980   3.066   9.328
 4120W        W 8184   7.435   9.308  10.714
 4121W        W 8185   5.982   5.300  11.502
 4122W        W 8186   9.423   4.282  10.542
 4123W        W 8187   6.689   4.284   2.312
 4124W        W 8188   3.731   9.827  10.316
 4125W        W 8189   7.303   2.196   9.278
 4126W        W 8190   9.740   0.772   0.220
 4127W        W 8191   5.063   3.737  11.009
 4128W        W 8192   0.505   8.261  10.267
 4129W        W 8193   0.793   7.882   2.715
 4130W        W 8194   5.113   3.075   3.040
 4131W        W 8195   9.920   0.277   0.734
 4132W        W 8196   7.476   6.290   0.029
 4133W        W 8197   3.547   1.101   9.854
 4134W        W 8198   8.279   4.285   9.834
 4135W        W 8199   2.253   3.269  11.462
 4136W        W 8200   4.175   6.173   8.905
 4137W        W 8201   4.597   4.653   0.102
 4138W        W 8202   7.907   1.364   8.854
 4139W        W 8203   9.539   0.863   2.739
 4140W        W 8204   6.646   2.294   1.815
 4141W        W 8205   4.765   1.870   1.391
 4142W        W 8206   5.764  10.340   3.426
 4143W        W 8207   4.354   7.462   9.464
 4144W        W 8208   5.795   3.175   1.882
 4145W        W 8209  10.412   3.287  10.602
 4146W        W 8210   5.157   9.067  10.966
 4147W        W 8211   8.614   2.884  10.979
 4148W        W 8212   5.543   0.678   1.249
 4149W        W 8213   4.261   7.767  10.303
 4150W        W 8214   2.352   5.564   8.363
 4151W        W 8215   1.344   6.100   2.433
 4152W        W 8216   4.704   4.966   0.740
 4153W        W 8217   0.292   7.974  10.630
 4154W        W 8218   7.441   6.067   0.933
 4155W        W 8219   4.610   5.224   2.589
 4156W        W 8220   5.237  10.056  10.565
 4157W        W 8221   5.752   6.221   9.904
 4158W        W 8222  10.433   1.138   2.931
 4159W        W 8223   7.513   1.086   3.421
 4160W        W 8224   5.690   9.033  10.147
 4161W        W 8225   2.711   5.719   9.062
 4162W        W 8226   3.623   1.604   9.934
 4163W        W 8227   5.711   2.385   1.397
 4164W        W 8228   3.407   5.779   9.965
 4165W        W 8229   8.025   2.932   0.678
 4166W        W 8230   3.409   6.103  11.393
 4167W        W 8231   2.454   6.488   8.592
 4168W        W 8232   2.376   1.947   1.491
 4169W        W 8233   4.569   5.595   1.815
 4170W        W 8234   6.902   2.146   9.584
 4171W        W 8235   0.361   0.031  11.345
 4172W        W 8236   8.403   6.959   2.039
 4173W        W 8237   6.449   3.368   1.314
 4174W        W 8238   9.395   6.202  10.407
 4175W        W 8239   9.073   6.858   9.063
 4176W        W 8240   2.462   2.886   1.630
 4177W        W 8241   0.754   8.343   9.827
 4178W        W 8242   1.945   8.443   2.705
 4179W        W 8243   2.699   9.242   8.855
 4180W        W 8244   8.936   9.109   9.581
 4181W        W 8245   5.950   6.776  11.611
 4182W        W 8246   8.670   4.985   9.343
 4183W        W 8247   5.065   2.714   3.395
 4184W        W 8248   1.671   3.226   1.691
 4185W        W 8249   4.284   6.445  11.005
 4186W        W 8250   2.695   9.105  11.782
 4187W        W 8251   0.792   9.402   1.901
 4188W        W 8252   7.443  10.296   2.112
 4189W        W 8253   9.774   4.357   9.968
 4190W        W 8254   4.102   0.388   3.321
 4191W        W 8255   4.523   8.949   0.659
 4192W        W 8256   7.234   5.734   2.178
 4193W        W 8257   0.771   3.739  10.773
 4194W        W 8258   3.118   2.276   2.180
 4195W        W 8259  10.413   9.842   1.429
 4196W        W 8260   5.909   9.582   3.595
 4197W        W 8261   6.935   8.149  10.786
 4198W        W 8262   0.786   5.161   2.138
 4199W        W 8263   0.512   1.897   2.258
 4200W        W 8264   1.190   6.432   8.588
 4201W        W 8265   4.491   1.726   2.386
 4202W        W 8266   0.892   3.081   8.984
 4203W        W 8267   2.723   6.479   0.843
 4204W        W 8268   0.515   7.714  11.419
 4205W        W 8269   3.715   0.441   1.979
 4206W        W 8270   0.837   1.793  11.397
 4207W        W 8271   4.947   4.249   9.122
 4208W        W 8272   7.748   0.772   1.798
 4209W        W 8273   5.494   6.715   3.587
 4210W        W 8274   1.254   6.066   9.922
 4211W        W 8275   9.999   4.027   0.212
 4212W        W 8276   8.380   1.301   3.396
 4213W        W 8277  10.251   5.503   2.662
 4214W        W 8278   5.762   7.068  10.084
 4215W        W 8279   7.469   2.701   1.971
 4216W        W 8280   9.191  10.310   9.869
 4217W        W 8281   0.311   5.446  11.051
 4218W        W 8282   4.775   7.945  10.315
 4219W        W 8283   8.861   1.468   9.190
 4220W        W 8284   1.215   3.987   1.927
 4221W        W 8285   3.744   5.835  11.710
 4222W        W 8286   6.582   8.346   2.713
 4223W        W 8287   3.273   6.986   9.056
 4224W        W 8288   1.363   2.273  11.880
 4225W        W 8289   7.865   9.473  10.505
 4226W        W 8290   6.739   4.018   9.332
 4227W        W 8291   8.392   2.612  11.907
 4228W        W 8292   8.039   9.992   0.378
 4229W        W 8293   7.587   6.605   0.496
 4230W        W 8294   8.758   9.522   2.241
 4231W        W 8295   4.655   4.199   3.313
 4232W        W 8296   6.008   8.599   9.369
 4233W        W 8297   3.748   1.322   1.917
 4234W        W 8298   0.861   6.910   9.232
 4235W        W 8299   7.867   1.807   0.054
 4236W        W 8300   6.683   6.491  11.330
 4237W        W 8301  10.425   8.322   3.149
 4238W        W 8302   9.683   3.860   8.833
 4239W        W 8303   4.223   7.411  11.280
 4240W        W 8304  10.408   9.423   0.584
 4241W        W 8305   4.665   8.910   3.150
 4242W        W 8306   3.182   3.730  10.090
 4243W        W 8307   6.059   9.572  10.982
 4244W        W 8308  10.486   9.702  11.429
 4245W        W 8309   1.502   3.691   3.006
 4246W        W 8310   7.622   1.314  10.621
 4247W        W 8311   8.380   7.071  10.789
 4248W        W 8312   4.318   5.240   8.410
 4249W        W 8313   2.307   3.902   8.786
 4250W        W 8314   4.757   6.039   1.027
 4251W        W 8315   1.895   3.058  11.900
 4252W        W 8316   3.317   7.153  10.449
 4253W        W 8317   9.328   2.839   1.690
 4254W        W 8318   3.559   2.713   2.310
 4255W        W 8319   4.722   7.029   2.484
 4256W        W 8320   6.114   2.234  10.141
 4257W        W 8321   1.832   5.995   1.755
 4258W        W 8322   7.801   9.761  11.670
 4259W        W 8323   6.664   6.165  11.959
 4260W        W 8324   9.395   9.073   1.295
 4261W        W 8325   9.424  10.497   2.651
 4262W        W 8326   1.937   9.755   0.704
 4263W        W 8327   2.054   9.945  10.408
 4264W        W 8328   0.388   2.895   0.705
 4265W        W 8329   2.165   4.509  10.854
 4266W        W 8330   3.288   4.446   3.623
 4267W        W 8331   0.035   2.818   0.339
 4268W        W 8332  10.295   8.209  10.732
 4269W        W 8333   5.244   9.478   0.772
 4270W        W 8334   4.797   2.327   1.182
 4271W        W 8335   1.714   8.476  11.777
 4272W        W 8336   3.211   7.204   1.412
 4273W        W 8337   0.294   5.213   3.573
 4274W        W 8338   8.917   6.219   8.550
 4275W        W 8339   6.948   4.072   0.680
 4276W        W 8340   1.349   7.854   0.308
 4277W        W 8341   2.855   9.839   1.874
 4278W        W 8342   2.111   6.636  11.803
 4279W        W 8343   1.933   9.437  11.480
 4280W        W 8344   5.961   4.334   9.080
 4281W        W 8345   8.009   9.719   9.907
 4282W        W 8346   8.123   8.684   2.698
 4283W        W 8347   9.375   1.710   9.838
 4284W        W 8348   3.600   3.586   2.147
 4285W        W 8349   3.569   9.533   9.916
 4286W        W 8350   1.386   3.192  11.845
 4287W        W 8351   2.201   3.735   9.824
 4288W        W 8352   3.209   8.849   3.397
 4289W        W 8353   8.369   5.251  10.961
 4290W        W 8354   3.269   0.653   2.985
 4291W        W 8355   3.840   4.647   8.299
 4292W        W 8356  10.225   6.049   2.892
 4293W        W 8357   6.548   4.873   1.260
 4294W        W 8358   3.731   4.528   1.959
 4295W        W 8359   2.580   2.039   8.851
 4296W        W 8360   4.405  10.094  10.437
 4297W        W 8361   7.068   2.294  10.054
 4298W        W 8362   9.569   2.982  10.829
 4299W        W 8363   1.690   7.564   9.059
 4300W        W 8364   6.639   6.227   3.998
 4301W        W 8365   1.796   7.052  11.757
 4302W        W 8366   0.017  10.230   9.588
 4303W        W 8367   0.269   3.105   1.196
 4304W        W 8368   9.494   5.645   0.715
 4305W        W 8369   8.994   5.017   8.931
 4306W        W 8370   8.519   6.618   1.650
 4307W        W 8371   0.872   4.768  10.727
 4308W        W 8372   2.325   4.761  11.255
 4309W        W 8373   3.865   8.286   9.508
 4310W        W 8374   2.085   1.025   1.298
 4311W        W 8375   6.357   9.801   9.211
 4312W        W 8376   5.072   4.219   8.622
 4313W        W 8377   6.143   2.244   1.669
 4314W        W 8378   4.663   5.885  10.496
 4315W        W 8379  10.317   2.982  11.903
 4316W        W 8380   8.430   4.260   0.249
 4317W        W 8381   7.798   9.029   2.487
 4318W        W 8382   2.846   8.527   2.768
 4319W        W 8383   3.372  10.360   2.925
 4320W        W 8384   0.015  10.464   0.774
 4321W        W 8385   2.752  10.318  11.681
 4322W        W 8386   8.157   6.722   3.026
 4323W        W 8387   0.248   6.550   9.282
 4324W        W 8388   4.137   9.234   1.430
 4325W        W 8389   3.469   0.329   8.549
 4326W        W 8390   6.552   3.661   1.994
 4327W        W 8391   8.959  10.204   0.064
 4328W        W 8392   0.386   8.955   2.145
 4329W        W 8393   1.335   1.293   0.031
 4330W        W 8394   8.847   9.973   3.006
 4331W        W 8395   0.561   0.982  11.031
 4332W        W 8396   5.931   6.426   3.594
 4333W        W 8397   6.169   0.962  10.939
 4334W        W 8398   7.878   0.837   0.364
 4335W        W 8399   9.572   7.368  11.888
 4336W        W 8400   2.382   1.099   8.977
 4337W        W 8401   2.020   9.822  11.820
 4338W        W 8402   3.360   7.476  11.230
 4339W        W 8403   0.042   2.666   1.053
 4340W        W 8404   2.754   2.194  11.369
 4341W        W 8405   5.229   9.995   0.009
 4342W        W 8406   6.524   8.375   1.765
 4343W        W 8407   4.724   5.505  11.823
 4344W        W 8408   1.683   7.922   9.884
 4345W        W 8409   1.305   2.773   2.610
 4346W        W 8410  10.176   7.280   0.954
 4347W        W 8411   6.544  10.275   9.394
 4348W        W 8412   4.139   8.479   9.883
 4349W        W 8413   5.975   0.004  11.757
 4350W        W 8414   0.114   5.340   0.888
 4351W        W 8415  10.276   6.565   9.072
 4352W        W 8416   8.114   4.110   9.372
 4353W        W 8417   3.355   2.397  10.417
 4354W        W 8418   7.670   5.271  11.417
 4355W        W 8419   6.615   6.905   0.385
 4356W        W 8420   6.129   1.865   0.058
 4357W        W 8421   9.307   0.309   1.297
 4358W        W 8422   5.917   5.742   9.869
 4359W        W 8423   9.061   5.752   2.424
 4360W        W 8424   9.525   0.003   0.933
 4361W        W 8425   0.463   6.080   9.342
 4362W        W 8426   7.481   6.155   2.892
 4363W        W 8427   6.100   6.128   9.526
 4364W        W 8428   6.709   3.065   9.364
 4365W        W 8429   0.793   8.985   2.708
 4366W        W 8430   4.927   2.679   1.957
 4367W        W 8431   3.066   0.214  11.306
 4368W        W 8432   4.234   1.064  10.479
 4369W        W 8433  10.420   6.975   8.753
 4370W        W 8434   3.710   3.339   3.025
 4371W        W 8435   7.573   4.004   4.372
 4372W        W 8436   9.345   6.161  11.372
 4373W        W 8437   2.688   7.414  11.657
 4374W        W 8438   0.524   7.738  11.944
 4375W        W 8439   7.150   4.971   1.897
 4376W        W 8440   0.312   5.014   2.633
 4377W        W 8441   4.142   6.278   2.900
 4378W        W 8442   3.603   3.763  10.374
 4379W        W 8443   5.564   1.666   0.923
 4380W        W 8444   3.721   0.750   8.933
 4381W        W 8445   7.541   1.344  11.120
 4382W        W 8446   2.723   9.762   9.028
 4383W        W 8447   4.718  10.040   0.801
 4384W        W 8448   6.708   8.488   2.242
 4385W        W 8449   5.051   4.013   9.872
 4386W        W 8450   6.907   0.773   9.606
 4387W        W 8451   2.113   6.894   1.920
 4388W        W 8452   8.815   2.914   0.001
 4389W        W 8453   5.082   6.674   2.332
 4390W        W 8454   0.787   2.224   1.174
 4391W        W 8455   9.019   8.883   0.862
 4392W        W 8456   9.965   8.227   2.763
 4393W        W 8457   3.322   7.605  10.232
 4394W        W 8458   4.907   6.192  11.565
 4395W        W 8459   7.046   5.396   1.015
 4396W        W 8460   7.908   6.288   0.915
 4397W        W 8461   8.336   5.922  11.361
 4398W        W 8462   6.322   2.715  10.921
 4399W        W 8463   8.332   6.349   2.617
 4400W        W 8464  10.021   6.169  10.970
 4401W        W 8465   2.083   8.484   2.139
 4402W        W 8466   8.949   2.646   1.010
 4403W        W 8467   9.444   5.535   1.689
 4404W        W 8468   4.088   8.893   0.983
 4405W        W 8469   2.582  10.005  10.443
 4406W        W 8470   5.074   9.560   1.278
 4407W        W 8471   7.035   7.493   9.206
 4408W        W 8472  10.132   6.668  10.958
 4409W        W 8473   4.127   3.761  11.792
 4410W        W 8474   9.939   2.963   8.799
 4411W        W 8475   2.904   9.909  11.406
 4412W        W 8476   5.523   0.745   0.732
 4413W        W 8477   0.195   7.178   3.378
 4414W        W 8478   5.577  10.336   9.397
 4415W        W 8479   7.923   3.306   9.687
 4416W        W 8480   7.411   1.403   8.662
 4417W        W 8481   5.424   5.529   1.883
 4418W        W 8482   9.549   4.485   2.592
 4419W        W 8483   9.943   4.080   1.970
 4420W        W 8484   9.297   8.839  10.810
 4421W        W 8485   5.990   3.512   9.338
 4422W        W 8486   2.837   8.330   0.258
 4423W        W 8487   1.480   4.700   0.904
 4424W        W 8488   9.773   8.893  11.017
 4425W        W 8489   9.824   5.195   0.975
 4426W        W 8490   1.455   6.164   9.433
 4427W        W 8491   8.042   6.122   9.503
 4428W        W 8492   5.193   0.285  10.319
 4429W        W 8493   4.986   3.761   0.516
 4430W        W 8494   2.708   1.187  10.330
 4431W        W 8495   8.552   1.700   2.540
 4432W        W 8496   4.575   3.847  11.527
 4433W        W 8497   5.177  10.006   9.610
 4434W        W 8498   1.382   6.682   3.045
 4435W        W 8499   0.405   8.242   2.765
 4436W        W 8500   6.120   4.283   2.618
 4437W        W 8501   8.052   0.204  10.153
 4438W        W 8502   3.540   9.897   3.187
 4439W        W 8503   5.452   8.577  10.333
 4440W        W 8504   9.445   7.271   0.378
 4441W        W 8505   2.363   7.103   2.522
 4442W        W 8506   2.806   1.785   9.487
 4443W        W 8507   2.353   7.764  10.451
 4444W        W 8508   6.117   4.178   0.257
 4445W        W 8509   4.294   8.057   2.876
 4446W        W 8510   2.690   4.601   9.341
 4447W        W 8511  10.365   8.418   1.776
 4448W        W 8512   1.807   0.316   8.889
 4449W        W 8513   2.222   4.144  11.303
 4450W        W 8514   4.791   6.059   0.026
 4451W        W 8515   6.027   0.850   2.548
 4452W        W 8516   4.679   9.020   9.224
 4453W        W 8517   8.522   1.094   1.429
 4454W        W 8518   8.367   2.640   2.530
 4455W        W 8519   4.681  10.337   1.934
 4456W        W 8520   9.059   0.705  10.789
 4457W        W 8521   0.742   8.537   3.448
 4458W        W 8522   6.119   1.680   1.474
 4459W        W 8523   5.264   8.192   2.755
 4460W        W 8524   0.328   1.680   1.786
 4461W        W 8525   7.400   7.173  10.500
 4462W        W 8526   8.319   5.061   3.002
 4463W        W 8527   6.963   5.521   3.736
 4464W        W 8528  10.295   4.200  11.756
 4465W        W 8529   0.327   7.533   1.906
 4466W        W 8530   9.918   5.527   1.425
 4467W        W 8531   5.650   3.511  11.759
 4468W        W 8532   4.070   2.392  11.372
 4469W        W 8533   6.025   4.092   0.768
 4470W        W 8534   8.009   3.562  10.660
 4471W        W 8535   3.146   0.294   2.653
 4472W        W 8536   5.755   9.158  11.770
 4473W        W 8537   2.834   0.742  10.589
 4474W        W 8538   6.684   1.401   0.455
 4475W        W 8539   7.381   5.559   9.973
 4476W        W 8540   4.183   3.447   1.433
 4477W        W 8541   3.587  10.047   0.007
 4478W        W 8542   4.265   9.611   2.749
 4479W        W 8543   5.623   6.584  10.286
 4480W        W 8544   9.383   1.513  10.772
 4481W        W 8545   8.257   3.747  10.261
 4482W        W 8546   0.693   5.505  11.379
 4483W        W 8547   0.436   1.894   0.889
 4484W        W 8548   4.179   7.055   0.705
 4485W        W 8549   4.228   0.733  11.833
 4486W        W 8550   5.264   8.566   9.372
 4487W        W 8551   1.784   2.117   9.837
 4488W        W 8552   3.324   6.130   9.576
 4489W        W 8553   7.047  10.087   0.314
 4490W        W 8554   1.681   7.747   3.687
 4491W        W 8555   8.427   3.294   9.816
 4492W        W 8556   6.565   2.131  11.480
 4493W        W 8557   1.781   6.968  10.275
 4494W        W 8558   0.350   6.048   1.997
 4495W        W 8559   5.942   7.085   9.613
 4496W        W 8560   2.715   5.168   3.353
 4497W        W 8561   1.864   0.356   1.753
 4498W        W 8562   1.702   7.971  11.940
 4499W        W 8563   6.274   8.260  10.297
 4500W        W 8564   7.067   2.215   2.505
 4501W        W 8565   6.148   8.971   9.051
 4502W        W 8566   8.883   6.183  10.388
 4503W        W 8567   6.327   2.779   3.215
 4504W        W 8568   7.091   2.727   1.206
 4505W        W 8569   9.921   6.502  11.427
 4506W        W 8570   9.511   3.779   1.436
 4507W        W 8571   0.866   6.052   2.270
 4508W        W 8572   7.778   8.146   1.029
 4509W        W 8573   4.285   3.254   3.555
 4510W        W 8574   0.544   8.957   0.214
 4511W        W 8575   5.675   0.277   2.337
 4512W        W 8576   2.167   0.356  10.245
 4513W        W 8577   9.865   6.590   9.386
 4514W        W 8578   3.787   2.977   0.470
 4515W        W 8579   8.852   4.608   9.651
 4516W        W 8580   0.971   9.434  11.534
 4517W        W 8581   1.337   1.436   2.737
 4518W        W 8582   1.825   5.737  11.993
 4519W        W 8583   7.901   7.150  11.197
 4520W        W 8584   9.198   0.067   3.122
 4521W        W 8585   1.502   9.504   0.874
 4522W        W 8586   8.582   0.243   1.992
 4523W        W 8587  10.422   4.190   1.738
 4524W        W 8588   7.201   5.114   1.408
 4525W        W 8589   8.424  10.443   2.362
 4526W        W 8590   3.183   3.322  11.551
 4527W        W 8591   4.643   6.859   0.448
 4528W        W 8592   3.397   5.733  10.767
 4529W        W 8593   9.699   5.678   8.935
 4530W        W 8594   7.864   9.095  10.960
 4531W        W 8595   2.933   0.498  11.778
 4532W        W 8596   9.092   3.754   9.923
 4533W        W 8597   5.719   5.279   2.213
 4534W        W 8598   4.248  10.310   2.240
 4535W        W 8599   0.435   8.066   1.894
 4536W        W 8600   0.899   6.624  11.079
 4537W        W 8601   0.884   3.922   8.137
 4538W        W 8602   5.761   6.893   2.810
 4539W        W 8603   8.360   2.136  10.770
 4540W        W 8604   6.752   0.785  10.839
 4541W        W 8605   5.819   1.523  10.321
 4542W        W 8606   8.264   7.269  11.517
 4543W        W 8607   5.063   9.096   2.314
 4544W        W 8608   6.974   5.278   9.851
 4545W        W 8609   9.838   5.949   0.464
 4546W        W 8610   6.964   3.284   9.759
 4547W        W 8611   4.766   3.813   2.498
 4548W        W 8612   8.647   7.161   9.829
 4549W        W 8613   5.515   7.593   3.231
 4550W        W 8614   3.555   7.144  10.894
 4551W        W 8615   3.017   0.677  11.058
 4552W        W 8616   8.058   8.983  11.916
 4553W        W 8617   9.822   5.108  11.916
 4554W        W 8618   8.929   1.831   9.584
 4555W        W 8619   6.138   3.782  11.784
 4556W        W 8620   7.372   0.321  10.348
 4557W        W 8621   1.129   2.217  10.902
 4558W        W 8622   3.308   3.309   1.322
 4559W        W 8623   8.929   7.821   2.902
 4560W        W 8624   4.745   9.416   0.600
 4561W        W 8625   7.063   1.759   1.406
 4562W        W 8626   2.242   8.640  10.119
 4563W        W 8627   4.336   9.725  10.869
 4564W        W 8628   3.136   5.561   1.849
 4565W        W 8629   5.706   3.087   9.308
 4566W        W 8630   7.191   8.086  10.319
 4567W        W 8631   6.724   5.337   1.434
 4568W        W 8632   9.828   0.777  11.692
 4569W        W 8633   3.930   9.799  11.697
 4570W        W 8634   3.682   6.961   1.501
 4571W        W 8635   1.477   0.192   1.485
 4572W        W 8636   6.062   5.807  11.320
 4573W        W 8637   3.841   4.060   2.208
 4574W        W 8638   4.057   4.235   2.666
 4575W        W 8639   3.238   4.770   3.223
 4576W        W 8640   9.128   6.849   2.800
 4577W        W 8641   2.648   8.411   3.504
 4578W        W 8642   3.846   0.861   1.707
 4579W        W 8643   4.856   6.702   9.861
 4580W        W 8644   2.566   0.227  11.455
 4581W        W 8645   3.344   3.133  10.916
 4582W        W 8646   9.589   9.384   3.345
 4583W        W 8647   6.967   2.916  11.354
 4584W        W 8648   1.260   1.559   1.741
 4585W        W 8649   5.086   6.938   1.240
 4586W        W 8650   7.044   7.201   2.291
 4587W        W 8651   8.000   7.034   2.364
 4588W        W 8652   5.487   3.786   2.686
 4589W        W 8653   8.758   9.851   3.506
 4590W        W 8654   3.653   4.719   1.502
 4591W        W 8655   5.968   8.340  11.949
 4592W        W 8656   1.236   8.077   2.530
 4593W        W 8657   7.874   0.378   2.821
 4594W        W 8658   1.886   8.817  10.993
 4595W        W 8659   1.888   9.477  10.048
 4596W        W 8660   4.673   2.849   2.845
 4597W        W 8661   9.914   1.419   1.540
 4598W        W 8662   6.175   0.402   2.380
 4599W        W 8663   6.581   7.054   1.312
 4600W        W 8664   3.827   4.093   0.154
 4601W        W 8665   3.685   0.720   3.329
 4602W        W 8666   7.824   5.289   9.872
 4603W        W 8667   7.101   8.516   9.995
 4604W        W 8668   4.709   9.017  10.229
 4605W        W 8669   0.829   0.938   1.892
 4606W        W 8670   4.253   7.490   0.466
 4607W        W 8671   2.758   1.048   0.670
 4608W        W 8672   2.780   0.426   2.997
 4609W        W 8673   7.654   3.299   0.722
 4610W        W 8674   4.187   5.338  10.051
 4611W        W 8675   0.529   2.783   2.801
 4612W        W 8676   4.237   4.382   9.032
 4613W        W 8677   7.376   3.864   0.093
 4614W        W 8678   1.924   6.463  10.336
 4615W        W 8679   3.706   4.582  11.956
 4616W        W 8680   8.459   9.055   2.853
 4617W        W 8681   6.422   8.101  10.818
 4618W        W 8682  10.428   6.462  11.321
 4619W        W 8683   6.036   5.561   9.001
 4620W        W 8684   0.732   5.907   2.762
 4621W        W 8685   0.069   6.596   1.239
 4622W        W 8686   8.666  10.466  10.865
 4623W        W 8687   0.009   2.637   9.994
 4624W        W 8688   9.833   5.166  11.048
 4625W        W 8689   5.060   2.817  11.417
 4626W        W 8690   0.601   9.002  11.333
 4627W        W 8691   2.692   2.308   8.445
 4628W        W 8692   8.709   1.028   9.365
 4629W        W 8693   3.501   4.169  11.766
 4630W        W 8694   8.810   8.879  10.622
 4631W        W 8695   8.482   5.087   2.207
 4632W        W 8696   1.128   2.934   0.928
 4633W        W 8697   9.385   6.492   9.231
 4634W        W 8698   7.117   8.350   0.813
 4635W        W 8699   9.863   2.332   1.664
 4636W        W 8700   5.628   4.735   2.839
 4637W        W 8701   2.934  10.429  10.163
 4638W        W 8702   4.524   0.559   2.495
 4639W        W 8703   6.758   6.220   9.926
 4640W        W 8704   5.910   8.579   3.404
 4641W        W 8705   3.067   8.066   2.585
 4642W        W 8706   5.106   8.976   8.935
 4643W        W 8707   6.551   3.614   9.994
 4644W        W 8708   2.553   3.298   9.851
 4645W        W 8709   0.968   6.164  10.852
 4646W        W 8710   8.999   7.358   3.185
 4647W        W 8711   6.894   6.538   3.654
 4648W        W 8712  10.333   4.705   9.820
 4649W        W 8713   5.475   0.444   1.848
 4650W        W 8714   5.498   3.610   1.913
 4651W        W 8715   8.498   7.708   1.442
 4652W        W 8716   6.460   4.566   4.127
 4653W        W 8717   1.800   9.802   1.184
 4654W        W 8718   8.624   4.135   9.477
 4655W        W 8719   0.370   2.882  11.952
 4656W        W 8720   4.992   8.574   2.940
 4657W        W 8721   8.286   5.161   3.482
 4658W        W 8722   8.023  10.304   8.816
 4659W        W 8723  10.430   2.486  11.945
 4660W        W 8724   4.299   8.590   2.818
 4661W        W 8725   9.569  10.069  10.905
 4662W        W 8726   3.889   4.637   9.362
 4663W        W 8727   1.160   7.429   9.065
 4664W        W 8728   4.781   2.093  11.768
 4665W        W 8729   8.766   0.133  11.366
 4666W        W 8730   3.913   5.563   8.458
 4667W        W 8731   3.735   2.287   1.515
 4668W        W 8732   2.208   2.365   9.006
 4669W        W 8733   7.388   4.592   0.813
 4670W        W 8734   5.164   0.844   9.439
 4671W        W 8735   7.041   8.480   1.787
 4672W        W 8736   9.345   3.211   3.290
 4673W        W 8737   0.840   0.985   8.907
 4674W        W 8738   1.162   7.972  11.056
 4675W        W 8739  10.502   0.520   2.181
 4676W        W 8740   5.680   7.032  10.968
 4677W        W 8741   6.538  10.120   3.497
 4678W        W 8742   8.510   1.483  10.839
 4679W        W 8743   7.539   4.803  10.733
 4680W        W 8744   4.680   4.687  10.461
 4681W        W 8745   3.763   0.897  11.682
 4682W        W 8746   9.598   3.836  10.315
 4683W        W 8747   8.673   3.207   9.351
 4684W        W 8748   3.324   5.522  11.984
 4685W        W 8749   5.676   4.806   9.879
 4686W        W 8750   0.253   0.832  10.180
 4687W        W 8751   3.240   5.849   8.517
 4688W        W 8752   1.827   7.900  10.413
 4689W        W 8753   6.561  10.228   1.863
 4690W        W 8754   8.080   9.863   1.895
 4691W        W 8755   4.609   7.881  11.170
 4692W        W 8756   2.610   0.892   1.156
 4693W        W 8757   6.209   7.410   0.018
 4694W        W 8758   9.336   2.479   9.516
 4695W        W 8759   1.821   6.773   2.775
 4696W        W 8760   1.663   6.854   9.796
 4697W        W 8761   0.220   2.012   9.511
 4698W        W 8762   8.532   6.057  11.818
 4699W        W 8763   3.181   2.852   8.882
 4700W        W 8764   9.935   0.927   1.739
 4701W        W 8765   5.473   8.993   0.800
 4702W        W 8766   6.116   3.262  11.657
 4703W        W 8767   9.987   1.719  11.915
 4704W        W 8768   3.012   4.099  11.820
 4705W        W 8769   1.755   1.303  10.242
 4706W        W 8770   3.574   0.066  11.248
 4707W        W 8771   0.394   6.925   8.970
 4708W        W 8772   7.124   5.766   1.348
 4709W        W 8773   5.495   2.848   9.713
 4710W        W 8774   8.494   2.183   1.689
 4711W        W 8775   8.461   9.757   0.261
 4712W        W 8776   6.447   9.348   0.359
 4713W        W 8777   6.935   4.698   4.321
 4714W        W 8778   8.545   3.805   9.854
 4715W        W 8779   3.232   2.332   1.440
 4716W        W 8780   1.366   5.209   1.377
 4717W        W 8781   0.198   0.703   3.188
 4718W        W 8782   7.897   4.998  11.048
 4719W        W 8783   0.707   4.976   9.770
 4720W        W 8784  10.282   5.663   9.632
 4721W        W 8785  10.090   3.664   8.525
 4722W        W 8786   9.117   4.736  10.636
 4723W        W 8787   7.617   0.419   0.357
 4724W        W 8788   5.262   4.051   2.290
 4725W        W 8789   9.800   9.845   3.249
 4726W        W 8790   1.950   8.309  11.021
 4727W        W 8791   9.252   4.054  11.801
 4728W        W 8792   1.400   5.553  10.046
 4729W        W 8793   2.159   8.478   9.648
 4730W        W 8794   8.445   6.428  11.286
 4731W        W 8795   8.335   8.360   3.024
 4732W        W 8796   7.676   9.977   1.314
 4733W        W 8797   7.082   3.584  10.171
 4734W        W 8798   9.391   6.002  10.894
 4735W        W 8799   7.780  10.244   1.740
 4736W        W 8800   4.736   5.786   9.546
 4737W        W 8801   6.186   6.247   2.295
 4738W        W 8802   7.533   2.178  10.264
 4739W        W 8803   6.616   0.213   0.697
 4740W        W 8804   6.162   0.908   8.430
 4741W        W 8805   7.379   0.881   0.396
 4742W        W 8806   9.583   3.874   9.800
 4743W        W 8807  10.394   9.199   2.062
 4744W        W 8808   6.144   8.050   1.901
 4745W        W 8809  10.209   1.560   0.333
 4746W        W 8810   7.105   5.086   0.182
 4747W        W 8811   8.585   3.047   2.315
 4748W        W 8812   2.801   5.187   9.049
 4749W        W 8813   8.250   6.199   9.942
 4750W        W 8814   4.231   6.729  10.571
 4751W        W 8815   3.631   3.660   8.929
 4752W        W 8816   0.836   3.512   8.686
 4753W        W 8817   4.319   3.307  10.457
 4754W        W 8818   3.708   6.727  10.038
 4755W        W 8819   0.740   0.746   3.190
 4756W        W 8820   2.776   8.348  10.868
 4757W        W 8821   4.682   4.922   9.336
 4758W        W 8822   5.517   5.858  10.771
 4759W        W 8823   5.313   5.053   1.943
 4760W        W 8824   7.530   0.771   9.555
 4761W        W 8825   5.131   6.203  11.056
 4762W        W 8826   6.492   6.088   3.044
 4763W        W 8827   5.492   1.343   9.460
 4764W        W 8828  10.430   3.513   0.462
 4765W        W 8829   2.480   5.235  11.500
 4766W        W 8830  10.157   3.957   3.664
 4767W        W 8831   9.280   6.757   2.320
 4768W        W 8832   2.663   1.230   9.441
 4769W        W 8833  10.408   9.116  10.889
 4770W        W 8834   0.874   3.112   0.066
 4771W        W 8835   4.667   6.418   3.711
 4772W        W 8836   2.451   5.160   0.000
 4773W        W 8837   7.764   0.652  10.080
 4774W        W 8838   0.849   0.305   3.633
 4775W        W 8839   3.119  10.427   1.426
 4776W        W 8840   8.411   7.337   2.426
 4777W        W 8841   8.496   7.538   2.870
 4778W        W 8842   0.852   7.654   0.351
 4779W        W 8843   0.939   9.510   0.920
 4780W        W 8844   0.924   9.865  11.269
 4781W        W 8845   8.737   9.784  11.804
 4782W        W 8846   1.054   6.306   2.808
 4783W        W 8847  10.430   9.963   0.911
 4784W        W 8848   4.577   2.984  11.427
 4785W        W 8849   1.851   0.882   2.894
 4786W        W 8850   1.696   2.550   2.367
 4787W        W 8851   5.983   0.529   0.130
 4788W        W 8852   8.074   4.868   1.136
 4789W        W 8853   2.675   2.398   2.377
 4790W        W 8854   0.282   3.644  10.520
 4791W        W 8855   3.629   6.220  10.049
 4792W        W 8856   6.570   5.236   0.888
 4793W        W 8857   6.593   5.942   9.534
 4794W        W 8858   6.696   8.686   0.854
 4795W        W 8859   2.348   0.748   2.851
 4796W        W 8860   6.762   9.116   0.021
 4797W        W 8861   1.788   3.095   8.858
 4798W        W 8862   4.981   7.304   9.935
 4799W        W 8863   1.912  10.021   0.278
 4800W        W 8864   8.875   1.823   8.345
 4801W        W 8865   6.563   0.682   2.205
 4802W        W 8866   9.512   6.658   3.129
 4803W        W 8867   2.250   3.389   8.875
 4804W        W 8868   1.772   7.451   0.165
 4805W        W 8869   1.310   6.119  10.447
 4806W        W 8870   3.835   4.626   8.821
 4807W        W 8871   3.734   8.598   9.096
 4808W        W 8872   4.076   2.393   8.967
 4809W        W 8873   1.199   7.985   9.664
 4810W        W 8874   4.304   4.801   8.113
 4811W        W 8875   3.941   2.739  10.872
 4812W        W 8876   4.027   0.001   1.828
 4813W        W 8877   6.569   9.963   1.263
 4814W        W 8878   6.961   6.173   2.199
 4815W        W 8879   4.287  10.049   9.500
 4816W        W 8880   3.662   0.815   0.688
 4817W        W 8881  10.407   3.570   0.979
 4818W        W 8882   1.234   1.072  11.556
 4819W        W 8883   9.578   7.880   0.791
 4820W        W 8884   5.547   3.457   8.973
 4821W        W 8885   7.004   2.423  11.550
 4822W        W 8886   0.991   4.201  11.328
 4823W        W 8887   9.460   0.018  10.710
 4824W        W 8888   1.240  10.224   9.912
 4825W        W 8889   4.336   0.495  11.340
 4826W        W 8890   2.716   9.977   9.944
 4827W        W 8891   4.156   2.944   3.155
 4828W        W 8892  10.455   9.431  10.513
 4829W        W 8893   3.280   8.426   1.579
 4830W        W 8894   3.364   3.182   2.634
 4831W        W 8895   3.250   5.123  10.251
 4832W        W 8896   5.236   0.007   2.289
 4833W        W 8897   9.490   1.879   1.483
 4834W        W 8898   4.151   8.925   3.309
 4835W        W 8899   2.324   5.269   8.815
 4836W        W 8900   7.932   8.452   0.120
 4837W        W 8901   0.480   4.330   9.315
 4838W        W 8902   4.607   6.954   3.946
 4839W        W 8903   9.867   4.674   0.770
 4840W        W 8904   8.137   9.037   1.793
 4841W        W 8905   0.682   9.882  10.822
 4842W        W 8906   5.181   0.423  11.664
 4843W        W 8907   4.907   7.023   9.436
 4844W        W 8908   9.749   4.161  11.800
 4845W        W 8909   1.320   5.830   8.486
 4846W        W 8910   5.723   9.888  10.340
 4847W        W 8911   2.365   4.564   2.286
 4848W        W 8912   4.166   6.899  10.091
 4849W        W 8913   6.931   4.417   1.043
 4850W        W 8914   5.740  10.061   0.015
 4851W        W 8915   9.362   2.969   8.617
 4852W        W 8916   8.115   4.340  11.310
 4853W        W 8917   6.622   9.948  10.373
 4854W        W 8918   5.481   3.609   3.999
 4855W        W 8919   2.950   6.427  11.868
 4856W        W 8920   6.949   7.054   3.646
 4857W        W 8921   2.347  10.471   2.298
 4858W        W 8922   9.732   2.181  10.244
 4859W        W 8923   6.976   4.609   0.540
 4860W        W 8924   3.685   9.500   2.167
 4861W        W 8925   0.262   4.193   3.034
 4862W        W 8926   3.097   0.451   8.918
 4863W        W 8927   0.686   6.669   1.915
 4864W        W 8928   6.644   2.586  11.905
 4865W        W 8929   6.333   9.158   3.699
 4866W        W 8930   4.698   1.833  10.065
 4867W        W 8931   0.665   3.667   2.505
 4868W        W 8932   4.499   0.353   8.935
 4869W        W 8933   0.882   6.353   0.874
 4870W        W 8934   0.338   2.322  11.000
 4871W        W 8935  10.371   0.858   0.978
 4872W        W 8936   3.607   3.673  11.936
 4873W        W 8937   7.570   8.773  11.947
 4874W        W 8938   8.527   1.374  10.085
 4875W        W 8939   7.116   7.632  10.643
 4876W        W 8940   0.340  10.030   1.220
 4877W        W 8941   5.129   6.905   0.280
 4878W        W 8942   4.918   0.037   1.403
 4879W        W 8943   4.340   7.012   1.833
 4880W        W 8944   6.463   0.304   9.847
 4881W        W 8945   0.770  10.384   0.362
 4882W        W 8946   8.384   3.145  10.329
 4883W        W 8947   2.989   5.312   0.888
 4884W        W 8948   5.966   3.216   2.684
 4885W        W 8949   2.423   6.476   9.441
 4886W        W 8950   4.958   3.221   3.489
 4887W        W 8951   6.944   0.801  10.375
 4888W        W 8952   6.349   4.594   2.087
 4889W        W 8953   1.895   8.427  10.515
 4890W        W 8954   2.633   0.725  11.396
 4891W        W 8955   7.810   1.171   8.391
 4892W        W 8956   9.451   6.727   1.347
 4893W        W 8957   0.985   0.243   1.372
 4894W        W 8958   7.204   7.700   2.252
 4895W        W 8959   5.136   7.582  10.380
 4896W        W 8960   9.422   9.538   1.522
 4897W        W 8961   0.003   8.492   1.297
 4898W        W 8962   7.351   6.668   2.826
 4899W        W 8963   8.621   2.236   8.816
 4900W        W 8964   8.213   9.967  11.880
 4901W        W 8965   2.329   2.683   8.582
 4902W        W 8966   6.631   4.917   1.773
 4903W        W 8967   0.173   8.490   0.812
 4904W        W 8968   9.276   2.748   2.728
 4905W        W 8969   4.414   6.188  11.443
 4906W        W 8970   3.122  10.314   0.483
 4907W        W 8971   8.945   1.180  10.759
 4908W        W 8972   2.816   1.261   8.640
 4909W        W 8973   8.851   2.605  10.452
 4910W        W 8974   7.810   4.974   9.168
 4911W        W 8975   0.836   4.473   9.646
 4912W        W 8976   6.416   2.859  10.431
 4913W        W 8977   0.232   8.984   0.661
 4914W        W 8978   6.450   1.143   2.414
 4915W        W 8979   5.939   3.657   4.242
 4916W        W 8980   6.482   7.383   2.637
 4917W        W 8981   7.594   3.788   2.947
 4918W        W 8982   9.651   3.232   1.783
 4919W        W 8983   9.378   1.803  11.234
 4920W        W 8984   9.449   7.767   0.295
 4921W        W 8985   1.467   8.784   0.129
 4922W        W 8986   7.025   5.495   9.118
 4923W        W 8987   0.034   4.158  10.513
 4924W        W 8988   7.702   8.089  10.389
 4925W        W 8989   0.723   7.051   3.286
 4926W        W 8990   0.628   9.836   2.142
 4927W        W 8991   2.201   1.292  11.008
 4928W        W 8992   3.296   6.013  11.872
 4929W        W 8993   0.017   3.320  11.101
 4930W        W 8994   8.553   3.312   1.193
 4931W        W 8995   4.485   6.471   1.723
 4932W        W 8996   5.988   2.611  10.440
 4933W        W 8997   1.694   7.994   2.785
 4934W        W 8998   6.955   9.507   9.989
 4935W        W 8999   7.203   6.571  11.215
 4936W        W 9000   2.480   7.559   2.741
 4937W        W 9001   7.280   1.683   0.958
 4938W        W 9002   6.270   4.509   3.406
 4939W        W 9003   6.022   0.418  10.103
 4940W        W 9004   0.144   4.726   1.977
 4941W        W 9005   0.552   4.097   3.451
 4942W        W 9006   9.950   3.520   0.263
 4943W        W 9007   7.969   7.186   1.872
 4944W        W 9008   4.701   4.032   3.807
 4945W        W 9009  10.024   9.035   2.379
 4946W        W 9010   8.582   4.956   8.414
 4947W        W 9011   7.479   4.147  10.442
 4948W        W 9012   2.232   1.144  11.867
 4949W        W 9013   0.770   3.696   2.011
 4950W        W 9014   9.087   1.667   1.209
 4951W        W 9015   4.428   4.204  11.893
 4952W        W 9016   5.576   1.393   1.545
 4953W        W 9017   7.482   0.750   2.619
 4954W        W 9018   6.660   4.737   3.682
 4955W        W 9019   0.996   8.988   1.664
 4956W        W 9020   1.977   6.238   9.464
 4957W        W 9021   3.717   2.669   3.284
 4958W        W 9022   2.329   4.265  10.040
 4959W        W 9023   7.604   7.938   3.216
 4960W        W 9024   8.866   9.011   3.161
 4961W        W 9025   0.178   4.762   0.302
 4962W        W 9026   2.773   4.814  11.652
 4963W        W 9027   6.249   8.361   9.771
 4964W        W 9028   1.029   3.542   2.864
 4965W        W 9029   6.868   8.992   2.213
 4966W        W 9030   2.658   8.509   1.669
 4967W        W 9031   6.959   3.819  11.320
 4968W        W 9032  10.336   8.832   3.375
 4969W        W 9033   1.968   2.549  11.830
 4970W        W 9034   5.615   0.894   9.200
 4971W        W 9035   7.588   8.700   2.824
 4972W        W 9036   0.889   4.314   3.147
 4973W        W 9037   5.430   3.301   9.922
 4974W        W 9038   3.075   4.083   2.873
 4975W        W 9039   7.838   4.524  11.694
 4976W        W 9040   1.388   2.994   2.140
 4977W        W 9041   7.602   9.778   2.033
 4978W        W 9042   0.795   3.165   0.572
 4979W        W 9043   3.602   6.441   2.712
 4980W        W 9044   2.765   9.075   0.693
 4981W        W 9045   9.082   6.375   3.134
 4982W        W 9046   5.473   0.611  10.697
 4983W        W 9047   0.874   9.851   2.583
 4984W        W 9048   7.516  10.103   8.722
 4985W        W 9049   4.214   7.773  11.628
 4986W        W 9050   1.990   0.984   2.391
 4987W        W 9051   2.164  10.084   1.434
 4988W        W 9052   3.631   1.939   2.614
 4989W        W 9053   7.437   4.273  10.925
 4990W        W 9054   7.238   1.801   8.954
 4991W        W 9055   8.572   6.826   1.179
 4992W        W 9056   7.934   2.704   2.222
 4993W        W 9057   9.438   5.572   9.772
 4994W        W 9058   4.617   7.872   1.917
 4995W        W 9059   4.819   0.330  11.301
 4996W        W 9060   6.400   0.857  10.471
 4997W        W 9061   1.631   2.828  10.445
 4998W        W 9062   0.690   1.665   3.330
 4999W        W 9063   4.538   7.106   9.802
 5000W        W 9064   1.804   2.629   8.614
 5001W        W 9065   9.798   5.919  10.578
 5002W        W 9066   4.870   7.548   9.500
 5003W        W 9067   3.396   6.548   9.277
 5004W        W 9068   0.480   2.555   0.314
 5005W        W 9069   1.874   4.243   8.781
 5006W        W 9070   2.152   1.744   8.789
 5007W        W 9071   2.718   3.790   9.793
 5008W        W 9072   4.822   1.173  11.381
 5009W        W 9073   1.650   5.184   0.700
 5010W        W 9074   9.919   6.120   9.131
 5011W        W 9075   9.014   4.216   2.030
 5012W        W 9076   9.193  10.089   9.388
 5013W        W 9077   6.512   9.483  10.243
 5014W        W 9078   8.291   4.498   8.527
 5015W        W 9079   8.818   2.080  11.625
 5016W        W 9080   8.111   9.264  10.116
 5017W        W 9081   9.959   2.120   3.240
 5018W        W 9082  10.211   5.674   9.102
 5019W        W 9083   7.105   6.778  10.341
 5020W        W 9084   9.963  10.276  10.512
 5021W        W 9085   2.248   0.798   8.550
 5022W        W 9086   4.740   5.994   0.533
 5023W        W 9087   8.104   6.732  10.540
 5024W        W 9088   1.193   1.917   3.195
 5025W        W 9089   8.476   5.482   1.686
 5026W        W 9090   5.541   3.340   2.937
 5027W        W 9091  10.296   7.418   2.916
 5028W        W 9092   8.876   4.174   2.917
 5029W        W 9093   0.185   5.647   9.285
 5030W        W 9094   7.595   4.630  10.265
 5031W        W 9095   6.247   0.204   1.512
 5032W        W 9096   4.300  10.040   1.761
 5033W        W 9097   7.976   9.567   0.111
 5034W        W 9098   6.468   4.556   9.921
 5035W        W 9099   9.295   8.352   9.689
 5036W        W 9100   4.165   2.230  10.883
 5037W        W 9101   0.308   4.960   1.195
 5038W        W 9102   3.872   7.205   1.916
 5039W        W 9103   1.608  10.363   1.839
 5040W        W 9104   4.679   7.486   2.786
 5041W        W 9105   8.894   9.821   8.834
 5042W        W 9106   2.084   7.191   2.945
 5043W        W 9107   1.825   1.325   3.219
 5044W        W 9108   8.067   2.136   0.413
 5045W        W 9109   7.034   6.254  10.331
 5046W        W 9110   0.714   4.340  11.749
 5047W        W 9111   5.927   7.847   0.006
 5048W        W 9112  10.337   0.920  10.502
 5049W        W 9113   9.981   6.028   1.367
 5050W        W 9114   7.516   3.625  10.475
 5051W        W 9115   1.436   0.060   0.979
 5052W        W 9116   5.943   6.595   0.294
 5053W        W 9117   2.673   7.454   0.174
 5054W        W 9118   0.227   4.069  10.060
 5055W        W 9119   5.941  10.044  11.545
 5056W        W 9120   9.332   7.878   9.438
 5057W        W 9121   4.436   0.405   8.417
 5058W        W 9122   7.928   7.673  11.340
 5059W        W 9123   6.145   5.934  11.806
 5060W        W 9124   1.844   8.969  11.707
 5061W        W 9125   6.429   6.901  11.527
 5062W        W 9126   4.738   3.382  11.697
 5063W        W 9127   8.488   2.201   2.272
 5064W        W 9128   6.904   5.144  11.234
 5065W        W 9129   5.580   7.890  11.316
 5066W        W 9130   9.383   3.724   1.918
 5067W        W 9131   2.941   0.632   2.072
 5068W        W 9132   5.286   0.457  11.155
 5069W        W 9133   2.874   8.572   0.732
 5070W        W 9134   4.065   1.542  10.589
 5071W        W 9135   1.832   4.921  11.601
 5072W        W 9136   2.813   0.139   2.247
 5073W        W 9137   4.154   0.786   0.897
 5074W        W 9138   6.128   6.749   2.365
 5075W        W 9139   3.687   6.119   0.237
 5076W        W 9140   8.810   5.974  10.855
 5077W        W 9141   7.890   9.961   3.321
 5078W        W 9142   4.128   7.488   3.533
 5079W        W 9143   2.579   7.137   3.056
 5080W        W 9144   2.756   1.245   1.490
 5081W        W 9145   1.969   7.518   0.828
 5082W        W 9146   1.227   5.754   2.828
 5083W        W 9147   8.497   7.436  11.109
 5084W        W 9148   3.937   6.786   2.889
 5085W        W 9149   6.985   7.621   0.072
 5086W        W 9150   7.962   0.084   2.085
 5087W        W 9151   0.317   2.322   2.462
 5088W        W 9152   7.978   0.881   2.795
 5089W        W 9153   5.750   3.384   8.493
 5090W        W 9154   5.273   4.624   3.182
 5091W        W 9155   6.512   1.974   2.783
 5092W        W 9156   6.632   0.671  11.771
 5093W        W 9157   1.912   9.913  11.325
 5094W        W 9158   4.714   0.905   1.674
 5095W        W 9159   9.862   8.342   1.894
 5096W        W 9160   7.558   5.712   2.610
 5097W        W 9161   0.321  10.409   3.471
 5098W        W 9162   8.152   1.819   2.206
 5099W        W 9163   9.002   1.166   1.238
 5100W        W 9164   3.853   6.466   4.088
 5101W        W 9165   6.875   3.197   8.807
 5102W        W 9166   8.726   0.361   2.509
 5103W        W 9167   1.127   6.886   1.805
 5104W        W 9168   7.936   0.941  10.474
 5105W        W 9169   9.049   9.484  11.461
 5106W        W 9170   5.062   1.268   0.906
 5107W        W 9171   9.927   0.450  11.279
 5108W        W 9172   5.940   1.063  10.496
 5109W        W 9173   9.961   6.537   1.361
 5110W        W 9174   5.574  10.208   1.420
 5111W        W 9175   7.457   2.897   0.452
 5112W        W 9176   8.600   1.693   8.781
 5113W        W 9177   6.097   9.924   2.193
 5114W        W 9178   2.294   4.659   0.253
 5115W        W 9179   1.696   8.764   0.601
 5116W        W 9180   0.344   1.205   9.038
 5117W        W 9181  10.297   5.279  11.874
 5118W        W 9182   4.048   6.659  11.933
 5119W        W 9183   8.236   1.004   9.532
 5120W        W 9184   4.321   1.764  10.957
 5121W        W 9185   5.730   5.281   1.130
 5122W        W 9186   1.687   3.133  10.051
 5123W        W 9187  10.175   7.878   3.087
 5124W        W 9188   5.601   8.891  11.175
 5125W        W 9189   4.726   0.269  10.123
 5126W        W 9190   3.650   2.446   9.590
 5127W        W 9191   3.636   2.231  11.577
 5128W        W 9192   0.504   6.346  10.784
 5129W        W 9193   9.004   0.367   1.700
 5130W        W 9194   7.140   6.675   0.224
 5131W        W 9195   7.548   9.485   1.283
 5132W        W 9196   1.622   2.524   9.591
 5133W        W 9197   1.406   6.087   8.929
 5134W        W 9198   2.475   4.148   0.368
 5135W        W 9199   0.893   8.984   2.196
 5136W        W 9200   2.284   0.566   1.420
 5137W        W 9201   6.432   9.350  11.256
 5138W        W 9202   1.562   8.592   3.646
 5139W        W 9203  10.193   6.999   1.928
 5140W        W 9204  10.363   9.318   9.512
 5141W        W 9205   0.733   9.421  11.055
 5142W        W 9206   2.499   5.123   0.922
 5143W        W 9207   0.814   2.387  11.253
 5144W        W 9208   4.173   1.228   1.179
 5145W        W 9209   6.012   5.725   0.402
 5146W        W 9210   2.248   4.244  11.855
 5147W        W 9211   9.077   8.788   0.060
 5148W        W 9212   9.455  10.015   0.232
 5149W        W 9213   4.773   6.539  11.227
 5150W        W 9214   9.405   2.202   1.899
 5151W        W 9215   1.725   7.153   9.371
 5152W        W 9216   3.888   5.482  10.805
 5153W        W 9217   4.628   3.760   0.043
 5154W        W 9218   4.355   4.277  10.430
 5155W        W 9219   2.851   0.908   9.054
 5156W        W 9220   5.322   6.232  11.897
 5157W        W 9221   4.202   0.310   1.225
 5158W        W 9222   3.178   2.371   0.567
 5159W        W 9223   8.918   1.646  10.573
 5160W        W 9224  10.356   3.721  10.230
 5161W        W 9225   6.294   9.028  10.369
 5162W        W 9226   9.571   3.224   9.072
 5163W        W 9227   1.732   9.044  10.287
 5164W        W 9228   6.112   3.637  11.288
 5165W        W 9229   0.852   1.198   3.399
 5166W        W 9230   3.536  10.484   1.722
 5167W        W 9231   4.993   9.459   8.750
 5168W        W 9232   0.352   9.102  11.770
 5169W        W 9233   2.237   8.699   8.819
 5170W        W 9234   0.361   1.304   1.248
 5171W        W 9235   6.448   3.826   1.505
 5172W        W 9236   2.813   5.933   2.590
 5173W        W 9237   0.243   5.503   2.767
 5174W        W 9238   0.899   4.436   2.652
 5175W        W 9239   3.528   2.159  10.006
 5176W        W 9240   4.677   6.102   9.083
 5177W        W 9241   7.020   6.377   0.902
 5178W        W 9242   8.125   8.736   2.197
 5179W        W 9243   5.198   7.194  10.988
 5180W        W 9244   8.956   1.564  11.085
 5181W        W 9245   9.798   4.372   8.974
 5182W        W 9246   0.371   1.425   2.209
 5183W        W 9247   1.297   7.637   2.803
 5184W        W 9248   0.476   5.997   0.175
 5185W        W 9249   6.248   6.495  10.616
 5186W        W 9250   8.282   3.652   1.836
 5187W        W 9251   8.991   6.064   9.438
 5188W        W 9252   0.641   5.368  10.523
 5189W        W 9253   2.210   0.278   8.557
 5190W        W 9254   1.663   8.686   2.345
 5191W        W 9255   5.630   8.506   0.708
 5192W        W 9256   5.212   6.013   0.329
 5193W        W 9257   4.531   1.925   3.202
 5194W        W 9258   4.089   3.757   9.855
 5195W        W 9259   2.914   6.042  11.519
 5196W        W 9260   0.878   1.385  11.741
 5197W        W 9261   6.282   1.680   0.958
 5198W        W 9262   8.221   0.403   2.454
 5199W        W 9263   9.446   7.149   3.097
 5200W        W 9264   3.127   8.059  10.589
 5201W        W 9265  10.166   2.186   9.927
 5202W        W 9266   7.711   9.002   0.379
 5203W        W 9267   5.839   6.537   1.368
 5204W        W 9268   4.567  10.056   1.303
 5205W        W 9269   7.126   8.568  11.038
 5206W        W 9270   1.457   6.115  11.785
 5207W        W 9271   8.680   5.577  11.198
 5208W        W 9272   2.205   7.849   9.184
 5209W        W 9273   4.228   4.051   3.582
 5210W        W 9274   1.671   9.976   3.192
 5211W        W 9275   7.266   4.183   8.551
 5212W        W 9276   8.044   9.432   9.111
 5213W        W 9277   1.954   5.028   0.115
 5214W        W 9278   4.279   8.358   2.250
 5215W        W 9279   0.421   4.159   2.534
 5216W        W 9280   5.397   6.380   1.707
 5217W        W 9281   7.338   9.017   1.325
 5218W        W 9282   7.711   3.750   1.025
 5219W        W 9283   1.347   4.755   2.715
 5220W        W 9284   4.244   6.189   9.414
 5221W        W 9285   6.093   3.042   1.202
 5222W        W 9286   6.165   9.981  10.579
 5223W        W 9287   7.670   1.846   9.259
 5224W        W 9288   8.087   7.571  11.871
 5225W        W 9289  10.240   1.880   9.522
 5226W        W 9290   5.070   5.046   2.382
 5227W        W 9291   5.793   8.187  10.477
 5228W        W 9292   9.193   5.547   8.784
 5229W        W 9293   1.718  10.282   1.301
 5230W        W 9294   2.673   2.245   9.302
 5231W        W 9295   7.732   6.030   0.490
 5232W        W 9296   4.345   8.587   1.298
 5233W        W 9297   6.877   3.955   1.236
 5234W        W 9298   9.419   5.508   3.174
 5235W        W 9299   5.087   8.598   0.121
 5236W        W 9300   4.824   2.287  10.246
 5237W        W 9301   9.381   1.958   2.911
 5238W        W 9302   2.421   2.786   2.155
 5239W        W 9303   8.753   1.191   2.498
 5240W        W 9304   1.485   9.501   3.070
 5241W        W 9305   7.219   0.571  10.842
 5242W        W 9306   0.816   4.194   2.204
 5243W        W 9307  10.228   4.492   2.140
 5244W        W 9308   5.454   6.044   3.371
 5245W        W 9309   8.626   0.492   0.672
 5246W        W 9310   4.514   4.044   9.323
 5247W        W 9311   6.592   7.425   0.359
 5248W        W 9312   1.478  10.203   0.071
 5249W        W 9313   0.794   2.190   8.490
 5250W        W 9314   2.935   8.105   1.855
 5251W        W 9315   8.476   6.478  10.320
 5252W        W 9316   2.118   4.203   1.873
 5253W        W 9317   5.004  10.094   8.416
 5254W        W 9318   2.039   1.844   1.089
 5255W        W 9319   0.365   3.426   9.482
 5256W        W 9320   9.460   3.297   0.886
 5257W        W 9321   4.959   7.800   1.117
 5258W        W 9322   6.530   3.773   3.492
 5259W        W 9323   9.917   3.057   9.844
 5260W        W 9324   0.478   5.068   1.683
 5261W        W 9325   2.179   2.203   8.502
 5262W        W 9326   9.114   8.676   2.312
 5263W        W 9327   9.488   0.014   9.473
 5264W        W 9328   6.438   8.211  11.842
 5265W        W 9329  10.437   9.764   9.836
 5266W        W 9330   9.688   2.161   9.734
 5267W        W 9331   8.930   0.666   1.267
 5268W        W 9332   9.418   7.410   9.605
 5269W        W 9333   4.864   1.353   0.452
 5270W        W 9334   2.010   6.170   2.728
 5271W        W 9335   6.103   2.233   2.625
 5272W        W 9336   9.762   9.491   0.412
 5273W        W 9337   9.906   1.183   3.017
 5274W        W 9338   3.400   2.810   1.406
 5275W        W 9339   1.776   5.155   2.188
 5276W        W 9340   4.599   3.644   3.490
 5277W        W 9341   4.614   0.943   0.665
 5278W        W 9342   7.565   8.939   3.310
 5279W        W 9343   1.679   5.730  11.502
 5280W        W 9344   4.841   4.391   9.591
 5281W        W 9345   5.542   7.444   0.761
 5282W        W 9346   7.806   8.013  10.935
 5283W        W 9347   3.203   5.541   8.937
 5284W        W 9348   3.923   6.152  11.350
 5285W        W 9349   9.276  10.445   1.805
 5286W        W 9350   6.996   0.787   2.445
 5287W        W 9351   5.237   6.987   2.688
 5288W        W 9352   0.520   6.836   1.405
 5289W        W 9353   2.922   3.223   3.483
 5290W        W 9354   0.852   2.368   2.677
 5291W        W 9355  10.003   4.114  11.354
 5292W        W 9356   0.027   6.059   8.413
 5293W        W 9357   5.078   7.092   3.535
 5294W        W 9358   9.718   2.895   2.949
 5295W        W 9359   7.400  10.013  11.480
 5296W        W 9360  10.424   3.095   0.753
 5297W        W 9361   9.463   9.510   0.998
 5298W        W 9362   4.625   8.117   0.904
 5299W        W 9363   8.888   9.961   0.500
 5300W        W 9364   4.285   0.406   9.914
 5301W        W 9365   8.456   5.402   9.519
 5302W        W 9366  10.407   2.132   9.080
 5303W        W 9367   2.568   9.668   2.278
 5304W        W 9368   5.278   7.407   1.201
 5305W        W 9369   1.741   6.171   0.758
 5306W        W 9370   9.513   0.498  10.971
 5307W        W 9371  10.044   8.833   1.887
 5308W        W 9372   9.698   0.832   9.450
 5309W        W 9373   9.338   5.887   2.817
 5310W        W 9374   5.216   8.288   1.939
 5311W        W 9375   2.157   0.431   9.360
 5312W        W 9376   4.012  10.239   1.376
 5313W        W 9377   0.328   0.291  10.249
 5314W        W 9378   4.060   4.990   1.311
 5315W        W 9379   3.190   0.868   0.448
 5316W        W 9380  10.030   2.403   8.810
 5317W        W 9381  10.318   5.153   3.370
 5318W        W 9382   9.066   3.222   0.408
 5319W        W 9383   6.974  10.434  10.960
 5320W        W 9384   4.058   4.460   1.348
 5321W        W 9385   6.051   9.027  11.359
 5322W        W 9386   1.963   4.242  10.408
 5323W        W 9387   7.568   1.445  11.636
 5324W        W 9388   2.897   9.830   0.472
 5325W        W 9389   7.641   5.224   2.690
 5326W        W 9390   0.932   8.420   8.863
 5327W        W 9391  10.299   4.531  11.358
 5328W        W 9392   0.757   4.505   1.341
 5329W        W 9393   3.042   0.978   9.692
 5330W        W 9394   1.177   8.893   8.946
 5331W        W 9395   7.490   3.820   2.420
 5332W        W 9396   5.218   5.841  11.375
 5333W        W 9397   4.350   7.092   2.855
 5334W        W 9398   7.495   3.727   3.442
 5335W        W 9399   0.198   3.164   3.203
 5336W        W 9400   7.448   7.042   1.938
 5337W        W 9401   2.708   6.502   3.212
 5338W        W 9402   5.115   2.589   2.860
 5339W        W 9403   2.368   6.874   0.614
 5340W        W 9404   8.994   6.845   3.288
 5341W        W 9405   8.360   0.887   0.488
 5342W        W 9406   5.366   6.516   1.204
 5343W        W 9407   2.260   7.541   2.227
 5344W        W 9408   5.033   9.479  11.242
 5345W        W 9409   9.811   0.742   3.226
 5346W        W 9410   9.364   2.881   1.184
 5347W        W 9411   0.804   7.430   9.960
 5348W        W 9412   5.168   4.722   8.718
 5349W        W 9413   6.435   1.387   8.986
 5350W        W 9414   1.508   2.770   1.256
 5351W        W 9415   9.403   8.539  10.334
 5352W        W 9416   0.649   6.446   0.010
 5353W        W 9417   1.359   8.454   9.166
 5354W        W 9418   7.574   7.077   1.172
 5355W        W 9419   4.241   6.773   4.254
 5356W        W 9420   0.489   0.350   1.441
 5357W        W 9421   8.171   8.012  10.560
 5358W        W 9422   4.142   6.149  11.901
 5359W        W 9423   7.999   5.866   9.086
 5360W        W 9424   9.946   7.843   1.774
 5361W        W 9425   5.610   8.957  10.647
 5362W        W 9426   7.822   1.390   2.000
 5363W        W 9427   0.111   0.234   2.950
 5364W        W 9428   1.265   3.665   1.540
 5365W        W 9429   8.399   6.997   0.723
 5366W        W 9430   1.263   7.071   9.511
 5367W        W 9431   4.121   5.346   8.885
 5368W        W 9432   6.133   3.538   2.254
 5369W        W 9433   9.824   2.745   1.975
 5370W        W 9434   6.551   6.167   0.836
 5371W        W 9435   9.409   4.721   9.262
 5372W        W 9436   1.560   1.307   0.546
 5373W        W 9437   9.466   5.632  11.276
 5374W        W 9438   0.768   2.995  10.538
 5375W        W 9439   2.440   5.594   3.216
 5376W        W 9440   0.658   9.396   2.398
 5377W        W 9441   2.419   0.370   9.797
 5378W        W 9442   9.965   1.876   1.278
 5379W        W 9443   2.242   7.299  11.898
 5380W        W 9444   6.944   3.774  11.841
 5381W        W 9445   4.597   8.330   3.189
 5382W        W 9446   5.606   9.843  10.872
 5383W        W 9447   8.354   6.598   8.997
 5384W        W 9448   8.813   9.860  10.243
 5385W        W 9449   4.536   9.070   1.153
 5386W        W 9450   3.196   9.183   1.021
 5387W        W 9451   3.731   8.114   8.972
 5388W        W 9452   6.001   3.602   3.557
 5389W        W 9453   8.382   0.061   0.870
 5390W        W 9454   2.012   9.409   0.354
 5391W        W 9455   4.729   1.496  11.010
 5392W        W 9456   2.326   9.182   2.268
 5393W        W 9457   6.597   4.811  10.906
 5394W        W 9458   0.300   7.465  11.014
 5395W        W 9459   9.247   1.893   0.489
 5396W        W 9460   4.177   0.459   1.752
 5397W        W 9461   2.344   4.378   8.572
 5398W        W 9462   4.118   3.551   2.296
 5399W        W 9463   7.446   6.603   8.445
 5400W        W 9464   2.921   0.369   9.840
 5401W        W 9465   4.699   7.055   8.929
 5402W        W 9466   0.786   3.125   9.492
 5403W        W 9467   0.035   1.167   0.344
 5404W        W 9468   7.512   5.672   9.144
 5405W        W 9469   1.276   1.910   0.851
 5406W        W 9470   5.147   8.962  10.471
 5407W        W 9471  10.404   0.055  10.915
 5408W        W 9472   3.156   7.705   2.240
 5409W        W 9473   2.853   6.151   9.332
 5410W        W 9474   7.073   6.945  10.860
 5411W        W 9475   0.354   5.021  10.770
 5412W        W 9476   3.756   1.274   0.867
 5413W        W 9477   9.082   0.267   0.818
 5414W        W 9478   7.935   3.353  10.199
 5415W        W 9479   8.135   2.739   9.006
 5416W        W 9480   9.882   9.778  10.622
 5417W        W 9481   4.360   8.752   8.419
 5418W        W 9482   6.284  10.321   9.834
 5419W        W 9483  10.323   4.752   9.308
 5420W        W 9484   3.194   6.265   0.287
 5421W        W 9485   5.037   3.837   1.880
 5422W        W 9486  10.214   5.748  11.724
 5423W        W 9487   3.325   5.264   2.252
 5424W        W 9488   1.234   6.571   9.679
 5425W        W 9489   1.697   7.860  10.905
 5426W        W 9490   7.264   7.189   9.996
 5427W        W 9491   5.752   1.779  10.756
 5428W        W 9492   3.048   3.263   9.980
 5429W        W 9493   7.293   6.096   9.900
 5430W        W 9494   6.426   1.204   0.845
 5431W        W 9495   7.554   0.217  11.865
 5432W        W 9496   1.953   9.377   2.820
 5433W        W 9497   8.480   6.878   3.392
 5434W        W 9498   0.304   6.803   3.058
 5435W        W 9499   6.186   0.153   9.423
 5436W        W 9500   1.921   7.581   9.530
 5437W        W 9501   7.153   4.546  10.515
 5438W        W 9502   5.235   2.652   2.365
 5439W        W 9503   5.705   3.907   9.126
 5440W        W 9504   4.306   9.999   8.977
 5441W        W 9505   3.396   7.425   1.845
 5442W        W 9506   5.662   0.284  11.449
 5443W        W 9507   1.254   7.095  10.041
 5444W        W 9508   7.463   8.271  11.910
 5445W        W 9509   2.914   1.028   2.442
 5446W        W 9510   0.079   7.542   0.192
 5447W        W 9511   5.023   7.579   3.454
 5448W        W 9512   1.255   3.716   9.555
 5449W        W 9513   4.682   4.725   2.448
 5450W        W 9514   4.210   9.370   0.871
 5451W        W 9515   3.195   1.446   9.594
 5452W        W 9516   3.198   7.084   3.575
 5453W        W 9517   1.160   5.388   1.867
 5454W        W 9518  10.024   7.047   9.580
 5455W        W 9519   9.855   7.775   8.440
 5456W        W 9520   7.534   8.175   9.903
 5457W        W 9521   9.956   6.523   3.375
 5458W        W 9522   6.529   0.248  11.431
 5459W        W 9523   1.952   4.764   9.007
 5460W        W 9524   5.646   0.903   1.686
 5461W        W 9525   2.417  10.480  10.538
 5462W        W 9526   0.153   9.801   2.344
 5463W        W 9527   2.614   4.297   2.791
 5464W        W 9528   6.106   8.805  11.837
 5465W        W 9529   4.698   6.030   1.532
 5466W        W 9530   7.531   4.276   2.813
 5467W        W 9531   5.275   3.591   0.943
 5468W        W 9532   4.587   5.929   3.790
 5469W        W 9533   9.950   9.563   3.686
 5470W        W 9534   3.432   1.832   1.370
 5471W        W 9535   4.425   5.678   1.278
 5472W        W 9536   7.679   9.954   9.567
 5473W        W 9537   6.036   9.478  10.475
 5474W        W 9538   8.336   7.045   8.653
 5475W        W 9539   8.520   8.038   2.689
 5476W        W 9540   2.870   7.577   1.823
 5477W        W 9541   1.939   1.303   3.719
 5478W        W 9542   3.609   9.185   0.281
 5479W        W 9543   1.423   7.099   1.012
 5480W        W 9544   1.692   0.210   9.371
 5481W        W 9545   6.734   6.556  10.799
 5482W        W 9546   5.595   9.818   9.381
 5483W        W 9547   0.333   0.950   9.488
 5484W        W 9548  10.454   6.169   0.987
 5485W        W 9549   5.070   6.137  10.579
 5486W        W 9550   0.107   9.185  11.336
 5487W        W 9551   7.086   7.143   1.361
 5488W        W 9552   4.945  10.436   8.809
 5489W        W 9553   3.748   6.195   9.167
 5490W        W 9554   3.333   0.471   1.170
 5491W        W 9555   4.810   2.921  10.988
 5492W        W 9556   2.742   3.234  11.266
 5493W        W 9557   6.491   9.930   3.018
 5494W        W 9558   4.246   9.545  11.381
 5495W        W 9559   0.722   9.128   0.645
 5496W        W 9560   9.020   2.306   8.408
 5497W        W 9561   9.954   6.646   9.910
 5498W        W 9562   5.159  10.005  11.106
 5499W        W 9563   7.037   2.655   2.790
 5500W        W 9564   3.801   2.941   9.676
 5501W        W 9565   3.219   2.367  11.285
 5502W        W 9566   6.588   3.795   8.910
 5503W        W 9567   1.031   7.899  11.914
 5504W        W 9568  10.343   3.116  10.121
 5505W        W 9569   3.046   2.805   2.288
 5506W        W 9570   0.473   5.665   2.347
 5507W        W 9571   7.746   1.548   1.061
 5508W        W 9572   1.146   9.731   9.743
 5509W        W 9573   2.161   6.119   9.939
 5510W        W 9574   9.295   6.504   8.735
 5511W        W 9575   0.198   5.964   3.440
 5512W        W 9576   8.080   6.455   0.443
 5513W        W 9577   7.549   1.921   1.341
 5514W        W 9578   9.820   3.362   3.076
 5515W        W 9579   5.447   2.976   8.864
 5516W        W 9580   6.017   6.606   1.852
 5517W        W 9581   6.174   0.837   3.050
 5518W        W 9582   7.593   1.576   9.715
 5519W        W 9583   0.432   6.486  11.275
 5520W        W 9584   6.290   6.156   0.349
 5521W        W 9585   3.804   3.152   2.358
 5522W        W 9586   2.835   0.447   1.314
 5523W        W 9587   3.730   9.520  11.307
 5524W        W 9588   0.659   3.654   3.668
 5525W        W 9589   8.017   6.668   1.811
 5526W        W 9590   9.246   2.832   9.126
 5527W        W 9591   1.280   0.985   9.512
 5528W        W 9592   1.375   1.481   9.530
 5529W        W 9593   1.854   3.786  11.258
 5530W        W 9594   9.070   5.285  11.421
 5531W        W 9595   4.222   8.019   0.157
 5532W        W 9596   5.075   4.097   2.802
 5533W        W 9597   3.744   3.301   9.295
 5534W        W 9598   6.078   3.258   0.188
 5535W        W 9599   3.538   8.015   2.401
 5536W        W 9600   3.325   0.692  10.634
 5537W        W 9601   0.126   7.073   0.887
 5538W        W 9602   4.497   7.604   0.044
 5539W        W 9603   1.880   0.823  10.422
 5540W        W 9604   7.287   5.329   4.064
 5541W        W 9605   1.790   6.665   0.600
 5542W        W 9606   3.945   5.533   1.138
 5543W        W 9607   8.642   8.852   2.258
 5544W        W 9608   5.057   4.891  11.482
 5545W        W 9609   9.076   5.757  11.591
 5546W        W 9610   5.260   6.415   9.977
 5547W        W 9611   5.692   6.476   0.830
 5548W        W 9612   2.417  10.415   3.478
 5549W        W 9613   2.482   0.862  10.935
 5550W        W 9614   1.039   5.681  10.453
 5551W        W 9615   7.132   2.258   1.998
 5552W        W 9616   3.986   0.314  10.943
 5553W        W 9617   7.426   6.286   2.404
 5554W        W 9618   2.271   1.922   9.266
 5555W        W 9619   5.928   7.640   3.551
 5556W        W 9620   4.420  10.341   0.504
 5557W        W 9621   4.147   6.565   8.569
 5558W        W 9622   5.744   2.529  11.828
 5559W        W 9623   6.967   7.134   9.552
 5560W        W 9624   7.405   2.248  10.743
 5561W        W 9625   6.438   5.690   0.133
 5562W        W 9626   3.376   9.543   8.523
 5563W        W 9627   2.171   5.917   0.870
 5564W        W 9628   5.990   2.816   0.433
 5565W        W 9629   6.496   2.466   8.566
 5566W        W 9630   0.829   2.804   2.383
 5567W        W 9631   2.078   8.456   0.718
 5568W        W 9632   4.212   6.107   0.430
 5569W        W 9633   5.718   1.273  10.925
 5570W        W 9634   6.402   9.123   0.918
 5571W        W 9635  10.491   6.396   3.195
 5572W        W 9636   5.148   1.832   8.842
 5573W        W 9637   5.903   0.958   0.436
 5574W        W 9638   2.076   9.983   3.470
 5575W        W 9639   4.666   9.428  10.574
 5576W        W 9640   7.041   8.585   1.270
 5577W        W 9641   1.685   8.532   9.526
 5578W        W 9642   8.045   7.910   2.936
 5579W        W 9643   6.107   0.490  11.125
 5580W        W 9644   1.162   0.425   0.179
 5581W        W 9645   1.514   4.256   0.250
 5582W        W 9646   9.347   4.539   3.614
 5583W        W 9647   3.150   3.625   9.568
 5584W        W 9648   8.895   8.813  11.547
 5585W        W 9649   9.778   7.447   0.723
 5586W        W 9650   3.281   1.569  10.877
 5587W        W 9651   7.404   1.636   0.462
 5588W        W 9652   5.922   8.031   2.348
 5589W        W 9653   6.995   2.782   9.747
 5590W        W 9654   2.666   2.862   0.960
 5591W        W 9655   3.035   9.788   3.174
 5592W        W 9656   9.509   7.184   2.572
 5593W        W 9657   8.203   6.445   3.484
 5594W        W 9658   4.708   0.331  11.955
 5595W        W 9659   0.278   5.433   1.369
 5596W        W 9660   5.984   7.987   1.413
 5597W        W 9661   6.569   3.645  11.028
 5598W        W 9662   7.139   1.363   3.170
 5599W        W 9663   9.922   7.059   2.896
 5600W        W 9664   9.827   0.978  11.210
 5601W        W 9665   5.228   3.171   9.396
 5602W        W 9666   9.295   6.042   8.982
 5603W        W 9667   1.316   9.956   1.897
 5604W        W 9668   6.968   8.094  11.827
 5605W        W 9669   3.129   6.664   0.556
 5606W        W 9670   7.288  10.392  10.036
 5607W        W 9671   7.522   2.376   1.139
 5608W        W 9672   6.591   2.110  10.007
 5609W        W 9673   9.462   1.054   0.933
 5610W        W 9674   2.245   9.134  10.099
 5611W        W 9675   8.085   1.411  11.853
 5612W        W 9676   5.635   3.405   2.359
 5613W        W 9677   3.796   5.944   9.607
 5614W        W 9678  10.447   1.953   0.048
 5615W        W 9679   4.148   1.314   2.237
 5616W        W 9680   4.684   9.297   1.976
 5617W        W 9681   7.841   5.608   0.203
 5618W        W 9682   5.552   8.912   2.503
 5619W        W 9683   0.792   5.186  10.989
 5620W        W 9684   8.987   4.580   0.776
 5621W        W 9685   5.219   9.961   9.068
 5622W        W 9686   0.232   6.937   0.383
 5623W        W 9687   8.023   4.515   9.039
 5624W        W 9688   0.239   2.807   2.373
 5625W        W 9689   7.461   3.140  10.245
 5626W        W 9690   1.437   9.228   3.850
 5627W        W 9691   2.264  10.041  10.922
 5628W        W 9692   8.889   8.847   1.348
 5629W        W 9693   6.577   7.857   2.858
 5630W        W 9694   0.931   8.629   0.130
 5631W        W 9695   4.182   6.108   1.475
 5632W        W 9696   6.562   8.662   0.007
 5633W        W 9697   2.427   1.732   0.192
 5634W        W 9698   0.190   9.950   8.890
 5635W        W 9699   7.638   7.986   2.224
 5636W        W 9700   2.278   5.106   1.995
 5637W        W 9701   2.720   3.567  10.279
 5638W        W 9702   5.284   2.640   1.182
 5639W        W 9703   5.938   9.011   1.189
 5640W        W 9704   7.860   3.243   3.532
 5641W        W 9705   4.692   7.926  11.687
 5642W        W 9706   1.959   8.919   0.202
 5643W        W 9707  10.490   0.238   9.409
 5644W        W 9708   4.987   4.465  10.095
 5645W        W 9709   0.463  10.366   2.933
 5646W        W 9710   4.583   2.848   3.470
 5647W        W 9711   7.257   3.178   1.544
 5648W        W 9712   8.431   8.114   9.819
 5649W        W 9713   1.568   8.552  11.299
 5650W        W 9714   0.867   7.978   1.228
 5651W        W 9715   8.157   3.652   1.228
 5652W        W 9716   1.917   7.867   1.978
 5653W        W 9717   2.866   9.411   1.394
 5654W        W 9718   8.500   2.460   1.243
 5655W        W 9719   1.832   1.177   9.750
 5656W        W 9720   3.320   5.036   1.780
 5657W        W 9721   7.109   5.986   9.067
 5658W        W 9722   0.120   5.389  10.505
 5659W        W 9723   6.064  10.280   1.690
 5660W        W 9724   4.083   2.908  11.378
 5661W        W 9725   6.423   9.312   9.338
 5662W        W 9726   6.922   8.952  11.292
 5663W        W 9727   3.480   2.211   1.022
 5664W        W 9728   3.342   6.734  11.747
 5665W        W 9729   0.594   4.981  11.417
 5666W        W 9730  10.359   5.425  11.352
 5667W        W 9731   5.542   4.122   1.846
 5668W        W 9732   0.855   2.299   3.206
 5669W        W 9733   5.211   7.046   9.008
 5670W        W 9734   3.255   5.151   9.286
 5671W        W 9735   0.481   8.265   9.091
 5672W        W 9736   1.017   7.368   0.782
 5673W        W 9737   1.007   2.131   0.226
 5674W        W 9738   7.848   6.642   0.012
 5675W        W 9739   9.335   0.581   3.120
 5676W        W 9740   4.575   4.514   3.937
 5677W        W 9741   6.426   0.159  11.957
 5678W        W 9742  10.490   3.928   0.152
 5679W        W 9743   6.103   9.327   9.986
 5680W        W 9744   4.562   5.304   9.681
 5681W        W 9745   8.515   5.892   9.543
 5682W        W 9746   9.905   8.288  11.982
 5683W        W 9747   5.634   1.805   9.003
 5684W        W 9748   1.242   0.317  11.031
 5685W        W 9749   3.238   8.394   8.897
 5686W        W 9750   9.467   7.835  10.972
 5687W        W 9751   9.926   9.798   1.693
 5688W        W 9752   5.705   3.476  10.346
 5689W        W 9753   7.373   3.108   8.827
 5690W        W 9754   1.844   7.898   0.468
 5691W        W 9755   1.359   3.829   1.047
 5692W        W 9756   5.140   8.644   0.636
 5693W        W 9757   0.749   0.882  11.545
 5694W        W 9758   1.405   0.235   9.893
 5695W        W 9759   8.149   5.981   1.358
 5696W        W 9760   9.504   5.734   1.222
 5697W        W 9761   0.879   5.430  10.020
 5698W        W 9762   3.669   5.899   3.633
 5699W        W 9763   3.513  10.312   9.390
 5700W        W 9764   7.701   1.830   8.710
 5701W        W 9765   1.297   4.957  10.959
 5702W        W 9766   7.715   6.379   9.803
 5703W        W 9767   5.084   3.638   1.403
 5704W        W 9768   1.213  10.254   1.392
 5705W        W 9769   6.600   3.263   3.304
 5706W        W 9770   0.855   4.005   9.447
 5707W        W 9771   1.327   7.849  10.555
 5708W        W 9772   3.398   7.552   2.691
 5709W        W 9773   2.808   4.073  10.208
 5710W        W 9774   1.665   2.799  11.506
 5711W        W 9775   0.860   6.467  11.561
 5712W        W 9776   5.451   8.441   3.171
 5713W        W 9777   2.169   3.259   1.798
 5714W        W 9778   5.994   5.457  11.981
 5715W        W 9779   7.659   0.109   0.762
 5716W        W 9780   2.121   9.312   9.612
 5717W        W 9781   7.665   1.217   0.659
 5718W        W 9782   3.711   3.623   1.657
 5719W        W 9783   7.126  10.442   3.112
 5720W        W 9784   5.683   0.784  11.138
 5721W        W 9785   7.991   2.622   0.251
 5722W        W 9786   3.325   0.729  11.465
 5723W        W 9787   8.770   2.280   9.869
 5724W        W 9788   2.762   1.466   9.894
 5725W        W 9789   6.931   4.926  10.249
 5726W        W 9790   4.427   5.171   3.642
 5727W        W 9791   1.246   9.279   1.261
 5728W        W 9792   2.408   5.676   9.963
 5729W        W 9793   3.219   3.319   9.123
 5730W        W 9794   9.127   3.286   1.917
 5731W        W 9795   5.499   3.721   0.510
 5732W        W 9796   0.196   9.567  11.954
 5733W        W 9797   5.106   3.148   1.168
 5734W        W 9798   5.649   6.482   3.151
 5735W        W 9799  10.343   7.190  10.859
 5736W        W 9800   9.889   9.042   1.453
 5737W        W 9801   6.893   9.937   2.674
 5738W        W 9802   4.608   2.383   0.698
 5739W        W 9803   1.347   0.874   0.350
 5740W        W 9804   6.145   0.065  10.766
 5741W        W 9805   3.759   5.009   2.142
 5742W        W 9806   1.214   0.950   3.145
 5743W        W 9807   3.879   0.894  11.189
 5744W        W 9808   7.427   9.543   9.745
 5745W        W 9809   7.031   8.142  11.311
 5746W        W 9810  10.080  10.445   2.889
 5747W        W 9811   1.843   1.678   9.601
 5748W        W 9812   4.742  10.462   9.673
 5749W        W 9813   6.314  10.006   8.741
 5750W        W 9814   2.861   7.575   9.294
 5751W        W 9815   2.420   6.116  11.464
 5752W        W 9816   7.606   5.396   2.197
 5753W        W 9817   4.553   3.116   1.823
 5754W        W 9818   8.953   0.506   9.132
 5755W        W 9819   8.345   2.255  10.248
 5756W        W 9820   9.161  10.326   1.306
 5757W        W 9821   6.977   6.079  10.803
 5758W        W 9822   4.445   7.736   1.240
 5759W        W 9823   9.483   2.202   3.406
 5760W        W 9824   4.161   7.001   3.329
 5761W        W 9825   4.598   8.818   2.151
 5762W        W 9826   2.170   2.378   9.544
 5763W        W 9827   4.678   8.384  11.449
 5764W        W 9828   4.521   5.471   9.209
 5765W        W 9829   5.181   0.957  10.933
 5766W        W 9830   9.551   4.900   2.899
 5767W        W 9831  10.361   2.902   3.489
 5768W        W 9832   4.628   0.440   1.516
 5769W        W 9833   3.477   5.551   8.159
 5770W        W 9834   8.606   0.979   0.923
 5771W        W 9835   1.467   9.289   8.757
 5772W        W 9836   2.212   6.415   0.783
 5773W        W 9837   2.909   4.800   0.868
 5774W        W 9838   8.092   8.526   1.121
 5775W        W 9839   8.867   7.409  10.241
 5776W        W 9840   0.975  10.203  10.552
 5777W        W 9841   7.344   4.110   1.027
 5778W        W 9842   1.161   6.514  11.997
 5779W        W 9843   2.484   9.598  10.770
 5780W        W 9844   7.096   9.935  10.223
 5781W        W 9845   3.104   7.948   9.558
 5782W        W 9846   0.427   5.213   9.386
 5783W        W 9847   9.072   8.102   3.327
 5784W        W 9848   0.307   8.605  11.921
 5785W        W 9849   7.478   5.521   3.618
 5786W        W 9850   0.533   8.629  10.616
 5787W        W 9851   8.370   9.458   1.944
 5788W        W 9852   8.950   6.615  11.490
 5789W        W 9853   0.874   2.179   9.011
 5790W        W 9854   7.520   6.517   1.940
 5791W        W 9855   4.539   4.142   1.307
 5792W        W 9856   0.453   4.554  10.536
 5793W        W 9857   3.712   0.789   2.760
 5794W        W 9858   5.535   3.309  10.852
 5795W        W 9859   2.500   1.734  11.339
 5796W        W 9860   2.367   0.308   1.885
 5797W        W 9861   3.198   5.275   3.236
 5798W        W 9862   4.231  10.206  11.727
 5799W        W 9863   0.591   4.636   3.413
 5800W        W 9864   9.140   6.631  10.565
 5801W        W 9865  10.291   7.207   0.461
 5802W        W 9866   0.723   6.070   9.841
 5803W        W 9867   0.183   8.133   0.085
 5804W        W 9868   2.130   2.106   0.027
 5805W        W 9869   3.691   5.039   4.240
 5806W        W 9870   4.631   5.727   2.432
 5807W        W 9871   7.527   2.639   0.004
 5808W        W 9872   9.007   9.452  10.486
 5809W        W 9873   9.996  10.251  11.056
 5810W        W 9874   3.344   8.382   0.610
 5811W        W 9875   0.954  10.395   0.972
 5812W        W 9876   8.444   1.772  10.405
 5813W        W 9877   3.156   4.796   0.383
 5814W        W 9878   5.647   2.294   2.891
 5815W        W 9879   0.502   1.127  10.507
 5816W        W 9880   3.648   8.162   3.380
 5817W        W 9881   9.359   9.430   0.056
 5818W        W 9882   1.673   3.791  10.278
 5819W        W 9883   6.217   7.683  11.124
 5820W        W 9884   2.607  10.385   1.336
 5821W        W 9885   9.091   9.853   0.957
 5822W        W 9886   0.666   8.231  11.969
 5823W        W 9887   9.975   4.621  11.795
 5824W        W 9888   1.481   3.472   2.542
 5825W        W 9889   3.799   9.329   2.669
 5826W        W 9890   3.075   9.600   9.901
 5827W        W 9891   0.393   3.910   9.623
 5828W        W 9892   1.324   3.744   9.041
 5829W        W 9893   0.876   8.570   1.388
 5830W        W 9894   4.126   7.454   8.988
 5831W        W 9895   3.334   0.465   0.161
 5832W        W 9896   9.460   9.991   1.752
 5833W        W 9897   2.313   5.975   0.366
 5834W        W 9898   3.815   0.422  11.954
 5835W        W 9899   1.081   9.932   3.523
 5836W        W 9900   9.506   3.444  11.015
 5837W        W 9901   2.116   4.353   2.764
 5838W        W 9902   4.997   7.158   8.536
 5839W        W 9903   4.229   1.798   9.820
 5840W        W 9904   0.489  10.295   0.792
 5841W        W 9905   2.680   5.948  10.793
 5842W        W 9906   0.778   0.328   9.961
 5843W        W 9907   6.565   1.642  11.841
 5844W        W 9908   4.555   5.074   3.086
 5845W        W 9909   3.938   5.047   3.767
 5846W        W 9910   1.951   4.694   1.981
 5847W        W 9911   1.839   7.035   8.889
 5848W        W 9912   8.281   2.335   9.745
 5849W        W 9913   4.654   5.013  11.759
 5850W        W 9914   5.111   4.977  10.099
 5851W        W 9915   0.204   6.944   1.775
 5852W        W 9916  10.280   0.068   2.097
 5853W        W 9917   6.773   6.995   9.999
 5854W        W 9918   1.050   3.976  10.431
 5855W        W 9919   6.952   4.517   1.949
 5856W        W 9920   5.943   6.439   2.726
 5857W        W 9921   1.980   9.772   9.435
 5858W        W 9922   3.062  10.008  11.983
 5859W        W 9923   2.579   6.605  11.570
 5860W        W 9924   4.721   0.728  11.627
 5861W        W 9925   7.139   1.712   9.977
 5862W        W 9926   2.603  10.281   1.847
 5863W        W 9927  10.053   9.582   2.876
 5864W        W 9928   2.160   2.294   2.319
 5865W        W 9929   1.301   3.108  11.347
 5866W        W 9930   3.750   9.330   9.474
 5867W        W 9931   0.506  10.480  11.869
 5868W        W 9932   0.964   3.356  11.625
 5869W        W 9933  10.317   7.949   9.731
 5870W        W 9934   6.147   6.652   9.445
 5871W        W 9935   0.491   5.729  10.183
 5872W        W 9936   6.780   5.129   4.054
 5873W        W 9937   7.846   3.105   0.197
 5874W        W 9938   3.773   7.140   0.370
 5875W        W 9939   6.486   4.091  10.201
 5876W        W 9940   7.631   8.480   3.572
 5877W        W 9941   6.628   2.611  10.047
 5878W        W 9942   5.988   5.703   1.236
 5879W        W 9943   4.136   4.266   1.806
 5880W        W 9944  10.468  10.402  10.385
 5881W        W 9945   5.543   9.588  11.943
 5882W        W 9946   5.517   0.239   3.200
 5883W        W 9947   6.443   4.039  11.367
 5884W        W 9948   9.476   1.318   2.295
 5885W        W 9949   8.331   5.757  10.875
 5886W        W 9950   5.717   2.130   3.401
 5887W        W 9951   3.099   9.371   1.861
 5888W        W 9952   5.031   5.037   2.890
 5889W        W 9953   2.523   2.756   9.423
 5890W        W 9954   0.334   3.032   9.821
 5891W        W 9955   4.112   3.881  11.293
 5892W        W 9956   1.277   8.992   2.531
 5893W        W 9957   1.977   0.413   3.565
 5894W        W 9958   7.933   8.603   3.194
 5895W        W 9959   6.507   7.289   1.765
 5896W        W 9960   7.260   0.847   9.981
 5897W        W 9961   1.316   8.148   3.523
 5898W        W 9962   6.529   5.713   3.899
 5899W        W 9963   2.319   5.196  10.210
 5900W        W 9964   4.976   3.433   8.057
 5901W        W 9965   1.141   4.309   0.997
 5902W        W 9966   1.589   4.959   9.935
 5903W        W 9967   8.657   1.717   3.518
 5904W        W 9968   3.533   3.117   1.908
 5905W        W 9969   2.227   5.263   3.543
 5906W        W 9970   5.563   2.618   3.309
 5907W        W 9971   7.244   6.209   0.476
 5908W        W 9972   5.228   1.349  11.676
 5909W        W 9973   9.109   7.043   0.670
 5910W        W 9974   2.299   2.808   9.909
 5911W        W 9975  10.029   4.026  10.514
 5912W        W 9976  10.076   1.329  10.208
 5913W        W 9977   7.719   9.514   2.644
 5914W        W 9978   0.856   1.632  10.295
 5915W        W 9979   3.771   8.468  11.024
 5916W        W 9980   3.082   0.026  11.999
 5917W        W 9981   1.989   9.350   1.019
 5918W        W 9982   5.413   6.975   3.163
 5919W        W 9983   9.724  10.413   0.437
 5920W        W 9984   4.309   2.437  10.313
 5921W        W 9985   7.702   8.014   0.285
 5922W        W 9986   4.709   1.387   1.504
 5923W        W 9987   6.587   9.691  11.983
 5924W        W 9988   3.269   5.765   2.307
 5925W        W 9989   6.022   4.297   9.977
 5926W        W 9990   5.021   1.324   9.204
 5927W        W 9991   6.971   9.489  10.524
 5928W        W 9992   0.649   6.627   0.469
 5929W        W 9993   8.906  10.378   9.051
 5930W        W 9994   9.131   7.015   9.843
 5931W        W 9995   9.356   5.164   0.763
 5932W        W 9996   9.893   7.547   9.848
 5933W        W 9997   9.678   0.430   2.406
 5934W        W 9998   2.319   9.780   1.046
 5935W        W 9999   8.185   3.129   1.997
 5936W        W10000   3.327   1.272   2.270
 5937W        W10001   6.032   1.820   2.973
 5938W        W10002   6.056   7.386  10.336
 5939W        W10003   2.427   9.451   2.701
 5940W        W10004   7.232   1.205   9.609
 5941W        W10005   2.702   1.975  10.022
 5942W        W10006   8.629   9.520  10.812
 5943W        W10007   9.405   7.120   1.982
 5944W        W10008   5.730   6.078   2.436
 5945W        W10009   3.923   1.361  11.396
 5946W        W10010   3.247   4.317   1.293
 5947W        W10011   4.536   4.062   9.845
 5948W        W10012   5.193   5.613   3.132
 5949W        W10013   7.989   3.625   2.653
 5950W        W10014   2.782   3.364  10.747
 5951W        W10015   4.772   9.925   8.813
 5952W        W10016   1.868  10.313   8.727
 5953W        W10017   7.398   5.003   9.961
 5954W        W10018   1.910   2.333   0.473
 5955W        W10019   1.095   5.557   1.071
 5956W        W10020  10.250   8.048   1.372
 5957W        W10021   0.834   8.101  11.470
 5958W        W10022   0.971   0.121   8.606
 5959W        W10023   5.420   7.578   4.215
 5960W        W10024   0.013   5.897   2.467
 5961W        W10025   5.443   0.351   9.395
 5962W        W10026  10.451   7.010   9.270
 5963W        W10027   4.607   7.397  11.614
 5964W        W10028   1.316   2.365   9.196
 5965W        W10029   6.971   7.673  11.537
 5966W        W10030   5.287   2.165  10.088
 5967W        W10031   5.478   3.999  11.681
 5968W        W10032   3.302   5.540   3.671
 5969W        W10033   1.794   7.593   3.139
 5970W        W10034   9.030   1.532   2.199
 5971W        W10035   4.368   4.531   9.497
 5972W        W10036   6.590   2.111   0.040
 5973W        W10037   4.638  10.469  11.582
 5974W        W10038   3.173   7.070   9.978
 5975W        W10039   4.624   4.400   8.404
 5976W        W10040   3.236   9.914   2.724
 5977W        W10041   3.362   3.467   3.392
 5978W        W10042   5.761   5.602   8.582
 5979W        W10043   6.055  10.072  11.052
 5980W        W10044   2.553   9.433   1.820
 5981W        W10045   2.938   6.059   3.124
 5982W        W10046   9.982   9.735   0.821
 5983W        W10047   9.774   1.673   3.120
 5984W        W10048   5.551   4.384   8.469
 5985W        W10049   2.541   9.166  10.501
 5986W        W10050   1.260  10.325   0.536
 5987W        W10051   9.192   0.913   2.379
 5988W        W10052   5.086   8.174   0.432
 5989W        W10053  10.210   8.853   9.069
 5990W        W10054   9.512   1.401   2.783
 5991W        W10055  10.037   1.757   9.032
 5992W        W10056   2.512   8.233   0.852
 5993W        W10057   8.464   1.067  10.517
 5994W        W10058   3.738   7.084   1.014
 5995W        W10059   6.631   6.588  10.282
 5996W        W10060   3.033   2.679   9.350
 5997W        W10061   8.880   5.916   3.261
 5998W        W10062   8.693   3.882   3.751
 5999W        W10063   9.120  10.260  11.044
 6000W        W10064   9.788   8.890   3.266
 6001W        W10065   5.704   4.768   9.009
 6002W        W10066   0.284   2.233   1.280
 6003W        W10067   2.655   3.852  10.735
 6004W        W10068  10.262   2.657   1.506
 6005W        W10069   3.373   8.469   2.617
 6006W        W10070   5.490   2.254   8.797
 6007W        W10071   3.702   4.133   3.547
 6008W        W10072   5.605   4.909   8.519
 6009W        W10073   3.379   7.539   9.745
 6010W        W10074   4.666   8.132   1.445
 6011W        W10075   9.051   1.594   2.701
 6012W        W10076   9.499   9.952   1.244
 6013W        W10077   8.679   2.724   9.081
 6014W        W10078   2.629   3.059  10.336
 6015W        W10079   2.274   3.838  10.323
 6016W        W10080   0.619   7.576  10.587
 6017W        W10081   6.698   1.665  11.300
 6018W        W10082   8.558   8.857  11.997
 6019W        W10083   2.269   9.866   1.913
 6020W        W10084   6.365   0.460   9.007
 6021W        W10085   7.336   5.734   0.227
 6022W        W10086   9.849   9.217   8.917
 6023W        W10087   6.730   7.854   3.364
 6024W        W10088   1.843   6.532   1.130
 6025W        W10089   8.076   9.443   1.089
 6026W        W10090   7.416   5.611   0.706
 6027W        W10091   0.285   4.745   9.565
 6028W        W10092   1.648   1.985   0.179
 6029W        W10093   2.224  10.292  11.950
 6030W        W10094   5.701   1.590   0.273
 6031W        W10095   0.777   1.247   9.356
 6032W        W10096   2.643   5.506   9.526
 6033W        W10097   2.772   4.257   3.290
 6034W        W10098   8.899  10.420   2.719
 6035W        W10099   1.834   3.729   8.926
 6036W        W10100   7.901  10.352   9.331
 6037W        W10101   5.220   1.890   1.695
 6038W        W10102   6.604   3.067  11.727
 6039W        W10103   6.392   3.289  10.707
 6040W        W10104   8.123   5.717  11.777
 6041W        W10105   8.949   5.309  11.967
 6042W        W10106   1.881   1.272   8.789
 6043W        W10107   8.796   0.174   1.241
 6044W        W10108   3.321   8.156   1.121
 6045W        W10109   0.697   9.830   8.948
 6046W        W10110   4.217   7.567   3.046
 6047W        W10111   5.523   5.004   9.432
 6048W        W10112   2.403   9.976   0.593
 6049W        W10113   1.778   5.698   2.822
 6050W        W10114   6.512  10.460   1.128
 6051W        W10115   5.069   0.794  10.462
 6052W        W10116   6.037   2.251  10.773
 6053W        W10117   8.158   9.680   2.402
 6054W        W10118   7.277   7.956   1.805
 6055W        W10119   4.195   1.486   3.207
 6056W        W10120   4.086   2.636   2.197
 6057W        W10121   0.264   9.623  11.006
 6058W        W10122   6.905   1.343   1.670
 6059W        W10123   5.165   9.277   1.841
 6060W        W10124   8.195   2.440   0.836
 6061W        W10125   3.792   0.888  10.693
 6062W        W10126   6.023   7.218   2.511
 6063W        W10127   3.310   5.795   0.442
 6064W        W10128   6.946   8.851   9.416
 6065W        W10129   7.657   7.623  10.548
 6066W        W10130   3.483   5.503   0.849
 6067W        W10131   2.026   5.359  11.731
 6068W        W10132   8.564   0.714   0.056
 6069W        W10133   0.392   2.386   0.793
 6070W        W10134   9.738   7.869   9.050
 6071W        W10135   1.808   2.682   0.856
 6072W        W10136   7.884  10.337  10.975
 6073W        W10137   9.143   0.329  10.470
 6074W        W10138   5.844   8.407   8.404
 6075W        W10139   5.111   5.168  11.978
 6076W        W10140   4.683   7.381   1.787
 6077W        W10141   4.309   4.693   2.784
 6078W        W10142   0.982   5.568   2.391
 6079W        W10143   6.127   0.473  11.643
 6080W        W10144   7.926   5.222  11.849
 6081W        W10145   7.153   1.703   9.455
 6082W        W10146   5.701   7.523   9.562
 6083W        W10147   9.287   8.757   9.382
 6084W        W10148   7.582   4.974   1.101
 6085W        W10149   8.819   0.714  10.314
 6086W        W10150   1.733   1.785   0.650
 6087W        W10151   1.697   0.815   1.576
 6088W        W10152   1.195   5.183   3.538
 6089W        W10153  10.227   2.784   2.387
 6090W        W10154  10.499   8.904   1.649
 6091W        W10155   5.682   1.693  11.251
 6092W        W10156   8.078   1.289   0.353
 6093W        W10157   2.183  10.462   9.572
 6094W        W10158   2.650   6.365  11.093
 6095W        W10159   4.163   9.430   3.226
 6096W        W10160   8.849   5.090   0.826
 6097W        W10161   9.525   9.072   0.772
 6098W        W10162   9.291   9.844  10.049
 6099W        W10163   2.870   3.148   9.480
 6100W        W10164   3.122   6.219  10.043
 6101W        W10165   6.674   3.212   2.234
 6102W        W10166   7.012   6.927   3.150
 6103W        W10167   8.682   2.389  11.121
 6104W        W10168   3.145   4.401  11.433
 6105W        W10169   4.182   0.044   9.554
 6106W        W10170   6.652   7.579   9.572
 6107W        W10171   2.453   1.643  10.287
 6108W        W10172   0.231   5.705  11.541
 6109W        W10173   8.403   7.765  11.475
 6110W        W10174   0.213   1.793  11.167
 6111W        W10175   4.556   9.514   9.039
 6112W        W10176   3.544   2.812   9.241
 6113W        W10177   0.068   1.343  10.335
 6114W        W10178   7.620   0.643   0.810
 6115W        W10179   2.186   8.150  10.159
 6116W        W10180   8.992   1.225  10.250
 6117W        W10181   3.842   8.036  11.364
 6118W        W10182   8.999   5.521   0.492
 6119W        W10183   6.453   4.441   8.402
 6120W        W10184   7.940   2.820  11.764
 6121W        W10185   6.394   0.972   0.392
 6122W        W10186   7.076   5.566   3.258
 6123W        W10187   3.466   5.029   0.023
 6124W        W10188   4.639   0.238   3.428
 6125W        W10189   1.590  10.125   3.691
 6126W        W10190   3.622   3.146   8.818
 6127W        W10191   2.862   4.645   2.533
 6128W        W10192   7.101   4.045   2.082
 6129W        W10193   9.818   7.494   3.169
 6130W        W10194   2.676   5.008   0.444
 6131W        W10195   8.880   7.698   9.223
 6132W        W10196   6.866   1.227   9.977
 6133W        W10197   5.892   8.140   0.446
 6134W        W10198   7.177   4.848   3.893
 6135W        W10199   4.565  -0.001   1.008
 6136W        W10200   8.541   4.053  11.349
 6137W        W10201   3.172   5.689  11.233
 6138W        W10202   5.626   2.652   1.896
 6139W        W10203   6.429   8.837   9.526
 6140W        W10204   2.553   1.957   2.177
 6141W        W10205   3.367   9.803   1.838
 6142W        W10206   0.657   7.534   8.387
 6143W        W10207   5.625   8.313   1.175
 6144W        W10208   2.476   4.813   9.875
 6145W        W10209   0.246   4.354  11.969
 6146W        W10210   3.717   0.869   1.205
 6147W        W10211   0.412   3.830   9.128
 6148W        W10212   5.928   9.542   2.485
 6149W        W10213   1.714   3.807   1.797
 6150W        W10214   4.787   6.263   2.425
 6151W        W10215   1.775   8.091   3.304
 6152W        W10216   1.736   3.884   9.409
 6153W        W10217   4.725   0.765  11.098
 6154W        W10218   9.896   8.493  11.502
 6155W        W10219   0.428   6.187   2.468
 6156W        W10220   2.347   1.740   9.736
 6157W        W10221   7.994   5.110   2.064
 6158W        W10222   5.490  10.330  10.201
 6159W        W10223   3.339   2.342   2.628
 6160W        W10224   1.829   3.554   3.376
 6161W        W10225   5.134   9.550   0.271
 6162W        W10226   6.039   1.295   2.799
 6163W        W10227   8.954   2.019   2.423
 6164W        W10228   9.125   5.133   1.880
 6165W        W10229   0.693   7.175   1.761
 6166W        W10230   2.272   4.160   0.886
 6167W        W10231   7.132   1.253   0.712
 6168W        W10232   7.601   2.848   0.964
 6169W        W10233   6.793   6.921   2.674
 6170W        W10234   9.518   8.376   2.445
 6171W        W10235   1.221   2.821   9.463
 6172W        W10236   2.220   9.327  11.883
 6173W        W10237   7.494   5.642  10.867
 6174W        W10238   0.387   0.866   0.919
 6175W        W10239   5.593   4.287   2.605
 6176W        W10240   1.424   3.395   0.305
 6177W        W10241   8.918   9.469   1.767
 6178W        W10242   4.700   5.760  11.362
 6179W        W10243   7.238   2.546   0.742
 6180W        W10244   3.698   7.971   1.426
 6181W        W10245   7.730  10.225  11.993
 6182W        W10246   0.390   5.972  11.148
 6183W        W10247   0.789   0.421  11.812
 6184W        W10248   3.113   3.566   0.009
 6185W        W10249   0.367   8.619   3.113
 6186W        W10250   4.252   9.181   9.467
 6187W        W10251   2.376   3.074   0.342
 6188W        W10252   3.158   2.769   3.560
 6189W        W10253   5.212   3.845   8.969
 6190W        W10254   2.830   8.865   1.176
 6191W        W10255  10.293   5.712   1.744
 6192W        W10256   0.952   2.126  10.428
 6193W        W10257   5.542   2.638   0.294
 6194W        W10258   6.461   4.307   8.905
 6195W        W10259   3.260   9.279  11.479
 6196W        W10260   3.762   4.695   0.999
 6197W        W10261   0.813   1.444   1.972
 6198W        W10262   9.532   1.592  11.721
 6199W        W10263   8.089   8.270   0.600
 6200W        W10264   1.834   5.103  10.338
 6201W        W10265   9.900   6.434   1.986
 6202W        W10266   4.936   6.438   0.352
 6203W        W10267   3.376   9.900  10.690
 6204W        W10268   6.557   2.463   2.866
 6205W        W10269   5.242   3.254   8.480
 6206W        W10270   8.941   3.153   8.898
 6207W        W10271   3.195   1.372  10.130
 6208W        W10272   9.786   6.557   8.877
 6209W        W10273   9.963   7.023   8.517
 6210W        W10274   4.610   1.556   2.861
 6211W        W10275   4.607   2.652   2.359
 6212W        W10276   3.982   4.245  11.643
 6213W        W10277   4.423   8.708   9.538
 6214W        W10278   6.239   6.915   0.012
 6215W        W10279   6.114   4.944   0.927
 6216W        W10280   2.769  10.124   2.318
 6217W        W10281   2.130  10.017   9.869
 6218W        W10282   4.696   0.998  10.203
 6219W        W10283   6.568   1.912   1.371
 6220W        W10284   6.059  10.400  10.281
 6221W        W10285   9.362   9.585   2.045
 6222W        W10286   8.640   5.792   8.507
 6223W        W10287   5.482   1.231   0.598
 6224W        W10288   0.644   9.856   9.822
 6225W        W10289   6.859   0.893   1.395
 6226W        W10290   5.221   3.201  11.735
 6227W        W10291   6.066   2.671   9.026
 6228W        W10292   0.435   9.081   3.615
 6229W        W10293   8.124   3.578   8.924
 6230W        W10294   0.696   1.797  -0.001
 6231W        W10295   0.966   6.044   9.324
 6232W        W10296   8.083   7.590  10.858
 6233W        W10297   7.947   9.473   1.603
 6234W        W10298   6.964   3.776   9.697
 6235W        W10299   6.067   2.077   1.167
 6236W        W10300   9.293   7.506  10.606
 6237W        W10301   6.627   2.973   2.866
 6238W        W10302   5.632   9.358   1.701
 6239W        W10303   7.081   8.607  11.969
 6240W        W10304   2.846   2.375  10.906
 6241W        W10305   8.530   9.381   8.936
 6242W        W10306   1.298   6.056   1.000
 6243W        W10307   5.256   1.848  10.936
 6244W        W10308   9.086   6.998  11.178
 6245W        W10309   0.010   1.711   1.115
 6246W        W10310   6.581   0.774  10.007
 6247W        W10311   5.923   3.794   8.239
 6248W        W10312   9.248   2.193   9.993
 6249W        W10313   4.076   6.630   1.479
 6250W        W10314   5.196   8.980   9.960
 6251W        W10315   6.109   2.790   1.698
 6252W        W10316   5.226   4.682   9.709
 6253W        W10317   1.710   4.037   3.758
 6254W        W10318   7.360   5.179  11.014
 6255W        W10319   4.529   3.607   9.610
 6256W        W10320   1.995   1.362   2.735
 6257W        W10321   3.079   2.275   8.979
 6258W        W10322   9.470   8.273   0.274
 6259W        W10323   0.815   1.526   8.919
 6260W        W10324   3.833   7.695   1.836
 6261W        W10325   5.599   9.351  10.948
 6262W        W10326   0.708   2.982   1.515
 6263W        W10327   6.876   5.917   1.765
 6264W        W10328   3.067   4.048  11.079
 6265W        W10329   3.056   8.901   9.100
 6266W        W10330   9.853   2.229   0.682
 6267W        W10331   7.943   6.153   1.796
 6268W        W10332  10.237   0.753   0.300
 6269W        W10333   7.523   3.581   8.965
 6270W        W10334   5.924   0.546   9.621
 6271W        W10335   7.922   4.568   2.026
 6272W        W10336   6.906   0.298  10.542
 6273W        W10337   2.167   0.486  11.241
 6274W        W10338   3.317   0.730   2.420
 6275W        W10339   5.815   0.043   9.812
 6276W        W10340  10.199   1.288   3.409
 6277W        W10341   1.235   4.268  11.792
 6278W        W10342   6.691   6.125   8.767
 6279W        W10343   8.000   0.465   3.345
 6280W        W10344   1.415   0.308   2.050
 6281W        W10345   0.327   3.805   1.728
 6282W        W10346   7.930   9.957  10.649
 6283W        W10347   4.141   2.693   0.191
 6284W        W10348   9.503   5.200   9.045
 6285W        W10349   4.180   3.759   1.845
 6286W        W10350   6.629   3.808   2.476
 6287W        W10351   7.712   3.154   1.777
 6288W        W10352   5.378   0.431   2.738
 6289W        W10353   4.920   9.797   3.569
 6290W        W10354   3.773   2.112   8.628
 6291W        W10355   5.477   5.285   9.898
 6292W        W10356   3.110   4.770  10.596
 6293W        W10357   6.968   4.079  10.366
 6294W        W10358   0.251   1.746   3.076
 6295W        W10359   5.578   0.276  11.962
 6296W        W10360   3.309  10.272   3.449
 6297W        W10361   3.437   7.546   3.647
 6298W        W10362   1.258   1.700   0.371
 6299W        W10363   1.778   8.604   4.111
 6300W        W10364   3.734   1.168   3.086
 6301W        W10365   6.029   8.054  11.525
 6302W        W10366   2.867   3.135   0.183
 6303W        W10367   4.244   5.704   9.639
 6304W        W10368   3.672   8.692   1.829
 6305W        W10369   5.558   9.825   0.435
 6306W        W10370   2.280   4.744  11.754
 6307W        W10371   4.170   0.886   2.555
 6308W        W10372   6.775   3.243   1.729
 6309W        W10373   2.490   7.331  10.176
 6310W        W10374   7.923   0.333  11.046
 6311W        W10375   7.360   3.701   1.393
 6312W        W10376   9.852   5.987  11.437
 6313W        W10377   6.131   7.060   9.138
 6314W        W10378   9.161   0.887   9.905
 6315W        W10379   2.766   5.125  10.487
 6316W        W10380   7.477   2.893   2.916
 6317W        W10381   2.258   5.756   1.352
 6318W        W10382   1.219   0.479  11.544
 6319W        W10383   9.459   1.078  11.852
 6320W        W10384   6.103   8.813   9.935
 6321W        W10385   1.396   3.759   3.511
 6322W        W10386   4.840   8.898  11.813
 6323W        W10387   3.301   5.978   2.783
 6324W        W10388   9.067   2.703   9.995
 6325W        W10389   5.262   3.111   2.564
 6326W        W10390   8.967   4.947   1.314
 6327W        W10391   3.768   3.152   1.448
 6328W        W10392   3.201   7.759   1.464
 6329W        W10393  10.105   3.926   9.754
 6330W        W10394   0.024   0.364   1.685
 6331W        W10395   7.101   3.784  10.772
 6332W        W10396   7.887   3.136   8.767
 6333W        W10397   0.192   7.804   2.947
 6334W        W10398   8.435   5.144  11.861
 6335W        W10399   9.076   5.531   1.016
 6336W        W10400   5.766   1.587   3.442
 6337W        W10401   4.058   1.397  10.120
 6338W        W10402   3.202   8.868   1.956
 6339W        W10403   3.345   0.049   9.871
 6340W        W10404   2.446   6.461  10.243
 6341W        W10405   9.362   5.857   0.274
 6342W        W10406   3.111   6.566   3.510
 6343W        W10407   3.808  10.051   1.875
 6344W        W10408   3.332  10.036   9.795
 6345W        W10409   5.027   0.224   1.868
 6346W        W10410   5.286   8.085  10.321
 6347W        W10411   1.374   8.997   2.035
 6348W        W10412   1.387   2.266  10.134
 6349W        W10413   1.796   2.639   3.427
 6350W        W10414   0.190   3.744   2.747
 6351W        W10415   5.760   6.571  11.168
 6352W        W10416   8.026   9.385  11.404
 6353W        W10417   6.170   1.856  11.047
 6354W        W10418   5.091   8.075  11.358
 6355W        W10419   4.528   1.371   9.910
 6356W        W10420   6.143   7.082   0.484
 6357W        W10421   3.062   1.862   0.976
 6358W        W10422   6.964   4.670   1.477
 6359W        W10423   0.971  10.117   8.622
 6360W        W10424   6.355   8.270   3.237
 6361W        W10425   2.462   4.270  10.524
 6362W        W10426   2.125   0.776   9.939
 6363W        W10427   7.196   9.811   0.713
 6364W        W10428   9.494   1.692   1.955
 6365W        W10429   1.798   9.319   9.177
 6366W        W10430   5.587   8.679  11.820
 6367W        W10431   9.768   4.593  11.312
 6368W        W10432   7.101   5.931   2.623
 6369W        W10433   1.835   5.672  10.998
 6370W        W10434   9.349   4.948  11.953
 6371W        W10435   3.088   1.347   9.099
 6372W        W10436   7.865  10.261  11.494
 6373W        W10437   1.549   0.212  11.875
 6374W        W10438   6.352   5.591   2.534
 6375W        W10439   8.555   0.994  11.046
 6376W        W10440   0.637   4.596   1.855
 6377W        W10441   7.514   7.126   0.669
 6378W        W10442   6.648   4.749   3.143
 6379W        W10443   8.536  10.373   3.094
 6380W        W10444   8.005   1.832   2.743
 6381W        W10445   7.056   0.478   0.612
 6382W        W10446   2.232   3.225   2.350
 6383W        W10447   3.205   4.706   9.555
 6384W        W10448   9.284   9.877  10.548
 6385W        W10449   5.337   3.080   2.069
 6386W        W10450   4.175   7.964   3.385
 6387W        W10451   2.352   4.052   2.395
 6388W        W10452   0.726   4.217   0.695
 6389W        W10453   9.411   9.676   9.124
 6390W        W10454   5.746   1.153  11.979
 6391W        W10455   8.904   2.319   1.996
 6392W        W10456   6.946   0.407   8.949
 6393W        W10457   8.992   5.722   1.918
 6394W        W10458   1.714   3.778  10.773
 6395W        W10459   9.682   3.553   3.542
 6396W        W10460   8.462   8.499  10.859
 6397W        W10461   8.092   0.437   0.609
 6398W        W10462   0.785   3.142  10.045
 6399W        W10463   6.220   9.598   0.977
 6400W        W10464   5.312   9.944   0.950
 6401W        W10465  10.063   3.193   2.083
 6402W        W10466  10.381   9.296  10.025
 6403W        W10467   6.041   7.166  11.305
 6404W        W10468   2.347   1.474   1.267
 6405W        W10469   6.717   3.218  10.252
 6406W        W10470   3.675   9.095   3.170
 6407W        W10471   2.866   6.138   8.781
 6408W        W10472   3.288   4.764   2.239
 6409W        W10473   3.585  10.467   0.699
 6410W        W10474   8.958   7.558   8.692
 6411W        W10475   9.704   8.757   9.085
 6412W        W10476  10.399   2.140   2.977
 6413W        W10477   2.374   2.113  10.512
 6414W        W10478   2.059   3.260   9.746
 6415W        W10479   6.881   1.822   1.875
 6416W        W10480   9.927   1.367   2.040
 6417W        W10481   9.820   9.136   2.837
 6418W        W10482   2.959   4.295  10.646
 6419W        W10483   5.609   4.489   9.426
 6420W        W10484   5.565   3.322   3.471
 6421W        W10485   0.382   7.249  11.547
 6422W        W10486   2.175   3.767  11.641
 6423W        W10487  10.029   3.463   8.993
 6424W        W10488   2.724   3.118   8.976
 6425W        W10489   8.611   3.854  10.618
 6426W        W10490   3.775   3.130   3.486
 6427W        W10491   7.277   7.172   2.792
 6428W        W10492   1.859   5.013   1.149
 6429W        W10493   6.840   9.862   9.394
 6430W        W10494   3.599   5.026   2.630
 6431W        W10495   0.393   7.863   0.452
 6432W        W10496   8.976   9.371   1.281
 6433W        W10497   5.799   1.763   9.481
 6434W        W10498   2.180   6.510   0.295
 6435W        W10499   5.323   2.871  10.954
 6436W        W10500   8.943   9.492   9.244
 6437W        W10501   7.205   5.245   8.465
 6438W        W10502   5.139   6.613  10.455
 6439W        W10503   9.488   4.056   0.264
 6440W        W10504   8.343   1.843   0.778
 6441W        W10505   9.092   6.102   3.687
 6442W        W10506   8.812   8.497   3.181
 6443W        W10507   1.717   0.550   0.235
 6444W        W10508   1.303  10.475  11.461
 6445W        W10509   9.998   8.524   2.362
 6446W        W10510   8.442   5.987   1.773
 6447W        W10511   1.204   7.185   3.075
 6448W        W10512   5.651   8.300   9.532
 6449W        W10513   4.275   4.768   8.617
 6450W        W10514   9.967   7.914  11.101
 6451W        W10515   7.296   5.083   3.068
 6452W        W10516   8.060   2.267   1.960
 6453W        W10517   6.457   9.840   0.460
 6454W        W10518   4.988   3.667   9.388
 6455W        W10519   6.183   6.332  11.366
 6456W        W10520   1.894   0.367   2.994
 6457W        W10521   2.196   4.672   9.457
 6458W        W10522   6.512   9.613   9.730
 6459W        W10523   4.941   8.037   2.286
 6460W        W10524   4.427   2.616   1.822
 6461W        W10525  10.256   9.643  10.963
 6462W        W10526   6.222   5.193   2.267
 6463W        W10527   5.470   3.330   1.494
 6464W        W10528   0.742   7.810   9.101
 6465W        W10529   6.236  10.415   3.165
 6466W        W10530   6.327   2.835   0.800
 6467W        W10531   5.446   1.145  10.499
 6468W        W10532   4.683   2.747  10.112
 6469W        W10533   1.816   6.146   2.247
 6470W        W10534   6.234   5.043   3.297
 6471W        W10535   1.624   6.560   8.849
 6472W        W10536   6.074   6.093   1.821
 6473W        W10537   5.692   4.315   1.383
 6474W        W10538   3.823   7.744   0.361
 6475W        W10539   0.438   6.462   3.455
 6476W        W10540   0.873   4.974  10.266
 6477W        W10541   0.153  10.223   2.074
 6478W        W10542   5.273   2.700  11.857
 6479W        W10543   9.571   3.121   0.263
 6480W        W10544  10.203   6.512   8.568
 6481W        W10545   5.251  10.432   2.821
 6482W        W10546   7.430   9.100   9.496
 6483W        W10547   4.476   6.466   0.148
 6484W        W10548   8.633   9.573   2.713
 6485W        W10549   2.384   4.238   1.402
 6486W        W10550  10.368   2.189   0.942
 6487W        W10551   7.996   7.928  10.020
 6488W        W10552   1.453   9.591  11.496
 6489W        W10553   5.636   7.224   3.558
 6490W        W10554   2.847   6.986   8.745
 6491W        W10555   3.021   3.504   0.535
 6492W        W10556   0.353   9.946   3.243
 6493W        W10557   5.498   9.372   2.257
 6494W        W10558   7.691   3.279   1.259
 6495W        W10559   6.233   4.058   4.113
 6496W        W10560   8.098   0.721   1.444
 6497W        W10561   0.417   4.110   1.326
 6498W        W10562   3.540   0.532  11.053
 6499W        W10563   4.788   9.852   1.749
 6500W        W10564   5.054   6.590   3.352
 6501W        W10565   1.845   1.391   0.987
 6502W        W10566   6.209   5.226   1.774
 6503W        W10567  10.046   5.788   2.280
 6504W        W10568   8.620   1.651  11.844
 6505W        W10569   6.051   8.548   1.892
 6506W        W10570   7.406   9.184   2.880
 6507W        W10571   8.855   8.405   1.954
 6508W        W10572   7.413   1.247   2.438
 6509W        W10573   9.569   9.497  11.557
 6510W        W10574   0.964   6.861   0.818
 6511W        W10575   6.998   0.789  11.410
 6512W        W10576   1.231   1.303   2.248
 6513W        W10577   1.648   9.073   3.382
 6514W        W10578   4.027   5.873  10.061
 6515W        W10579   2.648   2.488  11.784
 6516W        W10580   1.584   7.428  10.401
 6517W        W10581   1.171   0.998   1.328
 6518W        W10582   6.119   4.468   1.112
 6519W        W10583   3.354   2.590   1.863
 6520W        W10584   5.819   2.706  10.946
 6521W        W10585   8.338   7.306   1.154
 6522W        W10586   6.240   7.783   0.411
 6523W        W10587   0.549   4.067  10.446
 6524W        W10588   6.537   2.739   2.439
 6525W        W10589   2.206   2.828   1.145
 6526W        W10590   0.634  10.293   1.917
 6527W        W10591   6.298   1.344  10.243
 6528W        W10592   8.908   3.994   9.080
 6529W        W10593   8.817   2.797   0.528
 6530W        W10594   3.195   6.719   1.549
 6531W        W10595   5.195   0.887   1.896
 6532W        W10596   8.068   7.737   1.161
 6533W        W10597   8.259  10.490   9.703
 6534W        W10598   1.751   3.045   2.514
 6535W        W10599   1.787   6.111  10.703
 6536W        W10600   9.433   2.406   1.412
 6537W        W10601   4.938   6.390   1.941
 6538W        W10602   9.421   5.401   2.683
 6539W        W10603   4.811   8.637   9.881
 6540W        W10604   2.161   6.529  11.267
 6541W        W10605   4.607   3.349   2.625
 6542W        W10606   5.701   0.233  10.945
 6543W        W10607   1.405   8.512   2.758
 6544W        W10608   2.732   6.031  10.291
 6545W        W10609   2.792   2.213   0.239
 6546W        W10610   3.761   5.424   3.457
 6547W        W10611   4.569   6.051   2.023
 6548W        W10612   6.440   2.315   9.098
 6549W        W10613   1.856   2.238   2.748
 6550W        W10614   8.802   1.327   3.072
 6551W        W10615   7.186   1.066  10.805
 6552W        W10616   2.379   2.335   1.870
 6553W        W10617   0.926   1.130  10.226
 6554W        W10618   6.589   0.788   2.744
 6555W        W10619   0.403   9.872   2.760
 6556W        W10620   4.519   2.612   9.119
 6557W        W10621   2.179   1.423   9.320
 6558W        W10622   3.692   5.359   0.377
 6559W        W10623   8.551   6.355   0.243
 6560W        W10624   7.229  10.315  11.863
 6561W        W10625   3.611   8.461  10.540
 6562W        W10626   4.692   8.917   2.640
 6563W        W10627   7.912   2.714   2.739
 6564W        W10628   3.209   0.920   0.954
 6565W        W10629   1.582   3.110   0.725
 6566W        W10630   5.437   8.030   2.321
 6567W        W10631   9.353   3.630   2.429
 6568W        W10632   4.254   5.675  11.741
 6569W        W10633   1.134   2.894   8.513
 6570W        W10634   9.069   6.416  11.019
 6571W        W10635   3.782   6.956  10.480
 6572W        W10636   8.819   3.743   1.939
 6573W        W10637   9.944   7.842   3.530
 6574W        W10638   6.614   0.521   0.266
 6575W        W10639   3.310   6.602   9.780
 6576W        W10640  10.077   9.310  11.279
 6577W        W10641   5.785   4.296   3.103
 6578W        W10642   5.614   3.208   0.457
 6579W        W10643   0.741   9.006   3.210
 6580W        W10644   7.798   7.160  10.151
 6581W        W10645   8.523   6.016   9.036
 6582W        W10646   1.476   0.044   2.873
 6583W        W10647   0.426   0.330   0.768
 6584W        W10648   3.627   5.486  10.346
 6585W        W10649   8.863  10.300   0.893
 6586W        W10650   8.587   8.538   8.934
 6587W        W10651   5.854   4.392   2.163
 6588W        W10652   0.199   6.513   8.726
 6589W        W10653   6.516   6.759   8.922
 6590W        W10654   0.113   8.619  10.917
 6591W        W10655   7.845   3.665   9.344
 6592W        W10656   3.004   7.083   1.878
 6593W        W10657   7.944   7.540   2.236
 6594W        W10658   5.170  10.217   1.861
 6595W        W10659   5.716   4.091   4.006
 6596W        W10660   5.491   7.619  11.823
 6597W        W10661   6.167   2.803  11.948
 6598W        W10662   4.901   8.694   8.494
 6599W        W10663   5.516   0.753   0.203
 6600W        W10664   8.351   5.994   0.899
 6601W        W10665   5.141   5.992   2.746
 6602W        W10666   8.581   4.185   1.737
 6603W        W10667   6.207   3.725  10.407
 6604W        W10668   2.186   2.304   0.959
 6605W        W10669   9.436   5.360   0.272
 6606W        W10670   7.463   3.087   9.735
 6607W        W10671   5.803   4.763   3.332
 6608W        W10672   1.982   6.132  11.717
 6609W        W10673   4.141   4.893   9.783
 6610W        W10674   5.905   1.382   9.824
 6611W        W10675   1.850   6.944   1.471
 6612W        W10676   4.989   1.669   2.501
 6613W        W10677   3.755   2.259   2.073
 6614W        W10678   6.988   6.272   9.483
 6615W        W10679   3.405   1.900  11.251
 6616W        W10680   1.798   0.852   0.634
 6617W        W10681   3.335   4.495   0.806
 6618W        W10682   9.774   4.227   2.959
 6619W        W10683   4.445  10.404   8.659
 6620W        W10684   0.254   6.190  10.273
 6621W        W10685   3.319   1.118   2.781
 6622W        W10686   1.773   5.693   8.705
 6623W        W10687   8.603   8.323   8.447
 6624W        W10688   5.091   1.417  10.692
 6625W        W10689   0.793   5.471   1.477
 6626W        W10690   9.279   8.202   2.865
 6627W        W10691   6.520   5.608  11.174
 6628W        W10692  10.361   5.957  11.297
 6629W        W10693   9.465   6.880   0.065
 6630W        W10694   9.675   2.502  11.518
 6631W        W10695   7.574   8.376   8.435
 6632W        W10696   7.960   1.407   9.364
 6633W        W10697   0.800   7.498   1.374
 6634W        W10698   0.901   3.597   0.281
 6635W        W10699   1.606   0.804  11.322
 6636W        W10700  10.274   7.457  11.301
 6637W        W10701   8.421   8.064  11.871
 6638W        W10702   7.007   2.262   3.569
 6639W        W10703   3.110   3.549  11.089
 6640W        W10704   0.329   5.809   1.008
 6641W        W10705   4.263   0.742  10.881
 6642W        W10706   7.969   6.953   0.432
 6643W        W10707   1.401   7.563  11.845
 6644W        W10708   4.968   3.523   9.882
 6645W        W10709   1.881   7.195   2.316
 6646W        W10710   1.284   6.315  11.289
 6647W        W10711   4.197   8.558   1.790
 6648W        W10712   4.962  10.302  10.138
 6649W        W10713   7.979   4.097  10.523
 6650W        W10714   8.939   2.811   9.525
 6651W        W10715   2.415   6.163   9.020
 6652W        W10716   1.017   8.501  10.708
 6653W        W10717   8.989   9.942   1.970
 6654W        W10718   1.244   9.025   3.042
 6655W        W10719   7.252   3.948   9.232
 6656W        W10720   7.173   0.493   0.119
 6657W        W10721   8.718  10.446   9.961
 6658W        W10722   2.753   6.890   2.269
 6659W        W10723   4.739   7.365  11.142
 6660W        W10724   2.210   3.708   0.655
 6661W        W10725   4.764   3.602   1.001
 6662W        W10726   9.270   1.803   3.612
 6663W        W10727   9.880   3.796  10.962
 6664W        W10728   6.400   9.554   3.368
 6665W        W10729   3.317   4.589   2.739
 6666W        W10730   3.291   7.038   0.178
 6667W        W10731   6.716   9.576   0.856
 6668W        W10732   5.642   9.241   3.336
 6669W        W10733   4.249   1.302   0.697
 6670W        W10734   8.809   3.804  11.721
 6671W        W10735  10.036   2.223   0.216
 6672W        W10736   6.112   0.912   8.972
 6673W        W10737   6.331   0.761   3.544
 6674W        W10738   9.122   1.463   1.697
 6675W        W10739   2.294  10.228  11.442
 6676W        W10740   0.691   7.867   9.607
 6677W        W10741   4.328   3.083   2.285
 6678W        W10742   2.459   9.692   9.603
 6679W        W10743   0.778   1.924   1.820
 6680W        W10744   5.571   9.842   2.722
 6681W        W10745   0.024   0.689   2.674
 6682W        W10746   0.367   5.000  10.247
 6683W        W10747   2.887   7.485   9.855
 6684W        W10748   8.674   1.231   1.951
 6685W        W10749   9.964   4.814   3.208
 6686W        W10750  10.129   8.693   2.919
 6687W        W10751   2.660   6.239   9.820
 6688W        W10752   6.637   5.699  10.693
 6689W        W10753   2.163   8.238  11.867
 6690W        W10754   5.278   6.928  10.086
 6691W        W10755   0.246   6.005   2.930
 6692W        W10756   1.032   7.629  11.475
 6693W        W10757   8.121   3.505   0.740
 6694W        W10758  10.441  10.214  11.317
 6695W        W10759   0.550   9.397   2.886
 6696W        W10760   6.459   2.347  10.483
 6697W        W10761   4.212   7.077  11.672
 6698W        W10762   6.384   5.119   2.751
 6699W        W10763   2.223   1.637   0.654
 6700W        W10764   9.004   1.922   9.021
 6701W        W10765   2.240   2.679   3.077
 6702W        W10766   0.370   3.603   1.255
 6703W        W10767   8.853   8.613   9.622
 6704W        W10768   5.989   2.333   0.249
 6705W        W10769   6.312   9.804   1.720
 6706W        W10770   2.564   7.332  10.730
 6707W        W10771   3.230   8.893   0.531
 6708W        W10772   3.311   4.200  10.275
 6709W        W10773  10.490   8.400   9.050
 6710W        W10774   7.418  10.200   0.953
 6711W        W10775   3.160   1.841   9.894
 6712W        W10776   8.080   3.132   2.500
 6713W        W10777   6.009   4.592   8.632
 6714W        W10778   4.604   4.091   1.834
 6715W        W10779   0.195   9.027   8.892
 6716W        W10780   4.122   3.255   2.737
 6717W        W10781   2.666   5.670  11.261
 6718W        W10782   7.076  10.474   0.710
 6719W        W10783   2.296   1.176   0.846
 6720W        W10784   3.834   5.461   2.451
 6721W        W10785   4.026   4.141   9.481
 6722W        W10786   9.830   5.940   1.847
 6723W        W10787   3.233  10.225  11.067
 6724W        W10788   0.033   7.591   0.715
 6725W        W10789   4.116   5.946  10.919
 6726W        W10790   6.998   3.356  11.074
 6727W        W10791   1.266   9.985   2.899
 6728W        W10792   7.399  10.409   9.519
 6729W        W10793   2.320   7.542   3.255
 6730W        W10794  10.266   1.247   8.865
 6731W        W10795   5.183   6.039   1.331
 6732W        W10796   8.322   3.089   3.371
 6733W        W10797   9.858   7.045   3.413
 6734W        W10798   6.961   9.975   3.220
 6735W        W10799   4.285   1.671   1.400
 6736W        W10800   6.564   3.558  11.550
 6737W        W10801   1.334  10.002   0.944
 6738W        W10802   3.671   5.769   8.852
 6739W        W10803   9.969   3.366   0.772
 6740W        W10804   4.476   7.919   2.420
 6741W        W10805   6.518   5.712   1.127
 6742W        W10806   0.915   6.191   0.380
 6743W        W10807   0.889   5.975   1.290
 6744W        W10808  10.329   3.988   0.644
 6745W        W10809   6.540   7.059   2.230
 6746W        W10810   9.518  10.248  10.280
 6747W        W10811   9.595   2.406   2.951
 6748W        W10812   6.380   1.794   1.891
 6749W        W10813   2.186   8.963   0.728
 6750W        W10814   5.077   7.210   0.772
 6751W        W10815   3.275   6.092   1.895
 6752W        W10816   7.562  10.065   0.480
 6753W        W10817   0.390   9.424   0.406
 6754W        W10818   6.963   4.247   8.941
 6755W        W10819   5.698   6.051   1.466
 6756W        W10820   9.193   3.289  11.932
 6757W        W10821   6.583   8.637  10.072
 6758W        W10822   4.657   8.477  10.946
 6759W        W10823   9.944   3.832   3.209
 6760W        W10824   5.111   0.863  11.926
 6761W        W10825   0.247   5.846   9.752
 6762W        W10826   5.545   1.158   1.088
 6763W        W10827   4.185   3.531   3.156
 6764W        W10828   2.279   6.717   3.035
 6765W        W10829   7.664   0.860  10.932
 6766W        W10830   6.871   9.461   2.463
 6767W        W10831  10.237   7.918   9.214
 6768W        W10832   2.611   8.790   2.117
 6769W        W10833   8.977   6.675   0.061
 6770W        W10834   1.611   8.989   1.040
 6771W        W10835   8.002   0.438   0.033
 6772W        W10836   2.320   4.723   1.222
 6773W        W10837   2.597   9.852   1.456
 6774W        W10838   6.699   5.390  10.303
 6775W        W10839   7.564   2.743   8.508
 6776W        W10840   8.857   1.782   0.780
 6777W        W10841   1.229   5.448  10.903
 6778W        W10842   5.312   6.459  11.441
 6779W        W10843   2.362   8.662   1.139
 6780W        W10844   5.488   0.425   9.900
 6781W        W10845   8.868   2.578   2.432
 6782W        W10846   6.668   8.995   9.010
 6783W        W10847   5.380   7.123   9.621
 6784W        W10848   0.272   8.287   8.628
 6785W        W10849   8.564   4.266   0.729
 6786W        W10850   8.921   3.096  10.361
 6787W        W10851   5.131   0.870   3.163
 6788W        W10852   7.632   1.251   0.111
 6789W        W10853   7.641   9.156   0.886
 6790W        W10854   5.556   4.336  10.741
 6791W        W10855   9.808   2.890   0.925
 6792W        W10856   1.755  10.227   0.750
 6793W        W10857   2.397   4.669   1.738
 6794W        W10858   6.348   8.349   0.358
 6795W        W10859   0.252   4.552   1.502
 6796W        W10860   5.220   2.911   1.615
 6797W        W10861   6.777   9.521   9.021
 6798W        W10862   3.509   8.546   3.084
 6799W        W10863   1.440   8.609  10.402
 6800W        W10864   8.871   6.663   2.018
 6801W        W10865   1.746   8.588   3.161
 6802W        W10866   5.169   4.121   3.318
 6803W        W10867   8.158   9.552   3.471
 6804W        W10868   6.179   9.860  10.068
 6805W        W10869   7.779   5.936  10.065
 6806W        W10870   4.166   0.879   0.387
 6807W        W10871   9.848   7.458   9.326
 6808W        W10872   4.285   0.414   0.225
 6809W        W10873   7.174   6.180   8.592
 6810W        W10874   1.251   9.855  10.786
 6811W        W10875   9.372   0.547  11.954
 6812W        W10876  10.257   5.774   0.224
 6813W        W10877   1.660   0.808   3.363
 6814W        W10878   2.457   4.609   0.727
 6815W        W10879   5.545   7.940   9.862
 6816W        W10880   5.193   5.648  10.410
 6817W        W10881   4.717   9.117   9.724
 6818W        W10882   8.335   3.265  11.278
 6819W        W10883  10.042  10.445   9.456
 6820W        W10884   6.883   8.970   1.674
 6821W        W10885   3.241   0.197  10.810
 6822W        W10886   4.471   8.086  10.684
 6823W        W10887   6.813   4.275  11.705
 6824W        W10888   9.842   4.767   2.323
 6825W        W10889   5.795   6.140   0.106
 6826W        W10890   5.114   1.395   1.820
 6827W        W10891   3.562   4.655  10.395
 6828W        W10892   5.669   8.414  11.356
 6829W        W10893   4.584   1.009   2.911
 6830W        W10894   0.536   3.313   2.835
 6831W        W10895   0.114   8.891   9.372
 6832W        W10896   4.970   1.695   0.046
 6833W        W10897  10.362   3.284   1.660
 6834W        W10898   8.971   0.994   8.923
 6835W        W10899   6.421   0.332  10.400
 6836W        W10900   3.328   9.591   0.108
 6837W        W10901   9.941   4.182   2.465
 6838W        W10902  10.299   2.232   2.464
 6839W        W10903   1.206   3.071   1.602
 6840W        W10904   2.980   1.740  11.499
 6841W        W10905   5.419   5.687   2.365
 6842W        W10906   8.867   3.675   9.476
 6843W        W10907   0.731   3.298   3.307
 6844W        W10908   3.954   8.922  11.966
 6845W        W10909   9.372   6.992   3.586
 6846W        W10910   6.634   5.411   1.954
 6847W        W10911   7.593   0.578   1.333
 6848W        W10912   5.608   7.020   2.324
 6849W        W10913   7.131   1.314   0.201
 6850W        W10914   5.443  10.388   0.284
 6851W        W10915   8.542  10.225   8.713
 6852W        W10916   8.891   7.162   0.223
 6853W        W10917   4.066   7.135  10.891
 6854W        W10918   8.833   5.094   9.827
 6855W        W10919   3.737   5.075   9.094
 6856W        W10920   0.378   2.238  11.929
 6857W        W10921   7.293   8.813   8.690
 6858W        W10922   0.059   9.440   3.508
 6859W        W10923   0.293   1.731  11.714
 6860W        W10924   1.774   2.092  11.626
 6861W        W10925   7.709   2.248   8.398
 6862W        W10926   4.026   4.001   3.113
 6863W        W10927   3.271  10.280  11.583
 6864W        W10928   7.582   1.664  10.245
 6865W        W10929   9.264   5.009   3.337
 6866W        W10930   9.560  10.015   0.742
 6867W        W10931   0.580   3.297  11.293
 6868W        W10932   1.771   2.605   9.109
 6869W        W10933   4.940   6.076   3.258
 6870W        W10934   9.788   6.901   2.223
 6871W        W10935   2.469   5.539   2.221
 6872W        W10936   5.007   1.754   3.104
 6873W        W10937   6.754   2.591   0.832
 6874W        W10938   5.458   2.242   9.596
 6875W        W10939   6.406   1.193   9.780
 6876W        W10940   7.959   2.285  11.879
 6877W        W10941   1.344   2.833   8.963
 6878W        W10942   1.278   7.362   0.329
 6879W        W10943   4.937   1.870   0.889
 6880W        W10944   0.834   4.270  10.828
 6881W        W10945   7.377   9.110  11.174
 6882W        W10946  10.049   5.244   9.331
 6883W        W10947   4.323   3.123  11.864
 6884W        W10948   3.398   1.298   0.256
 6885W        W10949   9.933   5.372   9.900
 6886W        W10950   7.476   4.053   3.876
 6887W        W10951   6.254   4.048   2.177
 6888W        W10952   2.090   1.886   1.977
 6889W        W10953   0.618   7.537   2.327
 6890W        W10954   6.428   3.328   9.002
 6891W        W10955   9.754   6.840   1.725
 6892W        W10956   5.672   8.862   3.001
 6893W        W10957  10.440   1.395   2.474
 6894W        W10958   0.328   4.230   2.035
 6895W        W10959   3.959   1.771  11.735
 6896W        W10960   0.358   1.759  10.311
 6897W        W10961   6.631   3.720   2.993
 6898W        W10962   8.606   5.540   0.815
 6899W        W10963   7.947   4.766   3.502
 6900W        W10964   7.149   9.427  11.991
 6901W        W10965   1.784   6.157  11.223
 6902W        W10966   2.617   7.940  11.983
 6903W        W10967   8.502   0.906  11.563
 6904W        W10968  10.092   5.493  10.476
 6905W        W10969   8.471   5.597   3.154
 6906W        W10970   3.701   0.251   9.563
 6907W        W10971   6.029   9.450   1.993
 6908W        W10972   0.875   0.634   8.465
 6909W        W10973   0.510  10.331   8.727
 6910W        W10974   8.983   9.277   8.742
 6911W        W10975   6.150   1.375  11.739
 6912W        W10976   0.058   8.506  10.418
 6913W        W10977   6.512   9.812  10.952
 6914W        W10978   2.677   2.599   8.951
 6915W        W10979   7.903   2.954  11.274
 6916W        W10980   0.851   3.544   9.223
 6917W        W10981   6.642   4.489  10.478
 6918W        W10982   2.591   5.136  11.007
 6919W        W10983   8.614   5.576  11.683
 6920W        W10984   4.422   1.326   0.234
 6921W        W10985   5.210   6.224   0.806
 6922W        W10986   6.495  10.024   8.233
 6923W        W10987   4.233   5.696   2.770
 6924W        W10988   9.969   7.995  10.109
 6925W        W10989   2.414   7.744   0.732
 6926W        W10990   8.997   3.624   1.181
 6927W        W10991   7.344   5.401  11.809
 6928W        W10992   8.323   3.677  11.847
 6929W        W10993   6.446   7.107   9.579
 6930W        W10994   9.947   7.082   0.092
 6931W        W10995   3.789   5.519   2.964
 6932W        W10996  10.479   0.911  11.889
 6933W        W10997   7.622  10.306   2.951
 6934W        W10998   5.120  10.411   3.346
 6935W        W10999   9.532   4.238   1.226
 6936W        W11000   7.544   4.655   3.179
 6937W        W11001   3.217  10.343   2.440
 6938W        W11002   6.954   3.138   3.664
 6939W        W11003   9.359   8.337  10.941
 6940W        W11004   7.994   7.111   3.321
 6941W        W11005   7.553   7.852   9.454
 6942W        W11006   8.441   3.357   2.828
 6943W        W11007   4.608   3.559   2.086
 6944W        W11008   6.458   4.959  10.446
 6945W        W11009   7.557   1.435   1.525
 6946W        W11010   6.028   4.593   0.561
 6947W        W11011   3.849   7.290   2.843
 6948W        W11012   8.572   0.660   1.676
 6949W        W11013   8.516   1.410  11.382
 6950W        W11014   1.234   4.705   1.342
 6951W        W11015   7.453   7.757  11.902
 6952W        W11016  10.344   2.753   9.109
 6953W        W11017   7.945   9.940   2.812
 6954W        W11018   4.495   6.621   2.198
 6955W        W11019   0.829   4.704   0.845
 6956W        W11020   7.071   4.732  11.541
 6957W        W11021   5.199   2.231  10.591
 6958W        W11022   1.697   4.714   0.447
 6959W        W11023   8.525  10.230   1.270
 6960W        W11024   0.115   8.024   1.004
 6961W        W11025   4.646   7.403  10.301
 6962W        W11026   8.410   9.011  11.500
 6963W        W11027   7.164   9.179   9.045
 6964W        W11028   6.280   6.080   9.994
 6965W        W11029   9.868  10.453   8.929
 6966W        W11030   5.941   1.907   0.604
 6967W        W11031   2.759   2.725   0.475
 6968W        W11032   0.291   5.164   2.164
 6969W        W11033   4.061   9.051   1.910
 6970W        W11034   1.888   5.092   1.667
 6971W        W11035   9.026   4.083   0.937
 6972W        W11036   0.401   5.609   0.525
 6973W        W11037   6.715   4.243   3.282
 6974W        W11038  10.481   7.905   3.496
 6975W        W11039   1.996   1.722  10.102
 6976W        W11040   7.591   0.684   3.103
 6977W        W11041   7.612   1.987   3.715
 6978W        W11042   1.214   8.634  11.687
 6979W        W11043   2.785   5.304  10.009
 6980W        W11044   2.407   2.606   3.553
 6981W        W11045  10.329   2.160   1.488
 6982W        W11046   5.999   1.725   8.650
 6983W        W11047   9.365   8.609   1.104
 6984W        W11048   0.759   3.715   0.795
 6985W        W11049   4.176   7.442   1.553
 6986W        W11050   6.325   4.672   0.147
 6987W        W11051   3.588   1.936   9.553
 6988W        W11052   3.109   6.368   3.986
 6989W        W11053   8.623   4.853   2.645
 6990W        W11054   9.346   0.176   9.022
 6991W        W11055   3.641   4.162   1.616
 6992W        W11056   1.608   4.203   0.780
 6993W        W11057   3.378   7.435   9.260
 6994W        W11058   9.917   9.060   9.444
 6995W        W11059   5.636   4.530   0.887
 6996W        W11060   2.226   4.698  10.343
 6997W        W11061  10.030   2.118  10.657
 6998W        W11062   9.246   9.851  11.802
 6999W        W11063   5.115  10.041   0.497
 7000W        W11064   1.196   0.325   2.535
 7001W        W11065   7.473   0.978  11.471
 7002W        W11066   9.975   2.287  11.174
 7003W        W11067   3.378   1.813  10.375
 7004W        W11068   7.991   4.793   9.978
 7005W        W11069   9.385   7.600   2.881
 7006W        W11070   6.391   0.348   2.912
 7007W        W11071   1.712   4.868   9.443
 7008W        W11072   3.661   1.450   9.411
 7009W        W11073   9.912   8.049   0.441
 7010W        W11074   8.851   1.004   0.365
 7011W        W11075   5.517   7.211  10.511
 7012W        W11076   2.397   9.440   0.685
 7013W        W11077   3.836   4.233  10.419
 7014W        W11078   4.797   4.261   2.290
 7015W        W11079   4.603   2.417   0.155
 7016W        W11080   8.431   5.564   0.154
 7017W        W11081   3.669  10.064  11.320
 7018W        W11082   9.063   4.784  11.340
 7019W        W11083   9.634   7.081   9.928
 7020W        W11084   4.582   8.604   8.885
 7021W        W11085   4.797   4.042  10.330
 7022W        W11086   1.964   0.794   9.013
 7023W        W11087   8.438  10.043   2.668
 7024W        W11088  10.200   5.596   3.584
 7025W        W11089   5.210   2.224   3.192
 7026W        W11090   6.897   5.538   0.024
 7027W        W11091   2.240   0.033   9.035
 7028W        W11092   8.105   5.068   2.554
 7029W        W11093   8.300   0.589  10.384
 7030W        W11094  10.026   5.284   8.803
 7031W        W11095   9.248   9.035  10.344
 7032W        W11096  10.066   4.606   2.747
 7033W        W11097   9.008   4.669  10.140
 7034W        W11098   5.757   4.806   1.288
 7035W        W11099   7.237   6.454   3.274
 7036W        W11100   1.675   3.584   9.812
 7037W        W11101   7.558   4.871   2.201
 7038W        W11102   3.763   1.785   9.048
 7039W        W11103   8.528   5.362   2.657
 7040W        W11104   4.074   9.938   3.157
 7041W        W11105   4.227   2.933   1.490
 7042W        W11106   7.093   4.575   3.431
 7043W        W11107   6.925   6.951  11.470
 7044W        W11108   9.783   4.503   0.258
 7045W        W11109   6.644   4.144   1.833
 7046W        W11110   2.645   6.822  10.866
 7047W        W11111   6.902   9.583   0.383
 7048W        W11112   1.890   3.457   8.492
 7049W        W11113  10.320   4.070   8.258
 7050W        W11114   5.450   9.472   8.996
 7051W        W11115   8.939   7.574   9.750
 7052W        W11116   1.310   3.832   0.070
 7053W        W11117   1.086   4.680   8.496
 7054W        W11118   4.558   3.594   9.073
 7055W        W11119   5.519   1.637   8.516
 7056W        W11120   0.869   7.926  10.077
 7057W        W11121  10.438  10.487  11.819
 7058W        W11122   1.436   2.268   1.381
 7059W        W11123   7.372   9.370   2.299
 7060W        W11124   5.536   6.713  11.938
 7061W        W11125   8.852   2.404   0.074
 7062W        W11126   6.357   3.044   8.558
 7063W        W11127   8.956   0.708  11.737
 7064W        W11128   0.294   4.490  11.485
 7065W        W11129   4.757   6.670   8.576
 7066W        W11130   6.721   6.719   9.382
 7067W        W11131   0.561   1.163   0.331
 7068W        W11132   9.260   2.414  11.791
 7069W        W11133   5.293   1.857  11.667
 7070W        W11134   1.182   1.798  11.857
 7071W        W11135   0.043   4.280   9.625
 7072W        W11136   1.029   3.277   2.424
 7073W        W11137   2.707   7.908   1.462
 7074W        W11138   3.277   6.044   9.060
 7075W        W11139   9.828   2.236   2.218
 7076W        W11140   4.278   2.199   1.463
 7077W        W11141   6.525   6.289   1.745
 7078W        W11142   3.074   6.562   2.007
 7079W        W11143   5.436   6.477   2.673
 7080W        W11144   0.820   9.830   3.088
 7081W        W11145   2.768   0.304   3.554
 7082W        W11146   7.884   2.044   0.950
 7083W        W11147   0.485   6.697   0.929
 7084W        W11148   2.201   1.262  10.499
 7085W        W11149   8.452   0.541   1.141
 7086W        W11150   7.890   1.849   1.722
 7087W        W11151   6.489   5.882   2.094
 7088W        W11152   6.673  10.389   2.862
 7089W        W11153   6.951   6.408   2.684
 7090W        W11154   4.286   2.150  11.869
 7091W        W11155   6.498   9.330   1.801
 7092W        W11156   6.105   2.730   2.735
 7093W        W11157   0.702   8.572  11.593
 7094W        W11158   2.281   7.211   1.447
 7095W        W11159   4.176  10.019  11.257
 7096W        W11160  10.244   6.666   2.332
 7097W        W11161  10.329   1.801  11.550
 7098W        W11162   9.290   4.221  10.062
 7099W        W11163   1.304   6.941  11.053
 7100W        W11164   3.738   7.477  10.528
 7101W        W11165   1.316   1.566  11.425
 7102W        W11166   9.575   0.028  11.216
 7103W        W11167   1.148   1.706  10.963
 7104W        W11168   0.376   3.284   1.776
 7105W        W11169   6.519   4.655   0.809
 7106W        W11170   0.036   9.101   0.177
 7107W        W11171   1.824   3.148   1.199
 7108W        W11172   9.879   7.490  10.841
 7109W        W11173   1.437   9.806   0.446
 7110W        W11174   1.610   4.311   1.893
 7111W        W11175   4.666   1.012   1.167
 7112W        W11176   6.887   6.650   1.326
 7113W        W11177   2.823   6.993  10.408
 7114W        W11178   3.508   7.028   9.582
 7115W        W11179   5.112   0.567   1.489
 7116W        W11180   1.992   4.277   0.441
 7117W        W11181   2.753   9.341   9.362
 7118W        W11182   9.245   8.966   3.546
 7119W        W11183   8.375   7.633   8.968
 7120W        W11184   4.003   6.993   9.623
 7121W        W11185   4.326   6.264   4.106
 7122W        W11186   0.818   0.394   1.853
 7123W        W11187   9.470   2.455   0.909
 7124W        W11188   9.857   5.044   1.528
 7125W        W11189   2.549   7.832   9.981
 7126W        W11190  10.202   0.481   3.063
 7127W        W11191   2.849   0.217   1.757
 7128W        W11192   3.330   4.777  11.054
 7129W        W11193   3.559   6.237   8.661
 7130W        W11194   9.550   2.506  11.021
 7131W        W11195   9.635   8.644   2.846
 7132W        W11196   5.536   9.332   9.492
 7133W        W11197   8.458   8.599   9.961
 7134W        W11198   7.874   5.408   8.868
 7135W        W11199   7.001   2.679   2.251
 7136W        W11200   2.644   1.858   2.657
 7137W        W11201   9.777   7.548  11.418
 7138W        W11202   6.928   3.520   9.219
 7139W        W11203   2.275   3.482  10.687
 7140W        W11204   9.167   9.124   0.425
 7141W        W11205   6.559  10.488   8.927
 7142W        W11206   9.019   2.059  10.865
 7143W        W11207   0.914   7.122  11.405
 7144W        W11208   1.414   5.589   3.298
 7145W        W11209   0.328   2.914   9.323
 7146W        W11210  10.301   5.994  10.468
 7147W        W11211   9.139   5.154   9.422
 7148W        W11212   0.520   3.224   2.316
 7149W        W11213   7.474   2.198  11.724
 7150W        W11214   0.188   1.418   3.473
 7151W        W11215  10.260   4.234  10.930
 7152W        W11216  10.377   2.927   9.608
 7153W        W11217   5.468   7.857   0.278
 7154W        W11218   4.772   7.345   1.287
 7155W        W11219   4.619   2.846   0.441
 7156W        W11220   2.374   7.414  11.221
 7157W        W11221   9.314  10.021   2.800
 7158W        W11222   6.527   5.261   3.639
 7159W        W11223   3.616   0.241   3.524
 7160W        W11224   6.234   5.678  10.355
 7161W        W11225   2.588   0.185   0.009
 7162W        W11226   1.446   4.930   1.817
 7163W        W11227   1.867   8.918   9.809
 7164W        W11228  10.269   1.092  10.977
 7165W        W11229   4.296   4.724   0.965
 7166W        W11230   1.816  10.382  11.158
 7167W        W11231   0.397   6.192   0.655
 7168W        W11232   6.783   1.696   0.871
 7169W        W11233   0.910   3.855  11.747
 7170W        W11234   6.148   3.330   8.125
 7171W        W11235   3.595   6.628   0.195
 7172W        W11236   6.995   5.048   9.345
 7173W        W11237   7.355   9.504  11.529
 7174W        W11238   4.620   9.610   1.040
 7175W        W11239   2.602   4.713  10.728
 7176W        W11240   5.454   7.066   4.001
 7177W        W11241   9.728   7.510   2.210
 7178W        W11242   9.717   2.990  11.336
 7179W        W11243   6.233   5.274   1.287
 7180W        W11244   0.325   3.160  10.319
 7181W        W11245   0.489   8.584   9.490
 7182W        W11246   3.785   8.479   2.310
 7183W        W11247   9.608   8.778   2.137
 7184W        W11248   8.346   2.287  11.490
 7185W        W11249   0.180   2.141   9.999
 7186W        W11250   4.983   0.393   9.163
 7187W        W11251   5.104   7.707   0.637
 7188W        W11252  10.027  10.275   0.814
 7189W        W11253   2.301   6.472  10.727
 7190W        W11254   4.985   5.339   1.650
 7191W        W11255   9.466   1.359   1.332
 7192W        W11256   1.868   4.436  11.484
 7193W        W11257   7.699   6.652  11.352
 7194W        W11258   6.666   5.267   3.143
 7195W        W11259   1.263   5.902   1.957
 7196W        W11260   7.144   4.020   3.060
 7197W        W11261   1.822   6.172   0.238
 7198W        W11262   7.538   7.300   2.378
 7199W        W11263   5.525   9.426  10.445
 7200W        W11264   2.688   6.389   2.323
 7201W        W11265   4.061   9.046   0.478
 7202W        W11266   6.090   2.379   0.744
 7203W        W11267   0.808   8.078   2.235
 7204W        W11268   3.172   6.549   8.807
 7205W        W11269   1.697   8.848   8.924
 7206W        W11270   1.306   5.207  10.441
 7207W        W11271   5.580   2.804   2.818
 7208W        W11272   3.226   1.848   0.500
 7209W        W11273   1.608   6.986   1.926
 7210W        W11274   6.213   3.042   9.356
 7211W        W11275   4.818   8.015   3.605
 7212W        W11276   7.498   9.541   9.235
 7213W        W11277   6.657   1.726   2.342
 7214W        W11278   2.806   2.838   9.883
 7215W        W11279  10.261   2.807  10.546
 7216W        W11280   1.782   6.924  11.266
 7217W        W11281   5.939   8.105  11.011
 7218W        W11282   4.151   5.744   2.134
 7219W        W11283   9.935   7.585   1.306
 7220W        W11284   0.829   9.427  10.049
 7221W        W11285   4.187   5.588  11.255
 7222W        W11286   1.341   8.153  11.561
 7223W        W11287   8.595   3.761   1.454
 7224W        W11288   6.888   0.917   0.409
 7225W        W11289   4.732   5.396  10.414
 7226W        W11290   9.885   8.005   2.291
 7227W        W11291   7.091  10.443   8.698
 7228W        W11292   8.110   8.174  11.321
 7229W        W11293   3.045   2.356  10.031
 7230W        W11294   7.577   6.869  10.891
 7231W        W11295   4.091   4.264   9.976
 7232W        W11296  10.290   6.218   0.468
 7233W        W11297   6.420   9.696   2.585
 7234W        W11298   5.054   9.574  11.746
 7235W        W11299   8.666   4.386   2.427
 7236W        W11300   1.607   7.240   2.754
 7237W        W11301   7.511   6.905   3.254
 7238W        W11302   9.412   5.214   1.292
 7239W        W11303   8.294   9.198   2.394
 7240W        W11304   0.325   8.165  11.594
 7241W        W11305   9.774   1.818   3.617
 7242W        W11306   8.469   8.353   2.280
 7243W        W11307   6.907   4.621   8.591
 7244W        W11308   0.605   7.180   1.016
 7245W        W11309   0.776  10.439  10.963
 7246W        W11310   4.174   9.337   2.322
 7247W        W11311   6.513   2.147   0.899
 7248W        W11312   0.791   6.998  10.274
 7249W        W11313   2.825   5.879   3.944
 7250W        W11314   4.073   6.629  11.429
 7251W        W11315   5.940   6.895  10.531
 7252W        W11316   8.383   8.540   9.458
 7253W        W11317   9.451   0.685   9.009
 7254W        W11318   8.100   5.182   0.330
 7255W        W11319   4.783   4.188   0.280
 7256W        W11320   9.869   0.864  10.299
 7257W        W11321   2.900   6.641   9.498
 7258W        W11322   6.853   5.920   0.355
 7259W        W11323  10.350   6.566   1.723
 7260W        W11324   7.381   4.476   9.828
 7261W        W11325   7.958   3.229   2.999
 7262W        W11326   1.386   4.690   0.029
 7263W        W11327   6.277   0.413   1.067
 7264W        W11328   3.117   0.855  10.177
 7265W        W11329   9.485   8.067   1.604
 7266W        W11330   2.116   4.986   0.614
 7267W        W11331   4.209   9.374  11.882
 7268W        W11332   2.808   6.972   0.943
 7269W        W11333   2.769   3.806  11.442
 7270W        W11334   1.706  10.334   9.722
 7271W        W11335   0.876   5.556   8.613
 7272W        W11336   5.930   6.883   3.321
 7273W        W11337   7.401   7.563   0.390
 7274W        W11338   5.196   0.531   2.272
 7275W        W11339   3.278   9.687  11.140
 7276W        W11340   9.257   7.071  10.326
 7277W        W11341   4.973   5.575   0.287
 7278W        W11342   1.778   1.401  11.258
 7279W        W11343   0.560   5.195   8.894
 7280W        W11344   5.740   9.414   0.915
 7281W        W11345   4.951   6.983  11.431
 7282W        W11346   0.868   9.892   1.685
 7283W        W11347   1.690   9.794   8.995
 7284W        W11348   8.981   6.597   9.548
 7285W        W11349   9.909   2.662  11.971
 7286W        W11350   8.179   8.550   8.583
 7287W        W11351   1.977   5.655   2.304
 7288W        W11352   7.906   7.464   9.266
 7289W        W11353   5.524   5.742   9.030
 7290W        W11354   0.306   3.550   9.989
 7291W        W11355  10.364   6.587  11.811
 7292W        W11356   3.338   3.064  11.991
 7293W        W11357   4.573   7.676   9.889
 7294W        W11358   8.423   2.110  11.971
 7295W        W11359   6.526   7.525  10.640
 7296W        W11360   2.858   2.307   2.877
 7297W        W11361   7.451   2.074   9.763
 7298W        W11362   3.642   5.016   9.600
 7299W        W11363   9.412   7.890   2.468
 7300W        W11364   5.950   8.656   0.331
 7301W        W11365   3.608   3.814   9.421
 7302W        W11366   0.230   6.560   2.156
 7303W        W11367   2.366   5.127   9.325
 7304W        W11368   9.783   8.091   1.209
 7305W        W11369   9.354  10.167   8.882
 7306W        W11370   7.368   1.758  11.972
 7307W        W11371   1.488   3.155   2.941
 7308W        W11372   0.771  10.316  10.085
 7309W        W11373   0.885   7.575   3.609
 7310W        W11374   1.245   1.294   9.075
 7311W        W11375   8.076   0.285   9.044
 7312W        W11376   5.087   0.763   0.998
 7313ION    NA+11377   6.456   4.862   8.695
 7314ION    NA+11378   1.841  10.069   2.205
 7315ION    NA+11379   7.754   7.046  11.706
 7316ION    NA+11380   9.067   5.959   1.375
 7317ION    NA+11381   5.506   3.591   9.491
 7318ION    NA+11382   7.903   4.758   0.132
 7319ION    NA+11383   5.515   4.054   0.956
 7320ION    NA+11384   6.209   1.442  10.735
 7321ION    NA+11385   2.613   8.341   9.863
 7322ION    NA+11386   2.740   4.600  10.255
 7323ION    NA+11387   1.514   2.371  10.628
 7324ION    NA+11388  10.100   4.991  11.457
 7325ION    NA+11389   2.676   0.360  10.295
 7326ION    NA+11390   0.589   9.099   9.396
 7327ION    NA+11391   5.155   4.585   2.638
 7328ION    NA+11392   4.196   8.544   0.227
 7329ION    NA+11393   7.464   4.362   2.308
 7330ION    NA+11394   1.129   7.633   2.298
 7331ION    NA+11395   8.844   0.619   9.613
 7332ION    NA+11396   3.715   2.627  10.090
 7333ION    NA+11397   7.313   1.301   1.951
 7334ION    NA+11398   4.992   3.254   0.661
 7335ION    NA+11399   4.221   5.412   0.513
 7336ION    NA+11400   0.614   8.415  11.109
 7337ION    NA+11401   0.662   2.717   1.088
 7338ION    NA+11402   8.273   1.528   1.788
 7339ION    NA+11403   0.798   2.719   9.781
 7340ION    NA+11404   1.508   2.730   0.011
 7341ION    NA+11405   7.094   9.021   9.879
 7342ION    NA+11406   8.476   6.178   3.084
 7343ION    NA+11407   2.925   9.503   2.710
 7344ION    NA+11408   8.928   9.145   2.635
 7345ION    NA+11409   2.401   2.139  11.028
 7346ION    NA+11410   0.914   5.165  11.974
 7347ION    NA+11411   9.655   2.090  11.832
 7348ION    NA+11412   7.052   7.174   0.371
 7349ION    NA+11413   2.294   1.260   9.971
 7350ION    NA+11414   4.985   4.088  11.779
 7351ION    NA+11415   6.553   7.765   9.037
 7352ION    NA+11416   8.624   8.240  11.401
 7353ION    NA+11417   2.701   6.493   0.326
 7354ION    NA+11418   1.672   5.187   2.712
 7355ION    NA+11419   5.143   8.234   0.933
 7356ION    NA+11420   5.622   6.081  11.220
 7357ION    NA+11421   3.025   7.137   9.494
 7358ION    NA+11422   6.711   9.146   3.239
 7359ION    NA+11423   1.710   7.083  10.777
 7360ION    NA+11424   0.017   1.628   9.151
 7361ION    NA+11425   1.431   8.287   0.565
 7362ION    NA+11426   7.900   8.739   9.358
 7363ION    NA+11427   8.383   9.067  10.893
 7364ION    NA+11428   4.402   1.498  11.421
 7365ION    NA+11429   3.116   2.876  11.293
 7366ION    NA+11430   3.806   3.885   0.664
 7367ION    NA+11431   7.670   7.870   1.458
 7368ION    NA+11432   9.061   5.064   2.842
 7369ION    NA+11433   6.752   1.725   3.152
 7370ION    NA+11434   3.452   8.390  11.446
 7371ION    NA+11435   9.893   9.519   1.273
 7372ION    NA+11436   7.085   3.112   2.557
 7373ION    NA+11437   6.194   2.554   1.233
 7374ION    NA+11438   4.003   2.275   0.935
 7375ION    NA+11439   6.019   9.655   9.608
 7376ION    NA+11440   9.954   9.824  11.386
 7377ION    NA+11441   9.020  10.326  10.406
 7378ION    NA+11442   1.199   9.097   0.759
 7379ION    NA+11443   8.660   7.046   2.948
 7380ION    NA+11444   3.731   1.661   3.040
 7381ION    NA+11445   6.124   6.949   8.648
 7382ION    NA+11446   6.575   0.712   0.776
 7383ION    NA+11447   8.450   6.854   0.227
 7384ION    NA+11448   7.067   6.439  11.693
 7385ION    NA+11449   1.476   4.547   8.939
 7386ION    NA+11450   1.664   0.357  10.356
 7387ION    NA+11451   2.985   3.960   0.301
 7388ION    NA+11452   2.089   0.187  11.640
 7389ION    NA+11453   3.862  10.105   0.465
 7390ION    CL-11454   5.830   5.576   2.657
 7391ION    CL-11455   8.165   9.872   1.358
 7392ION    CL-11456   6.207   0.539   0.585
 7393ION    CL-11457   6.572   1.703  10.772
 7394ION    CL-11458   7.455   7.271   9.428
 7395ION    CL-11459  10.165   8.345   0.945
 7396ION    CL-11460   4.081   5.270   9.426
 7397ION    CL-11461   1.571   7.671   2.352
 7398ION    CL-11462   1.921   5.501  10.025
 7399ION    CL-11463   9.400   7.714   3.390
 7400ION    CL-11464   5.541   2.630  11.366
 7401ION    CL-11465   3.000   9.934   8.436
 7402ION    CL-11466   4.117   6.385  10.080
 7403ION    CL-11467   2.320   3.931   2.992
 7404ION    CL-11468   1.202   8.681   0.578
 7405ION    CL-11469  10.466   5.168   9.590
 7406ION    CL-11470   9.183   9.496   2.519
 7407ION    CL-11471   2.134   8.440   3.454
 7408ION    CL-11472  10.240   7.904   0.050
 7409ION    CL-11473   0.281   1.593   0.225
 7410ION    CL-11474   7.810   7.435   1.463
 7411ION    CL-11475   7.709   8.335   9.329
 7412ION    CL-11476   2.908   2.915  11.686
 7413ION    CL-11477   4.247   5.262   0.090
 7414ION    CL-11478   0.636   8.811   9.057
 7415ION    CL-11479   2.070   6.490   1.592
 7416ION    CL-11480   7.897   6.408   9.101
 7417ION    CL-11481   7.353   6.787  11.768
 7418ION    CL-11482   5.529   7.392  11.354
 7419ION    CL-11483   2.777   2.283   3.429
 7420ION    CL-11484   0.976   4.782  11.752
 7421ION    CL-11485   0.288   3.936   0.866
 7422ION    CL-11486   8.633   6.590   2.976
 7423ION    CL-11487   1.055   8.489  11.207
 7424ION    CL-11488  10.200  10.002  11.728
 7425ION    CL-11489   7.258   6.264   1.361
 7426ION    CL-11490   9.729   6.116   3.623
 7427ION    CL-11491   3.904   1.922   1.189
 7428ION    CL-11492   2.902   3.160   2.965
 7429ION    CL-11493   6.236   4.752   9.066
 7430ION    CL-11494   4.480   1.669  11.825
 7431ION    CL-11495   1.909   0.587  11.734
 7432ION    CL-11496   7.858   2.154  10.988
 7433ION    CL-11497   9.837   8.020   9.551
 7434ION    CL-11498   9.702   9.606  11.073
 7435ION    CL-11499   6.503   9.277   2.858
 7436ION    CL-11500  10.067   2.210  11.710
 7437ION    CL-11501   3.413   3.870   0.432
 7438ION    CL-11502   2.276   3.700   2.020
 7439ION    CL-11503   8.856   7.930  11.626
 7440ION    CL-11504   3.689   1.446   2.646
 7441ION    CL-11505  10.375   3.750  10.818
 7442ION    CL-11506   7.349   8.165   1.332
 7443ION    CL-11507   6.752   1.266   9.424
 7444ION    CL-11508   4.140   4.793   1.788
 7445ION    CL-11509   9.358   6.053   1.699
 7446ION    CL-11510   0.235   8.161  11.095
 7447ION    CL-11511   6.326   6.620   1.294
 7448ION    CL-11512   8.651   0.928   9.869
 7449ION    CL-11513   8.813   3.102  11.504
 7450ION    CL-11514   9.375   0.788  11.400
 7451ION    CL-11515   4.782   8.422   9.345
 7452ION    CL-11516   0.047   0.337   0.185
 7453ION    CL-11517   5.090   4.488  11.979
 7454ION    CL-11518   3.806  10.014   9.100
 7455ION    CL-11519   1.297   4.273   2.366
 7456ION    CL-11520   8.142   7.064  11.967
 7457ION    CL-11521   8.861   1.887   3.081
 7458ION    CL-11522   3.265   7.590  10.747
 7459ION    CL-11523   9.565   6.675  10.252
 7460ION    CL-11524   4.453   8.901   0.151
 7461ION    CL-11525   7.715   5.914   2.179
 7462ION    CL-11526   1.480   4.214  10.537
 7463ION    CL-11527   0.799   6.542   2.411
 7464ION    CL-11528   8.367   5.552   8.883
 7465ION    CL-11529  10.166   4.102   8.756
 7466ION    CL-11530   5.078   3.720  11.524
  10.50000  10.50000  12.00000
