Protein in INSANE! Membrane UpperLeaflet>POPC=1.0 LowerLeaflet>POPC=1.0
12676
    1AU     AUC    1   5.751   5.859   6.004
    1AU     AUC    2   6.013   5.863   5.847
    1AU     AUC    3   6.003   5.851   6.156
    1AU     AUC    4   5.499   5.865   5.837
    1AU     AUC    5   5.491   5.876   6.152
    1AU     AUC    6   5.600   6.111   6.007
    1AU     AUC    7   5.914   6.109   5.996
    1AU     AUC    8   5.611   5.596   6.005
    1AU     AUC    9   5.893   5.605   6.019
    1AU     AUC   10   5.746   5.707   6.266
    1AU     AUC   11   5.748   6.030   6.261
    1AU     AUC   12   5.749   5.699   5.749
    1AU     AUC   13   5.738   6.006   5.736
    1AU     AUC   14   6.264   5.860   5.682
    1AU     AUC   15   6.268   5.865   5.992
    1AU     AUC   16   6.260   5.849   6.302
    1AU     AUC   17   5.233   5.847   5.706
    1AU     AUC   18   5.226   5.838   6.010
    1AU     AUC   19   5.240   5.883   6.313
    1AU     AUC   20   5.449   6.368   6.009
    1AU     AUC   21   5.767   6.377   6.006
    1AU     AUC   22   6.061   6.373   5.997
    1AU     AUC   23   5.438   5.348   6.010
    1AU     AUC   24   5.745   5.336   6.001
    1AU     AUC   25   6.051   5.339   6.022
    1AU     AUC   26   5.745   5.554   6.525
    1AU     AUC   27   5.743   5.865   6.533
    1AU     AUC   28   5.747   6.170   6.520
    1AU     AUC   29   5.745   5.537   5.508
    1AU     AUC   30   5.740   5.864   5.482
    1AU     AUC   31   5.734   6.164   5.478
    1AU     AUC   32   6.016   5.716   6.434
    1AU     AUC   33   6.007   6.005   6.431
    1AU     AUC   34   6.025   5.700   5.587
    1AU     AUC   35   6.029   6.001   5.579
    1AU     AUC   36   5.484   5.712   6.432
    1AU     AUC   37   5.491   6.032   6.435
    1AU     AUC   38   5.501   5.699   5.573
    1AU     AUC   39   5.486   6.027   5.587
    1AU     AUC   40   6.167   6.126   5.830
    1AU     AUC   41   6.183   6.101   6.146
    1AU     AUC   42   5.322   6.096   5.858
    1AU     AUC   43   5.332   6.131   6.157
    1AU     AUC   44   6.165   5.598   5.851
    1AU     AUC   45   6.167   5.603   6.174
    1AU     AUC   46   5.327   5.604   5.843
    1AU     AUC   47   5.350   5.597   6.180
    1AU     AUC   48   5.595   6.268   6.273
    1AU     AUC   49   5.917   6.280   6.247
    1AU     AUC   50   5.594   5.428   6.255
    1AU     AUC   51   5.899   5.444   6.286
    1AU     AUC   52   5.599   6.275   5.733
    1AU     AUC   53   5.900   6.266   5.723
    1AU     AUC   54   5.576   5.447   5.740
    1AU     AUC   55   5.905   5.440   5.758
    1AU    AUSL   56   6.108   5.841   6.648
    1AU    AUSL   57   6.073   5.410   6.646
    1AU     AUL   58   6.357   5.630   6.890
    1AU       S   59   6.382   5.191   6.708
    1AU     LIG   60   6.289   4.948   7.013
    1AU     LIG   61   6.396   4.557   7.202
    1AU     LIG   62   6.601   4.210   7.431
    1AU     LIG   63   6.656   3.933   7.819
    1AU     LIG   64   6.719   3.763   8.266
    1AU     LIG   65   6.924   3.591   8.653
    1AU       S   66   6.096   5.893   7.164
    1AU     LIG   67   6.431   5.750   7.405
    1AU     LIG   68   6.609   5.529   7.776
    1AU     LIG   69   6.928   5.533   8.120
    1AU     LIG   70   7.296   5.531   8.412
    1AU     LIG   71   7.640   5.603   8.718
    1AU     LIG   72   7.902   5.600   9.098
    1AU    AUSL   73   5.817   5.637   6.864
    1AU    AUSL   74   5.605   5.985   6.824
    1AU     AUL   75   5.649   5.983   7.204
    1AU       S   76   5.916   5.659   7.042
    1AU     LIG   77   6.119   5.346   7.294
    1AU     LIG   78   6.239   5.148   7.738
    1AU     LIG   79   6.257   4.948   8.208
    1AU     LIG   80   6.268   4.755   8.674
    1AU     LIG   81   6.426   4.661   9.127
    1AU     LIG   82   6.556   4.832   9.553
    1AU       S   83   5.328   5.677   7.104
    1AU     LIG   84   5.233   5.620   7.606
    1AU     LIG   85   5.037   5.574   8.038
    1AU     LIG   86   5.015   5.738   8.487
    1AU     LIG   87   5.104   6.015   8.879
    1AU     LIG   88   4.975   6.261   9.267
    1AU     LIG   89   4.696   6.450   9.609
    1AU    AUSL   90   5.947   6.192   6.805
    1AU    AUSL   91   6.408   6.053   6.471
    1AU     AUL   92   6.296   6.119   6.819
    1AU       S   93   5.924   6.293   7.011
    1AU     LIG   94   6.320   6.336   7.284
    1AU     LIG   95   6.473   6.461   7.731
    1AU     LIG   96   6.468   6.635   8.194
    1AU     LIG   97   6.518   6.778   8.674
    1AU     LIG   98   6.637   6.847   9.149
    1AU     LIG   99   6.590   6.823   9.628
    1AU       S  100   6.719   5.983   6.661
    1AU     LIG  101   6.906   6.237   7.029
    1AU     LIG  102   7.202   6.477   7.335
    1AU     LIG  103   7.511   6.705   7.627
    1AU     LIG  104   7.887   6.721   7.941
    1AU     LIG  105   8.304   6.812   8.188
    1AU     LIG  106   8.636   7.075   8.414
    1AU    AUSL  107   6.283   5.910   5.373
    1AU    AUSL  108   6.082   6.276   5.333
    1AU     AUL  109   6.021   6.276   5.072
    1AU       S  110   6.326   5.955   4.964
    1AU     LIG  111   6.649   5.772   4.767
    1AU     LIG  112   6.695   5.529   4.393
    1AU     LIG  113   6.827   5.447   3.949
    1AU     LIG  114   7.212   5.504   3.661
    1AU     LIG  115   7.586   5.662   3.396
    1AU     LIG  116   7.734   5.722   2.944
    1AU       S  117   6.467   6.386   5.164
    1AU     LIG  118   6.582   6.717   4.903
    1AU     LIG  119   6.850   6.764   4.527
    1AU     LIG  120   7.151   6.843   4.182
    1AU     LIG  121   7.295   7.131   3.844
    1AU     LIG  122   7.510   7.515   3.693
    1AU     LIG  123   7.520   7.977   3.555
    1AU    AUSL  124   6.034   5.613   5.210
    1AU    AUSL  125   6.372   5.537   5.510
    1AU     AUL  126   6.505   5.665   5.264
    1AU       S  127   6.389   5.214   5.296
    1AU     LIG  128   6.567   4.954   4.938
    1AU     LIG  129   6.822   4.583   4.785
    1AU     LIG  130   7.085   4.345   4.456
    1AU     LIG  131   7.483   4.393   4.174
    1AU     LIG  132   7.847   4.483   3.868
    1AU     LIG  133   8.204   4.292   3.615
    1AU       S  134   6.168   5.703   4.943
    1AU     LIG  135   6.309   5.361   4.744
    1AU     LIG  136   6.330   5.185   4.301
    1AU     LIG  137   6.398   5.153   3.822
    1AU     LIG  138   6.393   5.112   3.330
    1AU     LIG  139   6.400   5.047   2.835
    1AU     LIG  140   6.628   5.012   2.395
    1AU    AUSL  141   5.882   5.938   5.420
    1AU    AUSL  142   5.629   5.686   5.217
    1AU     AUL  143   5.790   5.473   5.072
    1AU       S  144   5.582   5.820   4.835
    1AU     LIG  145   5.473   5.504   4.542
    1AU     LIG  146   5.257   5.274   4.170
    1AU     LIG  147   5.071   5.009   3.795
    1AU     LIG  148   4.988   4.821   3.345
    1AU     LIG  149   4.817   4.905   2.895
    1AU     LIG  150   4.673   5.126   2.478
    1AU       S  151   6.051   5.838   4.974
    1AU     LIG  152   6.194   5.790   4.468
    1AU     LIG  153   6.338   5.637   4.034
    1AU     LIG  154   6.475   5.599   3.576
    1AU     LIG  155   6.525   5.799   3.152
    1AU     LIG  156   6.720   6.164   2.915
    1AU     LIG  157   6.829   6.375   2.509
    1AU    AUSL  158   5.265   5.869   6.640
    1AU    AUSL  159   5.452   6.311   6.646
    1AU     AUL  160   5.321   6.128   6.904
    1AU       S  161   5.141   5.782   7.153
    1AU     LIG  162   4.863   5.473   7.259
    1AU     LIG  163   4.737   5.322   7.691
    1AU     LIG  164   4.550   5.322   8.148
    1AU     LIG  165   4.220   5.303   8.526
    1AU     LIG  166   4.002   5.456   8.943
    1AU     LIG  167   3.645   5.719   9.167
    1AU       S  168   5.110   6.522   6.835
    1AU     LIG  169   5.076   6.565   7.283
    1AU     LIG  170   4.963   6.824   7.672
    1AU     LIG  171   4.821   6.943   8.110
    1AU     LIG  172   4.767   7.263   8.455
    1AU     LIG  173   4.567   7.633   8.687
    1AU     LIG  174   4.324   8.048   8.758
    1AU    AUSL  175   5.626   5.711   6.516
    1AU    AUSL  176   5.059   5.567   6.456
    1AU     AUL  177   5.093   5.729   6.705
    1AU       S  178   4.846   5.335   6.698
    1AU     LIG  179   4.468   5.104   6.627
    1AU     LIG  180   4.065   4.879   6.676
    1AU     LIG  181   3.861   4.627   7.021
    1AU     LIG  182   3.708   4.352   7.370
    1AU     LIG  183   3.444   4.163   7.704
    1AU     LIG  184   3.144   4.271   8.063
    1AU       S  185   5.413   5.598   7.093
    1AU     LIG  186   5.296   5.205   7.315
    1AU     LIG  187   5.204   5.125   7.776
    1AU     LIG  188   5.009   5.080   8.207
    1AU     LIG  189   4.858   4.881   8.617
    1AU     LIG  190   4.850   4.742   9.074
    1AU     LIG  191   4.751   4.919   9.491
    1AU    AUSL  192   5.285   5.869   5.348
    1AU    AUSL  193   5.430   5.400   5.417
    1AU     AUL  194   5.309   5.559   5.117
    1AU       S  195   5.298   5.955   4.869
    1AU     LIG  196   5.026   5.749   4.545
    1AU     LIG  197   4.814   5.534   4.156
    1AU     LIG  198   4.598   5.264   3.807
    1AU     LIG  199   4.254   5.128   3.479
    1AU     LIG  200   3.965   5.208   3.097
    1AU     LIG  201   3.816   5.537   2.772
    1AU       S  202   5.034   5.189   5.285
    1AU     LIG  203   4.736   4.804   5.241
    1AU     LIG  204   4.410   4.525   5.058
    1AU     LIG  205   4.186   4.277   4.716
    1AU     LIG  206   4.233   4.082   4.266
    1AU     LIG  207   4.312   3.785   3.878
    1AU     LIG  208   4.149   3.440   3.573
    1AU    AUSL  209   5.594   6.112   5.208
    1AU    AUSL  210   5.303   6.110   5.674
    1AU     AUL  211   5.119   6.064   5.285
    1AU       S  212   4.974   6.508   5.271
    1AU     LIG  213   4.645   6.566   4.957
    1AU     LIG  214   4.528   6.682   4.515
    1AU     LIG  215   4.433   6.854   4.081
    1AU     LIG  216   4.117   7.006   3.764
    1AU     LIG  217   3.669   7.136   3.735
    1AU     LIG  218   3.438   7.518   3.601
    1AU       S  219   5.582   6.029   4.990
    1AU     LIG  220   5.484   6.057   4.431
    1AU     LIG  221   5.264   5.804   4.086
    1AU     LIG  222   5.073   5.842   3.645
    1AU     LIG  223   5.099   6.065   3.206
    1AU     LIG  224   5.126   6.214   2.737
    1AU     LIG  225   4.945   6.288   2.293
    1AU    AUSL  226   6.359   6.475   5.938
    1AU    AUSL  227   6.408   6.225   5.601
    1AU     AUL  228   6.498   6.677   5.717
    1AU       S  229   6.652   6.202   5.338
    1AU     LIG  230   6.913   6.310   4.954
    1AU     LIG  231   7.245   6.466   4.665
    1AU     LIG  232   7.545   6.525   4.325
    1AU     LIG  233   7.963   6.572   4.128
    1AU     LIG  234   8.308   6.857   3.993
    1AU     LIG  235   8.479   7.039   3.586
    1AU       S  236   6.807   6.360   5.880
    1AU     LIG  237   7.256   6.439   6.084
    1AU     LIG  238   7.765   6.487   6.054
    1AU     LIG  239   8.262   6.587   6.017
    1AU     LIG  240   8.659   6.920   6.013
    1AU     LIG  241   8.985   7.318   6.016
    1AU     LIG  242   9.216   7.730   6.173
    1AU    AUSL  243   6.590   5.897   5.740
    1AU    AUSL  244   6.595   5.742   6.144
    1AU     AUL  245   6.885   5.692   5.919
    1AU       S  246   6.827   6.136   5.809
    1AU     LIG  247   7.292   6.021   5.800
    1AU     LIG  248   7.793   6.061   5.760
    1AU     LIG  249   8.284   6.139   5.713
    1AU     LIG  250   8.770   6.079   5.672
    1AU     LIG  251   9.209   6.285   5.655
    1AU     LIG  252   9.574   6.594   5.490
    1AU       S  253   6.884   5.267   6.129
    1AU     LIG  254   7.230   5.040   6.304
    1AU     LIG  255   7.654   4.828   6.289
    1AU     LIG  256   8.071   4.612   6.266
    1AU     LIG  257   8.492   4.429   6.223
    1AU     LIG  258   8.864   4.341   6.466
    1AU     LIG  259   9.187   4.428   6.807
    1AU    AUSL  260   6.386   6.084   6.066
    1AU    AUSL  261   6.293   6.427   6.339
    1AU     AUL  262   6.508   6.460   6.224
    1AU       S  263   6.698   6.206   6.547
    1AU     LIG  264   6.999   6.487   6.569
    1AU     LIG  265   7.097   6.780   6.934
    1AU     LIG  266   7.339   7.088   7.235
    1AU     LIG  267   7.573   7.543   7.257
    1AU     LIG  268   7.835   7.960   7.348
    1AU     LIG  269   8.065   8.351   7.523
    1AU       S  270   6.807   6.161   6.057
    1AU     LIG  271   7.112   5.986   6.296
    1AU     LIG  272   7.600   6.032   6.245
    1AU     LIG  273   8.103   6.098   6.191
    1AU     LIG  274   8.600   6.183   6.147
    1AU     LIG  275   9.088   6.303   6.167
    1AU     LIG  276   9.435   6.570   6.391
    1AU    AUSL  277   5.099   6.263   6.023
    1AU    AUSL  278   5.120   6.185   6.433
    1AU     AUL  279   5.025   6.565   6.228
    1AU       S  280   4.956   6.258   6.611
    1AU     LIG  281   4.683   6.331   7.017
    1AU     LIG  282   4.567   6.610   7.418
    1AU     LIG  283   4.397   6.723   7.880
    1AU     LIG  284   4.048   6.815   8.242
    1AU     LIG  285   3.608   7.021   8.383
    1AU     LIG  286   3.218   7.271   8.544
    1AU       S  287   4.673   6.325   6.057
    1AU     LIG  288   4.560   6.790   6.169
    1AU     LIG  289   4.327   7.254   6.135
    1AU     LIG  290   4.003   7.640   6.157
    1AU     LIG  291   3.552   7.859   6.095
    1AU     LIG  292   3.118   8.112   6.115
    1AU     LIG  293   2.717   8.146   6.414
    1AU    AUSL  294   4.938   5.977   5.756
    1AU    AUSL  295   5.260   6.542   5.782
    1AU     AUL  296   4.978   6.326   5.689
    1AU       S  297   4.547   6.241   5.845
    1AU     LIG  298   4.504   6.579   5.485
    1AU     LIG  299   4.126   6.860   5.293
    1AU     LIG  300   3.611   6.908   5.269
    1AU     LIG  301   3.094   6.928   5.240
    1AU     LIG  302   2.602   6.791   5.223
    1AU     LIG  303   2.137   6.945   5.121
    1AU       S  304   5.044   6.747   5.477
    1AU     LIG  305   4.951   6.966   5.049
    1AU     LIG  306   4.813   7.284   4.728
    1AU     LIG  307   4.551   7.665   4.789
    1AU     LIG  308   4.443   8.078   4.586
    1AU     LIG  309   4.168   8.396   4.388
    1AU     LIG  310   3.819   8.711   4.330
    1AU    AUSL  311   4.905   5.936   6.196
    1AU    AUSL  312   4.981   5.612   5.946
    1AU     AUL  313   4.689   5.802   5.826
    1AU       S  314   4.630   5.506   6.217
    1AU     LIG  315   4.170   5.425   6.355
    1AU     LIG  316   3.679   5.410   6.356
    1AU     LIG  317   3.300   5.124   6.294
    1AU     LIG  318   2.916   5.059   5.947
    1AU     LIG  319   2.415   5.066   5.853
    1AU     LIG  320   1.987   4.936   5.639
    1AU       S  321   4.691   6.046   6.241
    1AU     LIG  322   4.487   6.400   6.521
    1AU     LIG  323   4.065   6.594   6.672
    1AU     LIG  324   3.573   6.687   6.726
    1AU     LIG  325   3.086   6.795   6.745
    1AU     LIG  326   2.677   7.038   6.818
    1AU     LIG  327   2.230   6.890   6.830
    1AU    AUSL  328   6.430   5.352   6.083
    1AU    AUSL  329   6.372   5.603   6.444
    1AU     AUL  330   6.702   5.587   6.401
    1AU       S  331   6.565   5.071   6.053
    1AU     LIG  332   6.803   4.747   6.247
    1AU     LIG  333   7.228   4.549   6.142
    1AU     LIG  334   7.669   4.369   6.027
    1AU     LIG  335   8.116   4.173   5.974
    1AU     LIG  336   8.484   3.910   6.161
    1AU     LIG  337   8.853   3.825   6.497
    1AU       S  338   6.385   5.285   6.557
    1AU     LIG  339   6.823   5.005   6.689
    1AU     LIG  340   6.888   4.651   7.031
    1AU     LIG  341   7.098   4.380   7.396
    1AU     LIG  342   7.432   4.269   7.756
    1AU     LIG  343   7.781   4.265   8.120
    1AU     LIG  344   8.208   4.242   8.371
    1AU    AUSL  345   6.286   5.679   5.878
    1AU    AUSL  346   6.222   5.227   5.751
    1AU     AUL  347   6.566   5.421   5.709
    1AU       S  348   6.608   5.235   6.112
    1AU     LIG  349   7.005   4.935   5.813
    1AU     LIG  350   7.504   4.823   5.795
    1AU     LIG  351   7.993   4.677   5.765
    1AU     LIG  352   8.442   4.484   5.700
    1AU     LIG  353   8.847   4.449   5.467
    1AU     LIG  354   9.222   4.706   5.540
    1AU       S  355   6.443   5.024   5.479
    1AU     LIG  356   6.540   4.587   5.292
    1AU     LIG  357   6.665   4.172   5.067
    1AU     LIG  358   6.863   3.776   4.856
    1AU     LIG  359   7.095   3.324   4.868
    1AU     LIG  360   7.512   3.086   4.765
    1AU     LIG  361   7.985   3.103   4.631
    1AU    AUSL  362   5.122   5.229   6.001
    1AU    AUSL  363   5.092   5.590   5.562
    1AU     AUL  364   4.873   5.368   5.781
    1AU       S  365   4.920   5.424   5.332
    1AU     LIG  366   4.513   5.229   5.431
    1AU     LIG  367   4.201   4.992   5.177
    1AU     LIG  368   3.957   4.725   4.888
    1AU     LIG  369   3.704   4.450   4.615
    1AU     LIG  370   3.377   4.415   4.272
    1AU     LIG  371   3.141   4.410   3.853
    1AU       S  372   4.647   5.283   6.167
    1AU     LIG  373   4.343   4.988   6.112
    1AU     LIG  374   3.907   4.987   6.195
    1AU     LIG  375   3.574   4.697   6.296
    1AU     LIG  376   3.110   4.640   6.190
    1AU     LIG  377   2.706   4.380   6.108
    1AU     LIG  378   2.502   4.002   5.912
    1AU    AUSL  379   5.271   5.766   6.181
    1AU    AUSL  380   5.374   5.369   6.290
    1AU     AUL  381   5.080   5.279   6.294
    1AU       S  382   5.028   5.143   6.719
    1AU     LIG  383   4.848   4.854   6.401
    1AU     LIG  384   4.450   4.606   6.456
    1AU     LIG  385   4.137   4.342   6.702
    1AU     LIG  386   3.851   4.053   6.979
    1AU     LIG  387   3.635   3.727   7.278
    1AU     LIG  388   3.510   3.252   7.361
    1AU       S  389   4.697   5.521   6.188
    1AU     LIG  390   4.282   5.438   5.858
    1AU     LIG  391   3.776   5.351   5.845
    1AU     LIG  392   3.279   5.461   5.932
    1AU     LIG  393   2.899   5.422   6.287
    1AU     LIG  394   2.404   5.354   6.306
    1AU     LIG  395   1.967   5.244   6.495
    1AU    AUSL  396   5.776   6.520   6.520
    1AU    AUSL  397   5.432   6.369   6.244
    1AU     AUL  398   5.451   6.643   6.540
    1AU       S  399   5.030   6.551   6.692
    1AU     LIG  400   4.758   6.845   6.975
    1AU     LIG  401   4.761   7.167   7.324
    1AU     LIG  402   4.645   7.627   7.436
    1AU     LIG  403   4.587   8.118   7.433
    1AU     LIG  404   4.271   8.473   7.504
    1AU     LIG  405   3.831   8.582   7.655
    1AU       S  406   5.855   6.880   6.520
    1AU     LIG  407   6.061   7.025   6.873
    1AU     LIG  408   6.090   7.473   7.035
    1AU     LIG  409   6.075   7.856   7.327
    1AU     LIG  410   6.062   8.142   7.729
    1AU     LIG  411   5.928   8.479   8.056
    1AU     LIG  412   5.869   8.930   8.210
    1AU    AUSL  413   5.580   6.715   6.115
    1AU    AUSL  414   5.960   6.692   5.792
    1AU     AUL  415   5.632   6.993   5.931
    1AU       S  416   5.787   6.975   6.360
    1AU     LIG  417   5.778   7.387   6.613
    1AU     LIG  418   5.763   7.832   6.787
    1AU     LIG  419   5.515   8.251   6.819
    1AU     LIG  420   5.396   8.720   6.891
    1AU     LIG  421   5.338   9.192   7.017
    1AU     LIG  422   5.175   9.625   7.119
    1AU       S  423   6.061   6.934   5.732
    1AU     LIG  424   6.396   7.184   5.516
    1AU     LIG  425   6.478   7.643   5.317
    1AU     LIG  426   6.748   8.088   5.254
    1AU     LIG  427   6.843   8.583   5.226
    1AU     LIG  428   6.871   9.070   5.205
    1AU     LIG  429   6.851   9.540   5.104
    1AU    AUSL  430   5.947   6.520   6.153
    1AU    AUSL  431   5.985   6.180   6.413
    1AU     AUL  432   6.140   6.525   6.566
    1AU       S  433   6.608   6.090   6.496
    1AU     LIG  434   6.551   6.544   6.846
    1AU     LIG  435   6.722   6.676   7.286
    1AU     LIG  436   7.010   6.865   7.639
    1AU     LIG  437   7.180   7.076   8.060
    1AU     LIG  438   7.258   7.385   8.448
    1AU     LIG  439   7.390   7.779   8.696
    1AU       S  440   6.040   6.849   6.234
    1AU     LIG  441   6.241   7.245   6.442
    1AU     LIG  442   6.356   7.700   6.636
    1AU     LIG  443   6.664   8.120   6.682
    1AU     LIG  444   6.829   8.603   6.728
    1AU     LIG  445   6.670   9.059   6.728
    1AU     LIG  446   6.714   9.519   6.875
    1AU    AUSL  447   5.745   5.250   6.461
    1AU    AUSL  448   6.064   5.419   6.235
    1AU     AUL  449   5.923   5.153   6.677
    1AU       S  450   5.753   4.739   6.500
    1AU     LIG  451   5.530   4.354   6.639
    1AU     LIG  452   5.309   3.949   6.731
    1AU     LIG  453   5.299   3.520   6.912
    1AU     LIG  454   5.342   3.221   7.282
    1AU     LIG  455   5.396   3.028   7.723
    1AU     LIG  456   5.550   2.722   8.060
    1AU       S  457   6.351   5.064   6.482
    1AU     LIG  458   6.458   4.634   6.645
    1AU     LIG  459   6.629   4.235   6.875
    1AU     LIG  460   6.935   3.955   7.123
    1AU     LIG  461   7.235   3.592   7.258
    1AU     LIG  462   7.543   3.224   7.354
    1AU     LIG  463   7.957   2.979   7.394
    1AU    AUSL  464   5.571   5.045   6.148
    1AU    AUSL  465   5.437   5.408   6.692
    1AU     AUL  466   5.451   5.084   6.523
    1AU       S  467   5.509   4.711   6.266
    1AU     LIG  468   5.281   4.311   6.190
    1AU     LIG  469   5.111   3.875   6.262
    1AU     LIG  470   5.001   3.469   6.480
    1AU     LIG  471   4.753   3.053   6.531
    1AU     LIG  472   4.626   2.667   6.772
    1AU     LIG  473   4.664   2.220   6.859
    1AU       S  474   5.160   5.276   6.824
    1AU     LIG  475   4.767   5.002   7.090
    1AU     LIG  476   4.419   4.683   7.005
    1AU     LIG  477   4.220   4.310   7.227
    1AU     LIG  478   4.031   3.973   7.512
    1AU     LIG  479   4.025   3.702   7.912
    1AU     LIG  480   4.038   3.623   8.384
    1AU    AUSL  481   6.004   5.029   6.178
    1AU    AUSL  482   5.485   5.065   5.747
    1AU     AUL  483   5.821   4.786   5.938
    1AU       S  484   5.327   4.822   5.790
    1AU     LIG  485   5.045   4.481   5.759
    1AU     LIG  486   5.101   4.015   5.763
    1AU     LIG  487   5.094   3.567   5.562
    1AU     LIG  488   4.858   3.126   5.451
    1AU     LIG  489   4.656   2.704   5.265
    1AU     LIG  490   4.618   2.254   5.112
    1AU       S  491   5.895   4.791   6.381
    1AU     LIG  492   5.821   4.330   6.203
    1AU     LIG  493   5.624   3.915   6.320
    1AU     LIG  494   5.641   3.459   6.502
    1AU     LIG  495   5.910   3.024   6.529
    1AU     LIG  496   6.065   2.593   6.702
    1AU     LIG  497   6.244   2.242   6.958
    1AU    AUSL  498   5.780   6.497   5.469
    1AU    AUSL  499   6.049   6.292   5.757
    1AU     AUL  500   6.131   6.564   5.460
    1AU       S  501   5.822   6.877   5.327
    1AU     LIG  502   6.173   7.018   5.088
    1AU     LIG  503   6.212   7.457   4.890
    1AU     LIG  504   6.104   7.767   4.523
    1AU     LIG  505   6.056   8.097   4.164
    1AU     LIG  506   6.017   8.533   3.962
    1AU     LIG  507   6.046   8.874   3.625
    1AU       S  508   6.529   6.302   5.460
    1AU     LIG  509   6.852   6.656   5.356
    1AU     LIG  510   7.085   6.839   4.989
    1AU     LIG  511   7.359   7.127   4.721
    1AU     LIG  512   7.606   7.561   4.701
    1AU     LIG  513   7.800   7.998   4.589
    1AU     LIG  514   7.838   8.399   4.320
    1AU    AUSL  515   5.635   6.418   5.843
    1AU    AUSL  516   5.400   6.394   5.418
    1AU     AUL  517   5.495   6.699   5.605
    1AU       S  518   5.900   6.948   5.568
    1AU     LIG  519   5.957   7.399   5.367
    1AU     LIG  520   5.974   7.858   5.169
    1AU     LIG  521   5.797   8.332   5.082
    1AU     LIG  522   5.483   8.738   4.994
    1AU     LIG  523   5.417   9.228   4.856
    1AU     LIG  524   4.968   9.408   4.769
    1AU       S  525   5.260   6.523   5.235
    1AU     LIG  526   5.142   6.563   4.777
    1AU     LIG  527   4.991   6.866   4.416
    1AU     LIG  528   4.918   6.989   3.943
    1AU     LIG  529   4.909   7.338   3.606
    1AU     LIG  530   4.600   7.668   3.447
    1AU     LIG  531   4.274   7.914   3.180
    1AU    AUSL  532   5.784   5.189   5.459
    1AU    AUSL  533   5.400   5.450   5.817
    1AU     AUL  534   5.494   5.176   5.369
    1AU       S  535   5.061   5.093   5.489
    1AU     LIG  536   4.727   4.891   5.754
    1AU     LIG  537   4.317   4.692   5.573
    1AU     LIG  538   3.974   4.420   5.306
    1AU     LIG  539   3.742   4.089   5.009
    1AU     LIG  540   3.458   3.672   4.913
    1AU     LIG  541   3.268   3.341   4.621
    1AU       S  542   5.600   4.766   5.522
    1AU     LIG  543   5.295   4.522   5.318
    1AU     LIG  544   5.234   4.056   5.269
    1AU     LIG  545   5.366   3.623   5.117
    1AU     LIG  546   5.376   3.311   4.744
    1AU     LIG  547   5.358   3.131   4.288
    1AU     LIG  548   5.492   2.829   3.947
    1AU    AUSL  549   5.836   5.235   5.873
    1AU    AUSL  550   5.963   5.520   5.590
    1AU     AUL  551   5.996   5.035   5.600
    1AU       S  552   5.449   4.867   5.704
    1AU     LIG  553   5.539   4.337   5.751
    1AU     LIG  554   5.566   3.851   5.612
    1AU     LIG  555   5.685   3.389   5.477
    1AU     LIG  556   6.008   3.001   5.434
    1AU     LIG  557   6.279   2.611   5.324
    1AU     LIG  558   6.493   2.216   5.130
    1AU       S  559   6.209   5.192   5.226
    1AU     LIG  560   6.096   4.794   5.114
    1AU     LIG  561   6.314   4.480   4.822
    1AU     LIG  562   6.584   4.178   4.549
    1AU     LIG  563   6.732   3.942   4.164
    1AU     LIG  564   6.922   3.725   3.790
    1AU     LIG  565   7.219   3.579   3.463
    2POPC   NC3  566   1.389   2.488   7.916
    2POPC   PO4  567   1.145   3.067   8.144
    2POPC   GL1  568   1.224   2.966   7.721
    2POPC   GL2  569   0.892   2.818   7.686
    2POPC   C1A  570   1.260   2.695   7.322
    2POPC   D2A  571   1.476   2.706   6.952
    2POPC   C3A  572   1.353   2.741   6.543
    2POPC   C4A  573   1.650   2.977   6.301
    2POPC   C1B  574   0.902   3.046   7.288
    2POPC   C2B  575   1.011   3.045   6.854
    2POPC   C3B  576   0.859   2.868   6.465
    2POPC   C4B  577   1.117   2.776   6.079
    3POPC   NC3  578   2.744   1.958   8.091
    3POPC   PO4  579   3.228   2.311   7.722
    3POPC   GL1  580   3.005   1.916   7.615
    3POPC   GL2  581   2.665   1.746   7.632
    3POPC   C1A  582   2.994   1.897   7.204
    3POPC   D2A  583   3.064   2.033   6.818
    3POPC   C3A  584   3.017   1.869   6.473
    3POPC   C4A  585   3.071   1.957   6.102
    3POPC   C1B  586   2.507   2.024   7.320
    3POPC   C2B  587   2.549   2.115   6.885
    3POPC   C3B  588   2.514   2.029   6.460
    3POPC   C4B  589   2.612   2.143   6.022
    4POPC   NC3  590   8.564   5.201   8.174
    4POPC   PO4  591   9.053   5.458   8.236
    4POPC   GL1  592   8.934   5.278   7.804
    4POPC   GL2  593   8.947   4.917   7.684
    4POPC   C1A  594   8.946   5.286   7.313
    4POPC   D2A  595   9.184   5.179   6.902
    4POPC   C3A  596   9.044   5.254   6.450
    4POPC   C4A  597   8.797   5.287   6.054
    4POPC   C1B  598   8.981   4.782   7.199
    4POPC   C2B  599   8.850   4.821   6.736
    4POPC   C3B  600   8.839   4.814   6.286
    4POPC   C4B  601   8.923   4.530   5.959
    5POPC   NC3  602   1.399   0.508   8.077
    5POPC   PO4  603   0.837   0.814   7.972
    5POPC   GL1  604   0.977   0.414   7.730
    5POPC   GL2  605   1.248   0.141   7.758
    5POPC   C1A  606   0.890   0.302   7.293
    5POPC   D2A  607   0.824   0.511   6.896
    5POPC   C3A  608   0.846   0.185   6.598
    5POPC   C4A  609   0.857  11.487   6.227
    5POPC   C1B  610   1.406   0.381   7.390
    5POPC   C2B  611   1.339   0.537   6.955
    5POPC   C3B  612   1.220   0.517   6.514
    5POPC   C4B  613   1.274   0.260   6.163
    6POPC   NC3  614   8.018   2.517   7.973
    6POPC   PO4  615   7.641   3.090   8.000
    6POPC   GL1  616   7.550   2.766   7.663
    6POPC   GL2  617   7.198   2.667   7.719
    6POPC   C1A  618   7.545   2.720   7.184
    6POPC   D2A  619   7.394   2.864   6.750
    6POPC   C3A  620   7.594   2.776   6.329
    6POPC   C4A  621   7.636   2.915   5.880
    6POPC   C1B  622   7.176   2.418   7.362
    6POPC   C2B  623   7.176   2.416   6.910
    6POPC   C3B  624   7.101   2.522   6.464
    6POPC   C4B  625   7.270   2.487   6.048
    7POPC   NC3  626   2.123   5.676   8.154
    7POPC   PO4  627   1.649   6.109   8.054
    7POPC   GL1  628   1.656   5.942   7.661
    7POPC   GL2  629   2.014   5.914   7.664
    7POPC   C1A  630   1.632   6.120   7.236
    7POPC   D2A  631   1.834   6.030   6.858
    7POPC   C3A  632   1.691   6.067   6.441
    7POPC   C4A  633   1.745   5.693   6.224
    7POPC   C1B  634   1.887   5.681   7.284
    7POPC   C2B  635   2.053   5.576   6.876
    7POPC   C3B  636   2.148   5.798   6.494
    7POPC   C4B  637   2.214   5.756   6.027
    8POPC   NC3  638   0.419   5.423   8.199
    8POPC   PO4  639   0.103   4.825   8.134
    8POPC   GL1  640   0.173   4.981   7.782
    8POPC   GL2  641   0.531   5.038   7.877
    8POPC   C1A  642   0.092   4.821   7.356
    8POPC   D2A  643   0.204   4.648   6.952
    8POPC   C3A  644   0.026   4.789   6.579
    8POPC   C4A  645   0.218   4.862   6.227
    8POPC   C1B  646   0.520   5.145   7.462
    8POPC   C2B  647   0.497   5.047   7.040
    8POPC   C3B  648   0.450   5.146   6.574
    8POPC   C4B  649   0.625   5.166   6.151
    9POPC   NC3  650  11.310   5.242   8.086
    9POPC   PO4  651  10.994   4.747   8.251
    9POPC   GL1  652  11.001   4.780   7.775
    9POPC   GL2  653  11.188   5.070   7.642
    9POPC   C1A  654  10.938   4.832   7.308
    9POPC   D2A  655  11.024   5.110   6.968
    9POPC   C3A  656  11.000   4.947   6.571
    9POPC   C4A  657  11.087   4.840   6.170
    9POPC   C1B  658  11.392   5.284   7.305
    9POPC   C2B  659   0.037   5.205   6.871
    9POPC   C3B  660  11.415   5.267   6.384
    9POPC   C4B  661  11.187   5.295   5.945
   10POPC   NC3  662  11.373   8.178   7.908
   10POPC   PO4  663  10.664   8.332   8.047
   10POPC   GL1  664  10.956   8.323   7.641
   10POPC   GL2  665  11.325   8.415   7.486
   10POPC   C1A  666  10.894   8.350   7.198
   10POPC   D2A  667  10.889   8.487   6.802
   10POPC   C3A  668  11.034   8.178   6.591
   10POPC   C4A  669  10.992   8.038   6.206
   10POPC   C1B  670  11.346   8.042   7.246
   10POPC   C2B  671  11.464   8.099   6.839
   10POPC   C3B  672  11.473   7.989   6.443
   10POPC   C4B  673  11.404   8.314   6.165
   11POPC   NC3  674   3.537   2.435   8.043
   11POPC   PO4  675   4.199   2.543   8.282
   11POPC   GL1  676   3.956   2.522   7.792
   11POPC   GL2  677   3.608   2.745   7.641
   11POPC   C1A  678   3.836   2.416   7.353
   11POPC   D2A  679   3.655   2.670   7.077
   11POPC   C3A  680   3.770   2.549   6.689
   11POPC   C4A  681   3.763   2.818   6.366
   11POPC   C1B  682   3.215   2.814   7.316
   11POPC   C2B  683   3.080   2.945   6.884
   11POPC   C3B  684   3.220   2.841   6.448
   11POPC   C4B  685   3.426   3.167   6.190
   12POPC   NC3  686   4.797   7.967   8.043
   12POPC   PO4  687   5.146   7.553   7.930
   12POPC   GL1  688   5.057   7.890   7.592
   12POPC   GL2  689   5.110   8.231   7.710
   12POPC   C1A  690   4.956   7.908   7.120
   12POPC   D2A  691   5.137   7.902   6.685
   12POPC   C3A  692   4.822   7.966   6.346
   12POPC   C4A  693   4.441   8.104   6.097
   12POPC   C1B  694   5.218   8.311   7.260
   12POPC   C2B  695   5.014   8.384   6.834
   12POPC   C3B  696   5.199   8.324   6.392
   12POPC   C4B  697   5.280   7.975   6.091
   13POPC   NC3  698   8.480   0.940   8.013
   13POPC   PO4  699   7.774   1.105   8.116
   13POPC   GL1  700   8.033   1.113   7.742
   13POPC   GL2  701   7.846   1.344   7.514
   13POPC   C1A  702   8.131   0.931   7.338
   13POPC   D2A  703   7.955   1.034   6.917
   13POPC   C3A  704   8.240   0.965   6.581
   13POPC   C4A  705   8.285   1.104   6.167
   13POPC   C1B  706   8.177   1.426   7.184
   13POPC   C2B  707   8.218   1.467   6.755
   13POPC   C3B  708   7.924   1.353   6.438
   13POPC   C4B  709   7.770   1.646   6.134
   14POPC   NC3  710   1.118   9.557   8.094
   14POPC   PO4  711   0.863  10.178   8.120
   14POPC   GL1  712   1.034   9.929   7.748
   14POPC   GL2  713   1.408   9.857   7.756
   14POPC   C1A  714   0.866   9.929   7.331
   14POPC   D2A  715   1.126   9.918   6.962
   14POPC   C3A  716   1.076   9.643   6.603
   14POPC   C4A  717   1.145   9.867   6.229
   14POPC   C1B  718   1.308   9.647   7.374
   14POPC   C2B  719   1.494   9.540   6.971
   14POPC   C3B  720   1.597   9.643   6.572
   14POPC   C4B  721   1.484   9.489   6.180
   15POPC   NC3  722   1.274  10.541   8.181
   15POPC   PO4  723   0.731  10.679   7.821
   15POPC   GL1  724   0.984  10.423   7.646
   15POPC   GL2  725   1.349  10.402   7.683
   15POPC   C1A  726   1.063  10.384   7.233
   15POPC   D2A  727   1.305  10.486   6.907
   15POPC   C3A  728   1.140  10.274   6.560
   15POPC   C4A  729   0.908  10.321   6.190
   15POPC   C1B  730   1.551  10.226   7.296
   15POPC   C2B  731   1.605  10.064   6.858
   15POPC   C3B  732   1.615  10.131   6.396
   15POPC   C4B  733   1.395  10.357   6.090
   16POPC   NC3  734   3.608   9.367   8.257
   16POPC   PO4  735   3.070   9.211   7.995
   16POPC   GL1  736   3.434   9.454   7.765
   16POPC   GL2  737   3.657   9.763   7.808
   16POPC   C1A  738   3.451   9.556   7.320
   16POPC   D2A  739   3.330   9.725   6.908
   16POPC   C3A  740   3.308   9.534   6.473
   16POPC   C4A  741   3.205   9.522   6.031
   16POPC   C1B  742   3.728   9.982   7.377
   16POPC   C2B  743   3.825   9.934   6.905
   16POPC   C3B  744   3.791   9.726   6.468
   16POPC   C4B  745   3.676   9.735   6.008
   17POPC   NC3  746  10.463   1.254   8.300
   17POPC   PO4  747  10.368   1.774   7.930
   17POPC   GL1  748  10.296   1.485   7.628
   17POPC   GL2  749  10.424   1.146   7.697
   17POPC   C1A  750  10.542   1.388   7.243
   17POPC   D2A  751  10.683   1.225   6.859
   17POPC   C3A  752  10.632   1.570   6.616
   17POPC   C4A  753  10.522   1.570   6.215
   17POPC   C1B  754  10.105   1.127   7.332
   17POPC   C2B  755  10.201   1.059   6.918
   17POPC   C3B  756  10.246   1.224   6.520
   17POPC   C4B  757  10.247   1.068   6.082
   18POPC   NC3  758   3.820  11.339   8.158
   18POPC   PO4  759   3.279   0.054   7.841
   18POPC   GL1  760   3.629  11.392   7.680
   18POPC   GL2  761   3.553  11.049   7.690
   18POPC   C1A  762   3.759  11.339   7.278
   18POPC   D2A  763   3.725  11.045   6.948
   18POPC   C3A  764   3.684  11.199   6.576
   18POPC   C4A  765   3.729   0.014   6.291
   18POPC   C1B  766   3.297  11.075   7.289
   18POPC   C2B  767   3.233  10.918   6.853
   18POPC   C3B  768   3.265  11.002   6.402
   18POPC   C4B  769   3.591  11.001   6.082
   19POPC   NC3  770  11.339   6.241   8.122
   19POPC   PO4  771  11.262   6.902   7.973
   19POPC   GL1  772  11.249   6.679   7.620
   19POPC   GL2  773  11.278   6.314   7.632
   19POPC   C1A  774  11.199   6.814   7.203
   19POPC   D2A  775  11.098   6.997   6.789
   19POPC   C3A  776  11.209   6.805   6.332
   19POPC   C4A  777  10.892   6.956   5.958
   19POPC   C1B  778  11.232   6.310   7.207
   19POPC   C2B  779  11.034   6.497   6.848
   19POPC   C3B  780  11.048   6.319   6.456
   19POPC   C4B  781  11.456   6.246   6.273
   20POPC   NC3  782  10.391   0.267   8.440
   20POPC   PO4  783  10.915   0.130   8.075
   20POPC   GL1  784  10.692   0.256   7.694
   20POPC   GL2  785  10.318   0.332   7.723
   20POPC   C1A  786  10.527   0.225   7.250
   20POPC   D2A  787  10.489  11.480   6.889
   20POPC   C3A  788  10.549   0.236   6.537
   20POPC   C4A  789  10.684   0.179   6.118
   20POPC   C1B  790  10.338   0.668   7.373
   20POPC   C2B  791  10.469   0.628   6.917
   20POPC   C3B  792  10.281   0.700   6.505
   20POPC   C4B  793  10.215   0.414   6.184
   21POPC   NC3  794   6.957   1.156   7.960
   21POPC   PO4  795   6.259   1.196   8.025
   21POPC   GL1  796   6.515   0.982   7.687
   21POPC   GL2  797   6.294   0.757   7.496
   21POPC   C1A  798   6.854   1.053   7.345
   21POPC   D2A  799   6.792   1.229   6.950
   21POPC   C3A  800   6.550   0.974   6.696
   21POPC   C4A  801   6.543   1.201   6.333
   21POPC   C1B  802   6.343   1.102   7.195
   21POPC   C2B  803   6.293   1.454   6.896
   21POPC   C3B  804   6.350   1.667   6.481
   21POPC   C4B  805   6.204   1.490   6.095
   22POPC   NC3  806   8.966  11.005   7.989
   22POPC   PO4  807   9.305  10.491   7.880
   22POPC   GL1  808   9.160  10.810   7.564
   22POPC   GL2  809   9.079  11.214   7.560
   22POPC   C1A  810   8.949  10.872   7.183
   22POPC   D2A  811   8.665  10.778   6.843
   22POPC   C3A  812   8.663  11.008   6.489
   22POPC   C4A  813   8.990  10.998   6.262
   22POPC   C1B  814   8.686  11.269   7.337
   22POPC   C2B  815   8.795  11.302   6.902
   22POPC   C3B  816   8.702   0.027   6.525
   22POPC   C4B  817   8.743  11.441   6.096
   23POPC   NC3  818   0.473   1.079   7.849
   23POPC   PO4  819   0.793   1.603   7.983
   23POPC   GL1  820   0.688   1.478   7.602
   23POPC   GL2  821   0.293   1.492   7.628
   23POPC   C1A  822   0.595   1.562   7.184
   23POPC   D2A  823   0.501   1.321   6.828
   23POPC   C3A  824   0.482   1.600   6.492
   23POPC   C4A  825   0.302   1.549   6.091
   23POPC   C1B  826   0.149   1.253   7.266
   23POPC   C2B  827  11.464   1.089   6.913
   23POPC   C3B  828   0.085   1.237   6.507
   23POPC   C4B  829   0.472   1.071   6.313
   24POPC   NC3  830   4.253   8.607   8.175
   24POPC   PO4  831   4.055   9.216   8.168
   24POPC   GL1  832   4.069   9.014   7.788
   24POPC   GL2  833   4.389   8.932   7.721
   24POPC   C1A  834   4.040   8.928   7.326
   24POPC   D2A  835   4.160   8.608   7.005
   24POPC   C3A  836   4.112   8.713   6.542
   24POPC   C4A  837   4.078   8.500   6.140
   24POPC   C1B  838   4.540   8.866   7.275
   24POPC   C2B  839   4.430   9.006   6.838
   24POPC   C3B  840   4.538   8.950   6.395
   24POPC   C4B  841   4.685   9.141   6.032
   25POPC   NC3  842   3.538   1.356   8.170
   25POPC   PO4  843   3.212   0.701   8.054
   25POPC   GL1  844   3.244   0.891   7.645
   25POPC   GL2  845   3.505   1.142   7.561
   25POPC   C1A  846   3.152   1.018   7.226
   25POPC   D2A  847   3.351   1.074   6.823
   25POPC   C3A  848   3.148   1.105   6.424
   25POPC   C4A  849   3.168   1.468   6.142
   25POPC   C1B  850   3.812   1.401   7.275
   25POPC   C2B  851   3.976   1.526   6.851
   25POPC   C3B  852   3.918   1.467   6.407
   25POPC   C4B  853   3.621   1.186   6.337
   26POPC   NC3  854   5.597   9.631   8.282
   26POPC   PO4  855   6.118   9.921   8.195
   26POPC   GL1  856   5.996   9.725   7.751
   26POPC   GL2  857   5.660   9.572   7.767
   26POPC   C1A  858   6.015   9.845   7.275
   26POPC   D2A  859   6.192   9.729   6.854
   26POPC   C3A  860   5.942   9.831   6.485
   26POPC   C4A  861   6.002   9.886   6.053
   26POPC   C1B  862   5.647   9.490   7.323
   26POPC   C2B  863   5.645   9.630   6.883
   26POPC   C3B  864   5.507   9.509   6.456
   26POPC   C4B  865   5.723   9.459   6.043
   27POPC   NC3  866  11.081  10.441   8.037
   27POPC   PO4  867  10.747   9.913   7.784
   27POPC   GL1  868  11.108  10.095   7.610
   27POPC   GL2  869  11.136  10.464   7.537
   27POPC   C1A  870  11.187  10.059   7.182
   27POPC   D2A  871  10.922  10.109   6.822
   27POPC   C3A  872  11.172  10.305   6.552
   27POPC   C4A  873  11.238  10.143   6.156
   27POPC   C1B  874  10.835  10.742   7.312
   27POPC   C2B  875  11.003  10.659   6.922
   27POPC   C3B  876  11.094  10.845   6.539
   27POPC   C4B  877  11.306  10.662   6.222
   28POPC   NC3  878   5.441   0.140   7.902
   28POPC   PO4  879   5.007   0.595   8.222
   28POPC   GL1  880   5.198   0.555   7.767
   28POPC   GL2  881   5.113   0.287   7.532
   28POPC   C1A  882   5.365   0.625   7.287
   28POPC   D2A  883   5.087   0.372   6.986
   28POPC   C3A  884   5.180   0.338   6.549
   28POPC   C4A  885   5.264   0.667   6.288
   28POPC   C1B  886   4.871   0.657   7.382
   28POPC   C2B  887   4.633   0.688   7.017
   28POPC   C3B  888   4.771   0.678   6.584
   28POPC   C4B  889   4.799   0.974   6.254
   29POPC   NC3  890   8.734   2.605   8.034
   29POPC   PO4  891   8.262   2.918   8.024
   29POPC   GL1  892   8.552   2.896   7.630
   29POPC   GL2  893   8.793   2.592   7.529
   29POPC   C1A  894   8.845   3.045   7.289
   29POPC   D2A  895   8.938   3.355   6.951
   29POPC   C3A  896   8.976   3.190   6.530
   29POPC   C4A  897   8.680   3.036   6.183
   29POPC   C1B  898   9.116   2.619   7.188
   29POPC   C2B  899   8.985   2.670   6.758
   29POPC   C3B  900   9.054   2.711   6.323
   29POPC   C4B  901   9.052   2.560   5.893
   30POPC   NC3  902   7.360  10.649   8.251
   30POPC   PO4  903   7.635  10.821   7.687
   30POPC   GL1  904   7.357  10.525   7.549
   30POPC   GL2  905   7.427  10.241   7.767
   30POPC   C1A  906   7.283  10.391   7.136
   30POPC   D2A  907   6.994  10.472   6.813
   30POPC   C3A  908   7.189  10.663   6.479
   30POPC   C4A  909   7.516  10.644   6.201
   30POPC   C1B  910   7.705  10.145   7.420
   30POPC   C2B  911   7.646  10.083   6.984
   30POPC   C3B  912   7.513  10.271   6.605
   30POPC   C4B  913   7.477  10.115   6.189
   31POPC   NC3  914  10.099   4.522   7.627
   31POPC   PO4  915  10.127   4.002   7.932
   31POPC   GL1  916  10.016   4.044   7.495
   31POPC   GL2  917   9.709   4.157   7.535
   31POPC   C1A  918  10.040   4.231   7.053
   31POPC   D2A  919  10.223   4.598   6.795
   31POPC   C3A  920  10.069   4.592   6.355
   31POPC   C4A  921   9.777   4.265   6.215
   31POPC   C1B  922   9.509   4.105   7.132
   31POPC   C2B  923   9.320   3.911   6.763
   31POPC   C3B  924   9.314   4.131   6.393
   31POPC   C4B  925   9.317   4.587   6.324
   32POPC   NC3  926   0.323   2.060   7.970
   32POPC   PO4  927   0.966   2.339   7.886
   32POPC   GL1  928   0.836   2.027   7.600
   32POPC   GL2  929   0.502   1.940   7.529
   32POPC   C1A  930   0.755   2.151   7.171
   32POPC   D2A  931   0.474   1.982   6.876
   32POPC   C3A  932   0.711   2.074   6.537
   32POPC   C4A  933   0.855   1.918   6.160
   32POPC   C1B  934   0.155   1.825   7.273
   32POPC   C2B  935   0.088   1.618   6.886
   32POPC   C3B  936  11.485   1.766   6.468
   32POPC   C4B  937   0.287   2.041   6.260
   33POPC   NC3  938   9.441   5.677   8.251
   33POPC   PO4  939   9.912   6.066   8.128
   33POPC   GL1  940  10.005   5.852   7.719
   33POPC   GL2  941  10.066   6.161   7.590
   33POPC   C1A  942   9.923   5.676   7.287
   33POPC   D2A  943   9.845   5.825   6.861
   33POPC   C3A  944   9.774   5.600   6.485
   33POPC   C4A  945   9.869   5.687   6.073
   33POPC   C1B  946   9.764   6.176   7.236
   33POPC   C2B  947   9.658   6.287   6.782
   33POPC   C3B  948   9.698   6.103   6.364
   33POPC   C4B  949   9.439   5.940   6.036
   34POPC   NC3  950   5.059   1.081   8.168
   34POPC   PO4  951   5.656   0.746   8.114
   34POPC   GL1  952   5.419   0.994   7.740
   34POPC   GL2  953   5.158   1.267   7.706
   34POPC   C1A  954   5.383   1.122   7.284
   34POPC   D2A  955   5.078   0.959   6.978
   34POPC   C3A  956   5.193   1.070   6.580
   34POPC   C4A  957   5.251   1.178   6.134
   34POPC   C1B  958   4.898   1.309   7.320
   34POPC   C2B  959   4.769   1.410   6.893
   34POPC   C3B  960   4.896   1.454   6.448
   34POPC   C4B  961   5.006   1.621   6.031
   35POPC   NC3  962   7.718   9.219   8.073
   35POPC   PO4  963   8.442   9.254   8.041
   35POPC   GL1  964   8.328   9.108   7.643
   35POPC   GL2  965   8.000   9.083   7.671
   35POPC   C1A  966   8.207   8.809   7.291
   35POPC   D2A  967   8.081   8.688   6.831
   35POPC   C3A  968   8.356   8.666   6.429
   35POPC   C4A  969   8.322   8.785   5.985
   35POPC   C1B  970   7.830   9.153   7.270
   35POPC   C2B  971   7.994   9.189   6.857
   35POPC   C3B  972   8.010   9.052   6.411
   35POPC   C4B  973   7.851   8.995   5.959
   36POPC   NC3  974   8.894  10.395   8.077
   36POPC   PO4  975   8.499  11.046   7.991
   36POPC   GL1  976   8.616  10.677   7.633
   36POPC   GL2  977   8.870  10.379   7.584
   36POPC   C1A  978   8.572  10.444   7.195
   36POPC   D2A  979   8.624  10.259   6.779
   36POPC   C3A  980   8.389  10.548   6.468
   36POPC   C4A  981   8.551  10.722   6.075
   36POPC   C1B  982   9.108  10.382   7.190
   36POPC   C2B  983   9.149  10.628   6.791
   36POPC   C3B  984   8.908  10.522   6.426
   36POPC   C4B  985   8.957  10.116   6.292
   37POPC   NC3  986   7.086   8.834   7.942
   37POPC   PO4  987   7.753   8.652   8.170
   37POPC   GL1  988   7.727   8.657   7.747
   37POPC   GL2  989   7.534   8.890   7.697
   37POPC   C1A  990   7.711   8.643   7.276
   37POPC   D2A  991   7.589   8.876   6.895
   37POPC   C3A  992   7.428   8.651   6.557
   37POPC   C4A  993   7.790   8.606   6.300
   37POPC   C1B  994   7.327   8.990   7.321
   37POPC   C2B  995   7.131   9.086   6.937
   37POPC   C3B  996   7.139   9.097   6.492
   37POPC   C4B  997   7.383   8.987   6.150
   38POPC   NC3  998   0.591  11.020   8.081
   38POPC   PO4  999   1.153  10.945   8.438
   38POPC   GL1 1000   1.181  10.948   7.895
   38POPC   GL2 1001   0.951  11.192   7.732
   38POPC   C1A 1002   1.239  10.855   7.394
   38POPC   D2A 1003   1.234  11.051   6.945
   38POPC   C3A 1004   1.216  10.826   6.536
   38POPC   C4A 1005   0.948  10.868   6.187
   38POPC   C1B 1006   1.173  11.367   7.349
   38POPC   C2B 1007   1.442   0.024   7.021
   38POPC   C3B 1008   1.347   0.025   6.611
   38POPC   C4B 1009   1.300  11.263   6.266
   39POPC   NC3 1010   9.355   8.523   8.078
   39POPC   PO4 1011   9.256   7.862   8.050
   39POPC   GL1 1012   9.553   8.049   7.716
   39POPC   GL2 1013   9.739   8.356   7.726
   39POPC   C1A 1014   9.686   8.026   7.265
   39POPC   D2A 1015   9.835   7.761   6.903
   39POPC   C3A 1016   9.647   7.813   6.463
   39POPC   C4A 1017   9.712   7.805   6.016
   39POPC   C1B 1018   9.661   8.536   7.338
   39POPC   C2B 1019   9.525   8.440   6.918
   39POPC   C3B 1020   9.695   8.450   6.498
   39POPC   C4B 1021   9.536   8.254   6.122
   40POPC   NC3 1022   1.147   1.285   7.999
   40POPC   PO4 1023   1.715   0.854   8.094
   40POPC   GL1 1024   1.495   0.938   7.740
   40POPC   GL2 1025   1.560   1.264   7.660
   40POPC   C1A 1026   1.585   0.870   7.295
   40POPC   D2A 1027   1.740   0.851   6.859
   40POPC   C3A 1028   1.401   0.987   6.575
   40POPC   C4A 1029   1.030   0.957   6.289
   40POPC   C1B 1030   1.297   1.310   7.314
   40POPC   C2B 1031   1.299   1.399   6.867
   40POPC   C3B 1032   0.953   1.368   6.567
   40POPC   C4B 1033   0.815   1.408   6.143
   41POPC   NC3 1034   8.030   3.316   8.041
   41POPC   PO4 1035   8.315   3.824   7.912
   41POPC   GL1 1036   8.344   3.421   7.666
   41POPC   GL2 1037   7.999   3.458   7.540
   41POPC   C1A 1038   8.393   3.271   7.251
   41POPC   D2A 1039   8.432   3.561   6.905
   41POPC   C3A 1040   8.520   3.431   6.500
   41POPC   C4A 1041   8.314   3.389   6.120
   41POPC   C1B 1042   7.937   3.414   7.075
   41POPC   C2B 1043   8.038   3.286   6.633
   41POPC   C3B 1044   7.822   3.254   6.226
   41POPC   C4B 1045   7.475   3.398   5.951
   42POPC   NC3 1046  11.137   9.760   8.008
   42POPC   PO4 1047  10.815   9.210   7.842
   42POPC   GL1 1048  10.993   9.520   7.556
   42POPC   GL2 1049  11.350   9.626   7.560
   42POPC   C1A 1050  10.810   9.671   7.168
   42POPC   D2A 1051  10.638   9.462   6.789
   42POPC   C3A 1052  10.666   9.750   6.464
   42POPC   C4A 1053  10.893   9.781   6.062
   42POPC   C1B 1054  11.373   9.594   7.118
   42POPC   C2B 1055  11.119   9.630   6.758
   42POPC   C3B 1056  11.040   9.409   6.397
   42POPC   C4B 1057  11.335   9.501   6.077
   43POPC   NC3 1058  11.112   7.262   8.213
   43POPC   PO4 1059  11.118   7.797   7.849
   43POPC   GL1 1060  11.219   7.330   7.657
   43POPC   GL2 1061  10.958   7.104   7.583
   43POPC   C1A 1062  11.460   7.232   7.258
   43POPC   D2A 1063   0.094   6.947   6.906
   43POPC   C3A 1064  11.494   7.183   6.522
   43POPC   C4A 1065  11.357   7.540   6.265
   43POPC   C1B 1066  10.967   7.450   7.247
   43POPC   C2B 1067  11.032   7.761   6.912
   43POPC   C3B 1068  10.879   7.663   6.509
   43POPC   C4B 1069  10.960   7.246   6.371
   44POPC   NC3 1070   1.537   8.043   8.177
   44POPC   PO4 1071   0.908   8.134   8.240
   44POPC   GL1 1072   1.156   8.184   7.815
   44POPC   GL2 1073   1.133   8.542   7.671
   44POPC   C1A 1074   1.406   8.157   7.401
   44POPC   D2A 1075   1.537   8.319   6.968
   44POPC   C3A 1076   1.610   8.193   6.560
   44POPC   C4A 1077   1.377   8.107   6.194
   44POPC   C1B 1078   0.948   8.377   7.295
   44POPC   C2B 1079   1.072   8.121   7.002
   44POPC   C3B 1080   1.101   8.216   6.616
   44POPC   C4B 1081   0.891   8.290   6.249
   45POPC   NC3 1082   3.312   3.410   8.040
   45POPC   PO4 1083   2.674   3.228   8.063
   45POPC   GL1 1084   2.665   3.206   7.635
   45POPC   GL2 1085   2.491   3.522   7.592
   45POPC   C1A 1086   2.897   3.297   7.231
   45POPC   D2A 1087   2.764   3.382   6.788
   45POPC   C3A 1088   2.943   3.368   6.358
   45POPC   C4A 1089   2.951   3.814   6.153
   45POPC   C1B 1090   2.350   3.323   7.232
   45POPC   C2B 1091   2.144   3.521   6.918
   45POPC   C3B 1092   2.360   3.634   6.584
   45POPC   C4B 1093   2.427   3.271   6.378
   46POPC   NC3 1094  10.758   8.839   8.101
   46POPC   PO4 1095  11.318   9.344   8.162
   46POPC   GL1 1096  11.325   9.128   7.748
   46POPC   GL2 1097  11.178   8.798   7.802
   46POPC   C1A 1098  11.447   9.118   7.307
   46POPC   D2A 1099  11.241   9.134   6.883
   46POPC   C3A 1100  11.481   9.142   6.485
   46POPC   C4A 1101  11.224   8.991   6.156
   46POPC   C1B 1102  11.050   8.805   7.359
   46POPC   C2B 1103  11.334   8.634   7.015
   46POPC   C3B 1104  11.328   8.633   6.556
   46POPC   C4B 1105  10.960   8.563   6.266
   47POPC   NC3 1106   0.619   3.005   8.110
   47POPC   PO4 1107   0.152   2.474   8.087
   47POPC   GL1 1108   0.378   2.704   7.774
   47POPC   GL2 1109   0.523   2.436   7.651
   47POPC   C1A 1110   0.446   2.821   7.328
   47POPC   D2A 1111   0.509   2.987   6.930
   47POPC   C3A 1112   0.218   2.990   6.606
   47POPC   C4A 1113   0.414   2.943   6.211
   47POPC   C1B 1114   0.291   2.332   7.290
   47POPC   C2B 1115   0.340   2.493   6.893
   47POPC   C3B 1116   0.357   2.501   6.478
   47POPC   C4B 1117   0.691   2.451   6.202
   48POPC   NC3 1118   5.414   0.415   8.335
   48POPC   PO4 1119   5.965   0.245   7.930
   48POPC   GL1 1120   5.707   0.374   7.587
   48POPC   GL2 1121   5.773   0.633   7.604
   48POPC   C1A 1122   5.553   0.167   7.213
   48POPC   D2A 1123   5.674   0.377   6.841
   48POPC   C3A 1124   5.653   0.127   6.508
   48POPC   C4A 1125   5.407  11.415   6.231
   48POPC   C1B 1126   6.031   0.412   7.233
   48POPC   C2B 1127   6.197   0.660   6.959
   48POPC   C3B 1128   6.098   0.715   6.574
   48POPC   C4B 1129   5.859   0.504   6.223
   49POPC   NC3 1130  10.595   4.929   8.123
   49POPC   PO4 1131  10.749   5.520   8.088
   49POPC   GL1 1132  10.657   5.178   7.677
   49POPC   GL2 1133  10.324   5.047   7.672
   49POPC   C1A 1134  10.470   4.898   7.226
   49POPC   D2A 1135  10.525   5.064   6.833
   49POPC   C3A 1136  10.490   4.894   6.451
   49POPC   C4A 1137  10.649   5.095   6.126
   49POPC   C1B 1138  10.352   5.372   7.307
   49POPC   C2B 1139  10.195   5.441   6.859
   49POPC   C3B 1140  10.177   5.289   6.419
   49POPC   C4B 1141   9.834   5.181   6.114
   50POPC   NC3 1142   8.025  10.681   7.892
   50POPC   PO4 1143   8.484  10.249   7.947
   50POPC   GL1 1144   8.377  10.183   7.565
   50POPC   GL2 1145   8.134  10.465   7.453
   50POPC   C1A 1146   8.195  10.049   7.191
   50POPC   D2A 1147   8.096  10.285   6.847
   50POPC   C3A 1148   8.224  10.022   6.578
   50POPC   C4A 1149   8.447  10.107   6.226
   50POPC   C1B 1150   7.790  10.562   7.147
   50POPC   C2B 1151   7.571  10.739   6.841
   50POPC   C3B 1152   7.873  10.685   6.552
   50POPC   C4B 1153   7.946  10.335   6.286
   51POPC   NC3 1154   9.917   1.702   7.991
   51POPC   PO4 1155   9.288   1.582   8.275
   51POPC   GL1 1156   9.432   1.882   7.836
   51POPC   GL2 1157   9.721   2.137   7.737
   51POPC   C1A 1158   9.436   1.936   7.345
   51POPC   D2A 1159   9.705   1.885   6.943
   51POPC   C3A 1160   9.524   1.945   6.523
   51POPC   C4A 1161   9.328   1.784   6.144
   51POPC   C1B 1162   9.829   2.262   7.297
   51POPC   C2B 1163   9.528   2.384   6.965
   51POPC   C3B 1164   9.512   2.465   6.513
   51POPC   C4B 1165   9.860   2.258   6.256
   52POPC   NC3 1166  10.480   2.195   8.148
   52POPC   PO4 1167  10.766   1.641   8.316
   52POPC   GL1 1168  10.807   2.009   7.826
   52POPC   GL2 1169  10.425   2.113   7.597
   52POPC   C1A 1170  10.827   2.140   7.338
   52POPC   D2A 1171  10.586   1.908   7.001
   52POPC   C3A 1172  10.552   2.085   6.557
   52POPC   C4A 1173  10.548   2.076   6.098
   52POPC   C1B 1174  10.138   1.845   7.311
   52POPC   C2B 1175  10.133   1.566   6.957
   52POPC   C3B 1176  10.132   1.740   6.557
   52POPC   C4B 1177  10.105   1.827   6.131
   53POPC   NC3 1178   2.868   5.767   8.206
   53POPC   PO4 1179   3.276   6.137   8.029
   53POPC   GL1 1180   2.902   6.000   7.753
   53POPC   GL2 1181   2.601   5.714   7.705
   53POPC   C1A 1182   2.905   5.874   7.332
   53POPC   D2A 1183   2.965   6.079   6.961
   53POPC   C3A 1184   3.047   5.793   6.620
   53POPC   C4A 1185   3.101   5.891   6.171
   53POPC   C1B 1186   2.429   5.697   7.226
   53POPC   C2B 1187   2.569   5.587   6.754
   53POPC   C3B 1188   2.618   5.823   6.335
   53POPC   C4B 1189   2.469   6.188   6.192
   54POPC   NC3 1190   8.947   9.289   8.105
   54POPC   PO4 1191   8.944   9.951   8.190
   54POPC   GL1 1192   8.808   9.884   7.733
   54POPC   GL2 1193   8.805   9.527   7.672
   54POPC   C1A 1194   8.749   9.954   7.266
   54POPC   D2A 1195   8.954   9.836   6.837
   54POPC   C3A 1196   8.680   9.718   6.466
   54POPC   C4A 1197   8.694   9.617   5.990
   54POPC   C1B 1198   9.113   9.582   7.317
   54POPC   C2B 1199   9.188   9.325   6.957
   54POPC   C3B 1200   9.160   9.324   6.530
   54POPC   C4B 1201   9.129   9.635   6.229
   55POPC   NC3 1202   9.735   0.224   7.954
   55POPC   PO4 1203   9.227  11.379   8.061
   55POPC   GL1 1204   9.278   0.164   7.705
   55POPC   GL2 1205   9.435   0.501   7.621
   55POPC   C1A 1206   9.506   0.098   7.307
   55POPC   D2A 1207   9.475   0.349   6.945
   55POPC   C3A 1208   9.325   0.126   6.593
   55POPC   C4A 1209   9.314   0.298   6.183
   55POPC   C1B 1210   9.828   0.512   7.328
   55POPC   C2B 1211   9.897   0.646   6.866
   55POPC   C3B 1212   9.740   0.451   6.469
   55POPC   C4B 1213   9.759   0.488   6.010
   56POPC   NC3 1214   0.168   8.185   8.417
   56POPC   PO4 1215   0.290   7.921   7.855
   56POPC   GL1 1216   0.306   8.182   7.565
   56POPC   GL2 1217   0.643   8.275   7.674
   56POPC   C1A 1218   0.359   8.126   7.145
   56POPC   D2A 1219   0.613   8.215   6.832
   56POPC   C3A 1220   0.400   8.282   6.490
   56POPC   C4A 1221   0.361   8.081   6.139
   56POPC   C1B 1222   0.752   7.905   7.359
   56POPC   C2B 1223   0.749   7.722   6.909
   56POPC   C3B 1224   0.738   7.867   6.455
   56POPC   C4B 1225   0.756   7.874   5.931
   57POPC   NC3 1226   0.586   4.089   7.923
   57POPC   PO4 1227   0.374   3.410   8.081
   57POPC   GL1 1228   0.451   3.586   7.705
   57POPC   GL2 1229   0.597   3.259   7.623
   57POPC   C1A 1230   0.428   3.804   7.313
   57POPC   D2A 1231   0.656   3.884   6.917
   57POPC   C3A 1232   0.488   3.831   6.533
   57POPC   C4A 1233   0.647   3.711   6.119
   57POPC   C1B 1234   0.271   3.304   7.296
   57POPC   C2B 1235   0.358   3.468   6.894
   57POPC   C3B 1236   0.586   3.339   6.521
   57POPC   C4B 1237   0.223   3.441   6.243
   58POPC   NC3 1238   5.196  10.965   8.114
   58POPC   PO4 1239   4.981   0.064   7.968
   58POPC   GL1 1240   4.819  11.368   7.616
   58POPC   GL2 1241   4.970  11.080   7.674
   58POPC   C1A 1242   5.050  11.388   7.227
   58POPC   D2A 1243   5.250  11.375   6.829
   58POPC   C3A 1244   4.904  11.409   6.531
   58POPC   C4A 1245   4.914  11.472   6.106
   58POPC   C1B 1246   5.154  10.900   7.316
   58POPC   C2B 1247   5.182  10.802   6.874
   58POPC   C3B 1248   5.203  11.003   6.462
   58POPC   C4B 1249   5.206  10.981   6.013
   59POPC   NC3 1250   2.926   0.280   8.076
   59POPC   PO4 1251   2.463   0.816   7.951
   59POPC   GL1 1252   2.779   0.640   7.695
   59POPC   GL2 1253   2.591   0.342   7.668
   59POPC   C1A 1254   2.993   0.533   7.312
   59POPC   D2A 1255   2.907   0.294   6.938
   59POPC   C3A 1256   2.851   0.440   6.528
   59POPC   C4A 1257   2.878   0.233   6.152
   59POPC   C1B 1258   2.474   0.435   7.229
   59POPC   C2B 1259   2.286   0.720   6.904
   59POPC   C3B 1260   2.202   0.765   6.469
   59POPC   C4B 1261   2.492   0.726   6.064
   60POPC   NC3 1262   8.983   1.250   8.140
   60POPC   PO4 1263   8.330   1.361   8.091
   60POPC   GL1 1264   8.674   1.336   7.732
   60POPC   GL2 1265   8.888   1.069   7.655
   60POPC   C1A 1266   8.675   1.336   7.257
   60POPC   D2A 1267   8.870   1.278   6.825
   60POPC   C3A 1268   8.620   1.389   6.459
   60POPC   C4A 1269   8.670   1.346   5.971
   60POPC   C1B 1270   9.130   1.106   7.246
   60POPC   C2B 1271   9.205   0.822   6.932
   60POPC   C3B 1272   9.224   1.006   6.569
   60POPC   C4B 1273   9.080   1.304   6.267
   61POPC   NC3 1274   2.331  10.400   7.937
   61POPC   PO4 1275   1.726  10.682   8.101
   61POPC   GL1 1276   1.863  10.510   7.717
   61POPC   GL2 1277   1.870  10.132   7.731
   61POPC   C1A 1278   1.826  10.672   7.314
   61POPC   D2A 1279   1.687  10.829   6.931
   61POPC   C3A 1280   1.907  10.712   6.575
   61POPC   C4A 1281   1.814  10.646   6.176
   61POPC   C1B 1282   2.074  10.216   7.335
   61POPC   C2B 1283   2.001  10.369   6.930
   61POPC   C3B 1284   2.111  10.201   6.508
   61POPC   C4B 1285   2.036  10.228   6.054
   62POPC   NC3 1286   0.370   4.511   8.346
   62POPC   PO4 1287   0.106   4.080   7.974
   62POPC   GL1 1288   0.126   4.369   7.680
   62POPC   GL2 1289   0.384   4.533   7.765
   62POPC   C1A 1290   0.224   4.270   7.276
   62POPC   D2A 1291   0.170   4.025   6.923
   62POPC   C3A 1292   0.179   4.266   6.573
   62POPC   C4A 1293   0.244   4.077   6.182
   62POPC   C1B 1294   0.572   4.626   7.378
   62POPC   C2B 1295   0.692   4.496   6.953
   62POPC   C3B 1296   0.535   4.632   6.567
   62POPC   C4B 1297   0.566   4.464   6.171
   63POPC   NC3 1298   1.174   8.842   8.085
   63POPC   PO4 1299   1.563   9.464   8.100
   63POPC   GL1 1300   1.400   9.265   7.721
   63POPC   GL2 1301   1.065   9.110   7.668
   63POPC   C1A 1302   1.362   9.148   7.272
   63POPC   D2A 1303   1.101   9.202   6.924
   63POPC   C3A 1304   1.338   9.177   6.583
   63POPC   C4A 1305   1.220   9.078   6.199
   63POPC   C1B 1306   0.931   8.883   7.308
   63POPC   C2B 1307   1.175   8.689   6.946
   63POPC   C3B 1308   1.092   8.708   6.514
   63POPC   C4B 1309   0.798   8.771   6.161
   64POPC   NC3 1310   9.801  10.865   8.067
   64POPC   PO4 1311  10.140   0.038   8.124
   64POPC   GL1 1312   9.982  11.248   7.802
   64POPC   GL2 1313   9.612  11.246   7.707
   64POPC   C1A 1314   9.972  11.006   7.402
   64POPC   D2A 1315   9.871  11.203   6.986
   64POPC   C3A 1316   9.919  11.069   6.568
   64POPC   C4A 1317   9.864  10.828   6.217
   64POPC   C1B 1318   9.472  11.083   7.281
   64POPC   C2B 1319   9.320  11.134   6.845
   64POPC   C3B 1320   9.437  11.165   6.394
   64POPC   C4B 1321   9.247  11.317   5.968
   65POPC   NC3 1322   0.757   7.752   7.992
   65POPC   PO4 1323   1.415   7.679   7.915
   65POPC   GL1 1324   1.113   7.568   7.665
   65POPC   GL2 1325   1.143   7.230   7.813
   65POPC   C1A 1326   1.186   7.673   7.240
   65POPC   D2A 1327   1.454   7.800   6.931
   65POPC   C3A 1328   1.246   7.733   6.582
   65POPC   C4A 1329   1.121   7.652   6.206
   65POPC   C1B 1330   1.204   7.172   7.352
   65POPC   C2B 1331   0.961   7.129   6.936
   65POPC   C3B 1332   1.012   7.203   6.478
   65POPC   C4B 1333   1.455   7.282   6.336
   66POPC   NC3 1334   8.916   0.247   8.124
   66POPC   PO4 1335   9.176   0.827   8.089
   66POPC   GL1 1336   8.923   0.574   7.729
   66POPC   GL2 1337   8.719   0.246   7.659
   66POPC   C1A 1338   8.849   0.687   7.292
   66POPC   D2A 1339   8.649   0.830   6.884
   66POPC   C3A 1340   8.725   0.904   6.393
   66POPC   C4A 1341   8.620   0.821   5.918
   66POPC   C1B 1342   8.974   0.186   7.297
   66POPC   C2B 1343   8.865   0.335   6.914
   66POPC   C3B 1344   8.993   0.513   6.566
   66POPC   C4B 1345   8.800   0.438   6.199
   67POPC   NC3 1346   4.300   3.008   8.235
   67POPC   PO4 1347   3.670   3.140   8.065
   67POPC   GL1 1348   4.020   3.045   7.765
   67POPC   GL2 1349   4.346   2.827   7.717
   67POPC   C1A 1350   4.012   2.927   7.334
   67POPC   D2A 1351   4.155   2.771   6.933
   67POPC   C3A 1352   4.239   2.939   6.507
   67POPC   C4A 1353   4.417   3.098   6.117
   67POPC   C1B 1354   4.332   2.477   7.348
   67POPC   C2B 1355   4.161   2.273   6.937
   67POPC   C3B 1356   4.241   2.423   6.519
   67POPC   C4B 1357   4.581   2.594   6.263
   68POPC   NC3 1358   9.946   9.328   8.127
   68POPC   PO4 1359   9.795   8.704   8.078
   68POPC   GL1 1360   9.732   8.929   7.704
   68POPC   GL2 1361   9.362   8.908   7.675
   68POPC   C1A 1362   9.975   8.999   7.319
   68POPC   D2A 1363   9.922   8.756   6.913
   68POPC   C3A 1364   9.893   8.927   6.457
   68POPC   C4A 1365  10.002   9.166   6.031
   68POPC   C1B 1366   9.383   8.923   7.201
   68POPC   C2B 1367   9.443   8.923   6.736
   68POPC   C3B 1368   9.390   8.862   6.349
   68POPC   C4B 1369   9.173   8.465   6.399
   69POPC   NC3 1370  11.442   3.650   8.073
   69POPC   PO4 1371  10.775   3.523   7.953
   69POPC   GL1 1372  10.785   3.632   7.557
   69POPC   GL2 1373  11.111   3.497   7.549
   69POPC   C1A 1374  10.875   3.764   7.158
   69POPC   D2A 1375  10.951   3.627   6.753
   69POPC   C3A 1376  10.757   3.863   6.440
   69POPC   C4A 1377  10.976   3.721   6.053
   69POPC   C1B 1378  11.249   3.154   7.298
   69POPC   C2B 1379  11.349   3.250   6.868
   69POPC   C3B 1380  11.256   3.273   6.413
   69POPC   C4B 1381  11.027   3.004   6.124
   70POPC   NC3 1382   1.209   5.974   7.927
   70POPC   PO4 1383   0.890   5.434   8.110
   70POPC   GL1 1384   0.995   5.581   7.688
   70POPC   GL2 1385   1.343   5.528   7.699
   70POPC   C1A 1386   0.859   5.462   7.256
   70POPC   D2A 1387   0.671   5.495   6.860
   70POPC   C3A 1388   0.929   5.380   6.492
   70POPC   C4A 1389   1.059   5.465   6.055
   70POPC   C1B 1390   1.288   5.747   7.289
   70POPC   C2B 1391   1.214   5.595   6.869
   70POPC   C3B 1392   1.268   5.754   6.441
   70POPC   C4B 1393   1.338   5.919   6.035
   71POPC   NC3 1394   9.866   6.556   8.038
   71POPC   PO4 1395  10.505   6.365   7.897
   71POPC   GL1 1396  10.553   6.289   7.538
   71POPC   GL2 1397  10.821   6.440   7.497
   71POPC   C1A 1398  10.482   6.337   7.126
   71POPC   D2A 1399  10.576   6.333   6.724
   71POPC   C3A 1400  10.271   6.548   6.540
   71POPC   C4A 1401   9.962   6.550   6.263
   71POPC   C1B 1402  10.711   6.759   7.276
   71POPC   C2B 1403  10.617   6.818   6.856
   71POPC   C3B 1404  10.725   6.736   6.420
   71POPC   C4B 1405  10.428   6.755   6.086
   72POPC   NC3 1406   2.867   1.026   8.027
   72POPC   PO4 1407   3.067   1.605   8.073
   72POPC   GL1 1408   3.003   1.364   7.664
   72POPC   GL2 1409   2.707   1.164   7.588
   72POPC   C1A 1410   2.863   1.419   7.201
   72POPC   D2A 1411   2.711   1.643   6.870
   72POPC   C3A 1412   2.777   1.437   6.525
   72POPC   C4A 1413   2.644   1.635   6.182
   72POPC   C1B 1414   2.630   0.936   7.243
   72POPC   C2B 1415   2.836   0.821   6.873
   72POPC   C3B 1416   2.684   0.929   6.488
   72POPC   C4B 1417   2.394   1.198   6.308
   73POPC   NC3 1418   9.648   7.620   8.036
   73POPC   PO4 1419   9.732   6.993   7.984
   73POPC   GL1 1420   9.623   7.312   7.624
   73POPC   GL2 1421   9.815   7.632   7.555
   73POPC   C1A 1422   9.477   7.476   7.194
   73POPC   D2A 1423   9.474   7.412   6.719
   73POPC   C3A 1424   9.329   7.093   6.374
   73POPC   C4A 1425   9.367   6.858   5.949
   73POPC   C1B 1426   9.967   7.335   7.223
   73POPC   C2B 1427  10.016   7.299   6.767
   73POPC   C3B 1428   9.819   7.264   6.370
   73POPC   C4B 1429   9.868   7.010   6.009
   74POPC   NC3 1430  10.583   3.932   8.041
   74POPC   PO4 1431  10.499   4.587   7.833
   74POPC   GL1 1432  10.573   4.409   7.478
   74POPC   GL2 1433  10.532   4.096   7.579
   74POPC   C1A 1434  10.785   4.316   7.150
   74POPC   D2A 1435  10.729   4.593   6.843
   74POPC   C3A 1436  10.636   4.416   6.477
   74POPC   C4A 1437  10.636   4.599   6.049
   74POPC   C1B 1438  10.418   3.932   7.234
   74POPC   C2B 1439  10.489   4.008   6.844
   74POPC   C3B 1440  10.201   4.125   6.566
   74POPC   C4B 1441  10.315   4.162   6.191
   75POPC   NC3 1442   4.918  10.353   8.150
   75POPC   PO4 1443   5.475   9.977   8.019
   75POPC   GL1 1444   5.238  10.229   7.701
   75POPC   GL2 1445   5.061  10.569   7.710
   75POPC   C1A 1446   5.114  10.142   7.243
   75POPC   D2A 1447   5.055  10.254   6.787
   75POPC   C3A 1448   4.980   9.945   6.399
   75POPC   C4A 1449   4.969   9.917   5.895
   75POPC   C1B 1450   4.776  10.520   7.345
   75POPC   C2B 1451   4.668  10.636   6.896
   75POPC   C3B 1452   4.879  10.598   6.463
   75POPC   C4B 1453   5.073  10.366   6.110
   76POPC   NC3 1454   7.580   8.229   8.035
   76POPC   PO4 1455   7.010   8.387   7.880
   76POPC   GL1 1456   7.235   8.516   7.531
   76POPC   GL2 1457   7.467   8.279   7.539
   76POPC   C1A 1458   7.240   8.532   7.074
   76POPC   D2A 1459   7.181   8.217   6.758
   76POPC   C3A 1460   7.060   8.324   6.363
   76POPC   C4A 1461   7.056   8.603   6.020
   76POPC   C1B 1462   7.348   8.028   7.210
   76POPC   C2B 1463   7.556   7.884   6.834
   76POPC   C3B 1464   7.416   7.913   6.384
   76POPC   C4B 1465   7.513   7.797   5.935
   77POPC   NC3 1466   2.433  11.227   8.478
   77POPC   PO4 1467   3.052  11.389   8.305
   77POPC   GL1 1468   2.784  11.387   7.812
   77POPC   GL2 1469   2.560  11.111   7.789
   77POPC   C1A 1470   2.789  11.496   7.347
   77POPC   D2A 1471   2.898  11.295   6.933
   77POPC   C3A 1472   2.702  11.444   6.543
   77POPC   C4A 1473   2.434  11.426   6.180
   77POPC   C1B 1474   2.755  10.988   7.370
   77POPC   C2B 1475   2.699  10.843   6.953
   77POPC   C3B 1476   2.785  10.946   6.535
   77POPC   C4B 1477   2.621  10.928   6.117
   78POPC   NC3 1478   7.829   0.668   7.993
   78POPC   PO4 1479   8.505   0.488   8.090
   78POPC   GL1 1480   8.311   0.576   7.714
   78POPC   GL2 1481   8.130   0.309   7.733
   78POPC   C1A 1482   8.393   0.478   7.307
   78POPC   D2A 1483   8.205   0.575   6.941
   78POPC   C3A 1484   8.435   0.476   6.579
   78POPC   C4A 1485   8.233   0.578   6.213
   78POPC   C1B 1486   7.875   0.397   7.375
   78POPC   C2B 1487   7.863   0.197   6.994
   78POPC   C3B 1488   7.851   0.419   6.589
   78POPC   C4B 1489   7.725   0.154   6.280
   79POPC   NC3 1490   2.035   0.513   8.003
   79POPC   PO4 1491   2.455   0.057   8.163
   79POPC   GL1 1492   2.163   0.054   7.774
   79POPC   GL2 1493   1.884   0.281   7.584
   79POPC   C1A 1494   2.198  11.492   7.335
   79POPC   D2A 1495   2.415  11.465   6.964
   79POPC   C3A 1496   2.180   0.089   6.589
   79POPC   C4A 1497   2.153   0.346   6.211
   79POPC   C1B 1498   1.909   0.455   7.176
   79POPC   C2B 1499   1.776   0.348   6.755
   79POPC   C3B 1500   1.712   0.583   6.374
   79POPC   C4B 1501   1.692   0.433   5.956
   80POPC   NC3 1502  10.801   3.450   8.398
   80POPC   PO4 1503  10.168   3.346   8.268
   80POPC   GL1 1504  10.330   3.348   7.788
   80POPC   GL2 1505  10.288   3.631   7.645
   80POPC   C1A 1506  10.640   3.096   7.481
   80POPC   D2A 1507  10.799   3.261   7.089
   80POPC   C3A 1508  10.809   3.111   6.657
   80POPC   C4A 1509  10.732   3.377   6.334
   80POPC   C1B 1510  10.331   3.435   7.259
   80POPC   C2B 1511  10.272   3.516   6.828
   80POPC   C3B 1512  10.283   3.644   6.392
   80POPC   C4B 1513  10.484   3.727   6.009
   81POPC   NC3 1514  10.858   6.667   7.981
   81POPC   PO4 1515  10.700   7.334   8.049
   81POPC   GL1 1516  10.464   7.173   7.697
   81POPC   GL2 1517  10.128   7.288   7.765
   81POPC   C1A 1518  10.499   7.207   7.232
   81POPC   D2A 1519  10.685   7.318   6.832
   81POPC   C3A 1520  10.442   7.157   6.494
   81POPC   C4A 1521  10.538   7.285   6.114
   81POPC   C1B 1522  10.310   7.612   7.468
   81POPC   C2B 1523  10.332   7.634   7.003
   81POPC   C3B 1524  10.357   7.658   6.557
   81POPC   C4B 1525  10.138   7.578   6.160
   82POPC   NC3 1526   0.550   9.908   7.907
   82POPC   PO4 1527   0.794   9.216   8.079
   82POPC   GL1 1528   0.686   9.444   7.718
   82POPC   GL2 1529   0.315   9.469   7.726
   82POPC   C1A 1530   0.834   9.431   7.286
   82POPC   D2A 1531   0.662   9.692   6.908
   82POPC   C3A 1532   0.527   9.562   6.488
   82POPC   C4A 1533   0.830   9.460   6.167
   82POPC   C1B 1534   0.358   9.637   7.325
   82POPC   C2B 1535   0.243   9.971   7.049
   82POPC   C3B 1536   0.022   9.936   6.675
   82POPC   C4B 1537   0.163   9.873   6.256
   83POPC   NC3 1538   3.329   1.973   8.002
   83POPC   PO4 1539   3.915   1.643   8.238
   83POPC   GL1 1540   3.637   1.617   7.746
   83POPC   GL2 1541   3.528   1.956   7.518
   83POPC   C1A 1542   3.336   1.548   7.359
   83POPC   D2A 1543   3.440   1.702   6.995
   83POPC   C3A 1544   3.402   1.560   6.607
   83POPC   C4A 1545   3.536   1.812   6.269
   83POPC   C1B 1546   3.428   2.204   7.132
   83POPC   C2B 1547   3.284   2.468   6.804
   83POPC   C3B 1548   3.405   2.308   6.413
   83POPC   C4B 1549   3.817   2.325   6.227
   84POPC   NC3 1550   6.684  10.753   7.898
   84POPC   PO4 1551   7.094  10.266   8.168
   84POPC   GL1 1552   6.900  10.300   7.732
   84POPC   GL2 1553   6.509  10.295   7.712
   84POPC   C1A 1554   6.812  10.497   7.309
   84POPC   D2A 1555   6.489  10.551   6.983
   84POPC   C3A 1556   6.559  10.443   6.542
   84POPC   C4A 1557   6.713  10.770   6.316
   84POPC   C1B 1558   6.459  10.119   7.276
   84POPC   C2B 1559   6.616  10.042   6.844
   84POPC   C3B 1560   6.455   9.950   6.401
   84POPC   C4B 1561   6.500   9.949   5.925
   85POPC   NC3 1562   9.732   2.634   7.986
   85POPC   PO4 1563   9.120   2.421   7.897
   85POPC   GL1 1564   9.271   2.794   7.659
   85POPC   GL2 1565   9.504   2.582   7.525
   85POPC   C1A 1566   9.356   3.079   7.264
   85POPC   D2A 1567   9.428   2.890   6.843
   85POPC   C3A 1568   9.487   3.011   6.427
   85POPC   C4A 1569   9.486   2.770   6.071
   85POPC   C1B 1570   9.742   2.772   7.217
   85POPC   C2B 1571   9.983   2.641   6.877
   85POPC   C3B 1572   9.958   2.724   6.449
   85POPC   C4B 1573   9.949   2.993   6.126
   86POPC   NC3 1574   0.216   9.127   8.084
   86POPC   PO4 1575  11.498   8.541   8.166
   86POPC   GL1 1576   0.227   8.676   7.737
   86POPC   GL2 1577   0.593   8.831   7.756
   86POPC   C1A 1578   0.463   8.601   7.305
   86POPC   D2A 1579   0.670   8.708   6.894
   86POPC   C3A 1580   0.367   8.781   6.562
   86POPC   C4A 1581   0.273   8.649   6.130
   86POPC   C1B 1582   0.457   9.099   7.399
   86POPC   C2B 1583   0.533   9.193   6.948
   86POPC   C3B 1584   0.759   9.116   6.550
   86POPC   C4B 1585   0.450   9.133   6.196
   87POPC   NC3 1586   6.236   2.442   8.129
   87POPC   PO4 1587   6.839   2.421   8.014
   87POPC   GL1 1588   6.758   2.276   7.619
   87POPC   GL2 1589   6.463   2.470   7.582
   87POPC   C1A 1590   6.720   2.281   7.158
   87POPC   D2A 1591   6.663   2.497   6.764
   87POPC   C3A 1592   6.588   2.358   6.354
   87POPC   C4A 1593   6.784   2.628   6.036
   87POPC   C1B 1594   6.437   2.723   7.173
   87POPC   C2B 1595   6.420   2.948   6.754
   87POPC   C3B 1596   6.354   2.811   6.321
   87POPC   C4B 1597   6.128   2.930   5.942
   88POPC   NC3 1598   5.874  10.182   7.909
   88POPC   PO4 1599   5.367  10.545   8.238
   88POPC   GL1 1600   5.548  10.643   7.798
   88POPC   GL2 1601   5.843  10.626   7.622
   88POPC   C1A 1602   5.468  10.508   7.320
   88POPC   D2A 1603   5.609  10.434   6.879
   88POPC   C3A 1604   5.398  10.536   6.467
   88POPC   C4A 1605   5.508  10.583   5.988
   88POPC   C1B 1606   5.998  10.379   7.269
   88POPC   C2B 1607   6.114  10.241   6.866
   88POPC   C3B 1608   6.013  10.497   6.548
   88POPC   C4B 1609   5.777  10.278   6.277
   89POPC   NC3 1610   1.131   1.911   8.000
   89POPC   PO4 1611   1.591   2.322   8.302
   89POPC   GL1 1612   1.607   2.065   7.814
   89POPC   GL2 1613   1.402   1.771   7.602
   89POPC   C1A 1614   1.493   2.175   7.348
   89POPC   D2A 1615   1.259   2.216   6.980
   89POPC   C3A 1616   1.478   2.212   6.598
   89POPC   C4A 1617   1.174   2.311   6.286
   89POPC   C1B 1618   1.117   1.784   7.271
   89POPC   C2B 1619   0.957   1.782   6.881
   89POPC   C3B 1620   1.180   1.823   6.535
   89POPC   C4B 1621   1.295   1.573   6.216
   90POPC   NC3 1622   6.114   0.752   7.989
   90POPC   PO4 1623   6.864   0.682   7.971
   90POPC   GL1 1624   6.773   0.539   7.576
   90POPC   GL2 1625   6.931   0.238   7.462
   90POPC   C1A 1626   6.682   0.624   7.147
   90POPC   D2A 1627   6.610   0.432   6.780
   90POPC   C3A 1628   6.828   0.586   6.457
   90POPC   C4A 1629   6.715   0.801   6.084
   90POPC   C1B 1630   6.501   0.168   7.319
   90POPC   C2B 1631   6.378  11.490   6.935
   90POPC   C3B 1632   6.154   0.218   6.655
   90POPC   C4B 1633   6.351   0.357   6.301
   91POPC   NC3 1634   4.221   2.075   8.302
   91POPC   PO4 1635   3.779   2.053   7.931
   91POPC   GL1 1636   4.029   2.020   7.590
   91POPC   GL2 1637   4.129   1.700   7.558
   91POPC   C1A 1638   3.876   1.923   7.159
   91POPC   D2A 1639   3.740   2.021   6.724
   91POPC   C3A 1640   4.073   1.948   6.429
   91POPC   C4A 1641   4.295   2.184   6.066
   91POPC   C1B 1642   4.384   1.891   7.223
   91POPC   C2B 1643   4.407   1.791   6.789
   91POPC   C3B 1644   4.567   1.836   6.358
   91POPC   C4B 1645   4.538   1.764   5.904
   92POPC   NC3 1646   7.562  11.213   7.912
   92POPC   PO4 1647   6.838  11.210   7.961
   92POPC   GL1 1648   7.072  10.974   7.612
   92POPC   GL2 1649   7.312  11.215   7.474
   92POPC   C1A 1650   7.129  10.878   7.141
   92POPC   D2A 1651   7.244  11.127   6.785
   92POPC   C3A 1652   7.042  11.145   6.403
   92POPC   C4A 1653   7.083  10.871   5.995
   92POPC   C1B 1654   7.619  11.196   7.140
   92POPC   C2B 1655   7.800  11.204   6.753
   92POPC   C3B 1656   7.617  11.119   6.376
   92POPC   C4B 1657   7.377  11.311   6.064
   93POPC   NC3 1658   0.482  10.466   8.137
   93POPC   PO4 1659   0.095   9.914   7.921
   93POPC   GL1 1660   0.135  10.109   7.538
   93POPC   GL2 1661   0.442  10.307   7.589
   93POPC   C1A 1662   0.049  10.424   7.207
   93POPC   D2A 1663   0.227  10.617   6.820
   93POPC   C3A 1664   0.232  10.356   6.481
   93POPC   C4A 1665   0.593  10.067   6.510
   93POPC   C1B 1666   0.557  10.569   7.228
   93POPC   C2B 1667   0.820  10.733   6.919
   93POPC   C3B 1668   0.707  10.599   6.554
   93POPC   C4B 1669   0.515  10.629   6.164
   94POPC   NC3 1670   4.554   0.561   8.092
   94POPC   PO4 1671   4.034   0.158   7.878
   94POPC   GL1 1672   4.270   0.401   7.563
   94POPC   GL2 1673   4.603   0.330   7.651
   94POPC   C1A 1674   4.150   0.456   7.100
   94POPC   D2A 1675   3.848   0.312   6.733
   94POPC   C3A 1676   4.015   0.446   6.300
   94POPC   C4A 1677   4.379   0.702   6.159
   94POPC   C1B 1678   4.626   0.195   7.228
   94POPC   C2B 1679   4.559   0.236   6.787
   94POPC   C3B 1680   4.497   0.206   6.362
   94POPC   C4B 1681   4.426  11.353   6.091
   95POPC   NC3 1682   7.126   2.066   7.947
   95POPC   PO4 1683   7.784   2.105   8.092
   95POPC   GL1 1684   7.569   2.170   7.657
   95POPC   GL2 1685   7.416   1.844   7.536
   95POPC   C1A 1686   7.580   2.165   7.173
   95POPC   D2A 1687   7.412   1.972   6.780
   95POPC   C3A 1688   7.503   2.168   6.390
   95POPC   C4A 1689   7.465   2.019   5.976
   95POPC   C1B 1690   7.100   1.937   7.188
   95POPC   C2B 1691   6.902   2.018   6.736
   95POPC   C3B 1692   6.998   2.048   6.272
   95POPC   C4B 1693   6.735   2.133   5.912
   96POPC   NC3 1694  11.310   4.457   8.077
   96POPC   PO4 1695  11.042   3.831   8.299
   96POPC   GL1 1696  11.104   3.950   7.825
   96POPC   GL2 1697  11.004   4.258   7.714
   96POPC   C1A 1698  11.306   3.943   7.365
   96POPC   D2A 1699  11.175   4.090   6.905
   96POPC   C3A 1700  11.259   3.977   6.438
   96POPC   C4A 1701  10.949   4.206   6.140
   96POPC   C1B 1702  11.238   4.442   7.369
   96POPC   C2B 1703  11.213   4.605   6.952
   96POPC   C3B 1704  11.147   4.459   6.542
   96POPC   C4B 1705  11.405   4.451   6.180
   97POPC   NC3 1706   8.012   1.692   8.043
   97POPC   PO4 1707   8.534   2.191   8.024
   97POPC   GL1 1708   8.529   1.841   7.735
   97POPC   GL2 1709   8.268   1.607   7.638
   97POPC   C1A 1710   8.513   1.838   7.285
   97POPC   D2A 1711   8.262   1.957   6.932
   97POPC   C3A 1712   8.425   1.907   6.504
   97POPC   C4A 1713   8.274   1.648   6.205
   97POPC   C1B 1714   7.955   1.843   7.396
   97POPC   C2B 1715   7.793   1.712   7.002
   97POPC   C3B 1716   7.879   1.840   6.588
   97POPC   C4B 1717   8.022   2.108   6.260
   98POPC   NC3 1718  11.050   5.813   8.262
   98POPC   PO4 1719   0.112   5.972   7.862
   98POPC   GL1 1720  11.314   5.809   7.579
   98POPC   GL2 1721  11.124   5.570   7.733
   98POPC   C1A 1722  11.335   5.773   7.144
   98POPC   D2A 1723  11.201   5.561   6.776
   98POPC   C3A 1724  11.226   5.773   6.385
   98POPC   C4A 1725  11.017   5.990   6.046
   98POPC   C1B 1726  10.912   5.459   7.342
   98POPC   C2B 1727  10.712   5.543   6.957
   98POPC   C3B 1728  10.770   5.401   6.535
   98POPC   C4B 1729  10.797   5.564   6.140
   99POPC   NC3 1730   1.493   6.513   8.227
   99POPC   PO4 1731   0.899   6.343   7.976
   99POPC   GL1 1732   1.197   6.408   7.666
   99POPC   GL2 1733   1.291   6.747   7.713
   99POPC   C1A 1734   1.150   6.257   7.247
   99POPC   D2A 1735   1.303   6.109   6.829
   99POPC   C3A 1736   1.184   6.274   6.415
   99POPC   C4A 1737   1.487   6.405   6.101
   99POPC   C1B 1738   0.984   6.727   7.324
   99POPC   C2B 1739   1.153   6.635   6.889
   99POPC   C3B 1740   1.301   6.775   6.469
   99POPC   C4B 1741   1.082   6.718   6.090
  100POPC   NC3 1742   1.375   4.373   8.011
  100POPC   PO4 1743   0.745   4.596   8.104
  100POPC   GL1 1744   0.934   4.411   7.670
  100POPC   GL2 1745   1.272   4.147   7.567
  100POPC   C1A 1746   0.853   4.154   7.300
  100POPC   D2A 1747   1.110   4.078   6.916
  100POPC   C3A 1748   0.859   4.205   6.543
  100POPC   C4A 1749   1.012   4.156   6.122
  100POPC   C1B 1750   1.304   4.442   7.258
  100POPC   C2B 1751   1.260   4.550   6.836
  100POPC   C3B 1752   1.346   4.329   6.465
  100POPC   C4B 1753   1.410   4.534   6.095
  101POPC   NC3 1754   7.303   9.854   8.110
  101POPC   PO4 1755   7.273   9.259   7.923
  101POPC   GL1 1756   7.538   9.400   7.612
  101POPC   GL2 1757   7.518   9.729   7.670
  101POPC   C1A 1758   7.448   9.474   7.154
  101POPC   D2A 1759   7.527   9.384   6.726
  101POPC   C3A 1760   7.274   9.633   6.428
  101POPC   C4A 1761   7.133   9.435   6.066
  101POPC   C1B 1762   7.249   9.918   7.326
  101POPC   C2B 1763   7.148   9.963   6.850
  101POPC   C3B 1764   6.999  10.117   6.417
  101POPC   C4B 1765   7.026   9.940   5.974
  102POPC   NC3 1766   2.131   8.558   7.979
  102POPC   PO4 1767   1.503   8.511   8.094
  102POPC   GL1 1768   1.664   8.527   7.713
  102POPC   GL2 1769   1.751   8.877   7.749
  102POPC   C1A 1770   1.543   8.679   7.309
  102POPC   D2A 1771   1.662   8.909   6.905
  102POPC   C3A 1772   1.638   8.709   6.478
  102POPC   C4A 1773   1.775   8.443   6.104
  102POPC   C1B 1774   2.029   8.794   7.398
  102POPC   C2B 1775   2.172   8.881   7.030
  102POPC   C3B 1776   2.146   8.850   6.634
  102POPC   C4B 1777   2.130   8.805   6.225
  103POPC   NC3 1778   3.003   6.485   8.046
  103POPC   PO4 1779   2.458   5.995   8.107
  103POPC   GL1 1780   2.443   6.197   7.671
  103POPC   GL2 1781   2.635   6.478   7.674
  103POPC   C1A 1782   2.525   6.196   7.219
  103POPC   D2A 1783   2.489   6.077   6.765
  103POPC   C3A 1784   2.857   6.243   6.499
  103POPC   C4A 1785   2.951   6.413   6.100
  103POPC   C1B 1786   2.696   6.675   7.258
  103POPC   C2B 1787   2.633   6.544   6.842
  103POPC   C3B 1788   2.654   6.693   6.421
  103POPC   C4B 1789   2.860   6.930   6.088
  104POPC   NC3 1790   7.719   1.429   8.440
  104POPC   PO4 1791   7.177   1.586   7.955
  104POPC   GL1 1792   7.312   1.330   7.584
  104POPC   GL2 1793   7.481   1.011   7.704
  104POPC   C1A 1794   7.342   1.471   7.128
  104POPC   D2A 1795   7.473   1.462   6.669
  104POPC   C3A 1796   7.276   1.605   6.246
  104POPC   C4A 1797   7.439   1.490   5.788
  104POPC   C1B 1798   7.557   1.000   7.256
  104POPC   C2B 1799   7.240   0.998   6.925
  104POPC   C3B 1800   7.090   1.076   6.511
  104POPC   C4B 1801   7.473   1.134   6.267
  105POPC   NC3 1802   3.723  10.277   8.025
  105POPC   PO4 1803   3.271   9.838   8.150
  105POPC   GL1 1804   3.272  10.100   7.775
  105POPC   GL2 1805   3.258  10.487   7.794
  105POPC   C1A 1806   3.211  10.028   7.335
  105POPC   D2A 1807   3.363  10.228   6.957
  105POPC   C3A 1808   3.232  10.079   6.546
  105POPC   C4A 1809   3.511  10.155   6.238
  105POPC   C1B 1810   3.513  10.482   7.400
  105POPC   C2B 1811   3.760  10.539   7.013
  105POPC   C3B 1812   3.593  10.613   6.575
  105POPC   C4B 1813   3.845  10.559   6.194
  106POPC   NC3 1814   0.600   6.767   7.922
  106POPC   PO4 1815   0.228   6.409   8.297
  106POPC   GL1 1816   0.198   6.494   7.826
  106POPC   GL2 1817   0.465   6.328   7.642
  106POPC   C1A 1818   0.157   6.602   7.343
  106POPC   D2A 1819   0.140   6.410   6.915
  106POPC   C3A 1820   0.253   6.629   6.529
  106POPC   C4A 1821   0.265   6.634   6.090
  106POPC   C1B 1822   0.605   6.390   7.209
  106POPC   C2B 1823   0.618   6.728   6.903
  106POPC   C3B 1824   0.795   6.689   6.516
  106POPC   C4B 1825   0.691   6.379   6.236
  107POPC   NC3 1826   5.832  10.597   8.268
  107POPC   PO4 1827   5.604  11.247   8.099
  107POPC   GL1 1828   5.492  11.149   7.685
  107POPC   GL2 1829   5.736  11.368   7.593
  107POPC   C1A 1830   5.683  10.978   7.293
  107POPC   D2A 1831   5.960  10.834   6.987
  107POPC   C3A 1832   5.674  10.910   6.684
  107POPC   C4A 1833   5.689  10.951   6.271
  107POPC   C1B 1834   6.028  11.384   7.300
  107POPC   C2B 1835   5.863  11.361   6.920
  107POPC   C3B 1836   6.020  11.249   6.563
  107POPC   C4B 1837   5.985  11.394   6.209
  108POPC   NC3 1838   9.908   3.617   8.008
  108POPC   PO4 1839   9.912   3.029   7.850
  108POPC   GL1 1840   9.893   3.283   7.520
  108POPC   GL2 1841   9.766   3.608   7.516
  108POPC   C1A 1842   9.853   3.284   7.103
  108POPC   D2A 1843   9.875   3.128   6.745
  108POPC   C3A 1844   9.823   3.413   6.406
  108POPC   C4A 1845   9.634   3.380   6.005
  108POPC   C1B 1846   9.452   3.585   7.174
  108POPC   C2B 1847   9.414   3.403   6.756
  108POPC   C3B 1848   9.294   3.582   6.339
  108POPC   C4B 1849   9.469   3.854   6.001
  109POPC   NC3 1850   2.052   4.577   8.054
  109POPC   PO4 1851   2.036   3.979   8.129
  109POPC   GL1 1852   1.805   4.149   7.774
  109POPC   GL2 1853   2.134   4.181   7.640
  109POPC   C1A 1854   1.743   4.168   7.303
  109POPC   D2A 1855   1.641   4.172   6.846
  109POPC   C3A 1856   1.845   4.419   6.476
  109POPC   C4A 1857   1.895   4.771   6.151
  109POPC   C1B 1858   2.203   3.911   7.265
  109POPC   C2B 1859   2.156   4.037   6.833
  109POPC   C3B 1860   2.299   4.133   6.395
  109POPC   C4B 1861   2.014   4.164   6.050
  110POPC   NC3 1862  10.171   8.412   8.044
  110POPC   PO4 1863  10.351   9.093   8.196
  110POPC   GL1 1864  10.252   8.853   7.782
  110POPC   GL2 1865  10.548   8.654   7.682
  110POPC   C1A 1866  10.163   8.536   7.391
  110POPC   D2A 1867  10.415   8.515   6.988
  110POPC   C3A 1868  10.249   8.570   6.559
  110POPC   C4A 1869  10.285   8.758   6.144
  110POPC   C1B 1870  10.531   8.881   7.330
  110POPC   C2B 1871  10.738   8.976   6.974
  110POPC   C3B 1872  10.667   8.879   6.573
  110POPC   C4B 1873  10.722   9.044   6.202
  111POPC   NC3 1874   0.484   0.546   8.120
  111POPC   PO4 1875   0.322  11.392   8.108
  111POPC   GL1 1876   0.515   0.071   7.712
  111POPC   GL2 1877   0.480   0.440   7.594
  111POPC   C1A 1878   0.438   0.013   7.259
  111POPC   D2A 1879   0.378   0.260   6.867
  111POPC   C3A 1880   0.369   0.045   6.438
  111POPC   C4A 1881   0.459   0.140   5.968
  111POPC   C1B 1882   0.353   0.754   7.243
  111POPC   C2B 1883   0.366   0.806   6.788
  111POPC   C3B 1884   0.537   0.570   6.470
  111POPC   C4B 1885   0.822   0.507   6.167
  112POPC   NC3 1886  10.611   9.558   8.055
  112POPC   PO4 1887   9.934   9.787   8.211
  112POPC   GL1 1888  10.208   9.772   7.818
  112POPC   GL2 1889  10.347   9.416   7.669
  112POPC   C1A 1890  10.231   9.820   7.361
  112POPC   D2A 1891  10.027   9.632   7.011
  112POPC   C3A 1892  10.185   9.651   6.612
  112POPC   C4A 1893   9.990   9.673   6.182
  112POPC   C1B 1894  10.384   9.346   7.232
  112POPC   C2B 1895  10.240   9.143   6.853
  112POPC   C3B 1896  10.309   9.212   6.425
  112POPC   C4B 1897  10.454   9.483   6.082
  113POPC   NC3 1898   9.566  10.030   8.366
  113POPC   PO4 1899   9.295   9.580   7.968
  113POPC   GL1 1900   9.668   9.687   7.761
  113POPC   GL2 1901   9.851   9.439   7.638
  113POPC   C1A 1902   9.683   9.850   7.331
  113POPC   D2A 1903   9.519   9.722   6.930
  113POPC   C3A 1904   9.733   9.896   6.581
  113POPC   C4A 1905   9.531   9.919   6.192
  113POPC   C1B 1906   9.590   9.357   7.333
  113POPC   C2B 1907   9.728   9.245   6.958
  113POPC   C3B 1908   9.755   9.388   6.584
  113POPC   C4B 1909   9.569   9.362   6.226
  114POPC   NC3 1910  10.192  10.304   8.101
  114POPC   PO4 1911  10.849  10.114   8.267
  114POPC   GL1 1912  10.658  10.391   7.782
  114POPC   GL2 1913  10.362  10.250   7.633
  114POPC   C1A 1914  10.710  10.265   7.272
  114POPC   D2A 1915  10.510  10.422   6.906
  114POPC   C3A 1916  10.687  10.533   6.524
  114POPC   C4A 1917  10.740  10.210   6.285
  114POPC   C1B 1918  10.323  10.603   7.351
  114POPC   C2B 1919  10.087  10.713   6.970
  114POPC   C3B 1920  10.185  10.617   6.540
  114POPC   C4B 1921  10.346  10.465   6.112
  115POPC   NC3 1922  10.655   7.817   7.984
  115POPC   PO4 1923   9.975   7.963   8.018
  115POPC   GL1 1924  10.134   8.055   7.633
  115POPC   GL2 1925  10.467   8.138   7.622
  115POPC   C1A 1926  10.192   8.066   7.202
  115POPC   D2A 1927   9.995   8.246   6.889
  115POPC   C3A 1928  10.066   8.074   6.511
  115POPC   C4A 1929  10.072   8.284   6.150
  115POPC   C1B 1930  10.682   7.906   7.287
  115POPC   C2B 1931  10.602   8.043   6.858
  115POPC   C3B 1932  10.554   8.170   6.451
  115POPC   C4B 1933  10.525   7.890   6.120
  116POPC   NC3 1934   0.014   7.576   7.958
  116POPC   PO4 1935   0.634   7.233   7.902
  116POPC   GL1 1936   0.323   7.354   7.633
  116POPC   GL2 1937   0.168   7.011   7.664
  116POPC   C1A 1938   0.295   7.617   7.248
  116POPC   D2A 1939   0.053   7.594   6.846
  116POPC   C3A 1940   0.320   7.589   6.465
  116POPC   C4A 1941   0.653   7.450   6.176
  116POPC   C1B 1942   0.454   7.036   7.276
  116POPC   C2B 1943   0.474   7.273   6.883
  116POPC   C3B 1944   0.491   7.089   6.492
  116POPC   C4B 1945   0.666   6.967   6.088
  117POPC   NC3 1946   8.449   9.795   8.082
  117POPC   PO4 1947   7.729   9.662   8.189
  117POPC   GL1 1948   8.037   9.564   7.830
  117POPC   GL2 1949   8.018   9.875   7.726
  117POPC   C1A 1950   8.360   9.593   7.429
  117POPC   D2A 1951   8.452   9.652   6.942
  117POPC   C3A 1952   8.220   9.513   6.537
  117POPC   C4A 1953   8.140   9.718   6.183
  117POPC   C1B 1954   7.879   9.668   7.335
  117POPC   C2B 1955   7.931   9.692   6.910
  117POPC   C3B 1956   7.758   9.795   6.510
  117POPC   C4B 1957   7.709   9.422   6.226
  118POPC   NC3 1958   3.591   0.389   7.923
  118POPC   PO4 1959   3.796   1.039   7.953
  118POPC   GL1 1960   3.769   0.710   7.588
  118POPC   GL2 1961   3.777   0.347   7.457
  118POPC   C1A 1962   3.554   0.711   7.184
  118POPC   D2A 1963   3.342   0.544   6.816
  118POPC   C3A 1964   3.594   0.717   6.504
  118POPC   C4A 1965   3.644   0.755   6.050
  118POPC   C1B 1966   3.408   0.217   7.230
  118POPC   C2B 1967   3.376  11.449   6.905
  118POPC   C3B 1968   3.225   0.029   6.513
  118POPC   C4B 1969   3.357   0.367   6.249
  119POPC   NC3 1970  11.229   2.336   8.178
  119POPC   PO4 1971  10.669   2.628   8.189
  119POPC   GL1 1972  10.886   2.527   7.807
  119POPC   GL2 1973  11.223   2.711   7.840
  119POPC   C1A 1974  10.990   2.686   7.394
  119POPC   D2A 1975  10.842   2.754   7.020
  119POPC   C3A 1976  10.918   2.415   6.769
  119POPC   C4A 1977  10.910   2.411   6.319
  119POPC   C1B 1978  11.478   2.702   7.473
  119POPC   C2B 1979  11.420   2.742   7.033
  119POPC   C3B 1980  11.227   2.796   6.645
  119POPC   C4B 1981  11.415   2.720   6.288
  120POPC   NC3 1982   8.123  11.438   8.097
  120POPC   PO4 1983   7.757  10.902   8.205
  120POPC   GL1 1984   8.019  11.137   7.718
  120POPC   GL2 1985   7.842  11.404   7.544
  120POPC   C1A 1986   8.096  11.004   7.249
  120POPC   D2A 1987   8.297  11.112   6.844
  120POPC   C3A 1988   8.164  11.069   6.383
  120POPC   C4A 1989   8.006  10.808   6.050
  120POPC   C1B 1990   8.225  11.491   7.354
  120POPC   C2B 1991   8.388   0.098   6.967
  120POPC   C3B 1992   8.176   0.038   6.596
  120POPC   C4B 1993   8.250   0.063   6.195
  121POPC   NC3 1994   6.003   1.575   8.083
  121POPC   PO4 1995   5.337   1.582   8.083
  121POPC   GL1 1996   5.674   1.425   7.731
  121POPC   GL2 1997   5.906   1.117   7.677
  121POPC   C1A 1998   5.907   1.458   7.322
  121POPC   D2A 1999   5.760   1.357   6.919
  121POPC   C3A 2000   5.952   1.344   6.515
  121POPC   C4A 2001   5.737   1.315   6.097
  121POPC   C1B 2002   5.854   0.943   7.233
  121POPC   C2B 2003   5.592   0.878   6.862
  121POPC   C3B 2004   5.671   0.939   6.427
  121POPC   C4B 2005   6.095   0.976   6.156
  122POPC   NC3 2006  10.750   1.511   7.877
  122POPC   PO4 2007  11.341   1.895   8.080
  122POPC   GL1 2008  11.322   2.186   7.702
  122POPC   GL2 2009  11.230   1.871   7.556
  122POPC   C1A 2010  11.294   2.280   7.244
  122POPC   D2A 2011  11.481   2.123   6.892
  122POPC   C3A 2012  11.377   2.284   6.543
  122POPC   C4A 2013  11.353   2.241   6.130
  122POPC   C1B 2014  11.141   1.790   7.125
  122POPC   C2B 2015  11.029   1.928   6.715
  122POPC   C3B 2016  10.994   1.872   6.282
  122POPC   C4B 2017  10.906   1.684   5.880
  123POPC   NC3 2018   1.300   3.480   8.012
  123POPC   PO4 2019   1.047   4.052   8.001
  123POPC   GL1 2020   0.956   3.728   7.669
  123POPC   GL2 2021   1.290   3.597   7.515
  123POPC   C1A 2022   0.863   3.551   7.252
  123POPC   D2A 2023   1.139   3.549   6.902
  123POPC   C3A 2024   0.994   3.701   6.524
  123POPC   C4A 2025   1.142   3.659   6.121
  123POPC   C1B 2026   1.379   3.231   7.234
  123POPC   C2B 2027   1.500   3.187   6.775
  123POPC   C3B 2028   1.232   3.235   6.408
  123POPC   C4B 2029   1.335   3.213   5.928
  124POPC   NC3 2030   9.288  10.032   7.859
  124POPC   PO4 2031   9.747  10.434   8.228
  124POPC   GL1 2032   9.820  10.485   7.743
  124POPC   GL2 2033   9.855  10.154   7.713
  124POPC   C1A 2034   9.609  10.578   7.303
  124POPC   D2A 2035   9.570  10.237   6.960
  124POPC   C3A 2036   9.407  10.284   6.530
  124POPC   C4A 2037   9.389  10.660   6.313
  124POPC   C1B 2038   9.984  10.252   7.280
  124POPC   C2B 2039  10.109  10.115   6.883
  124POPC   C3B 2040  10.217  10.118   6.454
  124POPC   C4B 2041   9.875  10.297   6.234
  125POPC   NC3 2042  11.039   0.595   7.970
  125POPC   PO4 2043   0.138   0.850   8.049
  125POPC   GL1 2044  11.497   0.523   7.721
  125POPC   GL2 2045  11.287   0.201   7.709
  125POPC   C1A 2046   0.054   0.354   7.291
  125POPC   D2A 2047  11.418   0.554   6.920
  125POPC   C3A 2048   0.041   0.484   6.521
  125POPC   C4A 2049  11.498   0.255   6.174
  125POPC   C1B 2050  11.048   0.330   7.330
  125POPC   C2B 2051  10.942   0.240   6.913
  125POPC   C3B 2052  11.068   0.278   6.497
  125POPC   C4B 2053  11.063   0.528   6.190
  126POPC   NC3 2054   0.495   6.093   8.091
  126POPC   PO4 2055  11.496   5.612   8.277
  126POPC   GL1 2056   0.155   5.482   7.774
  126POPC   GL2 2057   0.497   5.640   7.752
  126POPC   C1A 2058   0.303   5.579   7.304
  126POPC   D2A 2059   0.327   5.886   6.991
  126POPC   C3A 2060   0.210   5.656   6.630
  126POPC   C4A 2061   0.371   5.631   6.233
  126POPC   C1B 2062   0.699   5.919   7.424
  126POPC   C2B 2063   0.841   5.953   6.992
  126POPC   C3B 2064   0.769   5.901   6.547
  126POPC   C4B 2065   0.818   5.898   6.111
  127POPC   NC3 2066  10.380   5.951   8.046
  127POPC   PO4 2067  10.901   6.254   8.257
  127POPC   GL1 2068  10.877   6.011   7.814
  127POPC   GL2 2069  10.618   5.740   7.664
  127POPC   C1A 2070  10.884   5.968   7.322
  127POPC   D2A 2071  10.960   5.998   6.877
  127POPC   C3A 2072  10.734   5.907   6.521
  127POPC   C4A 2073  10.568   6.218   6.227
  127POPC   C1B 2074  10.388   5.868   7.320
  127POPC   C2B 2075  10.353   5.913   6.899
  127POPC   C3B 2076  10.184   6.027   6.523
  127POPC   C4B 2077  10.329   5.754   6.261
  128POPC   NC3 2078   2.070   6.327   7.983
  128POPC   PO4 2079   1.748   6.863   8.069
  128POPC   GL1 2080   1.820   6.736   7.637
  128POPC   GL2 2081   1.708   6.434   7.645
  128POPC   C1A 2082   1.669   6.640   7.176
  128POPC   D2A 2083   1.647   6.493   6.733
  128POPC   C3A 2084   1.819   6.765   6.405
  128POPC   C4A 2085   2.236   6.947   6.321
  128POPC   C1B 2086   2.059   6.345   7.355
  128POPC   C2B 2087   2.140   6.411   6.951
  128POPC   C3B 2088   2.197   6.443   6.527
  128POPC   C4B 2089   2.000   6.369   6.126
  129POPC   NC3 2090  10.327   2.951   8.075
  129POPC   PO4 2091  10.031   2.303   8.110
  129POPC   GL1 2092  10.272   2.539   7.810
  129POPC   GL2 2093  10.045   2.617   7.583
  129POPC   C1A 2094  10.510   2.566   7.403
  129POPC   D2A 2095  10.444   2.413   6.976
  129POPC   C3A 2096  10.479   2.629   6.555
  129POPC   C4A 2097  10.301   2.526   6.127
  129POPC   C1B 2098  10.202   2.938   7.282
  129POPC   C2B 2099  10.370   3.005   6.913
  129POPC   C3B 2100  10.306   3.125   6.493
  129POPC   C4B 2101  10.468   3.006   6.135
  130POPC   NC3 2102   4.352  10.524   7.928
  130POPC   PO4 2103   3.723  10.725   8.056
  130POPC   GL1 2104   3.910  10.671   7.696
  130POPC   GL2 2105   3.986  10.359   7.598
  130POPC   C1A 2106   3.982  10.885   7.359
  130POPC   D2A 2107   4.221  10.933   7.001
  130POPC   C3A 2108   4.105  10.718   6.648
  130POPC   C4A 2109   4.359  10.631   6.291
  130POPC   C1B 2110   4.239  10.452   7.253
  130POPC   C2B 2111   4.233  10.277   6.864
  130POPC   C3B 2112   4.545  10.249   6.566
  130POPC   C4B 2113   4.591  10.176   6.143
  131POPC   NC3 2114   1.004   4.982   8.092
  131POPC   PO4 2115   1.635   4.759   8.001
  131POPC   GL1 2116   1.260   4.808   7.643
  131POPC   GL2 2117   1.008   5.090   7.615
  131POPC   C1A 2118   0.997   4.834   7.200
  131POPC   D2A 2119   0.908   4.943   6.771
  131POPC   C3A 2120   1.004   4.703   6.416
  131POPC   C4A 2121   1.106   4.981   6.156
  131POPC   C1B 2122   1.310   5.222   7.296
  131POPC   C2B 2123   1.401   5.041   6.899
  131POPC   C3B 2124   1.494   4.889   6.490
  131POPC   C4B 2125   1.488   5.275   6.284
  132POPC   NC3 2126   5.326   2.035   8.049
  132POPC   PO4 2127   5.972   2.062   8.118
  132POPC   GL1 2128   5.933   1.899   7.675
  132POPC   GL2 2129   5.584   1.912   7.626
  132POPC   C1A 2130   5.860   1.943   7.192
  132POPC   D2A 2131   5.931   1.819   6.751
  132POPC   C3A 2132   6.121   2.134   6.471
  132POPC   C4A 2133   5.991   2.471   6.197
  132POPC   C1B 2134   5.402   1.623   7.322
  132POPC   C2B 2135   5.271   1.473   6.898
  132POPC   C3B 2136   5.463   1.526   6.476
  132POPC   C4B 2137   5.806   1.791   6.240
  133POPC   NC3 2138   0.006  11.226   7.806
  133POPC   PO4 2139   0.206  10.836   8.291
  133POPC   GL1 2140   0.239  10.781   7.754
  133POPC   GL2 2141   0.448  11.062   7.610
  133POPC   C1A 2142   0.150  10.918   7.249
  133POPC   D2A 2143  11.473  11.049   6.823
  133POPC   C3A 2144   0.181  10.937   6.395
  133POPC   C4A 2145   0.150  10.809   5.888
  133POPC   C1B 2146   0.737  11.082   7.286
  133POPC   C2B 2147   0.772  11.287   6.909
  133POPC   C3B 2148   0.656  11.115   6.520
  133POPC   C4B 2149   0.529  11.139   6.072
  134POPC   NC3 2150   2.292   3.596   8.069
  134POPC   PO4 2151   1.683   3.248   7.935
  134POPC   GL1 2152   1.932   3.322   7.571
  134POPC   GL2 2153   1.978   3.667   7.642
  134POPC   C1A 2154   1.868   3.141   7.148
  134POPC   D2A 2155   2.011   3.018   6.756
  134POPC   C3A 2156   1.938   3.347   6.475
  134POPC   C4A 2157   1.620   3.507   6.222
  134POPC   C1B 2158   1.733   3.650   7.233
  134POPC   C2B 2159   1.659   3.669   6.787
  134POPC   C3B 2160   1.867   3.870   6.447
  134POPC   C4B 2161   2.164   3.686   6.132
  135POPC   NC3 2162   1.607   2.878   8.191
  135POPC   PO4 2163   2.221   2.443   8.039
  135POPC   GL1 2164   1.891   2.526   7.801
  135POPC   GL2 2165   1.987   2.861   7.798
  135POPC   C1A 2166   1.780   2.590   7.360
  135POPC   D2A 2167   1.824   2.345   6.968
  135POPC   C3A 2168   1.831   2.566   6.582
  135POPC   C4A 2169   1.648   2.480   6.179
  135POPC   C1B 2170   2.196   2.860   7.406
  135POPC   C2B 2171   2.303   2.527   7.081
  135POPC   C3B 2172   2.333   2.518   6.618
  135POPC   C4B 2173   2.172   2.819   6.303
  136POPC   NC3 2174   2.768   8.873   8.035
  136POPC   PO4 2175   2.501   8.424   7.757
  136POPC   GL1 2176   2.470   8.902   7.612
  136POPC   GL2 2177   2.781   9.116   7.571
  136POPC   C1A 2178   2.411   9.234   7.260
  136POPC   D2A 2179   2.595   9.117   6.845
  136POPC   C3A 2180   2.539   9.095   6.411
  136POPC   C4A 2181   2.584   8.870   5.989
  136POPC   C1B 2182   2.723   8.784   7.209
  136POPC   C2B 2183   2.571   8.589   6.799
  136POPC   C3B 2184   2.804   8.664   6.409
  136POPC   C4B 2185   3.047   9.067   6.274
  137POPC   NC3 2186   2.011   2.044   8.163
  137POPC   PO4 2187   1.506   1.587   8.049
  137POPC   GL1 2188   1.873   1.652   7.756
  137POPC   GL2 2189   2.133   1.903   7.698
  137POPC   C1A 2190   1.825   1.604   7.323
  137POPC   D2A 2191   1.584   1.810   6.975
  137POPC   C3A 2192   1.686   1.690   6.547
  137POPC   C4A 2193   1.752   1.955   6.175
  137POPC   C1B 2194   2.002   2.090   7.365
  137POPC   C2B 2195   2.095   1.893   6.968
  137POPC   C3B 2196   2.024   2.082   6.578
  137POPC   C4B 2197   2.138   2.299   6.194
  138POPC   NC3 2198   1.744  11.101   8.337
  138POPC   PO4 2199   1.697   0.180   8.032
  138POPC   GL1 2200   1.680  11.306   7.767
  138POPC   GL2 2201   1.969  11.063   7.799
  138POPC   C1A 2202   1.699  11.182   7.329
  138POPC   D2A 2203   1.918  11.294   6.948
  138POPC   C3A 2204   1.754  11.208   6.554
  138POPC   C4A 2205   1.748   0.023   6.254
  138POPC   C1B 2206   2.220  10.985   7.417
  138POPC   C2B 2207   2.202  10.863   6.989
  138POPC   C3B 2208   2.294  11.085   6.625
  138POPC   C4B 2209   2.138  11.033   6.238
  139POPC   NC3 2210   4.499  11.486   8.038
  139POPC   PO4 2211   4.721  10.781   8.048
  139POPC   GL1 2212   4.462  10.975   7.706
  139POPC   GL2 2213   4.129  11.147   7.781
  139POPC   C1A 2214   4.636  11.003   7.294
  139POPC   D2A 2215   4.632  11.248   6.945
  139POPC   C3A 2216   4.527  11.034   6.583
  139POPC   C4A 2217   4.738  11.003   6.233
  139POPC   C1B 2218   4.272  11.337   7.376
  139POPC   C2B 2219   4.153  11.453   6.971
  139POPC   C3B 2220   4.159  11.386   6.552
  139POPC   C4B 2221   4.062  11.049   6.270
  140POPC   NC3 2222   9.476   1.183   8.072
  140POPC   PO4 2223  10.072   1.271   8.066
  140POPC   GL1 2224   9.768   1.306   7.671
  140POPC   GL2 2225   9.487   1.028   7.602
  140POPC   C1A 2226   9.669   1.462   7.244
  140POPC   D2A 2227   9.350   1.472   6.893
  140POPC   C3A 2228   9.510   1.438   6.482
  140POPC   C4A 2229   9.867   1.413   6.248
  140POPC   C1B 2230   9.628   0.957   7.199
  140POPC   C2B 2231   9.714   1.118   6.811
  140POPC   C3B 2232   9.780   0.948   6.404
  140POPC   C4B 2233   9.420   0.832   6.153
  141POPC   NC3 2234   2.866  10.037   8.280
  141POPC   PO4 2235   2.724  10.668   8.048
  141POPC   GL1 2236   2.734  10.574   7.653
  141POPC   GL2 2237   2.798  10.233   7.611
  141POPC   C1A 2238   2.466  10.536   7.298
  141POPC   D2A 2239   2.499  10.365   6.902
  141POPC   C3A 2240   2.426  10.594   6.555
  141POPC   C4A 2241   2.504  10.417   6.177
  141POPC   C1B 2242   2.967  10.466   7.209
  141POPC   C2B 2243   2.979  10.490   6.738
  141POPC   C3B 2244   3.017  10.545   6.317
  141POPC   C4B 2245   2.965  10.205   6.094
  142POPC   NC3 2246   6.953   0.209   7.969
  142POPC   PO4 2247   7.715   0.167   7.987
  142POPC   GL1 2248   7.426   0.200   7.646
  142POPC   GL2 2249   7.304   0.521   7.728
  142POPC   C1A 2250   7.356   0.143   7.183
  142POPC   D2A 2251   7.442   0.089   6.719
  142POPC   C3A 2252   7.208   0.199   6.347
  142POPC   C4A 2253   7.394   0.289   5.906
  142POPC   C1B 2254   7.195   0.640   7.311
  142POPC   C2B 2255   7.135   0.501   6.883
  142POPC   C3B 2256   7.377   0.638   6.538
  142POPC   C4B 2257   7.213   0.705   6.150
  143POPC   NC3 2258   2.963   9.628   7.862
  143POPC   PO4 2259   2.427   9.969   8.102
  143POPC   GL1 2260   2.361   9.920   7.664
  143POPC   GL2 2261   2.513   9.596   7.593
  143POPC   C1A 2262   2.538   9.988   7.244
  143POPC   D2A 2263   2.877  10.018   6.934
  143POPC   C3A 2264   2.695  10.070   6.514
  143POPC   C4A 2265   2.418   9.896   6.167
  143POPC   C1B 2266   2.836   9.561   7.224
  143POPC   C2B 2267   2.871   9.536   6.770
  143POPC   C3B 2268   2.791   9.581   6.347
  143POPC   C4B 2269   2.718   9.344   6.004
  144POPC   NC3 2270   1.675   7.310   7.972
  144POPC   PO4 2271   1.950   7.819   8.332
  144POPC   GL1 2272   1.887   7.853   7.845
  144POPC   GL2 2273   2.082   8.108   7.734
  144POPC   C1A 2274   1.787   7.806   7.355
  144POPC   D2A 2275   1.934   7.929   6.895
  144POPC   C3A 2276   1.765   7.724   6.480
  144POPC   C4A 2277   1.796   7.876   6.035
  144POPC   C1B 2278   1.922   8.297   7.334
  144POPC   C2B 2279   2.021   8.429   6.909
  144POPC   C3B 2280   2.115   8.347   6.482
  144POPC   C4B 2281   2.237   8.136   6.093
  145POPC   NC3 2282   2.592   2.761   8.061
  145POPC   PO4 2283   3.099   2.335   8.224
  145POPC   GL1 2284   2.816   2.528   7.702
  145POPC   GL2 2285   2.494   2.503   7.588
  145POPC   C1A 2286   2.866   2.390   7.217
  145POPC   D2A 2287   2.787   2.547   6.831
  145POPC   C3A 2288   2.887   2.370   6.460
  145POPC   C4A 2289   3.057   2.462   6.082
  145POPC   C1B 2290   2.670   2.845   7.266
  145POPC   C2B 2291   2.514   2.960   6.839
  145POPC   C3B 2292   2.695   2.851   6.397
  145POPC   C4B 2293   2.531   2.987   5.958
  146POPC   NC3 2294  11.205   1.515   8.317
  146POPC   PO4 2295  10.820   1.031   8.072
  146POPC   GL1 2296  11.009   1.115   7.658
  146POPC   GL2 2297  11.385   1.114   7.683
  146POPC   C1A 2298  11.075   1.278   7.206
  146POPC   D2A 2299  11.143   1.440   6.748
  146POPC   C3A 2300  10.988   1.319   6.369
  146POPC   C4A 2301  10.687   1.009   6.377
  146POPC   C1B 2302  11.288   0.817   7.344
  146POPC   C2B 2303  10.987   0.803   6.983
  146POPC   C3B 2304  11.154   0.865   6.563
  146POPC   C4B 2305  11.441   0.868   6.198
  147POPC   NC3 2306   1.903   1.283   8.097
  147POPC   PO4 2307   2.342   1.711   8.120
  147POPC   GL1 2308   2.296   1.400   7.737
  147POPC   GL2 2309   2.062   1.102   7.660
  147POPC   C1A 2310   2.360   1.475   7.274
  147POPC   D2A 2311   2.393   1.255   6.847
  147POPC   C3A 2312   2.222   1.593   6.548
  147POPC   C4A 2313   1.987   1.517   6.141
  147POPC   C1B 2314   2.047   1.085   7.221
  147POPC   C2B 2315   1.890   1.345   6.885
  147POPC   C3B 2316   1.884   1.174   6.485
  147POPC   C4B 2317   1.603   1.158   6.141
  148POPC   NC3 2318  11.490  11.226   8.406
  148POPC   PO4 2319  11.248  10.851   7.886
  148POPC   GL1 2320  11.185  11.042   7.485
  148POPC   GL2 2321  10.963  11.285   7.675
  148POPC   C1A 2322  11.357  11.389   7.205
  148POPC   D2A 2323  11.416   0.055   6.791
  148POPC   C3A 2324  11.342  11.323   6.398
  148POPC   C4A 2325   0.060  11.283   6.002
  148POPC   C1B 2326  10.844  11.341   7.278
  148POPC   C2B 2327  10.983  11.208   6.918
  148POPC   C3B 2328  10.862  11.324   6.558
  148POPC   C4B 2329  10.873  11.151   6.193
  149POPC   NC3 2330   5.230   8.741   8.012
  149POPC   PO4 2331   4.658   8.414   8.074
  149POPC   GL1 2332   4.816   8.646   7.682
  149POPC   GL2 2333   4.894   9.014   7.725
  149POPC   C1A 2334   5.047   8.779   7.290
  149POPC   D2A 2335   4.924   8.941   6.894
  149POPC   C3A 2336   5.004   8.788   6.509
  149POPC   C4A 2337   4.709   8.465   6.375
  149POPC   C1B 2338   4.861   9.262   7.334
  149POPC   C2B 2339   4.741   9.407   6.923
  149POPC   C3B 2340   4.863   9.344   6.489
  149POPC   C4B 2341   5.106   9.464   6.105
  150POPC   NC3 2342   4.380   9.523   8.065
  150POPC   PO4 2343   4.485  10.112   8.055
  150POPC   GL1 2344   4.175   9.897   7.733
  150POPC   GL2 2345   4.084   9.521   7.657
  150POPC   C1A 2346   4.232   9.885   7.262
  150POPC   D2A 2347   4.542   9.870   6.906
  150POPC   C3A 2348   4.311   9.818   6.498
  150POPC   C4A 2349   4.070  10.081   6.215
  150POPC   C1B 2350   4.336   9.361   7.304
  150POPC   C2B 2351   4.217   9.470   6.879
  150POPC   C3B 2352   4.191   9.325   6.451
  150POPC   C4B 2353   4.129   9.527   6.057
  151POPC   NC3 2354   8.962   1.997   8.014
  151POPC   PO4 2355   9.211   1.431   7.784
  151POPC   GL1 2356   8.994   1.714   7.560
  151POPC   GL2 2357   8.956   2.089   7.525
  151POPC   C1A 2358   9.001   1.723   7.155
  151POPC   D2A 2359   8.758   1.764   6.849
  151POPC   C3A 2360   9.012   1.720   6.545
  151POPC   C4A 2361   8.817   1.774   6.178
  151POPC   C1B 2362   8.840   2.206   7.115
  151POPC   C2B 2363   9.118   2.164   6.769
  151POPC   C3B 2364   9.089   2.202   6.328
  151POPC   C4B 2365   8.686   2.300   6.148
  152POPC   NC3 2366  10.572  11.301   8.017
  152POPC   PO4 2367  10.258  10.759   7.994
  152POPC   GL1 2368  10.464  10.995   7.627
  152POPC   GL2 2369  10.412  11.347   7.560
  152POPC   C1A 2370  10.427  11.062   7.171
  152POPC   D2A 2371  10.577  10.919   6.851
  152POPC   C3A 2372  10.423  11.088   6.555
  152POPC   C4A 2373  10.407  10.943   6.193
  152POPC   C1B 2374  10.056   0.023   7.373
  152POPC   C2B 2375  10.024   0.184   6.980
  152POPC   C3B 2376  10.059   0.065   6.565
  152POPC   C4B 2377  10.238  11.412   6.203
  153POPC   NC3 2378   2.017   9.519   8.168
  153POPC   PO4 2379   2.328   8.974   8.083
  153POPC   GL1 2380   2.108   9.253   7.715
  153POPC   GL2 2381   1.912   9.592   7.688
  153POPC   C1A 2382   1.860   9.257   7.307
  153POPC   D2A 2383   1.968   9.339   6.884
  153POPC   C3A 2384   1.847   9.217   6.464
  153POPC   C4A 2385   2.161   9.311   6.170
  153POPC   C1B 2386   1.811   9.779   7.303
  153POPC   C2B 2387   2.074   9.854   6.949
  153POPC   C3B 2388   2.152   9.681   6.552
  153POPC   C4B 2389   1.925   9.751   6.193
  154POPC   NC3 2390   6.074  11.292   7.955
  154POPC   PO4 2391   6.204  10.658   7.959
  154POPC   GL1 2392   6.252  10.948   7.585
  154POPC   GL2 2393   6.492  11.233   7.601
  154POPC   C1A 2394   6.416  11.028   7.161
  154POPC   D2A 2395   6.688  11.044   6.808
  154POPC   C3A 2396   6.342  10.889   6.616
  154POPC   C4A 2397   6.181  10.856   6.204
  154POPC   C1B 2398   6.842  11.289   7.258
  154POPC   C2B 2399   6.925   0.027   6.875
  154POPC   C3B 2400   6.729   0.048   6.468
  154POPC   C4B 2401   6.480  11.258   6.269
  155POPC   NC3 2402   8.394   8.797   8.106
  155POPC   PO4 2403   9.006   8.824   8.164
  155POPC   GL1 2404   8.807   8.932   7.774
  155POPC   GL2 2405   8.610   8.658   7.656
  155POPC   C1A 2406   8.753   9.066   7.339
  155POPC   D2A 2407   8.590   8.838   6.973
  155POPC   C3A 2408   8.474   9.103   6.665
  155POPC   C4A 2409   8.685   9.229   6.305
  155POPC   C1B 2410   9.003   8.615   7.397
  155POPC   C2B 2411   9.057   8.639   6.935
  155POPC   C3B 2412   8.924   8.867   6.572
  155POPC   C4B 2413   8.810   8.755   6.138
  156POPC   NC3 2414   4.116   1.361   7.932
  156POPC   PO4 2415   4.634   1.002   7.970
  156POPC   GL1 2416   4.495   1.220   7.622
  156POPC   GL2 2417   4.438   0.906   7.457
  156POPC   C1A 2418   4.351   1.366   7.224
  156POPC   D2A 2419   4.358   1.103   6.884
  156POPC   C3A 2420   4.392   1.337   6.555
  156POPC   C4A 2421   4.439   1.353   6.172
  156POPC   C1B 2422   4.044   0.947   7.260
  156POPC   C2B 2423   3.856   1.011   6.862
  156POPC   C3B 2424   4.057   0.952   6.470
  156POPC   C4B 2425   4.036   1.073   6.044
  157POPC   NC3 2426   0.887   8.154   3.989
  157POPC   PO4 2427   1.434   7.776   3.937
  157POPC   GL1 2428   1.418   7.958   4.312
  157POPC   GL2 2429   1.290   8.277   4.280
  157POPC   C1A 2430   1.301   7.856   4.718
  157POPC   D2A 2431   1.220   7.569   5.045
  157POPC   C3A 2432   1.292   7.846   5.381
  157POPC   C4A 2433   1.358   7.761   5.790
  157POPC   C1B 2434   0.992   8.272   4.627
  157POPC   C2B 2435   0.988   8.132   5.034
  157POPC   C3B 2436   0.873   8.136   5.446
  157POPC   C4B 2437   1.100   8.198   5.787
  158POPC   NC3 2438   3.559   1.770   4.116
  158POPC   PO4 2439   4.078   2.227   3.879
  158POPC   GL1 2440   3.826   2.178   4.362
  158POPC   GL2 2441   3.497   2.027   4.547
  158POPC   C1A 2442   3.851   2.250   4.798
  158POPC   D2A 2443   3.532   2.028   5.070
  158POPC   C3A 2444   3.548   2.187   5.480
  158POPC   C4A 2445   3.476   2.188   5.904
  158POPC   C1B 2446   3.459   1.606   4.748
  158POPC   C2B 2447   3.592   1.421   5.137
  158POPC   C3B 2448   3.719   1.665   5.469
  158POPC   C4B 2449   3.341   1.745   5.715
  159POPC   NC3 2450   0.719   5.680   3.965
  159POPC   PO4 2451   0.876   6.287   3.925
  159POPC   GL1 2452   0.603   6.147   4.251
  159POPC   GL2 2453   0.366   5.889   4.248
  159POPC   C1A 2454   0.647   5.968   4.675
  159POPC   D2A 2455   0.771   5.834   5.099
  159POPC   C3A 2456   0.503   5.796   5.457
  159POPC   C4A 2457   0.612   5.555   5.800
  159POPC   C1B 2458   0.323   5.592   4.635
  159POPC   C2B 2459   0.173   5.732   5.055
  159POPC   C3B 2460   0.028   5.568   5.477
  159POPC   C4B 2461  11.467   5.737   5.912
  160POPC   NC3 2462   2.039   4.553   4.119
  160POPC   PO4 2463   1.714   4.104   3.805
  160POPC   GL1 2464   1.594   4.070   4.252
  160POPC   GL2 2465   1.915   4.081   4.456
  160POPC   C1A 2466   1.482   4.294   4.639
  160POPC   D2A 2467   1.786   4.423   4.916
  160POPC   C3A 2468   1.680   4.331   5.334
  160POPC   C4A 2469   1.757   4.468   5.742
  160POPC   C1B 2470   2.210   3.799   4.745
  160POPC   C2B 2471   2.276   3.821   5.218
  160POPC   C3B 2472   2.147   4.138   5.556
  160POPC   C4B 2473   2.275   4.533   5.823
  161POPC   NC3 2474   0.477   1.492   4.185
  161POPC   PO4 2475   0.435   1.000   3.739
  161POPC   GL1 2476   0.377   0.981   4.257
  161POPC   GL2 2477   0.513   1.164   4.561
  161POPC   C1A 2478   0.109   0.902   4.689
  161POPC   D2A 2479   0.233   1.185   5.038
  161POPC   C3A 2480   0.391   1.057   5.428
  161POPC   C4A 2481   0.236   1.096   5.851
  161POPC   C1B 2482   0.603   1.528   4.844
  161POPC   C2B 2483   0.576   1.522   5.284
  161POPC   C3B 2484   0.595   1.426   5.696
  161POPC   C4B 2485   0.734   0.977   5.847
  162POPC   NC3 2486   2.276   1.524   4.097
  162POPC   PO4 2487   2.549   0.892   3.914
  162POPC   GL1 2488   2.394   1.056   4.325
  162POPC   GL2 2489   2.034   1.104   4.321
  162POPC   C1A 2490   2.338   0.900   4.768
  162POPC   D2A 2491   2.063   0.914   5.159
  162POPC   C3A 2492   2.253   1.003   5.550
  162POPC   C4A 2493   2.070   1.008   5.996
  162POPC   C1B 2494   1.952   1.258   4.749
  162POPC   C2B 2495   1.834   1.363   5.188
  162POPC   C3B 2496   1.878   1.344   5.634
  162POPC   C4B 2497   1.580   1.583   5.813
  163POPC   NC3 2498   1.264   3.289   4.077
  163POPC   PO4 2499   0.819   3.662   3.748
  163POPC   GL1 2500   0.857   3.495   4.299
  163POPC   GL2 2501   1.168   3.537   4.515
  163POPC   C1A 2502   0.842   3.348   4.799
  163POPC   D2A 2503   0.988   3.558   5.216
  163POPC   C3A 2504   0.909   3.441   5.675
  163POPC   C4A 2505   0.847   3.219   6.084
  163POPC   C1B 2506   1.453   3.303   4.723
  163POPC   C2B 2507   1.525   3.453   5.082
  163POPC   C3B 2508   1.491   3.364   5.461
  163POPC   C4B 2509   1.341   3.701   5.674
  164POPC   NC3 2510   9.613   7.504   3.856
  164POPC   PO4 2511   9.800   6.978   4.004
  164POPC   GL1 2512   9.705   7.253   4.331
  164POPC   GL2 2513   9.941   7.487   4.376
  164POPC   C1A 2514   9.594   7.300   4.778
  164POPC   D2A 2515   9.336   7.518   5.117
  164POPC   C3A 2516   9.402   7.329   5.539
  164POPC   C4A 2517   9.498   7.357   5.967
  164POPC   C1B 2518  10.136   7.389   4.766
  164POPC   C2B 2519  10.068   7.066   5.080
  164POPC   C3B 2520   9.863   7.077   5.472
  164POPC   C4B 2521   9.930   7.463   5.702
  165POPC   NC3 2522  11.201   3.076   3.993
  165POPC   PO4 2523  10.879   2.430   3.978
  165POPC   GL1 2524  10.992   2.523   4.372
  165POPC   GL2 2525  11.308   2.714   4.366
  165POPC   C1A 2526  11.151   2.431   4.774
  165POPC   D2A 2527  10.906   2.558   5.100
  165POPC   C3A 2528  11.121   2.448   5.434
  165POPC   C4A 2529  11.238   2.629   5.817
  165POPC   C1B 2530  11.485   2.833   4.789
  165POPC   C2B 2531  11.297   2.896   5.188
  165POPC   C3B 2532  11.283   3.085   5.563
  165POPC   C4B 2533   0.014   3.047   5.932
  166POPC   NC3 2534  11.116   8.768   3.720
  166POPC   PO4 2535  10.944   9.089   4.328
  166POPC   GL1 2536  11.021   8.699   4.484
  166POPC   GL2 2537  11.226   8.632   4.219
  166POPC   C1A 2538  11.165   8.672   4.908
  166POPC   D2A 2539  11.255   9.029   5.161
  166POPC   C3A 2540  10.943   9.019   5.451
  166POPC   C4A 2541  10.877   8.777   5.809
  166POPC   C1B 2542  11.414   8.376   4.568
  166POPC   C2B 2543  -0.001   8.304   5.034
  166POPC   C3B 2544   0.011   8.617   5.377
  166POPC   C4B 2545  11.369   8.679   5.791
  167POPC   NC3 2546   8.806   5.424   3.936
  167POPC   PO4 2547   8.526   5.984   3.951
  167POPC   GL1 2548   8.680   5.731   4.324
  167POPC   GL2 2549   9.041   5.629   4.349
  167POPC   C1A 2550   8.754   5.686   4.778
  167POPC   D2A 2551   8.676   5.420   5.138
  167POPC   C3A 2552   8.730   5.543   5.587
  167POPC   C4A 2553   8.470   5.712   5.949
  167POPC   C1B 2554   9.265   5.815   4.721
  167POPC   C2B 2555   9.112   5.751   5.171
  167POPC   C3B 2556   9.193   5.763   5.624
  167POPC   C4B 2557   8.970   5.769   6.037
  168POPC   NC3 2558   8.340   3.555   4.034
  168POPC   PO4 2559   8.023   3.961   4.226
  168POPC   GL1 2560   8.133   3.592   4.512
  168POPC   GL2 2561   8.447   3.378   4.502
  168POPC   C1A 2562   8.226   3.470   4.949
  168POPC   D2A 2563   8.539   3.546   5.276
  168POPC   C3A 2564   8.340   3.666   5.691
  168POPC   C4A 2565   7.938   3.684   5.939
  168POPC   C1B 2566   8.486   3.036   4.818
  168POPC   C2B 2567   8.366   3.046   5.265
  168POPC   C3B 2568   8.231   3.117   5.700
  168POPC   C4B 2569   8.144   2.869   6.082
  169POPC   NC3 2570   8.972   9.034   4.107
  169POPC   PO4 2571   8.435   9.147   3.706
  169POPC   GL1 2572   8.520   8.835   4.200
  169POPC   GL2 2573   8.767   8.615   4.323
  169POPC   C1A 2574   8.593   8.890   4.710
  169POPC   D2A 2575   8.708   8.651   5.113
  169POPC   C3A 2576   8.629   8.758   5.553
  169POPC   C4A 2577   8.672   9.112   5.784
  169POPC   C1B 2578   9.053   8.679   4.709
  169POPC   C2B 2579   9.216   8.619   5.137
  169POPC   C3B 2580   9.131   8.825   5.528
  169POPC   C4B 2581   9.253   8.668   5.916
  170POPC   NC3 2582  10.520   1.368   3.892
  170POPC   PO4 2583  10.053   0.824   3.948
  170POPC   GL1 2584  10.087   1.240   4.149
  170POPC   GL2 2585  10.368   1.116   4.318
  170POPC   C1A 2586  10.065   1.503   4.533
  170POPC   D2A 2587  10.171   1.366   4.937
  170POPC   C3A 2588  10.115   1.509   5.348
  170POPC   C4A 2589  10.015   1.418   5.766
  170POPC   C1B 2590  10.581   1.167   4.707
  170POPC   C2B 2591  10.513   1.078   5.161
  170POPC   C3B 2592  10.456   1.213   5.583
  170POPC   C4B 2593  10.709   1.226   5.911
  171POPC   NC3 2594   8.196   8.750   3.834
  171POPC   PO4 2595   8.501   9.326   4.182
  171POPC   GL1 2596   8.189   9.141   4.431
  171POPC   GL2 2597   8.019   8.892   4.274
  171POPC   C1A 2598   8.155   9.095   4.845
  171POPC   D2A 2599   8.290   8.943   5.219
  171POPC   C3A 2600   8.192   9.108   5.597
  171POPC   C4A 2601   8.270   9.280   6.024
  171POPC   C1B 2602   8.182   8.629   4.600
  171POPC   C2B 2603   8.230   8.489   5.006
  171POPC   C3B 2604   8.214   8.478   5.468
  171POPC   C4B 2605   7.955   8.472   5.843
  172POPC   NC3 2606   6.650   0.329   3.693
  172POPC   PO4 2607   7.108   0.624   3.908
  172POPC   GL1 2608   6.912   0.306   4.188
  172POPC   GL2 2609   6.557   0.345   4.203
  172POPC   C1A 2610   6.848   0.245   4.644
  172POPC   D2A 2611   6.874   0.418   5.087
  172POPC   C3A 2612   6.753   0.326   5.532
  172POPC   C4A 2613   6.861   0.334   5.998
  172POPC   C1B 2614   6.331   0.403   4.586
  172POPC   C2B 2615   6.341   0.509   5.031
  172POPC   C3B 2616   6.256   0.405   5.472
  172POPC   C4B 2617   6.283   0.607   5.863
  173POPC   NC3 2618   3.441   8.286   3.553
  173POPC   PO4 2619   2.973   8.085   3.913
  173POPC   GL1 2620   3.035   8.290   4.335
  173POPC   GL2 2621   3.395   8.201   4.373
  173POPC   C1A 2622   3.160   8.352   4.796
  173POPC   D2A 2623   3.337   8.168   5.205
  173POPC   C3A 2624   3.337   8.353   5.631
  173POPC   C4A 2625   3.561   8.383   6.041
  173POPC   C1B 2626   3.453   7.918   4.749
  173POPC   C2B 2627   3.654   7.754   5.148
  173POPC   C3B 2628   3.641   7.911   5.585
  173POPC   C4B 2629   3.964   8.082   5.868
  174POPC   NC3 2630   9.516   9.730   3.907
  174POPC   PO4 2631  10.021   9.310   4.013
  174POPC   GL1 2632   9.866   9.581   4.284
  174POPC   GL2 2633   9.607   9.346   4.383
  174POPC   C1A 2634   9.834   9.844   4.656
  174POPC   D2A 2635   9.839  10.051   5.060
  174POPC   C3A 2636   9.598   9.984   5.439
  174POPC   C4A 2637   9.824  10.007   5.804
  174POPC   C1B 2638   9.613   9.406   4.830
  174POPC   C2B 2639   9.906   9.436   5.186
  174POPC   C3B 2640   9.870   9.501   5.640
  174POPC   C4B 2641   9.452   9.589   5.792
  175POPC   NC3 2642   9.010   0.421   3.810
  175POPC   PO4 2643   8.507   0.772   3.736
  175POPC   GL1 2644   8.882   0.575   4.252
  175POPC   GL2 2645   8.932   0.245   4.285
  175POPC   C1A 2646   8.864   0.701   4.740
  175POPC   D2A 2647   8.651   0.733   5.164
  175POPC   C3A 2648   8.924   0.644   5.513
  175POPC   C4A 2649   9.371   0.675   5.676
  175POPC   C1B 2650   8.796   0.088   4.687
  175POPC   C2B 2651   8.851   0.236   5.100
  175POPC   C3B 2652   8.627   0.225   5.470
  175POPC   C4B 2653   8.469   0.336   5.833
  176POPC   NC3 2654   8.111   9.423   3.888
  176POPC   PO4 2655   7.721   8.890   3.853
  176POPC   GL1 2656   7.741   9.304   4.199
  176POPC   GL2 2657   8.039   9.611   4.333
  176POPC   C1A 2658   7.767   9.368   4.658
  176POPC   D2A 2659   7.737   9.282   5.070
  176POPC   C3A 2660   7.757   9.621   5.352
  176POPC   C4A 2661   7.970   9.557   5.724
  176POPC   C1B 2662   8.194   9.653   4.764
  176POPC   C2B 2663   8.230   9.465   5.182
  176POPC   C3B 2664   8.471   9.529   5.528
  176POPC   C4B 2665   8.367   9.898   5.754
  177POPC   NC3 2666   2.933   0.317   4.062
  177POPC   PO4 2667   2.386   0.102   3.842
  177POPC   GL1 2668   2.483   0.251   4.270
  177POPC   GL2 2669   2.627   0.603   4.340
  177POPC   C1A 2670   2.404   0.334   4.705
  177POPC   D2A 2671   2.216   0.451   5.063
  177POPC   C3A 2672   2.491   0.496   5.406
  177POPC   C4A 2673   2.516   0.275   5.805
  177POPC   C1B 2674   2.825   0.667   4.772
  177POPC   C2B 2675   2.975   0.627   5.222
  177POPC   C3B 2676   2.889   0.755   5.666
  177POPC   C4B 2677   3.011   0.719   6.116
  178POPC   NC3 2678   2.095  11.252   3.954
  178POPC   PO4 2679   1.539  10.971   3.654
  178POPC   GL1 2680   1.613  11.134   4.161
  178POPC   GL2 2681   1.877  10.992   4.370
  178POPC   C1A 2682   1.595  11.310   4.625
  178POPC   D2A 2683   1.884  11.162   4.986
  178POPC   C3A 2684   1.763  11.248   5.435
  178POPC   C4A 2685   1.823  11.087   5.861
  178POPC   C1B 2686   2.203  11.304   4.570
  178POPC   C2B 2687   2.369  11.384   4.961
  178POPC   C3B 2688   2.385  11.103   5.284
  178POPC   C4B 2689   2.340  11.159   5.731
  179POPC   NC3 2690  10.677   8.774   4.108
  179POPC   PO4 2691  10.066   8.488   3.956
  179POPC   GL1 2692  10.137   8.866   4.241
  179POPC   GL2 2693  10.352   8.791   4.489
  179POPC   C1A 2694   9.966   9.058   4.651
  179POPC   D2A 2695  10.158   8.906   5.050
  179POPC   C3A 2696  10.021   8.934   5.493
  179POPC   C4A 2697  10.109   8.498   5.686
  179POPC   C1B 2698  10.636   8.802   4.803
  179POPC   C2B 2699  10.704   8.685   5.152
  179POPC   C3B 2700  10.497   8.749   5.492
  179POPC   C4B 2701  10.447   9.075   5.773
  180POPC   NC3 2702   2.358  10.289   4.016
  180POPC   PO4 2703   3.013   9.992   3.889
  180POPC   GL1 2704   2.811  10.105   4.263
  180POPC   GL2 2705   2.703  10.433   4.347
  180POPC   C1A 2706   2.732  10.019   4.697
  180POPC   D2A 2707   3.009  10.126   5.057
  180POPC   C3A 2708   2.844  10.153   5.474
  180POPC   C4A 2709   2.448  10.165   5.724
  180POPC   C1B 2710   2.878  10.495   4.712
  180POPC   C2B 2711   2.575  10.428   5.042
  180POPC   C3B 2712   2.494  10.592   5.434
  180POPC   C4B 2713   2.794  10.570   5.785
  181POPC   NC3 2714  11.358   4.266   4.009
  181POPC   PO4 2715  11.286   4.909   3.785
  181POPC   GL1 2716  11.279   4.722   4.242
  181POPC   GL2 2717  11.039   4.440   4.352
  181POPC   C1A 2718  11.417   4.621   4.670
  181POPC   D2A 2719  11.174   4.444   5.028
  181POPC   C3A 2720  11.349   4.488   5.437
  181POPC   C4A 2721  11.084   4.502   5.775
  181POPC   C1B 2722  11.230   4.139   4.634
  181POPC   C2B 2723  11.363   3.943   5.041
  181POPC   C3B 2724  11.218   3.992   5.457
  181POPC   C4B 2725  11.341   4.040   5.867
  182POPC   NC3 2726   2.735  11.084   3.541
  182POPC   PO4 2727   2.969  10.540   3.930
  182POPC   GL1 2728   2.841  10.918   4.261
  182POPC   GL2 2729   2.657  11.251   4.187
  182POPC   C1A 2730   2.764  10.995   4.711
  182POPC   D2A 2731   2.883  10.818   5.121
  182POPC   C3A 2732   2.840  10.995   5.513
  182POPC   C4A 2733   3.093  10.964   5.924
  182POPC   C1B 2734   2.749  11.478   4.588
  182POPC   C2B 2735   2.812   0.164   5.002
  182POPC   C3B 2736   2.696  11.497   5.414
  182POPC   C4B 2737   2.796  11.357   5.847
  183POPC   NC3 2738   9.024   8.207   3.971
  183POPC   PO4 2739   8.441   8.358   3.940
  183POPC   GL1 2740   8.655   8.129   4.329
  183POPC   GL2 2741   8.998   7.951   4.398
  183POPC   C1A 2742   8.769   8.258   4.766
  183POPC   D2A 2743   8.575   8.153   5.171
  183POPC   C3A 2744   8.721   8.249   5.577
  183POPC   C4A 2745   8.541   8.329   5.991
  183POPC   C1B 2746   9.170   7.923   4.816
  183POPC   C2B 2747   9.036   7.923   5.252
  183POPC   C3B 2748   9.085   7.780   5.672
  183POPC   C4B 2749   8.733   7.800   5.982
  184POPC   NC3 2750   1.161  10.289   3.923
  184POPC   PO4 2751   1.679  10.620   4.036
  184POPC   GL1 2752   1.497  10.321   4.313
  184POPC   GL2 2753   1.243  10.577   4.318
  184POPC   C1A 2754   1.579  10.117   4.726
  184POPC   D2A 2755   1.633  10.318   5.142
  184POPC   C3A 2756   1.535  10.073   5.501
  184POPC   C4A 2757   1.543   9.907   5.903
  184POPC   C1B 2758   1.132  10.368   4.668
  184POPC   C2B 2759   1.130  10.550   5.047
  184POPC   C3B 2760   1.210  10.460   5.428
  184POPC   C4B 2761   1.061  10.602   5.776
  185POPC   NC3 2762   4.586   8.961   3.883
  185POPC   PO4 2763   4.059   9.183   3.882
  185POPC   GL1 2764   4.126   9.160   4.338
  185POPC   GL2 2765   4.333   8.895   4.392
  185POPC   C1A 2766   4.056   9.207   4.809
  185POPC   D2A 2767   4.191   9.382   5.240
  185POPC   C3A 2768   4.041   9.227   5.646
  185POPC   C4A 2769   4.159   9.007   6.042
  185POPC   C1B 2770   4.542   9.057   4.767
  185POPC   C2B 2771   4.567   8.955   5.187
  185POPC   C3B 2772   4.471   8.950   5.611
  185POPC   C4B 2773   4.526   8.642   5.938
  186POPC   NC3 2774  11.152   9.385   4.045
  186POPC   PO4 2775  10.736  10.009   3.995
  186POPC   GL1 2776  10.928   9.977   4.416
  186POPC   GL2 2777  11.163   9.706   4.437
  186POPC   C1A 2778  10.854   9.756   4.837
  186POPC   D2A 2779  10.894   9.555   5.249
  186POPC   C3A 2780  11.068   9.834   5.551
  186POPC   C4A 2781  11.442   9.899   5.753
  186POPC   C1B 2782  11.292   9.461   4.813
  186POPC   C2B 2783  11.444   9.553   5.230
  186POPC   C3B 2784  11.274   9.384   5.580
  186POPC   C4B 2785  10.906   9.334   5.837
  187POPC   NC3 2786   2.369   5.973   3.727
  187POPC   PO4 2787   3.043   6.160   3.852
  187POPC   GL1 2788   2.742   6.048   4.176
  187POPC   GL2 2789   2.514   5.742   4.175
  187POPC   C1A 2790   2.916   5.918   4.592
  187POPC   D2A 2791   3.159   6.011   4.984
  187POPC   C3A 2792   2.942   5.928   5.399
  187POPC   C4A 2793   2.765   6.036   5.812
  187POPC   C1B 2794   2.426   5.783   4.630
  187POPC   C2B 2795   2.303   5.843   5.090
  187POPC   C3B 2796   2.442   5.756   5.513
  187POPC   C4B 2797   2.654   5.538   5.864
  188POPC   NC3 2798  11.404   8.028   3.989
  188POPC   PO4 2799  10.712   8.251   3.852
  188POPC   GL1 2800  10.945   8.216   4.242
  188POPC   GL2 2801  11.063   7.905   4.357
  188POPC   C1A 2802  10.930   8.241   4.702
  188POPC   D2A 2803  10.784   8.177   5.098
  188POPC   C3A 2804  11.040   8.407   5.389
  188POPC   C4A 2805  11.049   8.292   5.788
  188POPC   C1B 2806  11.356   7.899   4.699
  188POPC   C2B 2807  11.199   7.870   5.085
  188POPC   C3B 2808  11.338   7.993   5.459
  188POPC   C4B 2809  11.343   7.881   5.880
  189POPC   NC3 2810   1.695   9.782   4.068
  189POPC   PO4 2811   1.093   9.857   3.764
  189POPC   GL1 2812   1.191   9.857   4.216
  189POPC   GL2 2813   1.282   9.536   4.258
  189POPC   C1A 2814   1.107   9.849   4.668
  189POPC   D2A 2815   1.200  10.020   5.076
  189POPC   C3A 2816   0.921   9.947   5.406
  189POPC   C4A 2817   1.079  10.089   5.773
  189POPC   C1B 2818   1.526   9.547   4.654
  189POPC   C2B 2819   1.404   9.474   5.067
  189POPC   C3B 2820   1.442   9.577   5.480
  189POPC   C4B 2821   1.139   9.587   5.790
  190POPC   NC3 2822   1.273   7.322   3.894
  190POPC   PO4 2823   1.557   6.807   3.719
  190POPC   GL1 2824   1.493   6.949   4.168
  190POPC   GL2 2825   1.166   6.861   4.298
  190POPC   C1A 2826   1.490   7.054   4.646
  190POPC   D2A 2827   1.652   7.173   5.070
  190POPC   C3A 2828   1.444   7.332   5.471
  190POPC   C4A 2829   1.676   7.375   5.874
  190POPC   C1B 2830   0.978   6.973   4.725
  190POPC   C2B 2831   0.838   7.067   5.166
  190POPC   C3B 2832   0.920   6.993   5.610
  190POPC   C4B 2833   1.128   7.220   5.938
  191POPC   NC3 2834   9.795   5.565   3.894
  191POPC   PO4 2835   9.248   5.288   3.993
  191POPC   GL1 2836   9.522   5.442   4.387
  191POPC   GL2 2837   9.766   5.727   4.409
  191POPC   C1A 2838   9.643   5.475   4.861
  191POPC   D2A 2839   9.608   5.697   5.283
  191POPC   C3A 2840   9.621   5.477   5.691
  191POPC   C4A 2841   9.389   5.444   6.106
  191POPC   C1B 2842   9.844   5.949   4.823
  191POPC   C2B 2843   9.884   6.128   5.234
  191POPC   C3B 2844   9.696   6.101   5.630
  191POPC   C4B 2845   9.609   6.399   5.952
  192POPC   NC3 2846   2.816   2.230   3.890
  192POPC   PO4 2847   3.426   2.210   4.079
  192POPC   GL1 2848   3.088   1.911   4.264
  192POPC   GL2 2849   2.791   2.082   4.367
  192POPC   C1A 2850   2.989   1.753   4.676
  192POPC   D2A 2851   2.929   2.091   4.933
  192POPC   C3A 2852   3.063   1.979   5.314
  192POPC   C4A 2853   3.032   2.184   5.659
  192POPC   C1B 2854   2.514   1.928   4.686
  192POPC   C2B 2855   2.532   1.834   5.101
  192POPC   C3B 2856   2.572   1.987   5.510
  192POPC   C4B 2857   2.826   1.695   5.727
  193POPC   NC3 2858   1.923   2.376   3.749
  193POPC   PO4 2859   1.836   1.664   4.044
  193POPC   GL1 2860   1.908   2.096   4.218
  193POPC   GL2 2861   2.264   2.087   4.285
  193POPC   C1A 2862   1.999   2.314   4.662
  193POPC   D2A 2863   2.273   2.283   5.030
  193POPC   C3A 2864   2.151   2.294   5.444
  193POPC   C4A 2865   1.822   2.270   5.754
  193POPC   C1B 2866   2.035   1.806   4.646
  193POPC   C2B 2867   2.024   1.830   5.087
  193POPC   C3B 2868   1.910   1.840   5.505
  193POPC   C4B 2869   2.189   1.895   5.864
  194POPC   NC3 2870   8.206   1.915   3.896
  194POPC   PO4 2871   7.695   2.357   3.857
  194POPC   GL1 2872   7.947   2.223   4.235
  194POPC   GL2 2873   8.066   1.886   4.371
  194POPC   C1A 2874   8.119   2.305   4.657
  194POPC   D2A 2875   7.925   2.297   5.057
  194POPC   C3A 2876   8.086   2.373   5.476
  194POPC   C4A 2877   8.261   2.392   5.887
  194POPC   C1B 2878   8.131   1.799   4.825
  194POPC   C2B 2879   8.104   1.518   5.175
  194POPC   C3B 2880   7.839   1.634   5.506
  194POPC   C4B 2881   7.944   1.969   5.777
  195POPC   NC3 2882   0.878   1.089   3.627
  195POPC   PO4 2883   0.878   1.667   4.029
  195POPC   GL1 2884   0.946   1.278   4.264
  195POPC   GL2 2885   1.308   1.245   4.307
  195POPC   C1A 2886   0.990   1.224   4.717
  195POPC   D2A 2887   1.063   1.503   5.083
  195POPC   C3A 2888   1.010   1.263   5.454
  195POPC   C4A 2889   1.198   1.200   5.851
  195POPC   C1B 2890   1.452   1.013   4.662
  195POPC   C2B 2891   1.321   1.047   5.078
  195POPC   C3B 2892   1.487   1.066   5.441
  195POPC   C4B 2893   1.673   0.877   5.728
  196POPC   NC3 2894  11.009  10.373   4.085
  196POPC   PO4 2895  10.893  10.925   3.812
  196POPC   GL1 2896  10.950  10.844   4.250
  196POPC   GL2 2897  11.344  10.733   4.264
  196POPC   C1A 2898  10.839  10.665   4.670
  196POPC   D2A 2899  10.835  10.824   5.093
  196POPC   C3A 2900  10.877  10.658   5.515
  196POPC   C4A 2901  10.832  10.660   6.023
  196POPC   C1B 2902  11.323  10.488   4.646
  196POPC   C2B 2903  11.073  10.334   4.991
  196POPC   C3B 2904  11.222  10.288   5.391
  196POPC   C4B 2905  11.264  10.465   5.771
  197POPC   NC3 2906   7.259   1.027   4.068
  197POPC   PO4 2907   7.820   1.479   3.908
  197POPC   GL1 2908   7.679   1.237   4.264
  197POPC   GL2 2909   7.399   1.396   4.423
  197POPC   C1A 2910   7.571   0.984   4.658
  197POPC   D2A 2911   7.204   1.063   4.931
  197POPC   C3A 2912   7.280   1.024   5.372
  197POPC   C4A 2913   7.407   0.997   5.790
  197POPC   C1B 2914   7.345   1.546   4.856
  197POPC   C2B 2915   7.221   1.540   5.297
  197POPC   C3B 2916   6.926   1.337   5.589
  197POPC   C4B 2917   6.996   1.223   6.017
  198POPC   NC3 2918   9.708   8.972   3.962
  198POPC   PO4 2919   9.202   8.621   4.074
  198POPC   GL1 2920   9.419   8.841   4.360
  198POPC   GL2 2921   9.708   8.634   4.359
  198POPC   C1A 2922   9.505   8.891   4.788
  198POPC   D2A 2923   9.269   9.121   5.095
  198POPC   C3A 2924   9.530   9.161   5.415
  198POPC   C4A 2925   9.558   9.083   5.809
  198POPC   C1B 2926   9.937   8.543   4.734
  198POPC   C2B 2927   9.769   8.587   5.154
  198POPC   C3B 2928   9.612   8.646   5.559
  198POPC   C4B 2929   9.772   8.685   6.017
  199POPC   NC3 2930   8.882  10.542   4.055
  199POPC   PO4 2931   9.068   9.893   3.912
  199POPC   GL1 2932   9.071  10.148   4.303
  199POPC   GL2 2933   8.700  10.217   4.395
  199POPC   C1A 2934   9.047  10.363   4.731
  199POPC   D2A 2935   8.951  10.160   5.135
  199POPC   C3A 2936   9.068  10.386   5.507
  199POPC   C4A 2937   9.060  10.620   5.916
  199POPC   C1B 2938   8.550  10.091   4.783
  199POPC   C2B 2939   8.466   9.934   5.181
  199POPC   C3B 2940   8.536  10.257   5.446
  199POPC   C4B 2941   8.720  10.269   5.850
  200POPC   NC3 2942   1.491   8.915   3.852
  200POPC   PO4 2943   0.907   8.625   3.970
  200POPC   GL1 2944   1.166   8.761   4.344
  200POPC   GL2 2945   1.085   9.081   4.395
  200POPC   C1A 2946   1.320   8.637   4.797
  200POPC   D2A 2947   1.330   8.461   5.250
  200POPC   C3A 2948   1.088   8.658   5.593
  200POPC   C4A 2949   1.284   8.612   6.020
  200POPC   C1B 2950   1.105   9.115   4.848
  200POPC   C2B 2951   1.335   8.986   5.238
  200POPC   C3B 2952   1.336   9.106   5.670
  200POPC   C4B 2953   0.932   9.120   5.810
  201POPC   NC3 2954   9.733   4.083   3.869
  201POPC   PO4 2955   9.780   3.416   3.919
  201POPC   GL1 2956   9.774   3.669   4.306
  201POPC   GL2 2957   9.439   3.798   4.397
  201POPC   C1A 2958   9.764   3.764   4.783
  201POPC   D2A 2959   9.536   3.859   5.172
  201POPC   C3A 2960   9.761   3.979   5.580
  201POPC   C4A 2961   9.972   3.839   5.994
  201POPC   C1B 2962   9.389   3.411   4.686
  201POPC   C2B 2963   9.495   3.288   5.107
  201POPC   C3B 2964   9.511   3.478   5.513
  201POPC   C4B 2965   9.167   3.568   5.731
  202POPC   NC3 2966   5.912   1.067   3.956
  202POPC   PO4 2967   5.406   1.554   3.881
  202POPC   GL1 2968   5.489   1.531   4.300
  202POPC   GL2 2969   5.570   1.197   4.309
  202POPC   C1A 2970   5.662   1.423   4.731
  202POPC   D2A 2971   5.464   1.421   5.108
  202POPC   C3A 2972   5.780   1.479   5.373
  202POPC   C4A 2973   5.943   1.670   5.723
  202POPC   C1B 2974   5.443   0.964   4.701
  202POPC   C2B 2975   5.486   0.820   5.116
  202POPC   C3B 2976   5.501   1.053   5.493
  202POPC   C4B 2977   5.952   1.117   5.685
  203POPC   NC3 2978   9.557   2.766   3.858
  203POPC   PO4 2979  10.121   2.479   3.848
  203POPC   GL1 2980   9.904   2.448   4.249
  203POPC   GL2 2981   9.631   2.680   4.361
  203POPC   C1A 2982   9.992   2.517   4.687
  203POPC   D2A 2983   9.881   2.290   5.049
  203POPC   C3A 2984   9.923   2.539   5.411
  203POPC   C4A 2985   9.876   2.570   5.847
  203POPC   C1B 2986   9.533   2.797   4.797
  203POPC   C2B 2987   9.406   2.549   5.151
  203POPC   C3B 2988   9.444   2.646   5.566
  203POPC   C4B 2989   9.696   3.012   5.663
  204POPC   NC3 2990  11.350   5.210   4.127
  204POPC   PO4 2991  10.785   4.843   4.194
  204POPC   GL1 2992  10.844   4.900   4.537
  204POPC   GL2 2993  10.960   5.248   4.478
  204POPC   C1A 2994  10.747   4.727   4.945
  204POPC   D2A 2995  10.983   4.807   5.317
  204POPC   C3A 2996  10.874   4.960   5.681
  204POPC   C4A 2997  10.716   5.343   5.694
  204POPC   C1B 2998  11.183   5.053   4.851
  204POPC   C2B 2999  11.476   4.899   5.123
  204POPC   C3B 3000  11.416   5.050   5.502
  204POPC   C4B 3001  11.450   4.832   5.819
  205POPC   NC3 3002  10.300   3.653   3.875
  205POPC   PO4 3003  10.921   3.992   3.946
  205POPC   GL1 3004  10.646   3.678   4.276
  205POPC   GL2 3005  10.296   3.519   4.350
  205POPC   C1A 3006  10.626   3.404   4.710
  205POPC   D2A 3007  10.547   3.592   5.131
  205POPC   C3A 3008  10.507   3.315   5.481
  205POPC   C4A 3009  10.746   3.302   5.829
  205POPC   C1B 3010  10.287   3.803   4.711
  205POPC   C2B 3011  10.120   3.889   5.133
  205POPC   C3B 3012  10.230   3.749   5.560
  205POPC   C4B 3013  10.159   3.375   5.871
  206POPC   NC3 3014   3.657   1.010   3.807
  206POPC   PO4 3015   3.617   1.594   3.702
  206POPC   GL1 3016   3.399   1.348   4.296
  206POPC   GL2 3017   3.459   0.986   4.270
  206POPC   C1A 3018   3.675   1.152   4.710
  206POPC   D2A 3019   3.829   0.927   5.126
  206POPC   C3A 3020   3.727   1.108   5.565
  206POPC   C4A 3021   3.668   1.417   5.909
  206POPC   C1B 3022   3.318   0.800   4.637
  206POPC   C2B 3023   3.313   0.980   5.050
  206POPC   C3B 3024   3.230   1.160   5.443
  206POPC   C4B 3025   3.291   1.061   5.869
  207POPC   NC3 3026   5.795   9.747   3.906
  207POPC   PO4 3027   5.665   9.183   4.083
  207POPC   GL1 3028   5.705   9.483   4.433
  207POPC   GL2 3029   5.619   9.806   4.397
  207POPC   C1A 3030   5.802   9.593   4.886
  207POPC   D2A 3031   5.736   9.485   5.348
  207POPC   C3A 3032   6.096   9.546   5.682
  207POPC   C4A 3033   6.302   9.488   6.123
  207POPC   C1B 3034   5.335   9.757   4.764
  207POPC   C2B 3035   5.231   9.584   5.223
  207POPC   C3B 3036   5.377   9.657   5.687
  207POPC   C4B 3037   5.456   9.893   6.116
  208POPC   NC3 3038   0.484  11.405   3.926
  208POPC   PO4 3039   0.765  10.794   3.884
  208POPC   GL1 3040   0.662  11.041   4.234
  208POPC   GL2 3041   0.279  11.093   4.291
  208POPC   C1A 3042   0.683  11.129   4.663
  208POPC   D2A 3043   0.772  11.244   5.087
  208POPC   C3A 3044   0.896  10.916   5.360
  208POPC   C4A 3045   0.618  10.830   5.685
  208POPC   C1B 3046   0.239  10.843   4.705
  208POPC   C2B 3047   0.372  10.866   5.185
  208POPC   C3B 3048   0.289  11.192   5.534
  208POPC   C4B 3049   0.109   0.122   5.603
  209POPC   NC3 3050   3.292  10.317   3.660
  209POPC   PO4 3051   3.686   9.906   4.026
  209POPC   GL1 3052   3.683   9.833   4.412
  209POPC   GL2 3053   3.735   9.490   4.375
  209POPC   C1A 3054   3.321   9.838   4.707
  209POPC   D2A 3055   3.268   9.676   5.109
  209POPC   C3A 3056   3.479   9.789   5.491
  209POPC   C4A 3057   3.286   9.987   5.796
  209POPC   C1B 3058   3.559   9.387   4.791
  209POPC   C2B 3059   3.670   9.376   5.247
  209POPC   C3B 3060   3.544   9.331   5.699
  209POPC   C4B 3061   3.680   9.251   6.154
  210POPC   NC3 3062   0.208   8.029   3.398
  210POPC   PO4 3063   0.315   7.824   4.058
  210POPC   GL1 3064   0.247   8.018   4.387
  210POPC   GL2 3065   0.556   8.168   4.370
  210POPC   C1A 3066   0.396   7.880   4.778
  210POPC   D2A 3067   0.218   7.783   5.139
  210POPC   C3A 3068   0.367   7.983   5.512
  210POPC   C4A 3069   0.157   8.280   5.731
  210POPC   C1B 3070   0.414   8.382   4.712
  210POPC   C2B 3071   0.507   8.299   5.094
  210POPC   C3B 3072   0.522   8.500   5.434
  210POPC   C4B 3073   0.638   8.401   5.835
  211POPC   NC3 3074   7.828  10.382   3.921
  211POPC   PO4 3075   8.456  10.725   3.904
  211POPC   GL1 3076   8.220  10.533   4.272
  211POPC   GL2 3077   8.193  10.152   4.228
  211POPC   C1A 3078   8.121  10.687   4.724
  211POPC   D2A 3079   7.889  10.754   5.131
  211POPC   C3A 3080   8.154  10.615   5.479
  211POPC   C4A 3081   8.234  10.394   5.853
  211POPC   C1B 3082   8.066  10.165   4.642
  211POPC   C2B 3083   8.128  10.291   5.068
  211POPC   C3B 3084   7.998  10.106   5.462
  211POPC   C4B 3085   7.889  10.023   5.895
  212POPC   NC3 3086   1.634   5.360   4.008
  212POPC   PO4 3087   1.844   6.008   3.796
  212POPC   GL1 3088   1.790   5.974   4.233
  212POPC   GL2 3089   1.991   5.740   4.351
  212POPC   C1A 3090   1.628   6.014   4.631
  212POPC   D2A 3091   1.636   5.977   5.047
  212POPC   C3A 3092   1.911   6.038   5.370
  212POPC   C4A 3093   1.790   5.957   5.801
  212POPC   C1B 3094   1.940   5.638   4.766
  212POPC   C2B 3095   1.909   5.523   5.177
  212POPC   C3B 3096   1.998   5.515   5.618
  212POPC   C4B 3097   1.957   5.287   6.000
  213POPC   NC3 3098   5.636  11.285   3.583
  213POPC   PO4 3099   6.199   0.205   3.822
  213POPC   GL1 3100   6.099   0.042   4.244
  213POPC   GL2 3101   5.798  11.327   4.233
  213POPC   C1A 3102   5.991   0.029   4.704
  213POPC   D2A 3103   6.080  11.215   5.036
  213POPC   C3A 3104   6.090  11.408   5.419
  213POPC   C4A 3105   6.152  11.205   5.790
  213POPC   C1B 3106   5.767  11.079   4.616
  213POPC   C2B 3107   5.614  10.954   5.040
  213POPC   C3B 3108   5.711  11.082   5.441
  213POPC   C4B 3109   5.654  11.203   5.842
  214POPC   NC3 3110   0.253   4.930   3.816
  214POPC   PO4 3111   0.896   4.569   3.888
  214POPC   GL1 3112   0.693   4.765   4.295
  214POPC   GL2 3113   0.385   4.958   4.319
  214POPC   C1A 3114   0.739   4.981   4.703
  214POPC   D2A 3115   0.772   4.835   5.122
  214POPC   C3A 3116   0.407   4.698   5.372
  214POPC   C4A 3117   0.478   4.813   5.800
  214POPC   C1B 3118   0.212   5.075   4.695
  214POPC   C2B 3119   0.405   5.252   5.054
  214POPC   C3B 3120   0.412   5.212   5.488
  214POPC   C4B 3121   0.195   5.270   5.897
  215POPC   NC3 3122   5.682   0.216   3.919
  215POPC   PO4 3123   5.465   0.869   3.931
  215POPC   GL1 3124   5.661   0.676   4.313
  215POPC   GL2 3125   5.698   0.321   4.401
  215POPC   C1A 3126   5.840   0.625   4.765
  215POPC   D2A 3127   5.840   0.404   5.163
  215POPC   C3A 3128   5.793   0.623   5.580
  215POPC   C4A 3129   5.594   0.833   5.934
  215POPC   C1B 3130   5.476   0.012   4.652
  215POPC   C2B 3131   5.623  11.448   5.086
  215POPC   C3B 3132   5.629   0.103   5.510
  215POPC   C4B 3133   5.925   0.195   5.823
  216POPC   NC3 3134   2.919   7.608   4.021
  216POPC   PO4 3135   2.323   7.944   4.015
  216POPC   GL1 3136   2.643   7.953   4.310
  216POPC   GL2 3137   2.423   7.950   4.562
  216POPC   C1A 3138   2.921   7.916   4.693
  216POPC   D2A 3139   2.846   8.070   5.139
  216POPC   C3A 3140   2.969   8.002   5.594
  216POPC   C4A 3141   2.690   7.862   5.956
  216POPC   C1B 3142   2.601   8.324   4.753
  216POPC   C2B 3143   2.465   8.399   5.190
  216POPC   C3B 3144   2.510   8.221   5.588
  216POPC   C4B 3145   2.669   8.370   5.971
  217POPC   NC3 3146   1.854   6.503   3.910
  217POPC   PO4 3147   2.449   6.387   3.870
  217POPC   GL1 3148   2.240   6.189   4.237
  217POPC   GL2 3149   2.048   6.461   4.367
  217POPC   C1A 3150   2.096   6.146   4.734
  217POPC   D2A 3151   2.252   6.448   5.037
  217POPC   C3A 3152   2.146   6.570   5.465
  217POPC   C4A 3153   1.772   6.442   5.677
  217POPC   C1B 3154   1.822   6.591   4.756
  217POPC   C2B 3155   1.727   6.612   5.188
  217POPC   C3B 3156   1.764   6.926   5.518
  217POPC   C4B 3157   2.018   6.856   5.882
  218POPC   NC3 3158   0.506   3.338   3.966
  218POPC   PO4 3159   0.144   3.912   3.943
  218POPC   GL1 3160   0.403   3.751   4.300
  218POPC   GL2 3161   0.390   3.432   4.443
  218POPC   C1A 3162   0.632   3.812   4.689
  218POPC   D2A 3163   0.376   3.791   5.066
  218POPC   C3A 3164   0.504   3.687   5.473
  218POPC   C4A 3165   0.272   3.774   5.797
  218POPC   C1B 3166   0.368   3.198   4.778
  218POPC   C2B 3167   0.496   3.298   5.156
  218POPC   C3B 3168   0.290   3.186   5.481
  218POPC   C4B 3169   0.439   3.290   5.821
  219POPC   NC3 3170  10.251   7.108   4.021
  219POPC   PO4 3171  10.930   7.365   3.980
  219POPC   GL1 3172  10.814   7.152   4.314
  219POPC   GL2 3173  10.499   7.278   4.415
  219POPC   C1A 3174  10.826   7.052   4.731
  219POPC   D2A 3175  10.681   6.923   5.136
  219POPC   C3A 3176  10.665   7.136   5.519
  219POPC   C4A 3177  10.289   7.098   5.737
  219POPC   C1B 3178  10.617   7.645   4.657
  219POPC   C2B 3179  10.454   7.745   5.055
  219POPC   C3B 3180  10.303   7.459   5.337
  219POPC   C4B 3181  10.473   7.578   5.711
  220POPC   NC3 3182  10.615   4.489   3.965
  220POPC   PO4 3183  10.125   4.027   4.090
  220POPC   GL1 3184  10.253   4.358   4.343
  220POPC   GL2 3185  10.548   4.486   4.470
  220POPC   C1A 3186  10.201   4.300   4.775
  220POPC   D2A 3187  10.433   4.315   5.095
  220POPC   C3A 3188  10.185   4.272   5.451
  220POPC   C4A 3189  10.079   4.404   5.833
  220POPC   C1B 3190  10.698   4.121   4.648
  220POPC   C2B 3191  10.856   4.024   5.056
  220POPC   C3B 3192  10.813   4.293   5.414
  220POPC   C4B 3193  10.572   4.200   5.767
  221POPC   NC3 3194   5.027   8.176   3.864
  221POPC   PO4 3195   4.779   7.659   4.134
  221POPC   GL1 3196   4.942   7.926   4.462
  221POPC   GL2 3197   4.906   8.249   4.354
  221POPC   C1A 3198   4.853   8.088   4.890
  221POPC   D2A 3199   4.583   8.250   5.224
  221POPC   C3A 3200   4.571   8.011   5.609
  221POPC   C4A 3201   4.831   7.754   5.876
  221POPC   C1B 3202   5.195   8.406   4.665
  221POPC   C2B 3203   5.303   8.223   5.087
  221POPC   C3B 3204   5.057   8.178   5.488
  221POPC   C4B 3205   4.900   8.279   5.920
  222POPC   NC3 3206   1.305   4.312   3.900
  222POPC   PO4 3207   1.216   3.750   4.086
  222POPC   GL1 3208   1.069   4.035   4.402
  222POPC   GL2 3209   1.085   4.408   4.345
  222POPC   C1A 3210   1.079   4.008   4.862
  222POPC   D2A 3211   1.335   3.955   5.228
  222POPC   C3A 3212   1.291   4.204   5.655
  222POPC   C4A 3213   1.520   4.028   6.049
  222POPC   C1B 3214   1.029   4.524   4.768
  222POPC   C2B 3215   1.131   4.424   5.181
  222POPC   C3B 3216   0.875   4.524   5.515
  222POPC   C4B 3217   0.955   4.601   5.885
  223POPC   NC3 3218   2.544   8.351   3.990
  223POPC   PO4 3219   2.725   9.052   3.972
  223POPC   GL1 3220   2.752   8.747   4.321
  223POPC   GL2 3221   2.436   8.682   4.423
  223POPC   C1A 3222   2.844   8.770   4.796
  223POPC   D2A 3223   2.949   8.573   5.193
  223POPC   C3A 3224   2.815   8.662   5.583
  223POPC   C4A 3225   3.089   8.641   5.978
  223POPC   C1B 3226   2.517   9.100   4.627
  223POPC   C2B 3227   2.556   9.189   5.075
  223POPC   C3B 3228   2.653   9.172   5.525
  223POPC   C4B 3229   3.069   9.093   5.741
  224POPC   NC3 3230  10.266   0.401   3.923
  224POPC   PO4 3231  10.695   0.111   4.236
  224POPC   GL1 3232  10.294   0.235   4.418
  224POPC   GL2 3233  10.231   0.610   4.405
  224POPC   C1A 3234  10.195   0.293   4.850
  224POPC   D2A 3235  10.359   0.488   5.226
  224POPC   C3A 3236  10.438   0.235   5.598
  224POPC   C4A 3237  10.052   0.131   5.772
  224POPC   C1B 3238  10.546   0.666   4.748
  224POPC   C2B 3239  10.831   0.681   5.120
  224POPC   C3B 3240  10.650   0.757   5.543
  224POPC   C4B 3241  10.606   0.689   6.001
  225POPC   NC3 3242   2.228   3.026   4.031
  225POPC   PO4 3243   1.759   2.804   3.689
  225POPC   GL1 3244   1.763   2.638   4.159
  225POPC   GL2 3245   2.091   2.585   4.251
  225POPC   C1A 3246   1.679   2.735   4.637
  225POPC   D2A 3247   1.630   2.935   5.057
  225POPC   C3A 3248   1.779   2.696   5.422
  225POPC   C4A 3249   1.723   2.857   5.828
  225POPC   C1B 3250   2.191   2.814   4.642
  225POPC   C2B 3251   2.133   2.869   5.081
  225POPC   C3B 3252   2.347   2.791   5.448
  225POPC   C4B 3253   2.183   2.641   5.824
  226POPC   NC3 3254   6.901   7.904   3.915
  226POPC   PO4 3255   6.976   8.463   3.832
  226POPC   GL1 3256   7.034   8.354   4.291
  226POPC   GL2 3257   7.362   8.266   4.387
  226POPC   C1A 3258   7.049   8.344   4.787
  226POPC   D2A 3259   7.283   8.330   5.192
  226POPC   C3A 3260   7.101   8.318   5.600
  226POPC   C4A 3261   7.045   8.026   5.951
  226POPC   C1B 3262   7.577   8.413   4.781
  226POPC   C2B 3263   7.786   8.301   5.197
  226POPC   C3B 3264   7.600   8.201   5.605
  226POPC   C4B 3265   7.476   8.296   6.051
  227POPC   NC3 3266   1.312   0.290   4.043
  227POPC   PO4 3267   1.170   0.928   3.928
  227POPC   GL1 3268   1.110   0.733   4.366
  227POPC   GL2 3269   0.982   0.383   4.441
  227POPC   C1A 3270   1.030   0.716   4.821
  227POPC   D2A 3271   0.813   0.888   5.156
  227POPC   C3A 3272   1.063   0.740   5.502
  227POPC   C4A 3273   1.236   0.690   5.908
  227POPC   C1B 3274   1.384   0.367   4.717
  227POPC   C2B 3275   1.250   0.327   5.151
  227POPC   C3B 3276   1.401   0.315   5.556
  227POPC   C4B 3277   1.475  11.453   5.814
  228POPC   NC3 3278  10.872   7.815   3.902
  228POPC   PO4 3279  11.465   7.703   3.659
  228POPC   GL1 3280  11.374   7.549   4.176
  228POPC   GL2 3281  11.334   7.215   4.268
  228POPC   C1A 3282  11.099   7.478   4.634
  228POPC   D2A 3283  10.865   7.421   5.079
  228POPC   C3A 3284  11.002   7.576   5.503
  228POPC   C4A 3285  10.917   7.596   5.970
  228POPC   C1B 3286  11.334   7.029   4.674
  228POPC   C2B 3287  11.189   6.885   5.059
  228POPC   C3B 3288  11.171   7.075   5.463
  228POPC   C4B 3289  11.266   7.263   5.857
  229POPC   NC3 3290   4.400   2.566   3.913
  229POPC   PO4 3291   4.005   2.940   4.036
  229POPC   GL1 3292   4.029   2.674   4.419
  229POPC   GL2 3293   4.272   2.393   4.367
  229POPC   C1A 3294   3.876   2.754   4.846
  229POPC   D2A 3295   3.673   2.650   5.250
  229POPC   C3A 3296   3.904   2.726   5.631
  229POPC   C4A 3297   4.131   2.673   6.031
  229POPC   C1B 3298   4.326   2.506   4.788
  229POPC   C2B 3299   4.166   2.501   5.196
  229POPC   C3B 3300   4.330   2.432   5.591
  229POPC   C4B 3301   4.592   2.748   5.778
  230POPC   NC3 3302   4.827   9.920   4.029
  230POPC   PO4 3303   5.477  10.078   3.967
  230POPC   GL1 3304   5.403  10.276   4.344
  230POPC   GL2 3305   5.275  10.615   4.310
  230POPC   C1A 3306   5.242  10.284   4.745
  230POPC   D2A 3307   5.076  10.478   5.101
  230POPC   C3A 3308   5.119  10.154   5.392
  230POPC   C4A 3309   5.382  10.174   5.711
  230POPC   C1B 3310   4.901  10.691   4.595
  230POPC   C2B 3311   4.803  10.908   5.001
  230POPC   C3B 3312   4.749  10.749   5.402
  230POPC   C4B 3313   5.118  10.619   5.639
  231POPC   NC3 3314  10.499   2.686   4.035
  231POPC   PO4 3315  10.774   3.300   3.922
  231POPC   GL1 3316  10.806   3.036   4.305
  231POPC   GL2 3317  10.489   2.983   4.457
  231POPC   C1A 3318  10.959   2.939   4.727
  231POPC   D2A 3319  10.823   3.100   5.134
  231POPC   C3A 3320  10.819   2.870   5.524
  231POPC   C4A 3321  10.734   2.647   5.897
  231POPC   C1B 3322  10.543   2.587   4.701
  231POPC   C2B 3323  10.417   2.367   5.093
  231POPC   C3B 3324  10.417   2.516   5.520
  231POPC   C4B 3325  10.252   2.891   5.698
  232POPC   NC3 3326   7.263  10.824   4.042
  232POPC   PO4 3327   6.942  11.448   3.820
  232POPC   GL1 3328   7.026  11.256   4.267
  232POPC   GL2 3329   7.363  11.111   4.439
  232POPC   C1A 3330   6.948  11.231   4.740
  232POPC   D2A 3331   6.996  11.423   5.163
  232POPC   C3A 3332   7.052  11.175   5.557
  232POPC   C4A 3333   6.883  11.337   5.959
  232POPC   C1B 3334   7.378  10.911   4.857
  232POPC   C2B 3335   7.454  11.197   5.186
  232POPC   C3B 3336   7.546  11.365   5.573
  232POPC   C4B 3337   7.540  10.940   5.779
  233POPC   NC3 3338   1.537   3.690   3.771
  233POPC   PO4 3339   1.713   3.149   4.102
  233POPC   GL1 3340   1.651   3.550   4.299
  233POPC   GL2 3341   1.982   3.586   4.335
  233POPC   C1A 3342   1.570   3.790   4.686
  233POPC   D2A 3343   1.805   3.926   5.014
  233POPC   C3A 3344   1.785   3.795   5.414
  233POPC   C4A 3345   1.831   3.604   5.776
  233POPC   C1B 3346   1.960   3.331   4.726
  233POPC   C2B 3347   2.013   3.383   5.154
  233POPC   C3B 3348   1.991   3.167   5.528
  233POPC   C4B 3349   2.068   3.202   5.986
  234POPC   NC3 3350   9.019   1.923   3.882
  234POPC   PO4 3351   8.453   2.327   4.013
  234POPC   GL1 3352   8.835   2.201   4.263
  234POPC   GL2 3353   8.762   1.877   4.309
  234POPC   C1A 3354   9.030   2.115   4.693
  234POPC   D2A 3355   8.967   2.285   5.093
  234POPC   C3A 3356   9.040   2.002   5.414
  234POPC   C4A 3357   9.007   2.063   5.823
  234POPC   C1B 3358   8.543   2.013   4.650
  234POPC   C2B 3359   8.581   1.863   5.067
  234POPC   C3B 3360   8.325   1.919   5.420
  234POPC   C4B 3361   8.482   1.935   5.835
  235POPC   NC3 3362   9.558   0.241   3.635
  235POPC   PO4 3363   9.260   0.800   3.924
  235POPC   GL1 3364   9.406   0.502   4.225
  235POPC   GL2 3365   9.774   0.417   4.162
  235POPC   C1A 3366   9.262   0.405   4.663
  235POPC   D2A 3367   9.231   0.606   5.082
  235POPC   C3A 3368   9.306   0.297   5.355
  235POPC   C4A 3369   9.511   0.180   5.710
  235POPC   C1B 3370   9.775   0.499   4.612
  235POPC   C2B 3371   9.712   0.392   5.048
  235POPC   C3B 3372   9.832   0.516   5.471
  235POPC   C4B 3373  10.182   0.649   5.733
  236POPC   NC3 3374   8.825   0.990   3.994
  236POPC   PO4 3375   8.563   1.625   3.871
  236POPC   GL1 3376   8.647   1.394   4.235
  236POPC   GL2 3377   9.032   1.439   4.201
  236POPC   C1A 3378   8.566   1.486   4.682
  236POPC   D2A 3379   8.592   1.330   5.113
  236POPC   C3A 3380   8.708   1.590   5.494
  236POPC   C4A 3381   9.082   1.565   5.745
  236POPC   C1B 3382   9.003   1.200   4.600
  236POPC   C2B 3383   9.091   1.109   5.037
  236POPC   C3B 3384   8.940   1.140   5.453
  236POPC   C4B 3385   9.067   1.039   5.848
  237POPC   NC3 3386   0.266   7.368   3.899
  237POPC   PO4 3387   0.893   7.029   3.910
  237POPC   GL1 3388   0.672   7.128   4.341
  237POPC   GL2 3389   0.332   7.247   4.371
  237POPC   C1A 3390   0.604   7.329   4.790
  237POPC   D2A 3391   0.352   7.253   5.188
  237POPC   C3A 3392   0.473   7.252   5.659
  237POPC   C4A 3393   0.210   7.159   6.055
  237POPC   C1B 3394   0.110   7.452   4.698
  237POPC   C2B 3395  11.376   7.391   5.091
  237POPC   C3B 3396   0.029   7.514   5.522
  237POPC   C4B 3397   0.272   7.644   5.907
  238POPC   NC3 3398   5.541   1.979   3.975
  238POPC   PO4 3399   5.939   2.367   4.115
  238POPC   GL1 3400   5.845   2.002   4.377
  238POPC   GL2 3401   5.981   1.681   4.267
  238POPC   C1A 3402   5.515   1.896   4.692
  238POPC   D2A 3403   5.310   1.917   5.113
  238POPC   C3A 3404   5.565   1.934   5.489
  238POPC   C4A 3405   5.792   2.144   5.845
  238POPC   C1B 3406   6.068   1.732   4.748
  238POPC   C2B 3407   6.020   1.902   5.188
  238POPC   C3B 3408   6.228   2.078   5.557
  238POPC   C4B 3409   6.263   1.987   6.010
  239POPC   NC3 3410   0.692   6.667   4.121
  239POPC   PO4 3411   0.099   6.914   3.968
  239POPC   GL1 3412   0.227   6.744   4.327
  239POPC   GL2 3413   0.152   6.394   4.264
  239POPC   C1A 3414   0.315   6.893   4.740
  239POPC   D2A 3415   0.449   6.749   5.100
  239POPC   C3A 3416   0.326   6.790   5.522
  239POPC   C4A 3417   0.645   6.587   5.766
  239POPC   C1B 3418   0.372   6.382   4.671
  239POPC   C2B 3419   0.460   6.228   5.093
  239POPC   C3B 3420   0.313   6.281   5.503
  239POPC   C4B 3421   0.374   6.103   5.920
  240POPC   NC3 3422  10.347   9.641   3.927
  240POPC   PO4 3423  10.826   9.121   3.807
  240POPC   GL1 3424  10.501   9.247   4.197
  240POPC   GL2 3425  10.675   9.545   4.312
  240POPC   C1A 3426  10.427   9.279   4.687
  240POPC   D2A 3427  10.557   9.189   5.131
  240POPC   C3A 3428  10.366   9.429   5.424
  240POPC   C4A 3429  10.596   9.718   5.645
  240POPC   C1B 3430  10.362   9.783   4.569
  240POPC   C2B 3431  10.264   9.762   5.009
  240POPC   C3B 3432  10.168   9.905   5.451
  240POPC   C4B 3433  10.312   9.998   5.936
  241POPC   NC3 3434   4.871  11.153   3.863
  241POPC   PO4 3435   5.539  10.957   3.882
  241POPC   GL1 3436   5.324  11.128   4.249
  241POPC   GL2 3437   5.019  11.285   4.330
  241POPC   C1A 3438   5.254  11.037   4.691
  241POPC   D2A 3439   5.138  11.301   5.019
  241POPC   C3A 3440   5.189  11.096   5.402
  241POPC   C4A 3441   5.210  11.406   5.712
  241POPC   C1B 3442   4.732  11.309   4.695
  241POPC   C2B 3443   4.613  11.462   5.109
  241POPC   C3B 3444   4.545  11.323   5.525
  241POPC   C4B 3445   4.793  11.107   5.754
  242POPC   NC3 3446  11.253   6.003   3.568
  242POPC   PO4 3447  10.961   5.626   4.049
  242POPC   GL1 3448  11.115   5.734   4.428
  242POPC   GL2 3449  11.428   5.664   4.321
  242POPC   C1A 3450  11.208   5.567   4.850
  242POPC   D2A 3451  11.056   5.372   5.273
  242POPC   C3A 3452  11.040   5.712   5.598
  242POPC   C4A 3453  10.895   6.134   5.550
  242POPC   C1B 3454   0.004   6.008   4.611
  242POPC   C2B 3455  11.248   6.089   4.952
  242POPC   C3B 3456  11.370   6.050   5.369
  242POPC   C4B 3457  11.377   6.223   5.781
  243POPC   NC3 3458   8.077  11.109   3.881
  243POPC   PO4 3459   7.691  10.750   4.211
  243POPC   GL1 3460   7.955  11.045   4.386
  243POPC   GL2 3461   8.339  11.045   4.315
  243POPC   C1A 3462   7.833  11.135   4.787
  243POPC   D2A 3463   7.952  11.273   5.168
  243POPC   C3A 3464   7.974  11.074   5.559
  243POPC   C4A 3465   7.879  11.290   5.960
  243POPC   C1B 3466   8.350  11.170   4.738
  243POPC   C2B 3467   8.386  10.978   5.125
  243POPC   C3B 3468   8.488  11.206   5.467
  243POPC   C4B 3469   8.360  11.167   5.894
  244POPC   NC3 3470   2.281   8.988   4.042
  244POPC   PO4 3471   1.709   9.328   3.863
  244POPC   GL1 3472   1.625   9.162   4.308
  244POPC   GL2 3473   1.811   8.888   4.269
  244POPC   C1A 3474   1.615   9.059   4.798
  244POPC   D2A 3475   1.790   8.745   5.134
  244POPC   C3A 3476   1.685   8.731   5.609
  244POPC   C4A 3477   1.694   8.963   6.019
  244POPC   C1B 3478   1.974   8.744   4.634
  244POPC   C2B 3479   2.274   8.774   4.926
  244POPC   C3B 3480   2.268   8.844   5.368
  244POPC   C4B 3481   2.163   9.052   5.741
  245POPC   NC3 3482   4.337   0.498   3.830
  245POPC   PO4 3483   4.153  11.364   3.910
  245POPC   GL1 3484   4.165   0.196   4.257
  245POPC   GL2 3485   4.244   0.528   4.350
  245POPC   C1A 3486   4.346   0.199   4.708
  245POPC   D2A 3487   4.127   0.277   5.092
  245POPC   C3A 3488   4.362   0.294   5.446
  245POPC   C4A 3489   4.331   0.281   5.876
  245POPC   C1B 3490   4.235   0.714   4.793
  245POPC   C2B 3491   4.484   0.735   5.192
  245POPC   C3B 3492   4.523   0.729   5.655
  245POPC   C4B 3493   4.052   0.675   5.734
  246POPC   NC3 3494   8.730   9.572   3.865
  246POPC   PO4 3495   9.349   9.279   3.950
  246POPC   GL1 3496   9.095   9.477   4.326
  246POPC   GL2 3497   8.800   9.711   4.341
  246POPC   C1A 3498   8.913   9.297   4.753
  246POPC   D2A 3499   8.765   9.167   5.215
  246POPC   C3A 3500   9.051   9.342   5.563
  246POPC   C4A 3501   9.115   9.178   6.015
  246POPC   C1B 3502   8.982   9.818   4.729
  246POPC   C2B 3503   8.898   9.654   5.151
  246POPC   C3B 3504   8.865   9.854   5.551
  246POPC   C4B 3505   9.155   9.995   5.841
  247POPC   NC3 3506   2.247   0.536   3.919
  247POPC   PO4 3507   1.744   0.118   4.046
  247POPC   GL1 3508   1.989   0.242   4.355
  247POPC   GL2 3509   2.104   0.593   4.395
  247POPC   C1A 3510   1.908   0.190   4.755
  247POPC   D2A 3511   1.766   0.142   5.124
  247POPC   C3A 3512   2.143   0.078   5.409
  247POPC   C4A 3513   2.029   0.053   5.823
  247POPC   C1B 3514   1.848   0.702   4.723
  247POPC   C2B 3515   1.639   0.646   5.102
  247POPC   C3B 3516   1.859   0.510   5.449
  247POPC   C4B 3517   2.121   0.566   5.751
  248POPC   NC3 3518  10.445   6.167   3.751
  248POPC   PO4 3519  10.606   6.789   3.976
  248POPC   GL1 3520  10.545   6.719   4.357
  248POPC   GL2 3521  10.415   6.393   4.253
  248POPC   C1A 3522  10.383   6.806   4.745
  248POPC   D2A 3523  10.216   6.547   5.056
  248POPC   C3A 3524  10.304   6.703   5.425
  248POPC   C4A 3525  10.037   6.605   5.753
  248POPC   C1B 3526  10.454   6.287   4.682
  248POPC   C2B 3527  10.350   6.026   5.014
  248POPC   C3B 3528  10.345   6.171   5.436
  248POPC   C4B 3529  10.498   6.376   5.763
  249POPC   NC3 3530   0.445   1.970   3.753
  249POPC   PO4 3531   0.090   2.267   4.166
  249POPC   GL1 3532   0.243   1.936   4.337
  249POPC   GL2 3533   0.567   2.000   4.262
  249POPC   C1A 3534   0.198   1.810   4.751
  249POPC   D2A 3535   0.376   1.943   5.114
  249POPC   C3A 3536   0.186   1.843   5.456
  249POPC   C4A 3537   0.021   2.212   5.641
  249POPC   C1B 3538   0.642   2.078   4.689
  249POPC   C2B 3539   0.662   2.347   5.049
  249POPC   C3B 3540   0.508   2.316   5.486
  249POPC   C4B 3541   0.501   1.986   5.810
  250POPC   NC3 3542   0.493   8.867   3.892
  250POPC   PO4 3543  11.441   8.441   3.787
  250POPC   GL1 3544   0.226   8.538   4.197
  250POPC   GL2 3545   0.568   8.672   4.336
  250POPC   C1A 3546   0.172   8.823   4.604
  250POPC   D2A 3547   0.348   8.804   5.041
  250POPC   C3A 3548   0.219   9.120   5.384
  250POPC   C4A 3549   0.088   9.116   5.841
  250POPC   C1B 3550   0.790   8.731   4.690
  250POPC   C2B 3551   0.885   8.693   5.095
  250POPC   C3B 3552   0.731   8.983   5.364
  250POPC   C4B 3553   0.506   8.887   5.742
  251POPC   NC3 3554  11.170  11.284   3.706
  251POPC   PO4 3555  10.651   0.176   3.741
  251POPC   GL1 3556  11.156   0.105   4.093
  251POPC   GL2 3557  11.279  11.254   4.203
  251POPC   C1A 3558  11.213   0.036   4.618
  251POPC   D2A 3559  11.058  11.289   5.026
  251POPC   C3A 3560  11.195  11.354   5.467
  251POPC   C4A 3561  11.124  11.497   5.915
  251POPC   C1B 3562  11.223  11.025   4.635
  251POPC   C2B 3563  11.337  10.822   5.028
  251POPC   C3B 3564  11.378  10.849   5.448
  251POPC   C4B 3565  11.168  10.983   5.820
  252POPC   NC3 3566   4.161   0.995   4.189
  252POPC   PO4 3567   4.618   1.387   3.817
  252POPC   GL1 3568   4.634   1.224   4.218
  252POPC   GL2 3569   4.381   1.416   4.358
  252POPC   C1A 3570   4.694   1.201   4.685
  252POPC   D2A 3571   4.568   1.215   5.103
  252POPC   C3A 3572   4.606   1.431   5.470
  252POPC   C4A 3573   4.759   1.223   5.814
  252POPC   C1B 3574   4.179   1.313   4.766
  252POPC   C2B 3575   4.097   1.357   5.201
  252POPC   C3B 3576   4.225   1.120   5.526
  252POPC   C4B 3577   4.158   1.462   5.762
  253POPC   NC3 3578   5.631  10.507   3.929
  253POPC   PO4 3579   6.098  10.078   3.898
  253POPC   GL1 3580   5.910  10.219   4.298
  253POPC   GL2 3581   5.953  10.580   4.333
  253POPC   C1A 3582   5.768  10.111   4.755
  253POPC   D2A 3583   5.565   9.964   5.168
  253POPC   C3A 3584   5.812   9.963   5.525
  253POPC   C4A 3585   5.879  10.274   5.783
  253POPC   C1B 3586   5.648  10.594   4.665
  253POPC   C2B 3587   5.591  10.457   5.089
  253POPC   C3B 3588   5.612  10.589   5.485
  253POPC   C4B 3589   5.944  10.760   5.766
  254POPC   NC3 3590   1.856  10.612   3.608
  254POPC   PO4 3591   2.432  10.918   3.853
  254POPC   GL1 3592   2.350  10.827   4.317
  254POPC   GL2 3593   2.145  10.538   4.419
  254POPC   C1A 3594   2.289  10.841   4.796
  254POPC   D2A 3595   2.045  10.633   5.095
  254POPC   C3A 3596   2.021  10.821   5.481
  254POPC   C4A 3597   2.215  10.681   5.861
  254POPC   C1B 3598   2.196  10.215   4.773
  254POPC   C2B 3599   2.199  10.110   5.218
  254POPC   C3B 3600   1.998  10.331   5.529
  254POPC   C4B 3601   1.649  10.540   5.689
  255POPC   NC3 3602   9.676  11.095   3.876
  255POPC   PO4 3603   9.151   0.010   3.675
  255POPC   GL1 3604   9.432  11.488   4.145
  255POPC   GL2 3605   9.496  11.154   4.333
  255POPC   C1A 3606   9.575   0.007   4.665
  255POPC   D2A 3607   9.435  11.350   5.127
  255POPC   C3A 3608   9.670  11.246   5.550
  255POPC   C4A 3609   9.736  11.381   6.060
  255POPC   C1B 3610   9.579  10.927   4.724
  255POPC   C2B 3611   9.285  10.840   5.062
  255POPC   C3B 3612   9.223  10.913   5.497
  255POPC   C4B 3613   9.503  10.888   5.869
  256POPC   NC3 3614   9.162   4.806   4.041
  256POPC   PO4 3615   8.609   5.012   3.925
  256POPC   GL1 3616   8.773   5.149   4.365
  256POPC   GL2 3617   9.113   5.123   4.450
  256POPC   C1A 3618   8.786   4.995   4.825
  256POPC   D2A 3619   8.656   4.906   5.257
  256POPC   C3A 3620   8.754   4.930   5.687
  256POPC   C4A 3621   8.425   4.906   6.008
  256POPC   C1B 3622   9.141   5.344   4.830
  256POPC   C2B 3623   9.123   5.230   5.264
  256POPC   C3B 3624   9.155   5.250   5.684
  256POPC   C4B 3625   9.229   4.965   5.999
  257POPC   NC3 3626   2.903   3.763   3.991
  257POPC   PO4 3627   2.680   3.160   3.955
  257POPC   GL1 3628   2.683   3.368   4.313
  257POPC   GL2 3629   2.389   3.272   4.452
  257POPC   C1A 3630   2.789   3.544   4.705
  257POPC   D2A 3631   2.984   3.393   5.076
  257POPC   C3A 3632   2.877   3.529   5.499
  257POPC   C4A 3633   3.121   3.425   5.859
  257POPC   C1B 3634   2.456   3.200   4.879
  257POPC   C2B 3635   2.484   3.262   5.299
  257POPC   C3B 3636   2.348   3.519   5.641
  257POPC   C4B 3637   2.613   3.491   5.969
  258POPC   NC3 3638   4.175  10.642   4.058
  258POPC   PO4 3639   4.393  10.017   4.115
  258POPC   GL1 3640   4.128  10.185   4.448
  258POPC   GL2 3641   3.840  10.323   4.317
  258POPC   C1A 3642   4.220  10.169   4.914
  258POPC   D2A 3643   4.623  10.211   5.177
  258POPC   C3A 3644   4.674  10.284   5.626
  258POPC   C4A 3645   4.693  10.627   5.909
  258POPC   C1B 3646   3.929  10.595   4.718
  258POPC   C2B 3647   3.883  10.501   5.157
  258POPC   C3B 3648   4.138  10.292   5.441
  258POPC   C4B 3649   4.229  10.425   5.850
  259POPC   NC3 3650   5.068   0.645   3.953
  259POPC   PO4 3651   5.269   0.009   3.775
  259POPC   GL1 3652   5.229   0.234   4.204
  259POPC   GL2 3653   4.857   0.279   4.315
  259POPC   C1A 3654   5.275   0.488   4.602
  259POPC   D2A 3655   5.315   0.340   5.040
  259POPC   C3A 3656   5.302   0.504   5.481
  259POPC   C4A 3657   5.390   0.346   5.916
  259POPC   C1B 3658   4.841   0.309   4.790
  259POPC   C2B 3659   4.852   0.404   5.249
  259POPC   C3B 3660   4.841   0.289   5.688
  259POPC   C4B 3661   4.834   0.467   6.102
  260POPC   NC3 3662   1.868   7.962   4.013
  260POPC   PO4 3663   2.102   8.569   3.996
  260POPC   GL1 3664   2.118   8.300   4.342
  260POPC   GL2 3665   1.784   8.310   4.418
  260POPC   C1A 3666   2.099   8.285   4.811
  260POPC   D2A 3667   1.782   8.224   5.118
  260POPC   C3A 3668   2.014   8.362   5.461
  260POPC   C4A 3669   2.198   8.556   5.800
  260POPC   C1B 3670   1.809   7.899   4.666
  260POPC   C2B 3671   1.724   7.702   5.084
  260POPC   C3B 3672   1.786   7.860   5.509
  260POPC   C4B 3673   1.581   8.226   5.685
  261POPC   NC3 3674   8.816   2.679   4.081
  261POPC   PO4 3675   9.325   3.024   4.146
  261POPC   GL1 3676   9.125   2.874   4.499
  261POPC   GL2 3677   9.122   2.561   4.487
  261POPC   C1A 3678   9.019   2.853   4.939
  261POPC   D2A 3679   8.952   2.735   5.373
  261POPC   C3A 3680   9.139   3.018   5.686
  261POPC   C4A 3681   9.167   3.167   6.063
  261POPC   C1B 3682   8.691   2.514   4.709
  261POPC   C2B 3683   8.460   2.354   5.091
  261POPC   C3B 3684   8.632   2.348   5.529
  261POPC   C4B 3685   8.606   2.759   5.765
  262POPC   NC3 3686   3.259  10.874   4.003
  262POPC   PO4 3687   3.250   0.008   3.958
  262POPC   GL1 3688   3.177  11.319   4.336
  262POPC   GL2 3689   3.492  11.180   4.372
  262POPC   C1A 3690   3.194  11.325   4.797
  262POPC   D2A 3691   3.275  11.145   5.188
  262POPC   C3A 3692   3.210  11.363   5.563
  262POPC   C4A 3693   3.309  11.423   6.003
  262POPC   C1B 3694   3.708  11.059   4.747
  262POPC   C2B 3695   3.757  11.002   5.174
  262POPC   C3B 3696   3.650  11.078   5.572
  262POPC   C4B 3697   3.814  10.701   5.709
  263POPC   NC3 3698  11.225   2.110   3.957
  263POPC   PO4 3699   0.136   1.608   3.901
  263POPC   GL1 3700  11.281   1.714   4.287
  263POPC   GL2 3701  10.964   1.985   4.347
  263POPC   C1A 3702  11.203   1.879   4.754
  263POPC   D2A 3703  11.348   2.073   5.122
  263POPC   C3A 3704  11.177   1.871   5.492
  263POPC   C4A 3705  11.402   1.799   5.905
  263POPC   C1B 3706  10.746   2.125   4.726
  263POPC   C2B 3707  10.836   2.053   5.128
  263POPC   C3B 3708  10.699   2.099   5.518
  263POPC   C4B 3709  10.959   2.191   5.843
  264POPC   NC3 3710   4.280   1.709   3.755
  264POPC   PO4 3711   3.840   1.324   4.115
  264POPC   GL1 3712   3.930   1.656   4.439
  264POPC   GL2 3713   4.197   1.872   4.258
  264POPC   C1A 3714   3.923   1.735   4.897
  264POPC   D2A 3715   4.023   2.026   5.216
  264POPC   C3A 3716   4.175   1.938   5.587
  264POPC   C4A 3717   3.910   1.874   5.941
  264POPC   C1B 3718   4.312   1.980   4.703
  264POPC   C2B 3719   4.445   1.762   5.107
  264POPC   C3B 3720   4.731   1.918   5.465
  264POPC   C4B 3721   4.749   2.237   5.822
  265POPC   NC3 3722   1.139   6.638   3.765
  265POPC   PO4 3723   1.507   6.446   4.202
  265POPC   GL1 3724   1.320   6.419   4.540
  265POPC   GL2 3725   1.003   6.397   4.436
  265POPC   C1A 3726   1.317   6.635   4.899
  265POPC   D2A 3727   1.287   6.867   5.257
  265POPC   C3A 3728   1.322   6.670   5.642
  265POPC   C4A 3729   1.533   6.896   5.991
  265POPC   C1B 3730   0.835   6.493   4.833
  265POPC   C2B 3731   0.868   6.547   5.275
  265POPC   C3B 3732   0.829   6.199   5.508
  265POPC   C4B 3733   1.038   6.275   5.871
  266POPC   NC3 3734   1.401   6.085   3.949
  266POPC   PO4 3735   1.154   5.454   3.964
  266POPC   GL1 3736   1.329   5.680   4.298
  266POPC   GL2 3737   1.060   5.903   4.302
  266POPC   C1A 3738   1.421   5.555   4.723
  266POPC   D2A 3739   1.244   5.665   5.129
  266POPC   C3A 3740   1.521   5.657   5.453
  266POPC   C4A 3741   1.511   5.484   5.820
  266POPC   C1B 3742   1.138   5.983   4.730
  266POPC   C2B 3743   1.182   6.193   5.102
  266POPC   C3B 3744   1.345   6.122   5.500
  266POPC   C4B 3745   1.060   5.761   5.637
  267POPC   NC3 3746   7.252   2.209   3.936
  267POPC   PO4 3747   7.097   1.586   3.637
  267POPC   GL1 3748   7.203   1.730   4.095
  267POPC   GL2 3749   7.558   1.849   4.186
  267POPC   C1A 3750   7.142   1.920   4.552
  267POPC   D2A 3751   7.156   1.995   5.035
  267POPC   C3A 3752   6.868   1.932   5.398
  267POPC   C4A 3753   7.055   1.788   5.781
  267POPC   C1B 3754   7.650   1.935   4.641
  267POPC   C2B 3755   7.669   1.861   5.086
  267POPC   C3B 3756   7.461   1.974   5.473
  267POPC   C4B 3757   7.160   2.266   5.620
  268POPC   NC3 3758  10.285   8.216   3.651
  268POPC   PO4 3759  10.050   7.664   3.915
  268POPC   GL1 3760  10.337   7.795   4.260
  268POPC   GL2 3761  10.423   8.167   4.293
  268POPC   C1A 3762  10.163   7.910   4.683
  268POPC   D2A 3763   9.935   8.093   5.026
  268POPC   C3A 3764  10.108   7.942   5.396
  268POPC   C4A 3765  10.150   7.950   5.796
  268POPC   C1B 3766  10.419   8.345   4.737
  268POPC   C2B 3767  10.308   8.378   5.186
  268POPC   C3B 3768  10.541   8.224   5.561
  268POPC   C4B 3769  10.573   8.379   5.976
  269POPC   NC3 3770   2.864   9.503   3.880
  269POPC   PO4 3771   2.270   9.825   3.898
  269POPC   GL1 3772   2.530   9.665   4.262
  269POPC   GL2 3773   2.846   9.590   4.403
  269POPC   C1A 3774   2.466   9.587   4.728
  269POPC   D2A 3775   2.751   9.666   5.081
  269POPC   C3A 3776   2.514   9.734   5.427
  269POPC   C4A 3777   2.341   9.533   5.759
  269POPC   C1B 3778   2.985   9.321   4.762
  269POPC   C2B 3779   3.060   9.233   5.216
  269POPC   C3B 3780   3.012   9.563   5.546
  269POPC   C4B 3781   2.801   9.805   5.849
  270POPC   NC3 3782   3.887  11.014   3.746
  270POPC   PO4 3783   4.550  10.817   3.831
  270POPC   GL1 3784   4.566  10.974   4.261
  270POPC   GL2 3785   4.516  11.324   4.251
  270POPC   C1A 3786   4.408  10.863   4.676
  270POPC   D2A 3787   4.359  10.647   5.062
  270POPC   C3A 3788   4.216  10.868   5.411
  270POPC   C4A 3789   4.292  10.938   5.833
  270POPC   C1B 3790   4.144  11.268   4.552
  270POPC   C2B 3791   4.171  11.235   5.001
  270POPC   C3B 3792   4.049  11.372   5.418
  270POPC   C4B 3793   3.970  11.354   5.864
  271POPC   NC3 3794   2.855   6.583   3.892
  271POPC   PO4 3795   2.927   7.146   3.999
  271POPC   GL1 3796   2.859   6.815   4.371
  271POPC   GL2 3797   2.575   6.592   4.324
  271POPC   C1A 3798   2.901   6.611   4.829
  271POPC   D2A 3799   3.025   6.432   5.264
  271POPC   C3A 3800   2.848   6.626   5.644
  271POPC   C4A 3801   2.471   6.613   5.916
  271POPC   C1B 3802   2.566   6.286   4.615
  271POPC   C2B 3803   2.675   6.165   5.008
  271POPC   C3B 3804   2.550   6.269   5.417
  271POPC   C4B 3805   2.254   6.169   5.734
  272POPC   NC3 3806   6.936   3.101   4.112
  272POPC   PO4 3807   6.810   2.422   3.986
  272POPC   GL1 3808   7.086   2.582   4.340
  272POPC   GL2 3809   7.460   2.515   4.303
  272POPC   C1A 3810   7.077   2.796   4.777
  272POPC   D2A 3811   7.277   2.876   5.200
  272POPC   C3A 3812   7.109   2.789   5.641
  272POPC   C4A 3813   7.157   2.981   6.086
  272POPC   C1B 3814   7.398   2.377   4.732
  272POPC   C2B 3815   7.443   2.389   5.173
  272POPC   C3B 3816   7.589   2.517   5.564
  272POPC   C4B 3817   7.769   2.433   5.967
  273POPC   NC3 3818   1.945   9.767   3.589
  273POPC   PO4 3819   1.953  10.131   4.185
  273POPC   GL1 3820   2.060   9.763   4.409
  273POPC   GL2 3821   2.073   9.443   4.197
  273POPC   C1A 3822   1.984   9.732   4.812
  273POPC   D2A 3823   1.757   9.820   5.111
  273POPC   C3A 3824   1.978   9.663   5.389
  273POPC   C4A 3825   2.006   9.878   5.710
  273POPC   C1B 3826   2.039   9.267   4.602
  273POPC   C2B 3827   2.039   9.236   5.046
  273POPC   C3B 3828   1.791   9.192   5.409
  273POPC   C4B 3829   1.804   9.414   5.806
  274POPC   NC3 3830   7.252   8.839   3.875
  274POPC   PO4 3831   7.063   9.409   4.145
  274POPC   GL1 3832   7.321   9.134   4.441
  274POPC   GL2 3833   7.474   8.799   4.330
  274POPC   C1A 3834   7.297   8.990   4.886
  274POPC   D2A 3835   7.319   8.836   5.299
  274POPC   C3A 3836   7.114   9.062   5.679
  274POPC   C4A 3837   6.814   9.049   6.061
  274POPC   C1B 3838   7.729   8.874   4.662
  274POPC   C2B 3839   7.811   8.784   5.058
  274POPC   C3B 3840   7.803   8.799   5.470
  274POPC   C4B 3841   7.483   8.689   5.750
  275POPC   NC3 3842   2.771   1.244   3.724
  275POPC   PO4 3843   2.672   1.746   3.991
  275POPC   GL1 3844   2.740   1.495   4.322
  275POPC   GL2 3845   2.897   1.199   4.232
  275POPC   C1A 3846   2.541   1.411   4.717
  275POPC   D2A 3847   2.338   1.330   5.092
  275POPC   C3A 3848   2.321   1.541   5.454
  275POPC   C4A 3849   2.367   1.408   5.840
  275POPC   C1B 3850   3.023   1.219   4.674
  275POPC   C2B 3851   2.812   1.115   5.081
  275POPC   C3B 3852   2.726   1.221   5.523
  275POPC   C4B 3853   2.791   1.164   5.990
  276POPC   NC3 3854   3.752   2.555   4.024
  276POPC   PO4 3855   3.197   2.468   3.683
  276POPC   GL1 3856   3.141   2.598   4.202
  276POPC   GL2 3857   3.480   2.573   4.458
  276POPC   C1A 3858   3.033   2.517   4.676
  276POPC   D2A 3859   3.229   2.446   5.125
  276POPC   C3A 3860   3.242   2.646   5.561
  276POPC   C4A 3861   3.498   2.687   5.962
  276POPC   C1B 3862   3.380   2.865   4.831
  276POPC   C2B 3863   3.423   3.117   5.222
  276POPC   C3B 3864   3.508   3.101   5.671
  276POPC   C4B 3865   3.888   3.125   5.968
  277POPC   NC3 3866   9.027  11.053   3.575
  277POPC   PO4 3867   9.324  10.723   4.122
  277POPC   GL1 3868   8.993  10.918   4.356
  277POPC   GL2 3869   8.984  11.244   4.262
  277POPC   C1A 3870   8.755  10.848   4.740
  277POPC   D2A 3871   8.799  10.638   5.137
  277POPC   C3A 3872   8.676  10.739   5.551
  277POPC   C4A 3873   8.839  11.052   5.794
  277POPC   C1B 3874   9.134  11.217   4.723
  277POPC   C2B 3875   8.905  11.194   5.125
  277POPC   C3B 3876   9.031  11.399   5.494
  277POPC   C4B 3877   9.014   0.239   5.787
  278POPC   NC3 3878   6.333   2.586   4.045
  278POPC   PO4 3879   6.503   3.193   4.126
  278POPC   GL1 3880   6.622   2.810   4.429
  278POPC   GL2 3881   6.586   2.426   4.449
  278POPC   C1A 3882   6.577   2.716   4.890
  278POPC   D2A 3883   6.760   2.924   5.249
  278POPC   C3A 3884   6.567   2.931   5.657
  278POPC   C4A 3885   6.644   3.131   6.056
  278POPC   C1B 3886   6.882   2.325   4.758
  278POPC   C2B 3887   6.947   2.455   5.181
  278POPC   C3B 3888   6.704   2.459   5.541
  278POPC   C4B 3889   6.349   2.479   5.840
  279POPC   NC3 3890   0.398   2.794   3.734
  279POPC   PO4 3891   0.125   3.096   4.192
  279POPC   GL1 3892   0.495   2.887   4.363
  279POPC   GL2 3893   0.475   2.501   4.412
  279POPC   C1A 3894   0.663   2.790   4.780
  279POPC   D2A 3895   0.519   2.804   5.187
  279POPC   C3A 3896   0.768   2.986   5.481
  279POPC   C4A 3897   0.682   2.773   5.812
  279POPC   C1B 3898   0.210   2.354   4.790
  279POPC   C2B 3899   0.111   2.493   5.192
  279POPC   C3B 3900   0.178   2.704   5.571
  279POPC   C4B 3901   0.255   2.519   5.965
  280POPC   NC3 3902  11.121   3.615   3.798
  280POPC   PO4 3903   0.022   3.128   3.663
  280POPC   GL1 3904  11.443   3.522   4.145
  280POPC   GL2 3905  11.122   3.478   4.293
  280POPC   C1A 3906  11.495   3.623   4.647
  280POPC   D2A 3907  11.499   3.369   5.054
  280POPC   C3A 3908   0.002   3.587   5.411
  280POPC   C4A 3909  11.357   3.508   5.833
  280POPC   C1B 3910  11.004   3.704   4.638
  280POPC   C2B 3911  11.043   3.545   5.020
  280POPC   C3B 3912  11.001   3.499   5.427
  280POPC   C4B 3913  10.756   3.780   5.584
  281POPC   NC3 3914   3.338  10.195   4.153
  281POPC   PO4 3915   3.725  10.776   4.118
  281POPC   GL1 3916   3.427  10.655   4.416
  281POPC   GL2 3917   3.417  10.370   4.613
  281POPC   C1A 3918   3.255  10.830   4.751
  281POPC   D2A 3919   3.385  10.632   5.102
  281POPC   C3A 3920   3.277  10.731   5.515
  281POPC   C4A 3921   3.366  10.533   5.928
  281POPC   C1B 3922   3.715  10.151   4.797
  281POPC   C2B 3923   3.511  10.133   5.123
  281POPC   C3B 3924   3.544  10.303   5.489
  281POPC   C4B 3925   3.782  10.187   5.806
  282POPC   NC3 3926   3.722   0.033   4.013
  282POPC   PO4 3927   3.929   0.674   3.943
  282POPC   GL1 3928   3.727   0.517   4.292
  282POPC   GL2 3929   3.396   0.419   4.247
  282POPC   C1A 3930   3.830   0.277   4.667
  282POPC   D2A 3931   3.679  11.495   5.014
  282POPC   C3A 3932   3.616   0.150   5.442
  282POPC   C4A 3933   3.715   0.294   5.859
  282POPC   C1B 3934   3.314   0.300   4.684
  282POPC   C2B 3935   3.513   0.504   5.057
  282POPC   C3B 3936   3.440   0.657   5.494
  282POPC   C4B 3937   3.201   0.365   5.757
  283POPC   NC3 3938   4.088   9.648   3.995
  283POPC   PO4 3939   4.789   9.387   3.979
  283POPC   GL1 3940   4.519   9.486   4.379
  283POPC   GL2 3941   4.211   9.677   4.467
  283POPC   C1A 3942   4.482   9.557   4.859
  283POPC   D2A 3943   4.711   9.452   5.249
  283POPC   C3A 3944   4.519   9.469   5.677
  283POPC   C4A 3945   4.614   9.637   6.128
  283POPC   C1B 3946   3.965   9.706   4.819
  283POPC   C2B 3947   3.910   9.846   5.206
  283POPC   C3B 3948   3.994   9.745   5.599
  283POPC   C4B 3949   4.330   9.927   5.795
  284POPC   NC3 3950  10.394  10.284   3.826
  284POPC   PO4 3951  10.088  10.857   3.923
  284POPC   GL1 3952  10.399  10.715   4.226
  284POPC   GL2 3953  10.544  10.389   4.324
  284POPC   C1A 3954  10.330  10.747   4.668
  284POPC   D2A 3955  10.420  10.532   5.042
  284POPC   C3A 3956  10.365  10.791   5.337
  284POPC   C4A 3957  10.440  10.778   5.724
  284POPC   C1B 3958  10.617  10.198   4.733
  284POPC   C2B 3959  10.623  10.079   5.180
  284POPC   C3B 3960  10.514  10.285   5.540
  284POPC   C4B 3961  10.823  10.209   5.796
  285POPC   NC3 3962   0.959   5.017   3.954
  285POPC   PO4 3963   0.385   5.359   4.001
  285POPC   GL1 3964   0.747   5.342   4.334
  285POPC   GL2 3965   1.110   5.182   4.404
  285POPC   C1A 3966   0.896   5.490   4.734
  285POPC   D2A 3967   1.151   5.184   4.973
  285POPC   C3A 3968   1.206   5.225   5.426
  285POPC   C4A 3969   0.893   5.102   5.709
  285POPC   C1B 3970   1.375   4.866   4.625
  285POPC   C2B 3971   1.462   4.782   5.081
  285POPC   C3B 3972   1.359   4.731   5.534
  285POPC   C4B 3973   1.516   4.978   5.864
  286POPC   NC3 3974   7.207   9.825   4.033
  286POPC   PO4 3975   7.915   9.870   3.898
  286POPC   GL1 3976   7.692   9.963   4.339
  286POPC   GL2 3977   7.471   9.682   4.425
  286POPC   C1A 3978   7.688   9.871   4.837
  286POPC   D2A 3979   7.343   9.883   5.162
  286POPC   C3A 3980   7.491  10.009   5.573
  286POPC   C4A 3981   7.500   9.711   5.877
  286POPC   C1B 3982   7.305   9.501   4.822
  286POPC   C2B 3983   7.296   9.374   5.274
  286POPC   C3B 3984   7.093   9.606   5.575
  286POPC   C4B 3985   6.706   9.496   5.788
  287POPC   NC3 3986   7.424   0.283   3.849
  287POPC   PO4 3987   7.670   0.905   3.878
  287POPC   GL1 3988   7.709   0.678   4.272
  287POPC   GL2 3989   7.398   0.520   4.308
  287POPC   C1A 3990   7.730   0.486   4.727
  287POPC   D2A 3991   7.767   0.287   5.205
  287POPC   C3A 3992   7.668   0.610   5.570
  287POPC   C4A 3993   7.718   0.686   6.072
  287POPC   C1B 3994   7.206   0.615   4.676
  287POPC   C2B 3995   7.366   0.590   5.085
  287POPC   C3B 3996   7.269   0.319   5.411
  287POPC   C4B 3997   7.103   0.637   5.666
  288POPC   NC3 3998   5.214   9.142   4.043
  288POPC   PO4 3999   4.879   8.611   3.845
  288POPC   GL1 4000   4.808   8.733   4.294
  288POPC   GL2 4001   4.829   9.061   4.363
  288POPC   C1A 4002   4.680   8.558   4.723
  288POPC   D2A 4003   4.952   8.577   5.107
  288POPC   C3A 4004   4.889   8.671   5.548
  288POPC   C4A 4005   5.030   8.772   5.990
  288POPC   C1B 4006   5.045   8.910   4.731
  288POPC   C2B 4007   5.057   9.071   5.174
  288POPC   C3B 4008   4.999   9.190   5.606
  288POPC   C4B 4009   5.382   9.134   5.836
  289POPC   NC3 4010   5.063   1.249   3.894
  289POPC   PO4 4011   4.638   0.721   4.083
  289POPC   GL1 4012   4.876   0.782   4.428
  289POPC   GL2 4013   5.094   1.037   4.358
  289POPC   C1A 4014   4.966   0.803   4.856
  289POPC   D2A 4015   5.071   1.098   5.096
  289POPC   C3A 4016   4.954   0.938   5.439
  289POPC   C4A 4017   5.079   0.806   5.827
  289POPC   C1B 4018   5.150   1.408   4.667
  289POPC   C2B 4019   4.939   1.577   5.063
  289POPC   C3B 4020   5.105   1.475   5.483
  289POPC   C4B 4021   5.436   1.509   5.760
  290POPC   NC3 4022   4.353   7.517   4.174
  290POPC   PO4 4023   3.786   7.600   4.235
  290POPC   GL1 4024   4.044   7.410   4.569
  290POPC   GL2 4025   4.246   7.118   4.484
  290POPC   C1A 4026   4.121   7.447   4.993
  290POPC   D2A 4027   4.285   7.737   5.278
  290POPC   C3A 4028   4.084   7.633   5.650
  290POPC   C4A 4029   3.884   7.259   5.821
  290POPC   C1B 4030   4.413   7.032   4.889
  290POPC   C2B 4031   4.572   7.298   5.208
  290POPC   C3B 4032   4.429   7.254   5.619
  290POPC   C4B 4033   4.227   6.878   5.797
  291POPC   NC3 4034   0.367   0.556   3.851
  291POPC   PO4 4035   0.071  11.496   3.769
  291POPC   GL1 4036   0.172   0.133   4.255
  291POPC   GL2 4037   0.352   0.458   4.337
  291POPC   C1A 4038   0.531   0.106   4.623
  291POPC   D2A 4039   0.752   0.281   5.001
  291POPC   C3A 4040   0.660   0.122   5.436
  291POPC   C4A 4041   0.937   0.236   5.766
  291POPC   C1B 4042   0.543   0.646   4.693
  291POPC   C2B 4043   0.345   0.652   5.115
  291POPC   C3B 4044   0.413   0.564   5.572
  291POPC   C4B 4045   0.358   0.637   6.011
  292POPC   NC3 4046  10.351   2.271   3.499
  292POPC   PO4 4047  10.191   1.709   3.895
  292POPC   GL1 4048  10.212   2.029   4.223
  292POPC   GL2 4049  10.500   2.214   4.284
  292POPC   C1A 4050  10.194   2.051   4.682
  292POPC   D2A 4051  10.346   1.864   5.054
  292POPC   C3A 4052  10.125   2.019   5.400
  292POPC   C4A 4053  10.146   2.166   5.780
  292POPC   C1B 4054  10.540   1.737   4.481
  292POPC   C2B 4055  10.749   1.618   4.875
  292POPC   C3B 4056  10.722   1.592   5.353
  292POPC   C4B 4057  10.427   1.717   5.717
  293POPC   NC3 4058   1.362   1.689   4.036
  293POPC   PO4 4059   1.476   2.242   3.755
  293POPC   GL1 4060   1.400   2.250   4.220
  293POPC   GL2 4061   1.074   2.111   4.245
  293POPC   C1A 4062   1.494   2.229   4.697
  293POPC   D2A 4063   1.688   2.246   5.141
  293POPC   C3A 4064   1.398   2.068   5.470
  293POPC   C4A 4065   1.345   2.028   5.915
  293POPC   C1B 4066   1.104   1.874   4.641
  293POPC   C2B 4067   1.067   2.044   5.049
  293POPC   C3B 4068   0.862   1.932   5.419
  293POPC   C4B 4069   1.032   1.681   5.748
  294POPC   NC3 4070   0.440  10.508   3.745
  294POPC   PO4 4071   0.778  10.139   4.113
  294POPC   GL1 4072   0.730  10.525   4.312
  294POPC   GL2 4073   0.387  10.592   4.259
  294POPC   C1A 4074   0.706  10.628   4.732
  294POPC   D2A 4075   0.708  10.269   4.988
  294POPC   C3A 4076   0.699  10.422   5.364
  294POPC   C4A 4077   0.643  10.341   5.764
  294POPC   C1B 4078   0.314  10.319   4.634
  294POPC   C2B 4079   0.158  10.411   5.062
  294POPC   C3B 4080   0.208  10.442   5.517
  294POPC   C4B 4081   0.194  10.290   5.967
  295POPC   NC3 4082   2.928   2.830   3.758
  295POPC   PO4 4083   2.402   2.467   3.856
  295POPC   GL1 4084   2.602   2.541   4.220
  295POPC   GL2 4085   2.671   2.841   4.348
  295POPC   C1A 4086   2.530   2.433   4.619
  295POPC   D2A 4087   2.587   2.670   4.962
  295POPC   C3A 4088   2.737   2.449   5.313
  295POPC   C4A 4089   2.699   2.559   5.741
  295POPC   C1B 4090   2.889   3.007   4.709
  295POPC   C2B 4091   2.975   2.897   5.159
  295POPC   C3B 4092   2.875   3.018   5.565
  295POPC   C4B 4093   3.030   2.944   5.975
  296POPC   NC3 4094   1.193  10.978   3.955
  296POPC   PO4 4095   0.869   0.128   4.000
  296POPC   GL1 4096   1.077  11.382   4.318
  296POPC   GL2 4097   1.150  11.048   4.458
  296POPC   C1A 4098   1.104  11.450   4.758
  296POPC   D2A 4099   1.357  11.302   5.092
  296POPC   C3A 4100   1.131  11.388   5.438
  296POPC   C4A 4101   0.977  11.208   5.811
  296POPC   C1B 4102   1.457  10.826   4.745
  296POPC   C2B 4103   1.551  10.821   5.204
  296POPC   C3B 4104   1.374  10.960   5.582
  296POPC   C4B 4105   1.407  10.865   6.009
  297POPC   NC3 4106   9.931   8.076   4.118
  297POPC   PO4 4107   9.304   7.842   3.915
  297POPC   GL1 4108   9.514   7.832   4.296
  297POPC   GL2 4109   9.452   8.194   4.314
  297POPC   C1A 4110   9.666   7.794   4.727
  297POPC   D2A 4111   9.832   7.589   5.141
  297POPC   C3A 4112   9.608   7.794   5.487
  297POPC   C4A 4113   9.718   8.173   5.659
  297POPC   C1B 4114   9.468   8.338   4.750
  297POPC   C2B 4115   9.462   8.180   5.184
  297POPC   C3B 4116   9.233   8.286   5.567
  297POPC   C4B 4117   9.047   8.204   5.978
  298POPC   NC3 4118   6.515  11.383   3.966
  298POPC   PO4 4119   6.519  10.763   3.926
  298POPC   GL1 4120   6.572  10.988   4.330
  298POPC   GL2 4121   6.547  11.352   4.446
  298POPC   C1A 4122   6.433  10.949   4.748
  298POPC   D2A 4123   6.612  11.062   5.121
  298POPC   C3A 4124   6.378  10.899   5.449
  298POPC   C4A 4125   6.563  10.926   5.865
  298POPC   C1B 4126   6.475  11.464   4.820
  298POPC   C2B 4127   6.507   0.054   5.181
  298POPC   C3B 4128   6.577  11.362   5.549
  298POPC   C4B 4129   6.432   0.099   5.883
  299POPC   NC3 4130  11.080   6.918   3.932
  299POPC   PO4 4131  10.908   6.237   3.760
  299POPC   GL1 4132  10.968   6.488   4.211
  299POPC   GL2 4133  11.216   6.686   4.336
  299POPC   C1A 4134  10.889   6.545   4.708
  299POPC   D2A 4135  10.721   6.410   5.136
  299POPC   C3A 4136  10.858   6.645   5.534
  299POPC   C4A 4137  10.955   6.473   5.972
  299POPC   C1B 4138  11.394   6.522   4.687
  299POPC   C2B 4139   0.026   6.488   5.082
  299POPC   C3B 4140  11.354   6.581   5.440
  299POPC   C4B 4141  11.359   6.761   5.835
  300POPC   NC3 4142  11.495   1.148   3.860
  300POPC   PO4 4143  10.828   1.020   3.906
  300POPC   GL1 4144  11.080   0.928   4.256
  300POPC   GL2 4145  11.357   1.153   4.335
  300POPC   C1A 4146  11.061   0.926   4.703
  300POPC   D2A 4147  11.000   1.223   5.040
  300POPC   C3A 4148  10.991   1.131   5.468
  300POPC   C4A 4149  11.058   0.890   5.844
  300POPC   C1B 4150  11.382   1.389   4.706
  300POPC   C2B 4151  11.389   1.558   5.127
  300POPC   C3B 4152  11.444   1.387   5.540
  300POPC   C4B 4153  11.293   1.317   5.972
  301POPC   NC3 4154  10.730   5.233   3.966
  301POPC   PO4 4155  10.291   4.811   3.794
  301POPC   GL1 4156  10.268   4.871   4.259
  301POPC   GL2 4157  10.430   5.174   4.403
  301POPC   C1A 4158  10.278   4.818   4.737
  301POPC   D2A 4159  10.142   4.722   5.173
  301POPC   C3A 4160  10.420   4.718   5.559
  301POPC   C4A 4161  10.225   4.883   5.954
  301POPC   C1B 4162  10.598   5.224   4.836
  301POPC   C2B 4163  10.559   5.122   5.249
  301POPC   C3B 4164  10.237   5.222   5.534
  301POPC   C4B 4165  10.267   5.399   5.923
  302POPC   NC3 4166   9.670   1.094   3.909
  302POPC   PO4 4167   9.429   1.696   3.891
  302POPC   GL1 4168   9.562   1.442   4.283
  302POPC   GL2 4169   9.446   1.069   4.361
  302POPC   C1A 4170   9.498   1.414   4.741
  302POPC   D2A 4171   9.692   1.229   5.099
  302POPC   C3A 4172   9.468   1.173   5.505
  302POPC   C4A 4173   9.483   1.333   5.941
  302POPC   C1B 4174   9.863   1.023   4.595
  302POPC   C2B 4175  10.062   0.846   4.979
  302POPC   C3B 4176  10.020   1.003   5.417
  302POPC   C4B 4177   9.804   0.962   5.837
  303POPC   NC3 4178   9.704  10.582   3.888
  303POPC   PO4 4179  10.028  10.007   3.859
  303POPC   GL1 4180  10.041  10.293   4.239
  303POPC   GL2 4181   9.885  10.636   4.368
  303POPC   C1A 4182  10.110  10.287   4.682
  303POPC   D2A 4183   9.915  10.563   5.000
  303POPC   C3A 4184  10.031  10.398   5.400
  303POPC   C4A 4185   9.962  10.561   5.796
  303POPC   C1B 4186   9.593  10.365   4.643
  303POPC   C2B 4187   9.431  10.356   5.083
  303POPC   C3B 4188   9.549  10.516   5.483
  303POPC   C4B 4189   9.491  10.367   5.906
  304POPC   NC3 4190   6.648   1.697   3.712
  304POPC   PO4 4191   6.331   1.245   3.960
  304POPC   GL1 4192   6.541   1.057   4.352
  304POPC   GL2 4193   6.849   0.807   4.324
  304POPC   C1A 4194   6.524   1.225   4.818
  304POPC   D2A 4195   6.633   1.539   5.176
  304POPC   C3A 4196   6.489   1.639   5.635
  304POPC   C4A 4197   6.679   1.638   6.070
  304POPC   C1B 4198   6.710   0.750   4.739
  304POPC   C2B 4199   6.777   0.909   5.166
  304POPC   C3B 4200   6.654   0.861   5.573
  304POPC   C4B 4201   6.469   1.161   5.826
  305POPC   NC3 4202  10.879   0.515   3.997
  305POPC   PO4 4203   0.006   0.714   4.068
  305POPC   GL1 4204  11.319   0.497   4.422
  305POPC   GL2 4205  10.950   0.463   4.502
  305POPC   C1A 4206  11.291   0.493   4.885
  305POPC   D2A 4207  11.336   0.859   5.134
  305POPC   C3A 4208  11.443   0.838   5.515
  305POPC   C4A 4209  11.418   0.546   5.793
  305POPC   C1B 4210  10.735   0.199   4.854
  305POPC   C2B 4211  10.808   0.165   5.249
  305POPC   C3B 4212  11.153   0.369   5.390
  305POPC   C4B 4213  10.932   0.404   5.726
  306POPC   NC3 4214   0.704   9.719   3.953
  306POPC   PO4 4215   0.289   9.283   3.946
  306POPC   GL1 4216   0.578   9.199   4.319
  306POPC   GL2 4217   0.784   9.508   4.429
  306POPC   C1A 4218   0.589   9.190   4.798
  306POPC   D2A 4219   0.604   9.488   5.154
  306POPC   C3A 4220   0.615   9.452   5.601
  306POPC   C4A 4221   0.326   9.542   5.916
  306POPC   C1B 4222   0.580   9.820   4.735
  306POPC   C2B 4223   0.344   9.935   5.139
  306POPC   C3B 4224   0.420   9.936   5.586
  306POPC   C4B 4225   0.646   9.910   6.014
  307POPC   NC3 4226  10.782   6.032   4.160
  307POPC   PO4 4227  10.186   5.808   3.897
  307POPC   GL1 4228  10.452   5.656   4.240
  307POPC   GL2 4229  10.285   5.899   4.416
  307POPC   C1A 4230  10.677   5.699   4.689
  307POPC   D2A 4231  10.828   5.835   5.096
  307POPC   C3A 4232  10.555   5.708   5.396
  307POPC   C4A 4233  10.543   5.858   5.815
  307POPC   C1B 4234  10.179   5.573   4.718
  307POPC   C2B 4235  10.098   5.594   5.171
  307POPC   C3B 4236  10.074   5.765   5.607
  307POPC   C4B 4237  10.098   6.122   5.959
  308POPC   NC3 4238  10.553  11.253   3.946
  308POPC   PO4 4239   9.878   0.017   3.859
  308POPC   GL1 4240   9.998  11.299   4.259
  308POPC   GL2 4241  10.337  11.203   4.377
  308POPC   C1A 4242  10.011  11.245   4.740
  308POPC   D2A 4243   9.958  11.445   5.146
  308POPC   C3A 4244  10.195  11.259   5.462
  308POPC   C4A 4245  10.066  11.082   5.835
  308POPC   C1B 4246  10.664  11.148   4.681
  308POPC   C2B 4247  10.537  11.242   5.075
  308POPC   C3B 4248  10.718  11.168   5.465
  308POPC   C4B 4249  10.558  11.283   5.830
  309POPC   NC3 4250   0.615   4.038   3.944
  309POPC   PO4 4251   0.234   4.555   4.068
  309POPC   GL1 4252   0.274   4.250   4.319
  309POPC   GL2 4253   0.599   4.262   4.389
  309POPC   C1A 4254   0.220   4.110   4.703
  309POPC   D2A 4255   0.164   4.353   5.056
  309POPC   C3A 4256   0.242   4.147   5.426
  309POPC   C4A 4257   0.218   4.385   5.784
  309POPC   C1B 4258   0.518   4.522   4.729
  309POPC   C2B 4259   0.659   4.279   5.075
  309POPC   C3B 4260   0.848   4.036   5.387
  309POPC   C4B 4261   0.654   4.113   5.780
  310POPC   NC3 4262   9.952   4.561   3.641
  310POPC   PO4 4263   9.385   4.382   3.964
  310POPC   GL1 4264   9.748   4.453   4.251
  310POPC   GL2 4265   9.802   4.159   4.457
  310POPC   C1A 4266   9.797   4.589   4.716
  310POPC   D2A 4267   9.799   4.308   5.104
  310POPC   C3A 4268   9.696   4.496   5.507
  310POPC   C4A 4269   9.696   4.726   5.931
  310POPC   C1B 4270   9.453   4.195   4.733
  310POPC   C2B 4271   9.236   4.269   5.134
  310POPC   C3B 4272   9.260   4.130   5.557
  310POPC   C4B 4273   9.384   4.334   5.894
  311POPC   NC3 4274   6.372  10.373   4.093
  311POPC   PO4 4275   6.983  10.232   3.934
  311POPC   GL1 4276   6.847  10.550   4.285
  311POPC   GL2 4277   6.531  10.490   4.538
  311POPC   C1A 4278   6.903  10.721   4.746
  311POPC   D2A 4279   6.651  10.562   5.125
  311POPC   C3A 4280   6.835  10.639   5.557
  311POPC   C4A 4281   6.760  10.405   5.980
  311POPC   C1B 4282   6.155  10.482   4.828
  311POPC   C2B 4283   6.085  10.437   5.294
  311POPC   C3B 4284   6.349  10.434   5.676
  311POPC   C4B 4285   6.266  10.359   6.122
  312POPC   NC3 4286   8.144   0.613   3.984
  312POPC   PO4 4287   7.857   0.025   3.878
  312POPC   GL1 4288   8.008   0.204   4.291
  312POPC   GL2 4289   8.393   0.267   4.311
  312POPC   C1A 4290   8.057   0.093   4.744
  312POPC   D2A 4291   8.349   0.057   5.099
  312POPC   C3A 4292   8.136   0.053   5.544
  312POPC   C4A 4293   7.946   0.292   5.846
  312POPC   C1B 4294   8.434   0.426   4.749
  312POPC   C2B 4295   8.164   0.547   5.020
  312POPC   C3B 4296   8.193   0.536   5.441
  312POPC   C4B 4297   8.123   0.794   5.770
  313POPC   NC3 4298   8.229   1.259   3.915
  313POPC   PO4 4299   8.468   0.798   4.251
  313POPC   GL1 4300   8.129   1.017   4.403
  313POPC   GL2 4301   8.150   1.388   4.397
  313POPC   C1A 4302   8.197   1.120   4.837
  313POPC   D2A 4303   8.204   0.996   5.244
  313POPC   C3A 4304   8.420   1.153   5.562
  313POPC   C4A 4305   8.244   1.488   5.738
  313POPC   C1B 4306   7.820   1.430   4.713
  313POPC   C2B 4307   7.687   1.226   5.101
  313POPC   C3B 4308   7.805   1.126   5.513
  313POPC   C4B 4309   7.856   1.196   5.934
  314POPC   NC3 4310   9.333   3.460   4.039
  314POPC   PO4 4311   8.607   3.173   4.035
  314POPC   GL1 4312   8.924   3.308   4.350
  314POPC   GL2 4313   8.945   3.648   4.405
  314POPC   C1A 4314   8.886   3.354   4.831
  314POPC   D2A 4315   8.991   3.269   5.278
  314POPC   C3A 4316   8.724   3.310   5.688
  314POPC   C4A 4317   8.810   3.528   6.084
  314POPC   C1B 4318   9.113   3.818   4.822
  314POPC   C2B 4319   9.016   3.783   5.264
  314POPC   C3B 4320   8.794   3.906   5.648
  314POPC   C4B 4321   8.976   4.024   6.032
  315POPC   NC3 4322   6.825  10.557   3.655
  315POPC   PO4 4323   7.483  10.614   3.704
  315POPC   GL1 4324   7.391  10.343   4.189
  315POPC   GL2 4325   7.315  10.570   4.482
  315POPC   C1A 4326   7.262  10.108   4.640
  315POPC   D2A 4327   7.126  10.346   5.033
  315POPC   C3A 4328   7.038  10.186   5.472
  315POPC   C4A 4329   7.235  10.394   5.844
  315POPC   C1B 4330   7.643  10.427   4.759
  315POPC   C2B 4331   7.627  10.298   5.139
  315POPC   C3B 4332   7.501  10.533   5.436
  315POPC   C4B 4333   7.736  10.474   5.780
  316POPC   NC3 4334   1.354   2.668   3.833
  316POPC   PO4 4335   0.804   2.958   3.945
  316POPC   GL1 4336   0.958   2.628   4.230
  316POPC   GL2 4337   1.280   2.748   4.324
  316POPC   C1A 4338   1.023   2.428   4.656
  316POPC   D2A 4339   1.247   2.549   5.054
  316POPC   C3A 4340   0.982   2.502   5.412
  316POPC   C4A 4341   0.925   2.284   5.795
  316POPC   C1B 4342   1.139   2.926   4.695
  316POPC   C2B 4343   1.139   3.069   5.128
  316POPC   C3B 4344   1.292   2.896   5.518
  316POPC   C4B 4345   1.377   2.509   5.734
  317POPC   NC3 4346   9.798   1.980   3.937
  317POPC   PO4 4347   9.211   2.386   3.907
  317POPC   GL1 4348   9.426   2.214   4.243
  317POPC   GL2 4349   9.301   1.902   4.335
  317POPC   C1A 4350   9.506   2.299   4.691
  317POPC   D2A 4351   9.424   2.036   5.059
  317POPC   C3A 4352   9.572   2.166   5.482
  317POPC   C4A 4353   9.466   2.259   5.940
  317POPC   C1B 4354   9.705   1.862   4.573
  317POPC   C2B 4355   9.838   1.754   4.989
  317POPC   C3B 4356   9.631   1.663   5.401
  317POPC   C4B 4357   9.710   1.814   5.821
  318POPC   NC3 4358   3.357   5.833   3.792
  318POPC   PO4 4359   3.615   5.341   3.820
  318POPC   GL1 4360   3.487   5.115   4.243
  318POPC   GL2 4361   3.176   4.894   4.262
  318POPC   C1A 4362   3.659   5.117   4.704
  318POPC   D2A 4363   3.751   5.265   5.149
  318POPC   C3A 4364   3.428   5.202   5.484
  318POPC   C4A 4365   3.438   4.929   5.850
  318POPC   C1B 4366   3.301   4.756   4.696
  318POPC   C2B 4367   3.515   4.806   5.125
  318POPC   C3B 4368   3.812   4.867   5.491
  318POPC   C4B 4369   3.891   4.613   5.860
  319W        W 4370  11.251  10.743   8.543
  320W        W 4371   8.598   4.372   3.153
  321W        W 4372   5.722   3.526   8.139
  322W        W 4373   6.752   6.837  11.799
  323W        W 4374   7.632   8.418   9.827
  324W        W 4375   2.197   9.687   8.632
  325W        W 4376   5.978   3.872   8.554
  326W        W 4377   0.956   5.090   2.236
  327W        W 4378   3.704   0.819   3.124
  328W        W 4379   9.298   0.769  11.221
  329W        W 4380   7.608   6.073   8.343
  330W        W 4381   8.683   5.493   8.614
  331W        W 4382  10.946   9.091   9.078
  332W        W 4383   9.780   9.394   9.121
  333W        W 4384  10.458   6.561   2.985
  334W        W 4385   7.797  10.868   2.231
  335W        W 4386  10.258   6.655  10.845
  336W        W 4387   7.490   1.368   0.150
  337W        W 4388   5.123   6.448   0.858
  338W        W 4389   0.750   4.368  11.650
  339W        W 4390   0.131   8.139  10.785
  340W        W 4391   7.997   2.325   2.938
  341W        W 4392   4.062  10.744  11.498
  342W        W 4393   3.185   7.609   9.983
  343W        W 4394   1.445   0.900   1.894
  344W        W 4395   9.695   6.619   9.995
  345W        W 4396   7.235   8.015   0.761
  346W        W 4397  10.986   5.447  10.529
  347W        W 4398   6.677   0.759   1.760
  348W        W 4399   3.254   7.040   1.778
  349W        W 4400   5.539   3.600   9.482
  350W        W 4401   1.843   9.472  11.782
  351W        W 4402   4.766   2.836   0.522
  352W        W 4403   9.908  11.427   3.191
  353W        W 4404   8.617   3.406   2.141
  354W        W 4405   1.526   7.585  10.022
  355W        W 4406   0.397   8.519  11.531
  356W        W 4407   0.958   6.974   8.251
  357W        W 4408   2.463   9.920   0.355
  358W        W 4409   6.411   3.629   8.759
  359W        W 4410   7.533   9.507   9.002
  360W        W 4411  10.638   5.069  11.986
  361W        W 4412   6.124   8.451  10.393
  362W        W 4413   1.096   1.404   9.782
  363W        W 4414   6.520   2.922  11.641
  364W        W 4415   2.294  10.835   1.366
  365W        W 4416   1.824   5.525   2.484
  366W        W 4417   9.394   8.823   3.032
  367W        W 4418   4.636  10.770   2.784
  368W        W 4419   5.208   5.455   1.818
  369W        W 4420   8.464   6.948   3.059
  370W        W 4421   7.616   6.575   9.499
  371W        W 4422   5.581   2.627   1.484
  372W        W 4423  11.121  10.519   2.893
  373W        W 4424   7.738   9.513   3.521
  374W        W 4425   5.571   6.660  10.539
  375W        W 4426   1.401   9.917   0.479
  376W        W 4427   9.852   4.754   0.721
  377W        W 4428   7.606   5.214  10.098
  378W        W 4429   2.233   3.702   2.328
  379W        W 4430   1.451   8.121   2.734
  380W        W 4431   3.749   3.730   1.273
  381W        W 4432   9.303   2.462   2.484
  382W        W 4433   5.147   3.221   1.339
  383W        W 4434   5.659   0.369  11.106
  384W        W 4435   5.390   6.049   9.830
  385W        W 4436   4.826   1.164   3.102
  386W        W 4437   9.414   4.625  11.954
  387W        W 4438   4.971  10.558  10.446
  388W        W 4439   8.626   9.874   2.577
  389W        W 4440  11.244   2.714   8.833
  390W        W 4441   2.689   5.925   1.828
  391W        W 4442   2.963   8.041   9.263
  392W        W 4443   2.721   1.973  11.760
  393W        W 4444   0.850   9.353   2.632
  394W        W 4445   5.403   4.461   3.944
  395W        W 4446   2.705   8.621   3.248
  396W        W 4447   1.721   7.922   3.537
  397W        W 4448   5.189   3.653   1.854
  398W        W 4449   6.960   7.572   1.316
  399W        W 4450   3.171   7.446   2.557
  400W        W 4451   3.778   0.482  10.684
  401W        W 4452  11.399   2.572  10.853
  402W        W 4453   5.381  10.848  10.581
  403W        W 4454   1.433   9.155   0.660
  404W        W 4455   8.687  10.524  11.750
  405W        W 4456   4.939   2.399   8.139
  406W        W 4457   3.133   6.601   1.490
  407W        W 4458   0.230   6.554  11.496
  408W        W 4459   3.321   4.759  11.060
  409W        W 4460  10.355   4.154   1.247
  410W        W 4461   3.566   5.546  11.289
  411W        W 4462   5.944  10.420  10.966
  412W        W 4463   7.603   5.080  11.923
  413W        W 4464   2.739   9.170   3.471
  414W        W 4465   6.485  10.191   3.570
  415W        W 4466   3.307   3.394   0.459
  416W        W 4467   8.208   9.065  11.259
  417W        W 4468   2.338   2.269   9.142
  418W        W 4469   8.980   5.389  11.555
  419W        W 4470   5.245   2.612  10.778
  420W        W 4471   9.997   6.637   2.763
  421W        W 4472   6.961   4.647  10.746
  422W        W 4473   4.282   6.983   0.704
  423W        W 4474  11.308   6.069  10.396
  424W        W 4475   1.280   6.485   0.179
  425W        W 4476   9.037   8.896   0.531
  426W        W 4477   6.448   4.046   9.142
  427W        W 4478   2.282   9.660  11.950
  428W        W 4479  10.979   7.479   1.469
  429W        W 4480  10.046  10.755  10.408
  430W        W 4481   3.935   0.165  11.099
  431W        W 4482   7.071   7.527   0.288
  432W        W 4483   7.829   0.852   2.629
  433W        W 4484   7.074   0.255  11.525
  434W        W 4485   8.603   2.255  11.867
  435W        W 4486   4.212   5.707   0.343
  436W        W 4487   4.253   3.761   1.378
  437W        W 4488   5.534   1.951   9.453
  438W        W 4489   8.434   7.124   1.654
  439W        W 4490   7.602   1.699   3.408
  440W        W 4491  10.030  10.828   1.291
  441W        W 4492   8.025   4.106   1.189
  442W        W 4493   5.615   9.630   9.436
  443W        W 4494   1.251   6.509   1.144
  444W        W 4495   9.464   7.917   2.875
  445W        W 4496   6.961  11.307   2.811
  446W        W 4497   5.482   4.178   2.254
  447W        W 4498   2.254   2.778   8.897
  448W        W 4499   0.952  10.890   9.855
  449W        W 4500   2.833   7.529   1.821
  450W        W 4501   4.264  11.141   3.451
  451W        W 4502   4.718   0.772  11.932
  452W        W 4503   7.668   3.669  10.444
  453W        W 4504  10.866   8.839   1.459
  454W        W 4505  10.449   0.577   1.414
  455W        W 4506   3.197   8.111   9.747
  456W        W 4507   3.146   1.639   2.485
  457W        W 4508   9.313   7.548  10.790
  458W        W 4509   2.961  11.200   2.230
  459W        W 4510   7.786   9.277  11.723
  460W        W 4511   9.532   2.612   0.441
  461W        W 4512   7.060   1.700   0.202
  462W        W 4513   4.152   8.754   8.943
  463W        W 4514   0.884   1.373   0.026
  464W        W 4515   7.148   8.870   3.169
  465W        W 4516   3.143   5.668   9.427
  466W        W 4517  10.003   7.081   0.504
  467W        W 4518   5.522   8.406   9.942
  468W        W 4519   0.659   0.953   0.292
  469W        W 4520   1.107   9.498   0.373
  470W        W 4521   7.078   4.318   0.876
  471W        W 4522   2.739  10.815   1.992
  472W        W 4523   4.327  10.774   0.026
  473W        W 4524   9.211  10.068  11.069
  474W        W 4525   3.199   6.466   8.902
  475W        W 4526   5.997   5.740  11.366
  476W        W 4527   5.917   6.052   9.821
  477W        W 4528   2.158   4.856   3.282
  478W        W 4529   9.572   1.062   9.613
  479W        W 4530  10.705   0.884  11.372
  480W        W 4531   4.725   0.647  11.027
  481W        W 4532   2.303   7.594   8.024
  482W        W 4533   2.474   4.824   8.329
  483W        W 4534   7.995   9.590   9.326
  484W        W 4535   3.759   2.554   8.718
  485W        W 4536   4.568   7.144  11.817
  486W        W 4537   3.837   9.027   8.584
  487W        W 4538   0.911   8.428   1.760
  488W        W 4539   9.459   6.518  10.430
  489W        W 4540   3.059   7.139   9.516
  490W        W 4541   5.096  10.734   9.964
  491W        W 4542   7.037   1.822  10.847
  492W        W 4543   5.110   2.335   3.241
  493W        W 4544   2.290   7.182   9.876
  494W        W 4545   3.142   1.808   3.777
  495W        W 4546   7.971   6.078   3.222
  496W        W 4547  11.424   3.409   2.752
  497W        W 4548   5.946   6.447   0.367
  498W        W 4549   4.118  11.252   2.147
  499W        W 4550   0.936   2.695   1.216
  500W        W 4551   5.517   2.719   3.262
  501W        W 4552   4.865   4.336   0.891
  502W        W 4553   9.721   3.364  10.666
  503W        W 4554   5.130   9.834   2.225
  504W        W 4555   6.135  10.819   9.997
  505W        W 4556   1.448   3.323   1.490
  506W        W 4557   7.222   0.834   9.302
  507W        W 4558   0.812   6.553   1.393
  508W        W 4559   9.857   8.481   0.655
  509W        W 4560   1.662   4.024   9.658
  510W        W 4561   4.503   5.289  11.229
  511W        W 4562  10.539  10.067   2.241
  512W        W 4563  11.423   4.712  11.900
  513W        W 4564   8.195   5.472   8.444
  514W        W 4565  10.856   9.342   1.576
  515W        W 4566   1.231   2.814   2.977
  516W        W 4567   7.455   6.549   8.525
  517W        W 4568   0.057   4.833   0.374
  518W        W 4569   2.760   8.572   0.361
  519W        W 4570   2.628   4.641   1.948
  520W        W 4571   4.647  10.234   0.930
  521W        W 4572   3.876   1.741   2.172
  522W        W 4573   7.570   2.407   2.678
  523W        W 4574   2.355   6.965  10.812
  524W        W 4575   6.331   9.526   9.679
  525W        W 4576   6.188   5.083  10.845
  526W        W 4577   3.150   8.651   9.868
  527W        W 4578   8.247   4.800   3.615
  528W        W 4579   8.855   8.536  11.251
  529W        W 4580   3.312   8.087   0.358
  530W        W 4581   7.433   2.683   1.836
  531W        W 4582   6.728   0.796   9.247
  532W        W 4583   9.739   7.548   1.315
  533W        W 4584   8.452   6.087   3.440
  534W        W 4585   0.894   5.590   9.571
  535W        W 4586   1.794  11.007  10.275
  536W        W 4587   4.942   0.082  10.320
  537W        W 4588   8.540   6.642   2.179
  538W        W 4589   1.301   7.479  10.891
  539W        W 4590   0.332   1.680   0.791
  540W        W 4591   5.644   2.808  11.024
  541W        W 4592   5.537   2.309   3.589
  542W        W 4593   6.661   8.726  11.199
  543W        W 4594   3.555   0.995   1.297
  544W        W 4595   7.432   1.301   0.933
  545W        W 4596   7.355   6.146   0.341
  546W        W 4597   0.943   8.587   8.476
  547W        W 4598  11.437   5.192   3.378
  548W        W 4599   9.148   6.100   8.186
  549W        W 4600   3.889  10.796  10.998
  550W        W 4601   0.846   7.896   1.960
  551W        W 4602  10.520   9.920   1.282
  552W        W 4603   5.600   7.160   1.714
  553W        W 4604   7.630  10.078   0.090
  554W        W 4605   2.646   7.570   0.278
  555W        W 4606   9.880   6.497   2.291
  556W        W 4607  10.946   6.475   9.598
  557W        W 4608  10.047   3.333   1.367
  558W        W 4609   1.517  11.353  11.998
  559W        W 4610   7.732   1.930   2.552
  560W        W 4611   9.441   7.035  10.735
  561W        W 4612   0.402   1.168   0.717
  562W        W 4613   5.631   7.945   2.813
  563W        W 4614   6.104  11.316   2.664
  564W        W 4615   1.193   6.574   0.658
  565W        W 4616  10.805  11.292   1.144
  566W        W 4617   4.608   7.090   9.855
  567W        W 4618  11.462   2.586   3.177
  568W        W 4619   5.559   4.167   8.666
  569W        W 4620   2.291   9.215   2.785
  570W        W 4621   2.469   8.172  11.801
  571W        W 4622   9.041  10.498  10.828
  572W        W 4623   0.988   1.871  11.995
  573W        W 4624   1.348   8.674   1.944
  574W        W 4625   6.489   7.166   3.115
  575W        W 4626   4.872   1.992   1.402
  576W        W 4627   9.870   9.798  10.411
  577W        W 4628   9.598   6.787   9.213
  578W        W 4629   1.117   5.685   0.509
  579W        W 4630   5.823  10.446   9.451
  580W        W 4631   8.020   0.569  11.423
  581W        W 4632   9.256   2.138   3.468
  582W        W 4633   6.406   5.732   2.224
  583W        W 4634   1.840   2.199   9.282
  584W        W 4635   9.443   3.235   3.558
  585W        W 4636   4.309   2.647  11.084
  586W        W 4637   5.687   8.696   9.557
  587W        W 4638  10.876   6.757  11.961
  588W        W 4639   8.166  10.964   0.741
  589W        W 4640   1.312   8.995  11.494
  590W        W 4641   2.154   1.815   2.684
  591W        W 4642   2.640   0.343   2.839
  592W        W 4643   3.233   3.721   0.052
  593W        W 4644   4.639   6.162   3.525
  594W        W 4645   9.406   4.353   9.868
  595W        W 4646   4.284   7.968  10.332
  596W        W 4647   0.824   8.924   1.378
  597W        W 4648   7.390   3.142   9.466
  598W        W 4649   5.107   9.507   9.431
  599W        W 4650   3.041   6.054  11.939
  600W        W 4651   0.503   8.567   2.006
  601W        W 4652   4.306   7.178   8.878
  602W        W 4653   9.895   1.967   1.689
  603W        W 4654   0.821   3.526   3.074
  604W        W 4655   2.744   9.357   9.911
  605W        W 4656   7.402   4.858  10.491
  606W        W 4657   4.791   6.645   1.230
  607W        W 4658   7.388   1.688  11.777
  608W        W 4659   9.453   3.148  11.508
  609W        W 4660   8.714   9.877   0.324
  610W        W 4661  10.366   9.450  10.002
  611W        W 4662   2.434   2.290  10.075
  612W        W 4663  10.753   9.527   8.811
  613W        W 4664   6.970   9.988   3.223
  614W        W 4665   3.508   5.102   3.358
  615W        W 4666   5.600   9.716   1.863
  616W        W 4667   5.570   2.424   9.226
  617W        W 4668   8.574  11.296   2.148
  618W        W 4669   6.291   7.049  10.474
  619W        W 4670   2.308   7.684  11.854
  620W        W 4671   1.404   2.828   1.960
  621W        W 4672   0.203   2.213   1.476
  622W        W 4673   4.121   6.355   8.597
  623W        W 4674   6.669   7.219  11.435
  624W        W 4675   0.236   5.358   1.490
  625W        W 4676   0.316   4.252   3.104
  626W        W 4677   3.794  10.228   0.183
  627W        W 4678   8.835   4.333   0.125
  628W        W 4679   1.397   1.022   2.782
  629W        W 4680   2.383   9.585  10.154
  630W        W 4681   7.887   9.310   0.759
  631W        W 4682  11.431   5.644  11.713
  632W        W 4683   5.703   8.521   1.384
  633W        W 4684   7.192  10.200   1.402
  634W        W 4685   2.794   9.586  11.535
  635W        W 4686   6.025   6.887   1.816
  636W        W 4687  10.981   7.433  11.375
  637W        W 4688   1.417   6.689   2.163
  638W        W 4689   3.591  10.433  10.466
  639W        W 4690   3.608   9.485   3.279
  640W        W 4691   0.731   6.745   9.060
  641W        W 4692   8.981   6.819   9.541
  642W        W 4693   8.665   6.643   1.668
  643W        W 4694  11.424   5.767   1.117
  644W        W 4695   3.616   1.827   2.658
  645W        W 4696  10.489   0.736   0.934
  646W        W 4697   1.819  10.171  11.284
  647W        W 4698   4.138   5.703  11.841
  648W        W 4699  11.277   7.455  11.786
  649W        W 4700   8.568   0.545  10.223
  650W        W 4701   6.237   9.765   0.358
  651W        W 4702   1.791   7.311   0.252
  652W        W 4703   4.100   0.449   1.429
  653W        W 4704   5.200   1.664  11.736
  654W        W 4705   8.108   7.122   9.965
  655W        W 4706   8.428   1.179  10.854
  656W        W 4707   5.104   4.461  11.217
  657W        W 4708   7.124   7.138   1.106
  658W        W 4709   0.791   1.891   2.334
  659W        W 4710   7.970   0.328   0.258
  660W        W 4711   5.111  10.068   3.142
  661W        W 4712   0.722   8.889  11.095
  662W        W 4713   5.188   1.857   3.138
  663W        W 4714   2.658   5.199   3.665
  664W        W 4715   5.745   3.162   2.126
  665W        W 4716   3.616   4.855   0.627
  666W        W 4717   8.929   3.757   0.733
  667W        W 4718   7.628   9.140   3.083
  668W        W 4719   7.462   8.145   2.062
  669W        W 4720   1.287  11.380  11.017
  670W        W 4721   0.984   3.038   9.654
  671W        W 4722   9.051   0.257  11.471
  672W        W 4723   5.783   5.749  11.849
  673W        W 4724   4.968  10.242  10.042
  674W        W 4725   3.583   7.026   9.614
  675W        W 4726   6.578  11.084  10.968
  676W        W 4727   9.593   5.516   9.435
  677W        W 4728   2.098   4.196  10.573
  678W        W 4729   7.449   4.228   1.928
  679W        W 4730   0.888   7.629   9.387
  680W        W 4731   2.461  10.361  10.077
  681W        W 4732   7.091  10.553   8.708
  682W        W 4733   7.172  11.137   0.392
  683W        W 4734   0.803   3.351  10.037
  684W        W 4735   4.703   6.154   0.803
  685W        W 4736   3.646   2.386  11.794
  686W        W 4737   2.200   6.244   2.977
  687W        W 4738   8.328   5.268   2.815
  688W        W 4739   8.817   3.774   9.074
  689W        W 4740  10.788   4.851   3.648
  690W        W 4741   5.834  10.553   0.176
  691W        W 4742   2.335  11.326   9.053
  692W        W 4743   5.685   1.793   1.001
  693W        W 4744   8.147   8.268   2.266
  694W        W 4745   2.298   1.721  11.912
  695W        W 4746   1.405   5.162   2.653
  696W        W 4747   5.488   2.654   0.952
  697W        W 4748   3.119   9.456   9.174
  698W        W 4749   2.986   4.134   0.224
  699W        W 4750   4.721   7.241   0.520
  700W        W 4751   9.986   0.778   3.456
  701W        W 4752  10.588   5.179   2.281
  702W        W 4753   8.080   4.604   9.445
  703W        W 4754   1.677   2.350   2.299
  704W        W 4755   9.270   3.268  10.884
  705W        W 4756   7.128   0.934  11.310
  706W        W 4757   9.603   8.966   0.855
  707W        W 4758   4.359   9.937  10.665
  708W        W 4759  10.644   3.221   0.701
  709W        W 4760   4.904   1.278   1.212
  710W        W 4761   1.261   9.761   9.819
  711W        W 4762   6.541   9.966   9.618
  712W        W 4763   2.184   8.643   1.623
  713W        W 4764   1.864   8.557   9.987
  714W        W 4765   9.359   9.475   2.335
  715W        W 4766   2.757   2.187   0.246
  716W        W 4767   3.121   3.167   1.795
  717W        W 4768  10.080   9.629   3.072
  718W        W 4769   0.245   0.573   0.121
  719W        W 4770   4.149   9.513  10.959
  720W        W 4771   5.087   9.405  11.062
  721W        W 4772   9.206   6.581  10.867
  722W        W 4773   8.126  10.048   9.076
  723W        W 4774   7.925   0.350  10.962
  724W        W 4775   8.065   1.451   1.871
  725W        W 4776   1.134   7.979  11.593
  726W        W 4777   7.177   3.680   1.233
  727W        W 4778   0.527   7.693   1.451
  728W        W 4779  10.316   0.255   1.015
  729W        W 4780   6.325   1.733   2.297
  730W        W 4781   2.609   5.597   3.353
  731W        W 4782   3.585   8.398  11.292
  732W        W 4783   0.700  10.382   1.357
  733W        W 4784   3.645   7.919  11.522
  734W        W 4785   5.209   3.057  11.571
  735W        W 4786   6.496   2.812   3.442
  736W        W 4787   0.766   0.672   3.218
  737W        W 4788   7.014   8.430   1.912
  738W        W 4789   5.606   7.805   9.836
  739W        W 4790   5.865  10.534   2.104
  740W        W 4791   0.491  11.034   0.663
  741W        W 4792   8.294   6.369  10.989
  742W        W 4793  11.456   7.642   9.649
  743W        W 4794   1.535   7.937  10.899
  744W        W 4795   2.214   1.254   1.010
  745W        W 4796   5.671   5.540   2.730
  746W        W 4797   9.998   8.169   1.068
  747W        W 4798   3.252  10.809   0.861
  748W        W 4799  10.854   8.673   8.776
  749W        W 4800   6.688   3.213   8.917
  750W        W 4801   2.746   4.229  11.206
  751W        W 4802  10.362   5.578   1.896
  752W        W 4803  11.405   4.551   1.679
  753W        W 4804   5.026   2.076   9.544
  754W        W 4805   8.567   7.199  11.174
  755W        W 4806  10.881   4.689   1.692
  756W        W 4807   4.791   2.667  10.972
  757W        W 4808   0.935   9.024   9.204
  758W        W 4809   7.134   4.264   9.986
  759W        W 4810   9.020  11.496   9.534
  760W        W 4811  11.460   5.689  10.744
  761W        W 4812   5.716   1.107   1.816
  762W        W 4813   0.699   0.335  10.957
  763W        W 4814  10.860   7.027   1.717
  764W        W 4815  10.137   4.493   9.861
  765W        W 4816   6.677   9.110  11.675
  766W        W 4817   2.078   6.860   3.630
  767W        W 4818   7.614   0.724   2.047
  768W        W 4819  10.013   5.674  10.638
  769W        W 4820   2.606   1.792   1.759
  770W        W 4821   4.185   1.785   3.102
  771W        W 4822   6.780   5.149   0.436
  772W        W 4823   1.942   0.682   0.201
  773W        W 4824   8.536   8.944   2.736
  774W        W 4825   5.072   6.686  10.325
  775W        W 4826   7.009   1.027   3.607
  776W        W 4827   9.695   5.019   3.888
  777W        W 4828   6.273   5.706   1.276
  778W        W 4829   0.839   5.080   1.727
  779W        W 4830   7.824   4.664  10.736
  780W        W 4831   0.030   8.595   9.435
  781W        W 4832   5.949  10.109  10.487
  782W        W 4833   4.818   5.665   2.093
  783W        W 4834  10.859   0.887   1.308
  784W        W 4835   6.693   2.614   9.389
  785W        W 4836   6.043   2.172   2.253
  786W        W 4837  10.276   0.249  10.720
  787W        W 4838  10.491   5.612  10.451
  788W        W 4839   9.394   7.671   3.425
  789W        W 4840   2.832   8.628   2.739
  790W        W 4841   1.193   9.638   1.741
  791W        W 4842   5.796  10.070   0.381
  792W        W 4843   6.598   3.182  11.178
  793W        W 4844   7.495   7.639   1.263
  794W        W 4845   5.582   1.800   3.457
  795W        W 4846   6.371  10.598  11.204
  796W        W 4847   7.421   7.696   2.312
  797W        W 4848   7.552   6.730  11.418
  798W        W 4849  10.547   6.574  10.367
  799W        W 4850   8.544   9.887   8.777
  800W        W 4851   9.137   8.937  11.162
  801W        W 4852  11.434   5.595   1.856
  802W        W 4853   0.899  10.070   0.371
  803W        W 4854   2.727   6.615  10.941
  804W        W 4855  10.359   5.108   3.138
  805W        W 4856   9.984   1.702  10.267
  806W        W 4857   6.444   3.801   9.595
  807W        W 4858   1.339   5.475   3.220
  808W        W 4859   0.078  11.348  10.686
  809W        W 4860   9.550   0.230   0.532
  810W        W 4861   5.058   0.458   0.801
  811W        W 4862   3.645   2.329   1.204
  812W        W 4863   9.996   0.250   0.276
  813W        W 4864   4.578   2.195   0.977
  814W        W 4865   2.555   8.338   0.795
  815W        W 4866   0.547   9.193   0.788
  816W        W 4867   5.923   7.823  11.985
  817W        W 4868   6.510   5.139   1.880
  818W        W 4869   4.766   8.328   1.555
  819W        W 4870   3.208   1.387   2.042
  820W        W 4871  10.422   0.600   9.401
  821W        W 4872   3.854   0.377   9.681
  822W        W 4873   6.277   7.197   9.479
  823W        W 4874   2.232   5.243   9.487
  824W        W 4875   5.439   0.795   9.851
  825W        W 4876   0.910   8.348   3.526
  826W        W 4877   5.641   9.946  11.852
  827W        W 4878   2.185   3.374   2.793
  828W        W 4879  11.382   7.027  10.512
  829W        W 4880   2.712   4.504   0.951
  830W        W 4881   1.432   9.918   9.364
  831W        W 4882   7.043   4.829   0.748
  832W        W 4883   1.834   8.151   1.390
  833W        W 4884   7.820   4.194   8.677
  834W        W 4885  10.911   2.087   2.255
  835W        W 4886  11.288   9.934   0.748
  836W        W 4887   1.173   0.561   2.883
  837W        W 4888   7.774  10.651   0.781
  838W        W 4889   0.680   8.893   2.767
  839W        W 4890  10.025   5.666   0.975
  840W        W 4891   8.054  10.747   1.221
  841W        W 4892   6.267   9.200   3.133
  842W        W 4893   1.518   6.233   9.875
  843W        W 4894   6.428   0.295  11.663
  844W        W 4895   0.953   8.408   9.860
  845W        W 4896   6.641   9.403   1.071
  846W        W 4897  10.843   2.173   1.751
  847W        W 4898   4.210  10.787   2.460
  848W        W 4899   2.652   3.677   2.035
  849W        W 4900   7.872   0.346   2.712
  850W        W 4901   6.541   8.119  11.345
  851W        W 4902   0.664   2.148   1.735
  852W        W 4903   0.784   0.812   0.769
  853W        W 4904   1.299   3.121  11.575
  854W        W 4905  11.372   4.056   3.500
  855W        W 4906   2.365   2.447   0.455
  856W        W 4907   8.359   7.498   2.297
  857W        W 4908   1.202   9.404   9.448
  858W        W 4909   4.260  11.287  11.347
  859W        W 4910   1.754   5.082   1.679
  860W        W 4911   3.824   9.270   0.444
  861W        W 4912   3.520  11.396  11.949
  862W        W 4913   7.495   5.006   0.924
  863W        W 4914   2.554   4.642  11.787
  864W        W 4915   7.740   1.439   0.567
  865W        W 4916   7.904   1.931   0.713
  866W        W 4917   0.936   2.729   8.475
  867W        W 4918   3.184   7.497   1.082
  868W        W 4919   2.705   4.094   1.252
  869W        W 4920   6.979   0.326   2.752
  870W        W 4921   2.485   8.063   8.145
  871W        W 4922   4.904   2.828   4.029
  872W        W 4923   4.273   3.363  11.494
  873W        W 4924   2.255   3.815   1.331
  874W        W 4925  11.137   7.720   0.726
  875W        W 4926   1.015   8.896   0.422
  876W        W 4927   8.476   1.765   3.210
  877W        W 4928   1.354  10.040  11.731
  878W        W 4929   9.911   8.982   9.402
  879W        W 4930   0.344   2.731   0.042
  880W        W 4931   9.786   7.460   8.526
  881W        W 4932   3.919   2.174   2.890
  882W        W 4933   6.947   5.844  10.347
  883W        W 4934   4.225   2.214   3.380
  884W        W 4935   4.285   0.865   2.220
  885W        W 4936   7.745  10.165   0.578
  886W        W 4937   0.486   6.275   1.674
  887W        W 4938   0.307   1.884  10.290
  888W        W 4939  11.430   4.695  10.550
  889W        W 4940   3.610   0.470   2.734
  890W        W 4941   5.705   1.329   0.766
  891W        W 4942   1.135  10.431   9.501
  892W        W 4943  10.909  10.412   9.287
  893W        W 4944   6.273  10.247   0.205
  894W        W 4945   4.539  11.156   9.176
  895W        W 4946   4.196   4.712   2.821
  896W        W 4947   6.637   9.485  10.475
  897W        W 4948  11.345   7.631   9.126
  898W        W 4949  10.321   9.591  10.510
  899W        W 4950   3.897   6.167  10.665
  900W        W 4951   4.102   4.113   9.266
  901W        W 4952   1.685   9.513   8.599
  902W        W 4953   1.338   8.692   1.063
  903W        W 4954   0.866   6.368   2.937
  904W        W 4955   3.607  11.436   9.537
  905W        W 4956   4.819   8.409   2.858
  906W        W 4957   8.325  10.227   2.785
  907W        W 4958   5.554  10.599   2.971
  908W        W 4959   7.585   8.449  10.360
  909W        W 4960   0.191   1.448  11.895
  910W        W 4961   6.001   3.184   0.112
  911W        W 4962   0.645   7.059   9.495
  912W        W 4963   3.423   8.907   1.948
  913W        W 4964  11.287   8.028   3.072
  914W        W 4965   1.715   7.349   2.936
  915W        W 4966   3.079   5.280   8.216
  916W        W 4967   8.158   2.783  11.281
  917W        W 4968   9.283   0.440   2.749
  918W        W 4969   8.619   1.057   2.604
  919W        W 4970   9.387   2.154   0.337
  920W        W 4971  10.958  10.563   0.760
  921W        W 4972   2.265   9.102   9.981
  922W        W 4973   6.587   1.959   1.466
  923W        W 4974   5.662   1.941   1.996
  924W        W 4975   4.298   0.737  11.377
  925W        W 4976   6.124   3.817   0.394
  926W        W 4977   4.744   6.272  10.320
  927W        W 4978   0.320   2.275  10.906
  928W        W 4979   8.011   7.960   1.379
  929W        W 4980   6.587  10.435  10.758
  930W        W 4981   2.128   4.318   0.515
  931W        W 4982   3.181   5.535  10.515
  932W        W 4983   4.486   8.830   9.338
  933W        W 4984  10.381   2.412  10.918
  934W        W 4985   9.673   4.131   1.850
  935W        W 4986   1.530   6.351   3.525
  936W        W 4987   5.133   1.967   3.645
  937W        W 4988   3.260  10.218   2.683
  938W        W 4989   8.579   3.357   3.091
  939W        W 4990   6.174   1.403   2.682
  940W        W 4991  11.010   3.646   1.416
  941W        W 4992   8.540   6.140   9.174
  942W        W 4993  11.122   8.096   3.547
  943W        W 4994   8.041  11.455   8.926
  944W        W 4995   6.012  10.430   2.639
  945W        W 4996   3.584   6.378   2.709
  946W        W 4997   3.660   3.712   3.051
  947W        W 4998   9.394  10.512  10.290
  948W        W 4999   0.421   7.008   2.556
  949W        W 5000   2.097   9.988   2.862
  950W        W 5001   9.777   3.275  11.893
  951W        W 5002   7.611   2.225  10.920
  952W        W 5003   9.007  11.052   0.433
  953W        W 5004   9.299   5.094   1.461
  954W        W 5005   6.735   8.921   9.203
  955W        W 5006   8.294   9.134  11.760
  956W        W 5007   5.748   3.755   1.627
  957W        W 5008   1.331   3.774   2.878
  958W        W 5009   5.234   8.047   9.625
  959W        W 5010   0.986   1.682   1.454
  960W        W 5011   0.286   9.496   1.478
  961W        W 5012  10.403   3.249   2.186
  962W        W 5013   2.642  10.913   8.949
  963W        W 5014   5.756   7.183  11.289
  964W        W 5015   1.334   0.454   3.385
  965W        W 5016   8.604   5.907  10.964
  966W        W 5017   5.171   4.627  11.752
  967W        W 5018   1.030   0.638   1.740
  968W        W 5019   5.614   7.560  10.977
  969W        W 5020   2.124   5.971  10.918
  970W        W 5021   9.488   5.193   3.419
  971W        W 5022   3.770   8.029   8.914
  972W        W 5023   4.153   7.650   9.040
  973W        W 5024   7.151   2.317   3.017
  974W        W 5025   8.742   4.955  10.768
  975W        W 5026   0.809   0.205   1.879
  976W        W 5027   4.381   1.331   1.371
  977W        W 5028   6.995   2.757   8.996
  978W        W 5029   7.637   3.876   3.283
  979W        W 5030  11.501   4.267   0.158
  980W        W 5031   2.668   8.508   1.717
  981W        W 5032  10.871  10.355   0.297
  982W        W 5033   3.148   2.903   9.156
  983W        W 5034   1.370   2.765  10.999
  984W        W 5035   3.270   9.840   8.856
  985W        W 5036   5.060   5.862  11.357
  986W        W 5037   5.117   9.584   8.064
  987W        W 5038  10.948   8.109   2.688
  988W        W 5039   6.439   9.134   1.836
  989W        W 5040   5.692  10.082   8.528
  990W        W 5041   7.042   8.397   9.075
  991W        W 5042   6.010   5.553   9.650
  992W        W 5043   8.891   5.527  10.572
  993W        W 5044   7.455   3.610   0.773
  994W        W 5045   6.313   2.692   2.908
  995W        W 5046   8.089   5.533   0.692
  996W        W 5047   1.434   6.243   8.992
  997W        W 5048   6.667   0.067  10.850
  998W        W 5049   8.062   6.432   0.292
  999W        W 5050  10.597   4.507   9.620
 1000W        W 5051   9.575   3.556   2.667
 1001W        W 5052   4.177   2.838  10.031
 1002W        W 5053   0.355   4.550   9.816
 1003W        W 5054  10.002   9.081  11.512
 1004W        W 5055   2.641   6.579   2.907
 1005W        W 5056   3.270  10.576   3.219
 1006W        W 5057   9.912   1.699   3.484
 1007W        W 5058   9.408   5.551  11.751
 1008W        W 5059   7.987   9.937   3.264
 1009W        W 5060   1.236   4.556   9.852
 1010W        W 5061   9.012   9.362  11.458
 1011W        W 5062   3.600   0.418   0.047
 1012W        W 5063   3.063   3.086   8.385
 1013W        W 5064   0.249   9.115   0.060
 1014W        W 5065   8.143   8.924   0.578
 1015W        W 5066   9.740   6.651   0.435
 1016W        W 5067   9.336   9.393   9.943
 1017W        W 5068   5.227   1.940   0.725
 1018W        W 5069   3.141   2.383   2.154
 1019W        W 5070   9.318   5.913   1.942
 1020W        W 5071   0.940   1.527  11.096
 1021W        W 5072   2.888   1.625  10.485
 1022W        W 5073   3.772   0.282   9.175
 1023W        W 5074   0.404   6.464   3.297
 1024W        W 5075   1.851   3.615   9.385
 1025W        W 5076   9.914  10.022   3.354
 1026W        W 5077   5.949   0.493   9.283
 1027W        W 5078  11.371   7.034   1.709
 1028W        W 5079   7.674   2.609  11.945
 1029W        W 5080   8.429   0.251   0.471
 1030W        W 5081   5.766  10.893   9.186
 1031W        W 5082   8.434   8.097   9.094
 1032W        W 5083   0.315   5.170   3.014
 1033W        W 5084   4.820   8.918   0.931
 1034W        W 5085   0.544   3.985  11.883
 1035W        W 5086   0.420   6.282   9.772
 1036W        W 5087   8.743   1.443  11.780
 1037W        W 5088  11.259  11.206  10.303
 1038W        W 5089   2.612   8.114   2.101
 1039W        W 5090   3.630   8.415   9.731
 1040W        W 5091   7.885   6.950   2.594
 1041W        W 5092   9.569   2.380  11.106
 1042W        W 5093   6.943   0.796   1.293
 1043W        W 5094   6.253   6.362   8.559
 1044W        W 5095   2.182   8.323  10.723
 1045W        W 5096   0.926   1.366   9.085
 1046W        W 5097   2.068   6.847   9.529
 1047W        W 5098   9.757  10.281   9.005
 1048W        W 5099  11.060   7.708  10.492
 1049W        W 5100   1.193   1.963   0.709
 1050W        W 5101   8.599   9.944   1.146
 1051W        W 5102   6.039   8.198   3.053
 1052W        W 5103  11.038   9.839   0.319
 1053W        W 5104   4.802   9.784   2.637
 1054W        W 5105   6.149   1.376   1.149
 1055W        W 5106   1.758  11.243  11.103
 1056W        W 5107   9.397   6.638   0.077
 1057W        W 5108   8.277   0.250   3.031
 1058W        W 5109   2.436   0.714   0.307
 1059W        W 5110   2.586   6.134  11.038
 1060W        W 5111   3.765   0.066   0.384
 1061W        W 5112   7.978   8.972   1.579
 1062W        W 5113   6.639   8.945   0.301
 1063W        W 5114   0.895   3.399  11.453
 1064W        W 5115   0.843   6.782  10.905
 1065W        W 5116   8.170   6.672   1.763
 1066W        W 5117   2.431   4.832   1.205
 1067W        W 5118   9.411   2.442  10.645
 1068W        W 5119   5.103   2.644   1.299
 1069W        W 5120   0.891   3.660  10.901
 1070W        W 5121   7.568   7.219   0.300
 1071W        W 5122  10.138   7.908   0.672
 1072W        W 5123   6.709   9.322   9.978
 1073W        W 5124   9.856  10.152   1.822
 1074W        W 5125   2.196   4.683   0.160
 1075W        W 5126   2.200   7.948   2.369
 1076W        W 5127  11.184   6.490  11.254
 1077W        W 5128  10.903   9.975  10.058
 1078W        W 5129   1.597   2.355   1.450
 1079W        W 5130   6.509   1.713   1.000
 1080W        W 5131   1.931   1.345   9.401
 1081W        W 5132  11.383   7.267   0.801
 1082W        W 5133   9.886  10.879   9.929
 1083W        W 5134   1.181   9.569   0.865
 1084W        W 5135   0.723   2.317  11.299
 1085W        W 5136   9.524  10.371   0.026
 1086W        W 5137   9.331   7.614   1.003
 1087W        W 5138  10.869   7.188   3.080
 1088W        W 5139   6.615   1.460   1.465
 1089W        W 5140   5.519   6.690   1.827
 1090W        W 5141   9.428   1.895  11.069
 1091W        W 5142   9.287   1.424  11.834
 1092W        W 5143   4.700   7.754   2.952
 1093W        W 5144   6.543   3.736  10.913
 1094W        W 5145   5.142   8.038   3.030
 1095W        W 5146   9.522   8.868  10.802
 1096W        W 5147   9.480   1.652   1.510
 1097W        W 5148   2.881   9.477   2.202
 1098W        W 5149  11.319   5.112   2.878
 1099W        W 5150   7.614   9.322  10.490
 1100W        W 5151   2.875   0.941  11.430
 1101W        W 5152   2.255   4.373   9.824
 1102W        W 5153   3.769   7.981  11.026
 1103W        W 5154   5.144   6.665  10.847
 1104W        W 5155   9.750   7.019   0.963
 1105W        W 5156   0.232   2.861   8.973
 1106W        W 5157   3.682  10.363   2.926
 1107W        W 5158   3.201  11.363  10.621
 1108W        W 5159  10.959  10.831   2.536
 1109W        W 5160  10.831   6.338   2.758
 1110W        W 5161  11.121  11.114  11.507
 1111W        W 5162   0.391   6.017  10.761
 1112W        W 5163   8.180   2.817   1.262
 1113W        W 5164   7.505   2.652   9.034
 1114W        W 5165   7.051   7.043   2.073
 1115W        W 5166   0.333   9.023   3.124
 1116W        W 5167   9.865   1.797   1.192
 1117W        W 5168   2.908   5.487   0.731
 1118W        W 5169   7.952   8.367  11.324
 1119W        W 5170   7.909   0.667   3.115
 1120W        W 5171   8.980   8.683   2.775
 1121W        W 5172   2.081   0.897   0.653
 1122W        W 5173   8.012   3.861  10.082
 1123W        W 5174   9.368   7.426   9.844
 1124W        W 5175   0.854   0.492   8.839
 1125W        W 5176   4.753   4.357   2.937
 1126W        W 5177   7.042   5.028  11.332
 1127W        W 5178  11.015   4.080   0.613
 1128W        W 5179   4.418   1.304   2.756
 1129W        W 5180   2.530   4.213  10.216
 1130W        W 5181   6.422   2.747   1.666
 1131W        W 5182   3.308   0.445   9.431
 1132W        W 5183   7.033   2.979   9.826
 1133W        W 5184   5.178   4.028   8.362
 1134W        W 5185   0.064   2.857  11.234
 1135W        W 5186   6.838  10.740   0.580
 1136W        W 5187   2.693  10.810   9.919
 1137W        W 5188   4.563   2.210  11.934
 1138W        W 5189   7.094   6.515  11.412
 1139W        W 5190  10.242   4.041  10.418
 1140W        W 5191   7.892   5.027   1.473
 1141W        W 5192   6.345   3.291   3.253
 1142W        W 5193   4.294   4.221   2.651
 1143W        W 5194  11.361   7.507   3.181
 1144W        W 5195   1.252   6.672   9.762
 1145W        W 5196   9.457   4.046   2.845
 1146W        W 5197   4.738   4.115   8.640
 1147W        W 5198  10.032   8.621   1.941
 1148W        W 5199   0.895   7.714  10.672
 1149W        W 5200   8.979   5.622   0.977
 1150W        W 5201   0.932   0.228  10.212
 1151W        W 5202   1.144  10.201   2.781
 1152W        W 5203  10.110   3.057  10.538
 1153W        W 5204  11.024   1.166   0.551
 1154W        W 5205   4.603   2.257   2.379
 1155W        W 5206   7.347   1.467   9.069
 1156W        W 5207   3.812   0.389  10.195
 1157W        W 5208   2.498   1.758   8.815
 1158W        W 5209   6.694  10.913   8.734
 1159W        W 5210   3.835   4.626  11.357
 1160W        W 5211   6.192   2.961  10.330
 1161W        W 5212   3.048   5.541   8.857
 1162W        W 5213   0.271   3.164  10.826
 1163W        W 5214   2.438   4.630  11.294
 1164W        W 5215   0.126   1.789   8.855
 1165W        W 5216   4.249   5.017   9.556
 1166W        W 5217   9.999   1.725   2.658
 1167W        W 5218   9.071   4.287   2.599
 1168W        W 5219  11.263   3.114  10.867
 1169W        W 5220   8.368   1.754   0.863
 1170W        W 5221   1.269   8.461  11.552
 1171W        W 5222   6.927   6.200   9.143
 1172W        W 5223  11.394   3.183   1.344
 1173W        W 5224  10.687   1.870   3.939
 1174W        W 5225   1.174  10.289  10.412
 1175W        W 5226   9.085   9.024   1.998
 1176W        W 5227   8.943   1.886  11.929
 1177W        W 5228   4.241   9.936   2.780
 1178W        W 5229   8.969   6.924   1.200
 1179W        W 5230   6.877   3.111   9.373
 1180W        W 5231   6.211   8.510  11.276
 1181W        W 5232   9.418   3.601   3.151
 1182W        W 5233   8.557   2.076   1.280
 1183W        W 5234   8.511   8.040   2.762
 1184W        W 5235   9.895   9.324  10.654
 1185W        W 5236   7.476   2.786   2.340
 1186W        W 5237   8.962   7.142  10.852
 1187W        W 5238  10.805   9.794   1.879
 1188W        W 5239   4.723   9.501   8.469
 1189W        W 5240   8.136   1.794   2.261
 1190W        W 5241   8.017   6.436  11.439
 1191W        W 5242   7.591   5.319  10.608
 1192W        W 5243   7.061   9.066  11.991
 1193W        W 5244   7.118  10.990   9.035
 1194W        W 5245   8.880   4.567   8.639
 1195W        W 5246   4.168   2.600   3.007
 1196W        W 5247   5.670   3.851   0.715
 1197W        W 5248   1.260   6.540  11.270
 1198W        W 5249   8.484   8.994   3.232
 1199W        W 5250   4.146   0.460   8.838
 1200W        W 5251   8.731  10.911   0.955
 1201W        W 5252   6.552   8.445   9.694
 1202W        W 5253   2.328   8.646  10.341
 1203W        W 5254   0.502   1.044  11.811
 1204W        W 5255   0.396   4.390   1.723
 1205W        W 5256   0.416   0.480   2.076
 1206W        W 5257  11.299  10.776   0.408
 1207W        W 5258  10.514   4.797  10.036
 1208W        W 5259   1.810   1.744  10.098
 1209W        W 5260   6.474   4.737   0.386
 1210W        W 5261   1.209   4.994   3.189
 1211W        W 5262  10.339   6.270  11.237
 1212W        W 5263   6.115   9.629  10.570
 1213W        W 5264  10.903   7.883   1.781
 1214W        W 5265   3.303   8.331   8.929
 1215W        W 5266   2.278   6.174   9.321
 1216W        W 5267   9.928   5.452   8.711
 1217W        W 5268  10.403   2.137   9.590
 1218W        W 5269   1.846   0.173   2.717
 1219W        W 5270   3.375   1.286   8.785
 1220W        W 5271   7.190   7.287  10.066
 1221W        W 5272   8.578  10.780   0.471
 1222W        W 5273   6.417   8.002   9.006
 1223W        W 5274   6.628   5.422   0.047
 1224W        W 5275   7.479   1.534   2.383
 1225W        W 5276   6.750   9.501   3.224
 1226W        W 5277   3.480   8.635  11.760
 1227W        W 5278   5.898   2.944   0.836
 1228W        W 5279  10.900   5.550  10.024
 1229W        W 5280   2.419   1.789  11.393
 1230W        W 5281   7.217  10.647   0.223
 1231W        W 5282   0.027  10.893   0.890
 1232W        W 5283   3.299   7.460   2.059
 1233W        W 5284   8.902   7.581  11.100
 1234W        W 5285   6.248  10.027  10.928
 1235W        W 5286   3.733  10.922  10.006
 1236W        W 5287  10.072   9.106   1.785
 1237W        W 5288   3.793   7.039   0.508
 1238W        W 5289   9.409   7.152   1.859
 1239W        W 5290   3.623   9.374   9.246
 1240W        W 5291   3.837   9.863   1.208
 1241W        W 5292   1.320   5.323   9.441
 1242W        W 5293  11.333   8.553   8.961
 1243W        W 5294   8.241   6.368   8.797
 1244W        W 5295   6.918  11.454   3.296
 1245W        W 5296   2.389   1.325   9.141
 1246W        W 5297   6.378   9.159  11.275
 1247W        W 5298   3.129   1.846   9.529
 1248W        W 5299   6.565   2.464  11.895
 1249W        W 5300   3.716   9.829   2.057
 1250W        W 5301   6.180  11.065  11.290
 1251W        W 5302   7.152   7.079   0.555
 1252W        W 5303   2.337   9.888   1.741
 1253W        W 5304   8.505   9.415  11.058
 1254W        W 5305   5.522   5.641   9.541
 1255W        W 5306   7.645   7.993  10.140
 1256W        W 5307   1.146   0.366  11.211
 1257W        W 5308   1.313   8.147   1.925
 1258W        W 5309   7.549  10.869  11.449
 1259W        W 5310   1.678   4.551   9.559
 1260W        W 5311   8.881   1.665   2.898
 1261W        W 5312   5.144   8.624   0.351
 1262W        W 5313   5.638  10.022   1.415
 1263W        W 5314   9.843  10.288  10.336
 1264W        W 5315   9.051   3.701   8.626
 1265W        W 5316   5.657   8.645   0.461
 1266W        W 5317   2.031  11.294  11.917
 1267W        W 5318   7.440   4.001  11.934
 1268W        W 5319   4.583   6.745   2.913
 1269W        W 5320   5.351   5.073   2.615
 1270W        W 5321   9.501   3.020   2.489
 1271W        W 5322   9.155   1.235  10.040
 1272W        W 5323   0.639   0.550  10.495
 1273W        W 5324   4.547  10.375   8.514
 1274W        W 5325   1.230   3.554   9.855
 1275W        W 5326   0.758   0.071  11.402
 1276W        W 5327   0.629   7.152   1.281
 1277W        W 5328  10.420  10.833  11.000
 1278W        W 5329   1.915   5.045   2.630
 1279W        W 5330   1.466   9.735   1.269
 1280W        W 5331   3.660   2.345   0.691
 1281W        W 5332   6.710   6.849   2.389
 1282W        W 5333   8.444   7.101   0.328
 1283W        W 5334   5.276   3.299   2.244
 1284W        W 5335   0.223   2.308   9.121
 1285W        W 5336   1.756   6.875   2.739
 1286W        W 5337   5.267   0.179   0.399
 1287W        W 5338   0.037  10.296   2.346
 1288W        W 5339   6.747   9.990  10.996
 1289W        W 5340   5.999   8.496  11.764
 1290W        W 5341   8.059   7.243  11.115
 1291W        W 5342   9.817   9.416   0.687
 1292W        W 5343   2.401  11.336   0.276
 1293W        W 5344   2.385   9.424   0.392
 1294W        W 5345   8.496   5.613   3.596
 1295W        W 5346   4.256   3.563   0.912
 1296W        W 5347   6.968   2.359  10.996
 1297W        W 5348   8.429   3.276   9.498
 1298W        W 5349   9.191  10.112   0.406
 1299W        W 5350  10.188   8.602  11.581
 1300W        W 5351  11.435   8.631   9.922
 1301W        W 5352   6.518   0.639   0.057
 1302W        W 5353   6.105  11.039   3.437
 1303W        W 5354   0.149   7.194   9.817
 1304W        W 5355   2.913   7.571   2.990
 1305W        W 5356   0.425   9.001   1.741
 1306W        W 5357  10.526   8.509  11.971
 1307W        W 5358   7.206   5.667   1.091
 1308W        W 5359   3.388   5.259   9.140
 1309W        W 5360   9.901   8.155   2.824
 1310W        W 5361   2.909   5.475   1.748
 1311W        W 5362   2.407   3.305   1.194
 1312W        W 5363   3.883   1.294   8.619
 1313W        W 5364   8.712   6.673  10.838
 1314W        W 5365  10.416   1.494  10.439
 1315W        W 5366   7.165   6.504   3.170
 1316W        W 5367  11.476   6.132  11.997
 1317W        W 5368   0.171   1.067   0.259
 1318W        W 5369  11.449   3.391  10.432
 1319W        W 5370   8.889   3.216   8.545
 1320W        W 5371   0.067   6.093   1.917
 1321W        W 5372   5.995   4.092   9.444
 1322W        W 5373   9.879   3.707   0.633
 1323W        W 5374   4.627   8.567   0.441
 1324W        W 5375  10.823   3.478   2.393
 1325W        W 5376   0.467  10.007   2.210
 1326W        W 5377   5.052  11.448   0.827
 1327W        W 5378   7.269   6.194  10.601
 1328W        W 5379   3.778  11.135  11.421
 1329W        W 5380   2.664   9.313  11.947
 1330W        W 5381  10.618   7.859   0.516
 1331W        W 5382   1.704   4.867  11.035
 1332W        W 5383   6.897  11.381   9.498
 1333W        W 5384   1.882   8.829   0.282
 1334W        W 5385   8.551   2.358   2.372
 1335W        W 5386   3.671   2.857   0.724
 1336W        W 5387  10.679  11.413   0.661
 1337W        W 5388   2.864   4.184   2.660
 1338W        W 5389   3.148   0.325   1.521
 1339W        W 5390   0.270   5.537   9.827
 1340W        W 5391   6.311  10.448  10.310
 1341W        W 5392   4.932   0.649   1.668
 1342W        W 5393   0.246   3.128   0.389
 1343W        W 5394   2.953   0.136  10.171
 1344W        W 5395   0.483   3.087  11.433
 1345W        W 5396   1.980   8.113  11.897
 1346W        W 5397   4.571   7.574  11.543
 1347W        W 5398   7.312   0.523   8.918
 1348W        W 5399   6.573   7.888   2.354
 1349W        W 5400   7.548   2.292   0.780
 1350W        W 5401   3.763   5.199   0.256
 1351W        W 5402   3.704   4.489   1.895
 1352W        W 5403   8.144   4.629   8.661
 1353W        W 5404   7.853   8.458  11.923
 1354W        W 5405   5.506   8.942   8.601
 1355W        W 5406   0.833   9.224   3.127
 1356W        W 5407   2.798   2.107  10.361
 1357W        W 5408   0.513   1.312   2.654
 1358W        W 5409   5.315  11.362   1.745
 1359W        W 5410  10.279   9.476  11.313
 1360W        W 5411  10.729  10.410   1.329
 1361W        W 5412   2.784   2.391   0.776
 1362W        W 5413   8.014   6.004   4.121
 1363W        W 5414   2.320  10.878  11.799
 1364W        W 5415   6.988   1.519   0.724
 1365W        W 5416   0.019   9.953   8.830
 1366W        W 5417   0.469   3.056   9.775
 1367W        W 5418  10.641   3.910   0.286
 1368W        W 5419   2.815   3.765   9.455
 1369W        W 5420   4.594   9.477  10.695
 1370W        W 5421   5.669   1.721   2.924
 1371W        W 5422   3.407   1.418   2.887
 1372W        W 5423   5.232   9.385   8.542
 1373W        W 5424   0.222   0.335  10.758
 1374W        W 5425  10.877  10.121  11.291
 1375W        W 5426   4.628  10.060   2.224
 1376W        W 5427   4.934   0.778   9.775
 1377W        W 5428   4.044   4.634   3.541
 1378W        W 5429  10.538   7.228  11.545
 1379W        W 5430   6.790   3.651   9.183
 1380W        W 5431   4.521   4.460   9.560
 1381W        W 5432   3.816   0.407  11.580
 1382W        W 5433  10.883   4.173   1.138
 1383W        W 5434   5.168   9.871   3.621
 1384W        W 5435   4.354   1.432   9.948
 1385W        W 5436   7.471   0.815   3.401
 1386W        W 5437   9.046   0.795   2.462
 1387W        W 5438   8.546   7.585   9.273
 1388W        W 5439   3.686   2.655   9.274
 1389W        W 5440   8.546   7.534   2.790
 1390W        W 5441   9.015   4.608   1.308
 1391W        W 5442   8.596   2.583   0.529
 1392W        W 5443   6.072   3.309   1.151
 1393W        W 5444   2.723   7.941   2.645
 1394W        W 5445   3.192  10.310   0.103
 1395W        W 5446  10.600   9.839  10.901
 1396W        W 5447   7.603   4.373   1.454
 1397W        W 5448   2.384   7.860  10.731
 1398W        W 5449   8.635   6.359  11.725
 1399W        W 5450   8.968   9.628  11.008
 1400W        W 5451   5.767   0.375   0.499
 1401W        W 5452   6.077   8.095   8.598
 1402W        W 5453   6.045   7.279   4.019
 1403W        W 5454   4.088  10.957   9.042
 1404W        W 5455   0.874   3.904  11.366
 1405W        W 5456   4.336   8.848   0.762
 1406W        W 5457   2.790   2.478  11.831
 1407W        W 5458   7.787   6.660   9.985
 1408W        W 5459   9.587   2.877   9.459
 1409W        W 5460  10.099   9.004   9.872
 1410W        W 5461   3.669   0.795   8.949
 1411W        W 5462   4.735   9.056  11.469
 1412W        W 5463   8.803  10.892   2.375
 1413W        W 5464   3.871   5.266  10.565
 1414W        W 5465   6.676   3.781   0.263
 1415W        W 5466   8.036   9.620   9.874
 1416W        W 5467   9.093   5.735   2.795
 1417W        W 5468   7.666   4.165  11.038
 1418W        W 5469  10.726   9.808  11.773
 1419W        W 5470   3.139   9.091  10.152
 1420W        W 5471   5.829   5.201  11.605
 1421W        W 5472   3.383   6.066  10.675
 1422W        W 5473   6.517   6.674   1.681
 1423W        W 5474   9.551   6.154  10.812
 1424W        W 5475   6.931  10.862  10.663
 1425W        W 5476   8.141   8.979   1.092
 1426W        W 5477   3.333   8.057  10.223
 1427W        W 5478   4.228   2.322  10.452
 1428W        W 5479  10.820   2.769   9.149
 1429W        W 5480   0.484  10.969   1.182
 1430W        W 5481   0.979  11.325   1.397
 1431W        W 5482   8.915   7.327   9.534
 1432W        W 5483   2.168   3.413   1.892
 1433W        W 5484   9.166   7.085  11.939
 1434W        W 5485   2.893   7.876  11.929
 1435W        W 5486   2.382   0.545   1.995
 1436W        W 5487   1.149   9.657   2.930
 1437W        W 5488   8.852   0.741  11.472
 1438W        W 5489   2.941   3.024   3.112
 1439W        W 5490   4.273   2.819   0.360
 1440W        W 5491   4.646   4.261   9.115
 1441W        W 5492   4.718   2.961   1.426
 1442W        W 5493   5.225   5.595  10.949
 1443W        W 5494   5.712  11.083   3.084
 1444W        W 5495  11.067   6.066   9.907
 1445W        W 5496   1.254   4.816   9.403
 1446W        W 5497   2.326   4.338   8.439
 1447W        W 5498   2.408   2.708  11.557
 1448W        W 5499   5.795   7.116  10.417
 1449W        W 5500   1.286   1.106  11.112
 1450W        W 5501   8.732   4.250   9.208
 1451W        W 5502   7.422   5.198   1.849
 1452W        W 5503   5.139   1.692  11.252
 1453W        W 5504   6.594   6.132  10.038
 1454W        W 5505   6.588   4.513   2.522
 1455W        W 5506   1.188   5.667   1.331
 1456W        W 5507  10.283   0.636   0.101
 1457W        W 5508   3.111   8.865   2.358
 1458W        W 5509   3.407  10.776  10.865
 1459W        W 5510   8.110   4.112   3.146
 1460W        W 5511   3.154   3.529   2.755
 1461W        W 5512   4.715  10.925   9.694
 1462W        W 5513   9.846   0.292  10.404
 1463W        W 5514   5.688   3.381   8.944
 1464W        W 5515   9.085   4.598  10.949
 1465W        W 5516  10.697   1.802   0.874
 1466W        W 5517   5.189   3.726   1.370
 1467W        W 5518   9.099   4.169   8.868
 1468W        W 5519   9.748   5.289   1.237
 1469W        W 5520   9.941   8.147   0.280
 1470W        W 5521  10.409  10.917   3.294
 1471W        W 5522  10.084   2.370   2.844
 1472W        W 5523   1.279   2.374   1.047
 1473W        W 5524   7.097   0.279   1.313
 1474W        W 5525   2.167   2.121  10.988
 1475W        W 5526   7.373   7.185   2.454
 1476W        W 5527   0.004   9.570   2.765
 1477W        W 5528   9.132   6.602   9.091
 1478W        W 5529   3.147   8.934   9.144
 1479W        W 5530   4.110   9.542  10.434
 1480W        W 5531   1.911   2.210   0.421
 1481W        W 5532   4.821  10.576   1.290
 1482W        W 5533   6.218   6.218   3.031
 1483W        W 5534   3.718   5.400  11.781
 1484W        W 5535   0.135   8.891   2.144
 1485W        W 5536   6.072   6.182  11.933
 1486W        W 5537   0.900   6.462   1.908
 1487W        W 5538   5.171   3.627  10.991
 1488W        W 5539   9.284   6.299  11.284
 1489W        W 5540   8.947   3.280  10.465
 1490W        W 5541   4.569   0.262  11.962
 1491W        W 5542   1.764   9.189  11.351
 1492W        W 5543   9.664   0.586   9.454
 1493W        W 5544   9.765   0.785  11.423
 1494W        W 5545  10.386  11.357   1.897
 1495W        W 5546  10.828   1.320  11.088
 1496W        W 5547   3.712   3.367  10.927
 1497W        W 5548   0.466   3.839   2.309
 1498W        W 5549   4.595   0.752   0.777
 1499W        W 5550   9.033   8.093  10.177
 1500W        W 5551  10.804   0.300   0.996
 1501W        W 5552  10.146  10.411   9.957
 1502W        W 5553   8.544  11.243   0.179
 1503W        W 5554   1.006  10.541   2.436
 1504W        W 5555   5.136  11.451   2.733
 1505W        W 5556   5.456   4.047   3.617
 1506W        W 5557   1.990   9.885   9.381
 1507W        W 5558   4.953   1.257   2.614
 1508W        W 5559   6.634   2.674  10.382
 1509W        W 5560   5.164   3.997   4.030
 1510W        W 5561   9.116   6.359   8.638
 1511W        W 5562   8.903   7.419   1.223
 1512W        W 5563  10.563   4.287  10.093
 1513W        W 5564   2.181   9.133  11.989
 1514W        W 5565   8.077   5.028   4.052
 1515W        W 5566   7.617   7.127   1.249
 1516W        W 5567   1.677   6.925   3.247
 1517W        W 5568   0.069   5.977   9.953
 1518W        W 5569   4.425  10.399  11.356
 1519W        W 5570   9.509   9.887   1.254
 1520W        W 5571   5.538   9.632  11.332
 1521W        W 5572   2.662   1.065   1.266
 1522W        W 5573   3.328   2.259   9.273
 1523W        W 5574  11.053   9.432  11.722
 1524W        W 5575   2.293   2.252   0.915
 1525W        W 5576   9.041   6.787   1.964
 1526W        W 5577   7.800   5.739   9.865
 1527W        W 5578  11.107   4.479  10.879
 1528W        W 5579   8.009   4.695   2.183
 1529W        W 5580   7.373   4.696  11.025
 1530W        W 5581   4.244  11.396   2.616
 1531W        W 5582   3.666   6.606   0.274
 1532W        W 5583   5.928   0.925   8.523
 1533W        W 5584  10.860   8.198   0.220
 1534W        W 5585  10.793   1.810  10.498
 1535W        W 5586   9.423   2.626   2.020
 1536W        W 5587   1.626   1.336   9.816
 1537W        W 5588   0.481  10.538   2.300
 1538W        W 5589   9.339  11.365  11.217
 1539W        W 5590   9.975  11.436   9.525
 1540W        W 5591   2.913   5.356   0.219
 1541W        W 5592   3.369   2.584  10.653
 1542W        W 5593   4.341   3.777  11.189
 1543W        W 5594   6.607   2.231   0.970
 1544W        W 5595   2.148   1.770   9.203
 1545W        W 5596   2.182  11.413  11.418
 1546W        W 5597   4.359   0.795   0.311
 1547W        W 5598   9.576   8.045  10.087
 1548W        W 5599   4.920   8.591  10.867
 1549W        W 5600   0.607   5.908   0.707
 1550W        W 5601   3.238   4.292  11.293
 1551W        W 5602   2.252   8.629   2.971
 1552W        W 5603   1.820   0.258   9.500
 1553W        W 5604   6.376   4.021  10.477
 1554W        W 5605   4.107  11.256  10.832
 1555W        W 5606   5.985   6.142   0.867
 1556W        W 5607   0.277   1.651   9.839
 1557W        W 5608   1.444  10.235   1.361
 1558W        W 5609   3.746   6.601   9.391
 1559W        W 5610   1.154   1.839   8.963
 1560W        W 5611   7.955   0.442   1.775
 1561W        W 5612   6.269   8.804   9.994
 1562W        W 5613   8.007   4.163  11.425
 1563W        W 5614   8.602   8.410   2.006
 1564W        W 5615   8.202   6.533   3.247
 1565W        W 5616   9.623   6.949   2.292
 1566W        W 5617   0.702  11.382   0.983
 1567W        W 5618   8.767   8.712   3.770
 1568W        W 5619  11.451   9.136  10.767
 1569W        W 5620   1.298   5.992   0.069
 1570W        W 5621   8.917   6.107   0.536
 1571W        W 5622   8.517   3.401   8.876
 1572W        W 5623   4.749   8.006  11.741
 1573W        W 5624  11.276   9.659   1.737
 1574W        W 5625   6.764   8.048   9.394
 1575W        W 5626   7.131  10.486   9.221
 1576W        W 5627  10.956  10.632  11.402
 1577W        W 5628   5.486   6.141   2.300
 1578W        W 5629   6.365   6.154   2.540
 1579W        W 5630   3.277   8.573  10.384
 1580W        W 5631   2.687   5.535   2.843
 1581W        W 5632   0.305   9.465  11.330
 1582W        W 5633   3.178   6.209   3.386
 1583W        W 5634   0.580   1.487   3.668
 1584W        W 5635   0.301   7.078  11.774
 1585W        W 5636   3.673   3.855  11.816
 1586W        W 5637   9.852  11.492   1.824
 1587W        W 5638  10.402   1.289  11.352
 1588W        W 5639   6.236   7.897   0.408
 1589W        W 5640  11.001  10.009   1.466
 1590W        W 5641  10.824   1.353   9.618
 1591W        W 5642  10.455   6.486  11.979
 1592W        W 5643   0.755   1.183   3.135
 1593W        W 5644   0.907   3.789   2.573
 1594W        W 5645   9.674   2.145   2.617
 1595W        W 5646   3.151   2.084  10.756
 1596W        W 5647   4.521   0.961  10.091
 1597W        W 5648   1.359   2.329   1.914
 1598W        W 5649   8.855   4.599   2.231
 1599W        W 5650   5.796   9.023   9.942
 1600W        W 5651  11.010   9.858   2.334
 1601W        W 5652   8.858   1.735   1.035
 1602W        W 5653   8.013   7.457   1.306
 1603W        W 5654   9.032   7.660   2.883
 1604W        W 5655  10.011   7.000   8.992
 1605W        W 5656   3.384   3.383   1.407
 1606W        W 5657   9.172   7.591  11.940
 1607W        W 5658  10.623   3.605   9.625
 1608W        W 5659   8.091  10.304  11.884
 1609W        W 5660  10.094   8.830   8.938
 1610W        W 5661   6.969   4.626  11.728
 1611W        W 5662   6.577   1.146   9.600
 1612W        W 5663   6.283   8.985   2.670
 1613W        W 5664  10.008   8.951  11.002
 1614W        W 5665   8.326   6.837   0.764
 1615W        W 5666   2.831  11.390   8.804
 1616W        W 5667   2.494   0.065  10.376
 1617W        W 5668   6.643  10.907   1.342
 1618W        W 5669   4.585   9.034  11.945
 1619W        W 5670   9.411   2.881   0.891
 1620W        W 5671   5.008   2.842   3.169
 1621W        W 5672   0.181  10.340   1.419
 1622W        W 5673   9.825   4.802   2.312
 1623W        W 5674  10.079   0.381   9.733
 1624W        W 5675   3.305   9.963   1.307
 1625W        W 5676  10.899   6.464   1.303
 1626W        W 5677   6.108   3.646   1.994
 1627W        W 5678   4.144   4.258  11.198
 1628W        W 5679   0.695  10.817   3.394
 1629W        W 5680   9.384   8.051   1.818
 1630W        W 5681   0.441   6.180  11.772
 1631W        W 5682   4.212  10.128   3.291
 1632W        W 5683   9.463   3.929   2.318
 1633W        W 5684   2.864   2.592  10.502
 1634W        W 5685   0.779   4.195   0.696
 1635W        W 5686   1.808   0.915   8.664
 1636W        W 5687   3.774   3.607  11.379
 1637W        W 5688   2.179   5.689   9.126
 1638W        W 5689   8.110   5.825  10.972
 1639W        W 5690   4.976   9.532   8.948
 1640W        W 5691   3.862   7.534   3.256
 1641W        W 5692   5.620   3.677   2.101
 1642W        W 5693   5.051   3.551   2.773
 1643W        W 5694   0.057   6.702   2.382
 1644W        W 5695  10.471   3.228   2.695
 1645W        W 5696   5.658   7.644   1.936
 1646W        W 5697   7.307   0.860   8.484
 1647W        W 5698   7.987   5.004  10.374
 1648W        W 5699   4.442   1.087  11.049
 1649W        W 5700   2.661   3.291   0.221
 1650W        W 5701   0.413   0.282   3.407
 1651W        W 5702   3.216   3.610  10.549
 1652W        W 5703   3.189   6.050   9.799
 1653W        W 5704   9.893   2.854   1.140
 1654W        W 5705   0.428   8.623  10.053
 1655W        W 5706   7.102   2.839   0.458
 1656W        W 5707   8.089  10.055   2.369
 1657W        W 5708   0.836   8.366  11.281
 1658W        W 5709   6.199   5.290   2.401
 1659W        W 5710   1.898   2.264   1.855
 1660W        W 5711   3.221   5.315   2.476
 1661W        W 5712   5.805   5.038   0.389
 1662W        W 5713   5.168   9.745  11.720
 1663W        W 5714   1.374   5.763   1.798
 1664W        W 5715   2.157   9.018   8.919
 1665W        W 5716  10.522   6.992   9.085
 1666W        W 5717   5.545   7.951   8.682
 1667W        W 5718   4.710   0.929   3.615
 1668W        W 5719   6.430   2.125   9.318
 1669W        W 5720   1.268   7.642   9.018
 1670W        W 5721  11.236   2.822   1.717
 1671W        W 5722   3.419   2.243   3.007
 1672W        W 5723  10.856   3.674   0.926
 1673W        W 5724  11.000   6.167   0.543
 1674W        W 5725   0.883   8.647  10.290
 1675W        W 5726   2.677   0.526  11.239
 1676W        W 5727  11.475   8.077   2.593
 1677W        W 5728   7.309  10.787   2.136
 1678W        W 5729  10.423   0.457   8.919
 1679W        W 5730   5.497   6.695   0.379
 1680W        W 5731   2.696   0.255   0.244
 1681W        W 5732   3.519   4.001   2.012
 1682W        W 5733   9.589   2.904  11.058
 1683W        W 5734   4.605   9.367   9.391
 1684W        W 5735   8.709   5.117   0.357
 1685W        W 5736   5.097   4.049   0.090
 1686W        W 5737   1.681   9.491   9.606
 1687W        W 5738   4.780   1.464  11.530
 1688W        W 5739   5.631   9.394  11.782
 1689W        W 5740   1.817   0.478   1.196
 1690W        W 5741   2.712   3.646   3.041
 1691W        W 5742   9.961   4.826   1.246
 1692W        W 5743   9.017   4.820   2.675
 1693W        W 5744   0.056   9.432   3.283
 1694W        W 5745   4.559   4.812   0.470
 1695W        W 5746  10.722   5.763   3.618
 1696W        W 5747   7.088   9.861   2.246
 1697W        W 5748   6.134   4.890  10.392
 1698W        W 5749  10.984   0.747   0.834
 1699W        W 5750   8.460  10.039  10.353
 1700W        W 5751   2.707   3.659   1.531
 1701W        W 5752   3.831  10.257   0.694
 1702W        W 5753  11.134   0.037  11.796
 1703W        W 5754   4.459   9.315   1.276
 1704W        W 5755   4.660  10.783   1.737
 1705W        W 5756   9.068  11.373  10.546
 1706W        W 5757   4.235   7.771  10.962
 1707W        W 5758   5.507  10.784   1.187
 1708W        W 5759   7.931   3.194  11.610
 1709W        W 5760   5.518   6.821  10.056
 1710W        W 5761  10.133   5.158  10.513
 1711W        W 5762   6.240   3.169   2.174
 1712W        W 5763   8.461   5.181   3.349
 1713W        W 5764  10.822   0.755   0.328
 1714W        W 5765  10.107   6.277  11.685
 1715W        W 5766   8.927   3.560   9.953
 1716W        W 5767   4.813   6.979   2.469
 1717W        W 5768   3.332   8.156  11.830
 1718W        W 5769   1.082   7.944  11.091
 1719W        W 5770   2.248   0.946   3.150
 1720W        W 5771   4.206   8.399   9.487
 1721W        W 5772   8.129   7.846   3.064
 1722W        W 5773   7.850  11.489  10.385
 1723W        W 5774   1.471   3.734   1.179
 1724W        W 5775   7.268   4.512   8.192
 1725W        W 5776   6.185  11.198   9.092
 1726W        W 5777   7.871   5.479   1.748
 1727W        W 5778   5.597   1.721   8.967
 1728W        W 5779   2.771   2.691   1.964
 1729W        W 5780   0.428   4.069   0.364
 1730W        W 5781   2.413   8.576   8.816
 1731W        W 5782   3.852  11.130   8.618
 1732W        W 5783   8.406  10.935  11.787
 1733W        W 5784   9.509   0.099   9.369
 1734W        W 5785   5.549   8.004   3.694
 1735W        W 5786   8.980   9.979   3.007
 1736W        W 5787   0.419   0.333   1.041
 1737W        W 5788   6.330   8.014   0.914
 1738W        W 5789   6.226   4.091   8.132
 1739W        W 5790   5.183   2.565  11.777
 1740W        W 5791   3.142   8.336   3.082
 1741W        W 5792   3.071   5.576   1.240
 1742W        W 5793   0.754  10.459  10.642
 1743W        W 5794   5.335   6.939   3.563
 1744W        W 5795   5.974   4.186   3.641
 1745W        W 5796   8.881   5.073   1.131
 1746W        W 5797   6.179   4.316   0.982
 1747W        W 5798   4.688   3.724  10.809
 1748W        W 5799   6.606   7.980   8.524
 1749W        W 5800   0.930   2.924   0.753
 1750W        W 5801   1.684   3.256   1.921
 1751W        W 5802  10.939   5.538   2.190
 1752W        W 5803   9.442   4.258  10.901
 1753W        W 5804   3.678   6.167   9.669
 1754W        W 5805   3.629   3.553   9.894
 1755W        W 5806   6.316   5.381  10.434
 1756W        W 5807   9.903   4.682   8.891
 1757W        W 5808  10.806   7.668   9.040
 1758W        W 5809   4.251   5.584  10.884
 1759W        W 5810   5.747  10.466   8.891
 1760W        W 5811   5.913   3.795   2.873
 1761W        W 5812   7.220  10.114   0.432
 1762W        W 5813   3.379   9.800   3.615
 1763W        W 5814  11.443   8.059   1.876
 1764W        W 5815   5.688   4.117   0.254
 1765W        W 5816   4.160   6.677   0.289
 1766W        W 5817   6.911   0.745  10.307
 1767W        W 5818  10.454  10.543   0.564
 1768W        W 5819   2.912   2.963  11.907
 1769W        W 5820  10.032   2.561  11.287
 1770W        W 5821   4.452   6.653   3.594
 1771W        W 5822   1.334   8.931   2.421
 1772W        W 5823   2.154   3.331  10.487
 1773W        W 5824   7.941   9.166   9.670
 1774W        W 5825   3.287   4.010   2.870
 1775W        W 5826  11.148   9.492   9.531
 1776W        W 5827   2.757   3.732   8.954
 1777W        W 5828   9.094   8.066   2.265
 1778W        W 5829   7.801   2.849   2.817
 1779W        W 5830   7.502   3.137  10.914
 1780W        W 5831   8.522   0.620   1.191
 1781W        W 5832   6.538   0.798  11.558
 1782W        W 5833   6.519   2.238   2.417
 1783W        W 5834   9.662   8.702  11.310
 1784W        W 5835   3.250   9.800   2.360
 1785W        W 5836   4.610   0.351   1.389
 1786W        W 5837   6.718   1.098  11.964
 1787W        W 5838   5.207   0.999   3.462
 1788W        W 5839   4.481   5.380  10.454
 1789W        W 5840   1.001   8.527   9.374
 1790W        W 5841  10.773   8.463  10.891
 1791W        W 5842   7.096   9.736   1.208
 1792W        W 5843   1.946   2.226   9.987
 1793W        W 5844   6.532   8.342   0.239
 1794W        W 5845   3.384   9.100  11.521
 1795W        W 5846   6.010   7.896  11.011
 1796W        W 5847   6.235   6.472   9.831
 1797W        W 5848   1.233   0.971   0.937
 1798W        W 5849   1.434   3.094   9.908
 1799W        W 5850   1.697   4.559   3.324
 1800W        W 5851   4.042   6.744   2.883
 1801W        W 5852   6.030   1.839   9.505
 1802W        W 5853  10.778   9.112   2.948
 1803W        W 5854   9.767   8.438   8.948
 1804W        W 5855   1.488   8.020   0.034
 1805W        W 5856   9.405   6.656   1.044
 1806W        W 5857   9.413   4.709   3.589
 1807W        W 5858   0.666   6.721  11.796
 1808W        W 5859   2.617  10.562  11.436
 1809W        W 5860   3.797   2.159   9.047
 1810W        W 5861  10.912  10.897   9.958
 1811W        W 5862  10.950   6.649   3.176
 1812W        W 5863   8.026  10.081  10.086
 1813W        W 5864   4.693  10.900   3.308
 1814W        W 5865   1.479   9.663   0.055
 1815W        W 5866   9.518   2.665   1.475
 1816W        W 5867   4.276  10.818  10.611
 1817W        W 5868   9.238   5.162  10.720
 1818W        W 5869   3.229   3.826  11.535
 1819W        W 5870   5.703   4.254   9.946
 1820W        W 5871   4.102  10.019  10.230
 1821W        W 5872   1.277   9.118   2.901
 1822W        W 5873   2.584  10.063   2.968
 1823W        W 5874   6.630   9.436   9.257
 1824W        W 5875   1.616   5.572   0.454
 1825W        W 5876   8.898   4.172   9.689
 1826W        W 5877   9.912   7.180   2.645
 1827W        W 5878   2.478   5.321   1.009
 1828W        W 5879   4.165   3.126  11.047
 1829W        W 5880   1.387   5.796   9.620
 1830W        W 5881   1.059   2.930   3.495
 1831W        W 5882   1.717   6.639  10.999
 1832W        W 5883   1.178  10.949   9.377
 1833W        W 5884   4.128   5.223  11.546
 1834W        W 5885   0.558  10.254   8.865
 1835W        W 5886   5.015   5.789   9.582
 1836W        W 5887   1.380   3.774   1.828
 1837W        W 5888   0.248   3.530   9.899
 1838W        W 5889   9.964   0.482   8.687
 1839W        W 5890   9.519   1.937   9.008
 1840W        W 5891   4.626   3.231   0.252
 1841W        W 5892   9.179   0.471   9.544
 1842W        W 5893   3.595   4.207   3.262
 1843W        W 5894   8.530   5.381  10.945
 1844W        W 5895   5.671   8.714   1.866
 1845W        W 5896  10.090   2.728   9.420
 1846W        W 5897  10.214   3.415  10.884
 1847W        W 5898   8.007   9.478   8.815
 1848W        W 5899   0.798   8.250   2.310
 1849W        W 5900   0.730   8.105   9.235
 1850W        W 5901   9.087   6.650   2.912
 1851W        W 5902   8.539  10.340   0.198
 1852W        W 5903   6.571   2.647  11.193
 1853W        W 5904   0.244   5.876   1.472
 1854W        W 5905   1.813   2.787   1.204
 1855W        W 5906   3.489   8.408   1.621
 1856W        W 5907   3.827   4.814  10.851
 1857W        W 5908   8.066   2.687   8.467
 1858W        W 5909   1.533  11.022   0.855
 1859W        W 5910   6.725   9.896   0.364
 1860W        W 5911   5.850   6.228  11.463
 1861W        W 5912   4.658  11.276   2.922
 1862W        W 5913   7.165   9.386   1.957
 1863W        W 5914  10.654  11.389  11.785
 1864W        W 5915   2.016   6.285  11.851
 1865W        W 5916   7.470   3.342   1.578
 1866W        W 5917   5.720   4.113   3.201
 1867W        W 5918   8.069  10.829   1.726
 1868W        W 5919   2.456  10.885  10.903
 1869W        W 5920  11.270   4.274   2.988
 1870W        W 5921   7.184   2.649   9.476
 1871W        W 5922   9.275   0.654   1.772
 1872W        W 5923   7.200   3.260   3.039
 1873W        W 5924   2.204   3.692   3.265
 1874W        W 5925  10.339   3.372   9.981
 1875W        W 5926   1.365   9.204   1.983
 1876W        W 5927   3.730   2.094   8.450
 1877W        W 5928  10.275   3.896   9.908
 1878W        W 5929   6.964   5.381   2.041
 1879W        W 5930   4.568   2.721   0.987
 1880W        W 5931   6.244   3.662   1.493
 1881W        W 5932   8.356  10.835   9.521
 1882W        W 5933   4.744   5.231   0.760
 1883W        W 5934   7.110   4.534   1.714
 1884W        W 5935  11.049  11.343   0.272
 1885W        W 5936   9.728   5.941  11.723
 1886W        W 5937   6.689  10.430   9.457
 1887W        W 5938   5.294  10.960   8.986
 1888W        W 5939   6.288   2.349   1.364
 1889W        W 5940   4.600   0.548   2.423
 1890W        W 5941   0.461   2.758  10.573
 1891W        W 5942  10.864   1.997   2.745
 1892W        W 5943   6.462   6.089   0.992
 1893W        W 5944   1.948  10.133   1.957
 1894W        W 5945   1.155   0.860   9.106
 1895W        W 5946   3.487   9.589   9.682
 1896W        W 5947  10.440   2.800   2.421
 1897W        W 5948   1.237   8.042   9.362
 1898W        W 5949   0.359   0.840   2.441
 1899W        W 5950   1.697   5.551   1.428
 1900W        W 5951   3.198   8.866   3.163
 1901W        W 5952  10.041   4.990  10.029
 1902W        W 5953   2.083   1.795   1.748
 1903W        W 5954   8.426   3.272  10.424
 1904W        W 5955   3.785   3.100  11.377
 1905W        W 5956   9.038   6.088   9.055
 1906W        W 5957  11.190   5.722  11.221
 1907W        W 5958   1.781   4.597   1.493
 1908W        W 5959   8.736   2.513   2.836
 1909W        W 5960  11.362  10.562  11.098
 1910W        W 5961  10.035   2.614  10.320
 1911W        W 5962   8.248   0.915  10.398
 1912W        W 5963   5.524   2.116   2.570
 1913W        W 5964   5.612   0.377   9.631
 1914W        W 5965  10.970   5.220  11.474
 1915W        W 5966  10.115   3.579   9.527
 1916W        W 5967   0.276   7.263   2.979
 1917W        W 5968   3.330  11.357   1.419
 1918W        W 5969   6.710   6.120   8.679
 1919W        W 5970   1.442   7.069   8.418
 1920W        W 5971  11.442   5.645   9.194
 1921W        W 5972  10.123   6.057   2.231
 1922W        W 5973   5.062  10.328   2.314
 1923W        W 5974   0.421   9.894   3.484
 1924W        W 5975   9.179   9.586   0.336
 1925W        W 5976   9.004  10.461   2.205
 1926W        W 5977   1.803   8.943   1.825
 1927W        W 5978   2.233   2.759  10.079
 1928W        W 5979   4.103   4.244   1.553
 1929W        W 5980   2.241   1.958   3.797
 1930W        W 5981   4.121   3.346  10.057
 1931W        W 5982   0.187   1.471   1.699
 1932W        W 5983   8.511  10.720   2.774
 1933W        W 5984   4.631   3.859   2.819
 1934W        W 5985   6.620   8.437  10.226
 1935W        W 5986   2.991  10.445  10.112
 1936W        W 5987   3.186   1.771   9.014
 1937W        W 5988   9.601  10.778   1.004
 1938W        W 5989   3.507   8.005   0.931
 1939W        W 5990   5.417   7.824   9.180
 1940W        W 5991   4.046   2.569   2.519
 1941W        W 5992   7.691  11.035   0.460
 1942W        W 5993   3.609   2.123   0.237
 1943W        W 5994   6.570   1.260   9.075
 1944W        W 5995   8.081   8.327   2.775
 1945W        W 5996   0.887   0.378   2.391
 1946W        W 5997   6.911   3.320   0.577
 1947W        W 5998   4.174   9.071   1.699
 1948W        W 5999   3.465   0.488   3.730
 1949W        W 6000   3.673   3.555   1.790
 1950W        W 6001   9.923   4.756  10.792
 1951W        W 6002   7.229   1.868   2.690
 1952W        W 6003   8.690   3.669  11.304
 1953W        W 6004  11.411   9.901   9.324
 1954W        W 6005   9.811   0.095   0.999
 1955W        W 6006   1.474   5.097   2.131
 1956W        W 6007   2.429   6.120   8.830
 1957W        W 6008   3.374   9.491   0.400
 1958W        W 6009   8.605   5.261  11.871
 1959W        W 6010   5.991   6.066  10.972
 1960W        W 6011  10.513   3.422   0.266
 1961W        W 6012   3.103  11.350  11.121
 1962W        W 6013   8.628   8.794   1.233
 1963W        W 6014   1.773   5.975   2.211
 1964W        W 6015   1.674  10.806   9.253
 1965W        W 6016  11.279   9.762  11.361
 1966W        W 6017   5.303   8.960   0.702
 1967W        W 6018  10.564  11.357  10.942
 1968W        W 6019  11.452   7.575   1.693
 1969W        W 6020   9.920   5.594   0.028
 1970W        W 6021   1.387   1.417   3.116
 1971W        W 6022   4.774   1.701  11.986
 1972W        W 6023   6.533   7.552   1.015
 1973W        W 6024   4.982   6.546   3.597
 1974W        W 6025   3.847   3.162   1.494
 1975W        W 6026   7.128   8.846  11.056
 1976W        W 6027   3.266   2.679   1.750
 1977W        W 6028   2.262   7.917   1.199
 1978W        W 6029   3.699   0.301   3.213
 1979W        W 6030   4.157  11.209  10.292
 1980W        W 6031  10.426   5.187  11.475
 1981W        W 6032   2.833   8.810   0.791
 1982W        W 6033  10.885   3.276   9.306
 1983W        W 6034   3.948   7.123   9.264
 1984W        W 6035   3.859   3.388  11.830
 1985W        W 6036  11.415   3.117   9.975
 1986W        W 6037   2.227   8.923  11.317
 1987W        W 6038   6.214  10.805  10.753
 1988W        W 6039   2.194   2.221  11.489
 1989W        W 6040   3.267   9.056  10.639
 1990W        W 6041   1.293   5.293   1.661
 1991W        W 6042   9.750   4.596  10.197
 1992W        W 6043   3.881   8.173   8.377
 1993W        W 6044   8.069  10.455   2.053
 1994W        W 6045   6.973   8.428   0.565
 1995W        W 6046   5.546   2.361   9.744
 1996W        W 6047   0.682   6.003   1.225
 1997W        W 6048   1.684   6.698  11.987
 1998W        W 6049   6.080   8.881   1.607
 1999W        W 6050   0.636   1.823   9.038
 2000W        W 6051   2.767   1.122  10.433
 2001W        W 6052   6.090   0.430   2.285
 2002W        W 6053   8.558   9.734   1.621
 2003W        W 6054  11.440   0.904  11.849
 2004W        W 6055   7.211   7.823   9.947
 2005W        W 6056   8.637  10.017  11.075
 2006W        W 6057   3.323   2.252   9.788
 2007W        W 6058   1.809   6.433   1.941
 2008W        W 6059   3.647   8.913   9.033
 2009W        W 6060   2.249   3.674  11.279
 2010W        W 6061  10.067   0.221   1.442
 2011W        W 6062   8.244   1.533  11.292
 2012W        W 6063   2.910   1.867  11.248
 2013W        W 6064   8.389   9.569   0.026
 2014W        W 6065   0.327   7.957   9.537
 2015W        W 6066   2.703   3.464   8.520
 2016W        W 6067   1.244   9.338   3.415
 2017W        W 6068  10.824   7.035  10.849
 2018W        W 6069   3.829   7.495   0.253
 2019W        W 6070   2.005   7.710   3.174
 2020W        W 6071   1.834   1.361   2.001
 2021W        W 6072   9.390   9.377  11.868
 2022W        W 6073   1.620  10.507   1.775
 2023W        W 6074   8.008  11.457   0.896
 2024W        W 6075   8.598   0.604   2.301
 2025W        W 6076   4.267   4.554  11.696
 2026W        W 6077   2.427   7.442   4.088
 2027W        W 6078   9.514   9.829   9.014
 2028W        W 6079   8.069   5.303   3.626
 2029W        W 6080   9.638  10.956  11.296
 2030W        W 6081   8.902   3.638  10.832
 2031W        W 6082   6.103   9.488   0.760
 2032W        W 6083   2.625  10.879   0.208
 2033W        W 6084  10.485   0.491   3.199
 2034W        W 6085   1.547   2.414   0.091
 2035W        W 6086  10.882   1.184   8.600
 2036W        W 6087   9.085  11.289   2.182
 2037W        W 6088   8.159   7.541   1.815
 2038W        W 6089   3.091   1.484   3.360
 2039W        W 6090   2.250   4.912   3.793
 2040W        W 6091   0.118   6.763  10.133
 2041W        W 6092  10.376   6.999  11.975
 2042W        W 6093  10.830   6.106  11.193
 2043W        W 6094   1.670   2.780   3.206
 2044W        W 6095  10.104   2.788   8.889
 2045W        W 6096   4.813  10.073   1.372
 2046W        W 6097   5.696  11.345   8.943
 2047W        W 6098   2.786   4.555   1.464
 2048W        W 6099   4.500  11.258  11.966
 2049W        W 6100   8.977   9.497  10.305
 2050W        W 6101   3.051   7.806   0.717
 2051W        W 6102   5.679   8.174   1.851
 2052W        W 6103   6.423   3.348   9.357
 2053W        W 6104   1.102   2.212   1.490
 2054W        W 6105   5.539   5.704   0.446
 2055W        W 6106   8.907   5.924  11.417
 2056W        W 6107  11.463   6.758   0.860
 2057W        W 6108   6.747  10.425   1.516
 2058W        W 6109   4.385   6.527   0.953
 2059W        W 6110  10.784   5.145   1.394
 2060W        W 6111   0.394  10.337   9.893
 2061W        W 6112   6.956   3.769   2.287
 2062W        W 6113   4.037   7.932   0.970
 2063W        W 6114   5.518   3.298   1.689
 2064W        W 6115  11.263   0.409  11.104
 2065W        W 6116   1.812  10.411   2.778
 2066W        W 6117   0.994   9.939   1.344
 2067W        W 6118  10.460   8.963  11.274
 2068W        W 6119   9.669   8.162   9.564
 2069W        W 6120   1.903   2.516  11.761
 2070W        W 6121   5.965   6.181   8.940
 2071W        W 6122   0.652   1.640   1.884
 2072W        W 6123   2.211  11.335  10.909
 2073W        W 6124   4.191  10.279   2.386
 2074W        W 6125   5.256   9.638   4.097
 2075W        W 6126   2.926   8.365   8.109
 2076W        W 6127   2.830   2.943  10.891
 2077W        W 6128   7.395   2.994  11.750
 2078W        W 6129   5.453   4.657   0.341
 2079W        W 6130   1.799   0.214   3.248
 2080W        W 6131  10.899   5.974   2.428
 2081W        W 6132   6.944   9.919  11.475
 2082W        W 6133   5.752   4.777  10.046
 2083W        W 6134  11.470   5.070   1.828
 2084W        W 6135   8.108   2.866   8.966
 2085W        W 6136   4.134   3.036   2.713
 2086W        W 6137   3.593  11.057   0.377
 2087W        W 6138   2.264   9.058   3.258
 2088W        W 6139   1.685   1.868   0.772
 2089W        W 6140   0.303  10.030  10.642
 2090W        W 6141  10.442   5.486   9.448
 2091W        W 6142  10.820   9.656  10.460
 2092W        W 6143   1.391   1.755  11.273
 2093W        W 6144   9.230   3.897   1.840
 2094W        W 6145   2.618   3.192   1.791
 2095W        W 6146   8.573   1.830   9.538
 2096W        W 6147   8.195  11.106  10.451
 2097W        W 6148   8.228   5.062   0.480
 2098W        W 6149   2.401   5.327   0.026
 2099W        W 6150   3.186   7.968   1.325
 2100W        W 6151   3.668   7.573   9.203
 2101W        W 6152   1.323   9.434   2.447
 2102W        W 6153   7.609  10.371   9.010
 2103W        W 6154   0.064   0.569   9.806
 2104W        W 6155  10.383   2.421   0.301
 2105W        W 6156  11.051   5.984  11.643
 2106W        W 6157   1.951   3.167   9.115
 2107W        W 6158  10.006   6.179   9.897
 2108W        W 6159   6.142  10.846   2.920
 2109W        W 6160  11.453   2.767   2.187
 2110W        W 6161   7.140   7.023  11.525
 2111W        W 6162   0.048   3.340  11.365
 2112W        W 6163   5.721   0.770   2.205
 2113W        W 6164   0.196   3.184  11.863
 2114W        W 6165   3.888   1.047  11.390
 2115W        W 6166   1.899   0.248  10.864
 2116W        W 6167   6.013   4.398  10.322
 2117W        W 6168   9.337   7.583   8.823
 2118W        W 6169   3.311   5.123   9.632
 2119W        W 6170   3.403   3.254   3.146
 2120W        W 6171   3.588   9.321  10.247
 2121W        W 6172  10.167   0.268   2.896
 2122W        W 6173   3.998   8.912   9.421
 2123W        W 6174   5.405   8.097   4.208
 2124W        W 6175   2.188   8.430   2.117
 2125W        W 6176  10.419   6.536   2.437
 2126W        W 6177   8.128   9.962   0.260
 2127W        W 6178  11.324   3.907   1.025
 2128W        W 6179   0.845   7.432   1.753
 2129W        W 6180  10.474   6.758   1.352
 2130W        W 6181   1.920   9.678  11.317
 2131W        W 6182   3.283   2.245  10.289
 2132W        W 6183   8.559   2.651   3.630
 2133W        W 6184   4.609   2.424   9.590
 2134W        W 6185   3.174   9.405  11.923
 2135W        W 6186   2.107   5.613   0.337
 2136W        W 6187  10.027   1.197   2.589
 2137W        W 6188   1.045   3.647   1.474
 2138W        W 6189   9.562   9.787  10.825
 2139W        W 6190   0.799   6.145  10.400
 2140W        W 6191  10.048   0.807   9.095
 2141W        W 6192   9.145   1.252   3.243
 2142W        W 6193   9.260   8.388  11.475
 2143W        W 6194   1.892   1.924   1.276
 2144W        W 6195   4.366   4.395   0.199
 2145W        W 6196   8.648   1.758   0.420
 2146W        W 6197   9.761   6.721   1.848
 2147W        W 6198   1.661   9.405   1.614
 2148W        W 6199   4.491   8.375  10.020
 2149W        W 6200   3.767   9.675   8.840
 2150W        W 6201   3.626   0.269   2.260
 2151W        W 6202   0.453   8.863   9.295
 2152W        W 6203   2.464   3.237   3.205
 2153W        W 6204   5.067   2.996  10.017
 2154W        W 6205   5.230   8.626   3.091
 2155W        W 6206   1.435   1.743  11.776
 2156W        W 6207  10.002  10.510  11.821
 2157W        W 6208   4.565   4.211   3.401
 2158W        W 6209   4.123   2.561   0.772
 2159W        W 6210   8.279   3.691   1.876
 2160W        W 6211   0.544  10.342   1.830
 2161W        W 6212   7.865   4.099   9.339
 2162W        W 6213   0.791   3.694   9.064
 2163W        W 6214   7.060   3.363  11.053
 2164W        W 6215   1.621  10.546  10.389
 2165W        W 6216   6.603   4.568   0.867
 2166W        W 6217   5.254   1.162   9.553
 2167W        W 6218   0.110   7.088   1.247
 2168W        W 6219   2.130  11.340   2.328
 2169W        W 6220   7.032   0.384   9.434
 2170W        W 6221   2.742   5.655  11.777
 2171W        W 6222   5.561   9.456   2.282
 2172W        W 6223   0.811   4.825  10.935
 2173W        W 6224   1.752   8.061  10.068
 2174W        W 6225   2.512   9.025   1.562
 2175W        W 6226   9.627   8.457   1.645
 2176W        W 6227   8.417   2.338   3.222
 2177W        W 6228   7.032   9.719   0.721
 2178W        W 6229   9.588   7.457  11.652
 2179W        W 6230  11.246   6.077   1.487
 2180W        W 6231  10.588   6.133   2.070
 2181W        W 6232   7.699   0.671   9.289
 2182W        W 6233   1.529   9.499  10.995
 2183W        W 6234   9.971   1.710   2.143
 2184W        W 6235   3.223   6.070   1.275
 2185W        W 6236   3.792   9.261  11.246
 2186W        W 6237   5.089   5.562   0.252
 2187W        W 6238   8.646   3.747  10.387
 2188W        W 6239   0.923   9.767  11.416
 2189W        W 6240   9.902   8.889   2.390
 2190W        W 6241  11.060   3.163   0.967
 2191W        W 6242   9.799   7.492   9.040
 2192W        W 6243  10.824   7.540  10.907
 2193W        W 6244   5.481   4.089   9.527
 2194W        W 6245   7.102   7.471  11.274
 2195W        W 6246   1.783   0.510   1.726
 2196W        W 6247   9.247   0.758  10.728
 2197W        W 6248   3.718   3.272   1.017
 2198W        W 6249   8.381   6.327   0.794
 2199W        W 6250   1.783   9.028   9.789
 2200W        W 6251   3.139   0.238   0.018
 2201W        W 6252   1.368   7.099   0.069
 2202W        W 6253   2.837   7.948  10.954
 2203W        W 6254  10.443  11.362   3.032
 2204W        W 6255   0.788   9.895  10.036
 2205W        W 6256   6.471   9.989   1.816
 2206W        W 6257   6.559   0.862   3.368
 2207W        W 6258   7.674   6.340   1.191
 2208W        W 6259   7.906   5.590   0.203
 2209W        W 6260   9.403   3.765  10.807
 2210W        W 6261  10.405   7.004   2.714
 2211W        W 6262   2.285   8.462   0.195
 2212W        W 6263   5.105   7.025   1.860
 2213W        W 6264   8.469  11.327  11.205
 2214W        W 6265   5.532  10.238   3.436
 2215W        W 6266  10.455   2.753  11.891
 2216W        W 6267   6.637   0.922  11.055
 2217W        W 6268  11.014   1.333   2.937
 2218W        W 6269   7.621   3.055   3.266
 2219W        W 6270   8.905   4.235  11.649
 2220W        W 6271   1.589  10.250   0.157
 2221W        W 6272  10.644   3.548   1.828
 2222W        W 6273  11.120   9.949  10.877
 2223W        W 6274   7.534   6.252  11.522
 2224W        W 6275   4.585   9.322   0.739
 2225W        W 6276  10.284  11.131   9.255
 2226W        W 6277   5.423   3.730   3.059
 2227W        W 6278   5.610   4.839   0.813
 2228W        W 6279   0.496   0.767  10.034
 2229W        W 6280   1.480   8.651   0.556
 2230W        W 6281   7.403   5.773  11.516
 2231W        W 6282   0.442   3.561  11.633
 2232W        W 6283  10.221   3.663   3.362
 2233W        W 6284   1.414   3.550   8.970
 2234W        W 6285  10.640   7.484  10.322
 2235W        W 6286  10.827   9.073   9.586
 2236W        W 6287   3.537   4.660   0.149
 2237W        W 6288  10.540  10.569   2.327
 2238W        W 6289   6.624   6.323   9.534
 2239W        W 6290   6.201   0.651   0.453
 2240W        W 6291   6.498   7.512  10.525
 2241W        W 6292   5.178   3.541   9.132
 2242W        W 6293   4.643   2.453   1.423
 2243W        W 6294   4.051   4.780   0.292
 2244W        W 6295  10.926   6.908  11.472
 2245W        W 6296   8.104   5.925   1.561
 2246W        W 6297  10.477   4.093  11.397
 2247W        W 6298   6.743   9.811  10.084
 2248W        W 6299   8.410   3.523   9.975
 2249W        W 6300   3.319   9.307   1.328
 2250W        W 6301   8.240   1.183   9.973
 2251W        W 6302   9.760   6.042  10.344
 2252W        W 6303   2.683   1.186   3.240
 2253W        W 6304   4.253   7.201   0.235
 2254W        W 6305   3.718   1.830  10.971
 2255W        W 6306   1.783   3.730   2.616
 2256W        W 6307   7.946   9.793   0.867
 2257W        W 6308  11.278   7.272  10.964
 2258W        W 6309  10.506   7.842   2.694
 2259W        W 6310   9.410   8.507  10.434
 2260W        W 6311   6.686  10.299   9.975
 2261W        W 6312   7.095   5.151  11.816
 2262W        W 6313   2.369   9.461   2.159
 2263W        W 6314   4.309   8.553   2.895
 2264W        W 6315  10.413   7.997   0.056
 2265W        W 6316   5.549   7.123   2.210
 2266W        W 6317   2.904   7.253  10.288
 2267W        W 6318   3.826   4.585   9.048
 2268W        W 6319   0.360   0.988  10.520
 2269W        W 6320  11.219   3.666   9.981
 2270W        W 6321   6.240   3.167   2.740
 2271W        W 6322   1.197   8.773  11.944
 2272W        W 6323   3.546   8.490   2.252
 2273W        W 6324   0.075  10.096  11.103
 2274W        W 6325   0.389   6.398   9.275
 2275W        W 6326   3.747  10.524   2.459
 2276W        W 6327   1.942   4.317  11.920
 2277W        W 6328   7.941   1.433   2.624
 2278W        W 6329   2.219  10.797  10.081
 2279W        W 6330   1.234  10.948  11.857
 2280W        W 6331   7.550   4.510   0.964
 2281W        W 6332   4.586   0.691   8.964
 2282W        W 6333   7.719   8.479  10.860
 2283W        W 6334   3.411   1.763  10.447
 2284W        W 6335   8.541   8.174  10.435
 2285W        W 6336   3.366   0.288   8.365
 2286W        W 6337   6.211   7.005  11.410
 2287W        W 6338   0.446   8.133   1.709
 2288W        W 6339   4.467   0.384   3.342
 2289W        W 6340   6.307   6.964   2.677
 2290W        W 6341   2.447   6.612   0.180
 2291W        W 6342   2.965   5.121  10.012
 2292W        W 6343   5.943  10.930   0.950
 2293W        W 6344   8.999   9.101   0.050
 2294W        W 6345   0.571  11.477   2.309
 2295W        W 6346   8.704   0.345   3.320
 2296W        W 6347   4.593  10.398  10.843
 2297W        W 6348   4.240   7.622   2.739
 2298W        W 6349   1.679   9.008   8.736
 2299W        W 6350   5.491   0.192   0.892
 2300W        W 6351   5.310   6.868  11.291
 2301W        W 6352  10.286   9.895   2.646
 2302W        W 6353   2.595   8.567  11.503
 2303W        W 6354  10.921   4.336  11.344
 2304W        W 6355   1.426   2.840   0.866
 2305W        W 6356   3.129  11.362   9.684
 2306W        W 6357   7.540   7.539   9.387
 2307W        W 6358   6.633   1.969   0.045
 2308W        W 6359   8.389   5.533   1.694
 2309W        W 6360   2.180  10.002  10.380
 2310W        W 6361   2.788   7.066   0.172
 2311W        W 6362   2.345   7.621   2.778
 2312W        W 6363  11.426   7.705   2.225
 2313W        W 6364   2.737   6.034   9.543
 2314W        W 6365   6.131   0.921   2.499
 2315W        W 6366   0.060   2.698   1.316
 2316W        W 6367   7.329   0.356  11.966
 2317W        W 6368   4.529  10.441   9.824
 2318W        W 6369   9.473   5.561   1.597
 2319W        W 6370   5.615   9.944   9.985
 2320W        W 6371  10.911   0.262   8.926
 2321W        W 6372   6.202   8.463   2.645
 2322W        W 6373   6.969   5.995   1.735
 2323W        W 6374   8.473   9.456   9.040
 2324W        W 6375   6.731   8.967   8.296
 2325W        W 6376   8.362  11.195   1.158
 2326W        W 6377   6.484   3.636   0.720
 2327W        W 6378   5.587   6.909   3.110
 2328W        W 6379   8.038   6.580   2.259
 2329W        W 6380   9.445   0.041   2.428
 2330W        W 6381   1.956   4.603  11.453
 2331W        W 6382   6.521   2.742   1.153
 2332W        W 6383   1.933   7.616   1.453
 2333W        W 6384   4.551   8.088  11.268
 2334W        W 6385  10.610   9.192   0.982
 2335W        W 6386   6.444   4.344  11.416
 2336W        W 6387   3.234   1.819   0.413
 2337W        W 6388   8.985   6.747   3.779
 2338W        W 6389   1.751   8.661   1.360
 2339W        W 6390   7.469   4.682   0.490
 2340W        W 6391   3.011   0.463   1.997
 2341W        W 6392   0.738   6.753   3.512
 2342W        W 6393   8.003   5.097   0.957
 2343W        W 6394   3.705   3.077  10.100
 2344W        W 6395   9.696   6.199   0.664
 2345W        W 6396   7.796   3.768   8.963
 2346W        W 6397   2.984   9.704   9.595
 2347W        W 6398   8.140  10.886   0.225
 2348W        W 6399  10.416   5.737   1.328
 2349W        W 6400   6.099   0.439   0.918
 2350W        W 6401   0.049   2.300   0.986
 2351W        W 6402   5.700   0.893   0.026
 2352W        W 6403   9.806   4.257  11.992
 2353W        W 6404   0.221   6.766   2.951
 2354W        W 6405   0.180  10.958   9.479
 2355W        W 6406   5.469   3.236  10.780
 2356W        W 6407   2.155   6.829  11.269
 2357W        W 6408   4.103   0.503   2.977
 2358W        W 6409   2.760   5.562   2.301
 2359W        W 6410  10.900   6.494   2.268
 2360W        W 6411   8.386   2.405  10.566
 2361W        W 6412   6.284   5.212   0.533
 2362W        W 6413   8.950   7.942   1.272
 2363W        W 6414  10.849   7.248  11.967
 2364W        W 6415   5.103   2.241   8.590
 2365W        W 6416   5.854   6.769  11.985
 2366W        W 6417   3.639   5.593   1.195
 2367W        W 6418   2.800  10.042   2.501
 2368W        W 6419   7.652   9.945   1.333
 2369W        W 6420   8.132   5.795   2.085
 2370W        W 6421   7.617   2.903  10.423
 2371W        W 6422   9.106   4.096   1.353
 2372W        W 6423   6.197   4.129  10.969
 2373W        W 6424   7.772   3.459   2.944
 2374W        W 6425   6.065   9.632  11.314
 2375W        W 6426  10.401   1.164  10.832
 2376W        W 6427   7.753   4.410   3.368
 2377W        W 6428   6.256   6.504   1.256
 2378W        W 6429  10.968   2.808   3.054
 2379W        W 6430   7.248   6.601  11.875
 2380W        W 6431   7.953   2.117   3.430
 2381W        W 6432   0.373   3.174  10.271
 2382W        W 6433   0.082  11.324   2.358
 2383W        W 6434   1.604   1.789   8.536
 2384W        W 6435   4.089   3.973   0.094
 2385W        W 6436   8.512   4.681   1.869
 2386W        W 6437   9.805   1.974   3.077
 2387W        W 6438   0.890   5.539   0.946
 2388W        W 6439   7.926   3.262  10.635
 2389W        W 6440   3.236   7.929   2.753
 2390W        W 6441   1.795   5.522   1.956
 2391W        W 6442   2.938  10.494   2.356
 2392W        W 6443   5.477   3.734   9.993
 2393W        W 6444   0.080   6.985   0.402
 2394W        W 6445   1.622   7.530   8.648
 2395W        W 6446   6.660   2.409   3.189
 2396W        W 6447   8.507   1.288   0.217
 2397W        W 6448   1.851   2.761   1.722
 2398W        W 6449   3.622   1.791   0.842
 2399W        W 6450   4.581  11.288   1.866
 2400W        W 6451   0.936   5.520   1.956
 2401W        W 6452   5.284   7.082   2.681
 2402W        W 6453   7.099  10.847  11.703
 2403W        W 6454  10.727   8.515  11.412
 2404W        W 6455   9.825   7.087  11.077
 2405W        W 6456   4.668   1.711  11.076
 2406W        W 6457   9.984   6.570   0.879
 2407W        W 6458   2.925   5.084   9.064
 2408W        W 6459  10.770   4.615  10.473
 2409W        W 6460   0.319   6.284  10.278
 2410W        W 6461   3.262   6.919   0.302
 2411W        W 6462   6.187   1.454   0.646
 2412W        W 6463   1.827   7.152  11.782
 2413W        W 6464   0.749   9.375   1.682
 2414W        W 6465   4.043   1.799   9.742
 2415W        W 6466   7.396  10.813  10.923
 2416W        W 6467   0.685   0.439   0.374
 2417W        W 6468  11.146   6.931   2.188
 2418W        W 6469   5.238   2.620  11.280
 2419W        W 6470   6.549  10.514  11.793
 2420W        W 6471   9.870   6.928   8.474
 2421W        W 6472   3.349   3.624   0.946
 2422W        W 6473   7.941   1.864   9.576
 2423W        W 6474   1.303   9.929   2.391
 2424W        W 6475   9.873   7.113   9.964
 2425W        W 6476   5.378   1.201   0.319
 2426W        W 6477   6.973  10.838  11.183
 2427W        W 6478   5.448   4.324  10.395
 2428W        W 6479   1.852   7.068  10.781
 2429W        W 6480   2.251   8.058   3.484
 2430W        W 6481   5.394   2.304   0.278
 2431W        W 6482   8.970   0.062   0.503
 2432W        W 6483   8.992   5.555  11.075
 2433W        W 6484   1.870   1.200   2.902
 2434W        W 6485   2.807   5.944   0.949
 2435W        W 6486   4.339   3.910   1.862
 2436W        W 6487  10.535   9.324  10.897
 2437W        W 6488  10.089   1.410   3.081
 2438W        W 6489   8.858  10.796   9.966
 2439W        W 6490  10.907   9.948   9.531
 2440W        W 6491  10.066   4.803   1.853
 2441W        W 6492   0.575   0.431   2.800
 2442W        W 6493   8.158   9.743   2.775
 2443W        W 6494   2.226   6.686  10.049
 2444W        W 6495   0.916  10.831   1.454
 2445W        W 6496   2.713   1.448  10.006
 2446W        W 6497   9.935   9.212   8.638
 2447W        W 6498   6.515   7.850   1.448
 2448W        W 6499   0.267   4.764   3.339
 2449W        W 6500   8.366   9.182  10.608
 2450W        W 6501   3.212   3.142   0.892
 2451W        W 6502  10.930  11.492  10.027
 2452W        W 6503   8.570   5.524   9.538
 2453W        W 6504  10.592   8.975  10.007
 2454W        W 6505   1.286   1.485   0.934
 2455W        W 6506   8.490  10.417   2.340
 2456W        W 6507  11.184   5.628   3.198
 2457W        W 6508   5.999   6.697  10.220
 2458W        W 6509   7.324   3.233   1.081
 2459W        W 6510   9.539   4.645   9.253
 2460W        W 6511   3.588   5.063  11.405
 2461W        W 6512   2.930  10.552   0.507
 2462W        W 6513   6.182   1.047  11.273
 2463W        W 6514   5.689   8.764   3.291
 2464W        W 6515   2.731   0.475   0.702
 2465W        W 6516   8.486   7.647   1.418
 2466W        W 6517   3.170   4.261   1.709
 2467W        W 6518   0.089   0.402   3.003
 2468W        W 6519   8.271   5.525   4.051
 2469W        W 6520   1.645   9.468   2.841
 2470W        W 6521  10.710   1.261   0.130
 2471W        W 6522   6.607   5.074   0.918
 2472W        W 6523   2.199   9.489   9.663
 2473W        W 6524   1.325   6.152   3.002
 2474W        W 6525   1.951   4.614   2.891
 2475W        W 6526   8.986   5.916   9.833
 2476W        W 6527   2.216   6.659   2.636
 2477W        W 6528  11.022   8.715   3.189
 2478W        W 6529   8.503   4.149  11.327
 2479W        W 6530   3.167   5.002   2.993
 2480W        W 6531   3.627   9.837  10.273
 2481W        W 6532   7.785   0.284  11.779
 2482W        W 6533   6.200  10.796   9.458
 2483W        W 6534  10.567   8.186   2.314
 2484W        W 6535   5.216  11.459   2.229
 2485W        W 6536   0.532   5.028   0.246
 2486W        W 6537   3.325   4.218  11.849
 2487W        W 6538   3.885   1.718  10.275
 2488W        W 6539   3.665   0.246   0.855
 2489W        W 6540   3.227   9.759   0.842
 2490W        W 6541   7.471   8.918   9.685
 2491W        W 6542   5.264   8.767   1.165
 2492W        W 6543   2.302  11.434   2.814
 2493W        W 6544   9.027   3.118   2.297
 2494W        W 6545   1.407   0.750   1.394
 2495W        W 6546  10.860   0.024  11.325
 2496W        W 6547   8.019   1.791   2.990
 2497W        W 6548  11.276  11.238   9.278
 2498W        W 6549   9.914   5.227   0.375
 2499W        W 6550   5.519   5.346   0.040
 2500W        W 6551   3.130   9.201   9.631
 2501W        W 6552   3.639   4.916   2.240
 2502W        W 6553   1.792   7.659   9.145
 2503W        W 6554   9.339   8.471   9.889
 2504W        W 6555   8.963   6.377   0.116
 2505W        W 6556  10.598   8.961   1.901
 2506W        W 6557   3.261  11.436   0.472
 2507W        W 6558   1.095   9.367   1.320
 2508W        W 6559   5.256   0.465   3.500
 2509W        W 6560   7.124  10.857   2.625
 2510W        W 6561   2.102   7.232   3.288
 2511W        W 6562   1.711   5.054   3.090
 2512W        W 6563   5.688   5.667  10.050
 2513W        W 6564   0.077   3.606   2.050
 2514W        W 6565   0.903   7.177  11.857
 2515W        W 6566   9.681   7.973  10.944
 2516W        W 6567   1.326   3.615  11.199
 2517W        W 6568   8.282  10.914   2.344
 2518W        W 6569   1.789   4.705  10.561
 2519W        W 6570   9.824   5.682   1.988
 2520W        W 6571   3.471   8.043   9.333
 2521W        W 6572   2.611   4.140   3.117
 2522W        W 6573   6.262   1.145   9.989
 2523W        W 6574   5.511   3.769   2.567
 2524W        W 6575   3.106   8.604  11.414
 2525W        W 6576   9.506   5.734   1.118
 2526W        W 6577   8.340   4.176   9.518
 2527W        W 6578   2.263   0.275  11.966
 2528W        W 6579   6.499   4.022   3.675
 2529W        W 6580   4.720   9.734   0.988
 2530W        W 6581   2.759   6.224   1.400
 2531W        W 6582  10.988   6.565  10.691
 2532W        W 6583   1.718   4.078   0.355
 2533W        W 6584   2.922   0.308  10.713
 2534W        W 6585  10.428   9.461   1.868
 2535W        W 6586   2.744   7.560  11.299
 2536W        W 6587   0.419   3.102   1.380
 2537W        W 6588   4.651  10.403   3.175
 2538W        W 6589   0.046   9.626  10.895
 2539W        W 6590   5.646   6.204   1.810
 2540W        W 6591   6.235   8.075   9.490
 2541W        W 6592   2.636   5.108  11.271
 2542W        W 6593   6.070   2.007  11.378
 2543W        W 6594   1.375   4.201   0.011
 2544W        W 6595   6.572   7.616   1.924
 2545W        W 6596   3.621   9.425   3.840
 2546W        W 6597   0.897   7.228   9.073
 2547W        W 6598   7.541   2.295   2.188
 2548W        W 6599  11.330   6.993   3.162
 2549W        W 6600   7.124  10.515   9.856
 2550W        W 6601   8.915   9.195  10.721
 2551W        W 6602  10.343   2.777   0.866
 2552W        W 6603   8.732   6.834  11.940
 2553W        W 6604  11.079   8.992   1.007
 2554W        W 6605  10.438   0.791   9.864
 2555W        W 6606  10.389   3.673   0.703
 2556W        W 6607   1.851   5.841   9.867
 2557W        W 6608   9.764  10.596   2.837
 2558W        W 6609   9.782   0.925  11.920
 2559W        W 6610  10.870   3.489  10.836
 2560W        W 6611   8.824   5.637   9.089
 2561W        W 6612   5.731   3.644   3.447
 2562W        W 6613   3.784   9.851   8.319
 2563W        W 6614   7.494   9.194   0.238
 2564W        W 6615  10.210   5.288   3.945
 2565W        W 6616   0.194   5.656   3.253
 2566W        W 6617   1.679   5.076  11.499
 2567W        W 6618  10.393   8.107  11.462
 2568W        W 6619   6.817   7.187   3.601
 2569W        W 6620   9.656   5.065  10.369
 2570W        W 6621   0.255   1.919   0.336
 2571W        W 6622   7.067   9.487   0.275
 2572W        W 6623   3.037   4.678   9.625
 2573W        W 6624   6.386   4.676  10.016
 2574W        W 6625   4.755   0.486   9.407
 2575W        W 6626   4.912   4.382  10.340
 2576W        W 6627   7.073   1.804   3.171
 2577W        W 6628   8.922   6.309   9.505
 2578W        W 6629   9.850   9.612   2.603
 2579W        W 6630   4.614   8.369  10.522
 2580W        W 6631   4.851   5.712   1.551
 2581W        W 6632   2.231   2.055   9.608
 2582W        W 6633  11.239   5.274   8.920
 2583W        W 6634   6.479   2.699   2.174
 2584W        W 6635   9.345   8.525   0.750
 2585W        W 6636  10.325   3.150   3.703
 2586W        W 6637   2.901   2.478   9.981
 2587W        W 6638  10.550   3.680   2.961
 2588W        W 6639   3.615   7.565  10.245
 2589W        W 6640   1.759   8.435  10.470
 2590W        W 6641   4.993   3.507   0.931
 2591W        W 6642   0.976   2.639   1.748
 2592W        W 6643   3.827  10.923   9.482
 2593W        W 6644  11.387   2.145   3.460
 2594W        W 6645   8.930   5.100   9.798
 2595W        W 6646  11.484   5.564   3.742
 2596W        W 6647   7.383   6.428   0.764
 2597W        W 6648   1.217   0.944   3.259
 2598W        W 6649   3.131   0.195   2.415
 2599W        W 6650   2.728   6.899   9.912
 2600W        W 6651   8.042   3.824  11.029
 2601W        W 6652   9.710   5.224   2.556
 2602W        W 6653   7.218  10.037   8.977
 2603W        W 6654   2.280   5.749   9.607
 2604W        W 6655   3.596   1.768   9.355
 2605W        W 6656  10.965   4.812   9.376
 2606W        W 6657   8.542  11.181   3.662
 2607W        W 6658   3.906   9.335   1.347
 2608W        W 6659   8.042   9.196  10.180
 2609W        W 6660   0.915   5.347   9.104
 2610W        W 6661   0.379   7.680   1.973
 2611W        W 6662   1.623  11.325   2.408
 2612W        W 6663   9.317  10.390   1.347
 2613W        W 6664   0.840   4.838   9.079
 2614W        W 6665   3.270  10.292   0.856
 2615W        W 6666   7.198   2.258   9.160
 2616W        W 6667   9.507   1.500  10.333
 2617W        W 6668   3.784   5.067   1.234
 2618W        W 6669  10.353   7.919  10.305
 2619W        W 6670  10.989   9.340   2.073
 2620W        W 6671   1.812   0.437   0.669
 2621W        W 6672   2.840   9.925  11.956
 2622W        W 6673   0.509   3.210   2.714
 2623W        W 6674   3.903   5.615   1.628
 2624W        W 6675   9.209  10.613  11.712
 2625W        W 6676   2.198   1.748   0.870
 2626W        W 6677   2.222   6.173   2.466
 2627W        W 6678  10.972   7.519   3.494
 2628W        W 6679   7.254   5.669  10.731
 2629W        W 6680   2.740   9.063   2.971
 2630W        W 6681   1.370   5.455  11.124
 2631W        W 6682   5.647   0.728   8.928
 2632W        W 6683   0.389  11.005   2.121
 2633W        W 6684   9.460  10.602   9.378
 2634W        W 6685  10.337   2.266   1.659
 2635W        W 6686   3.142   1.654   0.903
 2636W        W 6687   4.524   3.684   9.942
 2637W        W 6688   7.914   7.121   1.676
 2638W        W 6689   2.086   4.227   8.874
 2639W        W 6690   0.409   4.783  10.273
 2640W        W 6691  10.738   8.634   0.890
 2641W        W 6692   5.404   2.834   1.913
 2642W        W 6693   3.153   7.531  11.003
 2643W        W 6694   5.576   4.096   1.259
 2644W        W 6695   4.568  11.325  10.586
 2645W        W 6696   0.979   9.764  11.941
 2646W        W 6697   3.938  10.609   1.526
 2647W        W 6698   5.068  10.319  11.019
 2648W        W 6699   4.172  10.634   3.443
 2649W        W 6700   4.725   4.280  10.812
 2650W        W 6701  10.803   1.189   2.076
 2651W        W 6702   2.491   7.585   3.294
 2652W        W 6703  10.412  10.378   9.130
 2653W        W 6704   4.701   8.856   1.427
 2654W        W 6705   4.718   3.924   1.511
 2655W        W 6706   7.721   3.992   2.797
 2656W        W 6707   6.991   3.816   0.745
 2657W        W 6708   4.247   3.282   2.275
 2658W        W 6709   5.761   7.116   0.696
 2659W        W 6710   9.500  10.568   0.496
 2660W        W 6711   9.547   0.996   0.821
 2661W        W 6712  10.327   8.361  10.583
 2662W        W 6713   0.433   6.927  11.233
 2663W        W 6714   7.969   1.704  10.066
 2664W        W 6715   8.413   5.046   8.637
 2665W        W 6716   9.844   7.636   9.902
 2666W        W 6717   1.501  10.442   3.219
 2667W        W 6718   0.850   1.007  10.326
 2668W        W 6719  10.248  11.321   3.553
 2669W        W 6720   6.206   9.921  10.055
 2670W        W 6721   9.109   8.913   1.061
 2671W        W 6722   9.816  10.364   1.237
 2672W        W 6723   6.131   2.951  11.232
 2673W        W 6724   8.900   1.023  11.006
 2674W        W 6725  11.224   0.225   2.241
 2675W        W 6726   2.803   5.084   2.669
 2676W        W 6727   8.517  11.252   2.655
 2677W        W 6728   3.208  11.002   1.799
 2678W        W 6729   1.438   3.311   9.458
 2679W        W 6730   9.531   3.651  11.638
 2680W        W 6731   9.817   2.161  10.501
 2681W        W 6732   7.313   8.933   2.167
 2682W        W 6733   7.587  11.212   8.988
 2683W        W 6734   5.787   7.777   3.269
 2684W        W 6735   7.982   0.484  10.466
 2685W        W 6736   6.975   0.479   2.256
 2686W        W 6737   1.011   9.245  11.875
 2687W        W 6738   4.757   0.973  11.460
 2688W        W 6739   7.441   0.045   2.673
 2689W        W 6740   6.989   6.706   0.853
 2690W        W 6741   6.076   7.428   2.707
 2691W        W 6742   6.621   2.672   0.651
 2692W        W 6743   6.714   3.057   2.968
 2693W        W 6744   7.172   8.912   2.653
 2694W        W 6745   6.575   8.357   1.415
 2695W        W 6746   4.776   2.916   8.681
 2696W        W 6747   8.505   6.069   0.204
 2697W        W 6748   3.839   9.879  10.750
 2698W        W 6749  10.410   1.589   1.387
 2699W        W 6750   2.377   6.051  10.463
 2700W        W 6751   0.341   4.551   8.870
 2701W        W 6752   8.429   7.136  11.657
 2702W        W 6753   1.440  10.048   1.898
 2703W        W 6754   5.634   1.462   9.397
 2704W        W 6755   3.734   0.836   9.463
 2705W        W 6756   9.789  11.259   1.377
 2706W        W 6757  10.585   2.641   9.592
 2707W        W 6758   8.128   0.510   0.864
 2708W        W 6759   8.688   3.159   3.542
 2709W        W 6760   9.929   2.363   1.326
 2710W        W 6761   7.629   9.819  10.278
 2711W        W 6762   3.317   0.693   2.319
 2712W        W 6763   6.149   1.810   1.810
 2713W        W 6764   3.268   7.856   3.259
 2714W        W 6765   5.051   9.145  10.264
 2715W        W 6766   2.427   5.180   9.027
 2716W        W 6767   7.727   5.485   3.950
 2717W        W 6768   4.089   5.732  10.435
 2718W        W 6769   2.234   4.642  10.828
 2719W        W 6770   0.625  10.238   9.440
 2720W        W 6771   8.170   6.810   9.059
 2721W        W 6772   6.110   9.590   9.212
 2722W        W 6773   5.890   3.902  10.265
 2723W        W 6774   8.998   8.171   2.758
 2724W        W 6775   0.200   6.048   2.669
 2725W        W 6776  11.146   8.820  10.514
 2726W        W 6777   5.398   0.357   1.836
 2727W        W 6778   0.423   7.857  10.492
 2728W        W 6779  10.889   9.622   3.647
 2729W        W 6780   0.426   3.894   1.803
 2730W        W 6781  11.343   9.868   9.830
 2731W        W 6782   0.718   5.527   1.474
 2732W        W 6783   0.515   8.437   9.581
 2733W        W 6784   0.624   1.919  10.680
 2734W        W 6785   7.199  10.063  10.080
 2735W        W 6786   4.539   5.804  10.159
 2736W        W 6787   7.847  10.897  10.162
 2737W        W 6788  10.073   6.564   3.310
 2738W        W 6789   7.411   0.819   1.105
 2739W        W 6790   5.602   5.158   9.711
 2740W        W 6791   9.906   3.965   2.590
 2741W        W 6792   5.588   8.443  10.456
 2742W        W 6793   8.469  10.196   1.869
 2743W        W 6794   5.209   4.949  11.126
 2744W        W 6795  10.921   8.198   9.042
 2745W        W 6796   7.474   3.477  11.905
 2746W        W 6797   7.153   5.152  10.852
 2747W        W 6798  11.327  10.273  11.522
 2748W        W 6799   0.975   1.147   1.835
 2749W        W 6800   2.211   6.470  10.911
 2750W        W 6801   5.220   4.126  10.825
 2751W        W 6802   8.900   2.316  10.485
 2752W        W 6803   2.913   7.127   2.230
 2753W        W 6804   7.803   3.089   0.082
 2754W        W 6805   8.087  11.360   0.407
 2755W        W 6806   7.534   1.180   9.468
 2756W        W 6807   4.328   8.279   2.035
 2757W        W 6808   2.649   6.723   1.387
 2758W        W 6809   6.486   3.194   1.419
 2759W        W 6810   2.394   4.701   8.839
 2760W        W 6811   7.089   9.916  11.992
 2761W        W 6812  11.130   5.719   0.723
 2762W        W 6813   5.933  10.086   1.832
 2763W        W 6814   9.594   7.969   2.372
 2764W        W 6815   5.249   4.764  10.218
 2765W        W 6816  10.025   1.328   9.031
 2766W        W 6817   5.580   0.393  11.993
 2767W        W 6818   4.809  10.375   0.316
 2768W        W 6819   7.631   8.138   1.084
 2769W        W 6820   2.240   6.131   0.350
 2770W        W 6821   2.837   9.029   1.954
 2771W        W 6822   2.247   0.428   1.504
 2772W        W 6823   2.198   4.685   2.369
 2773W        W 6824   4.028   2.058  11.893
 2774W        W 6825  10.528   1.229   2.743
 2775W        W 6826  10.222   5.121   9.083
 2776W        W 6827   7.733   4.511   2.859
 2777W        W 6828   2.127   5.057  11.225
 2778W        W 6829   3.951  10.689   0.357
 2779W        W 6830   8.650   7.852   3.206
 2780W        W 6831   2.904   9.626   1.252
 2781W        W 6832   5.627   1.217   2.477
 2782W        W 6833   7.687   4.669   8.454
 2783W        W 6834   2.553   4.216   9.416
 2784W        W 6835   6.994   7.567   0.794
 2785W        W 6836  10.282   4.560   0.936
 2786W        W 6837  10.389   8.667   2.294
 2787W        W 6838   4.633   2.763  11.873
 2788W        W 6839   6.497   2.195  10.229
 2789W        W 6840   8.315   3.171  11.963
 2790W        W 6841   8.221  10.521   8.914
 2791W        W 6842   5.781   9.854  10.918
 2792W        W 6843   8.505   9.125   0.252
 2793W        W 6844   5.314   2.275   1.743
 2794W        W 6845   8.497   4.641   1.367
 2795W        W 6846   5.523   8.939   2.339
 2796W        W 6847   5.894   1.210  10.786
 2797W        W 6848   9.764   4.496  11.219
 2798W        W 6849   6.514   0.593   2.747
 2799W        W 6850   2.910   3.259   1.296
 2800W        W 6851   7.236   9.383   3.367
 2801W        W 6852   3.217   6.279  10.254
 2802W        W 6853   5.068   6.477   1.815
 2803W        W 6854   4.480   7.953   9.339
 2804W        W 6855   5.709   7.475   9.422
 2805W        W 6856   9.418   3.369   9.746
 2806W        W 6857   9.533   1.219  11.315
 2807W        W 6858   3.734   4.602   2.618
 2808W        W 6859   5.519   3.684  10.534
 2809W        W 6860  10.098   7.631  11.771
 2810W        W 6861   0.779   6.935   1.751
 2811W        W 6862   0.429   7.922   0.732
 2812W        W 6863   5.670   0.774  11.501
 2813W        W 6864  10.973   8.197  10.250
 2814W        W 6865   9.903   0.217   2.260
 2815W        W 6866   9.834  11.319   9.045
 2816W        W 6867   8.618   9.294   1.908
 2817W        W 6868   7.180   1.880   8.808
 2818W        W 6869   4.696   9.093   8.956
 2819W        W 6870  10.072   4.701   9.381
 2820W        W 6871   1.337   4.138   1.471
 2821W        W 6872   7.142   0.403   3.440
 2822W        W 6873   2.427   0.982   2.235
 2823W        W 6874   1.394  11.432   3.474
 2824W        W 6875   2.996   7.065   8.106
 2825W        W 6876   8.488   0.218   9.019
 2826W        W 6877   0.625   5.794   9.060
 2827W        W 6878   9.984   9.795   8.784
 2828W        W 6879   6.628   1.267   2.435
 2829W        W 6880   4.549   1.802   9.032
 2830W        W 6881   0.272  11.275  11.630
 2831W        W 6882   9.002   6.847   0.378
 2832W        W 6883   6.243   8.996   0.763
 2833W        W 6884  10.648   7.024   2.227
 2834W        W 6885   8.949  10.011   1.954
 2835W        W 6886   3.700   0.632  11.149
 2836W        W 6887   7.870   1.652  11.957
 2837W        W 6888   3.116   1.127   2.517
 2838W        W 6889  11.375   1.272   8.792
 2839W        W 6890  10.242   6.157   2.733
 2840W        W 6891   0.438   3.559  11.122
 2841W        W 6892   8.590  10.151   3.904
 2842W        W 6893   5.243  10.594   1.862
 2843W        W 6894   6.618  10.940  11.526
 2844W        W 6895  10.907   6.842   2.673
 2845W        W 6896   7.490  10.502  11.814
 2846W        W 6897   5.639   6.117   9.374
 2847W        W 6898   1.781   6.011   2.738
 2848W        W 6899   2.395   7.053   2.311
 2849W        W 6900   0.247   9.923  11.574
 2850W        W 6901   2.259   3.881   2.798
 2851W        W 6902  11.453   8.475   3.288
 2852W        W 6903   7.142   6.382   9.622
 2853W        W 6904  10.455  10.572  11.528
 2854W        W 6905   1.067   7.433   2.233
 2855W        W 6906   3.980   3.710   2.173
 2856W        W 6907   8.962   6.359  10.470
 2857W        W 6908   6.568   8.531  11.658
 2858W        W 6909  10.439   1.894   2.376
 2859W        W 6910   1.268   3.343  10.328
 2860W        W 6911   6.060   7.135   2.250
 2861W        W 6912   4.516   3.942   9.505
 2862W        W 6913   0.855  10.725   1.987
 2863W        W 6914   0.392   8.841   0.457
 2864W        W 6915   3.762   2.186  10.087
 2865W        W 6916   7.092   0.408   9.959
 2866W        W 6917  11.064   3.806   1.962
 2867W        W 6918   7.123   0.340  10.997
 2868W        W 6919   7.544   6.655   3.831
 2869W        W 6920   9.626   7.820   0.033
 2870W        W 6921   5.036   8.189  11.163
 2871W        W 6922   4.895   7.997   2.550
 2872W        W 6923   1.600   5.895   8.521
 2873W        W 6924   6.120   9.665   2.049
 2874W        W 6925   1.745   4.159   1.802
 2875W        W 6926   1.055   7.368   8.595
 2876W        W 6927   5.338  10.317   0.406
 2877W        W 6928   0.507   9.945   0.027
 2878W        W 6929   8.354   8.650  11.957
 2879W        W 6930   8.680   5.615   3.119
 2880W        W 6931   5.586   4.716  11.436
 2881W        W 6932   0.763   1.882   0.452
 2882W        W 6933  10.133   4.271   0.408
 2883W        W 6934   6.627   1.930   0.553
 2884W        W 6935   5.307   7.392  11.361
 2885W        W 6936   5.452   9.131   9.452
 2886W        W 6937   5.653   0.784   3.265
 2887W        W 6938  10.341   4.234   2.553
 2888W        W 6939   2.079   8.793  10.843
 2889W        W 6940   6.073   7.097   1.351
 2890W        W 6941   4.800   3.855   3.692
 2891W        W 6942   5.949   2.364   2.729
 2892W        W 6943   9.340   3.769   9.045
 2893W        W 6944   1.711   4.658   1.984
 2894W        W 6945   4.743   2.253   9.123
 2895W        W 6946   2.195   6.634   1.151
 2896W        W 6947   0.035   7.530  10.575
 2897W        W 6948   3.927   9.326   2.873
 2898W        W 6949   2.003   4.166   2.402
 2899W        W 6950   5.170   2.334   4.024
 2900W        W 6951  10.078   2.212  10.040
 2901W        W 6952   3.409  10.261   2.182
 2902W        W 6953   3.748  10.812   3.160
 2903W        W 6954   7.049   9.135  10.548
 2904W        W 6955   7.983   2.802   2.268
 2905W        W 6956   7.074   3.800  10.798
 2906W        W 6957  10.850   2.630   0.234
 2907W        W 6958   7.176   9.575  10.327
 2908W        W 6959   2.307   9.964   2.317
 2909W        W 6960   4.084   6.488   2.033
 2910W        W 6961   7.596   4.715   1.866
 2911W        W 6962   0.395   1.362   8.963
 2912W        W 6963   0.905   3.761   2.013
 2913W        W 6964  11.335   6.254   2.356
 2914W        W 6965   6.759   8.922   2.266
 2915W        W 6966   2.106   0.728  10.850
 2916W        W 6967   2.893   4.680   8.686
 2917W        W 6968  11.037  10.396   9.798
 2918W        W 6969   7.561   3.627   9.937
 2919W        W 6970   0.716   3.092  11.889
 2920W        W 6971   7.661  10.319   3.293
 2921W        W 6972   4.207   3.402   1.762
 2922W        W 6973  10.889   9.461   9.975
 2923W        W 6974   9.539   8.355   3.166
 2924W        W 6975  11.006   4.570   8.909
 2925W        W 6976   8.349   9.504   1.013
 2926W        W 6977   0.948   0.158   9.707
 2927W        W 6978   9.045   4.761   0.274
 2928W        W 6979   6.722   3.817   1.428
 2929W        W 6980   5.177   5.979   1.894
 2930W        W 6981   0.798   3.045   3.082
 2931W        W 6982  10.388   5.653   8.453
 2932W        W 6983   0.997   7.947   0.083
 2933W        W 6984   7.560   3.646  10.952
 2934W        W 6985  11.252   0.253  10.537
 2935W        W 6986   1.933   8.367   2.655
 2936W        W 6987   1.819   3.684   1.577
 2937W        W 6988   8.409   4.772   0.015
 2938W        W 6989   4.749  11.206  11.139
 2939W        W 6990   0.924   3.115   1.513
 2940W        W 6991   7.289  10.019   2.745
 2941W        W 6992   6.919   4.142  11.506
 2942W        W 6993   3.302   2.738   9.620
 2943W        W 6994   1.123   1.923  10.849
 2944W        W 6995   0.648   9.321   9.490
 2945W        W 6996   1.816   8.309   0.352
 2946W        W 6997   7.408   4.847   1.407
 2947W        W 6998   5.410   7.050  11.758
 2948W        W 6999   4.682   3.460   1.333
 2949W        W 7000   0.772   5.099  10.447
 2950W        W 7001   9.932   3.227   3.351
 2951W        W 7002   1.748   8.136   9.386
 2952W        W 7003   3.029   4.790   3.426
 2953W        W 7004   9.702   1.977   0.707
 2954W        W 7005   0.746  10.114   0.882
 2955W        W 7006   2.752   8.359   9.626
 2956W        W 7007   3.773   7.971   9.955
 2957W        W 7008   8.705   3.024   2.714
 2958W        W 7009  10.582   8.181   9.929
 2959W        W 7010   0.452   1.774   3.274
 2960W        W 7011   1.721   9.960   9.800
 2961W        W 7012   2.764   4.758   3.890
 2962W        W 7013   9.920   9.927   9.858
 2963W        W 7014   0.013   0.192   1.355
 2964W        W 7015   6.627   4.540   1.944
 2965W        W 7016   1.710   0.003  11.558
 2966W        W 7017   5.029   4.331   9.462
 2967W        W 7018   5.196   8.965   3.555
 2968W        W 7019   8.204   3.067   3.656
 2969W        W 7020   7.688   6.606   8.983
 2970W        W 7021   7.170   7.559   2.770
 2971W        W 7022  10.254  10.417   2.749
 2972W        W 7023   7.177   4.220  11.041
 2973W        W 7024   9.737   3.704   3.524
 2974W        W 7025   2.772   0.738   1.654
 2975W        W 7026   8.590   9.033   0.804
 2976W        W 7027   5.021   3.156   1.827
 2977W        W 7028   3.117   0.748   1.270
 2978W        W 7029   4.815  10.692  11.226
 2979W        W 7030   2.255   5.220   4.216
 2980W        W 7031   7.127   0.491   0.803
 2981W        W 7032   2.803   6.114  11.496
 2982W        W 7033   2.128   0.748   9.971
 2983W        W 7034   1.828   9.995   8.876
 2984W        W 7035  10.716   8.622  10.362
 2985W        W 7036   0.549   4.982   8.410
 2986W        W 7037   4.156   2.673   9.517
 2987W        W 7038   7.163   6.348   3.993
 2988W        W 7039   7.470   9.056   1.665
 2989W        W 7040   3.214   6.586  10.733
 2990W        W 7041   0.984   4.412  11.206
 2991W        W 7042   2.270   3.775  10.258
 2992W        W 7043  11.305  10.964   3.334
 2993W        W 7044   9.886  10.920   3.423
 2994W        W 7045   5.963   0.933  10.341
 2995W        W 7046   1.262   7.665   0.860
 2996W        W 7047   6.914   7.020   1.574
 2997W        W 7048  10.784   6.037  10.320
 2998W        W 7049   8.666   0.444   9.457
 2999W        W 7050   4.728   4.771  10.999
 3000W        W 7051   9.642   3.618   1.687
 3001W        W 7052   9.393   6.450   2.097
 3002W        W 7053   5.776   9.930   2.397
 3003W        W 7054   8.474   7.828  10.982
 3004W        W 7055   4.669   3.643   0.541
 3005W        W 7056   3.721   3.527  10.416
 3006W        W 7057   9.138   2.767  10.344
 3007W        W 7058   4.269   7.766   0.412
 3008W        W 7059   0.684   1.579   9.492
 3009W        W 7060  10.473   0.402   0.534
 3010W        W 7061   0.281   5.899   9.465
 3011W        W 7062   1.103   8.242   8.893
 3012W        W 7063   9.085   1.724  11.457
 3013W        W 7064   8.916   9.099   1.515
 3014W        W 7065   4.592   0.237   0.865
 3015W        W 7066   1.347   3.701   0.194
 3016W        W 7067   9.263   5.637   3.270
 3017W        W 7068   8.415   9.003   9.866
 3018W        W 7069   4.017   7.444   0.742
 3019W        W 7070   9.041   2.247   1.152
 3020W        W 7071   8.392   4.366   2.245
 3021W        W 7072   6.024  10.490   0.655
 3022W        W 7073  11.285   1.816   1.664
 3023W        W 7074   7.139   4.832   2.128
 3024W        W 7075   2.105   4.217   3.163
 3025W        W 7076   3.267  10.837  10.367
 3026W        W 7077   0.844   5.337  11.354
 3027W        W 7078   5.538   2.791  10.008
 3028W        W 7079   1.800   1.701   3.068
 3029W        W 7080   4.472   7.602   0.913
 3030W        W 7081   1.771   6.037   9.390
 3031W        W 7082   4.183   7.578  11.877
 3032W        W 7083  11.103   9.187   3.389
 3033W        W 7084   4.015   6.666  10.374
 3034W        W 7085   6.170   7.916   2.666
 3035W        W 7086   5.445   1.870   8.513
 3036W        W 7087   0.592   3.416   1.783
 3037W        W 7088   3.521   1.226   3.354
 3038W        W 7089  11.015   1.048   2.510
 3039W        W 7090   4.658   8.097   0.241
 3040W        W 7091   7.443   4.029   9.658
 3041W        W 7092   7.063   6.726   3.627
 3042W        W 7093   8.701   6.479   3.189
 3043W        W 7094   5.966   5.953   0.383
 3044W        W 7095  10.485  10.790   1.857
 3045W        W 7096   4.794   1.973  11.517
 3046W        W 7097   1.462  10.341   9.075
 3047W        W 7098   8.037   3.278   1.603
 3048W        W 7099   6.334  10.733   2.306
 3049W        W 7100   5.510   8.382   9.075
 3050W        W 7101   3.277   9.646   4.161
 3051W        W 7102   2.101   5.577   3.895
 3052W        W 7103   3.987  11.030   1.209
 3053W        W 7104   7.024   3.228   0.072
 3054W        W 7105   7.875   0.777  10.065
 3055W        W 7106  10.099  10.285   8.617
 3056W        W 7107  11.479   4.133   2.032
 3057W        W 7108  10.054   3.470   2.894
 3058W        W 7109   6.735   7.342  11.932
 3059W        W 7110   2.623   0.868   9.023
 3060W        W 7111   2.571   9.610   2.619
 3061W        W 7112   0.866   6.822   2.730
 3062W        W 7113   1.404   1.242  11.948
 3063W        W 7114  11.366   1.315  11.531
 3064W        W 7115   2.063   4.849   9.832
 3065W        W 7116   3.254   5.066   8.664
 3066W        W 7117   5.103   3.911  10.374
 3067W        W 7118   1.206   1.223   1.385
 3068W        W 7119   9.958   2.254   9.036
 3069W        W 7120   7.467   4.986   9.660
 3070W        W 7121   8.947   9.143   3.020
 3071W        W 7122   2.215   9.980   9.861
 3072W        W 7123   4.603  11.091   2.358
 3073W        W 7124   6.662   7.811   0.106
 3074W        W 7125   1.719   8.676  11.403
 3075W        W 7126   8.535  10.734   1.936
 3076W        W 7127   9.960   1.471   1.640
 3077W        W 7128   7.861   3.685   2.410
 3078W        W 7129  10.836   3.107   0.026
 3079W        W 7130   1.619   7.402   3.474
 3080W        W 7131   7.551   6.575   2.437
 3081W        W 7132   9.598   6.587   3.091
 3082W        W 7133   8.440   0.643   1.706
 3083W        W 7134   8.332   0.129  10.378
 3084W        W 7135  11.363   8.055   8.810
 3085W        W 7136   3.065   7.034   2.908
 3086W        W 7137   9.874   0.926   2.993
 3087W        W 7138   2.117   1.279  10.006
 3088W        W 7139   1.699   4.581   2.469
 3089W        W 7140   3.722  10.040   9.793
 3090W        W 7141   0.730  10.562   0.581
 3091W        W 7142   5.191  11.048   3.486
 3092W        W 7143   0.048   8.546   1.771
 3093W        W 7144   8.012   1.950   1.227
 3094W        W 7145   1.190   3.213   0.075
 3095W        W 7146   7.563  11.485   0.655
 3096W        W 7147  11.201   2.243   1.366
 3097W        W 7148   6.776   8.627  10.700
 3098W        W 7149   3.804   3.704   0.739
 3099W        W 7150   8.710   1.392   9.271
 3100W        W 7151  10.938   5.062   3.219
 3101W        W 7152   9.385   8.401  10.973
 3102W        W 7153   4.740   1.682   2.873
 3103W        W 7154   6.292   7.245   3.580
 3104W        W 7155   5.990   6.215   2.213
 3105W        W 7156   0.306   8.812   8.780
 3106W        W 7157   2.944  10.923  10.778
 3107W        W 7158   6.855   2.350   0.322
 3108W        W 7159  11.219   0.793   3.669
 3109W        W 7160   4.071   7.075  11.722
 3110W        W 7161   9.762   1.435  11.981
 3111W        W 7162   1.496   7.791   3.107
 3112W        W 7163   3.850   2.755  10.853
 3113W        W 7164   3.306   4.713   9.048
 3114W        W 7165   2.239  10.450   3.066
 3115W        W 7166   5.528   3.590   3.915
 3116W        W 7167   9.480   3.331   9.248
 3117W        W 7168   6.213  10.703   8.949
 3118W        W 7169   1.325   3.639   2.330
 3119W        W 7170   1.010   3.222   9.150
 3120W        W 7171   6.270   8.772  10.828
 3121W        W 7172   5.502   5.559  11.401
 3122W        W 7173   1.815   2.826   2.266
 3123W        W 7174   1.022   8.460   0.730
 3124W        W 7175   3.813   9.486   2.420
 3125W        W 7176   5.198   2.558  10.290
 3126W        W 7177  10.644   4.407   0.254
 3127W        W 7178   4.029   4.937   8.189
 3128W        W 7179   2.785   4.616   9.185
 3129W        W 7180   1.657   5.129  10.302
 3130W        W 7181   8.903   9.616  11.909
 3131W        W 7182   9.985   0.768  10.564
 3132W        W 7183   2.902  10.905   2.631
 3133W        W 7184   8.902  10.996  10.873
 3134W        W 7185   7.106   8.429   2.871
 3135W        W 7186   4.349   8.049   1.385
 3136W        W 7187   4.199   9.780   2.275
 3137W        W 7188   0.962   9.345   9.920
 3138W        W 7189   1.227   8.789   8.848
 3139W        W 7190   9.829   3.609   9.939
 3140W        W 7191   4.208   3.585   9.226
 3141W        W 7192   9.367   9.984  10.375
 3142W        W 7193   8.878   9.427   8.702
 3143W        W 7194   7.659   8.119   2.528
 3144W        W 7195   1.353   8.386   1.487
 3145W        W 7196   8.634   2.626  11.020
 3146W        W 7197  11.325   9.351   1.289
 3147W        W 7198  10.696   6.084   0.956
 3148W        W 7199   1.905   7.911  10.540
 3149W        W 7200   1.922   0.839   2.145
 3150W        W 7201  10.382   9.389   2.742
 3151W        W 7202   2.759  11.297   9.323
 3152W        W 7203   4.183   0.932  11.836
 3153W        W 7204  10.241   8.599   0.978
 3154W        W 7205   6.638   7.664   2.795
 3155W        W 7206   3.595   0.483   1.325
 3156W        W 7207  10.750   4.817  11.237
 3157W        W 7208   3.191   6.407   0.302
 3158W        W 7209   6.714  11.421  11.349
 3159W        W 7210   1.126   1.602   8.430
 3160W        W 7211   3.843   8.812  11.457
 3161W        W 7212  10.445   4.712   1.407
 3162W        W 7213   5.392   6.528  11.802
 3163W        W 7214   5.177   0.756  11.258
 3164W        W 7215   1.310  11.045   0.370
 3165W        W 7216   3.196   3.869   1.367
 3166W        W 7217  11.279   5.794   8.717
 3167W        W 7218  10.459   3.153   9.037
 3168W        W 7219   1.355   0.100   2.989
 3169W        W 7220   6.276   7.647   3.160
 3170W        W 7221   7.875   4.154   0.709
 3171W        W 7222   6.719   3.684   3.286
 3172W        W 7223   3.858   6.592  11.794
 3173W        W 7224  10.687   5.663  11.433
 3174W        W 7225   4.757   9.919   9.715
 3175W        W 7226   4.061   0.930   1.212
 3176W        W 7227   9.589   4.292   3.315
 3177W        W 7228   8.515   8.694  10.556
 3178W        W 7229   0.079   8.991  10.254
 3179W        W 7230   0.741   6.377   0.859
 3180W        W 7231   4.268   9.027   3.114
 3181W        W 7232   6.271   0.150   0.511
 3182W        W 7233   5.860   3.331   3.065
 3183W        W 7234   2.237   5.299   2.987
 3184W        W 7235   6.452   5.880  10.531
 3185W        W 7236  10.371   7.170  10.015
 3186W        W 7237   9.821   5.743   0.512
 3187W        W 7238   3.537   8.462   0.633
 3188W        W 7239   8.378  10.031   0.703
 3189W        W 7240   9.189   6.505   3.379
 3190W        W 7241   9.198   8.016   8.553
 3191W        W 7242   1.971   2.709   0.214
 3192W        W 7243   1.670  10.021  10.319
 3193W        W 7244   4.484  10.944   1.264
 3194W        W 7245   6.228   5.734  10.079
 3195W        W 7246  10.566   3.670  11.799
 3196W        W 7247  10.004   1.791   8.769
 3197W        W 7248   9.946   6.155   3.602
 3198W        W 7249   6.958   1.308  10.976
 3199W        W 7250   0.332   2.922   3.259
 3200W        W 7251   8.490   5.843   0.680
 3201W        W 7252   8.870   5.456   1.462
 3202W        W 7253   3.323   2.730  10.157
 3203W        W 7254   4.642   6.690   9.130
 3204W        W 7255   8.481   7.434   9.790
 3205W        W 7256   3.690  10.181   8.964
 3206W        W 7257  10.690   9.492   9.318
 3207W        W 7258  11.333   8.375   0.245
 3208W        W 7259  10.895   7.005  10.326
 3209W        W 7260   3.583   1.376  11.168
 3210W        W 7261   2.096   4.446   3.621
 3211W        W 7262   3.139  10.370  11.137
 3212W        W 7263  11.236   9.381   0.201
 3213W        W 7264   8.058   7.948   0.319
 3214W        W 7265   5.782   0.553  10.645
 3215W        W 7266   0.432   8.161   1.177
 3216W        W 7267   1.280   4.341   1.930
 3217W        W 7268   2.080   5.098   8.088
 3218W        W 7269   4.019   7.930   2.357
 3219W        W 7270   7.030  10.825   1.697
 3220W        W 7271   9.425   9.866   1.766
 3221W        W 7272   3.390   4.280   2.441
 3222W        W 7273   1.642   0.550   9.102
 3223W        W 7274   0.325   3.465   8.889
 3224W        W 7275   8.076   7.665   9.994
 3225W        W 7276   9.177   1.453  11.030
 3226W        W 7277   0.799   1.264   1.039
 3227W        W 7278   3.785  11.029   2.578
 3228W        W 7279   7.370   2.433  11.334
 3229W        W 7280   4.116   4.700   2.306
 3230W        W 7281   2.838  10.311   3.407
 3231W        W 7282  10.910   9.608   1.136
 3232W        W 7283   3.090  10.445  10.637
 3233W        W 7284   5.830   1.714   2.438
 3234W        W 7285   2.837  10.080   1.017
 3235W        W 7286   9.745   4.777   3.209
 3236W        W 7287  10.844  11.311   2.688
 3237W        W 7288   6.721   1.258  11.451
 3238W        W 7289  11.037  10.377   2.320
 3239W        W 7290   0.993  11.278  10.452
 3240W        W 7291   9.297  11.333   1.393
 3241W        W 7292   0.922   6.989  11.378
 3242W        W 7293   9.343   1.948  10.540
 3243W        W 7294   5.457   1.414  10.973
 3244W        W 7295   1.722   2.062   2.706
 3245W        W 7296   7.799  10.111   2.813
 3246W        W 7297   3.255   7.293   9.065
 3247W        W 7298   4.850   8.223   2.095
 3248W        W 7299   2.810  10.590   1.022
 3249W        W 7300   8.652   2.114   1.825
 3250W        W 7301   5.697   5.108  11.061
 3251W        W 7302   0.654   3.291   0.972
 3252W        W 7303   6.581   1.246   1.934
 3253W        W 7304   0.808   4.025   9.478
 3254W        W 7305   6.989   9.988  10.549
 3255W        W 7306  10.887   8.570   2.210
 3256W        W 7307   3.617   7.546  10.765
 3257W        W 7308   0.288   2.638   0.544
 3258W        W 7309   9.004   1.885   1.499
 3259W        W 7310   0.468   9.485   9.935
 3260W        W 7311   0.711   5.784  11.581
 3261W        W 7312   1.447   1.951   0.258
 3262W        W 7313   9.493   2.862  11.983
 3263W        W 7314   4.895   9.567   1.437
 3264W        W 7315   2.507   7.572  10.229
 3265W        W 7316   6.558   6.718  10.766
 3266W        W 7317   0.388   4.793   9.343
 3267W        W 7318   8.930  10.013  10.639
 3268W        W 7319   2.880   7.204   1.411
 3269W        W 7320   7.081   3.602   1.772
 3270W        W 7321   1.010   0.946  11.784
 3271W        W 7322   9.962   1.255  11.573
 3272W        W 7323   1.714   5.694  10.838
 3273W        W 7324   5.420  11.313  10.345
 3274W        W 7325  10.525   4.631   9.124
 3275W        W 7326   0.318   7.161  10.799
 3276W        W 7327   5.432  10.399   9.774
 3277W        W 7328   1.411   0.801  11.512
 3278W        W 7329   9.857   9.371  10.128
 3279W        W 7330   2.697   2.641   9.135
 3280W        W 7331   4.983   5.360  11.322
 3281W        W 7332   1.716   4.786  11.922
 3282W        W 7333   8.891   2.920   0.792
 3283W        W 7334   4.518   7.852   2.218
 3284W        W 7335  11.457   0.741   1.392
 3285W        W 7336   6.701   7.975  10.465
 3286W        W 7337  11.274   1.564   9.793
 3287W        W 7338   4.862   9.355   9.846
 3288W        W 7339   1.835   8.989   2.818
 3289W        W 7340   8.202   8.510   1.401
 3290W        W 7341   4.142   4.704   1.297
 3291W        W 7342   0.842   9.788   9.534
 3292W        W 7343   0.937   6.428   2.406
 3293W        W 7344  10.363   8.363   2.753
 3294W        W 7345  10.923   5.706   1.208
 3295W        W 7346  10.084   5.238   2.187
 3296W        W 7347   5.782   1.209   2.976
 3297W        W 7348   9.560   8.872  11.814
 3298W        W 7349   1.217   6.718   9.221
 3299W        W 7350   5.202   5.092   0.991
 3300W        W 7351   1.266   2.475   3.364
 3301W        W 7352   5.293   2.556   2.806
 3302W        W 7353   2.317   4.790   0.665
 3303W        W 7354   1.966  10.878  10.776
 3304W        W 7355   2.216  11.256   0.748
 3305W        W 7356   0.299   9.020   9.761
 3306W        W 7357   1.212  11.281   9.991
 3307W        W 7358  11.211   6.287   8.888
 3308W        W 7359   3.638   1.781   3.192
 3309W        W 7360   3.232   8.490   9.402
 3310W        W 7361   0.061   2.934   9.479
 3311W        W 7362   6.441   3.324   0.327
 3312W        W 7363   5.052  10.833   2.465
 3313W        W 7364   2.803   0.242   9.574
 3314W        W 7365   0.823   5.815   0.077
 3315W        W 7366   1.998   8.003  11.056
 3316W        W 7367   8.826   0.768   9.823
 3317W        W 7368   2.359   1.397   2.898
 3318W        W 7369   9.494   7.103   0.339
 3319W        W 7370   7.361   8.920   8.377
 3320W        W 7371   0.074  10.538   1.899
 3321W        W 7372   1.788  10.301  10.788
 3322W        W 7373   0.790   7.308  10.986
 3323W        W 7374   8.139   4.260   2.662
 3324W        W 7375   0.452   2.731   2.352
 3325W        W 7376   8.257   6.686  11.882
 3326W        W 7377   6.923   2.727   1.776
 3327W        W 7378   5.733   5.608  10.938
 3328W        W 7379  11.254   0.724   8.828
 3329W        W 7380   4.767   7.962   9.772
 3330W        W 7381   4.369  10.856  11.097
 3331W        W 7382   3.230   0.943   9.592
 3332W        W 7383   2.431   2.807   0.045
 3333W        W 7384  10.429   3.129   9.540
 3334W        W 7385   3.409   4.656  11.630
 3335W        W 7386   3.945   8.779  10.958
 3336W        W 7387   2.682   7.250   2.670
 3337W        W 7388   3.541   5.510   8.720
 3338W        W 7389   9.461   8.026   9.071
 3339W        W 7390   8.049   0.830  10.864
 3340W        W 7391   8.241  10.500  10.329
 3341W        W 7392   5.136  11.466   8.987
 3342W        W 7393   9.106  10.902  10.397
 3343W        W 7394  10.811   7.964  11.203
 3344W        W 7395   0.716   2.590   9.814
 3345W        W 7396   1.877  10.519   1.308
 3346W        W 7397  11.024   4.404   3.649
 3347W        W 7398  11.362   3.113   3.173
 3348W        W 7399   2.429   7.151   8.972
 3349W        W 7400   6.497   4.326   9.581
 3350W        W 7401   1.898   3.817   0.861
 3351W        W 7402   9.527   4.589   1.395
 3352W        W 7403   7.954   9.799  11.783
 3353W        W 7404   7.536   7.713   0.445
 3354W        W 7405   5.040   6.489   0.262
 3355W        W 7406   6.421   4.139   8.627
 3356W        W 7407  10.251   9.090  10.366
 3357W        W 7408  11.288   6.548   0.301
 3358W        W 7409   6.509  10.931  10.348
 3359W        W 7410   5.068  11.335  10.756
 3360W        W 7411   4.720   4.153   9.916
 3361W        W 7412   4.655   9.231   1.791
 3362W        W 7413   8.855   6.579   0.804
 3363W        W 7414   2.485   3.222  11.732
 3364W        W 7415   8.762   8.012   9.481
 3365W        W 7416   6.467   2.748   8.946
 3366W        W 7417   3.725   5.686  10.818
 3367W        W 7418   3.193   1.415   9.797
 3368W        W 7419  10.122   7.919   2.378
 3369W        W 7420   9.884   7.008   3.103
 3370W        W 7421   7.425   5.732   1.791
 3371W        W 7422   2.679  10.442  10.933
 3372W        W 7423   2.184  10.481  11.063
 3373W        W 7424   5.176  10.216  11.932
 3374W        W 7425   8.992   6.611   2.427
 3375W        W 7426   1.966   8.932   3.653
 3376W        W 7427   9.570   2.640  11.528
 3377W        W 7428  11.445  10.269  10.111
 3378W        W 7429   3.135   1.823   2.972
 3379W        W 7430   4.915   5.687  10.527
 3380W        W 7431   4.660   3.437   9.490
 3381W        W 7432   8.042   1.064  11.331
 3382W        W 7433   0.811   9.282  11.393
 3383W        W 7434   7.368   3.618   2.687
 3384W        W 7435   1.688   6.699   8.939
 3385W        W 7436   3.784   9.776  11.261
 3386W        W 7437   5.260   0.674   9.377
 3387W        W 7438   5.702   5.093   9.208
 3388W        W 7439   7.523   9.432   9.504
 3389W        W 7440   3.020  10.384   1.869
 3390W        W 7441   9.783   0.451  10.899
 3391W        W 7442   3.707   3.330   2.718
 3392W        W 7443   8.182   5.867   9.438
 3393W        W 7444   6.939   6.420  10.955
 3394W        W 7445   2.566   8.811  11.948
 3395W        W 7446   3.744   5.048   8.817
 3396W        W 7447   2.263   1.375   0.503
 3397W        W 7448  11.090   0.837   1.775
 3398W        W 7449   7.957   0.788   0.473
 3399W        W 7450   9.449   5.515   0.254
 3400W        W 7451   5.726   7.661  11.491
 3401W        W 7452   6.810   9.461   8.032
 3402W        W 7453   4.494   8.127   0.749
 3403W        W 7454   8.867   6.196   2.733
 3404W        W 7455   0.434   4.537   0.161
 3405W        W 7456   6.252  10.252   9.224
 3406W        W 7457   8.422   7.062   2.564
 3407W        W 7458   2.673   9.223  10.406
 3408W        W 7459   1.924   7.083  10.254
 3409W        W 7460   3.601   3.793   2.510
 3410W        W 7461   3.375   5.435   0.466
 3411W        W 7462   6.074   5.419   1.921
 3412W        W 7463   3.896   0.872   1.685
 3413W        W 7464   7.402   2.166   3.464
 3414W        W 7465   5.745  10.923  10.973
 3415W        W 7466  11.354   8.126   9.839
 3416W        W 7467   0.721   6.005   2.619
 3417W        W 7468   5.785   8.496   2.318
 3418W        W 7469   0.743   3.367   2.278
 3419W        W 7470   7.472   3.337  11.382
 3420W        W 7471   6.033  11.472   3.142
 3421W        W 7472   5.217   1.217  10.576
 3422W        W 7473   7.436   8.536   0.285
 3423W        W 7474   1.777  10.052   0.988
 3424W        W 7475   3.763   7.016   3.254
 3425W        W 7476  11.118   8.476   1.187
 3426W        W 7477   4.613   6.202  11.752
 3427W        W 7478   1.662   4.296   0.822
 3428W        W 7479   8.012   4.623   1.176
 3429W        W 7480   6.789   4.036   2.704
 3430W        W 7481   9.055   3.240   1.414
 3431W        W 7482  10.666   7.983  10.700
 3432W        W 7483   0.109   1.085   9.889
 3433W        W 7484   9.232  10.279   9.032
 3434W        W 7485   7.956   8.222   9.284
 3435W        W 7486   8.040   0.934   1.816
 3436W        W 7487   6.146   6.748   3.116
 3437W        W 7488   4.523   1.267   0.869
 3438W        W 7489  11.438  10.770  10.015
 3439W        W 7490  11.307   6.514   2.808
 3440W        W 7491   4.525   1.602   8.545
 3441W        W 7492   2.291   3.851   9.165
 3442W        W 7493   8.936   9.893  11.479
 3443W        W 7494   1.909   5.937   0.691
 3444W        W 7495   2.925   9.059   0.321
 3445W        W 7496   2.320   1.042   9.566
 3446W        W 7497   5.056   0.789   1.189
 3447W        W 7498   9.313   1.318   1.177
 3448W        W 7499   8.344  10.889  10.911
 3449W        W 7500   0.313   5.736   0.073
 3450W        W 7501   6.686   4.221  10.936
 3451W        W 7502   2.344  11.373   1.418
 3452W        W 7503   3.719   1.407  10.662
 3453W        W 7504   3.987   1.429   3.403
 3454W        W 7505   8.902   9.951  10.103
 3455W        W 7506   7.144   2.380   8.649
 3456W        W 7507   0.989   2.604   9.384
 3457W        W 7508   9.386   4.398   8.524
 3458W        W 7509   3.783   1.279   9.134
 3459W        W 7510   4.647   3.363   3.666
 3460W        W 7511   8.439  10.341   9.442
 3461W        W 7512   0.746   7.098   3.145
 3462W        W 7513   4.488   0.137  11.015
 3463W        W 7514   4.373   6.623   2.452
 3464W        W 7515   5.608   8.026   1.331
 3465W        W 7516   4.962   3.929   3.204
 3466W        W 7517   6.213  10.190   2.226
 3467W        W 7518   5.614   3.077   1.233
 3468W        W 7519   0.392   2.201   2.480
 3469W        W 7520  10.903   2.146   0.393
 3470W        W 7521   6.992   6.498   1.644
 3471W        W 7522   4.604   0.940  10.600
 3472W        W 7523   5.203   2.087  10.034
 3473W        W 7524   8.089   7.869  11.318
 3474W        W 7525   6.393   7.673   4.083
 3475W        W 7526   8.142   6.180  11.852
 3476W        W 7527   8.793   4.762   3.497
 3477W        W 7528   1.888   1.689   0.341
 3478W        W 7529  11.187   3.356   1.803
 3479W        W 7530  11.042  10.854   9.014
 3480W        W 7531   3.736   7.930   1.461
 3481W        W 7532   9.107   1.683   2.442
 3482W        W 7533   0.251   1.863   9.380
 3483W        W 7534   0.375  10.872  11.274
 3484W        W 7535   5.540  10.684   0.681
 3485W        W 7536   8.807   4.060   2.189
 3486W        W 7537   2.066   6.119   8.433
 3487W        W 7538   9.582   1.472   8.762
 3488W        W 7539   0.537   5.587   2.850
 3489W        W 7540   2.341  10.858   2.310
 3490W        W 7541   8.787   5.821   1.840
 3491W        W 7542  10.506   4.673   2.794
 3492W        W 7543   1.335   6.102   2.481
 3493W        W 7544  10.376   1.354   9.909
 3494W        W 7545   7.605   8.066   0.105
 3495W        W 7546   6.568   8.972  10.370
 3496W        W 7547   8.028   7.715   9.147
 3497W        W 7548  10.400   9.828   9.611
 3498W        W 7549   6.469   1.930   9.789
 3499W        W 7550   8.891   0.797   2.962
 3500W        W 7551   7.166   2.088  10.030
 3501W        W 7552   8.291   0.231   8.520
 3502W        W 7553   3.240   7.029   9.987
 3503W        W 7554   0.968   3.751  10.392
 3504W        W 7555   5.736   6.496   8.607
 3505W        W 7556   8.943   6.037   3.217
 3506W        W 7557   6.520   6.669   0.682
 3507W        W 7558   9.357   4.380   0.967
 3508W        W 7559   6.703   0.403   0.494
 3509W        W 7560   2.401   3.714   0.843
 3510W        W 7561  11.449   0.417  11.634
 3511W        W 7562   7.618   7.566   1.775
 3512W        W 7563   1.659   1.321  10.333
 3513W        W 7564  11.045   9.444  10.875
 3514W        W 7565   6.340   9.900   8.842
 3515W        W 7566   4.185  10.512   1.045
 3516W        W 7567   2.738  10.468  11.945
 3517W        W 7568   5.602   2.211   3.089
 3518W        W 7569   5.628   0.679   1.000
 3519W        W 7570   5.308   1.371   3.073
 3520W        W 7571   3.300   8.032  10.716
 3521W        W 7572   4.325   5.070  10.818
 3522W        W 7573   2.228   2.490   3.325
 3523W        W 7574   7.284   4.588   3.494
 3524W        W 7575   1.925   9.861   0.275
 3525W        W 7576   6.077   3.682   9.142
 3526W        W 7577   7.223   7.489  11.782
 3527W        W 7578   3.730   2.619   0.267
 3528W        W 7579   6.000   8.240   3.554
 3529W        W 7580   9.518   0.505   0.957
 3530W        W 7581   5.661   3.144   3.571
 3531W        W 7582   9.441   7.041  10.213
 3532W        W 7583   3.768   4.090   9.646
 3533W        W 7584   1.689   3.093   0.430
 3534W        W 7585   3.344   5.993   8.731
 3535W        W 7586  10.728   9.040   2.421
 3536W        W 7587   1.933   1.651  10.591
 3537W        W 7588  11.337  10.417   9.015
 3538W        W 7589   4.385   4.401  10.338
 3539W        W 7590   3.373   2.829  11.576
 3540W        W 7591   4.095   7.429  11.348
 3541W        W 7592   3.811   4.495  10.002
 3542W        W 7593   1.645   0.405  11.271
 3543W        W 7594   4.826  11.351   1.335
 3544W        W 7595   9.302   9.141   8.476
 3545W        W 7596   2.010   2.012   8.777
 3546W        W 7597   3.016   4.105   0.812
 3547W        W 7598   2.861   3.674   1.024
 3548W        W 7599   6.208   9.956   2.691
 3549W        W 7600   2.175  10.837   9.155
 3550W        W 7601  10.879   6.988   9.468
 3551W        W 7602   5.217   8.536   9.481
 3552W        W 7603  11.116   3.771  10.486
 3553W        W 7604  11.189   8.300  11.213
 3554W        W 7605   0.238   7.551  11.986
 3555W        W 7606   0.352   8.128  10.035
 3556W        W 7607   4.302   5.129   2.079
 3557W        W 7608   6.097   3.658  11.917
 3558W        W 7609   6.572   2.077  11.534
 3559W        W 7610   7.172   3.185   2.503
 3560W        W 7611  10.013   4.390   1.556
 3561W        W 7612  10.232   6.572   0.423
 3562W        W 7613   8.478   3.788  11.932
 3563W        W 7614   4.928   8.432   0.869
 3564W        W 7615   9.972   1.327  11.063
 3565W        W 7616   3.538   6.209  11.993
 3566W        W 7617   2.587   7.070   3.137
 3567W        W 7618   1.477   1.201   8.386
 3568W        W 7619   0.400   5.582   1.054
 3569W        W 7620   5.998   8.394   0.750
 3570W        W 7621  10.314   4.740   2.319
 3571W        W 7622   7.696   6.671   1.585
 3572W        W 7623   6.440   8.565   3.605
 3573W        W 7624   1.716   8.361   0.921
 3574W        W 7625   0.603   7.046   8.668
 3575W        W 7626   1.389   1.397   8.840
 3576W        W 7627   9.545   6.121   8.518
 3577W        W 7628  11.353   1.562   9.229
 3578W        W 7629   5.866   5.067   2.715
 3579W        W 7630   7.602  11.465   0.154
 3580W        W 7631   1.410  10.746   1.321
 3581W        W 7632   7.946   1.501   1.010
 3582W        W 7633   2.363  10.466   3.552
 3583W        W 7634   0.412   8.493   3.537
 3584W        W 7635  11.196  11.334   8.797
 3585W        W 7636   6.128   7.642   2.218
 3586W        W 7637  11.045   2.281   0.876
 3587W        W 7638   9.468  11.162   1.842
 3588W        W 7639   9.658   6.627   3.609
 3589W        W 7640   3.349   0.431   0.495
 3590W        W 7641   6.593   5.320   1.365
 3591W        W 7642  10.143   6.933   2.263
 3592W        W 7643   6.766   1.198  10.078
 3593W        W 7644   4.468   9.545   8.924
 3594W        W 7645   3.301   0.063   3.447
 3595W        W 7646   2.844   6.706   0.525
 3596W        W 7647   1.309   1.694   2.293
 3597W        W 7648   0.828   7.099   9.995
 3598W        W 7649   2.965   7.048  10.794
 3599W        W 7650   3.815   2.597  11.350
 3600W        W 7651   8.949  10.477   9.436
 3601W        W 7652   0.295   3.407   3.129
 3602W        W 7653   2.120   8.567   0.661
 3603W        W 7654   5.226   9.873   1.145
 3604W        W 7655   3.760   8.413  10.244
 3605W        W 7656   5.336  11.326   1.248
 3606W        W 7657   3.330  10.062   3.184
 3607W        W 7658   3.823   4.367  11.820
 3608W        W 7659   2.432   7.968  11.303
 3609W        W 7660   5.489   7.011   9.560
 3610W        W 7661   6.242   5.855   8.634
 3611W        W 7662  10.270   9.407   8.998
 3612W        W 7663   4.670   6.433  10.826
 3613W        W 7664   2.900   5.274  10.863
 3614W        W 7665   3.075   2.104   3.372
 3615W        W 7666  10.025   5.686   9.685
 3616W        W 7667   3.655   4.346  10.963
 3617W        W 7668   6.582   1.217   0.889
 3618W        W 7669  10.331   1.078   1.304
 3619W        W 7670   2.103   8.102   9.023
 3620W        W 7671   2.184   7.146   2.787
 3621W        W 7672   0.727   4.680   2.453
 3622W        W 7673   3.179   5.779  11.503
 3623W        W 7674   7.542   1.530   2.914
 3624W        W 7675   3.731   7.747   2.778
 3625W        W 7676   6.240   0.063  11.253
 3626W        W 7677   1.941   6.306  11.331
 3627W        W 7678   5.247   4.248   0.528
 3628W        W 7679   5.456   3.344   0.809
 3629W        W 7680   4.037   0.671   3.454
 3630W        W 7681   7.691   6.962   2.110
 3631W        W 7682   2.649   9.357   9.413
 3632W        W 7683   2.714   3.778  11.456
 3633W        W 7684   8.441   5.308   9.066
 3634W        W 7685   5.748   6.542   9.676
 3635W        W 7686   8.394   4.183   1.788
 3636W        W 7687   8.086   8.143  10.881
 3637W        W 7688   2.338   8.631   9.799
 3638W        W 7689   4.821   1.723   0.961
 3639W        W 7690   5.333   9.905   8.914
 3640W        W 7691   3.690  10.144   1.647
 3641W        W 7692   5.481  10.185   2.052
 3642W        W 7693   9.749   6.116   2.598
 3643W        W 7694   6.901   9.371   1.510
 3644W        W 7695   0.303   4.121   0.872
 3645W        W 7696  10.694   6.617  11.114
 3646W        W 7697   6.495   2.006   7.993
 3647W        W 7698   1.935   1.397   8.865
 3648W        W 7699   7.437   3.999   2.367
 3649W        W 7700   3.178  10.038  10.371
 3650W        W 7701   4.821   2.004   0.412
 3651W        W 7702  10.145   5.700   2.981
 3652W        W 7703   4.132   0.483   0.907
 3653W        W 7704   7.873   6.250   1.897
 3654W        W 7705  10.952   6.652   8.572
 3655W        W 7706   0.661   9.287   0.289
 3656W        W 7707   6.158   3.209   9.867
 3657W        W 7708   0.917   0.168   3.267
 3658W        W 7709   2.102   2.398   1.389
 3659W        W 7710  10.833   0.322  10.825
 3660W        W 7711   8.568   4.137   1.319
 3661W        W 7712  10.565   4.983   0.922
 3662W        W 7713   5.889   7.999   9.064
 3663W        W 7714   1.746   7.376   1.885
 3664W        W 7715   1.151   3.312   1.929
 3665W        W 7716   3.576   1.383   2.401
 3666W        W 7717   8.190   2.166  10.138
 3667W        W 7718   4.594   4.832   1.509
 3668W        W 7719   0.296  10.560  10.369
 3669W        W 7720   1.049   3.276   2.677
 3670W        W 7721   9.900   7.641  11.279
 3671W        W 7722   8.631  10.385   3.148
 3672W        W 7723   6.514   4.836  11.479
 3673W        W 7724   8.118   3.610   3.323
 3674W        W 7725  10.582   2.736   3.467
 3675W        W 7726   5.548   6.159   0.139
 3676W        W 7727   1.888   6.174  10.256
 3677W        W 7728   7.342  11.022   0.858
 3678W        W 7729   1.901   9.812  10.812
 3679W        W 7730   5.168   8.858  11.233
 3680W        W 7731   3.879   9.934  11.741
 3681W        W 7732   7.030   4.395   3.924
 3682W        W 7733   2.584   1.688  10.886
 3683W        W 7734   6.859  11.325  10.446
 3684W        W 7735  11.242  10.334   1.147
 3685W        W 7736   5.497   4.065  11.251
 3686W        W 7737   7.115   9.654   9.312
 3687W        W 7738   4.391   4.316   2.152
 3688W        W 7739  10.249   5.299   2.671
 3689W        W 7740   2.254   0.725  11.712
 3690W        W 7741   8.087   9.634  10.438
 3691W        W 7742   1.772   2.269   3.198
 3692W        W 7743   6.035   3.224   1.677
 3693W        W 7744  10.869   1.731   9.257
 3694W        W 7745   2.251   6.167   1.466
 3695W        W 7746   0.191  11.363   0.995
 3696W        W 7747   9.590   5.363   0.760
 3697W        W 7748   4.226   1.889  11.218
 3698W        W 7749  10.104   3.858   1.628
 3699W        W 7750   3.180  10.453   1.366
 3700W        W 7751   4.900   8.631   9.085
 3701W        W 7752   8.718   8.289   3.488
 3702W        W 7753   3.045   3.095  10.436
 3703W        W 7754   5.332  11.161   0.327
 3704W        W 7755   8.437   6.723  11.342
 3705W        W 7756   6.724   7.135   0.796
 3706W        W 7757   6.093   1.608   9.949
 3707W        W 7758  10.110   8.474   1.463
 3708W        W 7759   7.973   0.972   9.591
 3709W        W 7760   1.167   1.482  10.319
 3710W        W 7761   5.939   9.389   1.647
 3711W        W 7762  11.410  11.496  11.354
 3712W        W 7763   1.161   4.255   2.689
 3713W        W 7764   3.125   1.291   0.534
 3714W        W 7765   9.462   3.893   0.892
 3715W        W 7766   3.114   8.491   1.956
 3716W        W 7767   3.765   4.709   3.115
 3717W        W 7768   6.191   0.802  10.819
 3718W        W 7769   4.404   1.827   2.132
 3719W        W 7770   1.333   6.578   2.694
 3720W        W 7771  10.987  10.778   2.016
 3721W        W 7772   3.032   4.638  11.987
 3722W        W 7773   6.466   9.565  10.973
 3723W        W 7774   4.067   8.666   9.896
 3724W        W 7775  10.287   3.235  11.872
 3725W        W 7776  10.118  11.477  11.837
 3726W        W 7777   4.184   8.292   0.387
 3727W        W 7778   9.930   2.200   0.315
 3728W        W 7779   1.184   4.057   9.828
 3729W        W 7780   9.465   6.759  11.259
 3730W        W 7781   1.275   7.114   1.861
 3731W        W 7782   2.857   2.313   9.493
 3732W        W 7783   3.007   0.571   9.910
 3733W        W 7784   4.263   7.245  10.880
 3734W        W 7785   0.815  10.969   2.924
 3735W        W 7786   5.499   6.575   2.676
 3736W        W 7787   6.078   4.652  11.723
 3737W        W 7788   7.173   3.685   0.287
 3738W        W 7789  10.203   6.673   9.984
 3739W        W 7790   9.008   9.567   2.724
 3740W        W 7791   0.313   2.453   1.959
 3741W        W 7792   3.748  10.003   2.544
 3742W        W 7793   0.002   5.177   9.408
 3743W        W 7794  11.479   5.290   1.002
 3744W        W 7795   4.964   5.206  10.312
 3745W        W 7796   7.119   2.901  10.317
 3746W        W 7797   9.792   0.516   2.661
 3747W        W 7798   3.520   1.328  11.693
 3748W        W 7799  11.036   8.588  11.860
 3749W        W 7800   4.161   2.342   1.282
 3750W        W 7801   9.938   6.580   9.543
 3751W        W 7802   0.285   1.276   3.317
 3752W        W 7803   4.116   3.093   0.749
 3753W        W 7804   9.963   6.687  11.960
 3754W        W 7805   1.668   1.459   1.324
 3755W        W 7806  10.702   4.036   1.625
 3756W        W 7807   0.340   7.504   1.013
 3757W        W 7808  11.449   0.449   1.817
 3758W        W 7809   0.191   3.049   0.912
 3759W        W 7810   3.713  11.123   1.671
 3760W        W 7811   2.030   6.875   0.313
 3761W        W 7812  11.436   3.914   9.564
 3762W        W 7813  10.277   6.085  10.346
 3763W        W 7814   1.451   7.826   1.409
 3764W        W 7815  11.089   1.706  11.324
 3765W        W 7816   2.270   8.135   1.678
 3766W        W 7817   3.695   7.439   2.384
 3767W        W 7818   8.012  10.257   1.034
 3768W        W 7819   1.360   5.589   2.262
 3769W        W 7820   7.353   8.542   0.907
 3770W        W 7821   5.270   9.033   2.784
 3771W        W 7822   6.039   3.090   8.127
 3772W        W 7823   6.757   3.670  10.423
 3773W        W 7824   5.994   4.201   8.941
 3774W        W 7825   9.453   1.893  11.918
 3775W        W 7826   6.438   8.113   3.829
 3776W        W 7827   9.145   3.340   0.926
 3777W        W 7828   4.221   9.282   2.175
 3778W        W 7829   4.769  10.885  10.756
 3779W        W 7830   0.839   4.627   1.467
 3780W        W 7831   4.275   2.320  11.492
 3781W        W 7832  10.007   6.400   8.528
 3782W        W 7833   1.023   7.512  11.391
 3783W        W 7834  10.129   9.744   2.184
 3784W        W 7835   6.762   6.433   1.204
 3785W        W 7836   6.151   6.540  11.186
 3786W        W 7837   2.424   9.371   1.195
 3787W        W 7838   5.538   9.418  10.795
 3788W        W 7839   1.834   0.825   9.541
 3789W        W 7840   5.713   8.851  10.814
 3790W        W 7841   6.160   0.942   9.097
 3791W        W 7842   6.996   9.567  10.837
 3792W        W 7843   5.644   1.830  10.559
 3793W        W 7844   1.782   3.563   9.909
 3794W        W 7845   4.750   1.132   1.681
 3795W        W 7846   7.427  10.218   8.535
 3796W        W 7847   4.679   7.109   1.034
 3797W        W 7848   6.539   2.878   9.901
 3798W        W 7849   9.959   6.651  11.329
 3799W        W 7850  10.809   4.675   2.286
 3800W        W 7851   5.491   4.612   1.436
 3801W        W 7852   0.169   6.056   8.965
 3802W        W 7853   7.532  10.805   9.304
 3803W        W 7854   7.980   9.517   2.341
 3804W        W 7855   2.288  10.928   3.340
 3805W        W 7856   3.644   4.157   0.237
 3806W        W 7857   0.378   8.845  10.641
 3807W        W 7858   8.609   2.727   0.031
 3808W        W 7859   9.842   6.597   1.365
 3809W        W 7860   5.135   0.175   9.503
 3810W        W 7861  11.474   8.179   1.403
 3811W        W 7862  10.014   7.088   1.400
 3812W        W 7863   7.724   5.896  10.634
 3813W        W 7864   6.253   3.582   8.182
 3814W        W 7865   5.109   6.729   3.019
 3815W        W 7866   0.631   1.297   1.503
 3816W        W 7867   4.188  10.472   2.892
 3817W        W 7868  10.925   7.724   0.102
 3818W        W 7869   1.854   1.482  11.883
 3819W        W 7870   7.223   1.250  10.484
 3820W        W 7871  10.035   8.431   3.264
 3821W        W 7872   7.944  11.463   9.500
 3822W        W 7873  10.305   8.487  11.096
 3823W        W 7874   2.400   8.926   0.435
 3824W        W 7875   1.222   4.616   3.505
 3825W        W 7876   5.474   0.841  10.358
 3826W        W 7877   1.965  10.283   0.562
 3827W        W 7878   9.265   7.127   0.806
 3828W        W 7879   2.389   1.962   1.338
 3829W        W 7880   2.715  10.608   1.533
 3830W        W 7881   2.310   7.642   9.031
 3831W        W 7882   4.849   9.032   0.400
 3832W        W 7883   1.665   3.165  10.608
 3833W        W 7884   6.029   9.254  10.912
 3834W        W 7885   8.381   2.936   1.776
 3835W        W 7886   3.445   3.386   2.248
 3836W        W 7887   0.884   0.486  11.918
 3837W        W 7888  10.755   4.543   3.234
 3838W        W 7889   1.765   7.893   1.842
 3839W        W 7890   4.633   9.817   1.782
 3840W        W 7891  11.138   5.100   0.044
 3841W        W 7892   1.651   1.767   9.081
 3842W        W 7893   5.040   2.516   9.829
 3843W        W 7894  10.410   0.984   8.775
 3844W        W 7895   2.704   1.413   2.331
 3845W        W 7896   4.752   3.270  11.760
 3846W        W 7897   5.117   8.168  10.645
 3847W        W 7898   7.724   4.294   0.257
 3848W        W 7899   8.981   8.378   0.378
 3849W        W 7900   9.571   0.286   9.868
 3850W        W 7901   4.214   7.320   1.743
 3851W        W 7902   8.740   8.542   9.037
 3852W        W 7903   3.855   7.084  10.627
 3853W        W 7904   5.101   6.022   0.492
 3854W        W 7905   6.762   8.041   9.914
 3855W        W 7906   9.700   7.657   1.814
 3856W        W 7907   6.540   1.908   3.260
 3857W        W 7908  11.051   9.395   2.597
 3858W        W 7909   2.387   1.462  10.416
 3859W        W 7910   0.908   1.403   0.570
 3860W        W 7911   4.183   0.009   3.115
 3861W        W 7912   0.082   8.938   3.563
 3862W        W 7913   0.474   6.485   2.625
 3863W        W 7914   5.669   1.366  10.343
 3864W        W 7915   3.163   3.721   3.276
 3865W        W 7916   7.126   3.572   9.582
 3866W        W 7917   8.646   1.850   2.314
 3867W        W 7918   1.795   2.576   2.745
 3868W        W 7919   3.238   0.981   1.717
 3869W        W 7920   2.586   2.711   2.909
 3870W        W 7921  10.355   6.995   1.789
 3871W        W 7922  10.013   4.335   2.161
 3872W        W 7923   0.941   5.969   2.170
 3873W        W 7924   0.843   1.061   9.501
 3874W        W 7925   5.634   5.101   1.261
 3875W        W 7926   6.818   2.404   1.413
 3876W        W 7927   7.054   6.686  10.526
 3877W        W 7928   0.083   7.202   2.151
 3878W        W 7929   2.651   9.647   0.793
 3879W        W 7930   4.224   5.224   0.036
 3880W        W 7931  11.053   2.831  11.260
 3881W        W 7932   1.204   5.635  11.582
 3882W        W 7933   5.145   7.738  11.008
 3883W        W 7934   4.413   2.085   1.669
 3884W        W 7935   5.713   8.551   2.825
 3885W        W 7936   9.422   5.656  10.831
 3886W        W 7937   4.105   7.078   9.759
 3887W        W 7938  11.279   3.541   8.656
 3888W        W 7939   8.669   2.827  10.514
 3889W        W 7940   8.474   8.562   8.575
 3890W        W 7941   4.919   2.488   0.209
 3891W        W 7942   3.950   7.959   9.424
 3892W        W 7943   3.229   2.881   2.216
 3893W        W 7944  10.790  10.149  10.526
 3894W        W 7945   2.884  10.019   9.178
 3895W        W 7946   1.218   6.612   3.220
 3896W        W 7947   7.697   0.259   3.396
 3897W        W 7948   3.375   6.657  11.214
 3898W        W 7949  10.925   1.793   3.201
 3899W        W 7950   4.073   1.310   2.354
 3900W        W 7951   6.609   2.234   8.457
 3901W        W 7952   3.781   7.214   1.489
 3902W        W 7953   1.118   6.984   1.368
 3903W        W 7954   3.710  11.476  10.513
 3904W        W 7955   2.238   4.620  10.295
 3905W        W 7956   3.865   1.363   1.434
 3906W        W 7957   7.868   8.570   0.893
 3907W        W 7958   5.426   1.145   1.148
 3908W        W 7959   0.035   3.636   1.552
 3909W        W 7960   0.451   5.402   9.353
 3910W        W 7961   5.218  10.940  11.056
 3911W        W 7962   7.032   9.486  11.723
 3912W        W 7963   1.834   0.295   2.207
 3913W        W 7964  11.266   2.518   9.301
 3914W        W 7965   0.805   1.773   0.972
 3915W        W 7966   7.098   2.132  11.878
 3916W        W 7967   5.305   5.140   0.476
 3917W        W 7968   1.825   3.881  10.980
 3918W        W 7969   0.263   1.309   9.453
 3919W        W 7970   5.875   9.637   1.191
 3920W        W 7971   5.051   3.051   2.705
 3921W        W 7972   1.222   2.296  11.190
 3922W        W 7973   7.964   4.663   0.673
 3923W        W 7974   9.630   2.367  11.941
 3924W        W 7975  11.403   6.593   3.502
 3925W        W 7976   2.762   0.744   9.491
 3926W        W 7977  10.815   3.607   8.893
 3927W        W 7978   8.568   3.857   3.190
 3928W        W 7979   5.271   2.752   0.487
 3929W        W 7980   2.170   1.309  11.519
 3930W        W 7981   2.442   8.356   2.562
 3931W        W 7982   0.246   0.782  11.464
 3932W        W 7983  11.127   1.626  10.815
 3933W        W 7984   1.473   1.872  10.460
 3934W        W 7985   2.895   6.932   9.044
 3935W        W 7986   3.073   8.302   2.429
 3936W        W 7987  10.620   7.874   3.473
 3937W        W 7988   3.490  10.591   1.777
 3938W        W 7989   2.404   9.867   1.211
 3939W        W 7990   0.748   1.173  10.801
 3940W        W 7991  11.219  10.587  11.944
 3941W        W 7992  11.243   7.870  11.482
 3942W        W 7993   5.304  10.009   2.669
 3943W        W 7994   6.110   4.763   0.730
 3944W        W 7995  11.475   4.899   1.314
 3945W        W 7996   6.546   0.841   8.759
 3946W        W 7997   3.597   6.162   0.492
 3947W        W 7998   8.481   4.017   9.966
 3948W        W 7999   2.856   9.117   1.204
 3949W        W 8000   9.892   2.930   8.395
 3950W        W 8001   8.413   4.286  11.823
 3951W        W 8002   8.925   2.630   2.180
 3952W        W 8003   7.615   0.743  11.124
 3953W        W 8004   8.240   6.452  10.081
 3954W        W 8005   9.146   1.277   9.013
 3955W        W 8006   8.319   6.972  10.776
 3956W        W 8007   9.014   6.905   8.104
 3957W        W 8008   2.913   0.434   3.577
 3958W        W 8009   9.516   6.253   9.062
 3959W        W 8010  10.335   9.426   1.381
 3960W        W 8011   8.954   8.091   8.997
 3961W        W 8012   4.997   4.702   1.231
 3962W        W 8013   2.827   5.931  10.183
 3963W        W 8014   6.259   4.286   0.486
 3964W        W 8015   5.608   3.873   9.065
 3965W        W 8016   3.650   2.521   2.072
 3966W        W 8017   2.582   9.529   3.126
 3967W        W 8018   0.532   9.845  11.067
 3968W        W 8019   7.858   2.421  10.488
 3969W        W 8020   4.196   9.984   8.866
 3970W        W 8021   2.682   0.573  10.332
 3971W        W 8022   3.452  10.136  11.476
 3972W        W 8023   9.485   1.624   0.358
 3973W        W 8024   7.733   1.255   9.967
 3974W        W 8025   3.606  10.307  10.956
 3975W        W 8026   7.729  11.080  10.660
 3976W        W 8027   4.184   3.468   0.398
 3977W        W 8028   7.521  10.356   9.562
 3978W        W 8029   1.624  10.494  11.691
 3979W        W 8030   7.601   6.114   3.778
 3980W        W 8031   9.923   2.767   2.304
 3981W        W 8032   6.673   9.935   1.349
 3982W        W 8033   6.670   3.365   9.792
 3983W        W 8034  11.322   9.021   9.594
 3984W        W 8035   2.799  10.068   1.525
 3985W        W 8036   7.212   8.462   2.381
 3986W        W 8037   9.157   5.492  10.087
 3987W        W 8038  10.703   2.351   1.268
 3988W        W 8039   5.637   4.861  11.925
 3989W        W 8040   6.113   2.332   3.225
 3990W        W 8041   0.649   5.868   9.952
 3991W        W 8042   4.638   6.820   0.205
 3992W        W 8043   2.214   3.918   1.842
 3993W        W 8044   4.526  10.793   8.813
 3994W        W 8045   0.974   6.658  10.392
 3995W        W 8046   9.252   9.005  10.341
 3996W        W 8047   0.433   0.056   0.583
 3997W        W 8048   8.574   7.962   2.255
 3998W        W 8049   1.453   9.339  10.071
 3999W        W 8050   4.328  10.395   0.543
 4000W        W 8051   4.562   0.858   1.276
 4001W        W 8052   0.309   0.692   8.687
 4002W        W 8053   7.612   9.045   1.143
 4003W        W 8054   5.415   0.406   3.001
 4004W        W 8055   0.039   5.271   2.311
 4005W        W 8056   0.834   6.263  10.902
 4006W        W 8057   9.702   9.600   0.229
 4007W        W 8058   5.247  11.398  11.275
 4008W        W 8059   0.804   4.628   1.965
 4009W        W 8060   7.647   7.563  10.416
 4010W        W 8061   8.175   0.454   3.499
 4011W        W 8062   4.462   7.119   9.355
 4012W        W 8063   4.171  10.078   1.860
 4013W        W 8064   3.109   3.640  10.056
 4014W        W 8065   9.494   0.739   3.500
 4015W        W 8066   3.360  10.986  11.687
 4016W        W 8067   1.035   5.131   0.311
 4017W        W 8068   7.852   2.399  11.487
 4018W        W 8069  10.865   5.003   0.480
 4019W        W 8070   5.033   0.446   2.178
 4020W        W 8071   6.316  11.257   1.142
 4021W        W 8072   1.909  10.865   9.699
 4022W        W 8073   3.751   4.995   1.745
 4023W        W 8074   8.796  10.595   3.567
 4024W        W 8075   6.039  10.011   0.857
 4025W        W 8076   3.545  10.650  11.342
 4026W        W 8077   5.029   3.424  10.555
 4027W        W 8078  10.870   7.718   3.036
 4028W        W 8079   3.119   7.410   0.366
 4029W        W 8080   9.583   4.926   4.373
 4030W        W 8081   4.798   7.973  10.275
 4031W        W 8082   3.316   2.706   3.240
 4032W        W 8083   0.564   0.854   1.723
 4033W        W 8084   7.469   9.834   3.197
 4034W        W 8085   2.885   4.518  10.420
 4035W        W 8086   5.113   8.985   2.029
 4036W        W 8087   5.216   3.212   8.732
 4037W        W 8088  10.301   6.951   9.558
 4038W        W 8089   9.122   3.708   9.492
 4039W        W 8090   8.813   1.305   1.288
 4040W        W 8091   2.794   1.269   9.498
 4041W        W 8092   2.125   2.898   3.020
 4042W        W 8093   5.822  10.600  10.500
 4043W        W 8094   3.746   2.636   9.833
 4044W        W 8095  10.891   3.278   9.896
 4045W        W 8096  11.086   5.083   2.422
 4046W        W 8097   8.050   0.990   3.509
 4047W        W 8098  11.013   3.131  10.395
 4048W        W 8099  11.403   2.321   0.403
 4049W        W 8100   3.327   9.347  11.063
 4050W        W 8101   5.137   1.590   9.240
 4051W        W 8102   9.546   7.545  10.324
 4052W        W 8103   4.219   2.846  11.532
 4053W        W 8104   6.592   0.435   1.372
 4054W        W 8105   0.118   8.561   1.076
 4055W        W 8106   0.050   2.345  10.400
 4056W        W 8107   0.513   3.837   3.365
 4057W        W 8108   2.635   6.179   3.316
 4058W        W 8109   2.855   2.026   1.163
 4059W        W 8110   2.869   3.337   3.512
 4060W        W 8111   8.851   0.375   1.850
 4061W        W 8112   0.507   9.328   3.501
 4062W        W 8113   8.932   5.132   2.276
 4063W        W 8114   6.162   3.078   3.736
 4064W        W 8115  11.293   5.661   9.677
 4065W        W 8116   9.154   8.090  11.937
 4066W        W 8117   7.658  11.252  11.138
 4067W        W 8118   1.789   2.469  10.887
 4068W        W 8119   2.320   0.021   3.320
 4069W        W 8120   3.310   9.641  11.477
 4070W        W 8121   6.660   7.013   0.308
 4071W        W 8122   1.301   7.642   1.844
 4072W        W 8123   9.505   8.670   8.543
 4073W        W 8124  10.035   4.857   2.782
 4074W        W 8125  10.151  11.426   0.654
 4075W        W 8126   9.639   4.072   1.345
 4076W        W 8127   4.613   2.117   8.629
 4077W        W 8128   6.700   0.404   3.189
 4078W        W 8129   9.700   1.479   0.808
 4079W        W 8130   4.635  11.489   9.546
 4080W        W 8131   6.057   1.315   2.167
 4081W        W 8132   9.823   7.487  10.770
 4082W        W 8133   7.934   5.002  11.542
 4083W        W 8134   7.914   9.470   0.194
 4084W        W 8135   5.636   5.695   1.901
 4085W        W 8136   8.231   2.276   0.898
 4086W        W 8137   2.901   9.801   3.418
 4087W        W 8138   6.742   8.971   0.813
 4088W        W 8139   6.425   9.880   3.161
 4089W        W 8140   5.440   5.898   1.470
 4090W        W 8141   8.495   8.218   0.207
 4091W        W 8142   6.393   2.264   1.872
 4092W        W 8143   0.756   3.282   0.403
 4093W        W 8144   9.572   8.939   8.978
 4094W        W 8145   8.320   3.035   9.940
 4095W        W 8146  11.069   2.890   9.599
 4096W        W 8147   4.679   2.971  11.360
 4097W        W 8148   6.587  11.337  11.843
 4098W        W 8149   9.859   2.448   8.574
 4099W        W 8150  10.421   0.364  11.688
 4100W        W 8151   0.768   4.331   9.989
 4101W        W 8152  11.272   4.846   0.809
 4102W        W 8153   8.439   2.063   2.777
 4103W        W 8154   5.512   9.749   3.248
 4104W        W 8155  10.531  10.884   1.361
 4105W        W 8156   9.001   8.663  10.742
 4106W        W 8157  11.371   8.742  11.379
 4107W        W 8158   7.066  10.086   9.574
 4108W        W 8159   0.167   0.762   3.395
 4109W        W 8160   4.905   1.854   8.274
 4110W        W 8161   7.862   1.150   2.226
 4111W        W 8162   8.034  11.292  11.899
 4112W        W 8163   6.443   6.405   9.037
 4113W        W 8164  10.600   9.543   3.219
 4114W        W 8165  11.020   4.703   2.800
 4115W        W 8166  11.501   9.816   2.242
 4116W        W 8167   8.980   2.183   9.557
 4117W        W 8168   4.582  10.993   0.404
 4118W        W 8169   7.106   2.306   2.488
 4119W        W 8170   5.745   1.271  11.360
 4120W        W 8171  10.471   0.765   3.644
 4121W        W 8172   0.013   6.175   3.166
 4122W        W 8173   5.240   5.496   1.273
 4123W        W 8174   2.663   6.965   1.830
 4124W        W 8175   5.086   7.613  10.022
 4125W        W 8176  10.868   5.465   8.605
 4126W        W 8177   0.821   5.628  10.444
 4127W        W 8178   5.572   9.563   2.765
 4128W        W 8179   3.103   8.466  10.909
 4129W        W 8180   5.560  10.210   0.903
 4130W        W 8181   1.388   1.902   1.203
 4131W        W 8182   4.150   7.566   1.314
 4132W        W 8183   3.818   0.007   1.283
 4133W        W 8184   6.143   0.844   3.007
 4134W        W 8185  11.150  10.524   1.608
 4135W        W 8186   0.889   0.546   3.695
 4136W        W 8187  10.005   3.290   0.347
 4137W        W 8188   4.275   9.078  11.216
 4138W        W 8189  11.128   3.918   0.126
 4139W        W 8190   3.801   3.128   0.303
 4140W        W 8191   0.134   3.140   1.798
 4141W        W 8192   6.489   7.355   2.407
 4142W        W 8193   4.784   6.950   3.346
 4143W        W 8194   4.530  10.303  10.334
 4144W        W 8195   9.545   2.463  10.178
 4145W        W 8196   0.779   8.732   3.239
 4146W        W 8197   9.464   6.227   1.474
 4147W        W 8198   6.995   1.791   9.284
 4148W        W 8199  11.245   3.046  11.676
 4149W        W 8200   8.116   8.118   0.805
 4150W        W 8201   6.626   1.583   2.872
 4151W        W 8202   9.034   2.246   9.050
 4152W        W 8203   8.756   4.603  11.318
 4153W        W 8204   2.297   1.796  10.054
 4154W        W 8205   1.929   5.331   9.908
 4155W        W 8206   1.068   2.317   0.230
 4156W        W 8207  11.208   6.909   9.854
 4157W        W 8208   2.109  10.921  11.307
 4158W        W 8209   7.930   4.046   1.681
 4159W        W 8210   0.930   8.443   2.799
 4160W        W 8211   8.583   1.853  11.486
 4161W        W 8212   6.947   4.681  10.238
 4162W        W 8213   7.019   1.290   9.421
 4163W        W 8214  11.244   1.338   1.903
 4164W        W 8215   4.360   5.612   1.873
 4165W        W 8216   9.109   8.513   1.791
 4166W        W 8217   5.112   9.539   2.959
 4167W        W 8218   6.016   2.891   3.270
 4168W        W 8219   2.198   7.482   0.505
 4169W        W 8220   8.278   2.699   2.708
 4170W        W 8221   9.057  11.234   2.703
 4171W        W 8222   2.545   9.002   8.547
 4172W        W 8223   4.923   2.929  10.523
 4173W        W 8224   8.867   9.514   9.783
 4174W        W 8225   5.234   7.500   9.565
 4175W        W 8226   9.227   6.087  11.766
 4176W        W 8227   8.007   8.715   9.998
 4177W        W 8228   5.520   8.082   0.253
 4178W        W 8229   9.537   1.528   9.810
 4179W        W 8230   6.099   3.811   1.005
 4180W        W 8231   1.149   7.440   3.165
 4181W        W 8232   3.753   9.008   3.234
 4182W        W 8233   4.851   1.003   0.386
 4183W        W 8234   2.471   7.994   9.378
 4184W        W 8235   2.186   8.431   1.151
 4185W        W 8236   2.046   4.255   9.380
 4186W        W 8237   4.679   5.270   0.255
 4187W        W 8238   1.475   8.627   2.815
 4188W        W 8239   4.383   9.457   2.642
 4189W        W 8240  11.307   7.783  10.984
 4190W        W 8241   6.108   5.904   1.820
 4191W        W 8242   0.353   8.046  11.768
 4192W        W 8243  10.877   8.129  11.717
 4193W        W 8244  10.844   1.501  10.108
 4194W        W 8245   8.414   9.407   9.560
 4195W        W 8246  11.434   4.386   0.649
 4196W        W 8247   5.924   4.629   9.208
 4197W        W 8248  10.478   5.077   1.793
 4198W        W 8249   5.206   3.958   0.933
 4199W        W 8250   4.678   6.952  10.889
 4200W        W 8251   1.159  10.644   3.573
 4201W        W 8252   5.411  10.352  10.276
 4202W        W 8253   7.681   2.730   9.516
 4203W        W 8254   6.650   0.923   0.467
 4204W        W 8255   8.125   8.684   1.977
 4205W        W 8256   0.797   1.064  11.306
 4206W        W 8257   1.570   0.863   0.580
 4207W        W 8258   8.540   5.585  11.405
 4208W        W 8259   4.551   7.541  10.559
 4209W        W 8260   1.473   3.050   9.041
 4210W        W 8261   2.557   8.618  11.003
 4211W        W 8262   6.345   2.342   0.359
 4212W        W 8263   9.284   4.195   9.362
 4213W        W 8264  11.234   5.362   1.442
 4214W        W 8265   4.359   6.662   9.982
 4215W        W 8266   9.641   1.022   1.698
 4216W        W 8267   9.133   8.068   0.806
 4217W        W 8268  10.457  10.325  11.025
 4218W        W 8269   9.827   9.568  11.641
 4219W        W 8270  10.495   8.497   9.101
 4220W        W 8271   3.021  10.958   1.321
 4221W        W 8272   0.754   3.826   9.943
 4222W        W 8273  10.199   7.641   1.117
 4223W        W 8274   9.105   1.726   8.754
 4224W        W 8275   9.491   8.432   2.151
 4225W        W 8276   7.409   7.576  10.870
 4226W        W 8277   0.873   9.579   2.160
 4227W        W 8278   1.957   9.584   1.206
 4228W        W 8279   4.183   6.242   9.751
 4229W        W 8280   0.527   2.606   1.512
 4230W        W 8281   5.907   5.726   2.316
 4231W        W 8282   5.056   0.482   8.948
 4232W        W 8283   7.729  10.568   0.251
 4233W        W 8284   7.674   9.019   2.576
 4234W        W 8285   7.429   2.777   0.895
 4235W        W 8286   8.231   1.326  11.756
 4236W        W 8287   2.338   8.489   9.309
 4237W        W 8288   7.981  11.327   2.507
 4238W        W 8289   4.233   6.969   1.223
 4239W        W 8290   8.536   0.181   1.484
 4240W        W 8291   9.286   4.495  11.419
 4241W        W 8292  11.332   1.220  11.020
 4242W        W 8293   3.674   1.322   9.637
 4243W        W 8294   9.097   5.809   8.624
 4244W        W 8295   9.990  10.557  11.307
 4245W        W 8296   2.283   7.250  11.549
 4246W        W 8297   4.845   2.130   1.918
 4247W        W 8298   5.238   1.202  10.064
 4248W        W 8299  11.439  10.461   3.289
 4249W        W 8300   1.766   8.408   1.826
 4250W        W 8301   6.041   3.720   3.847
 4251W        W 8302   4.133   4.754   8.657
 4252W        W 8303   8.126   9.427   1.817
 4253W        W 8304   5.851   8.971   0.018
 4254W        W 8305  11.168   4.288  10.349
 4255W        W 8306   4.048   1.480   0.949
 4256W        W 8307  11.383   7.652   1.184
 4257W        W 8308   5.251   8.450  11.535
 4258W        W 8309   4.723   4.311  11.832
 4259W        W 8310   9.997   1.669   0.353
 4260W        W 8311   8.396  10.342   1.392
 4261W        W 8312  10.530  10.827   8.918
 4262W        W 8313   0.476   9.584   2.999
 4263W        W 8314   7.397   4.108   9.142
 4264W        W 8315   1.725   5.990   3.254
 4265W        W 8316   4.303   0.253   0.422
 4266W        W 8317   6.174   7.495  11.276
 4267W        W 8318   7.168   9.137  10.052
 4268W        W 8319   2.909   0.953   2.103
 4269W        W 8320   9.385   8.918   3.557
 4270W        W 8321   2.249   2.799   2.540
 4271W        W 8322  11.225   0.035   0.883
 4272W        W 8323   6.602   3.648   1.910
 4273W        W 8324   6.158   2.500   0.840
 4274W        W 8325   2.010  10.732   0.846
 4275W        W 8326   7.972   4.041  11.907
 4276W        W 8327   7.430  10.917   9.880
 4277W        W 8328  10.948   1.240   9.117
 4278W        W 8329  10.724   6.545   1.784
 4279W        W 8330  10.358   6.036   9.507
 4280W        W 8331   8.342   2.322  11.433
 4281W        W 8332   8.429   1.545   2.690
 4282W        W 8333   3.114   2.129   2.586
 4283W        W 8334   7.577   2.549   3.177
 4284W        W 8335   7.895  10.413   8.532
 4285W        W 8336   4.951   8.987   9.482
 4286W        W 8337   5.052   8.823  11.860
 4287W        W 8338   2.748   2.213   2.976
 4288W        W 8339   6.513   5.902  11.896
 4289W        W 8340   7.562   6.889   0.806
 4290W        W 8341   5.336   0.349  11.512
 4291W        W 8342   9.163   2.799   2.834
 4292W        W 8343   1.725  11.255   2.969
 4293W        W 8344   4.232   9.545  11.989
 4294W        W 8345   9.007   4.098  11.176
 4295W        W 8346   1.802   9.171   2.323
 4296W        W 8347   6.880   9.416   2.436
 4297W        W 8348   8.374   1.589   1.368
 4298W        W 8349   7.023   6.941  11.015
 4299W        W 8350   9.072   3.096   3.225
 4300W        W 8351   3.551   9.334   0.887
 4301W        W 8352   8.390   1.112   2.148
 4302W        W 8353   6.963   4.663   1.235
 4303W        W 8354   1.809   8.880   0.892
 4304W        W 8355   3.618   1.743   1.734
 4305W        W 8356   5.620   1.756  11.463
 4306W        W 8357   4.226   3.183   9.583
 4307W        W 8358   8.531   2.855   8.641
 4308W        W 8359  10.679   2.291  10.533
 4309W        W 8360   6.282  10.814   8.440
 4310W        W 8361   9.359  10.818   9.848
 4311W        W 8362   1.727  10.889   0.014
 4312W        W 8363   2.745   5.643  11.256
 4313W        W 8364   0.128   2.425   9.639
 4314W        W 8365   4.427   8.644  10.934
 4315W        W 8366   9.093   2.404   1.683
 4316W        W 8367   0.576   2.926   1.900
 4317W        W 8368   2.394   2.541   9.619
 4318W        W 8369   2.829   0.048   3.226
 4319W        W 8370   3.629   0.757   0.854
 4320W        W 8371   1.879  10.005  11.772
 4321W        W 8372   1.829  10.614   8.779
 4322W        W 8373   0.987   0.672   9.872
 4323W        W 8374   8.564   5.348   0.804
 4324W        W 8375   6.774   7.493   8.656
 4325W        W 8376  10.416   5.527  11.891
 4326W        W 8377   5.120   7.371   2.284
 4327W        W 8378   1.223   2.641   9.882
 4328W        W 8379  10.048   6.784   4.389
 4329W        W 8380  10.740   5.129   9.028
 4330W        W 8381   4.155   6.441   4.227
 4331W        W 8382   0.617  11.017   8.591
 4332W        W 8383   5.594   8.005  10.713
 4333W        W 8384   8.692   7.125   2.126
 4334W        W 8385  10.960   0.828  10.929
 4335W        W 8386   6.818   6.134   0.239
 4336W        W 8387  10.347  11.479  11.377
 4337W        W 8388   8.481   1.642  10.021
 4338W        W 8389   3.270   3.042   2.690
 4339W        W 8390   3.550   9.050   0.052
 4340W        W 8391   8.596   9.634  10.619
 4341W        W 8392   9.987  11.315  10.513
 4342W        W 8393  10.885   5.065   9.824
 4343W        W 8394   7.140  11.401   9.940
 4344W        W 8395  10.493   6.556   0.864
 4345W        W 8396   5.492  10.939   2.143
 4346W        W 8397   9.898   9.196   0.004
 4347W        W 8398  10.194   8.000  10.942
 4348W        W 8399   0.906  10.616   9.029
 4349W        W 8400  11.398   2.262   2.352
 4350W        W 8401   5.184   1.758   1.755
 4351W        W 8402   0.390   8.503  11.026
 4352W        W 8403   0.492   8.124   2.692
 4353W        W 8404   8.471   7.204   8.899
 4354W        W 8405   8.406   5.161   1.336
 4355W        W 8406   0.320   7.468   0.491
 4356W        W 8407  10.033   7.026   3.572
 4357W        W 8408   3.077   2.586   2.792
 4358W        W 8409   5.622   7.172   0.218
 4359W        W 8410   2.317  10.901   2.821
 4360W        W 8411  11.320   9.084   2.936
 4361W        W 8412   9.339   9.360   1.292
 4362W        W 8413  11.484   4.132  10.731
 4363W        W 8414   0.983   7.990   1.497
 4364W        W 8415   1.561   9.698   3.291
 4365W        W 8416   6.561   3.420  11.832
 4366W        W 8417   4.261   0.364   9.352
 4367W        W 8418   4.142   0.019   1.708
 4368W        W 8419   8.375   4.205  10.424
 4369W        W 8420   7.597   8.569   2.809
 4370W        W 8421  10.361   1.013  10.308
 4371W        W 8422   7.584   6.687   2.934
 4372W        W 8423   6.033   4.574  10.793
 4373W        W 8424  11.439   2.177   2.862
 4374W        W 8425   9.282   6.464   0.553
 4375W        W 8426   9.886   7.911  10.488
 4376W        W 8427  10.613   1.753  11.431
 4377W        W 8428   6.262   6.583  11.683
 4378W        W 8429   6.197   1.398  10.436
 4379W        W 8430   4.535  10.916  11.583
 4380W        W 8431   9.879   8.127   1.971
 4381W        W 8432   6.129   9.190   1.208
 4382W        W 8433   5.537   7.047  10.860
 4383W        W 8434   0.537   7.377  11.429
 4384W        W 8435   0.628   4.240   2.682
 4385W        W 8436   2.039   5.675   8.659
 4386W        W 8437   3.553   1.779   9.866
 4387W        W 8438   5.444   5.650  10.500
 4388W        W 8439   6.399   9.540   1.511
 4389W        W 8440   0.862   4.613   0.974
 4390W        W 8441  10.440   7.406   3.622
 4391W        W 8442   6.275   4.141   2.739
 4392W        W 8443   2.442   2.642  11.037
 4393W        W 8444   1.698   7.403   0.735
 4394W        W 8445   1.681   3.280   0.998
 4395W        W 8446   0.045  10.950   8.930
 4396W        W 8447   7.395  10.040   0.912
 4397W        W 8448   9.327   1.038   2.120
 4398W        W 8449   1.251   4.269   0.501
 4399W        W 8450   5.606   4.356  11.803
 4400W        W 8451   8.463   2.338   9.578
 4401W        W 8452   1.827   1.025   1.577
 4402W        W 8453   8.703   2.138   0.769
 4403W        W 8454   4.511   2.200  10.922
 4404W        W 8455   1.503  11.265   9.042
 4405W        W 8456   9.908   9.170   2.837
 4406W        W 8457   8.455   4.857   0.908
 4407W        W 8458   0.444   0.263  11.756
 4408W        W 8459   5.164   7.734   1.358
 4409W        W 8460  10.458   1.726   2.879
 4410W        W 8461   7.908   6.510   0.780
 4411W        W 8462   5.987   5.246  10.058
 4412W        W 8463   4.664   5.299  11.737
 4413W        W 8464   8.681   2.111   9.981
 4414W        W 8465   1.704  11.317   9.871
 4415W        W 8466  11.496  10.343   9.569
 4416W        W 8467   2.842  11.148  10.310
 4417W        W 8468   4.480   0.278   2.014
 4418W        W 8469   5.710   9.401  10.317
 4419W        W 8470   5.629   0.270   1.374
 4420W        W 8471   7.864   0.992   0.942
 4421W        W 8472   7.738   9.924   8.790
 4422W        W 8473   1.817  10.952   1.602
 4423W        W 8474   1.271   7.990   9.874
 4424W        W 8475   4.467   9.331   3.554
 4425W        W 8476   6.037   6.639   0.826
 4426W        W 8477   8.186   7.057   2.111
 4427W        W 8478   0.321   4.838   2.152
 4428W        W 8479   4.643   9.792  10.256
 4429W        W 8480   0.429   0.264  10.093
 4430W        W 8481  11.227   0.846  11.378
 4431W        W 8482   7.605   9.880   2.361
 4432W        W 8483   5.161   9.957   8.433
 4433W        W 8484   4.057   9.259   8.986
 4434W        W 8485   5.068   2.979   0.064
 4435W        W 8486   3.497   5.989   3.052
 4436W        W 8487  10.367  10.081   0.762
 4437W        W 8488   3.121   5.270  11.346
 4438W        W 8489   0.443  10.849   9.894
 4439W        W 8490   2.296   5.522  11.066
 4440W        W 8491   6.646   0.546  10.698
 4441W        W 8492   1.194   0.514   0.449
 4442W        W 8493   3.331   7.958   1.831
 4443W        W 8494   0.972   2.912   2.206
 4444W        W 8495   2.726   5.572   9.784
 4445W        W 8496   3.503   0.583   1.852
 4446W        W 8497  10.452   1.792   3.468
 4447W        W 8498   7.645   0.397   0.942
 4448W        W 8499  10.764   2.973  10.854
 4449W        W 8500   8.297   1.451   8.973
 4450W        W 8501   7.954   8.698   9.487
 4451W        W 8502   3.369   9.985   9.359
 4452W        W 8503  10.901  10.920  10.526
 4453W        W 8504   0.221   1.949   1.913
 4454W        W 8505   0.524   9.347  10.869
 4455W        W 8506  10.570   2.586   8.698
 4456W        W 8507   6.957  10.407   2.881
 4457W        W 8508   4.578   4.797   0.987
 4458W        W 8509   8.514   3.966  10.853
 4459W        W 8510   8.344   2.157   0.383
 4460W        W 8511   0.823   7.324   2.673
 4461W        W 8512   8.192   3.767   8.637
 4462W        W 8513   3.515   7.594   0.633
 4463W        W 8514   1.626   1.055   9.129
 4464W        W 8515   6.168  10.318   8.581
 4465W        W 8516  11.292   3.796   2.418
 4466W        W 8517  10.417   0.002  10.243
 4467W        W 8518   8.465   8.097   1.167
 4468W        W 8519   0.049   9.496  11.782
 4469W        W 8520   5.265  10.363   1.381
 4470W        W 8521   5.594  10.450  11.727
 4471W        W 8522   2.880   9.576   0.336
 4472W        W 8523   8.150   2.767   0.314
 4473W        W 8524   1.417   4.657   2.881
 4474W        W 8525   2.846   6.405   9.933
 4475W        W 8526  10.822  10.885  11.847
 4476W        W 8527   8.411   9.458   8.505
 4477W        W 8528   9.445   5.341  11.253
 4478W        W 8529   8.967   5.213   3.288
 4479W        W 8530   3.411   2.208   1.713
 4480W        W 8531  10.489  10.901   2.740
 4481W        W 8532  10.402  11.279   9.761
 4482W        W 8533   1.299   4.739  10.327
 4483W        W 8534   2.657   0.047  11.280
 4484W        W 8535   8.146   2.736  11.779
 4485W        W 8536   1.341   6.997  11.056
 4486W        W 8537   1.488   6.292  11.685
 4487W        W 8538   2.173   5.782  11.877
 4488W        W 8539  11.343   9.012  11.800
 4489W        W 8540  10.041   2.963   2.799
 4490W        W 8541   4.499   2.984   3.099
 4491W        W 8542   9.969   3.183   9.243
 4492W        W 8543  10.893   3.139   1.475
 4493W        W 8544   9.208   3.628  11.248
 4494W        W 8545   3.497   2.303  11.072
 4495W        W 8546   7.980   0.298   9.909
 4496W        W 8547   2.109   0.863   9.111
 4497W        W 8548   1.918   3.132   9.629
 4498W        W 8549  10.265  11.273   1.150
 4499W        W 8550   6.666  11.343   1.976
 4500W        W 8551   4.069   2.995   9.123
 4501W        W 8552   3.966   0.984  10.833
 4502W        W 8553   1.691   2.216  11.377
 4503W        W 8554   3.189   0.710  11.834
 4504W        W 8555   3.351   6.548   9.822
 4505W        W 8556   8.731   9.050  10.261
 4506W        W 8557   5.680   4.045   8.175
 4507W        W 8558   5.869  10.998   0.452
 4508W        W 8559   0.150   0.353   2.496
 4509W        W 8560   5.575   9.730   0.714
 4510W        W 8561   1.197   3.742   3.384
 4511W        W 8562   9.021  10.573   0.240
 4512W        W 8563   2.878   1.347   8.983
 4513W        W 8564   9.521   0.981  10.343
 4514W        W 8565   6.986   1.813   1.162
 4515W        W 8566   1.211   0.217   9.110
 4516W        W 8567   8.946   7.183   1.662
 4517W        W 8568  11.223   9.358  10.386
 4518W        W 8569   9.141   9.551   3.257
 4519W        W 8570   3.905   6.935   2.430
 4520W        W 8571   3.755   7.096  10.118
 4521W        W 8572   4.638   6.391   4.001
 4522W        W 8573   4.723   7.508   9.556
 4523W        W 8574   7.035   8.744  11.579
 4524W        W 8575   1.294  10.490  10.868
 4525W        W 8576   5.689   8.447   8.582
 4526W        W 8577   9.385   1.094   0.238
 4527W        W 8578   1.990   6.985   0.831
 4528W        W 8579   1.137   7.126   9.541
 4529W        W 8580   5.823   5.285  10.556
 4530W        W 8581   6.863   8.553   1.056
 4531W        W 8582   4.054   7.548  10.523
 4532W        W 8583   6.038   2.802   1.323
 4533W        W 8584  11.461   5.140  11.602
 4534W        W 8585   6.688   9.545   1.949
 4535W        W 8586   6.861   8.155  11.790
 4536W        W 8587   4.287   6.984   2.104
 4537W        W 8588   6.086   7.390   1.773
 4538W        W 8589   6.203   0.475  10.325
 4539W        W 8590   9.637   7.984   0.783
 4540W        W 8591   9.920   3.824  10.793
 4541W        W 8592  11.211   1.329   0.056
 4542W        W 8593   5.980   2.682   9.080
 4543W        W 8594  11.368   2.491  11.542
 4544W        W 8595   3.109   6.637   2.044
 4545W        W 8596   6.251   9.058   9.095
 4546W        W 8597   6.832   0.258   0.001
 4547W        W 8598   2.297   0.949  10.403
 4548W        W 8599   7.129   0.271  10.481
 4549W        W 8600   8.087   8.427  10.445
 4550W        W 8601   7.953   3.335  10.139
 4551W        W 8602   9.632  10.446   3.332
 4552W        W 8603   2.597   8.092   8.886
 4553W        W 8604   7.906   3.207   9.638
 4554W        W 8605   9.840   6.132   1.138
 4555W        W 8606   2.469   6.542   9.625
 4556W        W 8607   4.600   9.499  11.219
 4557W        W 8608   5.969   4.395   8.455
 4558W        W 8609   7.755   7.932   9.645
 4559W        W 8610   1.214  11.441   0.954
 4560W        W 8611   6.609  10.810   9.795
 4561W        W 8612   4.667   6.305   8.783
 4562W        W 8613   8.551   9.439   2.888
 4563W        W 8614   5.024  11.046  11.557
 4564W        W 8615   4.598  11.231   0.855
 4565W        W 8616   0.038   9.953   3.143
 4566W        W 8617   4.548   3.359   2.747
 4567W        W 8618   3.328   7.148   0.756
 4568W        W 8619   3.001   9.800   2.897
 4569W        W 8620  10.736  10.327   1.849
 4570W        W 8621   7.511   7.195   2.942
 4571W        W 8622  10.459   6.517   9.345
 4572W        W 8623  11.472   6.805  10.975
 4573W        W 8624   1.301   8.784  10.550
 4574W        W 8625   3.417   9.299   8.763
 4575W        W 8626   8.834   3.050  10.030
 4576W        W 8627   9.567   5.759   9.892
 4577W        W 8628   9.459   6.084   3.440
 4578W        W 8629   2.677   2.307  11.358
 4579W        W 8630   1.474   2.655  11.495
 4580W        W 8631   9.886   8.381  10.311
 4581W        W 8632   9.693   4.765   9.722
 4582W        W 8633   8.107   2.259  11.936
 4583W        W 8634   9.832   4.120  10.038
 4584W        W 8635   2.362  10.149  11.901
 4585W        W 8636   1.332   5.547  10.522
 4586W        W 8637   7.463   1.194  10.949
 4587W        W 8638  10.053   2.697   3.275
 4588W        W 8639   2.150   6.773  11.788
 4589W        W 8640   1.705   3.933   3.318
 4590W        W 8641   5.958   9.132   2.102
 4591W        W 8642  10.477   2.722   2.943
 4592W        W 8643  10.872   8.663   0.378
 4593W        W 8644   6.459  10.684   3.325
 4594W        W 8645   9.386   0.830   1.306
 4595W        W 8646   9.294   3.961   3.582
 4596W        W 8647   4.554  10.806  10.185
 4597W        W 8648   6.419  10.753   0.900
 4598W        W 8649   9.552  11.147   8.455
 4599W        W 8650  10.892   4.032   3.288
 4600W        W 8651   0.746   8.611   8.950
 4601W        W 8652   0.396   5.671   2.362
 4602W        W 8653   4.634   3.196  10.862
 4603W        W 8654  10.280  10.110  10.572
 4604W        W 8655  11.377   4.409   1.158
 4605W        W 8656   8.003   9.932   1.874
 4606W        W 8657   9.917   4.377   2.904
 4607W        W 8658   2.218   4.854   1.694
 4608W        W 8659   6.519   0.699   9.983
 4609W        W 8660   8.627   6.645   9.222
 4610W        W 8661   5.912   3.390  10.299
 4611W        W 8662   7.188   6.163   1.208
 4612W        W 8663   4.242   6.675   9.476
 4613W        W 8664   8.627   2.083   3.605
 4614W        W 8665   7.450   4.268  11.495
 4615W        W 8666   4.244   0.567  10.885
 4616W        W 8667   9.284   3.376   0.008
 4617W        W 8668   0.307   2.679  10.086
 4618W        W 8669   3.781   2.207   9.561
 4619W        W 8670   7.424  11.280   9.479
 4620W        W 8671   0.157   2.251  11.932
 4621W        W 8672   8.028  11.284   1.998
 4622W        W 8673   1.446   8.437   9.691
 4623W        W 8674   2.341   7.673   9.742
 4624W        W 8675   4.981   2.815   2.257
 4625W        W 8676   5.578   7.086   1.200
 4626W        W 8677   5.699   4.243   2.712
 4627W        W 8678   8.848   9.468   1.153
 4628W        W 8679   8.320   0.212   2.494
 4629W        W 8680   2.792   4.732  10.903
 4630W        W 8681   5.189   9.275  11.533
 4631W        W 8682   6.039   0.370   2.808
 4632W        W 8683   4.199   7.525   9.532
 4633W        W 8684   2.354   3.463   9.482
 4634W        W 8685  11.283  11.245   1.315
 4635W        W 8686   8.402  10.818   3.314
 4636W        W 8687   1.232   2.637   8.907
 4637W        W 8688   2.677   8.622   2.216
 4638W        W 8689  10.104   9.786   0.453
 4639W        W 8690   1.857   2.022  11.922
 4640W        W 8691   5.775   1.231   8.956
 4641W        W 8692   1.841   3.725  10.502
 4642W        W 8693   4.596   3.187   9.958
 4643W        W 8694   5.673   3.658  11.014
 4644W        W 8695   6.436   8.265  10.854
 4645W        W 8696   9.410  10.875   3.110
 4646W        W 8697   1.184   3.168   8.648
 4647W        W 8698   7.711   8.574   2.291
 4648W        W 8699  10.977   8.627   9.345
 4649W        W 8700   3.120   0.808   0.757
 4650W        W 8701   4.728   9.059  10.963
 4651W        W 8702   3.152   0.863   9.094
 4652W        W 8703   6.320   8.866  11.914
 4653W        W 8704   5.140  10.567   3.320
 4654W        W 8705  11.314   2.608  10.022
 4655W        W 8706   8.064   0.987   9.081
 4656W        W 8707   6.747   7.709  11.569
 4657W        W 8708   2.159   9.813   0.750
 4658W        W 8709   0.364  10.950   2.633
 4659W        W 8710  11.052   2.615  10.475
 4660W        W 8711   7.540   5.972   0.853
 4661W        W 8712   3.177   4.352   1.208
 4662W        W 8713   2.336   4.119  11.610
 4663W        W 8714  10.033  10.250   2.319
 4664W        W 8715   7.106  10.376   2.395
 4665W        W 8716   8.215   8.504   3.394
 4666W        W 8717   1.298   9.292   8.944
 4667W        W 8718  10.932   0.877  11.848
 4668W        W 8719   6.491   0.090   2.862
 4669W        W 8720  10.364   9.002   0.074
 4670W        W 8721   2.687   1.172   0.309
 4671W        W 8722   7.837   7.712   0.868
 4672W        W 8723   7.515   4.629  10.035
 4673W        W 8724   5.673   3.592   0.261
 4674W        W 8725  10.486   3.645   1.314
 4675W        W 8726   8.261   2.452   1.954
 4676W        W 8727  11.481   9.036   9.118
 4677W        W 8728   3.241   3.356   9.443
 4678W        W 8729   1.675  10.688   0.458
 4679W        W 8730   2.284   4.369   1.460
 4680W        W 8731   0.551   7.071   0.231
 4681W        W 8732  11.018   7.186   9.014
 4682W        W 8733  10.116   9.094   0.936
 4683W        W 8734   1.476   3.213   3.602
 4684W        W 8735   4.811   0.468  11.508
 4685W        W 8736   0.837  10.909   0.213
 4686W        W 8737   9.528   2.387   0.984
 4687W        W 8738   2.873  10.938   8.481
 4688W        W 8739   4.981   9.422   3.457
 4689W        W 8740   8.073   8.462   0.394
 4690W        W 8741   0.557   2.310   0.262
 4691W        W 8742   0.826   7.410   3.567
 4692W        W 8743   8.063   2.022   8.531
 4693W        W 8744   8.555   8.471   2.512
 4694W        W 8745   6.146   6.207  10.273
 4695W        W 8746   0.297   5.270  10.267
 4696W        W 8747   9.819   9.443  11.135
 4697W        W 8748  10.276   0.740   2.754
 4698W        W 8749   2.883   5.048   2.179
 4699W        W 8750   4.974  11.066  10.327
 4700W        W 8751   4.055  10.544  10.257
 4701W        W 8752   9.602  10.987  10.339
 4702W        W 8753   2.942   4.975   1.687
 4703W        W 8754  10.124   3.766  11.250
 4704W        W 8755   5.109  10.940   1.509
 4705W        W 8756   7.516   0.581  10.655
 4706W        W 8757   6.737   6.289  10.513
 4707W        W 8758   6.240   7.095   0.875
 4708W        W 8759   0.126   4.137   2.620
 4709W        W 8760   7.033   1.445   2.132
 4710W        W 8761   2.955   6.887   0.993
 4711W        W 8762  10.592   0.785   1.857
 4712W        W 8763   9.611   1.673  11.502
 4713W        W 8764   2.446   7.033   0.560
 4714W        W 8765   3.170   9.601  10.081
 4715W        W 8766  10.462   8.991   9.245
 4716W        W 8767   5.127  10.553  11.575
 4717W        W 8768   4.777   5.237   1.272
 4718W        W 8769   8.100   0.652   2.246
 4719W        W 8770   0.586   8.687   0.918
 4720W        W 8771   3.501   4.625   3.558
 4721W        W 8772   6.110   5.194   1.043
 4722W        W 8773   2.020   9.080   1.334
 4723W        W 8774   4.834   0.988   9.312
 4724W        W 8775   0.899   2.414   0.704
 4725W        W 8776   8.620   4.630   9.518
 4726W        W 8777   7.259   9.970  11.081
 4727W        W 8778   4.269   7.134  10.279
 4728W        W 8779   7.388   0.842  10.225
 4729W        W 8780   2.578   4.254  10.727
 4730W        W 8781   0.448  10.813   1.662
 4731W        W 8782   9.746   6.621  10.854
 4732W        W 8783   5.881   6.887   3.547
 4733W        W 8784   5.623   4.539   3.480
 4734W        W 8785  10.789   9.577  11.305
 4735W        W 8786   1.560   6.912   0.525
 4736W        W 8787  10.330   3.682   2.479
 4737W        W 8788   8.878  10.892   3.099
 4738W        W 8789   6.326   0.707   9.525
 4739W        W 8790   9.875   0.437  11.807
 4740W        W 8791   6.033   2.670   9.945
 4741W        W 8792   3.151   1.020   3.026
 4742W        W 8793   1.614   0.686   9.975
 4743W        W 8794   4.730   5.244   1.786
 4744W        W 8795   1.817   0.465  11.749
 4745W        W 8796   1.693   3.367  11.946
 4746W        W 8797  11.416   6.161  10.939
 4747W        W 8798   0.706   9.596   1.052
 4748W        W 8799   6.107   7.896   1.771
 4749W        W 8800   1.273   8.297  10.692
 4750W        W 8801   2.716   0.370  11.733
 4751W        W 8802   5.553   6.694   0.890
 4752W        W 8803   0.249   6.169   0.996
 4753W        W 8804   1.703   9.556   9.105
 4754W        W 8805   7.760   6.573  11.879
 4755W        W 8806   9.960   8.002   9.159
 4756W        W 8807   1.908   7.182   8.961
 4757W        W 8808   7.362  11.277  10.376
 4758W        W 8809   4.848  10.843  11.998
 4759W        W 8810   1.373  10.675   2.772
 4760W        W 8811   8.487   9.896   3.132
 4761W        W 8812   8.140  11.448   3.461
 4762W        W 8813   8.040   0.221   1.321
 4763W        W 8814   4.702   2.216  10.060
 4764W        W 8815   2.245   5.696   2.226
 4765W        W 8816   4.334   1.894  10.165
 4766W        W 8817   9.497  10.101   9.444
 4767W        W 8818   1.404   1.472   0.424
 4768W        W 8819  10.465   5.568   8.942
 4769W        W 8820   5.715  11.378   2.300
 4770W        W 8821  10.294   5.236   1.305
 4771W        W 8822   3.679   8.245   2.709
 4772W        W 8823   2.641   9.082   2.441
 4773W        W 8824   5.013   6.201   1.406
 4774W        W 8825  11.457   4.751  10.048
 4775W        W 8826   2.505   7.176   3.643
 4776W        W 8827   0.711   7.566  10.220
 4777W        W 8828   8.026   0.485   8.910
 4778W        W 8829   1.908  11.250   3.461
 4779W        W 8830   1.043  10.526   1.021
 4780W        W 8831   0.169   9.351   0.486
 4781W        W 8832   9.051   3.431   1.882
 4782W        W 8833   9.677   3.731   0.107
 4783W        W 8834   5.971   1.676  11.815
 4784W        W 8835   9.972   5.284   1.692
 4785W        W 8836   6.101   6.405   1.753
 4786W        W 8837  10.428   5.808  10.980
 4787W        W 8838   6.587   4.327   1.398
 4788W        W 8839   8.197   3.726   2.819
 4789W        W 8840   0.913  11.244   3.615
 4790W        W 8841   3.888   9.811   3.555
 4791W        W 8842  11.250   1.206  10.250
 4792W        W 8843   5.329  10.710   0.069
 4793W        W 8844   6.256   1.529  11.415
 4794W        W 8845   3.214   7.211  11.867
 4795W        W 8846   5.934  11.082  10.400
 4796W        W 8847  11.105  11.226   2.226
 4797W        W 8848   6.082   7.550   0.754
 4798W        W 8849   6.524   9.848   0.848
 4799W        W 8850   1.922   3.303   2.366
 4800W        W 8851   2.893   2.251   1.705
 4801W        W 8852  10.027   9.930   1.374
 4802W        W 8853   2.023  10.482   0.070
 4803W        W 8854   6.169   8.677   9.452
 4804W        W 8855   0.839   2.785   2.665
 4805W        W 8856  10.829   2.234   9.276
 4806W        W 8857   4.215   1.081   3.697
 4807W        W 8858   2.233   3.129  11.287
 4808W        W 8859  10.726   0.079   2.263
 4809W        W 8860   2.541  11.367  11.780
 4810W        W 8861   1.032   1.375   2.756
 4811W        W 8862   1.292   1.051  10.083
 4812W        W 8863   3.107   1.179   0.007
 4813W        W 8864   8.547   3.580   0.403
 4814W        W 8865  11.484   3.871   0.507
 4815W        W 8866  10.442   5.298   9.939
 4816W        W 8867   2.248   5.227   8.555
 4817W        W 8868   2.665   5.077   3.175
 4818W        W 8869   6.545   3.951  11.805
 4819W        W 8870   8.461   9.340   2.406
 4820W        W 8871   8.181   2.364   1.452
 4821W        W 8872   0.193   9.521   0.968
 4822W        W 8873   3.215   1.605  10.907
 4823W        W 8874   1.984  11.466  10.443
 4824W        W 8875   7.055   9.316   8.462
 4825W        W 8876   7.263   4.279   2.758
 4826W        W 8877   9.967  11.453  11.018
 4827W        W 8878   8.391   0.827  11.684
 4828W        W 8879   4.689   3.743   9.075
 4829W        W 8880   5.995   9.619   3.027
 4830W        W 8881   9.014   1.719   9.788
 4831W        W 8882   5.740   6.415   3.099
 4832W        W 8883   6.925   2.188  10.495
 4833W        W 8884   5.450   4.503   8.298
 4834W        W 8885   2.732   7.069   8.564
 4835W        W 8886   4.669   4.819  10.494
 4836W        W 8887   7.933   6.221   9.753
 4837W        W 8888   3.562  11.268   2.150
 4838W        W 8889  11.271   2.013   9.485
 4839W        W 8890  10.276   0.493  10.236
 4840W        W 8891  10.408   8.339   0.488
 4841W        W 8892   4.526   2.393   0.513
 4842W        W 8893   6.970   8.938   1.775
 4843W        W 8894   5.097   2.594   8.968
 4844W        W 8895   6.977   2.754   2.281
 4845W        W 8896   2.588   0.949   0.766
 4846W        W 8897  10.558   3.511  11.273
 4847W        W 8898   9.641   4.099   0.447
 4848W        W 8899   6.094   8.168   1.329
 4849W        W 8900   3.134  11.306   0.952
 4850W        W 8901   0.252  10.026   0.894
 4851W        W 8902   5.705  10.494   1.621
 4852W        W 8903   6.935   2.946   0.954
 4853W        W 8904  10.434   4.860  10.832
 4854W        W 8905   3.516  10.846   1.300
 4855W        W 8906   8.037   2.311   2.414
 4856W        W 8907   8.356   0.220   1.983
 4857W        W 8908   2.414   5.113  10.801
 4858W        W 8909   1.853   9.628   2.057
 4859W        W 8910   2.261  10.504   9.622
 4860W        W 8911   3.029   9.349   2.666
 4861W        W 8912   6.776   2.604   2.726
 4862W        W 8913  10.687   5.498   3.175
 4863W        W 8914   6.836   8.031   1.086
 4864W        W 8915   3.914   8.769   0.448
 4865W        W 8916   8.562  10.863   9.058
 4866W        W 8917   9.931  10.953  10.876
 4867W        W 8918   0.293  11.405   8.790
 4868W        W 8919   9.396   7.505   2.551
 4869W        W 8920  11.421   6.556   1.345
 4870W        W 8921  10.458   3.203   3.205
 4871W        W 8922   4.890   1.776   2.297
 4872W        W 8923  10.334   4.634  11.905
 4873W        W 8924   7.578   2.035   3.024
 4874W        W 8925   6.114   8.417   1.774
 4875W        W 8926  10.839   0.599   2.308
 4876W        W 8927   3.913   1.386   2.869
 4877W        W 8928   1.447   6.101   0.569
 4878W        W 8929   6.164   5.051   0.024
 4879W        W 8930   7.055   5.164   1.171
 4880W        W 8931   2.326  10.309   1.422
 4881W        W 8932   8.872   1.300   2.233
 4882W        W 8933   8.568  10.377   9.936
 4883W        W 8934   0.725   0.583  11.434
 4884W        W 8935   1.499   4.118   2.326
 4885W        W 8936   4.090   6.330   8.075
 4886W        W 8937   8.860   2.101   3.143
 4887W        W 8938   2.178   2.331   2.296
 4888W        W 8939  10.570   0.292   9.827
 4889W        W 8940   0.775   9.491  10.399
 4890W        W 8941   3.589   7.478  11.261
 4891W        W 8942   7.716   5.077  11.056
 4892W        W 8943   3.143   6.757   8.496
 4893W        W 8944   0.929   7.968   0.571
 4894W        W 8945   5.975   2.582   3.658
 4895W        W 8946   3.187   7.596  10.506
 4896W        W 8947   8.369  10.881  10.021
 4897W        W 8948   9.570  10.886   8.941
 4898W        W 8949   3.509   8.894   9.524
 4899W        W 8950   7.784   3.617   1.896
 4900W        W 8951   2.951   1.158  10.919
 4901W        W 8952   2.310   7.427  11.068
 4902W        W 8953   7.960   5.520  10.316
 4903W        W 8954   5.195   8.619   1.658
 4904W        W 8955  11.457   2.062   9.955
 4905W        W 8956   6.619   1.447   0.370
 4906W        W 8957   2.606   5.759   0.260
 4907W        W 8958   0.863   3.589  11.947
 4908W        W 8959   3.689   6.292   9.000
 4909W        W 8960   0.880   9.555   9.079
 4910W        W 8961  10.144   6.598   3.845
 4911W        W 8962   4.675   7.497  11.058
 4912W        W 8963   7.116   8.060   0.236
 4913W        W 8964   9.992   5.190   9.550
 4914W        W 8965   0.324   1.652   2.308
 4915W        W 8966   2.875   1.414   2.844
 4916W        W 8967   1.503  10.421   2.296
 4917W        W 8968  11.423   6.983  11.449
 4918W        W 8969   9.500   3.441   2.163
 4919W        W 8970   8.962   0.885   9.339
 4920W        W 8971   3.664  10.353   1.178
 4921W        W 8972  10.900   2.213  11.440
 4922W        W 8973  10.447   0.101   9.344
 4923W        W 8974   9.269   6.079   2.434
 4924W        W 8975   6.875   7.483   3.195
 4925W        W 8976   6.260  11.314   1.656
 4926W        W 8977   6.445   5.842   9.627
 4927W        W 8978   7.235   2.734   1.359
 4928W        W 8979  10.233   6.509   1.927
 4929W        W 8980   0.773   5.760  11.044
 4930W        W 8981   5.469   2.841   2.422
 4931W        W 8982   7.529   0.475   0.443
 4932W        W 8983   1.113   6.026   0.946
 4933W        W 8984   3.614   8.531   3.152
 4934W        W 8985  10.220   1.148   0.030
 4935W        W 8986   2.773   1.901   0.666
 4936W        W 8987   3.192  10.474   9.552
 4937W        W 8988   3.918   6.974  11.153
 4938W        W 8989   7.432   1.966  10.512
 4939W        W 8990   4.239   2.393   8.847
 4940W        W 8991   3.391   9.874  11.935
 4941W        W 8992   8.750   3.832   1.711
 4942W        W 8993   8.030   6.472   2.770
 4943W        W 8994   1.159  10.453  11.973
 4944W        W 8995  10.434   7.484   0.152
 4945W        W 8996  10.846   1.558   2.453
 4946W        W 8997   9.936   8.961   0.456
 4947W        W 8998   9.629   4.208   8.982
 4948W        W 8999   2.622   1.355  11.260
 4949W        W 9000   4.201  11.008   1.689
 4950W        W 9001   7.012   0.809   3.131
 4951W        W 9002   8.523   8.826   1.714
 4952W        W 9003   1.686   3.079   2.781
 4953W        W 9004  11.481   2.881  10.444
 4954W        W 9005   8.877   7.824  10.626
 4955W        W 9006   5.937  10.445   1.170
 4956W        W 9007   2.821  11.398   2.701
 4957W        W 9008   2.602   2.441   1.290
 4958W        W 9009  10.325   7.427   2.408
 4959W        W 9010   9.327   4.814   2.285
 4960W        W 9011   2.906   5.086   1.202
 4961W        W 9012  10.369   1.658  10.960
 4962W        W 9013  10.880   6.120   3.237
 4963W        W 9014   1.249   4.299   9.391
 4964W        W 9015   1.362   0.368   2.007
 4965W        W 9016   7.214   7.923  11.505
 4966W        W 9017   3.819   8.159   1.939
 4967W        W 9018   1.698   8.127   2.280
 4968W        W 9019   5.880   7.261  11.777
 4969W        W 9020   0.627   3.264   3.494
 4970W        W 9021   2.180   5.813   3.267
 4971W        W 9022  10.328  11.394   2.529
 4972W        W 9023   6.463   0.946  10.427
 4973W        W 9024   6.509   6.210   2.032
 4974W        W 9025  10.133   5.102  11.916
 4975W        W 9026  10.997   4.974  10.797
 4976W        W 9027   8.778   6.455   8.262
 4977W        W 9028   1.747   4.983   0.781
 4978W        W 9029   6.441   5.720   0.398
 4979W        W 9030   6.653   4.938  11.958
 4980W        W 9031   6.245  10.442   1.656
 4981W        W 9032  11.063   0.502   9.911
 4982W        W 9033  10.158   3.774   0.232
 4983W        W 9034   5.224   6.725   2.265
 4984W        W 9035   9.339   5.959   9.455
 4985W        W 9036   0.402   9.028  11.600
 4986W        W 9037   2.312   3.714   0.337
 4987W        W 9038   4.922   9.978   9.222
 4988W        W 9039   9.088   5.512   9.541
 4989W        W 9040   1.738   6.744   9.902
 4990W        W 9041   4.735  11.471  11.561
 4991W        W 9042   7.050   5.544  11.202
 4992W        W 9043   2.496   4.145   2.269
 4993W        W 9044   6.717  11.061   3.564
 4994W        W 9045   7.907   5.910  11.441
 4995W        W 9046   6.728   7.974   0.587
 4996W        W 9047   3.511   7.933   2.314
 4997W        W 9048   8.385   6.067  11.398
 4998W        W 9049  11.416   6.431   9.810
 4999W        W 9050   1.963   2.684   9.349
 5000W        W 9051   7.327   9.718   8.586
 5001W        W 9052   5.795   6.652   1.396
 5002W        W 9053  11.233   2.094   8.983
 5003W        W 9054   8.270  10.552  11.445
 5004W        W 9055   0.177   8.078  11.281
 5005W        W 9056  10.000   5.106   3.500
 5006W        W 9057   0.914   9.034   3.646
 5007W        W 9058   2.874   6.532  11.931
 5008W        W 9059   7.295  10.450  11.333
 5009W        W 9060   4.012   0.187   3.576
 5010W        W 9061   8.049   6.856   1.238
 5011W        W 9062   8.613   4.044   2.715
 5012W        W 9063   3.632  11.229   0.869
 5013W        W 9064   0.691   7.746   2.415
 5014W        W 9065   5.455   9.430   3.670
 5015W        W 9066   1.000   9.619  10.903
 5016W        W 9067   7.407   2.616   9.937
 5017W        W 9068   4.165   6.072   1.673
 5018W        W 9069   7.602  11.038   2.696
 5019W        W 9070   8.562   7.417  10.707
 5020W        W 9071   6.541   6.106   8.192
 5021W        W 9072   2.678   6.456   0.940
 5022W        W 9073   3.257   2.613   0.005
 5023W        W 9074   6.536   8.460   9.175
 5024W        W 9075   2.616  11.105   1.062
 5025W        W 9076   6.612  10.315   2.499
 5026W        W 9077   3.123   1.198   1.067
 5027W        W 9078   8.709  10.322   9.008
 5028W        W 9079   5.461   3.135   9.293
 5029W        W 9080   5.943   5.789  10.502
 5030W        W 9081  10.047   3.692  11.738
 5031W        W 9082  10.017   5.616   9.183
 5032W        W 9083   8.486   2.582  10.077
 5033W        W 9084   5.286   2.143  11.484
 5034W        W 9085   0.554   2.312  10.368
 5035W        W 9086   1.364   9.505  11.556
 5036W        W 9087   6.671   8.391   2.311
 5037W        W 9088   8.166   9.460   3.232
 5038W        W 9089   9.859   8.661   2.843
 5039W        W 9090   2.534   6.670   3.461
 5040W        W 9091   1.366   1.455   1.820
 5041W        W 9092   9.809   9.340   2.168
 5042W        W 9093   5.321   5.114  11.600
 5043W        W 9094   6.702  11.437   1.438
 5044W        W 9095   8.791   8.363   8.104
 5045W        W 9096   2.753   7.912   9.887
 5046W        W 9097   1.680   1.549   2.597
 5047W        W 9098   5.790   9.129   0.530
 5048W        W 9099  10.933   5.543  11.874
 5049W        W 9100   1.432   4.544   8.988
 5050W        W 9101   5.601   6.150  10.653
 5051W        W 9102  11.210  10.775   9.505
 5052W        W 9103   9.359   1.829   1.050
 5053W        W 9104   5.268   1.372   8.593
 5054W        W 9105   9.631   3.790   9.485
 5055W        W 9106   2.472   2.937  10.520
 5056W        W 9107   3.754   8.460   9.235
 5057W        W 9108  11.143   1.491   0.956
 5058W        W 9109   8.616  10.831  10.472
 5059W        W 9110   5.566   7.665   8.245
 5060W        W 9111   1.375   5.677   2.758
 5061W        W 9112   7.561  10.925   1.304
 5062W        W 9113   0.475   1.469   0.314
 5063W        W 9114   4.515   1.270   0.003
 5064W        W 9115   0.269   7.499   2.529
 5065W        W 9116   2.471   5.300   0.513
 5066W        W 9117   7.817   5.501  11.711
 5067W        W 9118   7.592   8.915  10.181
 5068W        W 9119   3.094   1.833  10.059
 5069W        W 9120   4.005   0.458   1.958
 5070W        W 9121   7.502   0.685  11.607
 5071W        W 9122   4.088   4.818   0.805
 5072W        W 9123   9.592   1.358   2.925
 5073W        W 9124   6.655   7.549   9.151
 5074W        W 9125   3.264   7.798   8.920
 5075W        W 9126  11.472   0.776  10.809
 5076W        W 9127   1.408   5.088   8.985
 5077W        W 9128   7.178  10.438   3.328
 5078W        W 9129   1.334   2.323   2.892
 5079W        W 9130   8.771   3.144  10.930
 5080W        W 9131   1.768   7.644  11.861
 5081W        W 9132   4.080   2.210   2.186
 5082W        W 9133  10.103   1.722  11.399
 5083W        W 9134   3.353   8.628   2.722
 5084W        W 9135   7.840   7.451   3.265
 5085W        W 9136   4.610   4.404  11.340
 5086W        W 9137  11.322   9.256  11.291
 5087W        W 9138   8.560   7.183  10.247
 5088W        W 9139   3.454   7.085  10.964
 5089W        W 9140   1.936   0.263   9.999
 5090W        W 9141   2.926  10.051   0.508
 5091W        W 9142   0.524  11.026   9.093
 5092W        W 9143   1.777   6.445   2.455
 5093W        W 9144   3.595   8.857  10.022
 5094W        W 9145   8.530   2.843   3.163
 5095W        W 9146   7.000   0.710  11.776
 5096W        W 9147   9.341  11.158  11.695
 5097W        W 9148   9.322  11.115   9.348
 5098W        W 9149   2.666   5.568   9.263
 5099W        W 9150   1.375   7.892  10.403
 5100W        W 9151   4.360   9.096   8.569
 5101W        W 9152  11.113   9.604   3.094
 5102W        W 9153   0.777   6.614   0.293
 5103W        W 9154   3.802   7.992   0.509
 5104W        W 9155   2.466   9.602  11.135
 5105W        W 9156   9.024   6.293   1.775
 5106W        W 9157   4.344   7.118   2.625
 5107W        W 9158  10.790   8.237   3.152
 5108W        W 9159   6.616   9.415   0.552
 5109W        W 9160   1.368   0.459   0.944
 5110W        W 9161   4.541   3.026   1.910
 5111W        W 9162   8.604   3.639   8.366
 5112W        W 9163   4.489   5.980  10.656
 5113W        W 9164   4.497   1.464   3.327
 5114W        W 9165   3.467   9.119   2.781
 5115W        W 9166   0.823   5.323   3.177
 5116W        W 9167   0.280  11.024   3.637
 5117W        W 9168   0.243   9.452  10.430
 5118W        W 9169   1.835  10.895   2.607
 5119W        W 9170   1.980   3.184   3.422
 5120W        W 9171  11.442  10.804   2.334
 5121W        W 9172   0.387   5.407  11.660
 5122W        W 9173   1.745  11.358   1.916
 5123W        W 9174   3.753   7.620   1.895
 5124W        W 9175   7.990   6.934  11.515
 5125W        W 9176   4.597   4.373   1.704
 5126W        W 9177  10.840   0.988  10.067
 5127W        W 9178  10.617   2.239  11.870
 5128W        W 9179   5.476   5.219  10.196
 5129W        W 9180   7.445   8.855  10.666
 5130W        W 9181   4.035   3.114  10.511
 5131W        W 9182   0.768   4.327   9.071
 5132W        W 9183   3.251   6.709   9.350
 5133W        W 9184   4.502   3.739   2.327
 5134W        W 9185  10.853   2.152   3.559
 5135W        W 9186   6.546   9.821   2.331
 5136W        W 9187   0.954   1.613   3.311
 5137W        W 9188   0.949   1.890  11.486
 5138W        W 9189   1.386   9.917  11.246
 5139W        W 9190   2.638   3.779   9.934
 5140W        W 9191   3.385   3.198  11.966
 5141W        W 9192   0.981   7.934   2.834
 5142W        W 9193   8.168   4.635   3.143
 5143W        W 9194   6.035   2.840   8.587
 5144W        W 9195  10.397   7.001   3.233
 5145W        W 9196   6.203   1.789   0.267
 5146W        W 9197  11.474   9.211   1.775
 5147W        W 9198   0.412   9.562   2.475
 5148W        W 9199   5.025   4.324   3.612
 5149W        W 9200   1.570   1.898   1.696
 5150W        W 9201   2.234   0.773   1.139
 5151W        W 9202   5.252   1.254   1.616
 5152W        W 9203   3.061   5.361   3.369
 5153W        W 9204   6.051   7.441  10.759
 5154W        W 9205  10.836   2.793  10.039
 5155W        W 9206   6.175   2.138  11.867
 5156W        W 9207   4.594   4.835  11.959
 5157W        W 9208  10.605   1.397   3.235
 5158W        W 9209   0.893   8.426   1.236
 5159W        W 9210   5.708   0.942   9.402
 5160W        W 9211   6.899   4.082   1.843
 5161W        W 9212   3.605   5.208   8.312
 5162W        W 9213   8.840  11.364   1.179
 5163W        W 9214   3.710   7.464  11.743
 5164W        W 9215   9.070   2.270  10.978
 5165W        W 9216   9.964   9.835   9.315
 5166W        W 9217   4.207   5.173   1.579
 5167W        W 9218   2.449  10.415   2.594
 5168W        W 9219   1.298   4.740   0.716
 5169W        W 9220   1.270   8.138   1.052
 5170W        W 9221   1.902   4.093  10.110
 5171W        W 9222   2.708   4.632   2.450
 5172W        W 9223   7.911   8.810  11.572
 5173W        W 9224   8.558   5.744   2.636
 5174W        W 9225  10.268   7.019   0.949
 5175W        W 9226   0.931   4.165   3.544
 5176W        W 9227   0.915   5.531   2.510
 5177W        W 9228   8.776   6.092   1.013
 5178W        W 9229   1.682   4.184   2.831
 5179W        W 9230   2.069   9.548   3.135
 5180W        W 9231   5.112   7.022   0.205
 5181W        W 9232  10.747   2.677   1.664
 5182W        W 9233   9.478   5.744   8.973
 5183W        W 9234  10.855  10.429   8.763
 5184W        W 9235   3.608   4.202   1.453
 5185W        W 9236   0.437   5.485  10.758
 5186W        W 9237   6.093   7.639   1.269
 5187W        W 9238   9.672   1.212   3.400
 5188W        W 9239   3.359   4.292   9.843
 5189W        W 9240  10.840   0.991   3.379
 5190W        W 9241   8.105   1.923   9.077
 5191W        W 9242   6.080   0.952   3.501
 5192W        W 9243   0.718  10.858  10.324
 5193W        W 9244   6.911   9.609   8.857
 5194W        W 9245  11.026   2.479   2.640
 5195W        W 9246   9.226   5.318   9.084
 5196W        W 9247   0.943   4.157  10.756
 5197W        W 9248   9.520  10.392   2.391
 5198W        W 9249   3.840   6.473  11.288
 5199W        W 9250   1.836   7.550  10.942
 5200W        W 9251   3.708   6.116   2.007
 5201W        W 9252   2.684   1.761   9.292
 5202W        W 9253   8.901   4.164  10.190
 5203W        W 9254   4.974   3.067   9.154
 5204W        W 9255   6.384   6.210   0.512
 5205W        W 9256   8.635   1.877   9.027
 5206W        W 9257   9.364  10.853   2.233
 5207W        W 9258   9.105   5.211   0.028
 5208W        W 9259   4.660   9.492   0.263
 5209W        W 9260   3.396   7.032   2.325
 5210W        W 9261   2.004   6.333   9.743
 5211W        W 9262   6.779  11.131   0.901
 5212W        W 9263   3.998   1.003   9.934
 5213W        W 9264   6.138   0.509   8.807
 5214W        W 9265   9.108   6.598  11.663
 5215W        W 9266   9.544   1.456   1.952
 5216W        W 9267   8.991   8.499   8.562
 5217W        W 9268   6.557   6.774   3.442
 5218W        W 9269  10.414   5.225   0.431
 5219W        W 9270   0.794   7.127  10.516
 5220W        W 9271   2.264   5.564  10.581
 5221W        W 9272   1.512   4.991   9.832
 5222W        W 9273   0.243   2.142  11.434
 5223W        W 9274   9.440  -0.000   2.961
 5224W        W 9275   7.982   1.197   0.179
 5225W        W 9276   3.347   7.054   1.274
 5226W        W 9277   3.559   8.469   1.123
 5227W        W 9278   8.939   7.320  11.539
 5228W        W 9279   2.462   4.240   0.100
 5229W        W 9280   0.867   0.315   1.340
 5230W        W 9281   5.290   1.098   9.052
 5231W        W 9282   7.954   9.349  10.876
 5232W        W 9283   1.252   8.656  11.082
 5233W        W 9284   2.631   0.099   2.210
 5234W        W 9285   3.167  10.838   0.145
 5235W        W 9286   0.646   5.484   0.430
 5236W        W 9287   1.113   1.847   9.494
 5237W        W 9288   2.056   2.915  10.832
 5238W        W 9289   8.470   4.925   2.322
 5239W        W 9290   6.656   0.428  11.217
 5240W        W 9291   9.380   9.871  11.974
 5241W        W 9292   9.662   8.538   1.146
 5242W        W 9293  11.145   8.186  10.715
 5243W        W 9294  11.027   3.977  10.961
 5244W        W 9295   9.321   2.175  11.506
 5245W        W 9296   3.207   4.779   2.512
 5246W        W 9297  11.229   0.475   0.077
 5247W        W 9298   1.468   2.762   9.452
 5248W        W 9299   9.818   2.146  11.485
 5249W        W 9300   7.595   4.134  10.168
 5250W        W 9301   0.684   7.606   3.073
 5251W        W 9302   0.951   2.787  11.366
 5252W        W 9303   6.084   2.062  10.848
 5253W        W 9304   7.228   1.503  11.338
 5254W        W 9305   1.804   8.197   3.114
 5255W        W 9306   3.921   2.796   1.155
 5256W        W 9307   8.525  10.006  11.819
 5257W        W 9308  10.390   1.262   1.795
 5258W        W 9309   1.721   0.022   0.941
 5259W        W 9310   9.256   7.619   1.542
 5260W        W 9311   9.566   8.956   9.885
 5261W        W 9312   9.125   5.413   1.913
 5262W        W 9313   3.701   3.109   9.582
 5263W        W 9314   1.724   0.750   3.132
 5264W        W 9315   7.082   6.313  10.135
 5265W        W 9316   5.150   0.748  10.749
 5266W        W 9317   2.866   2.811   1.490
 5267W        W 9318   1.345   8.905   9.495
 5268W        W 9319   4.393   9.951  11.667
 5269W        W 9320   9.362   3.857   9.929
 5270W        W 9321   2.808   0.033   1.254
 5271W        W 9322  10.784   5.399  11.003
 5272W        W 9323   1.344   7.583   0.358
 5273W        W 9324   0.027   4.773  11.035
 5274W        W 9325  11.075   3.519  11.792
 5275W        W 9326   1.222   4.658   2.331
 5276W        W 9327   4.957  10.395   9.552
 5277W        W 9328   4.291   7.119   3.156
 5278W        W 9329   3.427   6.664   0.727
 5279W        W 9330   5.709   8.529  11.337
 5280W        W 9331   9.634   5.128  11.940
 5281W        W 9332   3.401   0.242  10.938
 5282W        W 9333   6.445   3.597   2.398
 5283W        W 9334   9.108   2.446  11.885
 5284W        W 9335   2.737  10.297   9.646
 5285W        W 9336   4.850  10.079  11.455
 5286W        W 9337   8.905   2.933   1.780
 5287W        W 9338   2.874   9.435  10.862
 5288W        W 9339  11.287   1.229   3.374
 5289W        W 9340   3.460   8.843  11.070
 5290W        W 9341   0.385   4.487  10.732
 5291W        W 9342   6.215   8.647   1.162
 5292W        W 9343   2.294   5.652  10.095
 5293W        W 9344   0.474   1.780   1.393
 5294W        W 9345   0.801   6.572   9.545
 5295W        W 9346   0.894   1.378   2.277
 5296W        W 9347  10.786   4.146  11.824
 5297W        W 9348   1.217   9.761  10.315
 5298W        W 9349   4.342   6.521  11.311
 5299W        W 9350   9.149   7.114   2.342
 5300W        W 9351   1.226   6.254   9.456
 5301W        W 9352   3.342  11.290  10.147
 5302W        W 9353   5.131   0.301  10.997
 5303W        W 9354  11.436   1.702   3.197
 5304W        W 9355   1.420   3.150   2.353
 5305W        W 9356  10.826   7.408   0.484
 5306W        W 9357  10.748   6.576   0.404
 5307W        W 9358   5.181   9.947   1.693
 5308W        W 9359   9.481   4.876  11.082
 5309W        W 9360   7.028   0.983   0.797
 5310W        W 9361   2.098   1.575  11.056
 5311W        W 9362   6.188   0.874   1.929
 5312W        W 9363   7.949   1.366  10.902
 5313W        W 9364   1.588   4.202  10.547
 5314W        W 9365  10.817   8.621   2.721
 5315W        W 9366   5.271   0.691   0.281
 5316W        W 9367   3.595   9.643   1.597
 5317W        W 9368   3.346   6.687  11.843
 5318W        W 9369   8.383   1.678  10.835
 5319W        W 9370   1.481   4.514  11.304
 5320W        W 9371  10.376   1.585  11.844
 5321W        W 9372   5.226   0.345   9.986
 5322W        W 9373   9.854   2.667   9.850
 5323W        W 9374   6.615   4.058   0.970
 5324W        W 9375   1.338   6.062  10.365
 5325W        W 9376   7.674   2.153  10.089
 5326W        W 9377  10.612  11.074   2.259
 5327W        W 9378   9.747   5.252  10.838
 5328W        W 9379   0.037   5.561   2.775
 5329W        W 9380   5.824   6.068   2.699
 5330W        W 9381   6.859   9.768   3.665
 5331W        W 9382   3.901   4.212   2.299
 5332W        W 9383   9.861  11.448   2.687
 5333W        W 9384   4.673   7.359   1.991
 5334W        W 9385   3.880   0.571   0.452
 5335W        W 9386   8.706   7.377  11.991
 5336W        W 9387   5.145   3.503   0.018
 5337W        W 9388   1.420   7.547   9.499
 5338W        W 9389  11.373   5.586  10.227
 5339W        W 9390   2.374   2.983   9.353
 5340W        W 9391   9.004   1.469   0.237
 5341W        W 9392   8.009   7.435  11.571
 5342W        W 9393   8.058   8.791   2.989
 5343W        W 9394   7.681   1.521  10.497
 5344W        W 9395   5.706   2.355  11.268
 5345W        W 9396   7.976   1.889  11.067
 5346W        W 9397   1.416   0.048   0.495
 5347W        W 9398   6.642   5.000  10.559
 5348W        W 9399   0.993   1.971  10.348
 5349W        W 9400   1.755   3.493   3.075
 5350W        W 9401   0.050   9.002   0.822
 5351W        W 9402  10.130   4.232  11.003
 5352W        W 9403   3.066   7.871   8.047
 5353W        W 9404   2.030   5.109   0.360
 5354W        W 9405  10.375   1.419   2.277
 5355W        W 9406   1.384   0.264   2.510
 5356W        W 9407   0.066   5.152   8.529
 5357W        W 9408   2.696   0.873  11.891
 5358W        W 9409   2.725   0.579   2.396
 5359W        W 9410   4.694   7.954  10.803
 5360W        W 9411   0.452   4.542  11.247
 5361W        W 9412   0.965   5.807   3.036
 5362W        W 9413   9.019  10.891   1.854
 5363W        W 9414   3.748  11.474   2.821
 5364W        W 9415   6.440   1.511  11.893
 5365W        W 9416   6.642  10.425   8.922
 5366W        W 9417   4.324   4.682   9.139
 5367W        W 9418   7.246   3.367  10.550
 5368W        W 9419   9.439  10.244   0.875
 5369W        W 9420   9.071  10.785   9.040
 5370W        W 9421   1.909  11.259   9.374
 5371W        W 9422  10.236   9.611  11.982
 5372W        W 9423   0.401   4.640   0.711
 5373W        W 9424   6.090   4.615   2.696
 5374W        W 9425   8.033  10.050   9.577
 5375W        W 9426  11.429   0.140  10.075
 5376W        W 9427   4.418   2.791  10.593
 5377W        W 9428   2.833  10.806   9.425
 5378W        W 9429   5.517   4.619   9.598
 5379W        W 9430  10.320   2.858   9.975
 5380W        W 9431   5.065   0.349  11.949
 5381W        W 9432   7.519   4.019   1.069
 5382W        W 9433   6.802   7.114  10.394
 5383W        W 9434   4.607   4.632   2.515
 5384W        W 9435   7.129   5.295  10.354
 5385W        W 9436   6.245   3.877  11.411
 5386W        W 9437   2.920   6.619  11.421
 5387W        W 9438   9.913   9.604   1.735
 5388W        W 9439   9.032   8.946   8.868
 5389W        W 9440   8.962  11.482  11.957
 5390W        W 9441   7.532   9.681   0.493
 5391W        W 9442   2.674   1.439   0.850
 5392W        W 9443   1.188   8.380   0.245
 5393W        W 9444   8.105   2.367  10.982
 5394W        W 9445   1.156   9.153  11.035
 5395W        W 9446   5.721   1.449   1.421
 5396W        W 9447   6.186   3.825   3.322
 5397W        W 9448   4.139   8.253  10.740
 5398W        W 9449   8.080   6.788   9.572
 5399W        W 9450   3.864   8.668   1.850
 5400W        W 9451   8.999  11.409   3.194
 5401W        W 9452   4.163   8.871   1.239
 5402W        W 9453   6.105   1.901  10.371
 5403W        W 9454   8.654   9.487   3.372
 5404W        W 9455   3.658   7.526   9.715
 5405W        W 9456   3.556   0.970   2.682
 5406W        W 9457   1.225  10.845  10.310
 5407W        W 9458   8.847  10.410   1.150
 5408W        W 9459  11.312   4.697   2.156
 5409W        W 9460   5.230   2.732   8.483
 5410W        W 9461   4.283   5.198   1.076
 5411W        W 9462   1.731   6.458   3.032
 5412W        W 9463   0.253  11.426   9.296
 5413W        W 9464   3.253   1.275  10.509
 5414W        W 9465   9.994   8.621   0.066
 5415W        W 9466   3.402  10.987   8.396
 5416W        W 9467   5.432   9.510   1.431
 5417W        W 9468   5.509   8.931  10.342
 5418W        W 9469   6.030   4.537   9.689
 5419W        W 9470   2.881   8.123  11.478
 5420W        W 9471   8.476  11.269   8.733
 5421W        W 9472   0.838   2.357  10.806
 5422W        W 9473   9.450   4.549   0.494
 5423W        W 9474   2.435   3.226   2.292
 5424W        W 9475  10.066   2.244   2.288
 5425W        W 9476   7.250   6.118   8.732
 5426W        W 9477  10.680   0.294   2.760
 5427W        W 9478   7.566   0.447   1.444
 5428W        W 9479   7.608   9.928   9.286
 5429W        W 9480   3.659   2.696   2.853
 5430W        W 9481  10.362   6.073   9.003
 5431W        W 9482   0.382   3.712   9.411
 5432W        W 9483   8.743   6.359   9.999
 5433W        W 9484  10.975   4.580   9.959
 5434W        W 9485   5.038   4.749   0.673
 5435W        W 9486   3.813   9.896   3.056
 5436W        W 9487   9.010   3.796   2.900
 5437W        W 9488   2.169   0.861   2.648
 5438W        W 9489   7.043   5.505   1.555
 5439W        W 9490   0.012   6.136   0.528
 5440W        W 9491   4.638   9.872   3.119
 5441W        W 9492  10.675   3.096  11.542
 5442W        W 9493   9.892   2.250   9.550
 5443W        W 9494   3.158   4.245   8.851
 5444W        W 9495  10.039   0.366  11.333
 5445W        W 9496   8.047   2.664   3.355
 5446W        W 9497   3.930   5.252  11.082
 5447W        W 9498   1.154   4.239  10.299
 5448W        W 9499   0.453   1.209   2.085
 5449W        W 9500   4.310   0.260  11.511
 5450W        W 9501   3.353   0.336  10.414
 5451W        W 9502   5.880   0.522   1.749
 5452W        W 9503   5.271   7.900   2.216
 5453W        W 9504   4.657   8.498  11.904
 5454W        W 9505   8.437   7.188   1.148
 5455W        W 9506   9.475   6.545   2.595
 5456W        W 9507   8.307   3.816   9.139
 5457W        W 9508   3.277   8.006  11.205
 5458W        W 9509   8.163   3.217   8.544
 5459W        W 9510   7.418   6.126   2.144
 5460W        W 9511  10.938   5.688   9.078
 5461W        W 9512   5.963   9.177   9.492
 5462W        W 9513   5.727  11.013  11.956
 5463W        W 9514   8.946   9.988   9.580
 5464W        W 9515   5.240   1.630   9.751
 5465W        W 9516   8.995   6.437   1.299
 5466W        W 9517   4.770   9.929   0.022
 5467W        W 9518   7.714   7.584  11.960
 5468W        W 9519   0.684   2.218   1.204
 5469W        W 9520  10.970   4.294   9.339
 5470W        W 9521  10.829  11.061   8.558
 5471W        W 9522   1.293   5.255   0.759
 5472W        W 9523   7.027   9.840   1.721
 5473W        W 9524   8.084   5.407  11.280
 5474W        W 9525   1.177   5.209  10.160
 5475W        W 9526   2.697   3.287   0.746
 5476W        W 9527   7.494  10.556   1.690
 5477W        W 9528   9.999  10.448  10.816
 5478W        W 9529   6.284   6.651   2.201
 5479W        W 9530  10.277   9.188   2.270
 5480W        W 9531   2.403   2.302   1.808
 5481W        W 9532   8.853   7.637   0.784
 5482W        W 9533  10.955   4.709   1.192
 5483W        W 9534   9.811  10.986  11.792
 5484W        W 9535  11.132   2.236  11.930
 5485W        W 9536   3.903   1.599  11.487
 5486W        W 9537   0.025   4.167   8.587
 5487W        W 9538   7.577   7.090  11.788
 5488W        W 9539   5.948   2.759   1.874
 5489W        W 9540   1.816  10.885   2.104
 5490W        W 9541   6.094  10.560   3.690
 5491W        W 9542   8.765   8.919  11.600
 5492W        W 9543  10.517   4.087   3.638
 5493W        W 9544   4.599   0.459  10.425
 5494W        W 9545   5.240   0.854   2.443
 5495W        W 9546   7.361   7.622   3.229
 5496W        W 9547   9.654   2.641   2.829
 5497W        W 9548   1.804   0.427   8.479
 5498W        W 9549   8.061   6.834  10.378
 5499W        W 9550   9.302   1.105   8.544
 5500W        W 9551   6.908   2.477  11.524
 5501W        W 9552   8.632   0.752  10.676
 5502W        W 9553   0.768   7.706   8.883
 5503W        W 9554   2.181   3.630  11.817
 5504W        W 9555   9.429  10.821  10.815
 5505W        W 9556   8.879   4.338   1.744
 5506W        W 9557   4.847   7.125   8.944
 5507W        W 9558   5.315   8.298   2.614
 5508W        W 9559   0.505   3.193   9.283
 5509W        W 9560  10.526   6.133   0.339
 5510W        W 9561  10.912   6.654   9.091
 5511W        W 9562   0.960   6.164   0.434
 5512W        W 9563   5.855   1.379   0.242
 5513W        W 9564   1.341   8.952   1.518
 5514W        W 9565   7.709   2.469   1.270
 5515W        W 9566   2.720   3.014   8.784
 5516W        W 9567   9.466   9.163   0.348
 5517W        W 9568   3.677   0.866  11.833
 5518W        W 9569  10.096   5.178   0.845
 5519W        W 9570  11.083   7.402   2.006
 5520W        W 9571   1.595   8.060   8.877
 5521W        W 9572   1.568   2.887  11.948
 5522W        W 9573   4.159   1.266   9.497
 5523W        W 9574   6.083   3.250  11.620
 5524W        W 9575   6.150   6.702   9.365
 5525W        W 9576  11.355   8.898   0.319
 5526W        W 9577   4.091   9.299   0.881
 5527W        W 9578   8.038   5.217   2.358
 5528W        W 9579   6.884   1.671  11.703
 5529W        W 9580   5.295   7.150  10.416
 5530W        W 9581   9.121   8.058   3.244
 5531W        W 9582   7.225   3.783  11.325
 5532W        W 9583   7.116   8.954   1.273
 5533W        W 9584   0.354   5.045   9.794
 5534W        W 9585   9.601   8.890   1.967
 5535W        W 9586   8.439   0.294  10.876
 5536W        W 9587   3.678   4.579   1.072
 5537W        W 9588   6.126   0.319   9.814
 5538W        W 9589   1.514   5.682   0.938
 5539W        W 9590   4.416   0.827   9.600
 5540W        W 9591   3.714   3.631   0.256
 5541W        W 9592   8.793  10.329   0.643
 5542W        W 9593   0.815   4.591   8.622
 5543W        W 9594   2.657   6.445   1.860
 5544W        W 9595   0.716   6.553   8.438
 5545W        W 9596   3.172  11.501   1.902
 5546W        W 9597   9.453   9.760   0.727
 5547W        W 9598   4.489   4.328   1.223
 5548W        W 9599   8.208   3.223   2.640
 5549W        W 9600   7.809   9.074   2.082
 5550W        W 9601   8.570   8.660   0.441
 5551W        W 9602   0.802   8.348  11.826
 5552W        W 9603   9.580   5.552  10.368
 5553W        W 9604   1.287   8.311   3.180
 5554W        W 9605   5.584  10.834  10.096
 5555W        W 9606   5.065   7.616  10.526
 5556W        W 9607   2.049   2.454   8.519
 5557W        W 9608   7.687   8.578   1.367
 5558W        W 9609   5.078  10.468   2.818
 5559W        W 9610  10.985   6.644   0.837
 5560W        W 9611   2.317   2.273  11.980
 5561W        W 9612   9.993   7.660   2.806
 5562W        W 9613   3.672   1.705   8.853
 5563W        W 9614  10.349   7.116  11.073
 5564W        W 9615   2.322   0.960   1.673
 5565W        W 9616   2.590  11.067  11.349
 5566W        W 9617   5.592   0.884  11.003
 5567W        W 9618   4.421   9.851   9.319
 5568W        W 9619   6.453   6.563   0.154
 5569W        W 9620  10.837   3.061   2.014
 5570W        W 9621  10.441   1.117   9.320
 5571W        W 9622   5.951   5.730   9.179
 5572W        W 9623   2.243   2.323   2.817
 5573W        W 9624   8.096   7.836   2.558
 5574W        W 9625   7.512  10.990  11.985
 5575W        W 9626  11.366   8.549   2.786
 5576W        W 9627   4.865   3.977  11.221
 5577W        W 9628   5.611   1.935   1.491
 5578W        W 9629   0.363   2.666   2.835
 5579W        W 9630   7.650  11.373   9.937
 5580W        W 9631   7.744   8.930  11.091
 5581W        W 9632   5.978   3.969   2.373
 5582W        W 9633   5.226   7.446   0.477
 5583W        W 9634   8.174   1.932   1.736
 5584W        W 9635   8.665   8.079   8.582
 5585W        W 9636   5.061   9.341   0.014
 5586W        W 9637   6.979   4.131   3.477
 5587W        W 9638   6.517   7.339   1.490
 5588W        W 9639   6.211   0.443   3.335
 5589W        W 9640   0.396   3.578   0.170
 5590W        W 9641   7.776   7.124  10.709
 5591W        W 9642   0.076   9.786   0.261
 5592W        W 9643   9.056   2.796   0.302
 5593W        W 9644   8.156   1.655   0.381
 5594W        W 9645   2.174   3.871   9.723
 5595W        W 9646   9.572   9.563   8.567
 5596W        W 9647   3.356   8.292   8.418
 5597W        W 9648   5.477   4.388   9.126
 5598W        W 9649   0.785  10.582  11.146
 5599W        W 9650   8.946   8.591  10.231
 5600W        W 9651   5.629   7.545   1.422
 5601W        W 9652   4.265   4.059  10.730
 5602W        W 9653   4.807   1.731  10.011
 5603W        W 9654   8.566   6.700  10.360
 5604W        W 9655   4.045   9.100  10.175
 5605W        W 9656   3.829   5.287   0.785
 5606W        W 9657   8.844  10.044   3.483
 5607W        W 9658   3.676   5.889  11.647
 5608W        W 9659  10.936   3.137   3.466
 5609W        W 9660   4.762   2.619   2.748
 5610W        W 9661   4.058   0.910   2.682
 5611W        W 9662  10.321  10.498   1.053
 5612W        W 9663   3.855   4.891  11.820
 5613W        W 9664   8.616   4.464  10.833
 5614W        W 9665  10.847   0.347   1.858
 5615W        W 9666   3.703   9.454  11.753
 5616W        W 9667  10.248  10.748   9.580
 5617W        W 9668   7.872   5.119   8.654
 5618W        W 9669   9.549   1.175  10.811
 5619W        W 9670   0.360  11.360  11.119
 5620W        W 9671   9.550   0.283   1.419
 5621W        W 9672  11.384   8.117   9.316
 5622W        W 9673   6.020   8.974  10.427
 5623W        W 9674   0.390   0.851   1.140
 5624W        W 9675   6.914   1.654   9.808
 5625W        W 9676   1.322   4.081  11.526
 5626W        W 9677   9.817   7.492   0.800
 5627W        W 9678   7.888   2.781   9.981
 5628W        W 9679   2.671   8.309  10.628
 5629W        W 9680   9.393   6.586   8.251
 5630W        W 9681  11.322   0.011   2.739
 5631W        W 9682   3.750  11.298   3.332
 5632W        W 9683   3.014   7.831   2.238
 5633W        W 9684   3.710   2.937   2.398
 5634W        W 9685   3.660   6.210   3.551
 5635W        W 9686  11.451   9.863   1.281
 5636W        W 9687   7.728   5.177   0.486
 5637W        W 9688   3.150   2.420   1.304
 5638W        W 9689   0.770   7.950   9.783
 5639W        W 9690   0.513   5.800   1.886
 5640W        W 9691   9.552   3.175   1.335
 5641W        W 9692   5.978   8.285   0.218
 5642W        W 9693   2.303   8.960   2.021
 5643W        W 9694   4.571  10.327   9.057
 5644W        W 9695   7.866  11.425   3.013
 5645W        W 9696   9.433   8.164   0.362
 5646W        W 9697   4.195   6.095  11.071
 5647W        W 9698   1.395   6.984  10.542
 5648W        W 9699   8.453   6.233  10.527
 5649W        W 9700   9.313   4.981  11.587
 5650W        W 9701   0.941   3.724   0.943
 5651W        W 9702   7.998   9.034   3.445
 5652W        W 9703   0.433   9.296   9.012
 5653W        W 9704   8.655   1.255   3.070
 5654W        W 9705   8.544   4.716   9.014
 5655W        W 9706   6.464   6.231  10.944
 5656W        W 9707   2.936   4.703  11.433
 5657W        W 9708   2.271   0.544   9.520
 5658W        W 9709   6.570  11.221   2.485
 5659W        W 9710   5.643   5.144   1.769
 5660W        W 9711   6.041   6.230   8.109
 5661W        W 9712   9.799  10.637   2.028
 5662W        W 9713   3.242   3.777   9.120
 5663W        W 9714   1.163   3.261   1.079
 5664W        W 9715   9.094  11.252   9.982
 5665W        W 9716   9.609   2.895  10.486
 5666W        W 9717   5.074   3.252   0.486
 5667W        W 9718   3.370   9.298   2.288
 5668W        W 9719   5.083   7.798   0.122
 5669W        W 9720   3.075   4.126  10.799
 5670W        W 9721   3.626   1.262   0.705
 5671W        W 9722   6.564   4.156   3.161
 5672W        W 9723   7.548   0.348  10.177
 5673W        W 9724   3.610  10.519  11.824
 5674W        W 9725   9.061   2.747   1.265
 5675W        W 9726   3.833  10.836   2.073
 5676W        W 9727   6.160   9.994   1.391
 5677W        W 9728   5.255   7.929   0.897
 5678W        W 9729   7.846   1.474   9.213
 5679W        W 9730   3.372   7.688   0.042
 5680W        W 9731   7.704   1.160  11.736
 5681W        W 9732   9.925  10.733   0.277
 5682W        W 9733   7.273   8.053   9.475
 5683W        W 9734   7.603   9.748  10.777
 5684W        W 9735   3.325   5.231   1.970
 5685W        W 9736   8.443   4.712  10.413
 5686W        W 9737   3.088   0.601   2.753
 5687W        W 9738  10.528   2.339   2.581
 5688W        W 9739  10.039   0.879   9.599
 5689W        W 9740  10.226   9.365   9.509
 5690W        W 9741   9.463   2.721   3.328
 5691W        W 9742   7.387   9.084  11.443
 5692W        W 9743   8.057   3.357   9.152
 5693W        W 9744   5.823   5.541   1.446
 5694W        W 9745   2.190   5.323   3.479
 5695W        W 9746   0.699   5.735   3.463
 5696W        W 9747   4.083   1.445  11.026
 5697W        W 9748   2.665   4.141   1.766
 5698W        W 9749   5.564   8.252   3.232
 5699W        W 9750   6.670   9.973   8.105
 5700W        W 9751   3.347   1.902   1.307
 5701W        W 9752   1.001  10.976   0.797
 5702W        W 9753   6.670   6.697   2.932
 5703W        W 9754   3.879   4.382   0.620
 5704W        W 9755   2.313   0.039   9.531
 5705W        W 9756   0.034  11.413   3.233
 5706W        W 9757   9.164   6.642   9.998
 5707W        W 9758   7.914   4.161   2.187
 5708W        W 9759   9.095   4.249   3.154
 5709W        W 9760   3.233   9.911   1.831
 5710W        W 9761   2.691   6.633   2.371
 5711W        W 9762  10.403   7.058  10.528
 5712W        W 9763   6.758   2.074   2.829
 5713W        W 9764   2.715   9.069  11.482
 5714W        W 9765   4.469   6.765   8.635
 5715W        W 9766   2.115   8.635  11.748
 5716W        W 9767   7.701   3.771  11.528
 5717W        W 9768  10.416   7.624  11.237
 5718W        W 9769   4.419   0.722   1.748
 5719W        W 9770   3.897   4.384  10.510
 5720W        W 9771  10.237  10.433   1.566
 5721W        W 9772   0.084   0.962   1.839
 5722W        W 9773   2.141   7.468   1.006
 5723W        W 9774   1.147   0.245  10.686
 5724W        W 9775  11.303   1.232   1.399
 5725W        W 9776   3.468   9.629   2.795
 5726W        W 9777   3.581   2.316   2.516
 5727W        W 9778   7.647   0.192   9.154
 5728W        W 9779   1.791   1.290   3.407
 5729W        W 9780   3.187   5.709  10.994
 5730W        W 9781   6.973   4.662   0.262
 5731W        W 9782  11.029   0.143   3.126
 5732W        W 9783   4.328   8.712  11.566
 5733W        W 9784   1.213   0.628  10.352
 5734W        W 9785   9.971   1.896  11.893
 5735W        W 9786   5.635   3.248   9.823
 5736W        W 9787   2.502   8.541   8.318
 5737W        W 9788   1.304   1.065  10.600
 5738W        W 9789  10.919   3.304   2.938
 5739W        W 9790   3.965   8.387   1.383
 5740W        W 9791   8.683   7.875  11.909
 5741W        W 9792   9.364   1.813   2.855
 5742W        W 9793   9.429   4.914   0.984
 5743W        W 9794   1.918   3.639   8.868
 5744W        W 9795  11.380   8.858   1.415
 5745W        W 9796   4.221   9.970   0.869
 5746W        W 9797   2.774   1.666   0.196
 5747W        W 9798   7.217   3.841  10.293
 5748W        W 9799   7.713   8.032  11.622
 5749W        W 9800   3.145   3.675   1.841
 5750W        W 9801   5.203   9.050   9.014
 5751W        W 9802  10.630   7.693  11.694
 5752W        W 9803   2.721  10.251   8.737
 5753W        W 9804   0.048   7.480  11.352
 5754W        W 9805   0.297   1.202  11.216
 5755W        W 9806  10.758  11.283   3.425
 5756W        W 9807   5.767   1.464   8.510
 5757W        W 9808   3.287   1.353   9.294
 5758W        W 9809   6.032   6.533   2.660
 5759W        W 9810  10.947   6.250   0.051
 5760W        W 9811   3.864   3.873  10.963
 5761W        W 9812  11.367   7.179   9.395
 5762W        W 9813   0.202   1.401  10.283
 5763W        W 9814   0.796   0.833   2.182
 5764W        W 9815   1.058   6.079  11.347
 5765W        W 9816   3.172   4.945   0.397
 5766W        W 9817   0.684   8.407   0.342
 5767W        W 9818   6.705  11.380   0.365
 5768W        W 9819   8.997   0.944   0.954
 5769W        W 9820  11.282   1.126   9.494
 5770W        W 9821   0.903   4.209   2.249
 5771W        W 9822   8.091   9.239   2.768
 5772W        W 9823   9.473   2.153   1.444
 5773W        W 9824   1.256   7.561  11.855
 5774W        W 9825   2.237   6.129   1.963
 5775W        W 9826   9.468   9.340   1.790
 5776W        W 9827  10.579   6.243  10.756
 5777W        W 9828   9.418   7.023   3.331
 5778W        W 9829   8.600   6.144   1.474
 5779W        W 9830   7.069   6.048   8.250
 5780W        W 9831   0.951   5.328  10.854
 5781W        W 9832   8.887   9.581   2.224
 5782W        W 9833  11.318   7.434   0.300
 5783W        W 9834   8.743   0.343   2.775
 5784W        W 9835   6.691   3.178  10.272
 5785W        W 9836   5.970   9.970   3.412
 5786W        W 9837   5.960   4.579   0.214
 5787W        W 9838   5.722   7.379   3.605
 5788W        W 9839   6.341   8.094  11.842
 5789W        W 9840  11.375   5.760   2.339
 5790W        W 9841  10.813  10.872   0.356
 5791W        W 9842   7.011   3.712  11.807
 5792W        W 9843   6.863   2.293   2.041
 5793W        W 9844   8.155  10.450   0.496
 5794W        W 9845   2.790   1.279   1.738
 5795W        W 9846   8.533   6.661   1.187
 5796W        W 9847   7.995  10.545   2.568
 5797W        W 9848   5.617  10.986   1.643
 5798W        W 9849  11.424   4.664   9.544
 5799W        W 9850   2.882   0.387   9.094
 5800W        W 9851  10.737   4.103  10.535
 5801W        W 9852   3.116   7.149  11.358
 5802W        W 9853   4.628  10.266   2.684
 5803W        W 9854   1.252  10.074   0.921
 5804W        W 9855   5.487   3.660   8.576
 5805W        W 9856   2.306   7.213   0.062
 5806W        W 9857   6.136   9.817  11.836
 5807W        W 9858   4.067   7.531  10.021
 5808W        W 9859   5.294   8.613   4.147
 5809W        W 9860   7.427   0.983   2.894
 5810W        W 9861   0.246   1.355   1.176
 5811W        W 9862   7.142   9.614   9.819
 5812W        W 9863  10.526   2.769  10.451
 5813W        W 9864  11.347   0.732   2.233
 5814W        W 9865   1.300  10.971   3.197
 5815W        W 9866   2.486  10.798   0.693
 5816W        W 9867   0.954   9.564   8.577
 5817W        W 9868   6.736   2.299   8.959
 5818W        W 9869   2.638   0.768  10.796
 5819W        W 9870   4.584   6.190   0.288
 5820W        W 9871   3.429   0.903   0.324
 5821W        W 9872   0.560   9.486  11.800
 5822W        W 9873   5.907   2.284   1.707
 5823W        W 9874   2.791   3.338   9.746
 5824W        W 9875   2.846  10.093  11.453
 5825W        W 9876   5.130   3.301   9.618
 5826W        W 9877   0.364   4.005   8.964
 5827W        W 9878   8.204   3.663  11.499
 5828W        W 9879   6.603   0.139   0.933
 5829W        W 9880   1.786   1.368   0.757
 5830W        W 9881  11.384  10.704   3.764
 5831W        W 9882   0.080   3.862  10.287
 5832W        W 9883  10.243   4.625   3.240
 5833W        W 9884  10.428   8.004   8.944
 5834W        W 9885   5.313   8.024  10.208
 5835W        W 9886   6.977   6.612   0.333
 5836W        W 9887  10.404   6.738  11.529
 5837W        W 9888   6.148   4.563   1.702
 5838W        W 9889  10.526   7.862   1.434
 5839W        W 9890   6.290   7.953  10.040
 5840W        W 9891   4.051   6.440   1.319
 5841W        W 9892   6.707   5.593   0.826
 5842W        W 9893   0.376   0.894   2.954
 5843W        W 9894   3.092   6.222  11.081
 5844W        W 9895   7.275   4.168   0.434
 5845W        W 9896  10.136  10.267   0.283
 5846W        W 9897   6.897   2.183   9.593
 5847W        W 9898  11.036   3.799   2.843
 5848W        W 9899   6.673   0.274  10.249
 5849W        W 9900   1.813   4.383  10.964
 5850W        W 9901  10.842   1.880   9.746
 5851W        W 9902   9.112   7.704   9.276
 5852W        W 9903   0.072   0.065   0.044
 5853W        W 9904   8.279   5.692  11.822
 5854W        W 9905   0.332   9.043   1.238
 5855W        W 9906   4.367   1.752  11.689
 5856W        W 9907   4.199   8.650  10.407
 5857W        W 9908   0.813   4.844  11.465
 5858W        W 9909   6.472   7.190  10.961
 5859W        W 9910   1.752   5.314   8.434
 5860W        W 9911   7.590   0.940   1.569
 5861W        W 9912   7.145   0.148   0.393
 5862W        W 9913   3.510  10.473   9.961
 5863W        W 9914   2.364   0.346   9.066
 5864W        W 9915   9.861  10.088   2.844
 5865W        W 9916   8.244   7.626  11.963
 5866W        W 9917   4.760   6.740   0.682
 5867W        W 9918   9.404   9.262   2.790
 5868W        W 9919  11.085   4.992  10.283
 5869W        W 9920   2.861   4.222   9.828
 5870W        W 9921   3.524   3.060  10.575
 5871W        W 9922  10.919   2.657  11.727
 5872W        W 9923   7.553   1.865   0.334
 5873W        W 9924   7.562   6.677  10.467
 5874W        W 9925   1.901   5.235  10.764
 5875W        W 9926   4.679   9.513  11.722
 5876W        W 9927   7.026   4.321   2.277
 5877W        W 9928   7.098   3.408  10.072
 5878W        W 9929   5.646   5.789   1.006
 5879W        W 9930   2.816   2.851   9.584
 5880W        W 9931  10.600   7.447   1.861
 5881W        W 9932  10.483   4.988   9.516
 5882W        W 9933   7.614  10.420  10.066
 5883W        W 9934   6.301   7.560  11.769
 5884W        W 9935   5.583   8.112  11.741
 5885W        W 9936   9.139   4.160   0.510
 5886W        W 9937  11.360   3.206   9.071
 5887W        W 9938   2.821   8.363  10.144
 5888W        W 9939   7.172   9.239   0.846
 5889W        W 9940   4.208   2.314   9.886
 5890W        W 9941   3.854   6.639   9.885
 5891W        W 9942  11.054   2.719   1.224
 5892W        W 9943   0.222   7.782   2.951
 5893W        W 9944   4.015   1.466  11.965
 5894W        W 9945   5.138   4.652  10.710
 5895W        W 9946   0.289  10.715   0.317
 5896W        W 9947   7.027   7.926  10.913
 5897W        W 9948   1.740   1.792   9.589
 5898W        W 9949  10.146   1.244   3.589
 5899W        W 9950  10.861   9.144   0.531
 5900W        W 9951   8.112   1.550   3.491
 5901W        W 9952   3.619   4.697   8.479
 5902W        W 9953   7.940  10.104  10.586
 5903W        W 9954   5.196   8.076   1.739
 5904W        W 9955   1.801  10.011   2.427
 5905W        W 9956   2.341   1.918   0.393
 5906W        W 9957   6.594   8.178   2.811
 5907W        W 9958   9.809   1.206   1.242
 5908W        W 9959   2.685   3.237   2.737
 5909W        W 9960   8.949   6.860  11.268
 5910W        W 9961   6.143   0.554  11.266
 5911W        W 9962   2.866  10.483   2.906
 5912W        W 9963   9.944  10.791   8.565
 5913W        W 9964   4.636   3.891   0.994
 5914W        W 9965   9.389   9.894   9.886
 5915W        W 9966   5.215   3.735   0.479
 5916W        W 9967   3.284   2.898   0.409
 5917W        W 9968   3.244   1.299   3.838
 5918W        W 9969   0.776  11.204   1.857
 5919W        W 9970   3.719   8.396   0.161
 5920W        W 9971   4.763   8.555  11.374
 5921W        W 9972   9.961  11.444  10.027
 5922W        W 9973   3.772   0.159   8.662
 5923W        W 9974   2.173   9.401   1.690
 5924W        W 9975   9.917   3.778   2.128
 5925W        W 9976  10.906   4.049   9.789
 5926W        W 9977   5.201   7.252   3.181
 5927W        W 9978   5.101   9.475   1.891
 5928W        W 9979   9.056   3.641   2.365
 5929W        W 9980   1.100  10.401   1.684
 5930W        W 9981   1.381   1.439   9.359
 5931W        W 9982   3.329   6.618   3.671
 5932W        W 9983  10.543   7.378   9.443
 5933W        W 9984   6.240   5.595  10.893
 5934W        W 9985  11.326   6.987  11.970
 5935W        W 9986   6.102   5.640   0.778
 5936W        W 9987   4.136   7.911  11.479
 5937W        W 9988   1.266  10.893  11.226
 5938W        W 9989   0.798   3.284  10.542
 5939W        W 9990   4.203   7.826   1.815
 5940W        W 9991   2.961   8.955  11.049
 5941W        W 9992  10.920   1.639   0.440
 5942W        W 9993   4.179   0.188  10.523
 5943W        W 9994   6.395   3.658   2.892
 5944W        W 9995   0.818   7.863   1.045
 5945W        W 9996   1.725   8.945  10.309
 5946W        W 9997   7.317   6.048  11.088
 5947W        W 9998   6.832   7.187   2.743
 5948W        W 9999   8.877   2.232   0.296
 5949W        W10000   2.531   7.804   0.745
 5950W        W10001   6.764   5.483  10.677
 5951W        W10002   9.004   8.079  11.058
 5952W        W10003   3.395   1.816  11.381
 5953W        W10004   8.168   5.387   9.865
 5954W        W10005   0.851  10.699  11.636
 5955W        W10006   2.572   7.567   2.286
 5956W        W10007   2.434   2.896   3.571
 5957W        W10008   1.427   1.208   2.299
 5958W        W10009   4.696   1.965   3.302
 5959W        W10010   5.958   4.698   1.226
 5960W        W10011   8.546  10.396  10.737
 5961W        W10012   2.743   7.407  11.783
 5962W        W10013   8.655   2.809   9.622
 5963W        W10014   7.586   9.887   9.784
 5964W        W10015   4.605   4.282   3.924
 5965W        W10016   4.758   8.828   9.969
 5966W        W10017  11.166   4.313   2.473
 5967W        W10018   8.066  10.520   9.836
 5968W        W10019   1.575   9.978   2.883
 5969W        W10020   1.371  11.436   9.511
 5970W        W10021   2.580   4.111   0.575
 5971W        W10022   9.993   2.082  11.005
 5972W        W10023   4.114  11.205   0.302
 5973W        W10024   8.512   7.618  11.487
 5974W        W10025   7.678   9.579   2.800
 5975W        W10026   3.767   2.458   3.330
 5976W        W10027   7.745   1.498  11.371
 5977W        W10028   7.678   3.115   1.981
 5978W        W10029   9.875   5.401  11.557
 5979W        W10030   2.790   5.264   4.153
 5980W        W10031   8.897   0.508  11.033
 5981W        W10032   4.731   9.946   8.737
 5982W        W10033   6.308   7.041  11.923
 5983W        W10034   9.642   3.346   0.873
 5984W        W10035   0.269   6.941   9.159
 5985W        W10036   9.344   0.159   1.902
 5986W        W10037   8.530   4.671   8.290
 5987W        W10038   9.547   8.636   9.410
 5988W        W10039   2.401   0.524   3.443
 5989W        W10040   2.341   1.397   1.959
 5990W        W10041   6.985   5.652   0.329
 5991W        W10042  10.857   1.684   1.935
 5992W        W10043   0.364   4.264   9.405
 5993W        W10044   5.017  11.344  11.975
 5994W        W10045   6.222   5.278  11.304
 5995W        W10046   5.112  10.448   0.885
 5996W        W10047   9.358   8.011  10.563
 5997W        W10048   0.818  11.081  11.297
 5998W        W10049   6.025   6.946  10.909
 5999W        W10050   8.908   1.809  10.785
 6000W        W10051   8.136   9.107   9.191
 6001W        W10052   7.243   2.224   1.714
 6002W        W10053   0.017   3.832   3.050
 6003W        W10054   8.959   2.115   2.642
 6004W        W10055   3.242   6.208   2.322
 6005W        W10056   7.997   1.926  10.556
 6006W        W10057   8.467   0.788   3.238
 6007W        W10058   5.538   8.053  11.219
 6008W        W10059   3.363   4.496  10.583
 6009W        W10060   4.913   0.153   1.771
 6010W        W10061   8.088   4.941   9.070
 6011W        W10062   6.715   1.358  10.555
 6012W        W10063   6.593   8.946   1.365
 6013W        W10064   0.319   6.558   8.792
 6014W        W10065   7.753   7.082   9.204
 6015W        W10066   8.841   8.487   9.733
 6016W        W10067  10.037  10.710   9.072
 6017W        W10068   6.074   4.162  11.879
 6018W        W10069   7.982   6.827   3.610
 6019W        W10070   9.189   4.771   3.145
 6020W        W10071   9.084   2.874   3.697
 6021W        W10072   5.091   9.963   0.672
 6022W        W10073   3.600   6.575   2.241
 6023W        W10074   3.265   7.075   3.391
 6024W        W10075  10.938  10.978  11.023
 6025W        W10076   1.670  10.399   9.555
 6026W        W10077  10.894   0.495   3.463
 6027W        W10078   6.554   7.490   0.487
 6028W        W10079   5.094  10.975   2.984
 6029W        W10080   5.131   2.321   2.304
 6030W        W10081  10.630   4.128   8.964
 6031W        W10082   2.274   2.793   2.031
 6032W        W10083   9.590   6.945  11.702
 6033W        W10084   3.568   6.869   8.979
 6034W        W10085  11.290  11.202   9.789
 6035W        W10086   3.778   8.884   0.917
 6036W        W10087   6.270   6.815   3.881
 6037W        W10088   5.992   3.398   0.640
 6038W        W10089   7.832   0.806   8.539
 6039W        W10090   3.503   6.557   3.184
 6040W        W10091   2.173   9.138  10.476
 6041W        W10092   5.005   2.427   0.784
 6042W        W10093   8.915   6.210   3.694
 6043W        W10094   2.285   9.367   3.669
 6044W        W10095   6.676  11.358   9.038
 6045W        W10096   1.218   7.861   8.551
 6046W        W10097   7.669   8.202   0.584
 6047W        W10098   4.874  10.729   9.185
 6048W        W10099  10.820   4.558   0.728
 6049W        W10100   6.473   9.054   9.603
 6050W        W10101   7.294   6.684   1.266
 6051W        W10102   2.137   8.248   8.528
 6052W        W10103   0.926   4.548   3.063
 6053W        W10104   4.237   9.092  10.675
 6054W        W10105   0.873   8.737   2.334
 6055W        W10106   1.928   4.684   9.067
 6056W        W10107   2.966   4.291   2.165
 6057W        W10108  11.217   8.910   2.449
 6058W        W10109   3.901   1.054   0.254
 6059W        W10110   2.297   2.783   1.030
 6060W        W10111   7.189  11.255  11.391
 6061W        W10112   9.003   4.942   8.297
 6062W        W10113   9.325   5.806   0.640
 6063W        W10114   9.350   6.167   2.940
 6064W        W10115   6.519  10.318   0.634
 6065W        W10116  10.607   4.383  10.944
 6066W        W10117   1.368  10.273   9.952
 6067W        W10118   5.731   0.882   0.530
 6068W        W10119   8.017  10.971   9.141
 6069W        W10120   8.050   9.529  11.354
 6070W        W10121   9.922   2.919   1.659
 6071W        W10122   0.266  10.883   3.131
 6072W        W10123   8.116   3.127   3.134
 6073W        W10124  10.307   7.476   8.998
 6074W        W10125   6.982   8.012   1.587
 6075W        W10126  11.433   8.335  11.676
 6076W        W10127   5.497   6.942   8.760
 6077W        W10128   7.021  10.348  11.758
 6078W        W10129   4.269   7.960   9.818
 6079W        W10130   8.404   6.128   2.943
 6080W        W10131   4.261   8.965   2.588
 6081W        W10132  11.370   4.279   9.881
 6082W        W10133   0.770   1.746   9.965
 6083W        W10134   7.132   8.375   9.892
 6084W        W10135   6.161   7.618   9.236
 6085W        W10136   1.401   0.238   9.991
 6086W        W10137   5.003  11.183   9.380
 6087W        W10138   7.450   5.705  10.250
 6088W        W10139   6.240   1.931   2.773
 6089W        W10140   2.576   2.140   3.467
 6090W        W10141   7.111   8.178   8.421
 6091W        W10142   4.130   1.681   1.718
 6092W        W10143   1.556   9.240   1.141
 6093W        W10144   8.497   5.432   2.206
 6094W        W10145   0.311   8.380   9.081
 6095W        W10146   8.768   0.444  11.863
 6096W        W10147  10.357   3.672   9.097
 6097W        W10148   6.429  11.464   3.439
 6098W        W10149   1.263   3.784   9.395
 6099W        W10150   5.940   3.474   2.476
 6100W        W10151   9.931   9.569   3.591
 6101W        W10152   4.632   5.734   0.016
 6102W        W10153   9.017   3.735  11.705
 6103W        W10154   8.979   7.105   9.976
 6104W        W10155   9.159   9.987   2.457
 6105W        W10156   6.094   2.450  10.437
 6106W        W10157   2.899   8.473   8.626
 6107W        W10158   8.978   9.807   9.075
 6108W        W10159   8.050   5.966   1.014
 6109W        W10160   5.560   2.799   0.019
 6110W        W10161   0.430   2.206   3.020
 6111W        W10162   6.464   9.520   2.776
 6112W        W10163   5.592   3.307  11.822
 6113W        W10164   3.524   1.421   0.207
 6114W        W10165   8.812   6.177   2.219
 6115W        W10166   4.569   8.537   2.428
 6116W        W10167   0.730  10.038   3.050
 6117W        W10168   5.592   9.291   0.969
 6118W        W10169   3.737   6.129   4.056
 6119W        W10170  10.066  10.795   2.448
 6120W        W10171   0.263  11.355   9.804
 6121W        W10172   6.054   7.588   9.755
 6122W        W10173   2.752   5.176   8.597
 6123W        W10174   2.400   5.747   0.730
 6124W        W10175   5.641   1.815  10.010
 6125W        W10176   6.544   0.746   2.264
 6126W        W10177   1.275   9.183   8.444
 6127W        W10178   8.182   8.657  10.954
 6128W        W10179   3.664   4.827  10.364
 6129W        W10180  11.066   6.980   0.442
 6130W        W10181   2.503   5.246   1.500
 6131W        W10182   4.768   2.319   3.675
 6132W        W10183   9.489   3.131   0.423
 6133W        W10184   7.424   9.528   1.516
 6134W        W10185  10.480   4.050   9.450
 6135W        W10186   8.490   5.702   1.199
 6136W        W10187   4.668   9.546   2.204
 6137W        W10188   8.900  11.269  11.480
 6138W        W10189   6.606  10.009  11.870
 6139W        W10190   2.460   5.266   1.993
 6140W        W10191   7.456   1.675  10.081
 6141W        W10192   9.581   5.177   2.011
 6142W        W10193   7.130  11.347  11.911
 6143W        W10194   7.862   2.323   0.376
 6144W        W10195   0.388   2.608  11.560
 6145W        W10196   8.551   6.580   0.362
 6146W        W10197   0.758   1.794   2.845
 6147W        W10198   0.894   8.090  10.289
 6148W        W10199   1.819   0.983  11.789
 6149W        W10200   4.095   9.421   9.474
 6150W        W10201   4.346   9.841   1.353
 6151W        W10202   6.199  11.431   2.163
 6152W        W10203   1.698  10.649  11.165
 6153W        W10204  10.546   9.958   0.274
 6154W        W10205   3.994   6.574   3.375
 6155W        W10206  11.147   3.038   0.430
 6156W        W10207   1.697   6.198  10.745
 6157W        W10208  10.934   8.550   9.864
 6158W        W10209  10.627  10.514   3.084
 6159W        W10210   5.310   2.192   1.168
 6160W        W10211   4.386   4.409   0.726
 6161W        W10212   6.910   2.922  10.793
 6162W        W10213   9.560  11.053   2.662
 6163W        W10214   6.842   3.827   9.929
 6164W        W10215   9.871   3.900   3.086
 6165W        W10216   6.005   2.753   2.389
 6166W        W10217   4.787   0.488   0.371
 6167W        W10218   1.815   1.175   0.279
 6168W        W10219   9.090   4.805   1.825
 6169W        W10220  10.282   0.367   1.886
 6170W        W10221   7.975   7.206   0.863
 6171W        W10222   6.976  10.885   3.138
 6172W        W10223   6.191   7.930  10.549
 6173W        W10224   9.459   9.467  10.439
 6174W        W10225   3.868   9.849   9.330
 6175W        W10226   8.576   8.052   9.939
 6176W        W10227   3.379   0.931  11.400
 6177W        W10228   3.885   5.898   8.737
 6178W        W10229   8.519   8.995   8.846
 6179W        W10230   7.103   4.171   1.362
 6180W        W10231  11.439  11.042   1.855
 6181W        W10232   3.847   8.774   2.784
 6182W        W10233   0.852   0.538   9.369
 6183W        W10234   8.892   0.818   1.459
 6184W        W10235   4.170   1.857  10.690
 6185W        W10236   6.431  10.318   1.131
 6186W        W10237   0.949  10.156   2.111
 6187W        W10238   6.957  10.460  10.359
 6188W        W10239   7.781   2.273   1.752
 6189W        W10240   4.671   1.630   1.742
 6190W        W10241   0.923   8.941   1.877
 6191W        W10242   5.046   3.756   2.321
 6192W        W10243   4.638   0.152   9.044
 6193W        W10244   8.170   3.706  10.532
 6194W        W10245  10.787   6.417  11.586
 6195W        W10246  10.776   5.990   8.690
 6196W        W10247   1.862   9.358   0.324
 6197W        W10248   7.288  10.519   0.727
 6198W        W10249   7.352   6.621   1.968
 6199W        W10250  11.394   3.451   0.177
 6200W        W10251   9.174  10.714   2.690
 6201W        W10252   7.429   9.580  11.392
 6202W        W10253   2.330   8.083  10.238
 6203W        W10254  11.468   4.306  11.228
 6204W        W10255   4.489   3.706   3.288
 6205W        W10256   8.852   4.239   0.922
 6206W        W10257   9.082   1.754   9.269
 6207W        W10258   1.347   2.351  10.680
 6208W        W10259   3.082   0.793   3.992
 6209W        W10260  11.070   5.999   1.956
 6210W        W10261   8.051   4.558   1.681
 6211W        W10262   6.740   9.986   9.157
 6212W        W10263   2.164   0.456  10.415
 6213W        W10264   2.346   2.836   1.531
 6214W        W10265   3.350   9.872  11.007
 6215W        W10266   5.046  10.344   8.835
 6216W        W10267   5.603   7.427   2.928
 6217W        W10268  11.117   4.018   8.877
 6218W        W10269   8.935   7.082   9.071
 6219W        W10270   1.517   7.313   1.424
 6220W        W10271   9.469   0.544   2.254
 6221W        W10272  10.980   5.269   0.927
 6222W        W10273   7.451   4.140   3.706
 6223W        W10274   5.082   9.550  10.567
 6224W        W10275   9.522   7.109   8.820
 6225W        W10276   9.399   8.874   2.457
 6226W        W10277  10.110   7.637   9.468
 6227W        W10278   4.642  10.714   0.821
 6228W        W10279  11.318   1.764   2.183
 6229W        W10280   7.286   6.775  10.028
 6230W        W10281   5.484   1.961  11.015
 6231W        W10282   6.597   9.504   0.028
 6232W        W10283   8.131   8.793   2.475
 6233W        W10284   7.082   7.504   1.811
 6234W        W10285   4.181   6.138   0.658
 6235W        W10286  10.784   3.984   2.379
 6236W        W10287   4.765   3.473  11.283
 6237W        W10288   9.357   5.069   9.494
 6238W        W10289  11.045   8.386   1.705
 6239W        W10290   7.906   8.274   1.784
 6240W        W10291   2.997   6.661   3.259
 6241W        W10292   0.857   9.669   3.366
 6242W        W10293  10.752   9.756   2.784
 6243W        W10294   2.225   5.745   2.746
 6244W        W10295   1.249   3.327   0.577
 6245W        W10296   3.414   2.879   1.292
 6246W        W10297   9.568   6.611   8.726
 6247W        W10298   7.437   6.228   1.637
 6248W        W10299  10.393   9.963  11.372
 6249W        W10300   2.547  10.444   9.189
 6250W        W10301   0.650   7.885  11.369
 6251W        W10302  11.388  10.318  10.643
 6252W        W10303   8.907  10.971  11.921
 6253W        W10304   4.706   6.732   2.036
 6254W        W10305   3.645   0.120   1.750
 6255W        W10306   8.967   3.578   3.392
 6256W        W10307   7.066   1.189   0.326
 6257W        W10308   4.653   9.356   3.063
 6258W        W10309   3.195  10.882   9.865
 6259W        W10310   3.974   5.819   9.953
 6260W        W10311   5.879   4.148   1.911
 6261W        W10312   5.497   9.849  10.474
 6262W        W10313   3.640   8.892   1.437
 6263W        W10314  11.424   0.235   9.042
 6264W        W10315   2.834   7.911  10.396
 6265W        W10316  11.024   1.655   8.783
 6266W        W10317   2.165   4.408   1.954
 6267W        W10318   9.394   7.200   8.320
 6268W        W10319   4.215   4.171   9.894
 6269W        W10320   1.386   9.959  10.749
 6270W        W10321   7.669   3.764   0.336
 6271W        W10322   9.390   6.203  10.007
 6272W        W10323  11.140   8.867   1.905
 6273W        W10324   8.648  10.855  11.328
 6274W        W10325   4.814   1.268   9.790
 6275W        W10326   7.541   4.510   2.358
 6276W        W10327   4.951   4.555   0.217
 6277W        W10328   9.149   1.310   9.530
 6278W        W10329  10.758   9.150  10.463
 6279W        W10330   0.621   7.876   3.645
 6280W        W10331   0.665   3.179   8.616
 6281W        W10332   2.152   8.422  11.273
 6282W        W10333  11.429  10.833  10.626
 6283W        W10334   4.998   3.529  10.051
 6284W        W10335   7.680   5.979  11.944
 6285W        W10336   4.327  11.447   1.241
 6286W        W10337   0.360   7.654  10.978
 6287W        W10338   1.657   7.451  10.490
 6288W        W10339   6.255   7.621   8.716
 6289W        W10340   7.114   8.675  10.312
 6290W        W10341   5.623  11.460   9.907
 6291W        W10342   8.537   1.934  10.440
 6292W        W10343   3.038  11.403  11.629
 6293W        W10344  11.013   2.156  10.176
 6294W        W10345   1.735   6.893   1.729
 6295W        W10346   3.399   0.242   9.903
 6296W        W10347  10.932   3.124   8.789
 6297W        W10348   8.396   1.793  11.960
 6298W        W10349   1.910   8.566   8.943
 6299W        W10350   4.187   7.457   2.244
 6300W        W10351   7.235   1.236   9.904
 6301W        W10352   4.220  11.028   9.809
 6302W        W10353   5.768   6.727  11.493
 6303W        W10354   5.163   5.540   0.754
 6304W        W10355   6.781   3.427   1.071
 6305W        W10356   0.504   5.175   2.513
 6306W        W10357  10.861  11.352   9.550
 6307W        W10358   7.482   9.611  11.940
 6308W        W10359   8.909   6.934   3.301
 6309W        W10360   9.563   0.972   2.561
 6310W        W10361   2.184   7.139   1.862
 6311W        W10362  10.978   5.124   1.914
 6312W        W10363   4.545   0.801   2.849
 6313W        W10364   0.298  10.553   9.191
 6314W        W10365   2.949   6.738  10.339
 6315W        W10366   1.975   4.789   8.533
 6316W        W10367   0.991  10.515   3.126
 6317W        W10368   9.803  10.970   9.434
 6318W        W10369   1.896   9.581  10.075
 6319W        W10370  11.335   2.706   0.054
 6320W        W10371   8.411   6.387   9.606
 6321W        W10372   8.065  10.945   8.631
 6322W        W10373   8.360   8.022   1.768
 6323W        W10374   2.155   6.745   3.128
 6324W        W10375   1.147   5.819   9.167
 6325W        W10376   2.731   5.086   9.530
 6326W        W10377   3.140   0.386  11.444
 6327W        W10378   1.784   5.974   0.186
 6328W        W10379   6.212  11.251   0.172
 6329W        W10380   0.471   9.937   1.330
 6330W        W10381   1.221  10.404  11.387
 6331W        W10382   0.435   5.284   3.503
 6332W        W10383   6.260   1.095   0.209
 6333W        W10384   0.034   1.305   2.874
 6334W        W10385   3.155  10.988   8.915
 6335W        W10386   5.560  11.436  10.828
 6336W        W10387   3.750  10.734   0.844
 6337W        W10388   5.073   5.048   0.032
 6338W        W10389   0.909   6.275   9.031
 6339W        W10390   0.813  10.236   3.547
 6340W        W10391   9.166   2.120  10.082
 6341W        W10392   0.223   5.637  11.218
 6342W        W10393   9.895   2.884   0.641
 6343W        W10394   8.553   8.498   3.019
 6344W        W10395  10.443   1.470   0.516
 6345W        W10396   6.144   6.919   0.398
 6346W        W10397   4.642  10.589   2.259
 6347W        W10398   1.800   7.243   9.781
 6348W        W10399  10.284   9.141   3.194
 6349W        W10400   9.953   1.806   9.280
 6350W        W10401   4.617  11.300  10.043
 6351W        W10402   7.025   1.068   8.898
 6352W        W10403   8.831   5.297   2.746
 6353W        W10404   2.666   1.728   3.182
 6354W        W10405   3.118   3.344   8.858
 6355W        W10406   0.833   4.841   9.996
 6356W        W10407   9.859   5.676  11.118
 6357W        W10408   2.673   9.585   8.942
 6358W        W10409   2.757   7.524   8.296
 6359W        W10410   3.149   6.264   0.790
 6360W        W10411   4.063   5.145   2.542
 6361W        W10412  10.364   7.916   1.918
 6362W        W10413   9.000   4.709   0.781
 6363W        W10414   7.100  10.327   1.897
 6364W        W10415   5.202   1.676   0.270
 6365W        W10416   7.047   2.458   0.803
 6366W        W10417   4.411   9.584   9.842
 6367W        W10418   5.652   3.597   1.175
 6368W        W10419   3.243   2.136   0.870
 6369W        W10420   2.340   8.915   0.956
 6370W        W10421  10.871   1.770  11.906
 6371W        W10422   7.901   8.904   8.768
 6372W        W10423   4.117   6.160  11.602
 6373W        W10424   2.037   9.320  10.954
 6374W        W10425   0.686   8.838   0.030
 6375W        W10426   7.383   5.548  11.984
 6376W        W10427   3.324   5.782   0.850
 6377W        W10428   0.474   6.201   2.207
 6378W        W10429   0.466   6.097  11.264
 6379W        W10430   1.794   6.033   1.177
 6380W        W10431   8.623   3.746   9.551
 6381W        W10432   9.602   5.255   9.901
 6382W        W10433   0.340   7.497   3.414
 6383W        W10434  10.520   0.441  11.189
 6384W        W10435  11.102   6.963   1.258
 6385W        W10436   3.427  10.010   0.444
 6386W        W10437   0.458   2.170   0.744
 6387W        W10438   3.480   5.245  10.182
 6388W        W10439   1.823   1.861   2.205
 6389W        W10440  10.793   7.039   3.552
 6390W        W10441   6.349   3.637  10.115
 6391W        W10442   0.837  10.546   8.504
 6392W        W10443   7.189   8.460   1.428
 6393W        W10444   3.344   4.414   0.564
 6394W        W10445   4.539   6.729  10.444
 6395W        W10446   6.486   4.693  10.984
 6396W        W10447   9.344  11.401   8.910
 6397W        W10448   8.367   7.412   3.254
 6398W        W10449  10.778   0.800   2.893
 6399W        W10450   9.501   9.180  11.415
 6400W        W10451   9.916   5.749   1.470
 6401W        W10452  10.708   7.625   0.993
 6402W        W10453   8.927  10.397  11.325
 6403W        W10454   5.232   1.655  10.289
 6404W        W10455   6.837   3.211   3.455
 6405W        W10456   0.237   5.565   8.776
 6406W        W10457   1.667   5.796  11.733
 6407W        W10458   9.008   0.286   2.325
 6408W        W10459   2.144   5.678   1.198
 6409W        W10460   1.461   2.380   0.584
 6410W        W10461  10.396   8.085   9.457
 6411W        W10462   0.466   0.774  10.985
 6412W        W10463  11.069  11.077   0.749
 6413W        W10464   1.919   2.721   0.703
 6414W        W10465   7.123  11.288  10.889
 6415W        W10466  10.264   9.602   0.918
 6416W        W10467   7.854   2.780  10.856
 6417W        W10468   5.544   6.219   0.646
 6418W        W10469   9.421   3.084   1.809
 6419W        W10470   6.041   8.480   8.989
 6420W        W10471   0.000   6.097  11.456
 6421W        W10472  10.931   0.456  11.563
 6422W        W10473   9.229   9.319   0.787
 6423W        W10474   5.158   9.432   0.527
 6424W        W10475   6.255   8.674   3.119
 6425W        W10476   5.557   4.524  10.976
 6426W        W10477   5.464   0.750   1.492
 6427W        W10478   9.306   2.311   2.988
 6428W        W10479   1.276   8.421   2.375
 6429W        W10480   4.248   3.105  11.955
 6430W        W10481   1.006   2.187   9.862
 6431W        W10482   1.819   7.801   0.376
 6432W        W10483   4.077   2.234   0.374
 6433W        W10484   2.816   8.517   9.127
 6434W        W10485   8.581  10.807   1.427
 6435W        W10486   7.937   8.897  10.579
 6436W        W10487   8.620   8.090   0.678
 6437W        W10488   6.998   7.945   2.087
 6438W        W10489   7.205   1.919   2.145
 6439W        W10490  11.262   3.245   2.288
 6440W        W10491   8.491   2.903   2.270
 6441W        W10492   4.204   9.593   3.200
 6442W        W10493   3.078   4.230   9.360
 6443W        W10494  10.417   1.625   9.465
 6444W        W10495   9.910   2.596  10.797
 6445W        W10496   2.811   9.698  10.438
 6446W        W10497   0.619   8.173   8.700
 6447W        W10498   3.722   8.680   8.221
 6448W        W10499   2.308   5.931  11.415
 6449W        W10500  11.440   7.988  10.329
 6450W        W10501  10.565   2.635  11.352
 6451W        W10502   3.924   9.577   9.946
 6452W        W10503   2.373   4.361   2.728
 6453W        W10504  11.282   6.526  11.748
 6454W        W10505  10.732  10.237   2.686
 6455W        W10506   9.325   5.253   2.908
 6456W        W10507   0.280   6.975   3.452
 6457W        W10508   5.506   0.277   9.143
 6458W        W10509   3.201   7.631   9.467
 6459W        W10510  11.477  10.763  11.552
 6460W        W10511   8.123   9.904   8.466
 6461W        W10512   1.085   1.906   1.904
 6462W        W10513   5.159   4.139  11.605
 6463W        W10514   5.685   5.256   2.264
 6464W        W10515   1.330   2.670   2.493
 6465W        W10516   9.967   1.270  10.538
 6466W        W10517   9.838   0.700  10.052
 6467W        W10518   4.046   8.460   2.425
 6468W        W10519   8.828   0.531   0.351
 6469W        W10520   8.969   4.595  10.462
 6470W        W10521   4.964   2.142   2.769
 6471W        W10522   8.237  10.022  11.410
 6472W        W10523  10.704   9.478   0.165
 6473W        W10524   1.538   0.679  10.856
 6474W        W10525   7.419   6.581  10.948
 6475W        W10526   8.520   6.544   3.665
 6476W        W10527   3.889   3.032   3.167
 6477W        W10528   9.441   0.151  11.811
 6478W        W10529   8.384   8.609  11.441
 6479W        W10530   4.762   5.691   1.045
 6480W        W10531   0.635  10.475   2.775
 6481W        W10532  10.478   6.536   8.812
 6482W        W10533   0.463   3.661   0.676
 6483W        W10534   0.684   2.168   9.440
 6484W        W10535   1.258   0.737   2.367
 6485W        W10536  10.552   9.296  11.696
 6486W        W10537   4.902   8.365   3.384
 6487W        W10538   7.612   7.517   9.900
 6488W        W10539   1.678   1.965  10.923
 6489W        W10540   4.633   7.574   0.102
 6490W        W10541   0.805  10.191  11.651
 6491W        W10542   2.113   3.312   0.721
 6492W        W10543   0.472  11.420   1.447
 6493W        W10544   1.861   5.532  11.331
 6494W        W10545   4.924   4.088   1.954
 6495W        W10546   3.781   7.038   1.003
 6496W        W10547  10.642   5.867   2.850
 6497W        W10548   8.213   4.374   0.296
 6498W        W10549   0.807   8.881   9.721
 6499W        W10550   7.383  11.296   3.131
 6500W        W10551   9.103   1.858   0.610
 6501W        W10552   9.496  11.269   3.417
 6502W        W10553   2.729   7.664   1.191
 6503W        W10554   6.963   5.013   1.656
 6504W        W10555  11.403   3.407   0.684
 6505W        W10556   2.473   7.086   1.077
 6506W        W10557   0.308   0.667   0.640
 6507W        W10558   5.257   9.956   9.617
 6508W        W10559   3.606   3.037   1.906
 6509W        W10560   5.668   5.338   0.791
 6510W        W10561   7.396   9.408   2.408
 6511W        W10562   1.488   2.319  10.196
 6512W        W10563   3.627   6.555   8.571
 6513W        W10564   2.057   7.437   2.363
 6514W        W10565  11.264  10.047   2.722
 6515W        W10566   4.571   1.354   2.250
 6516W        W10567   6.968   4.189   0.018
 6517W        W10568   0.722   5.357   9.993
 6518W        W10569   6.683   1.703  11.192
 6519W        W10570   8.507  11.293   3.153
 6520W        W10571   7.138   1.998   0.625
 6521W        W10572   1.442   0.715   0.036
 6522W        W10573   7.771   9.926  11.221
 6523W        W10574   4.105   0.457  11.993
 6524W        W10575   8.085   8.195   9.967
 6525W        W10576   0.350   6.499   3.795
 6526W        W10577   4.542   5.739  11.497
 6527W        W10578   4.022  10.528   9.756
 6528W        W10579   5.666   2.342  10.742
 6529W        W10580   8.890   9.290   9.300
 6530W        W10581   1.873   6.951   2.238
 6531W        W10582   0.398  10.818  11.826
 6532W        W10583   3.059  10.863  11.273
 6533W        W10584   0.805   9.962  10.566
 6534W        W10585   2.544   5.365   8.152
 6535W        W10586   6.629   6.703  11.295
 6536W        W10587   3.187   3.291  10.929
 6537W        W10588  10.837  10.305  11.781
 6538W        W10589   1.256  11.172   2.725
 6539W        W10590   3.760  10.955  10.522
 6540W        W10591   7.575   1.971  11.389
 6541W        W10592   4.028  11.455  11.822
 6542W        W10593   0.878   0.830   1.297
 6543W        W10594   1.881   8.627   9.476
 6544W        W10595   3.639   6.178   0.986
 6545W        W10596   9.774   1.693  10.746
 6546W        W10597   3.281   5.603  11.967
 6547W        W10598   0.595   7.260   2.162
 6548W        W10599   5.794   7.004   2.664
 6549W        W10600   9.773  11.414  11.488
 6550W        W10601   5.277   6.689   1.365
 6551W        W10602   6.228   4.140   4.107
 6552W        W10603   1.558   5.966  11.256
 6553W        W10604   6.572   6.907   1.215
 6554W        W10605   7.136   7.652  10.435
 6555W        W10606   6.525   7.744  10.980
 6556W        W10607   4.193  10.997   2.957
 6557W        W10608   7.088   0.834  10.791
 6558W        W10609   5.947  11.494   9.457
 6559W        W10610   5.869   9.532   9.858
 6560W        W10611   3.802   8.957   2.312
 6561W        W10612   4.165   6.241   3.749
 6562W        W10613   1.274   2.796   0.368
 6563W        W10614  10.557   2.373  10.039
 6564W        W10615   0.337  11.453   2.799
 6565W        W10616   0.353   7.252   1.698
 6566W        W10617   3.181   2.115  11.962
 6567W        W10618   2.891   2.798  11.411
 6568W        W10619   5.477   9.237   3.197
 6569W        W10620   9.952   8.396   2.395
 6570W        W10621  10.858  11.145   1.666
 6571W        W10622   1.720   9.200   3.294
 6572W        W10623   2.335  11.093  10.463
 6573W        W10624   7.486   0.969   0.566
 6574W        W10625   1.634   1.318  11.434
 6575W        W10626   6.669   3.128   2.449
 6576W        W10627   2.141   6.569   8.672
 6577W        W10628   2.857   6.233  10.607
 6578W        W10629   4.191   3.538  10.760
 6579W        W10630   6.443   3.171   8.471
 6580W        W10631   2.298   2.465  10.563
 6581W        W10632   1.612   7.041   9.367
 6582W        W10633  11.247   7.626   2.695
 6583W        W10634   9.254   0.676   0.567
 6584W        W10635   1.741   8.656   2.283
 6585W        W10636   5.120  11.299   9.878
 6586W        W10637   2.211   9.477   9.146
 6587W        W10638  10.022   3.359   1.883
 6588W        W10639   8.776   3.360  11.963
 6589W        W10640   4.245   0.075   9.851
 6590W        W10641   9.866   2.447   1.843
 6591W        W10642  10.947   8.194   0.733
 6592W        W10643   9.716   0.688   0.353
 6593W        W10644   5.175   5.968   0.998
 6594W        W10645   7.745   4.554   9.023
 6595W        W10646   3.242   2.637   0.859
 6596W        W10647   5.215   6.081  10.327
 6597W        W10648  10.008   8.146  11.786
 6598W        W10649   6.122   0.959   0.862
 6599W        W10650   1.954   3.407  10.951
 6600W        W10651  10.204   6.104   0.744
 6601W        W10652   8.989   7.864  11.524
 6602W        W10653   1.381   1.943   3.292
 6603W        W10654   6.562   8.647   1.827
 6604W        W10655   6.303   7.179   8.965
 6605W        W10656  10.800   0.758   9.072
 6606W        W10657   2.757   8.857   9.534
 6607W        W10658  11.259   8.591   0.712
 6608W        W10659   3.547   4.102   0.943
 6609W        W10660   4.044   6.179   0.134
 6610W        W10661   4.401   1.777   0.699
 6611W        W10662   6.197   0.291  10.803
 6612W        W10663   4.099  11.453   0.787
 6613W        W10664   7.603   8.906   0.635
 6614W        W10665   2.009   3.015  11.728
 6615W        W10666   8.148   2.841  10.402
 6616W        W10667   1.306   3.609  11.702
 6617W        W10668   4.536   3.415  10.401
 6618W        W10669   4.877   7.145  11.384
 6619W        W10670   5.652   6.323  10.165
 6620W        W10671   7.471   3.872   1.580
 6621W        W10672   0.155   5.652   0.602
 6622W        W10673  10.292   8.572  10.093
 6623W        W10674   7.173   3.121   1.977
 6624W        W10675   6.010   2.370   9.488
 6625W        W10676   4.618   1.449   9.370
 6626W        W10677   4.483   4.698   3.249
 6627W        W10678  10.084   7.461  10.312
 6628W        W10679  10.061  10.922   0.788
 6629W        W10680  11.357   5.254  11.104
 6630W        W10681   4.801   1.327  10.309
 6631W        W10682   0.832   3.509   9.542
 6632W        W10683   5.765   4.369   0.683
 6633W        W10684  10.169   7.520   1.624
 6634W        W10685   8.705   1.266   9.770
 6635W        W10686   3.252   8.604   0.224
 6636W        W10687   5.912   1.640  11.043
 6637W        W10688   5.049   1.806   4.142
 6638W        W10689   7.003   1.302   1.191
 6639W        W10690   7.878   5.228   9.462
 6640W        W10691   0.456   3.773   2.816
 6641W        W10692   8.083  11.379  10.874
 6642W        W10693   1.915   5.248   8.956
 6643W        W10694   1.357   2.831  10.357
 6644W        W10695   8.149  11.322   9.977
 6645W        W10696   9.207   0.385   3.268
 6646W        W10697   0.426  11.219   0.173
 6647W        W10698   8.656  11.276  10.219
 6648W        W10699   2.697   6.561   8.746
 6649W        W10700  10.523   0.698  10.675
 6650W        W10701   5.754   7.703   4.062
 6651W        W10702   3.327   3.324  11.416
 6652W        W10703   4.086  10.359  10.789
 6653W        W10704   9.020   3.313   9.032
 6654W        W10705   6.198   5.700   2.736
 6655W        W10706   4.982   8.126   9.191
 6656W        W10707   9.254   5.934  10.419
 6657W        W10708  10.363   4.138   3.113
 6658W        W10709   3.423   7.398   3.005
 6659W        W10710   7.625   2.115  11.887
 6660W        W10711   3.114   1.383  11.369
 6661W        W10712  10.751  11.280   9.057
 6662W        W10713  10.357   0.979   3.183
 6663W        W10714   4.123   1.248  10.381
 6664W        W10715   5.891  10.899   2.470
 6665W        W10716   2.017  10.357   9.188
 6666W        W10717   1.376   3.714  10.695
 6667W        W10718   1.735   4.619   0.416
 6668W        W10719   4.253   1.214   1.856
 6669W        W10720   9.033   8.977   9.842
 6670W        W10721   1.296   4.569  10.814
 6671W        W10722   4.252   2.775   1.556
 6672W        W10723   0.722   4.151   1.210
 6673W        W10724   9.245  10.340   3.740
 6674W        W10725  10.727   6.067   1.563
 6675W        W10726   2.130  10.589   1.803
 6676W        W10727  11.219   0.738   3.155
 6677W        W10728   0.558   1.868  11.163
 6678W        W10729   1.892  10.007   1.479
 6679W        W10730   7.604   6.218  10.196
 6680W        W10731   4.374   6.657  11.799
 6681W        W10732   0.084   1.683  11.237
 6682W        W10733   7.611  10.328  10.959
 6683W        W10734   7.588   8.018  10.647
 6684W        W10735   3.797   5.017   9.326
 6685W        W10736   5.124   0.293   1.309
 6686W        W10737   1.233   5.931  10.859
 6687W        W10738   9.831   8.917   3.300
 6688W        W10739   7.647   5.485   0.914
 6689W        W10740   2.194   8.804   2.489
 6690W        W10741   7.570   1.916   9.228
 6691W        W10742   9.300   4.827  10.070
 6692W        W10743   7.159   7.451   9.033
 6693W        W10744  10.889  10.955   3.052
 6694W        W10745   7.971   2.358   9.721
 6695W        W10746   3.708   6.626  10.806
 6696W        W10747   7.915  10.988   3.372
 6697W        W10748   3.927  10.277  11.343
 6698W        W10749   5.403   8.473  10.939
 6699W        W10750   0.593   9.070  10.193
 6700W        W10751   0.263   3.194   2.282
 6701W        W10752   6.076   2.545  10.960
 6702W        W10753  10.622   8.401   1.350
 6703W        W10754   3.217  11.481   9.188
 6704W        W10755  10.132   4.243   9.122
 6705W        W10756   6.805   1.778   2.432
 6706W        W10757   0.826   4.580  10.475
 6707W        W10758   5.773   2.856   2.833
 6708W        W10759   9.965   2.725   0.167
 6709W        W10760   3.896   7.259   2.824
 6710W        W10761  10.099   0.296   3.464
 6711W        W10762   7.390   1.043   2.392
 6712W        W10763   7.952   3.306  11.130
 6713W        W10764   0.809   7.390   0.811
 6714W        W10765   1.869   3.111  10.145
 6715W        W10766   1.803   6.430   0.401
 6716W        W10767   5.563   1.895  11.991
 6717W        W10768   2.358   9.582  10.650
 6718W        W10769   6.174   2.504  11.499
 6719W        W10770   4.519   6.115   1.288
 6720W        W10771   4.754  11.478   0.399
 6721W        W10772   9.036   7.384  10.398
 6722W        W10773   1.650  11.004  11.541
 6723W        W10774   4.166   9.515  11.491
 6724W        W10775   6.252   8.729   2.211
 6725W        W10776   3.645   0.895  10.408
 6726W        W10777   0.944   6.275  11.824
 6727W        W10778   8.822   7.610   8.840
 6728W        W10779   5.354   4.450   0.976
 6729W        W10780  10.025   3.283   8.753
 6730W        W10781   8.056   1.913  11.570
 6731W        W10782   9.630   9.400   3.222
 6732W        W10783   5.624   4.605   1.926
 6733W        W10784   5.837   7.065   9.164
 6734W        W10785   3.405   1.942   2.168
 6735W        W10786   8.439   5.942   9.879
 6736W        W10787   8.373   8.397   9.551
 6737W        W10788   0.223   4.066   1.362
 6738W        W10789   6.122   1.598   9.064
 6739W        W10790   4.784   7.974   1.133
 6740W        W10791   8.951   9.163   3.599
 6741W        W10792   9.992   7.970   1.514
 6742W        W10793   6.824  10.885   2.201
 6743W        W10794   9.469   3.370   8.730
 6744W        W10795   8.532   0.199   3.788
 6745W        W10796   2.954   0.709   0.292
 6746W        W10797   6.027   2.150   9.942
 6747W        W10798   4.938   2.638   1.789
 6748W        W10799   7.044   8.672   9.501
 6749W        W10800   7.802  10.382  11.438
 6750W        W10801   5.695   0.754   2.728
 6751W        W10802  11.365   5.212   9.895
 6752W        W10803   7.438  10.034  11.611
 6753W        W10804   7.117  11.181   1.311
 6754W        W10805  11.407   3.822  11.371
 6755W        W10806   9.872   9.997  11.929
 6756W        W10807   7.121   8.905   0.468
 6757W        W10808   2.166   4.977  11.735
 6758W        W10809   4.734   8.921   2.802
 6759W        W10810   2.692   9.497   1.707
 6760W        W10811  10.750   7.711   2.264
 6761W        W10812   1.752   2.684   9.877
 6762W        W10813   5.384   9.373   9.894
 6763W        W10814   2.316  10.012  11.409
 6764W        W10815  11.430   8.106   0.908
 6765W        W10816   8.209   1.218   0.639
 6766W        W10817   9.967   7.598   0.322
 6767W        W10818   5.085   7.241  10.893
 6768W        W10819   3.543   6.897   2.801
 6769W        W10820   8.630   3.031   1.243
 6770W        W10821   7.775   3.602   1.260
 6771W        W10822   1.372   7.169  11.547
 6772W        W10823   0.900   3.789   0.420
 6773W        W10824   2.794   2.851   0.987
 6774W        W10825  10.315  11.005  11.848
 6775W        W10826   6.506   2.351  10.757
 6776W        W10827   9.452   6.951   9.692
 6777W        W10828   4.770   9.900  10.964
 6778W        W10829   6.601   0.802   3.879
 6779W        W10830  10.524   7.274   1.347
 6780W        W10831  11.364   0.161   9.563
 6781W        W10832   5.204   9.009  10.743
 6782W        W10833   2.344   1.956  10.527
 6783W        W10834   5.083   9.345   2.431
 6784W        W10835   3.157   5.110   3.802
 6785W        W10836  11.304   5.276   0.509
 6786W        W10837   8.166   5.993   8.448
 6787W        W10838   9.765   0.497   1.825
 6788W        W10839  10.482   3.859  10.893
 6789W        W10840   1.168   6.697   8.702
 6790W        W10841   2.120   7.589   3.671
 6791W        W10842   4.490   1.449  10.685
 6792W        W10843   6.057   7.522  10.249
 6793W        W10844   2.708   7.521   9.331
 6794W        W10845   4.370  10.714   9.390
 6795W        W10846   4.796   7.160  10.345
 6796W        W10847   7.923  10.332   1.559
 6797W        W10848   7.980   1.237   1.422
 6798W        W10849   7.139   6.781   2.698
 6799W        W10850   9.168   8.431   1.274
 6800W        W10851   5.772   2.634   0.454
 6801W        W10852   1.885   2.161  10.490
 6802W        W10853   3.025   2.499  11.025
 6803W        W10854  10.422   7.453   3.006
 6804W        W10855  11.059   0.413   1.412
 6805W        W10856   5.924   4.306  11.371
 6806W        W10857   7.507   5.352   1.376
 6807W        W10858   7.148   9.527   2.871
 6808W        W10859   9.366   8.874   1.508
 6809W        W10860   5.650  10.741   3.450
 6810W        W10861   7.901   2.368   9.217
 6811W        W10862   3.675   7.049   0.027
 6812W        W10863   2.267  11.080   1.847
 6813W        W10864  11.422   0.504   0.946
 6814W        W10865   3.280   8.888   1.034
 6815W        W10866   7.347   6.985   8.842
 6816W        W10867   8.906   7.630   9.968
 6817W        W10868  10.506   9.063   8.714
 6818W        W10869   4.830   6.651  11.280
 6819W        W10870   0.393   4.879   1.630
 6820W        W10871   2.424   6.451  11.487
 6821W        W10872   9.451   9.767   2.884
 6822W        W10873   8.815   5.749  11.907
 6823W        W10874  10.889   0.348   9.429
 6824W        W10875   4.993   7.490   0.951
 6825W        W10876   2.373  10.302   0.887
 6826W        W10877  10.319   6.270   1.265
 6827W        W10878   5.306   9.813   0.224
 6828W        W10879  11.267   4.688   3.288
 6829W        W10880   5.230   0.802  11.772
 6830W        W10881   5.158   2.645   3.624
 6831W        W10882   5.746   4.112  10.742
 6832W        W10883   9.377  10.266   2.857
 6833W        W10884   1.845   7.807   2.702
 6834W        W10885  10.774   7.116   0.900
 6835W        W10886   9.873   4.727   0.205
 6836W        W10887   9.954   1.196   2.081
 6837W        W10888   3.196   4.754   0.916
 6838W        W10889   2.957   3.431  11.749
 6839W        W10890   0.661  10.443   0.075
 6840W        W10891   6.680   8.672   2.731
 6841W        W10892   8.477   9.479  10.130
 6842W        W10893   1.805   5.552   3.004
 6843W        W10894  11.394   2.864   2.709
 6844W        W10895   5.480  11.313   9.406
 6845W        W10896   8.968   9.868   0.809
 6846W        W10897   8.398   3.479  10.919
 6847W        W10898   6.545   1.662  10.191
 6848W        W10899   0.827   5.321  11.886
 6849W        W10900   2.694   8.162   1.294
 6850W        W10901   9.377   4.232  10.362
 6851W        W10902   7.493   6.695   0.322
 6852W        W10903  10.005   3.777   1.116
 6853W        W10904   2.175   7.414  10.579
 6854W        W10905   9.237   7.920   9.734
 6855W        W10906   8.469   9.891   9.826
 6856W        W10907   2.677   3.784  11.980
 6857W        W10908   1.002   0.732  10.853
 6858W        W10909  10.534  10.319   9.622
 6859W        W10910   6.245   1.295   8.668
 6860W        W10911   0.505   6.029   3.089
 6861W        W10912   0.810   4.557   9.534
 6862W        W10913   7.483   1.417   1.416
 6863W        W10914   9.406   5.828  11.319
 6864W        W10915  10.852   1.333  11.623
 6865W        W10916   8.874   4.785  11.783
 6866W        W10917   2.471   3.307  10.878
 6867W        W10918   6.375   1.371  10.930
 6868W        W10919   7.469   7.381   0.814
 6869W        W10920   1.329  10.915   2.293
 6870W        W10921   8.937   7.437   3.327
 6871W        W10922   5.509  10.513   2.475
 6872W        W10923   4.129  10.367  11.816
 6873W        W10924   1.336   1.819   9.961
 6874W        W10925   3.798   4.145   2.802
 6875W        W10926   5.044   6.042  11.985
 6876W        W10927   9.449   8.400   2.658
 6877W        W10928   7.642   5.531   2.211
 6878W        W10929   1.197  10.047   3.279
 6879W        W10930   5.521   7.504   0.916
 6880W        W10931  10.417  10.040   3.118
 6881W        W10932   4.263   5.227   0.544
 6882W        W10933   4.239   2.193   9.322
 6883W        W10934   8.900   7.141   2.804
 6884W        W10935   5.796   3.678  11.498
 6885W        W10936   7.918   2.759   1.703
 6886W        W10937   3.191   2.333  11.496
 6887W        W10938   7.503  10.027   1.821
 6888W        W10939   2.343   6.658   9.132
 6889W        W10940   9.020   9.551   1.709
 6890W        W10941   4.126  10.283   9.294
 6891W        W10942   3.185   6.178   1.793
 6892W        W10943   1.680   8.139  11.466
 6893W        W10944   6.137   0.216   1.378
 6894W        W10945   2.943   3.321   2.281
 6895W        W10946   4.175  11.452   8.904
 6896W        W10947   8.941   8.719   3.290
 6897W        W10948   7.165   8.152  10.349
 6898W        W10949   7.259   2.235   1.200
 6899W        W10950  10.079   8.092   9.888
 6900W        W10951   5.668   1.772   0.490
 6901W        W10952   0.806  11.363  10.899
 6902W        W10953   0.690  10.730   9.469
 6903W        W10954   3.315  11.237   2.603
 6904W        W10955   0.299   7.883   9.030
 6905W        W10956   2.015   7.598  10.131
 6906W        W10957   4.700   1.906  10.515
 6907W        W10958   7.567  10.441   1.185
 6908W        W10959   5.273   8.862   9.880
 6909W        W10960   7.162   5.345   0.714
 6910W        W10961   8.020   7.450   0.419
 6911W        W10962   5.601   3.117   0.402
 6912W        W10963  10.942   8.949  10.979
 6913W        W10964   3.662  10.416   9.422
 6914W        W10965   8.036   6.344   9.262
 6915W        W10966  10.286   1.984  10.575
 6916W        W10967   2.863   5.663   3.794
 6917W        W10968   6.094   0.262   0.054
 6918W        W10969   2.373   0.915  11.255
 6919W        W10970   8.124  10.318  11.009
 6920W        W10971   2.670  10.176  10.487
 6921W        W10972   1.436   1.509  10.815
 6922W        W10973   9.531   0.332  11.331
 6923W        W10974   7.151   9.194   9.081
 6924W        W10975   3.338   5.242   0.939
 6925W        W10976   9.895   7.206   0.018
 6926W        W10977   7.480   1.801   0.966
 6927W        W10978   6.906   7.412  10.815
 6928W        W10979  11.223   4.729  11.429
 6929W        W10980   9.239   7.602   2.056
 6930W        W10981   2.858   9.954  10.915
 6931W        W10982   7.398  10.087   3.652
 6932W        W10983  10.817   5.523   0.372
 6933W        W10984  10.455   8.839  10.757
 6934W        W10985   0.861  11.492   2.761
 6935W        W10986  11.053   3.355  11.291
 6936W        W10987  10.720   5.136   2.772
 6937W        W10988   4.262  10.024   0.169
 6938W        W10989   8.085  11.063  11.406
 6939W        W10990   0.281   6.746   9.638
 6940W        W10991   9.747   9.475   9.638
 6941W        W10992   7.347   2.448  10.399
 6942W        W10993   5.264   4.345   3.163
 6943W        W10994   2.666  11.337   9.867
 6944W        W10995   3.458   0.994  10.875
 6945W        W10996   1.639   5.705   9.004
 6946W        W10997   1.655   4.035   9.133
 6947W        W10998   8.425   9.247   1.434
 6948W        W10999   3.390   4.707   1.501
 6949W        W11000   1.607   6.871   1.190
 6950W        W11001   6.800   8.817   9.927
 6951W        W11002   9.840   9.475   1.206
 6952W        W11003   9.019   9.979   1.428
 6953W        W11004   3.126   3.830   2.330
 6954W        W11005   7.356   2.662  10.854
 6955W        W11006   8.442   5.229  10.450
 6956W        W11007   8.360   8.546   0.888
 6957W        W11008   7.484   5.654   0.465
 6958W        W11009  11.379   0.347   3.474
 6959W        W11010   8.035   0.729   1.344
 6960W        W11011   0.471   4.017  10.898
 6961W        W11012  10.903   2.463  10.960
 6962W        W11013   6.529   7.662   9.634
 6963W        W11014   4.297   1.340   8.958
 6964W        W11015   6.079   5.031   9.578
 6965W        W11016   5.255   1.653   1.239
 6966W        W11017   5.801  10.003   9.106
 6967W        W11018   6.353  11.424  10.441
 6968W        W11019   4.376   5.612   1.369
 6969W        W11020   8.854   0.963  11.939
 6970W        W11021   3.339   2.200   8.759
 6971W        W11022   9.907   5.977   8.832
 6972W        W11023   7.518   1.703  10.949
 6973W        W11024   3.801  11.423   9.999
 6974W        W11025  10.250   5.330  10.991
 6975W        W11026   7.483   1.302   1.920
 6976W        W11027   9.825   7.515   2.283
 6977W        W11028   5.534   8.548  11.992
 6978W        W11029   5.801  11.028   9.676
 6979W        W11030   6.194   4.109   9.927
 6980W        W11031   5.493  11.423  11.753
 6981W        W11032   8.526   0.799   0.704
 6982W        W11033   5.731   8.900   9.079
 6983W        W11034   9.556  11.277   9.776
 6984W        W11035   2.778   0.700   3.163
 6985W        W11036   4.527   9.273  10.231
 6986W        W11037   6.652   5.176  11.055
 6987W        W11038   4.775   3.285   2.302
 6988W        W11039   2.453   5.174   9.947
 6989W        W11040  11.254   6.518   1.859
 6990W        W11041   2.865   1.943   2.173
 6991W        W11042   3.726   6.235  10.181
 6992W        W11043  11.274   7.371  10.137
 6993W        W11044   4.688  11.408   3.460
 6994W        W11045  10.313   2.048   1.187
 6995W        W11046   9.528   0.436   8.980
 6996W        W11047   8.318   0.682   9.824
 6997W        W11048   4.030  10.226   3.817
 6998W        W11049   1.211   4.566  11.701
 6999W        W11050   5.112   7.109   9.932
 7000W        W11051   6.330  11.165   0.646
 7001W        W11052   2.670   1.379  11.766
 7002W        W11053  10.324   9.525   8.485
 7003W        W11054   9.050   2.809   8.882
 7004W        W11055   1.898   0.109   8.983
 7005W        W11056   7.557   1.018   8.934
 7006W        W11057   3.796   2.882  11.840
 7007W        W11058   6.939   4.060   9.469
 7008W        W11059   2.715   2.955  10.075
 7009W        W11060   0.323   4.047   9.873
 7010W        W11061  10.218   1.922   0.711
 7011W        W11062   1.842  10.798   3.126
 7012W        W11063   8.983   4.129  10.683
 7013W        W11064   2.086   6.343   3.467
 7014W        W11065   2.760  11.225   1.685
 7015W        W11066  10.297   5.701   0.381
 7016W        W11067  10.831   1.337   1.552
 7017W        W11068   9.876   1.174   0.418
 7018W        W11069   1.032   7.047   0.460
 7019W        W11070   0.919   5.021   2.772
 7020W        W11071   7.288   7.151  10.578
 7021W        W11072  11.427   1.034   0.907
 7022W        W11073   2.914  11.295   0.123
 7023W        W11074   5.774   6.672   2.250
 7024W        W11075   1.868   0.871  11.288
 7025W        W11076   4.107   8.369  11.233
 7026W        W11077   7.357   2.353   0.295
 7027W        W11078   0.849   4.655   0.462
 7028W        W11079   1.330   9.809   8.854
 7029W        W11080   8.618   2.958   9.138
 7030W        W11081   6.674   8.984   3.364
 7031W        W11082   4.294   5.650   0.847
 7032W        W11083   6.049   3.701  10.699
 7033W        W11084   5.531   6.281   1.163
 7034W        W11085   4.973   3.658   8.668
 7035W        W11086   5.993   9.960   9.588
 7036W        W11087   6.483  10.881   1.817
 7037W        W11088  11.275   1.712   2.688
 7038W        W11089   7.622   2.775   0.431
 7039W        W11090   0.315   8.122   2.214
 7040W        W11091   9.047   4.643   9.106
 7041W        W11092   1.351  10.802   8.871
 7042W        W11093   7.829   0.221   2.217
 7043W        W11094   3.405   8.972   0.543
 7044W        W11095   7.966   3.655   0.786
 7045W        W11096   5.131   9.763  10.094
 7046W        W11097   8.842   0.885   1.957
 7047W        W11098  10.034  11.017   2.926
 7048W        W11099   5.648   1.273   3.496
 7049W        W11100   5.989   8.929  11.492
 7050W        W11101   5.643   4.685   2.427
 7051W        W11102   8.397   0.768   0.195
 7052W        W11103   8.025   5.808   3.654
 7053W        W11104   0.630   0.905   9.058
 7054W        W11105   2.842   4.217  11.712
 7055W        W11106  11.208   5.988   2.820
 7056W        W11107   7.498   8.059   1.567
 7057W        W11108   5.354   0.318  10.506
 7058W        W11109   5.686   6.579   9.142
 7059W        W11110   7.887   7.863   2.099
 7060W        W11111   8.884  10.420  10.336
 7061W        W11112   7.922  10.770  11.782
 7062W        W11113  10.989   0.311   0.517
 7063W        W11114   3.542   4.001  10.595
 7064W        W11115  10.192   1.466   0.954
 7065W        W11116   9.993   6.506  10.416
 7066W        W11117   4.177   2.740   3.496
 7067W        W11118   6.599   1.789   8.926
 7068W        W11119   5.718   8.182   9.504
 7069W        W11120   3.202   9.376   1.811
 7070W        W11121   7.547  11.456   1.195
 7071W        W11122   1.791   8.689   3.234
 7072W        W11123   7.330   8.351  11.786
 7073W        W11124   6.797  10.380  11.308
 7074W        W11125   0.851   8.533  10.781
 7075W        W11126   5.734  11.449   0.232
 7076W        W11127   6.733   6.343  11.761
 7077W        W11128   9.694   8.212   3.682
 7078W        W11129   5.771   8.814   0.948
 7079W        W11130  10.532   5.539   0.849
 7080W        W11131   9.132  10.451   3.241
 7081W        W11132   7.884  10.977   9.650
 7082W        W11133   6.642  10.888   9.240
 7083W        W11134   2.452   7.053  10.333
 7084W        W11135  10.755   0.328   0.055
 7085W        W11136   6.661   9.111  10.857
 7086W        W11137   4.067   2.835   2.036
 7087W        W11138   8.148   9.880   1.367
 7088W        W11139   5.088   4.505   2.233
 7089W        W11140   0.861   4.159   1.702
 7090W        W11141   6.902   2.513   9.989
 7091W        W11142   2.651   4.956  10.394
 7092W        W11143   8.274   0.359  11.854
 7093W        W11144   7.637   9.029   9.215
 7094W        W11145   3.721   5.749   0.184
 7095W        W11146  10.358   6.096   3.251
 7096W        W11147   0.017  10.809   1.391
 7097W        W11148   4.711   0.332   9.920
 7098W        W11149   5.988   3.376   8.554
 7099W        W11150   8.411  10.534   0.917
 7100W        W11151   4.733   4.135   0.443
 7101W        W11152  11.489   1.815   1.190
 7102W        W11153  10.803   7.354   2.613
 7103W        W11154   5.547   9.426   8.972
 7104W        W11155   1.426   9.156   0.165
 7105W        W11156   9.371   0.456  10.343
 7106W        W11157   2.640   7.047  11.223
 7107W        W11158   2.849  10.933  11.753
 7108W        W11159   2.138   7.344   9.402
 7109W        W11160   1.679   9.600   0.762
 7110W        W11161   0.963  10.124  11.028
 7111W        W11162   9.989   2.865  11.683
 7112W        W11163   2.359   1.546   9.622
 7113W        W11164   8.588   3.365   1.618
 7114W        W11165   0.123  10.513   2.797
 7115W        W11166  11.407   8.460   2.257
 7116W        W11167   8.465   7.092   9.406
 7117W        W11168   5.231   1.694   2.663
 7118W        W11169   9.856   6.129   3.096
 7119W        W11170   7.958   6.970   3.118
 7120W        W11171   6.983   6.574   8.783
 7121W        W11172   1.754   6.469   0.902
 7122W        W11173   6.534   1.832  10.683
 7123W        W11174   2.726   5.747  10.736
 7124W        W11175   6.070  11.299  10.848
 7125W        W11176   1.132   5.713  10.045
 7126W        W11177   1.271   8.859  10.004
 7127W        W11178   5.066   2.969   0.912
 7128W        W11179   0.748   6.505  11.351
 7129W        W11180   8.475   1.141   1.631
 7130W        W11181   7.849   7.404   2.338
 7131W        W11182   2.807   2.572   3.343
 7132W        W11183   5.559   1.339  11.836
 7133W        W11184   2.021   7.669  11.427
 7134W        W11185   8.444   0.745  11.157
 7135W        W11186   0.459   6.732  10.528
 7136W        W11187   1.949  11.133   1.156
 7137W        W11188   0.262  11.110  10.281
 7138W        W11189   4.019   4.545   9.536
 7139W        W11190  10.879   9.033   0.021
 7140W        W11191   5.126   5.570  11.762
 7141W        W11192   9.852   5.270   3.042
 7142W        W11193   6.576   9.611   8.471
 7143W        W11194  10.039   1.788   9.776
 7144W        W11195   4.691   5.710   0.534
 7145W        W11196   1.341   8.385  10.194
 7146W        W11197   8.384  11.298   9.280
 7147W        W11198   3.139   1.018  10.094
 7148W        W11199   8.690   5.839   8.235
 7149W        W11200   3.559   4.179   9.202
 7150W        W11201   2.349  10.044  10.878
 7151W        W11202   1.763   5.028   9.397
 7152W        W11203   8.070   6.003  10.235
 7153W        W11204   6.981   0.955   2.119
 7154W        W11205   5.248   0.890   2.945
 7155W        W11206   4.607   3.209   0.817
 7156W        W11207   3.499   0.040  11.413
 7157W        W11208   8.049   0.063  11.395
 7158W        W11209   4.599   0.330   8.557
 7159W        W11210   8.510   7.648   0.397
 7160W        W11211  10.320   2.700   1.383
 7161W        W11212   8.572   1.180  11.371
 7162W        W11213   5.357  11.434   3.199
 7163W        W11214   4.878   0.671   3.211
 7164W        W11215  10.055   8.479   9.369
 7165W        W11216   4.131   1.873   8.751
 7166W        W11217   5.183   8.276   1.274
 7167W        W11218   3.336  10.806   2.255
 7168W        W11219   5.126   9.114   1.518
 7169W        W11220   6.771  10.920   0.091
 7170W        W11221   1.622   8.999  10.879
 7171W        W11222  11.412   1.845  11.694
 7172W        W11223   2.610   5.730   1.363
 7173W        W11224   8.606   4.087   0.491
 7174W        W11225   3.351   5.218   1.462
 7175W        W11226   6.894   4.571  11.242
 7176W        W11227  10.830   2.739   0.739
 7177W        W11228   6.528  11.138   3.073
 7178W        W11229   5.094   3.082  11.066
 7179W        W11230   9.421  10.877   0.112
 7180W        W11231   3.773   7.977  10.503
 7181W        W11232   7.137   7.055   0.058
 7182W        W11233   1.467   8.497   9.177
 7183W        W11234   3.866   1.862   1.299
 7184W        W11235   1.192   6.731  11.742
 7185W        W11236   5.190   1.429   0.756
 7186W        W11237   4.734   8.684   1.930
 7187W        W11238   3.319   8.792   8.637
 7188W        W11239   1.282   4.674   0.193
 7189W        W11240   7.227   8.397  10.794
 7190W        W11241   0.673   1.497  10.407
 7191W        W11242   2.633   8.655   1.240
 7192W        W11243   7.022   1.700  10.339
 7193W        W11244   5.049  10.785   0.505
 7194W        W11245   2.663   2.345   2.468
 7195W        W11246  10.780   4.239   2.822
 7196W        W11247   4.670   6.101   1.829
 7197W        W11248   8.804   3.664   1.228
 7198W        W11249   5.516   3.283   2.690
 7199W        W11250   1.807   5.530   9.451
 7200W        W11251   4.445   2.165   2.863
 7201W        W11252   6.167   3.165   8.968
 7202W        W11253   6.562   5.661   1.740
 7203W        W11254   3.595  11.251  10.959
 7204W        W11255   3.370   7.137  10.471
 7205W        W11256   3.808   2.637  10.355
 7206W        W11257  11.444   4.306   9.132
 7207W        W11258   9.457   5.026   0.399
 7208W        W11259   6.554   5.694  11.269
 7209W        W11260   8.664   6.658   8.722
 7210W        W11261   0.605   1.257   9.923
 7211W        W11262   4.286   4.565  10.815
 7212W        W11263   1.055   7.884   3.372
 7213W        W11264   4.159   2.544  11.950
 7214W        W11265   5.765   7.513   8.900
 7215W        W11266   8.100   3.702   9.600
 7216W        W11267   0.389   4.889  11.755
 7217W        W11268   0.855   9.032  10.629
 7218W        W11269   6.969   0.845   2.621
 7219W        W11270   0.206   7.642  10.084
 7220W        W11271   3.811   2.093  11.424
 7221W        W11272   7.031  11.464   2.325
 7222W        W11273   9.127   3.318   2.769
 7223W        W11274   4.083   1.711   9.237
 7224W        W11275   9.420   2.421   9.697
 7225W        W11276   5.186   6.734   9.121
 7226W        W11277   6.146   6.190   9.404
 7227W        W11278   0.234   6.610   0.047
 7228W        W11279   2.262   0.211   1.028
 7229W        W11280   5.503  10.280  10.760
 7230W        W11281   4.937   0.188   3.135
 7231W        W11282   2.202   1.965   3.191
 7232W        W11283   0.763  11.198  11.782
 7233W        W11284   8.100  10.992   2.874
 7234W        W11285   8.685   1.345   0.758
 7235W        W11286   0.536   9.723   0.559
 7236W        W11287   7.029   7.582   9.536
 7237W        W11288   0.113   5.271   0.089
 7238W        W11289   4.685   6.159  11.240
 7239W        W11290   3.845  10.970  11.918
 7240W        W11291   4.568   7.563  10.050
 7241W        W11292   8.339   9.806   3.617
 7242W        W11293   3.597   1.322  10.136
 7243W        W11294   2.760   9.927   2.017
 7244W        W11295   2.158   5.121  10.341
 7245W        W11296   1.779   3.554  11.453
 7246W        W11297   8.549   8.882   9.387
 7247W        W11298   6.511   7.101   1.961
 7248W        W11299   2.624   0.934   9.963
 7249W        W11300   2.668   1.835   2.646
 7250W        W11301   0.239   0.008   1.897
 7251W        W11302   4.161   3.762  10.314
 7252W        W11303   3.690   6.114   8.327
 7253W        W11304   3.250   4.709  10.095
 7254W        W11305   0.394   6.659   1.121
 7255W        W11306   0.761   3.165  11.025
 7256W        W11307   8.623   8.910  11.019
 7257W        W11308   1.725   8.979  11.811
 7258W        W11309   8.367   1.107   1.113
 7259W        W11310   2.550   5.626   8.739
 7260W        W11311   7.427   0.466   3.001
 7261W        W11312   2.711   8.853  10.051
 7262W        W11313   4.770   2.471  11.458
 7263W        W11314  10.909   2.971   2.539
 7264W        W11315   3.466  10.550   0.454
 7265W        W11316   6.224   5.503  11.760
 7266W        W11317   7.521   8.091  11.139
 7267W        W11318   8.855   8.509   0.868
 7268W        W11319   8.155   6.369   1.335
 7269W        W11320  10.000   0.304   9.183
 7270W        W11321   9.808   7.928   3.271
 7271W        W11322   5.108   8.276  11.983
 7272W        W11323   1.753   2.674   8.870
 7273W        W11324  10.329   8.884   2.738
 7274W        W11325   3.694   4.230   8.705
 7275W        W11326  10.351   2.175  11.391
 7276W        W11327   6.259  10.379   9.734
 7277W        W11328   2.343   3.834   8.629
 7278W        W11329   3.801   9.719   0.201
 7279W        W11330   4.103   0.406   2.469
 7280W        W11331  10.372   1.790   1.854
 7281W        W11332  10.961   2.582   2.134
 7282W        W11333   1.856   7.737   9.660
 7283W        W11334   0.410   0.417   1.559
 7284W        W11335   9.112   2.706  11.339
 7285W        W11336  10.816   6.165   9.206
 7286W        W11337   2.212   6.668   1.652
 7287W        W11338  10.292   8.000   3.124
 7288W        W11339  10.893   4.649  11.818
 7289W        W11340   6.779   5.834   1.279
 7290W        W11341   0.807   2.891  10.203
 7291W        W11342   2.733   9.924   9.993
 7292W        W11343  11.255   9.507   9.026
 7293W        W11344   8.961   2.575   3.300
 7294W        W11345   0.963   2.825  10.695
 7295W        W11346   7.518  11.300   2.225
 7296W        W11347   5.703   4.055   4.075
 7297W        W11348   0.906  11.381   0.505
 7298W        W11349   1.193   4.173   0.995
 7299W        W11350   8.461   0.958   9.428
 7300W        W11351  11.157   1.681   3.662
 7301W        W11352   3.719   1.284   1.924
 7302W        W11353   2.288   9.368  11.540
 7303W        W11354   7.071   2.002  11.357
 7304W        W11355   1.736   7.838   0.991
 7305W        W11356   9.093  10.856   1.338
 7306W        W11357  10.122  11.039  11.370
 7307W        W11358   1.369   4.101  11.023
 7308W        W11359   4.190   4.692   1.808
 7309W        W11360  10.520   8.424   1.848
 7310W        W11361   2.348   3.427   3.688
 7311W        W11362   6.727   1.369   3.328
 7312W        W11363   1.549  10.494   0.903
 7313W        W11364   5.469   8.392   0.859
 7314W        W11365   0.370  10.396  11.425
 7315W        W11366   5.004  11.042   2.008
 7316W        W11367   1.046   7.488   1.293
 7317W        W11368   2.028   5.150   1.242
 7318W        W11369   0.483   2.643   1.002
 7319W        W11370   5.643   4.672   2.975
 7320W        W11371   4.524   3.243   9.013
 7321W        W11372   9.873   4.242   0.896
 7322W        W11373   3.909   8.355  11.695
 7323W        W11374   4.243  10.568   1.955
 7324W        W11375   8.842   2.283  11.424
 7325W        W11376   6.212   9.249   0.273
 7326W        W11377   0.312   5.167   0.668
 7327W        W11378   5.678   2.804  10.499
 7328W        W11379   0.454  10.986  10.759
 7329W        W11380   0.467   2.150   9.894
 7330W        W11381   0.499   6.718   2.126
 7331W        W11382  10.414   1.956   9.074
 7332W        W11383   6.906   6.042  11.386
 7333W        W11384   9.039   0.320   1.362
 7334W        W11385   2.730   6.212   0.464
 7335W        W11386  11.362  10.238   0.278
 7336W        W11387   9.058   2.141   2.140
 7337W        W11388   1.182   7.914   2.353
 7338W        W11389   3.325   5.085  11.912
 7339W        W11390   6.496   4.512  10.511
 7340W        W11391   9.269   0.567   0.068
 7341W        W11392   1.761   9.076   9.252
 7342W        W11393   3.339   1.751   8.479
 7343W        W11394  10.054   0.987   0.860
 7344W        W11395  10.016   2.391   0.802
 7345W        W11396   0.703  11.240   9.529
 7346W        W11397   8.669   6.107   8.670
 7347W        W11398   7.905   4.281   9.806
 7348W        W11399   8.990  10.167  11.930
 7349W        W11400   6.953   0.837   9.738
 7350W        W11401   7.961   4.505  10.267
 7351W        W11402   9.596   2.904   8.940
 7352W        W11403  10.444   0.925   2.323
 7353W        W11404  11.301   6.114   9.404
 7354W        W11405   5.822   2.296   1.183
 7355W        W11406   6.562   0.224   2.366
 7356W        W11407   8.262   7.887   9.570
 7357W        W11408   8.037   7.147  11.997
 7358W        W11409   7.950  11.228   1.436
 7359W        W11410   2.785   4.981   0.729
 7360W        W11411   4.963   7.053   9.449
 7361W        W11412   4.679   4.772   2.025
 7362W        W11413   1.787   2.320   0.974
 7363W        W11414   0.333   5.768  10.333
 7364W        W11415   2.867   3.696   0.482
 7365W        W11416   4.989   1.769   8.767
 7366W        W11417  10.693   6.792   9.904
 7367W        W11418   2.262   0.269   0.514
 7368W        W11419   4.157   4.861  10.398
 7369W        W11420   1.987   5.424   0.793
 7370W        W11421   6.067   6.490  10.683
 7371W        W11422   8.773   9.440   0.593
 7372W        W11423   9.951   5.663   2.492
 7373W        W11424  10.340   7.442   0.668
 7374W        W11425   1.478  11.388  10.426
 7375W        W11426  10.711   9.638   0.665
 7376W        W11427   8.621   2.561   1.043
 7377W        W11428   4.283   9.948  11.168
 7378W        W11429   8.766   5.924  10.283
 7379W        W11430   8.429   3.840   0.900
 7380W        W11431   2.098   8.069   0.734
 7381W        W11432  11.162   3.576   3.294
 7382W        W11433   7.494  10.509   2.712
 7383W        W11434   9.009   8.582   2.286
 7384W        W11435   0.967   6.919   2.238
 7385W        W11436   7.609  11.345  11.638
 7386W        W11437  10.368   8.911   1.383
 7387W        W11438   3.758   7.103   1.977
 7388W        W11439   0.567   3.673   1.339
 7389W        W11440   3.544   0.736   9.932
 7390W        W11441   0.580   9.137   2.228
 7391W        W11442  11.418   8.623  10.886
 7392W        W11443   7.259   2.789   2.810
 7393W        W11444   8.701   8.378   1.505
 7394W        W11445   3.696   3.632   9.367
 7395W        W11446   4.727   5.703  11.010
 7396W        W11447   5.335   7.258   9.128
 7397W        W11448   7.429   0.533   2.491
 7398W        W11449   3.236   3.165   9.919
 7399W        W11450   9.710   0.424   3.149
 7400W        W11451   2.392   9.942   3.412
 7401W        W11452   7.823  10.594  10.585
 7402W        W11453   7.212   1.300   3.222
 7403W        W11454   1.383   0.244   1.426
 7404W        W11455   4.488   8.483   1.132
 7405W        W11456   5.734   2.803  11.544
 7406W        W11457   1.153   1.020   0.341
 7407W        W11458   6.560   8.133   1.880
 7408W        W11459   2.820   2.699   0.354
 7409W        W11460   9.476   1.946   9.526
 7410W        W11461   3.584   7.012  11.524
 7411W        W11462   0.765   6.064   9.476
 7412W        W11463  10.276   2.923  11.017
 7413W        W11464   3.581   3.190   9.084
 7414W        W11465   2.106   0.951   3.642
 7415W        W11466   5.486   7.572  11.931
 7416W        W11467  11.335   2.714   0.783
 7417W        W11468   6.531   6.653  10.227
 7418W        W11469   7.431  10.238  10.504
 7419W        W11470   6.101   5.084   1.543
 7420W        W11471   3.600   1.805  11.853
 7421W        W11472   1.808   3.585   0.401
 7422W        W11473   5.077   4.229   1.359
 7423W        W11474   3.233   4.695   2.001
 7424W        W11475   6.096   7.738   3.669
 7425W        W11476   7.559   4.505   9.503
 7426W        W11477   5.398   9.038   0.204
 7427W        W11478  10.839   5.581   1.695
 7428W        W11479   8.583   8.883   2.215
 7429W        W11480   9.327   3.644   1.302
 7430W        W11481   8.219   8.127  11.774
 7431W        W11482   2.411   7.417   1.495
 7432W        W11483   9.096   2.698   9.395
 7433W        W11484   2.352   9.993   9.014
 7434W        W11485   6.759   4.245   0.483
 7435W        W11486   8.903   1.020   0.440
 7436W        W11487   9.891  11.245   0.232
 7437W        W11488   5.924  10.663  11.420
 7438W        W11489   4.255   1.363   0.435
 7439W        W11490   9.983  10.329   9.464
 7440W        W11491   2.850   4.540   0.474
 7441W        W11492   8.634   2.559   1.546
 7442W        W11493   8.676   7.569   1.893
 7443W        W11494   3.752   8.042   3.195
 7444W        W11495   9.946   3.306   2.408
 7445W        W11496   0.399   5.091   8.924
 7446W        W11497   0.362   8.582   2.494
 7447W        W11498   9.374  10.386   1.863
 7448W        W11499  11.114   4.590   0.296
 7449W        W11500   2.141   3.229   0.185
 7450W        W11501   5.240   1.223  11.449
 7451W        W11502   9.770   2.286   3.499
 7452W        W11503   4.659  10.404  11.813
 7453W        W11504   5.645   4.793  10.548
 7454W        W11505   7.142   3.876   3.059
 7455W        W11506   4.299   4.701   9.945
 7456W        W11507   0.488   2.675   9.378
 7457W        W11508   9.607   5.701   2.876
 7458W        W11509  10.013   7.472   3.325
 7459W        W11510   2.053   8.760   8.468
 7460W        W11511   1.789   6.463   1.435
 7461W        W11512   4.039   5.940   1.175
 7462W        W11513   5.191   7.846  11.556
 7463W        W11514   2.188  11.305   9.998
 7464W        W11515   1.982   2.668  11.294
 7465W        W11516   8.568   1.587   1.874
 7466W        W11517   0.149   9.430   9.443
 7467W        W11518  10.001   6.148   0.200
 7468W        W11519   3.626   8.422  10.766
 7469W        W11520   6.343  10.747   0.329
 7470W        W11521  10.341   9.969   1.773
 7471W        W11522   7.662   0.030   1.715
 7472W        W11523   5.102   8.620  10.381
 7473W        W11524   8.154   3.878   0.361
 7474W        W11525   8.952   3.216  11.392
 7475W        W11526   7.640   5.608  11.074
 7476W        W11527   6.716   3.664  11.383
 7477W        W11528   8.149   0.439   9.407
 7478W        W11529   4.622   2.491   3.221
 7479W        W11530  10.062   6.164  10.810
 7480W        W11531   2.376   3.380   8.938
 7481W        W11532   8.465   4.998   9.994
 7482W        W11533  11.400   4.660   8.572
 7483W        W11534   8.567   8.328  10.912
 7484W        W11535   0.763   4.874   3.467
 7485W        W11536  10.193   5.807  11.481
 7486W        W11537   0.472   4.704   2.879
 7487W        W11538   0.371   8.521   3.001
 7488W        W11539   8.416  11.220   1.673
 7489W        W11540   9.000   5.047  11.187
 7490W        W11541   7.853   4.522  11.759
 7491W        W11542   7.503   6.952   3.396
 7492W        W11543   8.952   9.124   2.487
 7493W        W11544   5.117   4.034   9.024
 7494W        W11545   8.942   5.678   2.310
 7495W        W11546  11.226  10.130   1.925
 7496W        W11547   5.015  10.063  10.536
 7497W        W11548   4.622   7.017   1.586
 7498W        W11549   1.693   3.084  11.247
 7499W        W11550   0.879  10.416   9.997
 7500W        W11551   6.034   4.920   2.063
 7501W        W11552   2.259   1.157   0.017
 7502W        W11553   2.712   5.451  10.317
 7503W        W11554  10.960  10.101   3.155
 7504W        W11555   7.224   8.376   3.376
 7505W        W11556  11.491   0.273   0.496
 7506W        W11557   6.395   0.233   9.283
 7507W        W11558   3.759   2.643   1.602
 7508W        W11559   6.956   7.984   3.121
 7509W        W11560   9.846   1.017   8.645
 7510W        W11561   5.253   3.585  11.495
 7511W        W11562   6.454   0.977   1.341
 7512W        W11563   2.000   5.089   2.131
 7513W        W11564   4.470   6.519   1.620
 7514W        W11565   0.907   2.113   3.224
 7515W        W11566   2.809   6.461   9.256
 7516W        W11567   5.023   1.234  11.946
 7517W        W11568   6.952   5.664  11.733
 7518W        W11569   9.982   1.361   9.536
 7519W        W11570   0.814   2.400   2.184
 7520W        W11571   6.464   8.093   3.319
 7521W        W11572   5.028   3.487   3.997
 7522W        W11573   8.307   2.989  10.854
 7523W        W11574   9.432   7.626   0.472
 7524W        W11575   7.502  10.789   3.141
 7525W        W11576   6.479   6.142   1.531
 7526W        W11577   6.093   0.683  11.777
 7527W        W11578   8.119   3.296   0.440
 7528W        W11579   8.542   6.586   2.704
 7529W        W11580  11.329   2.315   1.854
 7530W        W11581   9.092   5.215   0.685
 7531W        W11582   5.515  10.956  11.492
 7532W        W11583   0.272   8.535   0.037
 7533W        W11584   9.520   8.667   0.297
 7534W        W11585   6.459   5.902   9.107
 7535W        W11586   5.302   7.455   8.652
 7536W        W11587   4.233   6.215  10.267
 7537W        W11588   5.121   3.137   3.624
 7538W        W11589   8.287   3.717   1.383
 7539W        W11590   8.418   9.752   2.116
 7540W        W11591   6.191  10.861  11.824
 7541W        W11592   4.295   9.122   0.338
 7542W        W11593   1.256  11.421   1.801
 7543W        W11594   1.727   3.183   8.618
 7544W        W11595   3.757   9.293   1.922
 7545W        W11596   3.156   4.113  10.269
 7546W        W11597   2.645   9.003   9.051
 7547W        W11598   4.107  11.360   9.405
 7548W        W11599   6.383  10.081  11.411
 7549W        W11600   4.746   0.066   2.415
 7550W        W11601   1.288   7.035   2.921
 7551W        W11602   7.646   9.551   1.963
 7552W        W11603   7.380  10.756  10.397
 7553W        W11604  10.354   0.405   2.389
 7554W        W11605   0.019   4.677   2.634
 7555W        W11606   5.425   6.029  11.652
 7556W        W11607   7.386   1.644   9.593
 7557W        W11608   8.181   3.307   1.106
 7558W        W11609   6.160   1.313   1.654
 7559W        W11610   5.241   0.924   0.730
 7560W        W11611   2.558   7.028   9.448
 7561W        W11612   2.997   5.825   3.131
 7562W        W11613   2.655  10.686  10.435
 7563W        W11614   6.258   2.865   9.470
 7564W        W11615   0.470   6.177   0.279
 7565W        W11616   5.011   8.374   9.954
 7566W        W11617   5.771   9.560   0.246
 7567W        W11618   7.919   7.655  10.862
 7568W        W11619   2.617   4.227   8.886
 7569W        W11620   8.563  11.283   0.674
 7570W        W11621   3.134   5.884   0.399
 7571W        W11622   2.503  10.364   2.062
 7572W        W11623   9.990   4.178  11.527
 7573W        W11624   6.749   8.498   3.212
 7574W        W11625  11.284   1.726  10.310
 7575W        W11626   0.822  11.020   2.414
 7576W        W11627   6.981  10.937  10.129
 7577W        W11628   6.639   4.251  10.090
 7578W        W11629  10.236   4.585  10.410
 7579W        W11630   8.130   4.799   2.674
 7580W        W11631   1.296   7.548   2.696
 7581W        W11632   9.832   4.284  10.583
 7582W        W11633   2.832   3.683  10.950
 7583W        W11634   0.478   5.053   1.149
 7584W        W11635   9.033   6.861  10.445
 7585W        W11636   8.966   3.210   9.537
 7586W        W11637   9.308   4.102  11.997
 7587W        W11638  11.263   4.233  11.703
 7588W        W11639   5.029   3.817   9.576
 7589W        W11640   4.046   2.069   0.872
 7590W        W11641   8.976   7.866   0.348
 7591W        W11642   3.439   5.240  10.887
 7592W        W11643   7.433   3.255   0.403
 7593W        W11644   2.225   7.666   1.914
 7594W        W11645   3.891   1.732   0.415
 7595W        W11646   4.218   6.695  10.848
 7596W        W11647   3.595   6.601   1.739
 7597W        W11648  10.606   9.566   2.330
 7598W        W11649   9.611   6.433  11.661
 7599W        W11650   6.111   4.420   3.176
 7600W        W11651   9.429   7.015   2.787
 7601W        W11652   0.369  10.215   0.439
 7602W        W11653   2.302   7.961   0.283
 7603W        W11654   9.117   6.871   8.617
 7604W        W11655  10.770   1.978  10.986
 7605W        W11656   2.769   3.282  11.292
 7606W        W11657   5.992  10.442   3.201
 7607W        W11658   2.272   8.089   2.949
 7608W        W11659   1.272   1.823   2.801
 7609W        W11660   2.893   5.999   9.037
 7610W        W11661  10.971   3.542   0.445
 7611W        W11662   9.524   4.796   2.761
 7612W        W11663  11.015   4.299   8.473
 7613W        W11664   2.698  11.354  10.792
 7614W        W11665   4.717   8.420   9.539
 7615W        W11666   1.683   6.743  11.491
 7616W        W11667   9.779   5.671   3.376
 7617W        W11668   6.655   2.880   0.173
 7618W        W11669   7.394   4.556  11.991
 7619W        W11670  10.098   3.556  10.380
 7620W        W11671   6.094  10.872   1.441
 7621W        W11672   8.834   5.073   9.306
 7622W        W11673   9.979   0.725   2.236
 7623W        W11674  11.251   9.914  11.865
 7624W        W11675   7.697   3.219   2.487
 7625W        W11676   8.886   8.010   1.795
 7626W        W11677   8.234   8.603   9.061
 7627W        W11678   6.914  10.203   0.950
 7628W        W11679  10.303   4.127  11.919
 7629W        W11680   3.404   2.859  11.081
 7630W        W11681  10.986   9.968   9.015
 7631W        W11682   3.683  11.267   9.075
 7632W        W11683   8.517   5.072  11.395
 7633W        W11684   3.358   7.512   1.555
 7634W        W11685   5.047   8.706   2.452
 7635W        W11686   9.285   9.625   9.452
 7636W        W11687   2.493   9.109  10.889
 7637W        W11688   4.293   4.821  11.266
 7638W        W11689  11.351   7.210   3.624
 7639W        W11690   2.847   2.158   8.995
 7640W        W11691   0.291   0.332  11.262
 7641W        W11692  11.333   3.406   9.547
 7642W        W11693   5.590   2.349   8.721
 7643W        W11694  10.339   7.546  10.738
 7644W        W11695   1.308  10.919   1.787
 7645W        W11696   7.629   3.609   9.419
 7646W        W11697  10.969  10.573   3.449
 7647W        W11698   5.934   0.928   1.364
 7648W        W11699  11.313   9.858  10.398
 7649W        W11700   5.160   4.072   2.745
 7650W        W11701   6.581   0.681   0.915
 7651W        W11702   9.314   0.258  10.846
 7652W        W11703   6.101   1.868   1.295
 7653W        W11704   3.330   4.514   2.930
 7654W        W11705   7.600   7.615  11.346
 7655W        W11706  10.713  10.874   9.427
 7656W        W11707   4.365   9.082   9.766
 7657W        W11708   5.419   3.241  10.277
 7658W        W11709   4.371   1.814   1.234
 7659W        W11710  11.341   1.904   0.697
 7660W        W11711   1.295   8.826   3.336
 7661W        W11712   8.820   4.629   9.992
 7662W        W11713   0.505   7.925   0.234
 7663W        W11714   7.638   5.846   1.339
 7664W        W11715   5.153   7.592   2.746
 7665W        W11716   3.818   7.931  11.995
 7666W        W11717   3.163   4.982  10.526
 7667W        W11718   4.693   3.547   1.868
 7668W        W11719   0.105   3.603   3.554
 7669W        W11720   5.396   4.140   1.746
 7670W        W11721   5.697   7.641   0.431
 7671W        W11722   7.056  10.901   9.539
 7672W        W11723   1.632   8.496  11.914
 7673W        W11724  10.422   8.628   8.449
 7674W        W11725   8.351   5.052   9.505
 7675W        W11726   7.176   6.095  11.859
 7676W        W11727   6.157   4.440   2.220
 7677W        W11728   6.977   3.259  11.562
 7678W        W11729   0.457   0.285   9.596
 7679W        W11730   8.098   4.946   8.229
 7680W        W11731   3.188   7.642  11.558
 7681W        W11732   4.978   0.784  10.271
 7682W        W11733   1.817   5.626  10.336
 7683W        W11734   8.899   5.062   8.793
 7684W        W11735  11.369  11.003   2.812
 7685W        W11736   4.402   8.105   2.659
 7686W        W11737   1.404   3.812   0.684
 7687W        W11738   7.877  10.761  11.069
 7688W        W11739   5.530   5.167   3.101
 7689W        W11740   1.381   7.134   8.927
 7690W        W11741   9.852   6.075   9.392
 7691W        W11742   7.327   4.396   8.714
 7692W        W11743   5.594   3.099   8.417
 7693W        W11744   0.866   2.472   3.721
 7694W        W11745   5.000   1.504   3.462
 7695W        W11746   6.534   4.080   2.260
 7696W        W11747   8.337   2.938   0.790
 7697W        W11748   3.116   9.386   3.176
 7698W        W11749   8.643   4.882   3.011
 7699W        W11750   4.109   3.702   2.686
 7700W        W11751  11.071  10.520  10.307
 7701W        W11752   8.189   9.806  10.922
 7702W        W11753   2.436  10.421   0.365
 7703W        W11754   7.941   8.941   0.108
 7704W        W11755   4.086   3.705   9.702
 7705W        W11756   1.173   7.420  10.362
 7706W        W11757   2.670   0.517   1.206
 7707W        W11758   9.959   4.992  11.258
 7708W        W11759   6.116  11.337   9.981
 7709W        W11760   7.467   2.222   9.613
 7710W        W11761   7.192   0.668   1.738
 7711W        W11762  11.444  11.056  11.096
 7712W        W11763   5.654   0.016   2.790
 7713W        W11764   5.187   5.043   1.539
 7714W        W11765   6.071   2.651  11.992
 7715W        W11766   0.534   0.007  10.508
 7716W        W11767   3.124   0.770  10.539
 7717W        W11768   7.083  10.672   1.179
 7718W        W11769   4.324   4.032  11.636
 7719W        W11770  11.462   9.387   9.940
 7720W        W11771   0.229   8.379   0.590
 7721W        W11772   2.394   2.936   0.542
 7722W        W11773   4.776   2.412  10.535
 7723W        W11774   0.401   4.345   2.230
 7724W        W11775   7.042   8.008   2.588
 7725W        W11776   5.745  10.081   2.924
 7726W        W11777   6.521   1.618   9.416
 7727W        W11778   1.444  10.777   9.850
 7728W        W11779   1.222   2.172   2.404
 7729W        W11780   0.993   6.256   9.933
 7730W        W11781  10.912   3.836  11.437
 7731W        W11782   4.740   8.888   3.330
 7732W        W11783   6.431   2.300   3.629
 7733W        W11784  10.675   1.243   0.941
 7734W        W11785   6.433   3.130   0.825
 7735W        W11786   5.568   7.334   9.987
 7736W        W11787   4.198   8.657   0.050
 7737W        W11788   2.186  10.497  10.515
 7738W        W11789  10.502   3.144   1.176
 7739W        W11790   1.091   2.709  11.873
 7740W        W11791  10.268   5.544   3.467
 7741W        W11792   5.164   5.626  10.060
 7742W        W11793   9.865   3.122  10.086
 7743W        W11794   5.236   2.089   9.061
 7744W        W11795   0.119   0.946   9.114
 7745W        W11796   9.998   6.466   9.045
 7746W        W11797  11.367   6.646   9.345
 7747W        W11798   2.563   4.578   3.412
 7748W        W11799   9.914   0.678   1.254
 7749W        W11800   6.940   7.918   8.920
 7750W        W11801   2.667   3.817   3.520
 7751W        W11802   2.086   9.304   0.790
 7752W        W11803   0.178   4.348  10.277
 7753W        W11804   0.547  11.300   3.251
 7754W        W11805   0.743   2.581   3.217
 7755W        W11806   5.290   0.854   1.949
 7756W        W11807   8.054  10.531   3.081
 7757W        W11808   5.158   7.541   1.814
 7758W        W11809  10.405  10.871  10.067
 7759W        W11810   1.832   0.183   0.215
 7760W        W11811   5.020   7.392  11.810
 7761W        W11812  10.851   9.253   8.384
 7762W        W11813   1.285   4.795   1.710
 7763W        W11814   8.336   4.508   9.926
 7764W        W11815   1.838   5.349  11.939
 7765W        W11816  11.025   5.530   2.700
 7766W        W11817   8.567  11.324  10.706
 7767W        W11818   2.262   0.364   2.476
 7768W        W11819   9.868   8.463  10.818
 7769W        W11820   8.344   7.641   0.901
 7770W        W11821   5.521   9.200   1.851
 7771W        W11822  10.235   6.041   1.719
 7772W        W11823   9.780   8.889  10.350
 7773W        W11824   0.413   3.611  10.586
 7774W        W11825   0.339   6.564   0.581
 7775W        W11826   5.479   0.363   2.447
 7776W        W11827  10.839   7.288   9.881
 7777W        W11828   4.478   2.824   2.379
 7778W        W11829   2.253   6.556   0.650
 7779W        W11830   5.819   8.041  10.229
 7780W        W11831   1.966   3.203   1.459
 7781W        W11832   6.907   2.118   3.557
 7782W        W11833   3.107   1.787   1.746
 7783W        W11834   6.474   3.498   3.702
 7784W        W11835   1.709   8.425  10.970
 7785W        W11836   4.046   5.692  11.339
 7786W        W11837   2.134   1.358   2.433
 7787W        W11838   8.248   1.430   9.527
 7788W        W11839  11.097   9.001  10.046
 7789W        W11840  10.627  10.412  10.108
 7790W        W11841  10.993   3.786   9.338
 7791W        W11842  11.450   3.719   9.109
 7792W        W11843   2.799   7.347   0.764
 7793W        W11844   7.458   8.079   3.000
 7794W        W11845   3.281  11.127   3.118
 7795W        W11846   0.407   7.048   0.787
 7796W        W11847   0.890   0.317   0.820
 7797W        W11848   9.645  10.384   9.853
 7798W        W11849   8.639   3.536   2.630
 7799W        W11850   0.491   8.360  10.485
 7800W        W11851   5.602   9.142  11.217
 7801W        W11852   3.117   1.644  11.803
 7802W        W11853   9.690  10.085   0.419
 7803W        W11854   3.508   6.686  10.306
 7804W        W11855   6.915   4.086   8.912
 7805W        W11856   1.306   5.494   0.060
 7806W        W11857   5.850   0.282  11.576
 7807W        W11858   9.590  10.769   1.547
 7808W        W11859   5.235   2.728   9.442
 7809W        W11860   8.465   8.535  10.073
 7810W        W11861   7.734   4.898   3.600
 7811W        W11862   1.369   2.819   1.445
 7812W        W11863  10.625  11.052  11.408
 7813W        W11864  10.297  11.461   8.857
 7814W        W11865   8.023   7.391   9.543
 7815W        W11866  11.299   1.828   0.183
 7816W        W11867   8.023   5.504   1.262
 7817W        W11868   9.587   7.433   3.024
 7818W        W11869   5.504  11.174   0.803
 7819W        W11870   7.438   4.781  11.536
 7820W        W11871   7.656   2.857  11.324
 7821W        W11872   3.612   8.912   3.719
 7822W        W11873   4.762   2.908   9.585
 7823W        W11874   8.957   3.791   0.206
 7824W        W11875   0.846   4.777  11.963
 7825W        W11876   6.240   1.339   3.190
 7826W        W11877  10.545   2.303   0.772
 7827W        W11878  10.130  10.485   3.240
 7828W        W11879   0.697  11.302  10.043
 7829W        W11880   4.773   4.164   2.441
 7830W        W11881  10.316   9.332   0.478
 7831W        W11882   8.065   6.317   3.700
 7832W        W11883   6.774   9.138   2.874
 7833W        W11884   1.480  11.245   1.351
 7834W        W11885   5.327   5.166  10.681
 7835W        W11886  11.496   1.235   2.353
 7836W        W11887   8.509   7.685  10.279
 7837W        W11888   3.367   3.768  11.046
 7838W        W11889   0.712   5.423   8.631
 7839W        W11890   6.786   9.911   2.763
 7840W        W11891   0.632   8.083  10.898
 7841W        W11892   5.945   6.088   1.376
 7842W        W11893   8.583   4.103   8.737
 7843W        W11894   9.635   9.909   2.239
 7844W        W11895   8.647   5.485  10.052
 7845W        W11896   9.103   2.781  10.843
 7846W        W11897   8.061   5.333  10.778
 7847W        W11898  10.402   2.457   9.154
 7848W        W11899   2.693   1.936   9.787
 7849W        W11900   1.118   1.395  11.552
 7850W        W11901   3.617  10.736   9.010
 7851W        W11902   6.370   0.319   1.852
 7852W        W11903   7.088  10.403  10.862
 7853W        W11904   0.751   2.309  11.800
 7854W        W11905   7.950   6.910   0.435
 7855W        W11906   9.989   0.500   0.730
 7856W        W11907   7.038   7.000   3.170
 7857W        W11908   0.366   6.490  10.965
 7858W        W11909   4.076   6.697   8.984
 7859W        W11910   3.352   0.387   8.888
 7860W        W11911   8.171   5.600   3.194
 7861W        W11912   0.018   7.906   0.441
 7862W        W11913   2.313   3.326   9.979
 7863W        W11914   7.473   0.760   9.745
 7864W        W11915   9.154   1.219   1.670
 7865W        W11916  11.320   2.136  11.146
 7866W        W11917   5.657   6.527  11.027
 7867W        W11918   4.933   6.772  11.773
 7868W        W11919   5.641   9.030   1.399
 7869W        W11920   7.014   8.336  11.267
 7870W        W11921   0.580   4.077  10.391
 7871W        W11922   2.647   4.687   9.956
 7872W        W11923   8.627   1.230   3.565
 7873W        W11924   3.726   8.863  10.511
 7874W        W11925   9.003   0.283  10.012
 7875W        W11926   5.881   2.182   0.269
 7876W        W11927   2.476   6.559  10.478
 7877W        W11928   5.864   0.081  10.436
 7878W        W11929   0.325   9.881   9.648
 7879W        W11930   0.862   2.290   8.976
 7880W        W11931  11.440   3.617  10.897
 7881W        W11932   5.622   2.435   2.146
 7882W        W11933   5.959   3.145  10.780
 7883W        W11934   9.383  10.147  11.564
 7884W        W11935   9.901   8.250  11.302
 7885W        W11936   0.406   0.802   9.516
 7886W        W11937   4.676   9.046   2.298
 7887W        W11938   2.323   3.778  10.769
 7888W        W11939   7.755   1.030  10.512
 7889W        W11940  10.924  10.492  10.865
 7890W        W11941   0.188   9.966   1.766
 7891W        W11942   7.916   5.999   0.508
 7892W        W11943   3.074  10.495   9.054
 7893W        W11944  10.138   3.269   0.856
 7894W        W11945   3.331  10.988   9.385
 7895W        W11946   4.535   1.903   9.619
 7896W        W11947  10.974   5.887  10.770
 7897W        W11948   5.364   8.495   3.634
 7898W        W11949   0.529   2.719  11.065
 7899W        W11950   5.546   2.849   8.884
 7900W        W11951  10.242   0.828  11.604
 7901W        W11952  10.527   1.473   8.918
 7902W        W11953   8.191   5.085   1.883
 7903W        W11954   6.013   8.077  11.470
 7904W        W11955   7.594   9.397   9.994
 7905W        W11956   6.668   3.145   1.911
 7906W        W11957  10.694   3.601   3.507
 7907W        W11958   9.632   1.977  10.029
 7908W        W11959   8.900   0.012  11.023
 7909W        W11960   9.563   3.128   2.999
 7910W        W11961   4.157   9.567   8.530
 7911W        W11962   4.348   1.819   0.205
 7912W        W11963  10.426  11.082  10.541
 7913W        W11964   7.668   7.662   2.784
 7914W        W11965   6.362   6.133  11.447
 7915W        W11966   7.626   7.057   9.697
 7916W        W11967   3.583   6.613   1.225
 7917W        W11968  10.994   7.575   9.495
 7918W        W11969   8.626   2.753  11.524
 7919W        W11970   8.866  11.293   9.084
 7920W        W11971  10.289   4.593  11.358
 7921W        W11972   5.357   3.223   3.164
 7922W        W11973   8.906  11.382   1.709
 7923W        W11974   4.060   6.826   1.667
 7924W        W11975   9.809   6.167  11.261
 7925W        W11976   4.222   1.043   3.163
 7926W        W11977   4.062   9.094  11.828
 7927W        W11978   3.770   9.744   0.712
 7928W        W11979  10.993   2.377   9.725
 7929W        W11980   9.270   8.509   8.977
 7930W        W11981  10.040   7.142  11.535
 7931W        W11982   5.277   9.860  10.951
 7932W        W11983   2.646   4.918   0.218
 7933W        W11984   9.516  10.306  10.736
 7934W        W11985   6.572   7.196   4.047
 7935W        W11986   5.916   8.377  10.869
 7936W        W11987   1.316   4.227   3.190
 7937W        W11988   1.710   0.654   2.609
 7938W        W11989   8.659   1.218  10.296
 7939W        W11990   4.275   6.029   2.177
 7940W        W11991   3.296   9.576  10.589
 7941W        W11992  10.983   4.297   1.986
 7942W        W11993   8.960   0.817   3.478
 7943W        W11994   9.709   5.133   9.101
 7944W        W11995   6.684   1.789   1.933
 7945W        W11996   9.122   1.238   2.718
 7946W        W11997   2.790   8.078   0.383
 7947W        W11998   1.282   7.156   0.910
 7948W        W11999   4.956  10.734   8.519
 7949W        W12000  11.291   5.712   0.221
 7950W        W12001   1.264   2.229  11.712
 7951W        W12002   5.290   8.112   8.192
 7952W        W12003   5.799   9.078   2.815
 7953W        W12004   9.332   7.237  11.214
 7954W        W12005   3.526   4.623   9.504
 7955W        W12006  11.006   5.329   9.419
 7956W        W12007  11.362   6.811   8.858
 7957W        W12008   9.150  10.870  11.282
 7958W        W12009  10.579  10.936   0.851
 7959W        W12010  10.567   6.295   9.914
 7960W        W12011  10.423   8.848   0.562
 7961W        W12012   6.593   7.662   3.583
 7962W        W12013   5.050  10.963   0.999
 7963W        W12014   2.270   4.195   0.982
 7964W        W12015   8.123   3.285   2.139
 7965W        W12016  10.126   2.379  11.817
 7966W        W12017   9.098   1.246  10.565
 7967W        W12018   9.018   0.293   9.093
 7968W        W12019   4.682   7.488   2.502
 7969W        W12020   3.378  10.743   2.758
 7970W        W12021   7.564   1.914   1.465
 7971W        W12022   5.760  11.364  11.287
 7972W        W12023   5.636   2.290  10.244
 7973W        W12024   9.890   7.009  10.496
 7974W        W12025   5.931   3.273   9.409
 7975W        W12026   8.870   7.553   2.398
 7976W        W12027   9.401   7.167   1.323
 7977W        W12028   2.167   0.463   2.986
 7978W        W12029   2.851   1.560   1.330
 7979W        W12030   2.330   4.720   9.406
 7980W        W12031   9.179   8.290   9.413
 7981W        W12032   4.132   4.308   3.144
 7982W        W12033   9.541  11.311  10.753
 7983W        W12034   7.958   4.877   9.864
 7984W        W12035   1.278   6.492  10.761
 7985W        W12036   7.898   4.775   0.190
 7986W        W12037   2.030   7.096   1.362
 7987W        W12038   1.017   2.462  10.312
 7988W        W12039   0.836   0.893   2.696
 7989W        W12040   6.118   1.986   0.751
 7990W        W12041   2.717   6.114   2.299
 7991W        W12042  10.465   5.688   2.395
 7992W        W12043   9.934  10.431   0.728
 7993W        W12044   7.479   8.572  11.348
 7994W        W12045   4.462   2.507   1.951
 7995W        W12046  11.217  11.500   1.765
 7996W        W12047   9.565   0.986   9.094
 7997W        W12048   8.905   0.438   0.868
 7998W        W12049   1.380   6.134   1.452
 7999W        W12050   2.250   9.010   9.444
 8000W        W12051  10.501   8.107   0.964
 8001W        W12052   9.378  11.361   0.235
 8002W        W12053   6.628  10.435   2.014
 8003W        W12054   0.380   4.017  11.393
 8004W        W12055  10.256   5.457   7.965
 8005W        W12056  11.296   0.634   9.353
 8006W        W12057   1.808   7.196  11.281
 8007W        W12058   8.697   5.141   1.816
 8008W        W12059  10.033   5.516  10.153
 8009W        W12060   2.234   5.659   1.708
 8010W        W12061   4.159   4.554   4.048
 8011W        W12062   0.707   9.867   1.768
 8012W        W12063   9.334   6.716   1.561
 8013W        W12064   8.157   4.338  10.969
 8014W        W12065   6.014   5.383   3.103
 8015W        W12066   9.841   8.969   1.352
 8016W        W12067  10.152   0.803  11.076
 8017W        W12068   2.411   6.129   9.948
 8018W        W12069   6.081  10.321  11.754
 8019W        W12070   7.657   7.107  10.208
 8020W        W12071   9.383   0.858   3.027
 8021W        W12072   6.436   2.417   9.766
 8022W        W12073   7.597  10.367   2.212
 8023W        W12074   9.054   8.788   9.362
 8024W        W12075   8.626   3.358   0.847
 8025W        W12076   3.591   6.050  11.154
 8026W        W12077   7.038   2.762   3.271
 8027W        W12078   7.922   9.425   1.315
 8028W        W12079   0.314  10.026   2.710
 8029W        W12080   8.267  10.335   3.531
 8030W        W12081   1.817   1.167  10.852
 8031W        W12082   1.794   0.847  10.432
 8032W        W12083   5.138   4.453   8.725
 8033W        W12084   8.848  10.337   2.686
 8034W        W12085   0.877   6.239   3.421
 8035W        W12086   7.491   8.829  11.866
 8036W        W12087   5.987   2.049   3.704
 8037W        W12088   4.221  10.040   9.738
 8038W        W12089  11.333   0.763   0.471
 8039W        W12090   1.822   5.984   1.691
 8040W        W12091   6.403   2.882  10.785
 8041W        W12092   1.745   0.972   1.067
 8042W        W12093   0.345   7.196  10.286
 8043W        W12094   0.809   9.880   2.573
 8044W        W12095   8.412   5.526   0.285
 8045W        W12096   0.803   5.071   0.753
 8046W        W12097   6.434  10.342   2.961
 8047W        W12098   1.767   5.033   3.593
 8048W        W12099  11.102   2.639   3.551
 8049W        W12100   7.887   4.120  10.589
 8050W        W12101   9.401   5.334   8.619
 8051W        W12102   1.174   4.037   8.949
 8052W        W12103   9.442   5.595   2.346
 8053W        W12104   6.065  11.350  11.705
 8054W        W12105   0.863   6.861   0.931
 8055W        W12106   6.057   1.181  11.755
 8056W        W12107   8.190   1.427  10.435
 8057W        W12108   4.756   1.495   0.458
 8058W        W12109   3.696   2.174  10.589
 8059W        W12110   6.991   3.174   1.481
 8060W        W12111  11.019   2.310   3.121
 8061W        W12112   1.324   0.318  11.707
 8062W        W12113   0.881   4.259   0.146
 8063W        W12114   7.506   3.120   9.971
 8064W        W12115   9.850   7.189   9.458
 8065W        W12116  10.547   3.326  10.469
 8066W        W12117   0.828   7.507   0.299
 8067W        W12118   6.883   0.269   1.795
 8068W        W12119  11.073   8.091   2.209
 8069W        W12120   4.897   4.629   9.879
 8070W        W12121   4.315   1.287  11.498
 8071W        W12122  10.460   1.863  10.083
 8072W        W12123   1.188   7.050   3.463
 8073W        W12124   9.855   4.704  11.683
 8074W        W12125   3.130  10.509  11.633
 8075W        W12126   0.059   3.834  11.861
 8076W        W12127   3.814   6.613   3.862
 8077W        W12128   8.597   4.625   0.484
 8078W        W12129   1.899   1.771  11.472
 8079W        W12130   0.016  11.245   0.500
 8080W        W12131   1.229   3.245  10.852
 8081W        W12132   7.932   0.747  11.935
 8082W        W12133   9.595   7.679   9.455
 8083W        W12134   9.254   4.334   2.096
 8084W        W12135   6.104   1.287   9.494
 8085W        W12136   8.755   7.116   0.760
 8086W        W12137   4.942   1.220  11.021
 8087W        W12138   8.216   4.308   9.035
 8088W        W12139   8.891   0.335  10.548
 8089W        W12140   1.923  10.386  10.015
 8090W        W12141   5.493  10.534  11.200
 8091W        W12142   9.016   7.351   0.385
 8092W        W12143   8.287   9.542   0.522
 8093W        W12144   8.963   1.670  10.288
 8094W        W12145   0.385   5.091  11.247
 8095W        W12146   6.628  10.774   2.733
 8096W        W12147   5.987   5.483   0.231
 8097W        W12148   2.353   1.451   1.451
 8098W        W12149   0.775   2.767   0.298
 8099W        W12150   5.956   3.678   9.768
 8100W        W12151   3.598   5.071   2.747
 8101W        W12152   9.505   2.430   9.195
 8102W        W12153  11.382   7.114   2.652
 8103W        W12154   7.531   0.081  10.771
 8104W        W12155   0.262   1.771   2.795
 8105W        W12156   8.915   1.668   3.447
 8106W        W12157   7.042   1.170   1.669
 8107W        W12158   8.344   6.187   2.431
 8108W        W12159   6.956   8.577   0.069
 8109W        W12160  10.502  10.577  10.566
 8110W        W12161   9.131  10.352   9.887
 8111W        W12162   1.509   5.102   1.222
 8112W        W12163   6.854   5.927  10.883
 8113W        W12164   6.930   4.200  10.495
 8114W        W12165   1.838   2.669  10.410
 8115W        W12166   4.658   2.709  10.123
 8116W        W12167   6.486   9.993  10.486
 8117W        W12168   2.458   0.331   9.946
 8118W        W12169   3.737  10.312   3.417
 8119W        W12170   3.042   9.293   0.765
 8120W        W12171  11.105   0.744  10.439
 8121W        W12172   0.441   5.304   1.974
 8122W        W12173   3.592   5.751  10.305
 8123W        W12174   1.735   5.564   3.533
 8124W        W12175   5.214   2.122  10.560
 8125W        W12176   0.239   8.985  11.132
 8126W        W12177   8.120   7.371  10.432
 8127W        W12178   5.808  11.501   1.798
 8128W        W12179   5.942   0.789   9.836
 8129W        W12180   2.370   1.201  10.841
 8130W        W12181   1.726   3.862  11.875
 8131W        W12182   4.613   9.935   0.520
 8132W        W12183   9.412   3.328  10.252
 8133W        W12184   3.674   6.124   1.500
 8134W        W12185   2.916  11.055   0.576
 8135W        W12186   2.705   7.475  10.719
 8136W        W12187   6.045   1.817   3.245
 8137W        W12188   6.160   1.819   8.568
 8138W        W12189   2.025  10.466   2.318
 8139W        W12190   9.379   9.991   3.368
 8140W        W12191  10.449   9.878   9.081
 8141W        W12192   5.686   2.344  11.791
 8142W        W12193   6.796  10.372   0.215
 8143W        W12194   3.070   4.270   3.304
 8144W        W12195  10.022  11.010   1.769
 8145W        W12196   7.358   0.266   2.029
 8146W        W12197   7.787   6.222  11.041
 8147W        W12198   4.284   8.109  11.920
 8148W        W12199   6.403  11.263   9.545
 8149W        W12200   3.180   5.592   9.996
 8150W        W12201   5.367  10.320   9.244
 8151W        W12202   5.785   7.950   0.852
 8152W        W12203   0.618   6.648  10.038
 8153W        W12204   2.799   7.533   8.824
 8154W        W12205   2.121  10.468  11.569
 8155W        W12206   1.519   2.246   9.704
 8156W        W12207   1.455   3.840  10.199
 8157W        W12208   3.776   4.968   9.842
 8158W        W12209   7.987   3.553  11.980
 8159W        W12210   5.459  11.061   2.646
 8160W        W12211   7.917   6.735  11.020
 8161W        W12212   6.633  11.303   9.992
 8162W        W12213   8.391   6.222   1.918
 8163W        W12214  10.479   3.058   8.545
 8164W        W12215  10.814   5.802   9.567
 8165W        W12216  10.421   3.115   1.678
 8166W        W12217   7.773   3.165   0.803
 8167W        W12218   5.182   7.033   0.805
 8168W        W12219   0.440   9.822   9.155
 8169W        W12220   5.009   0.468   2.706
 8170W        W12221   1.810   1.870   3.558
 8171W        W12222   6.054   4.795  11.247
 8172W        W12223   3.733   9.323  10.738
 8173W        W12224   1.233   4.964  11.217
 8174W        W12225   9.813  11.187   2.233
 8175W        W12226   5.336  10.806   9.489
 8176W        W12227   9.885   9.949   0.893
 8177W        W12228   7.598  11.039   1.792
 8178W        W12229   3.783   0.860   2.223
 8179W        W12230   4.157   9.580   1.758
 8180W        W12231   4.100  10.492   8.822
 8181W        W12232   5.835  11.299   1.305
 8182W        W12233  10.112   0.843   1.712
 8183W        W12234   1.049   0.021   0.044
 8184W        W12235  11.478  10.422   0.718
 8185W        W12236   2.336   5.422  11.546
 8186W        W12237  10.384   9.954  10.109
 8187W        W12238   0.974  10.897  10.792
 8188W        W12239  10.491   8.618   9.613
 8189W        W12240   4.281   3.168   1.232
 8190W        W12241   9.069   6.050  10.892
 8191W        W12242   9.384   4.849   8.790
 8192W        W12243  10.969   7.777   9.971
 8193W        W12244   8.929   4.132   8.359
 8194W        W12245   1.319   6.613   1.649
 8195W        W12246   6.033   8.373   9.868
 8196W        W12247   9.123   4.645   9.593
 8197W        W12248   8.181   2.786   9.473
 8198W        W12249   7.710   2.991   1.294
 8199W        W12250   3.331   1.415   1.481
 8200W        W12251   7.000   9.187   9.567
 8201W        W12252   0.815   9.076   8.701
 8202W        W12253   6.159   8.724   0.363
 8203W        W12254   1.476  10.969  10.744
 8204W        W12255   1.794   3.740   2.102
 8205W        W12256   4.861   3.353   3.199
 8206W        W12257  11.456   9.333   2.282
 8207W        W12258   2.681  11.481   0.713
 8208W        W12259   1.432   8.070   0.577
 8209W        W12260   6.860   3.523   2.753
 8210W        W12261   5.643   2.228   0.723
 8211W        W12262   9.793   4.277   9.524
 8212W        W12263   3.313   6.272  11.543
 8213W        W12264   4.002   2.272  10.972
 8214W        W12265   9.367   3.628   0.484
 8215W        W12266   7.512   7.147  11.146
 8216W        W12267   2.043   9.579   2.548
 8217W        W12268   2.930   7.963   8.531
 8218W        W12269   6.669   5.298  11.558
 8219W        W12270  10.923   8.985  11.499
 8220W        W12271   2.685   3.712   2.544
 8221W        W12272   5.088   9.346   1.028
 8222W        W12273   4.568   6.410   8.279
 8223W        W12274  10.106   3.267  11.390
 8224W        W12275   7.919   2.660   0.826
 8225W        W12276   9.408   9.683  11.341
 8226W        W12277  10.463   1.908   0.246
 8227W        W12278   9.648   3.796  10.370
 8228W        W12279   8.428   3.209  11.366
 8229W        W12280  10.868   1.834   1.358
 8230W        W12281   2.525   6.152  11.922
 8231W        W12282   4.271   8.789   2.109
 8232W        W12283   0.378   4.545   1.221
 8233W        W12284   0.713   7.649  11.812
 8234W        W12285   4.534   0.273   2.838
 8235W        W12286   9.077   5.913   1.408
 8236W        W12287   0.432  10.395   3.235
 8237W        W12288   0.754   2.814   8.966
 8238W        W12289   9.131   0.756   8.878
 8239W        W12290   5.317   8.431   2.116
 8240W        W12291  10.310   2.696   1.943
 8241W        W12292  10.472  10.580   0.061
 8242W        W12293   4.987   6.715   8.639
 8243W        W12294   1.264   9.313  10.558
 8244W        W12295   2.641   6.052   2.804
 8245W        W12296   6.376   4.087   1.791
 8246W        W12297   1.643   0.367  10.431
 8247W        W12298   9.594   4.643   1.887
 8248W        W12299   5.713   0.446  10.131
 8249W        W12300   7.115  11.495   0.886
 8250W        W12301   1.464   6.549  10.276
 8251W        W12302   5.952   2.102   9.045
 8252W        W12303   9.029   2.945  11.805
 8253W        W12304   4.334   8.584   1.636
 8254W        W12305  10.391   0.965   0.484
 8255W        W12306   3.113   0.930   3.514
 8256W        W12307   4.389   3.597  11.944
 8257W        W12308   3.694   4.113  11.398
 8258W        W12309   0.184  10.344  11.904
 8259W        W12310   8.487  11.429  11.710
 8260W        W12311   6.524   4.823   1.442
 8261W        W12312   2.420   0.301  10.845
 8262W        W12313  10.559   6.581   3.498
 8263W        W12314   1.534   5.094   0.306
 8264W        W12315  10.990   7.988   1.243
 8265W        W12316   2.664   0.966   2.734
 8266W        W12317   6.603   1.076   2.906
 8267W        W12318   5.579   7.588  10.436
 8268W        W12319   8.378   5.717  10.543
 8269W        W12320   9.407   9.139   9.436
 8270W        W12321   5.209   4.192   9.948
 8271W        W12322   4.096   0.975   0.719
 8272W        W12323  10.619   5.114  10.417
 8273W        W12324  10.433  11.487   0.227
 8274W        W12325   8.991   0.812  10.302
 8275W        W12326   2.268   6.159   0.970
 8276W        W12327   1.833   4.103  11.434
 8277W        W12328   6.952   7.492   2.316
 8278W        W12329   1.059   7.525   9.859
 8279W        W12330   2.628   6.913  11.716
 8280W        W12331   3.093   6.283   2.889
 8281W        W12332  11.023  10.820   1.199
 8282W        W12333   9.839   3.675   9.029
 8283W        W12334   8.782   6.363  11.220
 8284W        W12335   6.046   4.138   1.423
 8285W        W12336   0.293   6.024   3.604
 8286W        W12337   5.007   2.176  11.042
 8287W        W12338  10.763   0.392  10.317
 8288W        W12339   8.327   5.776   8.887
 8289W        W12340   4.816   4.880  11.484
 8290W        W12341   4.672   7.499   1.385
 8291W        W12342   2.244   4.172  11.108
 8292W        W12343   7.261   5.105   0.289
 8293W        W12344   9.366   7.255   9.286
 8294W        W12345   6.869  10.057   8.597
 8295W        W12346   7.129   2.883  11.263
 8296W        W12347   1.874   0.052   1.463
 8297W        W12348   9.647  11.221   0.681
 8298W        W12349   4.401   7.018  11.331
 8299W        W12350   8.906   5.603   0.408
 8300W        W12351  11.231   6.218   0.987
 8301W        W12352   5.505   8.899  11.645
 8302W        W12353   7.457   5.280  11.447
 8303W        W12354   7.401   9.289  10.959
 8304W        W12355   1.008   9.046   0.919
 8305W        W12356   0.173   3.536   1.079
 8306W        W12357   8.118   5.191  11.987
 8307W        W12358  10.330   4.742   0.463
 8308W        W12359   5.934  11.446   0.820
 8309W        W12360   5.658   4.683   8.753
 8310W        W12361   5.505   3.851  11.859
 8311W        W12362   2.832   8.778  10.565
 8312W        W12363   5.193   4.587   2.718
 8313W        W12364  10.395   2.931   0.370
 8314W        W12365   3.837   5.376   2.095
 8315W        W12366  10.351  10.138  11.837
 8316W        W12367   3.349   3.889   0.519
 8317W        W12368   6.633   0.258   9.735
 8318W        W12369  10.916   8.105   9.548
 8319W        W12370   2.377  11.029   9.575
 8320W        W12371   6.487   8.513   0.721
 8321W        W12372   5.067   6.091  10.845
 8322W        W12373   8.252   4.871  10.982
 8323W        W12374   9.282   6.169   0.982
 8324W        W12375   7.566  10.780   8.716
 8325W        W12376   3.343   5.485   2.955
 8326W        W12377   9.888   1.216  10.031
 8327W        W12378   2.775   2.843   2.445
 8328W        W12379   4.401  10.364   1.494
 8329W        W12380   9.507   8.033   1.295
 8330W        W12381   3.920   6.581   0.761
 8331W        W12382   3.378   5.697   8.282
 8332W        W12383   6.935   6.131   0.754
 8333W        W12384   0.819   5.079   9.542
 8334W        W12385   9.775   6.192   1.874
 8335W        W12386   1.349   0.473   9.537
 8336W        W12387   5.088   8.155   0.491
 8337W        W12388  10.458   4.459   1.884
 8338W        W12389   9.478  11.466  10.257
 8339W        W12390   8.882  10.437   1.661
 8340W        W12391   1.932   6.631  10.504
 8341W        W12392   8.974   2.555   9.915
 8342W        W12393   8.525   9.858   9.323
 8343W        W12394  10.703   3.727  10.152
 8344W        W12395   3.270   0.549   3.226
 8345W        W12396   0.844   2.288   2.725
 8346W        W12397   9.239   8.432   3.580
 8347W        W12398   6.171   9.325  11.751
 8348W        W12399   1.100  11.415   2.277
 8349W        W12400   5.211   3.611   3.510
 8350W        W12401   0.229   9.083   2.624
 8351W        W12402   5.713   1.252   9.851
 8352W        W12403   1.715   4.564  10.078
 8353W        W12404   5.721   0.274   3.406
 8354W        W12405   4.546   2.730   9.146
 8355W        W12406   1.751   9.421  10.529
 8356W        W12407   7.678   6.463   3.378
 8357W        W12408   9.293   9.374   8.984
 8358W        W12409   5.073   4.579   1.736
 8359W        W12410   3.285   6.190   9.323
 8360W        W12411   7.819   4.605  11.245
 8361W        W12412   3.818   5.773   0.707
 8362W        W12413   1.262   5.901   3.488
 8363W        W12414   7.085   2.659  11.970
 8364W        W12415   1.782   7.387   3.994
 8365W        W12416   4.671   8.871  10.497
 8366W        W12417   9.081   1.667   1.938
 8367W        W12418   8.346   4.355   0.863
 8368W        W12419   2.671   0.226   1.702
 8369W        W12420  10.500   8.662   3.168
 8370W        W12421   1.423   7.125   2.429
 8371W        W12422   2.384   4.854   2.812
 8372W        W12423  10.450   5.802   9.957
 8373W        W12424   4.229   4.270   8.800
 8374W        W12425   1.995   4.620   1.038
 8375W        W12426   5.098   7.190   1.365
 8376W        W12427   2.354   1.846   2.212
 8377W        W12428   8.910   5.080  10.301
 8378W        W12429   4.089   5.300  10.100
 8379W        W12430   8.338   3.858   2.338
 8380W        W12431   9.369   9.330  10.930
 8381W        W12432   4.806   7.746   0.566
 8382W        W12433   1.331   4.611   1.225
 8383W        W12434   8.531   9.567  11.536
 8384W        W12435   2.275   1.479   3.431
 8385W        W12436   3.250   0.130   2.928
 8386W        W12437   7.502   8.503   9.336
 8387W        W12438   1.367   7.091  10.027
 8388W        W12439   8.538   0.314  11.392
 8389W        W12440   7.164  11.323   1.818
 8390W        W12441  11.440   4.821   9.053
 8391W        W12442   0.278   9.893  10.157
 8392W        W12443   5.070   1.673  10.762
 8393W        W12444   1.929   6.144   8.922
 8394W        W12445   7.169   0.021   9.082
 8395W        W12446   7.415   4.354  10.598
 8396W        W12447   2.780   3.272   9.237
 8397W        W12448   6.214   2.868   0.441
 8398W        W12449   8.479   0.167   0.980
 8399W        W12450   2.167   0.419  11.298
 8400W        W12451   3.297   3.843   9.625
 8401W        W12452   6.393   3.356  10.622
 8402W        W12453   0.347   9.522   1.977
 8403W        W12454   0.935   5.998   1.663
 8404W        W12455   1.342   0.975   9.578
 8405W        W12456   1.367   5.073  10.717
 8406W        W12457   7.503   0.266   9.643
 8407W        W12458   3.746   8.520   8.720
 8408W        W12459   4.192  10.943   0.743
 8409W        W12460   9.201   1.358   0.693
 8410W        W12461   2.357   5.272   2.493
 8411W        W12462   2.735   8.036   3.169
 8412W        W12463   6.147   3.457  11.143
 8413W        W12464   4.144   0.874   9.156
 8414W        W12465   5.984   7.229   3.176
 8415W        W12466  10.552   6.010  11.808
 8416W        W12467   3.356  11.394   8.703
 8417W        W12468   7.498   8.588   1.833
 8418W        W12469   1.222  10.458   0.502
 8419W        W12470   6.551   9.595  11.510
 8420W        W12471   9.104   2.461   0.696
 8421W        W12472   3.113   0.672  11.034
 8422W        W12473   8.596   0.716   8.998
 8423W        W12474   1.586   7.619   2.288
 8424W        W12475  11.477   6.518  10.562
 8425W        W12476   7.679   1.804   1.971
 8426W        W12477   7.176   1.207  11.767
 8427W        W12478   4.680   2.856   3.570
 8428W        W12479   6.790   0.377   8.962
 8429W        W12480   2.757   7.396   9.820
 8430W        W12481   0.367   4.991  10.736
 8431W        W12482  10.836  11.419  10.516
 8432W        W12483   1.284   3.292   3.133
 8433W        W12484  10.855   0.845   9.568
 8434W        W12485   8.422   2.456   9.074
 8435W        W12486   1.348   6.220   1.982
 8436W        W12487   7.788   6.111   8.832
 8437W        W12488   9.906   7.198   1.902
 8438W        W12489   9.547   3.877   8.586
 8439W        W12490   6.381   2.059   4.081
 8440W        W12491   2.904   8.415  11.899
 8441W        W12492   9.426   1.672   3.347
 8442W        W12493  10.844  10.088   0.927
 8443W        W12494   3.156   6.660   2.564
 8444W        W12495   4.820  10.309   1.826
 8445W        W12496   3.217  10.063   9.856
 8446W        W12497   6.001  11.004   1.973
 8447W        W12498   3.162   0.323   0.983
 8448ION    NA+12499   2.201   0.086   1.882
 8449ION    NA+12500   3.679   7.543   1.119
 8450ION    NA+12501   9.644   3.929  11.231
 8451ION    NA+12502   3.110   8.855   1.561
 8452ION    NA+12503   9.447   4.682  10.603
 8453ION    NA+12504   2.239   6.601   2.143
 8454ION    NA+12505   4.805   3.790  11.714
 8455ION    NA+12506   7.476   1.277   3.650
 8456ION    NA+12507   0.011   8.484  10.399
 8457ION    NA+12508   6.172   8.185   2.217
 8458ION    NA+12509   9.562   8.366  11.883
 8459ION    NA+12510   9.469   6.087   0.214
 8460ION    NA+12511   3.381   5.705   1.653
 8461ION    NA+12512   9.320   0.924  11.705
 8462ION    NA+12513   5.254   4.971   2.072
 8463ION    NA+12514  11.427   5.203  10.601
 8464ION    NA+12515   7.395   3.522   2.185
 8465ION    NA+12516   7.961  10.508   9.347
 8466ION    NA+12517   0.256   7.397   8.912
 8467ION    NA+12518   9.419   6.455   9.554
 8468ION    NA+12519   2.141   8.169   9.733
 8469ION    NA+12520   7.613   2.182   8.813
 8470ION    NA+12521   8.093   2.598   3.883
 8471ION    NA+12522   8.854  10.969   9.487
 8472ION    NA+12523   5.242   6.349  11.286
 8473ION    NA+12524   0.552   7.492   9.754
 8474ION    NA+12525   9.138  10.670   0.819
 8475ION    NA+12526   3.790   4.013  10.147
 8476ION    NA+12527   9.376   7.735  11.257
 8477ION    NA+12528   3.915   2.170   1.711
 8478ION    NA+12529   4.798   0.904   2.125
 8479ION    NA+12530   1.266   5.058  11.808
 8480ION    NA+12531   0.984  11.187   8.938
 8481ION    NA+12532   8.778   8.380  11.733
 8482ION    NA+12533   0.881   4.006   3.048
 8483ION    NA+12534   7.073   1.367   2.740
 8484ION    NA+12535   5.077   2.096  11.947
 8485ION    NA+12536   4.148   0.733  10.400
 8486ION    NA+12537  10.583   0.093   1.480
 8487ION    NA+12538   5.599   7.576   2.446
 8488ION    NA+12539  11.157   0.489   2.696
 8489ION    NA+12540   4.229   3.957   0.588
 8490ION    NA+12541   6.027   9.462   2.519
 8491ION    NA+12542   3.201   2.360   0.429
 8492ION    NA+12543   1.525   2.214   8.868
 8493ION    NA+12544   3.051   8.909  11.849
 8494ION    NA+12545   4.172   1.779   2.595
 8495ION    NA+12546   8.543   6.836   9.850
 8496ION    NA+12547   7.523   9.554   1.009
 8497ION    NA+12548   7.428   0.858   0.079
 8498ION    NA+12549   1.833   4.127   1.283
 8499ION    NA+12550   7.957   6.372  10.580
 8500ION    NA+12551   3.083   5.817   2.625
 8501ION    NA+12552   5.382   1.579   2.194
 8502ION    NA+12553   0.246   4.383  11.705
 8503ION    NA+12554   3.054   8.289   0.890
 8504ION    NA+12555   7.120   1.696   1.665
 8505ION    NA+12556   3.074  11.036   7.999
 8506ION    NA+12557   8.195   1.068   2.934
 8507ION    NA+12558   4.043   8.438   0.861
 8508ION    NA+12559   9.271   0.061   0.937
 8509ION    NA+12560   3.572   2.073   3.647
 8510ION    NA+12561   5.366  10.103  11.417
 8511ION    NA+12562   7.954   5.110   3.169
 8512ION    NA+12563  11.368   7.931  11.968
 8513ION    NA+12564   9.335   0.751   9.926
 8514ION    NA+12565  11.434  11.065  11.987
 8515ION    NA+12566  11.049   6.510  10.176
 8516ION    NA+12567   5.748   2.806   9.540
 8517ION    NA+12568   6.644   9.174   8.773
 8518ION    NA+12569   0.997   5.102   1.237
 8519ION    NA+12570   7.551   0.243  11.300
 8520ION    NA+12571   0.421   0.393   9.107
 8521ION    NA+12572   2.358   7.764   8.544
 8522ION    NA+12573   8.985   3.300   0.439
 8523ION    NA+12574   9.584   1.520   2.444
 8524ION    NA+12575  10.446   7.674   9.862
 8525ION    NA+12576  10.518   4.152   0.740
 8526ION    NA+12577   7.399   8.727   8.883
 8527ION    NA+12578   0.581   1.500  11.499
 8528ION    NA+12579   9.754  10.124  11.157
 8529ION    NA+12580  10.338  11.016   0.373
 8530ION    NA+12581   9.553   1.484   9.276
 8531ION    NA+12582   0.058   1.865  10.728
 8532ION    NA+12583   8.595   4.535   2.662
 8533ION    NA+12584   1.812  11.206   0.431
 8534ION    NA+12585   2.654   3.418  10.370
 8535ION    NA+12586   8.493   0.181   9.870
 8536ION    NA+12587   5.130   3.408   8.254
 8537ION    CL-12588   2.820   4.612   2.959
 8538ION    CL-12589   4.692   3.268   8.268
 8539ION    CL-12590   0.375   2.360   3.513
 8540ION    CL-12591   1.215  11.342  11.530
 8541ION    CL-12592  10.031   4.136   3.511
 8542ION    CL-12593  11.141  11.427  10.919
 8543ION    CL-12594   5.810  10.109  11.369
 8544ION    CL-12595   9.144   3.754  10.375
 8545ION    CL-12596   9.476  10.483  11.212
 8546ION    CL-12597   0.094   0.590  10.322
 8547ION    CL-12598   2.812   5.116  11.760
 8548ION    CL-12599   5.057   1.277   2.107
 8549ION    CL-12600   3.525  10.742   3.634
 8550ION    CL-12601  11.244   4.083   1.546
 8551ION    CL-12602   1.512   7.651  11.360
 8552ION    CL-12603   0.358   1.529  10.848
 8553ION    CL-12604   6.394   9.316   2.309
 8554ION    CL-12605   0.320  10.504  10.898
 8555ION    CL-12606   4.598   3.956  10.364
 8556ION    CL-12607   6.234   9.340  10.153
 8557ION    CL-12608   0.717   0.042   9.101
 8558ION    CL-12609   2.657   2.201  10.850
 8559ION    CL-12610   7.715   1.735   8.785
 8560ION    CL-12611   9.505   1.895   2.208
 8561ION    CL-12612   9.060   1.193  11.462
 8562ION    CL-12613   0.858   8.790  11.562
 8563ION    CL-12614   8.307   0.678   2.747
 8564ION    CL-12615   9.408  10.806   3.607
 8565ION    CL-12616  11.435   0.835   2.717
 8566ION    CL-12617   8.275   4.617  11.464
 8567ION    CL-12618   2.510   9.852   9.477
 8568ION    CL-12619   8.602   3.080   0.385
 8569ION    CL-12620   9.381   2.893   9.925
 8570ION    CL-12621   4.768   7.231   2.920
 8571ION    CL-12622   9.147   8.590  11.939
 8572ION    CL-12623   8.575   8.126  11.404
 8573ION    CL-12624   6.110   7.404   0.237
 8574ION    CL-12625  10.507   2.195   3.080
 8575ION    CL-12626  11.223   9.427   0.749
 8576ION    CL-12627   1.801   4.941   4.093
 8577ION    CL-12628   0.508   1.839  11.787
 8578ION    CL-12629   8.612  11.268   9.724
 8579ION    CL-12630   1.924  10.186   3.397
 8580ION    CL-12631   8.560   2.123  10.996
 8581ION    CL-12632  11.460   1.441   0.522
 8582ION    CL-12633   2.748  11.055   3.088
 8583ION    CL-12634   8.068   7.909  10.433
 8584ION    CL-12635  10.070   9.855  10.964
 8585ION    CL-12636   4.172   0.064   8.362
 8586ION    CL-12637   0.310   6.752   1.626
 8587ION    CL-12638   5.782   7.977   2.326
 8588ION    CL-12639   7.399   7.090   1.701
 8589ION    CL-12640   1.312   2.243   9.259
 8590ION    CL-12641   9.698   3.489  11.165
 8591ION    CL-12642   5.868  10.379  10.039
 8592ION    CL-12643   2.071  11.076   8.699
 8593ION    CL-12644   4.082   4.072   0.995
 8594ION    CL-12645   0.403  10.518   0.967
 8595ION    CL-12646   3.093   8.490   1.295
 8596ION    CL-12647   9.203  11.113   0.902
 8597ION    CL-12648  10.389   3.968   2.052
 8598ION    CL-12649  10.831   1.192  10.558
 8599ION    CL-12650   4.724   7.851   1.743
 8600ION    CL-12651   5.634   3.237  11.294
 8601ION    CL-12652  10.513   7.010   0.465
 8602ION    CL-12653   2.763   3.839  10.462
 8603ION    CL-12654   4.832   1.307   8.901
 8604ION    CL-12655   0.025   7.720   8.447
 8605ION    CL-12656   6.929   9.286  11.262
 8606ION    CL-12657   9.854   8.553   9.830
 8607ION    CL-12658   5.946   7.027   9.826
 8608ION    CL-12659   4.250   0.549  10.007
 8609ION    CL-12660   9.552   8.002  11.581
 8610ION    CL-12661   0.353   7.450   9.352
 8611ION    CL-12662   8.077   7.367   2.811
 8612ION    CL-12663   1.654   6.533   9.429
 8613ION    CL-12664   6.974   8.856   8.762
 8614ION    CL-12665   2.129  10.906   0.341
 8615ION    CL-12666   9.590   4.387   2.482
 8616ION    CL-12667   5.502   6.018  11.138
 8617ION    CL-12668   4.836   5.236  10.821
 8618ION    CL-12669   7.079   0.679   0.293
 8619ION    CL-12670   0.610   8.099   3.174
 8620ION    CL-12671  11.184   2.122  10.661
 8621ION    CL-12672   4.217   9.614   0.497
 8622ION    CL-12673   0.988  10.084   9.119
 8623ION    CL-12674   6.510   4.445  11.956
 8624ION    CL-12675   0.456   8.580   1.464
 8625ION    CL-12676   6.754   7.565  10.089
  11.50000  11.50000  12.00000
