Protein in INSANE! Membrane UpperLeaflet>POPC=1.0 LowerLeaflet>POPC=1.0
12676
   85AUC    AUC    1   5.751   5.859   6.003
   86AUC    AUC    2   5.996   5.859   5.851
   87AUC    AUC    3   5.996   5.859   6.154
   88AUC    AUC    4   5.506   5.859   5.851
   89AUC    AUC    5   5.506   5.859   6.154
   90AUC    AUC    6   5.599   6.105   6.003
   91AUC    AUC    7   5.903   6.105   6.003
   92AUC    AUC    8   5.599   5.614   6.003
   93AUC    AUC    9   5.903   5.614   6.003
   94AUC    AUC   10   5.751   5.708   6.248
   95AUC    AUC   11   5.751   6.011   6.248
   96AUC    AUC   12   5.751   5.708   5.757
   97AUC    AUC   13   5.751   6.011   5.757
   98AUC    AUC   14   6.242   5.859   5.699
   99AUC    AUC   15   6.242   5.859   6.003
  100AUC    AUC   16   6.242   5.859   6.306
  101AUC    AUC   17   5.260   5.859   5.699
  102AUC    AUC   18   5.260   5.859   6.003
  103AUC    AUC   19   5.260   5.859   6.306
  104AUC    AUC   20   5.448   6.350   6.003
  105AUC    AUC   21   5.751   6.350   6.003
  106AUC    AUC   22   6.054   6.350   6.003
  107AUC    AUC   23   5.448   5.369   6.003
  108AUC    AUC   24   5.751   5.369   6.003
  109AUC    AUC   25   6.054   5.369   6.003
  110AUC    AUC   26   5.751   5.556   6.493
  111AUC    AUC   27   5.751   5.859   6.493
  112AUC    AUC   28   5.751   6.163   6.493
  113AUC    AUC   29   5.751   5.556   5.512
  114AUC    AUC   30   5.751   5.859   5.512
  115AUC    AUC   31   5.751   6.163   5.512
  116AUC    AUC   32   5.996   5.708   6.400
  117AUC    AUC   33   5.996   6.011   6.400
  118AUC    AUC   34   5.996   5.708   5.606
  119AUC    AUC   35   5.996   6.011   5.606
  120AUC    AUC   36   5.506   5.708   6.400
  121AUC    AUC   37   5.506   6.011   6.400
  122AUC    AUC   38   5.506   5.708   5.606
  123AUC    AUC   39   5.506   6.011   5.606
  124AUC    AUC   40   6.148   6.105   5.851
  125AUC    AUC   41   6.148   6.105   6.154
  126AUC    AUC   42   5.354   6.105   5.851
  127AUC    AUC   43   5.354   6.105   6.154
  128AUC    AUC   44   6.148   5.614   5.851
  129AUC    AUC   45   6.148   5.614   6.154
  130AUC    AUC   46   5.354   5.614   5.851
  131AUC    AUC   47   5.354   5.614   6.154
  132AUC    AUC   48   5.599   6.257   6.248
  133AUC    AUC   49   5.903   6.257   6.248
  134AUC    AUC   50   5.599   5.462   6.248
  135AUC    AUC   51   5.903   5.462   6.248
  136AUC    AUC   52   5.599   6.257   5.757
  137AUC    AUC   53   5.903   6.257   5.757
  138AUC    AUC   54   5.599   5.462   5.757
  139AUC    AUC   55   5.903   5.462   5.757
   56AUSL   AUS   56   6.160   5.859   6.583
   57AUSL   AUS   57   6.016   5.443   6.513
   58AUL    AUL   58   6.242   5.556   6.797
   59THSLK  S     59   6.126   5.256   6.653
   60ETHY   C1    60   6.162   4.857   6.868
   62ETHY   C1    61   6.272   4.427   7.165
   64ETHY   C1    62   6.450   4.063   7.500
   66ETHY   C1    63   6.684   3.767   7.864
   68ETHY   C1    64   6.970   3.550   8.252
   70ETHY   C1    65   7.301   3.417   8.656
   72THSLK  S     66   6.253   5.807   6.824
   73ETHY   C1    67   6.457   5.587   7.165
   75ETHY   C1    68   6.721   5.410   7.594
   77ETHY   C1    69   6.997   5.334   8.035
   79ETHY   C1    70   7.274   5.351   8.480
   81ETHY   C1    71   7.544   5.464   8.919
   83ETHY   C1    72   7.803   5.673   9.345
   56AUSL   AUS   73   5.915   5.708   6.676
   57AUSL   AUS   74   5.587   6.011   6.676
   58AUL    AUL   75   5.751   5.859   6.984
   59THSLK  S     76   5.990   5.653   6.913
   60ETHY   C1    77   6.054   5.373   7.265
   62ETHY   C1    78   6.157   5.118   7.723
   64ETHY   C1    79   6.284   4.959   8.208
   66ETHY   C1    80   6.426   4.890   8.708
   68ETHY   C1    81   6.580   4.918   9.213
   70ETHY   C1    82   6.740   5.042   9.712
   72THSLK  S     83   5.502   5.965   6.928
   73ETHY   C1    84   5.428   5.815   7.350
   75ETHY   C1    85   5.323   5.727   7.867
   77ETHY   C1    86   5.201   5.739   8.378
   79ETHY   C1    87   5.063   5.840   8.873
   81ETHY   C1    88   4.908   6.033   9.340
   83ETHY   C1    89   4.739   6.314   9.768
   56AUSL   AUS   90   5.915   6.011   6.676
   57AUSL   AUS   91   6.261   6.124   6.419
   58AUL    AUL   92   6.242   6.163   6.797
   59THSLK  S     93   6.000   6.067   6.910
   60ETHY   C1    94   6.074   6.348   7.259
   62ETHY   C1    95   6.179   6.603   7.717
   64ETHY   C1    96   6.301   6.762   8.203
   66ETHY   C1    97   6.440   6.831   8.704
   68ETHY   C1    98   6.594   6.804   9.208
   70ETHY   C1    99   6.763   6.680   9.706
   72THSLK  S    100   6.433   6.222   6.580
   73ETHY   C1   101   6.796   6.193   6.850
   75ETHY   C1   102   7.218   6.249   7.173
   77ETHY   C1   103   7.610   6.403   7.489
   79ETHY   C1   104   7.964   6.641   7.793
   81ETHY   C1   105   8.271   6.962   8.080
   83ETHY   C1   106   8.522   7.359   8.344
   56AUSL   AUS  107   6.160   5.859   5.423
   57AUSL   AUS  108   6.016   6.276   5.492
   58AUL    AUL  109   6.242   6.163   5.208
   59THSLK  S    110   6.262   5.807   5.187
   60ETHY   C1   111   6.475   5.587   4.851
   62ETHY   C1   112   6.740   5.410   4.423
   64ETHY   C1   113   7.012   5.334   3.979
   66ETHY   C1   114   7.286   5.351   3.533
   68ETHY   C1   115   7.557   5.464   3.094
   70ETHY   C1   116   7.822   5.673   2.673
   72THSLK  S    117   6.194   6.387   5.329
   73ETHY   C1   118   6.496   6.455   4.997
   75ETHY   C1   119   6.815   6.618   4.600
   77ETHY   C1   120   7.080   6.865   4.219
   79ETHY   C1   121   7.292   7.185   3.862
   81ETHY   C1   122   7.445   7.575   3.539
   83ETHY   C1   123   7.536   8.027   3.259
   56AUSL   AUS  124   5.915   5.708   5.329
   57AUSL   AUS  125   6.261   5.595   5.586
   58AUL    AUL  126   6.242   5.556   5.208
   59THSLK  S    127   6.394   5.403   5.449
   60ETHY   C1   128   6.577   5.036   5.252
   62ETHY   C1   129   6.849   4.664   4.983
   64ETHY   C1   130   7.174   4.375   4.686
   66ETHY   C1   131   7.540   4.168   4.374
   68ETHY   C1   132   7.944   4.049   4.055
   70ETHY   C1   133   8.377   4.024   3.735
   72THSLK  S    134   6.000   5.652   5.096
   73ETHY   C1   135   6.074   5.371   4.746
   75ETHY   C1   136   6.179   5.115   4.288
   77ETHY   C1   137   6.301   4.957   3.802
   79ETHY   C1   138   6.440   4.888   3.301
   81ETHY   C1   139   6.594   4.915   2.797
   83ETHY   C1   140   6.763   5.039   2.299
   56AUSL   AUS  141   5.915   6.011   5.329
   57AUSL   AUS  142   5.587   5.708   5.329
   58AUL    AUL  143   5.751   5.859   5.021
   59THSLK  S    144   5.495   5.652   5.097
   60ETHY   C1   145   5.360   5.374   4.764
   62ETHY   C1   146   5.199   5.121   4.322
   64ETHY   C1   147   5.047   4.964   3.843
   66ETHY   C1   148   4.911   4.895   3.342
   68ETHY   C1   149   4.794   4.921   2.828
   70ETHY   C1   150   4.701   5.040   2.310
   72THSLK  S    151   6.017   5.965   5.083
   73ETHY   C1   152   6.163   5.815   4.679
   75ETHY   C1   153   6.325   5.724   4.178
   77ETHY   C1   154   6.472   5.734   3.673
   79ETHY   C1   155   6.605   5.835   3.177
   81ETHY   C1   156   6.722   6.030   2.700
   83ETHY   C1   157   6.823   6.316   2.254
   56AUSL   AUS  158   5.342   5.859   6.583
   57AUSL   AUS  159   5.486   6.276   6.513
   58AUL    AUL  160   5.260   6.163   6.797
   59THSLK  S    161   5.240   5.807   6.819
   60ETHY   C1   162   5.028   5.587   7.154
   62ETHY   C1   163   4.762   5.410   7.582
   64ETHY   C1   164   4.490   5.334   8.026
   66ETHY   C1   165   4.216   5.351   8.473
   68ETHY   C1   166   3.945   5.464   8.911
   70ETHY   C1   167   3.680   5.673   9.332
   72THSLK  S    168   5.369   6.400   6.702
   73ETHY   C1   169   5.326   6.543   7.132
   75ETHY   C1   170   5.215   6.768   7.604
   77ETHY   C1   171   5.039   7.045   8.015
   79ETHY   C1   172   4.808   7.361   8.363
   81ETHY   C1   173   4.522   7.709   8.638
   83ETHY   C1   174   4.185   8.082   8.834
   56AUSL   AUS  175   5.587   5.708   6.676
   57AUSL   AUS  176   5.241   5.595   6.419
   58AUL    AUL  177   5.260   5.556   6.797
   59THSLK  S    178   5.064   5.432   6.526
   60ETHY   C1   179   4.693   5.175   6.582
   62ETHY   C1   180   4.271   4.887   6.737
   64ETHY   C1   181   3.881   4.632   6.982
   66ETHY   C1   182   3.529   4.415   7.303
   68ETHY   C1   183   3.223   4.244   7.698
   70ETHY   C1   184   2.966   4.123   8.157
   72THSLK  S    185   5.485   5.654   6.906
   73ETHY   C1   186   5.339   5.378   7.236
   75ETHY   C1   187   5.177   5.126   7.678
   77ETHY   C1   188   5.030   4.968   8.158
   79ETHY   C1   189   4.897   4.898   8.660
   81ETHY   C1   190   4.780   4.924   9.174
   83ETHY   C1   191   4.679   5.045   9.690
   56AUSL   AUS  192   5.342   5.859   5.423
   57AUSL   AUS  193   5.486   5.443   5.492
   58AUL    AUL  194   5.260   5.556   5.208
   59THSLK  S    195   5.249   5.807   5.181
   60ETHY   C1   196   5.045   5.587   4.841
   62ETHY   C1   197   4.781   5.410   4.411
   64ETHY   C1   198   4.505   5.334   3.970
   66ETHY   C1   199   4.228   5.351   3.525
   68ETHY   C1   200   3.958   5.464   3.086
   70ETHY   C1   201   3.699   5.673   2.661
   72THSLK  S    202   5.315   5.270   5.378
   73ETHY   C1   203   5.020   4.944   5.260
   75ETHY   C1   204   4.702   4.577   5.038
   77ETHY   C1   205   4.434   4.242   4.733
   79ETHY   C1   206   4.220   3.942   4.361
   81ETHY   C1   207   4.068   3.684   3.926
   83ETHY   C1   208   3.982   3.472   3.437
   56AUSL   AUS  209   5.587   6.011   5.329
   57AUSL   AUS  210   5.241   6.124   5.586
   58AUL    AUL  211   5.260   6.163   5.208
   59THSLK  S    212   5.114   6.251   5.395
   60ETHY   C1   213   4.937   6.332   4.984
   62ETHY   C1   214   4.666   6.472   4.546
   64ETHY   C1   215   4.339   6.660   4.179
   66ETHY   C1   216   3.970   6.889   3.885
   68ETHY   C1   217   3.568   7.156   3.673
   70ETHY   C1   218   3.139   7.458   3.547
   72THSLK  S    219   5.512   5.967   5.076
   73ETHY   C1   220   5.448   5.820   4.650
   75ETHY   C1   221   5.345   5.731   4.134
   77ETHY   C1   222   5.218   5.742   3.623
   79ETHY   C1   223   5.076   5.843   3.129
   81ETHY   C1   224   4.923   6.036   2.662
   83ETHY   C1   225   4.762   6.319   2.232
   56AUSL   AUS  226   6.331   6.268   6.003
   57AUSL   AUS  227   6.261   6.124   5.586
   58AUL    AUL  228   6.545   6.350   5.699
   59THSLK  S    229   6.439   6.223   5.434
   60ETHY   C1   230   6.809   6.196   5.171
   62ETHY   C1   231   7.231   6.252   4.849
   64ETHY   C1   232   7.621   6.406   4.530
   66ETHY   C1   233   7.973   6.643   4.224
   68ETHY   C1   234   8.280   6.964   3.938
   70ETHY   C1   235   8.536   7.363   3.679
   72THSLK  S    236   6.597   6.321   6.008
   73ETHY   C1   237   7.051   6.343   6.013
   75ETHY   C1   238   7.573   6.457   6.014
   77ETHY   C1   239   8.056   6.666   6.011
   79ETHY   C1   240   8.492   6.956   6.010
   81ETHY   C1   241   8.871   7.323   6.010
   83ETHY   C1   242   9.185   7.763   6.014
   56AUSL   AUS  243   6.425   6.023   5.851
   57AUSL   AUS  244   6.425   5.696   6.154
   58AUL    AUL  245   6.733   5.859   6.003
   59THSLK  S    246   6.681   6.062   5.850
   60ETHY   C1   247   7.117   5.954   5.786
   62ETHY   C1   248   7.643   5.916   5.701
   64ETHY   C1   249   8.158   5.980   5.613
   66ETHY   C1   250   8.652   6.134   5.526
   68ETHY   C1   251   9.112   6.379   5.445
   70ETHY   C1   252   9.531   6.711   5.373
   72THSLK  S    253   6.652   5.556   6.163
   73ETHY   C1   254   6.971   5.240   6.228
   75ETHY   C1   255   7.404   4.936   6.307
   77ETHY   C1   256   7.879   4.726   6.387
   79ETHY   C1   257   8.382   4.605   6.471
   81ETHY   C1   258   8.902   4.579   6.558
   83ETHY   C1   259   9.430   4.649   6.647
   56AUSL   AUS  260   6.425   6.023   6.154
   57AUSL   AUS  261   6.167   6.370   6.267
   58AUL    AUL  262   6.545   6.350   6.306
   59THSLK  S    263   6.350   6.484   6.426
   60ETHY   C1   264   6.733   6.602   6.640
   62ETHY   C1   265   7.151   6.825   6.888
   64ETHY   C1   266   7.510   7.130   7.122
   66ETHY   C1   267   7.807   7.503   7.340
   68ETHY   C1   268   8.032   7.937   7.538
   70ETHY   C1   269   8.179   8.425   7.715
   72THSLK  S    270   6.679   6.062   6.165
   73ETHY   C1   271   7.114   5.954   6.240
   75ETHY   C1   272   7.640   5.916   6.326
   77ETHY   C1   273   8.155   5.979   6.410
   79ETHY   C1   274   8.649   6.133   6.493
   81ETHY   C1   275   9.110   6.378   6.575
   83ETHY   C1   276   9.527   6.710   6.655
   56AUSL   AUS  277   5.171   6.268   6.003
   57AUSL   AUS  278   5.241   6.124   6.419
   58AUL    AUL  279   4.957   6.350   6.306
   59THSLK  S    280   5.108   6.243   6.609
   60ETHY   C1   281   4.925   6.315   7.019
   62ETHY   C1   282   4.653   6.455   7.457
   64ETHY   C1   283   4.328   6.646   7.824
   66ETHY   C1   284   3.962   6.877   8.119
   68ETHY   C1   285   3.559   7.144   8.331
   70ETHY   C1   286   3.125   7.440   8.456
   72THSLK  S    287   4.960   6.409   6.008
   73ETHY   C1   288   4.738   6.806   6.013
   75ETHY   C1   289   4.402   7.221   6.014
   77ETHY   C1   290   3.999   7.560   6.011
   79ETHY   C1   291   3.545   7.821   6.010
   81ETHY   C1   292   3.046   7.995   6.010
   83ETHY   C1   293   2.513   8.079   6.014
   56AUSL   AUS  294   5.077   6.023   5.851
   57AUSL   AUS  295   5.335   6.370   5.738
   58AUL    AUL  296   4.957   6.350   5.699
   59THSLK  S    297   4.850   6.138   5.803
   60ETHY   C1   298   4.531   6.338   5.549
   62ETHY   C1   299   4.098   6.544   5.313
   64ETHY   C1   300   3.623   6.710   5.161
   66ETHY   C1   301   3.120   6.839   5.090
   68ETHY   C1   302   2.600   6.929   5.105
   70ETHY   C1   303   2.072   6.977   5.208
   72THSLK  S    304   5.223   6.533   5.560
   73ETHY   C1   305   5.144   6.843   5.237
   75ETHY   C1   306   4.969   7.217   4.897
   77ETHY   C1   307   4.715   7.585   4.620
   79ETHY   C1   308   4.395   7.942   4.409
   81ETHY   C1   309   4.014   8.280   4.270
   83ETHY   C1   310   3.579   8.594   4.209
   56AUSL   AUS  311   5.077   6.023   6.154
   57AUSL   AUS  312   5.077   5.696   5.851
   58AUL    AUL  313   4.769   5.859   6.003
   59THSLK  S    314   4.823   5.623   5.894
   60ETHY   C1   315   4.388   5.605   6.024
   62ETHY   C1   316   3.862   5.545   6.097
   64ETHY   C1   317   3.347   5.441   6.078
   66ETHY   C1   318   2.853   5.298   5.977
   68ETHY   C1   319   2.393   5.115   5.794
   70ETHY   C1   320   1.975   4.895   5.534
   72THSLK  S    321   4.849   6.129   6.207
   73ETHY   C1   322   4.528   6.320   6.466
   75ETHY   C1   323   4.095   6.524   6.702
   77ETHY   C1   324   3.620   6.695   6.852
   79ETHY   C1   325   3.118   6.827   6.922
   81ETHY   C1   326   2.598   6.915   6.907
   83ETHY   C1   327   2.069   6.956   6.808
   56AUSL   AUS  328   6.331   5.450   6.003
   57AUSL   AUS  329   6.261   5.595   6.419
   58AUL    AUL  330   6.545   5.369   6.306
   59THSLK  S    331   6.542   5.309   6.008
   60ETHY   C1   332   6.764   4.913   6.013
   62ETHY   C1   333   7.100   4.498   6.014
   64ETHY   C1   334   7.503   4.159   6.011
   66ETHY   C1   335   7.957   3.898   6.010
   68ETHY   C1   336   8.456   3.724   6.010
   70ETHY   C1   337   8.989   3.640   6.014
   72THSLK  S    338   6.388   5.404   6.564
   73ETHY   C1   339   6.565   5.039   6.770
   75ETHY   C1   340   6.836   4.667   7.040
   77ETHY   C1   341   7.163   4.378   7.334
   79ETHY   C1   342   7.532   4.170   7.642
   81ETHY   C1   343   7.934   4.052   7.962
   83ETHY   C1   344   8.363   4.027   8.289
   56AUSL   AUS  345   6.425   5.696   5.851
   57AUSL   AUS  346   6.167   5.349   5.738
   58AUL    AUL  347   6.545   5.369   5.699
   59THSLK  S    348   6.653   5.556   5.853
   60ETHY   C1   349   6.974   5.239   5.798
   62ETHY   C1   350   7.407   4.936   5.721
   64ETHY   C1   351   7.882   4.726   5.636
   66ETHY   C1   352   8.384   4.605   5.548
   68ETHY   C1   353   8.904   4.578   5.463
   70ETHY   C1   354   9.433   4.649   5.381
   72THSLK  S    355   6.283   5.160   5.608
   73ETHY   C1   356   6.367   4.731   5.484
   75ETHY   C1   357   6.542   4.259   5.303
   77ETHY   C1   358   6.795   3.848   5.093
   79ETHY   C1   359   7.113   3.500   4.866
   81ETHY   C1   360   7.495   3.225   4.626
   83ETHY   C1   361   7.933   3.028   4.380
   56AUSL   AUS  362   5.171   5.450   6.003
   57AUSL   AUS  363   5.241   5.595   5.586
   58AUL    AUL  364   4.957   5.369   5.699
   59THSLK  S    365   5.070   5.424   5.478
   60ETHY   C1   366   4.706   5.159   5.421
   62ETHY   C1   367   4.284   4.869   5.266
   64ETHY   C1   368   3.892   4.617   5.021
   66ETHY   C1   369   3.538   4.404   4.700
   68ETHY   C1   370   3.231   4.231   4.306
   70ETHY   C1   371   2.980   4.104   3.846
   72THSLK  S    372   4.905   5.398   6.008
   73ETHY   C1   373   4.451   5.376   6.013
   75ETHY   C1   374   3.929   5.262   6.014
   77ETHY   C1   375   3.447   5.053   6.011
   79ETHY   C1   376   3.010   4.763   6.010
   81ETHY   C1   377   2.631   4.396   6.010
   83ETHY   C1   378   2.318   3.956   6.014
   56AUSL   AUS  379   5.077   5.696   6.154
   57AUSL   AUS  380   5.335   5.349   6.267
   58AUL    AUL  381   4.957   5.369   6.306
   59THSLK  S    382   5.147   5.209   6.378
   60ETHY   C1   383   4.760   4.972   6.393
   62ETHY   C1   384   4.342   4.652   6.482
   64ETHY   C1   385   3.984   4.303   6.649
   66ETHY   C1   386   3.689   3.939   6.882
   68ETHY   C1   387   3.464   3.568   7.183
   70ETHY   C1   388   3.313   3.197   7.545
   72THSLK  S    389   4.821   5.633   6.116
   73ETHY   C1   390   4.385   5.623   5.991
   75ETHY   C1   391   3.859   5.564   5.919
   77ETHY   C1   392   3.344   5.457   5.936
   79ETHY   C1   393   2.850   5.311   6.035
   81ETHY   C1   394   2.390   5.129   6.218
   83ETHY   C1   395   1.971   4.916   6.483
   56AUSL   AUS  396   5.751   6.439   6.412
   57AUSL   AUS  397   5.335   6.370   6.267
   58AUL    AUL  398   5.448   6.654   6.493
   59THSLK  S    399   5.219   6.526   6.452
   60ETHY   C1   400   5.135   6.828   6.780
   62ETHY   C1   401   4.960   7.201   7.121
   64ETHY   C1   402   4.707   7.572   7.395
   66ETHY   C1   403   4.389   7.931   7.605
   68ETHY   C1   404   4.007   8.269   7.744
   70ETHY   C1   405   3.569   8.577   7.809
   72THSLK  S    406   5.793   6.661   6.535
   73ETHY   C1   407   5.977   6.936   6.847
   75ETHY   C1   408   6.127   7.316   7.191
   77ETHY   C1   409   6.193   7.739   7.498
   79ETHY   C1   410   6.180   8.190   7.764
   81ETHY   C1   411   6.083   8.659   7.985
   83ETHY   C1   412   5.903   9.138   8.156
   56AUSL   AUS  413   5.599   6.533   6.166
   57AUSL   AUS  414   5.903   6.533   5.839
   58AUL    AUL  415   5.751   6.841   6.003
   59THSLK  S    416   5.642   6.777   6.276
   60ETHY   C1   417   5.786   7.171   6.451
   62ETHY   C1   418   5.873   7.665   6.637
   64ETHY   C1   419   5.861   8.166   6.794
   66ETHY   C1   420   5.760   8.664   6.925
   68ETHY   C1   421   5.568   9.145   7.027
   70ETHY   C1   422   5.288   9.600   7.100
   72THSLK  S    423   5.958   6.764   5.743
   73ETHY   C1   424   6.234   7.094   5.596
   75ETHY   C1   425   6.484   7.535   5.427
   77ETHY   C1   426   6.640   8.012   5.271
   79ETHY   C1   427   6.709   8.514   5.135
   81ETHY   C1   428   6.685   9.030   5.025
   83ETHY   C1   429   6.568   9.550   4.943
   56AUSL   AUS  430   5.903   6.533   6.166
   57AUSL   AUS  431   6.016   6.276   6.513
   58AUL    AUL  432   6.054   6.654   6.493
   59THSLK  S    433   6.187   6.384   6.683
   60ETHY   C1   434   6.482   6.449   7.023
   62ETHY   C1   435   6.800   6.611   7.420
   64ETHY   C1   436   7.068   6.860   7.798
   66ETHY   C1   437   7.282   7.182   8.153
   68ETHY   C1   438   7.434   7.570   8.476
   70ETHY   C1   439   7.520   8.020   8.762
   72THSLK  S    440   5.956   6.762   6.272
   73ETHY   C1   441   6.228   7.090   6.429
   75ETHY   C1   442   6.478   7.530   6.600
   77ETHY   C1   443   6.636   8.009   6.751
   79ETHY   C1   444   6.705   8.511   6.883
   81ETHY   C1   445   6.681   9.026   6.994
   83ETHY   C1   446   6.562   9.545   7.085
   56AUSL   AUS  447   5.751   5.279   6.412
   57AUSL   AUS  448   6.167   5.349   6.267
   58AUL    AUL  449   6.054   5.065   6.493
   59THSLK  S    450   5.704   5.029   6.489
   60ETHY   C1   451   5.514   4.633   6.603
   62ETHY   C1   452   5.363   4.155   6.789
   64ETHY   C1   453   5.300   3.690   7.028
   66ETHY   C1   454   5.315   3.248   7.309
   68ETHY   C1   455   5.411   2.841   7.632
   70ETHY   C1   456   5.586   2.478   7.989
   72THSLK  S    457   6.279   5.162   6.407
   73ETHY   C1   458   6.358   4.734   6.540
   75ETHY   C1   459   6.533   4.264   6.722
   77ETHY   C1   460   6.787   3.852   6.928
   79ETHY   C1   461   7.107   3.503   7.152
   81ETHY   C1   462   7.488   3.228   7.393
   83ETHY   C1   463   7.923   3.032   7.647
   56AUSL   AUS  464   5.599   5.186   6.166
   57AUSL   AUS  465   5.486   5.443   6.513
   58AUL    AUL  466   5.448   5.065   6.493
   59THSLK  S    467   5.544   4.950   6.245
   60ETHY   C1   468   5.269   4.591   6.288
   62ETHY   C1   469   5.018   4.126   6.369
   64ETHY   C1   470   4.862   3.636   6.481
   66ETHY   C1   471   4.793   3.137   6.622
   68ETHY   C1   472   4.817   2.637   6.792
   70ETHY   C1   473   4.934   2.149   6.989
   72THSLK  S    474   5.308   5.277   6.629
   73ETHY   C1   475   5.006   4.959   6.748
   75ETHY   C1   476   4.687   4.592   6.971
   77ETHY   C1   477   4.422   4.255   7.276
   79ETHY   C1   478   4.210   3.953   7.647
   81ETHY   C1   479   4.057   3.695   8.082
   83ETHY   C1   480   3.966   3.488   8.572
   56AUSL   AUS  481   5.903   5.186   6.166
   57AUSL   AUS  482   5.599   5.186   5.839
   58AUL    AUL  483   5.751   4.878   6.003
   59THSLK  S    484   5.546   4.947   5.770
   60ETHY   C1   485   5.274   4.585   5.736
   62ETHY   C1   486   5.024   4.120   5.657
   64ETHY   C1   487   4.867   3.631   5.541
   66ETHY   C1   488   4.797   3.132   5.396
   68ETHY   C1   489   4.821   2.633   5.227
   70ETHY   C1   490   4.940   2.142   5.038
   72THSLK  S    491   5.857   4.934   6.249
   73ETHY   C1   492   5.710   4.508   6.311
   75ETHY   C1   493   5.624   3.990   6.406
   77ETHY   C1   494   5.636   3.477   6.525
   79ETHY   C1   495   5.738   2.982   6.665
   81ETHY   C1   496   5.930   2.517   6.825
   83ETHY   C1   497   6.208   2.091   7.004
   56AUSL   AUS  498   5.751   6.439   5.594
   57AUSL   AUS  499   6.167   6.370   5.738
   58AUL    AUL  500   6.054   6.654   5.512
   59THSLK  S    501   5.798   6.666   5.477
   60ETHY   C1   502   5.988   6.945   5.174
   62ETHY   C1   503   6.139   7.326   4.830
   64ETHY   C1   504   6.203   7.746   4.521
   66ETHY   C1   505   6.187   8.196   4.252
   68ETHY   C1   506   6.091   8.666   4.032
   70ETHY   C1   507   5.916   9.149   3.866
   72THSLK  S    508   6.355   6.486   5.589
   73ETHY   C1   509   6.742   6.606   5.383
   75ETHY   C1   510   7.160   6.829   5.137
   77ETHY   C1   511   7.518   7.133   4.900
   79ETHY   C1   512   7.813   7.505   4.678
   81ETHY   C1   513   8.038   7.940   4.481
   83ETHY   C1   514   8.189   8.429   4.311
   56AUSL   AUS  515   5.599   6.533   5.839
   57AUSL   AUS  516   5.486   6.276   5.492
   58AUL    AUL  517   5.448   6.654   5.512
   59THSLK  S    518   5.645   6.780   5.739
   60ETHY   C1   519   5.792   7.177   5.574
   62ETHY   C1   520   5.878   7.671   5.389
   64ETHY   C1   521   5.866   8.172   5.227
   66ETHY   C1   522   5.764   8.668   5.093
   68ETHY   C1   523   5.572   9.149   4.992
   70ETHY   C1   524   5.294   9.607   4.927
   72THSLK  S    525   5.376   6.408   5.305
   73ETHY   C1   526   5.340   6.557   4.877
   75ETHY   C1   527   5.230   6.783   4.406
   77ETHY   C1   528   5.052   7.058   3.994
   79ETHY   C1   529   4.818   7.371   3.645
   81ETHY   C1   530   4.532   7.720   3.370
   83ETHY   C1   531   4.201   8.098   3.175
   56AUSL   AUS  532   5.751   5.279   5.594
   57AUSL   AUS  533   5.335   5.349   5.738
   58AUL    AUL  534   5.448   5.065   5.512
   59THSLK  S    535   5.152   5.201   5.634
   60ETHY   C1   536   4.769   4.957   5.624
   62ETHY   C1   537   4.351   4.636   5.535
   64ETHY   C1   538   3.992   4.290   5.366
   66ETHY   C1   539   3.695   3.929   5.131
   68ETHY   C1   540   3.470   3.557   4.831
   70ETHY   C1   541   3.323   3.180   4.474
   72THSLK  S    542   5.709   5.024   5.524
   73ETHY   C1   543   5.525   4.623   5.417
   75ETHY   C1   544   5.375   4.145   5.232
   77ETHY   C1   545   5.309   3.682   4.991
   79ETHY   C1   546   5.322   3.242   4.706
   81ETHY   C1   547   5.419   2.835   4.385
   83ETHY   C1   548   5.599   2.467   4.033
   56AUSL   AUS  549   5.903   5.186   5.839
   57AUSL   AUS  550   6.016   5.443   5.492
   58AUL    AUL  551   6.054   5.065   5.512
   59THSLK  S    552   5.860   4.932   5.766
   60ETHY   C1   553   5.716   4.504   5.713
   62ETHY   C1   554   5.629   3.985   5.620
   64ETHY   C1   555   5.641   3.473   5.497
   66ETHY   C1   556   5.742   2.979   5.354
   68ETHY   C1   557   5.934   2.514   5.195
   70ETHY   C1   558   6.214   2.086   5.023
   72THSLK  S    559   6.133   5.253   5.359
   73ETHY   C1   560   6.177   4.851   5.151
   75ETHY   C1   561   6.287   4.420   4.855
   77ETHY   C1   562   6.463   4.057   4.517
   79ETHY   C1   563   6.694   3.763   4.151
   81ETHY   C1   564   6.980   3.546   3.764
   83ETHY   C1   565   7.317   3.410   3.365
   84POPC   NC3  566   1.354   2.664   7.955
   84POPC   PO4  567   1.412   2.706   7.655
   84POPC   GL1  568   1.352   2.707   7.355
   84POPC   GL2  569   1.247   2.731   7.355
   84POPC   C1A  570   1.373   2.655   7.055
   84POPC   D2A  571   1.413   2.689   6.755
   84POPC   C3A  572   1.413   2.650   6.455
   84POPC   C4A  573   1.400   2.742   6.155
   84POPC   C1B  574   1.026   2.741   7.055
   84POPC   C2B  575   1.068   2.770   6.755
   84POPC   C3B  576   1.046   2.726   6.455
   84POPC   C4B  577   0.998   2.751   6.155
   85POPC   NC3  578   2.906   1.910   7.955
   85POPC   PO4  579   2.888   1.829   7.655
   85POPC   GL1  580   2.850   1.884   7.355
   85POPC   GL2  581   2.699   1.935   7.355
   85POPC   C1A  582   2.849   1.822   7.055
   85POPC   D2A  583   2.891   1.841   6.755
   85POPC   C3A  584   2.928   1.895   6.455
   85POPC   C4A  585   2.848   1.912   6.155
   85POPC   C1B  586   2.594   2.099   7.055
   85POPC   C2B  587   2.585   2.058   6.755
   85POPC   C3B  588   2.572   2.088   6.455
   85POPC   C4B  589   2.585   2.072   6.155
   86POPC   NC3  590   8.805   5.198   7.955
   86POPC   PO4  591   8.848   5.233   7.655
   86POPC   GL1  592   8.825   5.257   7.355
   86POPC   GL2  593   8.887   5.004   7.355
   86POPC   C1A  594   8.792   5.218   7.055
   86POPC   D2A  595   8.826   5.239   6.755
   86POPC   C3A  596   8.842   5.196   6.455
   86POPC   C4A  597   8.806   5.186   6.155
   86POPC   C1B  598   8.906   4.877   7.055
   86POPC   C2B  599   8.862   4.858   6.755
   86POPC   C3B  600   8.879   4.853   6.455
   86POPC   C4B  601   8.909   4.849   6.155
   87POPC   NC3  602   1.055   0.418   7.955
   87POPC   PO4  603   0.981   0.387   7.655
   87POPC   GL1  604   1.042   0.363   7.355
   87POPC   GL2  605   1.175   0.393   7.355
   87POPC   C1A  606   1.042   0.346   7.055
   87POPC   D2A  607   1.037   0.428   6.755
   87POPC   C3A  608   1.013   0.361   6.455
   87POPC   C4A  609   1.025   0.371   6.155
   87POPC   C1B  610   1.367   0.499   7.055
   87POPC   C2B  611   1.382   0.522   6.755
   87POPC   C3B  612   1.382   0.511   6.455
   87POPC   C4B  613   1.379   0.431   6.155
   88POPC   NC3  614   7.499   2.807   7.955
   88POPC   PO4  615   7.486   2.854   7.655
   88POPC   GL1  616   7.528   2.878   7.355
   88POPC   GL2  617   7.328   2.783   7.355
   88POPC   C1A  618   7.431   2.831   7.055
   88POPC   D2A  619   7.472   2.878   6.755
   88POPC   C3A  620   7.527   2.800   6.455
   88POPC   C4A  621   7.442   2.800   6.155
   88POPC   C1B  622   7.165   2.628   7.055
   88POPC   C2B  623   7.151   2.590   6.755
   88POPC   C3B  624   7.234   2.670   6.455
   88POPC   C4B  625   7.195   2.681   6.155
   89POPC   NC3  626   1.806   5.886   7.955
   89POPC   PO4  627   1.857   5.883   7.655
   89POPC   GL1  628   1.827   5.905   7.355
   89POPC   GL2  629   1.978   5.762   7.355
   89POPC   C1A  630   1.766   5.888   7.055
   89POPC   D2A  631   1.859   5.847   6.755
   89POPC   C3A  632   1.799   5.914   6.455
   89POPC   C4A  633   1.761   5.866   6.155
   89POPC   C1B  634   2.107   5.682   7.055
   89POPC   C2B  635   2.134   5.729   6.755
   89POPC   C3B  636   2.087   5.750   6.455
   89POPC   C4B  637   2.125   5.709   6.155
   90POPC   NC3  638   0.288   4.960   7.955
   90POPC   PO4  639   0.248   4.919   7.655
   90POPC   GL1  640   0.264   4.935   7.355
   90POPC   GL2  641   0.475   5.026   7.355
   90POPC   C1A  642   0.322   4.936   7.055
   90POPC   D2A  643   0.269   4.896   6.755
   90POPC   C3A  644   0.283   4.900   6.455
   90POPC   C4A  645   0.266   4.987   6.155
   90POPC   C1B  646   0.625   5.132   7.055
   90POPC   C2B  647   0.563   5.118   6.755
   90POPC   C3B  648   0.631   5.167   6.455
   90POPC   C4B  649   0.598   5.094   6.155
   91POPC   NC3  650  11.083   4.940   7.955
   91POPC   PO4  651  11.063   4.877   7.655
   91POPC   GL1  652  10.991   4.952   7.355
   91POPC   GL2  653  11.145   5.029   7.355
   91POPC   C1A  654  11.009   4.863   7.055
   91POPC   D2A  655  11.048   4.892   6.755
   91POPC   C3A  656  11.073   4.877   6.455
   91POPC   C4A  657  11.042   4.884   6.155
   91POPC   C1B  658  11.335   5.166   7.055
   91POPC   C2B  659  11.305   5.111   6.755
   91POPC   C3B  660  11.269   5.144   6.455
   91POPC   C4B  661  11.252   5.194   6.155
   92POPC   NC3  662  10.943   8.171   7.955
   92POPC   PO4  663  10.996   8.155   7.655
   92POPC   GL1  664  10.951   8.107   7.355
   92POPC   GL2  665  11.165   8.084   7.355
   92POPC   C1A  666  10.944   8.131   7.055
   92POPC   D2A  667  10.983   8.177   6.755
   92POPC   C3A  668  11.012   8.091   6.455
   92POPC   C4A  669  10.998   8.106   6.155
   92POPC   C1B  670  11.384   8.059   7.055
   92POPC   C2B  671  11.319   8.105   6.755
   92POPC   C3B  672  11.365   8.075   6.455
   92POPC   C4B  673  11.379   8.077   6.155
   93POPC   NC3  674   3.649   2.650   7.955
   93POPC   PO4  675   3.703   2.688   7.655
   93POPC   GL1  676   3.605   2.668   7.355
   93POPC   GL2  677   3.465   2.758   7.355
   93POPC   C1A  678   3.683   2.603   7.055
   93POPC   D2A  679   3.675   2.672   6.755
   93POPC   C3A  680   3.679   2.612   6.455
   93POPC   C4A  681   3.617   2.677   6.155
   93POPC   C1B  682   3.337   2.800   7.055
   93POPC   C2B  683   3.380   2.797   6.755
   93POPC   C3B  684   3.366   2.823   6.455
   93POPC   C4B  685   3.340   2.802   6.155
   94POPC   NC3  686   4.864   8.012   7.955
   94POPC   PO4  687   4.885   7.986   7.655
   94POPC   GL1  688   4.898   7.975   7.355
   94POPC   GL2  689   5.020   8.140   7.355
   94POPC   C1A  690   4.852   7.989   7.055
   94POPC   D2A  691   4.871   7.966   6.755
   94POPC   C3A  692   4.887   7.996   6.455
   94POPC   C4A  693   4.840   7.984   6.155
   94POPC   C1B  694   5.164   8.152   7.055
   94POPC   C2B  695   5.143   8.201   6.755
   94POPC   C3B  696   5.164   8.218   6.455
   94POPC   C4B  697   5.206   8.160   6.155
   95POPC   NC3  698   8.280   1.085   7.955
   95POPC   PO4  699   8.279   1.157   7.655
   95POPC   GL1  700   8.240   1.156   7.355
   95POPC   GL2  701   8.084   1.221   7.355
   95POPC   C1A  702   8.277   1.140   7.055
   95POPC   D2A  703   8.227   1.086   6.755
   95POPC   C3A  704   8.246   1.133   6.455
   95POPC   C4A  705   8.220   1.123   6.155
   95POPC   C1B  706   7.930   1.315   7.055
   95POPC   C2B  707   7.943   1.305   6.755
   95POPC   C3B  708   7.889   1.262   6.455
   95POPC   C4B  709   7.969   1.301   6.155
   96POPC   NC3  710   1.069   9.668   7.955
   96POPC   PO4  711   1.000   9.667   7.655
   96POPC   GL1  712   0.973   9.613   7.355
   96POPC   GL2  713   1.216   9.586   7.355
   96POPC   C1A  714   1.021   9.698   7.055
   96POPC   D2A  715   1.058   9.671   6.755
   96POPC   C3A  716   1.068   9.629   6.455
   96POPC   C4A  717   1.033   9.680   6.155
   96POPC   C1B  718   1.361   9.639   7.055
   96POPC   C2B  719   1.417   9.576   6.755
   96POPC   C3B  720   1.373   9.626   6.455
   96POPC   C4B  721   1.412   9.594   6.155
   97POPC   NC3  722   1.061  10.395   7.955
   97POPC   PO4  723   1.047  10.417   7.655
   97POPC   GL1  724   0.997  10.431   7.355
   97POPC   GL2  725   1.181  10.375   7.355
   97POPC   C1A  726   1.039  10.405   7.055
   97POPC   D2A  727   1.011  10.405   6.755
   97POPC   C3A  728   1.043  10.421   6.455
   97POPC   C4A  729   1.024  10.436   6.155
   97POPC   C1B  730   1.336  10.383   7.055
   97POPC   C2B  731   1.391  10.352   6.755
   97POPC   C3B  732   1.421  10.396   6.455
   97POPC   C4B  733   1.325  10.383   6.155
   98POPC   NC3  734   3.402   9.520   7.955
   98POPC   PO4  735   3.378   9.479   7.655
   98POPC   GL1  736   3.396   9.508   7.355
   98POPC   GL2  737   3.541   9.604   7.355
   98POPC   C1A  738   3.350   9.513   7.055
   98POPC   D2A  739   3.405   9.522   6.755
   98POPC   C3A  740   3.378   9.499   6.455
   98POPC   C4A  741   3.393   9.539   6.155
   98POPC   C1B  742   3.615   9.695   7.055
   98POPC   C2B  743   3.647   9.698   6.755
   98POPC   C3B  744   3.652   9.723   6.455
   98POPC   C4B  745   3.694   9.735   6.155
   99POPC   NC3  746  10.474   1.365   7.955
   99POPC   PO4  747  10.477   1.385   7.655
   99POPC   GL1  748  10.563   1.340   7.355
   99POPC   GL2  749  10.434   1.185   7.355
   99POPC   C1A  750  10.489   1.366   7.055
   99POPC   D2A  751  10.485   1.299   6.755
   99POPC   C3A  752  10.467   1.324   6.455
   99POPC   C4A  753  10.522   1.328   6.155
   99POPC   C1B  754  10.257   1.084   7.055
   99POPC   C2B  755  10.302   1.058   6.755
   99POPC   C3B  756  10.241   1.093   6.455
   99POPC   C4B  757  10.276   1.025   6.155
  100POPC   NC3  758   3.628  11.303   7.955
  100POPC   PO4  759   3.603  11.286   7.655
  100POPC   GL1  760   3.651  11.232   7.355
  100POPC   GL2  761   3.530  11.155   7.355
  100POPC   C1A  762   3.652  11.254   7.055
  100POPC   D2A  763   3.621  11.286   6.755
  100POPC   C3A  764   3.649  11.270   6.455
  100POPC   C4A  765   3.678  11.296   6.155
  100POPC   C1B  766   3.308  11.099   7.055
  100POPC   C2B  767   3.312  11.060   6.755
  100POPC   C3B  768   3.349  11.089   6.455
  100POPC   C4B  769   3.341  11.109   6.155
  101POPC   NC3  770  11.146   6.710   7.955
  101POPC   PO4  771  11.194   6.762   7.655
  101POPC   GL1  772  11.202   6.696   7.355
  101POPC   GL2  773  11.172   6.538   7.355
  101POPC   C1A  774  11.167   6.749   7.055
  101POPC   D2A  775  11.116   6.709   6.755
  101POPC   C3A  776  11.123   6.738   6.455
  101POPC   C4A  777  11.137   6.775   6.155
  101POPC   C1B  778  11.199   6.351   7.055
  101POPC   C2B  779  11.204   6.363   6.755
  101POPC   C3B  780  11.133   6.439   6.455
  101POPC   C4B  781  11.173   6.392   6.155
  102POPC   NC3  782  10.546   0.341   7.955
  102POPC   PO4  783  10.493   0.293   7.655
  102POPC   GL1  784  10.490   0.299   7.355
  102POPC   GL2  785  10.418   0.417   7.355
  102POPC   C1A  786  10.542   0.361   7.055
  102POPC   D2A  787  10.506   0.343   6.755
  102POPC   C3A  788  10.526   0.332   6.455
  102POPC   C4A  789  10.509   0.273   6.155
  102POPC   C1B  790  10.267   0.576   7.055
  102POPC   C2B  791  10.257   0.570   6.755
  102POPC   C3B  792  10.257   0.551   6.455
  102POPC   C4B  793  10.243   0.597   6.155
  103POPC   NC3  794   6.724   1.030   7.955
  103POPC   PO4  795   6.650   1.089   7.655
  103POPC   GL1  796   6.724   1.037   7.355
  103POPC   GL2  797   6.537   1.177   7.355
  103POPC   C1A  798   6.689   1.051   7.055
  103POPC   D2A  799   6.714   1.043   6.755
  103POPC   C3A  800   6.640   1.015   6.455
  103POPC   C4A  801   6.632   1.024   6.155
  103POPC   C1B  802   6.439   1.319   7.055
  103POPC   C2B  803   6.456   1.379   6.755
  103POPC   C3B  804   6.484   1.377   6.455
  103POPC   C4B  805   6.443   1.378   6.155
  104POPC   NC3  806   8.898  11.015   7.955
  104POPC   PO4  807   8.947  11.017   7.655
  104POPC   GL1  808   8.870  11.036   7.355
  104POPC   GL2  809   8.871  11.216   7.355
  104POPC   C1A  810   8.923  10.945   7.055
  104POPC   D2A  811   8.857  10.990   6.755
  104POPC   C3A  812   8.857  11.018   6.455
  104POPC   C4A  813   8.874  10.942   6.155
  104POPC   C1B  814   8.819  11.381   7.055
  104POPC   C2B  815   8.805  11.296   6.755
  104POPC   C3B  816   8.793  11.336   6.455
  104POPC   C4B  817   8.860  11.361   6.155
  105POPC   NC3  818   0.520   1.307   7.955
  105POPC   PO4  819   0.573   1.328   7.655
  105POPC   GL1  820   0.579   1.315   7.355
  105POPC   GL2  821   0.402   1.230   7.355
  105POPC   C1A  822   0.543   1.367   7.055
  105POPC   D2A  823   0.565   1.288   6.755
  105POPC   C3A  824   0.611   1.329   6.455
  105POPC   C4A  825   0.533   1.291   6.155
  105POPC   C1B  826   0.326   1.033   7.055
  105POPC   C2B  827   0.256   1.087   6.755
  105POPC   C3B  828   0.306   1.120   6.455
  105POPC   C4B  829   0.290   1.038   6.155
  106POPC   NC3  830   4.159   8.684   7.955
  106POPC   PO4  831   4.135   8.771   7.655
  106POPC   GL1  832   4.194   8.740   7.355
  106POPC   GL2  833   4.227   8.842   7.355
  106POPC   C1A  834   4.127   8.735   7.055
  106POPC   D2A  835   4.168   8.738   6.755
  106POPC   C3A  836   4.136   8.695   6.455
  106POPC   C4A  837   4.156   8.700   6.155
  106POPC   C1B  838   4.391   8.962   7.055
  106POPC   C2B  839   4.385   8.992   6.755
  106POPC   C3B  840   4.414   9.007   6.455
  106POPC   C4B  841   4.400   8.990   6.155
  107POPC   NC3  842   3.304   1.139   7.955
  107POPC   PO4  843   3.320   1.159   7.655
  107POPC   GL1  844   3.293   1.180   7.355
  107POPC   GL2  845   3.463   1.234   7.355
  107POPC   C1A  846   3.283   1.139   7.055
  107POPC   D2A  847   3.298   1.131   6.755
  107POPC   C3A  848   3.327   1.116   6.455
  107POPC   C4A  849   3.332   1.212   6.155
  107POPC   C1B  850   3.685   1.250   7.055
  107POPC   C2B  851   3.647   1.220   6.755
  107POPC   C3B  852   3.682   1.213   6.455
  107POPC   C4B  853   3.682   1.199   6.155
  108POPC   NC3  854   5.900   9.757   7.955
  108POPC   PO4  855   5.922   9.770   7.655
  108POPC   GL1  856   5.940   9.793   7.355
  108POPC   GL2  857   5.846   9.640   7.355
  108POPC   C1A  858   5.936   9.777   7.055
  108POPC   D2A  859   5.958   9.739   6.755
  108POPC   C3A  860   5.939   9.718   6.455
  108POPC   C4A  861   5.961   9.744   6.155
  108POPC   C1B  862   5.688   9.507   7.055
  108POPC   C2B  863   5.664   9.502   6.755
  108POPC   C3B  864   5.681   9.491   6.455
  108POPC   C4B  865   5.705   9.470   6.155
  109POPC   NC3  866  11.168  10.199   7.955
  109POPC   PO4  867  11.182  10.204   7.655
  109POPC   GL1  868  11.201  10.241   7.355
  109POPC   GL2  869  11.202  10.363   7.355
  109POPC   C1A  870  11.195  10.245   7.055
  109POPC   D2A  871  11.132  10.207   6.755
  109POPC   C3A  872  11.163  10.254   6.455
  109POPC   C4A  873  11.217  10.224   6.155
  109POPC   C1B  874  11.119  10.529   7.055
  109POPC   C2B  875  11.137  10.561   6.755
  109POPC   C3B  876  11.200  10.607   6.455
  109POPC   C4B  877  11.187  10.591   6.155
  110POPC   NC3  878   5.176   0.435   7.955
  110POPC   PO4  879   5.177   0.415   7.655
  110POPC   GL1  880   5.169   0.437   7.355
  110POPC   GL2  881   5.077   0.400   7.355
  110POPC   C1A  882   5.168   0.445   7.055
  110POPC   D2A  883   5.198   0.399   6.755
  110POPC   C3A  884   5.251   0.372   6.455
  110POPC   C4A  885   5.200   0.432   6.155
  110POPC   C1B  886   4.849   0.450   7.055
  110POPC   C2B  887   4.889   0.415   6.755
  110POPC   C3B  888   4.891   0.420   6.455
  110POPC   C4B  889   4.892   0.485   6.155
  111POPC   NC3  890   8.793   2.813   7.955
  111POPC   PO4  891   8.725   2.882   7.655
  111POPC   GL1  892   8.792   2.860   7.355
  111POPC   GL2  893   8.834   2.694   7.355
  111POPC   C1A  894   8.747   2.900   7.055
  111POPC   D2A  895   8.727   2.904   6.755
  111POPC   C3A  896   8.786   2.898   6.455
  111POPC   C4A  897   8.757   2.813   6.155
  111POPC   C1B  898   9.033   2.610   7.055
  111POPC   C2B  899   9.036   2.601   6.755
  111POPC   C3B  900   9.039   2.586   6.455
  111POPC   C4B  901   8.940   2.654   6.155
  112POPC   NC3  902   7.166  10.539   7.955
  112POPC   PO4  903   7.193  10.556   7.655
  112POPC   GL1  904   7.186  10.504   7.355
  112POPC   GL2  905   7.358  10.373   7.355
  112POPC   C1A  906   7.188  10.552   7.055
  112POPC   D2A  907   7.151  10.490   6.755
  112POPC   C3A  908   7.177  10.557   6.455
  112POPC   C4A  909   7.233  10.541   6.155
  112POPC   C1B  910   7.482  10.272   7.055
  112POPC   C2B  911   7.438  10.334   6.755
  112POPC   C3B  912   7.429  10.260   6.455
  112POPC   C4B  913   7.451  10.270   6.155
  113POPC   NC3  914   9.778   4.361   7.955
  113POPC   PO4  915   9.769   4.315   7.655
  113POPC   GL1  916   9.768   4.350   7.355
  113POPC   GL2  917   9.619   4.303   7.355
  113POPC   C1A  918   9.824   4.294   7.055
  113POPC   D2A  919   9.824   4.364   6.755
  113POPC   C3A  920   9.824   4.325   6.455
  113POPC   C4A  921   9.762   4.284   6.155
  113POPC   C1B  922   9.436   4.165   7.055
  113POPC   C2B  923   9.434   4.215   6.755
  113POPC   C3B  924   9.504   4.174   6.455
  113POPC   C4B  925   9.498   4.235   6.155
  114POPC   NC3  926   0.589   2.071   7.955
  114POPC   PO4  927   0.650   1.990   7.655
  114POPC   GL1  928   0.578   2.067   7.355
  114POPC   GL2  929   0.469   1.993   7.355
  114POPC   C1A  930   0.647   2.057   7.055
  114POPC   D2A  931   0.587   2.033   6.755
  114POPC   C3A  932   0.638   2.003   6.455
  114POPC   C4A  933   0.582   1.977   6.155
  114POPC   C1B  934   0.232   1.862   7.055
  114POPC   C2B  935   0.225   1.903   6.755
  114POPC   C3B  936   0.307   1.872   6.455
  114POPC   C4B  937   0.306   1.955   6.155
  115POPC   NC3  938   9.754   5.673   7.955
  115POPC   PO4  939   9.748   5.659   7.655
  115POPC   GL1  940   9.767   5.643   7.355
  115POPC   GL2  941   9.682   5.765   7.355
  115POPC   C1A  942   9.696   5.614   7.055
  115POPC   D2A  943   9.728   5.621   6.755
  115POPC   C3A  944   9.687   5.668   6.455
  115POPC   C4A  945   9.687   5.680   6.155
  115POPC   C1B  946   9.515   5.985   7.055
  115POPC   C2B  947   9.531   5.945   6.755
  115POPC   C3B  948   9.576   5.987   6.455
  115POPC   C4B  949   9.536   5.912   6.155
  116POPC   NC3  950   5.085   1.029   7.955
  116POPC   PO4  951   5.171   1.073   7.655
  116POPC   GL1  952   5.133   1.074   7.355
  116POPC   GL2  953   5.058   1.240   7.355
  116POPC   C1A  954   5.173   1.018   7.055
  116POPC   D2A  955   5.137   1.018   6.755
  116POPC   C3A  956   5.128   1.020   6.455
  116POPC   C4A  957   5.117   1.085   6.155
  116POPC   C1B  958   4.930   1.352   7.055
  116POPC   C2B  959   4.964   1.384   6.755
  116POPC   C3B  960   4.917   1.368   6.455
  116POPC   C4B  961   4.949   1.381   6.155
  117POPC   NC3  962   8.198   8.764   7.955
  117POPC   PO4  963   8.216   8.727   7.655
  117POPC   GL1  964   8.215   8.722   7.355
  117POPC   GL2  965   8.081   8.913   7.355
  117POPC   C1A  966   8.232   8.725   7.055
  117POPC   D2A  967   8.247   8.691   6.755
  117POPC   C3A  968   8.262   8.724   6.455
  117POPC   C4A  969   8.205   8.778   6.155
  117POPC   C1B  970   7.950   9.017   7.055
  117POPC   C2B  971   7.959   9.045   6.755
  117POPC   C3B  972   8.015   8.981   6.455
  117POPC   C4B  973   8.016   8.982   6.155
  118POPC   NC3  974   8.701  10.334   7.955
  118POPC   PO4  975   8.676  10.416   7.655
  118POPC   GL1  976   8.665  10.326   7.355
  118POPC   GL2  977   8.869  10.368   7.355
  118POPC   C1A  978   8.730  10.393   7.055
  118POPC   D2A  979   8.712  10.349   6.755
  118POPC   C3A  980   8.703  10.396   6.455
  118POPC   C4A  981   8.736  10.380   6.155
  118POPC   C1B  982   9.082  10.463   7.055
  118POPC   C2B  983   9.086  10.396   6.755
  118POPC   C3B  984   9.021  10.439   6.455
  118POPC   C4B  985   9.033  10.413   6.155
  119POPC   NC3  986   7.385   8.724   7.955
  119POPC   PO4  987   7.434   8.704   7.655
  119POPC   GL1  988   7.444   8.706   7.355
  119POPC   GL2  989   7.340   8.892   7.355
  119POPC   C1A  990   7.374   8.661   7.055
  119POPC   D2A  991   7.426   8.678   6.755
  119POPC   C3A  992   7.371   8.739   6.455
  119POPC   C4A  993   7.441   8.710   6.155
  119POPC   C1B  994   7.293   8.985   7.055
  119POPC   C2B  995   7.316   9.080   6.755
  119POPC   C3B  996   7.302   9.060   6.455
  119POPC   C4B  997   7.281   9.016   6.155
  120POPC   NC3  998   1.108  10.981   7.955
  120POPC   PO4  999   1.161  10.974   7.655
  120POPC   GL1 1000   1.104  10.968   7.355
  120POPC   GL2 1001   1.196  11.162   7.355
  120POPC   C1A 1002   1.085  10.965   7.055
  120POPC   D2A 1003   1.164  11.029   6.755
  120POPC   C3A 1004   1.177  11.025   6.455
  120POPC   C4A 1005   1.120  11.018   6.155
  120POPC   C1B 1006   1.302  11.343   7.055
  120POPC   C2B 1007   1.304  11.297   6.755
  120POPC   C3B 1008   1.232  11.330   6.455
  120POPC   C4B 1009   1.297  11.308   6.155
  121POPC   NC3 1010   9.545   7.967   7.955
  121POPC   PO4 1011   9.584   7.962   7.655
  121POPC   GL1 1012   9.610   7.961   7.355
  121POPC   GL2 1013   9.681   8.107   7.355
  121POPC   C1A 1014   9.593   7.943   7.055
  121POPC   D2A 1015   9.590   7.932   6.755
  121POPC   C3A 1016   9.543   7.897   6.455
  121POPC   C4A 1017   9.588   7.890   6.155
  121POPC   C1B 1018   9.696   8.242   7.055
  121POPC   C2B 1019   9.632   8.255   6.755
  121POPC   C3B 1020   9.714   8.234   6.455
  121POPC   C4B 1021   9.683   8.303   6.155
  122POPC   NC3 1022   1.325   1.041   7.955
  122POPC   PO4 1023   1.305   1.098   7.655
  122POPC   GL1 1024   1.284   1.045   7.355
  122POPC   GL2 1025   1.164   1.176   7.355
  122POPC   C1A 1026   1.299   1.026   7.055
  122POPC   D2A 1027   1.330   1.053   6.755
  122POPC   C3A 1028   1.311   1.089   6.455
  122POPC   C4A 1029   1.269   1.051   6.155
  122POPC   C1B 1030   1.050   1.367   7.055
  122POPC   C2B 1031   1.086   1.368   6.755
  122POPC   C3B 1032   1.060   1.342   6.455
  122POPC   C4B 1033   1.066   1.325   6.155
  123POPC   NC3 1034   8.317   3.529   7.955
  123POPC   PO4 1035   8.301   3.596   7.655
  123POPC   GL1 1036   8.254   3.559   7.355
  123POPC   GL2 1037   8.113   3.506   7.355
  123POPC   C1A 1038   8.252   3.572   7.055
  123POPC   D2A 1039   8.243   3.591   6.755
  123POPC   C3A 1040   8.317   3.571   6.455
  123POPC   C4A 1041   8.235   3.583   6.155
  123POPC   C1B 1042   7.967   3.446   7.055
  123POPC   C2B 1043   7.899   3.415   6.755
  123POPC   C3B 1044   7.919   3.482   6.455
  123POPC   C4B 1045   7.930   3.483   6.155
  124POPC   NC3 1046  11.021   9.668   7.955
  124POPC   PO4 1047  10.992   9.750   7.655
  124POPC   GL1 1048  11.034   9.686   7.355
  124POPC   GL2 1049  11.212   9.667   7.355
  124POPC   C1A 1050  11.044   9.741   7.055
  124POPC   D2A 1051  10.983   9.702   6.755
  124POPC   C3A 1052  10.968   9.716   6.455
  124POPC   C4A 1053  11.001   9.732   6.155
  124POPC   C1B 1054  11.366   9.570   7.055
  124POPC   C2B 1055  11.355   9.524   6.755
  124POPC   C3B 1056  11.357   9.581   6.455
  124POPC   C4B 1057  11.373   9.513   6.155
  125POPC   NC3 1058  11.367   7.324   7.955
  125POPC   PO4 1059  11.305   7.327   7.655
  125POPC   GL1 1060  11.315   7.298   7.355
  125POPC   GL2 1061  11.178   7.325   7.355
  125POPC   C1A 1062  11.353   7.334   7.055
  125POPC   D2A 1063  11.369   7.315   6.755
  125POPC   C3A 1064  11.380   7.332   6.455
  125POPC   C4A 1065  11.382   7.322   6.155
  125POPC   C1B 1066  11.002   7.353   7.055
  125POPC   C2B 1067  10.999   7.350   6.755
  125POPC   C3B 1068  10.946   7.375   6.455
  125POPC   C4B 1069  11.034   7.379   6.155
  126POPC   NC3 1070   1.382   8.056   7.955
  126POPC   PO4 1071   1.320   8.024   7.655
  126POPC   GL1 1072   1.407   8.027   7.355
  126POPC   GL2 1073   1.171   8.129   7.355
  126POPC   C1A 1074   1.356   8.036   7.055
  126POPC   D2A 1075   1.383   8.058   6.755
  126POPC   C3A 1076   1.350   7.977   6.455
  126POPC   C4A 1077   1.373   8.033   6.155
  126POPC   C1B 1078   1.012   8.214   7.055
  126POPC   C2B 1079   1.064   8.176   6.755
  126POPC   C3B 1080   1.079   8.156   6.455
  126POPC   C4B 1081   1.044   8.224   6.155
  127POPC   NC3 1082   2.865   3.528   7.955
  127POPC   PO4 1083   2.956   3.486   7.655
  127POPC   GL1 1084   2.919   3.541   7.355
  127POPC   GL2 1085   2.728   3.537   7.355
  127POPC   C1A 1086   2.953   3.515   7.055
  127POPC   D2A 1087   2.939   3.511   6.755
  127POPC   C3A 1088   2.915   3.494   6.455
  127POPC   C4A 1089   2.924   3.531   6.155
  127POPC   C1B 1090   2.592   3.425   7.055
  127POPC   C2B 1091   2.516   3.462   6.755
  127POPC   C3B 1092   2.557   3.471   6.455
  127POPC   C4B 1093   2.534   3.448   6.155
  128POPC   NC3 1094  11.211   9.073   7.955
  128POPC   PO4 1095  11.258   9.063   7.655
  128POPC   GL1 1096  11.179   9.049   7.355
  128POPC   GL2 1097  11.151   8.884   7.355
  128POPC   C1A 1098  11.255   9.084   7.055
  128POPC   D2A 1099  11.175   8.988   6.755
  128POPC   C3A 1100  11.242   8.993   6.455
  128POPC   C4A 1101  11.191   9.057   6.155
  128POPC   C1B 1102  11.086   8.731   7.055
  128POPC   C2B 1103  11.087   8.730   6.755
  128POPC   C3B 1104  11.069   8.721   6.455
  128POPC   C4B 1105  11.129   8.663   6.155
  129POPC   NC3 1106   0.426   2.955   7.955
  129POPC   PO4 1107   0.390   2.899   7.655
  129POPC   GL1 1108   0.436   2.926   7.355
  129POPC   GL2 1109   0.448   2.693   7.355
  129POPC   C1A 1110   0.381   2.935   7.055
  129POPC   D2A 1111   0.356   2.897   6.755
  129POPC   C3A 1112   0.365   2.885   6.455
  129POPC   C4A 1113   0.424   2.904   6.155
  129POPC   C1B 1114   0.484   2.534   7.055
  129POPC   C2B 1115   0.499   2.524   6.755
  129POPC   C3B 1116   0.489   2.513   6.455
  129POPC   C4B 1117   0.480   2.569   6.155
  130POPC   NC3 1118   5.694   0.319   7.955
  130POPC   PO4 1119   5.665   0.340   7.655
  130POPC   GL1 1120   5.660   0.384   7.355
  130POPC   GL2 1121   5.760   0.420   7.355
  130POPC   C1A 1122   5.640   0.373   7.055
  130POPC   D2A 1123   5.680   0.369   6.755
  130POPC   C3A 1124   5.624   0.377   6.455
  130POPC   C4A 1125   5.646   0.349   6.155
  130POPC   C1B 1126   5.918   0.578   7.055
  130POPC   C2B 1127   5.920   0.579   6.755
  130POPC   C3B 1128   5.991   0.564   6.455
  130POPC   C4B 1129   5.982   0.572   6.155
  131POPC   NC3 1130  10.546   4.875   7.955
  131POPC   PO4 1131  10.484   4.946   7.655
  131POPC   GL1 1132  10.520   4.885   7.355
  131POPC   GL2 1133  10.399   5.007   7.355
  131POPC   C1A 1134  10.518   4.932   7.055
  131POPC   D2A 1135  10.514   4.886   6.755
  131POPC   C3A 1136  10.517   4.878   6.455
  131POPC   C4A 1137  10.563   4.948   6.155
  131POPC   C1B 1138  10.320   5.156   7.055
  131POPC   C2B 1139  10.240   5.137   6.755
  131POPC   C3B 1140  10.283   5.180   6.455
  131POPC   C4B 1141  10.249   5.176   6.155
  132POPC   NC3 1142   8.232  10.308   7.955
  132POPC   PO4 1143   8.259  10.268   7.655
  132POPC   GL1 1144   8.195  10.278   7.355
  132POPC   GL2 1145   8.126  10.412   7.355
  132POPC   C1A 1146   8.257  10.303   7.055
  132POPC   D2A 1147   8.249  10.314   6.755
  132POPC   C3A 1148   8.237  10.318   6.455
  132POPC   C4A 1149   8.231  10.301   6.155
  132POPC   C1B 1150   7.977  10.556   7.055
  132POPC   C2B 1151   7.934  10.549   6.755
  132POPC   C3B 1152   8.013  10.477   6.455
  132POPC   C4B 1153   7.958  10.509   6.155
  133POPC   NC3 1154   9.651   1.831   7.955
  133POPC   PO4 1155   9.620   1.812   7.655
  133POPC   GL1 1156   9.582   1.759   7.355
  133POPC   GL2 1157   9.679   1.946   7.355
  133POPC   C1A 1158   9.581   1.812   7.055
  133POPC   D2A 1159   9.632   1.792   6.755
  133POPC   C3A 1160   9.663   1.788   6.455
  133POPC   C4A 1161   9.575   1.760   6.155
  133POPC   C1B 1162   9.669   2.134   7.055
  133POPC   C2B 1163   9.650   2.170   6.755
  133POPC   C3B 1164   9.634   2.167   6.455
  133POPC   C4B 1165   9.681   2.100   6.155
  134POPC   NC3 1166  10.543   2.099   7.955
  134POPC   PO4 1167  10.519   2.088   7.655
  134POPC   GL1 1168  10.566   2.081   7.355
  134POPC   GL2 1169  10.380   2.013   7.355
  134POPC   C1A 1170  10.567   2.063   7.055
  134POPC   D2A 1171  10.548   2.051   6.755
  134POPC   C3A 1172  10.552   2.126   6.455
  134POPC   C4A 1173  10.522   2.103   6.155
  134POPC   C1B 1174  10.283   1.822   7.055
  134POPC   C2B 1175  10.271   1.856   6.755
  134POPC   C3B 1176  10.300   1.865   6.455
  134POPC   C4B 1177  10.232   1.836   6.155
  135POPC   NC3 1178   2.905   5.772   7.955
  135POPC   PO4 1179   2.951   5.810   7.655
  135POPC   GL1 1180   2.913   5.787   7.355
  135POPC   GL2 1181   2.696   5.833   7.355
  135POPC   C1A 1182   2.926   5.778   7.055
  135POPC   D2A 1183   2.948   5.853   6.755
  135POPC   C3A 1184   2.931   5.793   6.455
  135POPC   C4A 1185   2.950   5.788   6.155
  135POPC   C1B 1186   2.517   5.823   7.055
  135POPC   C2B 1187   2.572   5.800   6.755
  135POPC   C3B 1188   2.522   5.747   6.455
  135POPC   C4B 1189   2.581   5.776   6.155
  136POPC   NC3 1190   8.731   9.682   7.955
  136POPC   PO4 1191   8.664   9.679   7.655
  136POPC   GL1 1192   8.688   9.628   7.355
  136POPC   GL2 1193   8.831   9.683   7.355
  136POPC   C1A 1194   8.670   9.716   7.055
  136POPC   D2A 1195   8.670   9.708   6.755
  136POPC   C3A 1196   8.644   9.671   6.455
  136POPC   C4A 1197   8.675   9.622   6.155
  136POPC   C1B 1198   9.022   9.631   7.055
  136POPC   C2B 1199   9.089   9.594   6.755
  136POPC   C3B 1200   9.023   9.579   6.455
  136POPC   C4B 1201   9.061   9.575   6.155
  137POPC   NC3 1202   9.523   0.275   7.955
  137POPC   PO4 1203   9.500   0.285   7.655
  137POPC   GL1 1204   9.528   0.341   7.355
  137POPC   GL2 1205   9.673   0.411   7.355
  137POPC   C1A 1206   9.539   0.328   7.055
  137POPC   D2A 1207   9.514   0.323   6.755
  137POPC   C3A 1208   9.457   0.303   6.455
  137POPC   C4A 1209   9.474   0.330   6.155
  137POPC   C1B 1210   9.734   0.595   7.055
  137POPC   C2B 1211   9.764   0.594   6.755
  137POPC   C3B 1212   9.772   0.525   6.455
  137POPC   C4B 1213   9.739   0.520   6.155
  138POPC   NC3 1214   0.216   8.116   7.955
  138POPC   PO4 1215   0.268   8.134   7.655
  138POPC   GL1 1216   0.242   8.117   7.355
  138POPC   GL2 1217   0.430   8.126   7.355
  138POPC   C1A 1218   0.305   8.084   7.055
  138POPC   D2A 1219   0.293   8.096   6.755
  138POPC   C3A 1220   0.283   8.139   6.455
  138POPC   C4A 1221   0.241   8.110   6.155
  138POPC   C1B 1222   0.626   8.073   7.055
  138POPC   C2B 1223   0.623   8.063   6.755
  138POPC   C3B 1224   0.610   8.040   6.455
  138POPC   C4B 1225   0.566   8.060   6.155
  139POPC   NC3 1226   0.483   3.638   7.955
  139POPC   PO4 1227   0.399   3.635   7.655
  139POPC   GL1 1228   0.419   3.659   7.355
  139POPC   GL2 1229   0.427   3.478   7.355
  139POPC   C1A 1230   0.423   3.648   7.055
  139POPC   D2A 1231   0.480   3.685   6.755
  139POPC   C3A 1232   0.486   3.681   6.455
  139POPC   C4A 1233   0.437   3.633   6.155
  139POPC   C1B 1234   0.382   3.327   7.055
  139POPC   C2B 1235   0.384   3.368   6.755
  139POPC   C3B 1236   0.422   3.302   6.455
  139POPC   C4B 1237   0.404   3.291   6.155
  140POPC   NC3 1238   4.883  11.262   7.955
  140POPC   PO4 1239   4.933  11.294   7.655
  140POPC   GL1 1240   4.920  11.342   7.355
  140POPC   GL2 1241   5.020  11.185   7.355
  140POPC   C1A 1242   4.892  11.265   7.055
  140POPC   D2A 1243   4.947  11.290   6.755
  140POPC   C3A 1244   4.873  11.250   6.455
  140POPC   C4A 1245   4.880  11.252   6.155
  140POPC   C1B 1246   5.185  11.059   7.055
  140POPC   C2B 1247   5.137  11.063   6.755
  140POPC   C3B 1248   5.172  11.028   6.455
  140POPC   C4B 1249   5.148  11.052   6.155
  141POPC   NC3 1250   2.897   0.432   7.955
  141POPC   PO4 1251   2.884   0.427   7.655
  141POPC   GL1 1252   2.933   0.383   7.355
  141POPC   GL2 1253   2.777   0.415   7.355
  141POPC   C1A 1254   2.943   0.401   7.055
  141POPC   D2A 1255   2.948   0.381   6.755
  141POPC   C3A 1256   2.899   0.393   6.455
  141POPC   C4A 1257   2.871   0.417   6.155
  141POPC   C1B 1258   2.598   0.463   7.055
  141POPC   C2B 1259   2.540   0.479   6.755
  141POPC   C3B 1260   2.576   0.503   6.455
  141POPC   C4B 1261   2.521   0.481   6.155
  142POPC   NC3 1262   8.769   1.367   7.955
  142POPC   PO4 1263   8.775   1.335   7.655
  142POPC   GL1 1264   8.733   1.340   7.355
  142POPC   GL2 1265   8.891   1.196   7.355
  142POPC   C1A 1266   8.767   1.371   7.055
  142POPC   D2A 1267   8.691   1.290   6.755
  142POPC   C3A 1268   8.751   1.293   6.455
  142POPC   C4A 1269   8.702   1.362   6.155
  142POPC   C1B 1270   9.023   1.099   7.055
  142POPC   C2B 1271   8.971   1.050   6.755
  142POPC   C3B 1272   8.954   1.115   6.455
  142POPC   C4B 1273   8.952   1.119   6.155
  143POPC   NC3 1274   1.985  10.615   7.955
  143POPC   PO4 1275   1.979  10.620   7.655
  143POPC   GL1 1276   1.938  10.621   7.355
  143POPC   GL2 1277   1.967  10.438   7.355
  143POPC   C1A 1278   1.966  10.549   7.055
  143POPC   D2A 1279   1.960  10.596   6.755
  143POPC   C3A 1280   1.947  10.617   6.455
  143POPC   C4A 1281   1.947  10.538   6.155
  143POPC   C1B 1282   1.996  10.225   7.055
  143POPC   C2B 1283   1.974  10.273   6.755
  143POPC   C3B 1284   1.997  10.186   6.455
  143POPC   C4B 1285   1.982  10.235   6.155
  144POPC   NC3 1286   0.289   4.158   7.955
  144POPC   PO4 1287   0.355   4.161   7.655
  144POPC   GL1 1288   0.289   4.127   7.355
  144POPC   GL2 1289   0.422   4.295   7.355
  144POPC   C1A 1290   0.295   4.122   7.055
  144POPC   D2A 1291   0.353   4.156   6.755
  144POPC   C3A 1292   0.357   4.137   6.455
  144POPC   C4A 1293   0.366   4.119   6.155
  144POPC   C1B 1294   0.482   4.452   7.055
  144POPC   C2B 1295   0.549   4.404   6.755
  144POPC   C3B 1296   0.541   4.409   6.455
  144POPC   C4B 1297   0.538   4.417   6.155
  145POPC   NC3 1298   1.352   8.963   7.955
  145POPC   PO4 1299   1.352   9.028   7.655
  145POPC   GL1 1300   1.292   8.998   7.355
  145POPC   GL2 1301   1.230   8.820   7.355
  145POPC   C1A 1302   1.348   8.948   7.055
  145POPC   D2A 1303   1.343   9.005   6.755
  145POPC   C3A 1304   1.381   8.937   6.455
  145POPC   C4A 1305   1.377   8.960   6.155
  145POPC   C1B 1306   1.060   8.774   7.055
  145POPC   C2B 1307   1.105   8.706   6.755
  145POPC   C3B 1308   1.074   8.702   6.455
  145POPC   C4B 1309   1.044   8.750   6.155
  146POPC   NC3 1310   9.806  11.165   7.955
  146POPC   PO4 1311   9.782  11.226   7.655
  146POPC   GL1 1312   9.811  11.140   7.355
  146POPC   GL2 1313   9.659  11.194   7.355
  146POPC   C1A 1314   9.769  11.152   7.055
  146POPC   D2A 1315   9.829  11.228   6.755
  146POPC   C3A 1316   9.811  11.180   6.455
  146POPC   C4A 1317   9.852  11.167   6.155
  146POPC   C1B 1318   9.497  11.148   7.055
  146POPC   C2B 1319   9.444  11.171   6.755
  146POPC   C3B 1320   9.424  11.166   6.455
  146POPC   C4B 1321   9.412  11.168   6.155
  147POPC   NC3 1322   1.204   7.528   7.955
  147POPC   PO4 1323   1.232   7.507   7.655
  147POPC   GL1 1324   1.256   7.482   7.355
  147POPC   GL2 1325   1.153   7.343   7.355
  147POPC   C1A 1326   1.244   7.492   7.055
  147POPC   D2A 1327   1.227   7.517   6.755
  147POPC   C3A 1328   1.198   7.464   6.455
  147POPC   C4A 1329   1.254   7.548   6.155
  147POPC   C1B 1330   1.188   7.154   7.055
  147POPC   C2B 1331   1.134   7.162   6.755
  147POPC   C3B 1332   1.191   7.113   6.455
  147POPC   C4B 1333   1.184   7.183   6.155
  148POPC   NC3 1334   8.764   0.580   7.955
  148POPC   PO4 1335   8.787   0.634   7.655
  148POPC   GL1 1336   8.742   0.621   7.355
  148POPC   GL2 1337   8.893   0.443   7.355
  148POPC   C1A 1338   8.833   0.580   7.055
  148POPC   D2A 1339   8.744   0.641   6.755
  148POPC   C3A 1340   8.770   0.583   6.455
  148POPC   C4A 1341   8.753   0.591   6.155
  148POPC   C1B 1342   8.948   0.238   7.055
  148POPC   C2B 1343   8.941   0.322   6.755
  148POPC   C3B 1344   8.895   0.269   6.455
  148POPC   C4B 1345   8.932   0.258   6.155
  149POPC   NC3 1346   4.200   2.916   7.955
  149POPC   PO4 1347   4.177   2.904   7.655
  149POPC   GL1 1348   4.180   2.875   7.355
  149POPC   GL2 1349   4.221   2.746   7.355
  149POPC   C1A 1350   4.188   2.882   7.055
  149POPC   D2A 1351   4.171   2.857   6.755
  149POPC   C3A 1352   4.190   2.954   6.455
  149POPC   C4A 1353   4.217   2.887   6.155
  149POPC   C1B 1354   4.327   2.534   7.055
  149POPC   C2B 1355   4.348   2.561   6.755
  149POPC   C3B 1356   4.297   2.561   6.455
  149POPC   C4B 1357   4.312   2.566   6.155
  150POPC   NC3 1358   9.810   8.914   7.955
  150POPC   PO4 1359   9.804   8.849   7.655
  150POPC   GL1 1360   9.761   8.906   7.355
  150POPC   GL2 1361   9.674   8.843   7.355
  150POPC   C1A 1362   9.778   8.927   7.055
  150POPC   D2A 1363   9.820   8.872   6.755
  150POPC   C3A 1364   9.773   8.885   6.455
  150POPC   C4A 1365   9.780   8.922   6.155
  150POPC   C1B 1366   9.447   8.893   7.055
  150POPC   C2B 1367   9.469   8.843   6.755
  150POPC   C3B 1368   9.446   8.868   6.455
  150POPC   C4B 1369   9.454   8.855   6.155
  151POPC   NC3 1370  11.060   3.645   7.955
  151POPC   PO4 1371  11.106   3.596   7.655
  151POPC   GL1 1372  11.025   3.658   7.355
  151POPC   GL2 1373  11.164   3.544   7.355
  151POPC   C1A 1374  11.066   3.603   7.055
  151POPC   D2A 1375  11.108   3.645   6.755
  151POPC   C3A 1376  11.063   3.626   6.455
  151POPC   C4A 1377  11.072   3.604   6.155
  151POPC   C1B 1378  11.219   3.308   7.055
  151POPC   C2B 1379  11.257   3.379   6.755
  151POPC   C3B 1380  11.298   3.304   6.455
  151POPC   C4B 1381  11.297   3.336   6.155
  152POPC   NC3 1382   1.067   5.726   7.955
  152POPC   PO4 1383   1.064   5.711   7.655
  152POPC   GL1 1384   1.039   5.726   7.355
  152POPC   GL2 1385   1.193   5.772   7.355
  152POPC   C1A 1386   1.032   5.642   7.055
  152POPC   D2A 1387   1.103   5.646   6.755
  152POPC   C3A 1388   1.109   5.707   6.455
  152POPC   C4A 1389   1.071   5.684   6.155
  152POPC   C1B 1390   1.351   5.942   7.055
  152POPC   C2B 1391   1.373   5.933   6.755
  152POPC   C3B 1392   1.362   5.918   6.455
  152POPC   C4B 1393   1.301   5.907   6.155
  153POPC   NC3 1394  10.248   6.459   7.955
  153POPC   PO4 1395  10.251   6.422   7.655
  153POPC   GL1 1396  10.321   6.484   7.355
  153POPC   GL2 1397  10.427   6.549   7.355
  153POPC   C1A 1398  10.233   6.463   7.055
  153POPC   D2A 1399  10.311   6.419   6.755
  153POPC   C3A 1400  10.269   6.488   6.455
  153POPC   C4A 1401  10.286   6.409   6.155
  153POPC   C1B 1402  10.547   6.683   7.055
  153POPC   C2B 1403  10.480   6.733   6.755
  153POPC   C3B 1404  10.534   6.705   6.455
  153POPC   C4B 1405  10.519   6.704   6.155
  154POPC   NC3 1406   2.826   1.303   7.955
  154POPC   PO4 1407   2.841   1.313   7.655
  154POPC   GL1 1408   2.821   1.312   7.355
  154POPC   GL2 1409   2.704   1.213   7.355
  154POPC   C1A 1410   2.885   1.299   7.055
  154POPC   D2A 1411   2.833   1.347   6.755
  154POPC   C3A 1412   2.852   1.365   6.455
  154POPC   C4A 1413   2.831   1.321   6.155
  154POPC   C1B 1414   2.596   1.089   7.055
  154POPC   C2B 1415   2.626   1.087   6.755
  154POPC   C3B 1416   2.668   1.063   6.455
  154POPC   C4B 1417   2.609   1.079   6.155
  155POPC   NC3 1418   9.433   7.377   7.955
  155POPC   PO4 1419   9.452   7.304   7.655
  155POPC   GL1 1420   9.428   7.355   7.355
  155POPC   GL2 1421   9.593   7.354   7.355
  155POPC   C1A 1422   9.429   7.345   7.055
  155POPC   D2A 1423   9.437   7.348   6.755
  155POPC   C3A 1424   9.493   7.307   6.455
  155POPC   C4A 1425   9.452   7.339   6.155
  155POPC   C1B 1426   9.856   7.359   7.055
  155POPC   C2B 1427   9.809   7.285   6.755
  155POPC   C3B 1428   9.858   7.336   6.455
  155POPC   C4B 1429   9.791   7.334   6.155
  156POPC   NC3 1430  10.476   4.406   7.955
  156POPC   PO4 1431  10.506   4.471   7.655
  156POPC   GL1 1432  10.461   4.449   7.355
  156POPC   GL2 1433  10.371   4.264   7.355
  156POPC   C1A 1434  10.470   4.394   7.055
  156POPC   D2A 1435  10.454   4.469   6.755
  156POPC   C3A 1436  10.459   4.383   6.455
  156POPC   C4A 1437  10.493   4.437   6.155
  156POPC   C1B 1438  10.315   4.131   7.055
  156POPC   C2B 1439  10.362   4.148   6.755
  156POPC   C3B 1440  10.355   4.082   6.455
  156POPC   C4B 1441  10.292   4.094   6.155
  157POPC   NC3 1442   5.102  10.292   7.955
  157POPC   PO4 1443   5.156  10.290   7.655
  157POPC   GL1 1444   5.176  10.252   7.355
  157POPC   GL2 1445   5.067  10.407   7.355
  157POPC   C1A 1446   5.135  10.222   7.055
  157POPC   D2A 1447   5.169  10.275   6.755
  157POPC   C3A 1448   5.097  10.213   6.455
  157POPC   C4A 1449   5.158  10.221   6.155
  157POPC   C1B 1450   4.967  10.547   7.055
  157POPC   C2B 1451   4.908  10.516   6.755
  157POPC   C3B 1452   4.923  10.502   6.455
  157POPC   C4B 1453   4.912  10.506   6.155
  158POPC   NC3 1454   7.222   8.262   7.955
  158POPC   PO4 1455   7.238   8.203   7.655
  158POPC   GL1 1456   7.257   8.243   7.355
  158POPC   GL2 1457   7.312   8.150   7.355
  158POPC   C1A 1458   7.277   8.248   7.055
  158POPC   D2A 1459   7.244   8.215   6.755
  158POPC   C3A 1460   7.214   8.242   6.455
  158POPC   C4A 1461   7.217   8.248   6.155
  158POPC   C1B 1462   7.406   7.956   7.055
  158POPC   C2B 1463   7.439   7.959   6.755
  158POPC   C3B 1464   7.428   7.919   6.455
  158POPC   C4B 1465   7.434   7.926   6.155
  159POPC   NC3 1466   2.676  11.296   7.955
  159POPC   PO4 1467   2.741  11.366   7.655
  159POPC   GL1 1468   2.732  11.381   7.355
  159POPC   GL2 1469   2.714  11.212   7.355
  159POPC   C1A 1470   2.736  11.364   7.055
  159POPC   D2A 1471   2.738  11.369   6.755
  159POPC   C3A 1472   2.666  11.330   6.455
  159POPC   C4A 1473   2.681  11.354   6.155
  159POPC   C1B 1474   2.798  10.969   7.055
  159POPC   C2B 1475   2.800  11.020   6.755
  159POPC   C3B 1476   2.782  11.013   6.455
  159POPC   C4B 1477   2.766  10.971   6.155
  160POPC   NC3 1478   8.191   0.558   7.955
  160POPC   PO4 1479   8.253   0.599   7.655
  160POPC   GL1 1480   8.227   0.581   7.355
  160POPC   GL2 1481   8.073   0.437   7.355
  160POPC   C1A 1482   8.242   0.536   7.055
  160POPC   D2A 1483   8.203   0.594   6.755
  160POPC   C3A 1484   8.208   0.566   6.455
  160POPC   C4A 1485   8.222   0.590   6.155
  160POPC   C1B 1486   7.992   0.364   7.055
  160POPC   C2B 1487   7.976   0.321   6.755
  160POPC   C3B 1488   7.916   0.276   6.455
  160POPC   C4B 1489   7.977   0.334   6.155
  161POPC   NC3 1490   2.135   0.399   7.955
  161POPC   PO4 1491   2.155   0.360   7.655
  161POPC   GL1 1492   2.143   0.386   7.355
  161POPC   GL2 1493   1.944   0.384   7.355
  161POPC   C1A 1494   2.144   0.412   7.055
  161POPC   D2A 1495   2.100   0.417   6.755
  161POPC   C3A 1496   2.111   0.374   6.455
  161POPC   C4A 1497   2.094   0.381   6.155
  161POPC   C1B 1498   1.835   0.455   7.055
  161POPC   C2B 1499   1.753   0.463   6.755
  161POPC   C3B 1500   1.831   0.450   6.455
  161POPC   C4B 1501   1.772   0.462   6.155
  162POPC   NC3 1502  10.410   3.358   7.955
  162POPC   PO4 1503  10.408   3.322   7.655
  162POPC   GL1 1504  10.442   3.320   7.355
  162POPC   GL2 1505  10.374   3.487   7.355
  162POPC   C1A 1506  10.477   3.372   7.055
  162POPC   D2A 1507  10.471   3.332   6.755
  162POPC   C3A 1508  10.405   3.290   6.455
  162POPC   C4A 1509  10.466   3.372   6.155
  162POPC   C1B 1510  10.377   3.643   7.055
  162POPC   C2B 1511  10.358   3.685   6.755
  162POPC   C3B 1512  10.361   3.634   6.455
  162POPC   C4B 1513  10.385   3.704   6.155
  163POPC   NC3 1514  10.487   7.160   7.955
  163POPC   PO4 1515  10.520   7.210   7.655
  163POPC   GL1 1516  10.487   7.171   7.355
  163POPC   GL2 1517  10.373   7.351   7.355
  163POPC   C1A 1518  10.541   7.255   7.055
  163POPC   D2A 1519  10.563   7.199   6.755
  163POPC   C3A 1520  10.487   7.215   6.455
  163POPC   C4A 1521  10.529   7.230   6.155
  163POPC   C1B 1522  10.284   7.497   7.055
  163POPC   C2B 1523  10.318   7.429   6.755
  163POPC   C3B 1524  10.248   7.489   6.455
  163POPC   C4B 1525  10.248   7.495   6.155
  164POPC   NC3 1526   0.533   9.561   7.955
  164POPC   PO4 1527   0.588   9.494   7.655
  164POPC   GL1 1528   0.525   9.549   7.355
  164POPC   GL2 1529   0.385   9.629   7.355
  164POPC   C1A 1530   0.605   9.550   7.055
  164POPC   D2A 1531   0.613   9.493   6.755
  164POPC   C3A 1532   0.547   9.553   6.455
  164POPC   C4A 1533   0.583   9.529   6.155
  164POPC   C1B 1534   0.332   9.729   7.055
  164POPC   C2B 1535   0.250   9.784   6.755
  164POPC   C3B 1536   0.279   9.739   6.455
  164POPC   C4B 1537   0.337   9.756   6.155
  165POPC   NC3 1538   3.455   1.807   7.955
  165POPC   PO4 1539   3.475   1.805   7.655
  165POPC   GL1 1540   3.430   1.830   7.355
  165POPC   GL2 1541   3.535   1.935   7.355
  165POPC   C1A 1542   3.460   1.772   7.055
  165POPC   D2A 1543   3.432   1.827   6.755
  165POPC   C3A 1544   3.394   1.791   6.455
  165POPC   C4A 1545   3.467   1.807   6.155
  165POPC   C1B 1546   3.538   2.177   7.055
  165POPC   C2B 1547   3.564   2.182   6.755
  165POPC   C3B 1548   3.523   2.108   6.455
  165POPC   C4B 1549   3.522   2.109   6.155
  166POPC   NC3 1550   6.750  10.537   7.955
  166POPC   PO4 1551   6.706  10.489   7.655
  166POPC   GL1 1552   6.733  10.466   7.355
  166POPC   GL2 1553   6.596  10.395   7.355
  166POPC   C1A 1554   6.678  10.477   7.055
  166POPC   D2A 1555   6.756  10.528   6.755
  166POPC   C3A 1556   6.727  10.459   6.455
  166POPC   C4A 1557   6.742  10.503   6.155
  166POPC   C1B 1558   6.378  10.340   7.055
  166POPC   C2B 1559   6.387  10.250   6.755
  166POPC   C3B 1560   6.447  10.302   6.455
  166POPC   C4B 1561   6.440  10.269   6.155
  167POPC   NC3 1562   9.477   2.814   7.955
  167POPC   PO4 1563   9.416   2.822   7.655
  167POPC   GL1 1564   9.446   2.802   7.355
  167POPC   GL2 1565   9.600   2.717   7.355
  167POPC   C1A 1566   9.476   2.793   7.055
  167POPC   D2A 1567   9.431   2.756   6.755
  167POPC   C3A 1568   9.444   2.778   6.455
  167POPC   C4A 1569   9.466   2.784   6.155
  167POPC   C1B 1570   9.827   2.667   7.055
  167POPC   C2B 1571   9.781   2.664   6.755
  167POPC   C3B 1572   9.802   2.712   6.455
  167POPC   C4B 1573   9.798   2.637   6.155
  168POPC   NC3 1574   0.379   8.718   7.955
  168POPC   PO4 1575   0.356   8.707   7.655
  168POPC   GL1 1576   0.418   8.677   7.355
  168POPC   GL2 1577   0.477   8.848   7.355
  168POPC   C1A 1578   0.431   8.692   7.055
  168POPC   D2A 1579   0.441   8.649   6.755
  168POPC   C3A 1580   0.364   8.681   6.455
  168POPC   C4A 1581   0.404   8.736   6.155
  168POPC   C1B 1582   0.472   9.044   7.055
  168POPC   C2B 1583   0.512   9.072   6.755
  168POPC   C3B 1584   0.486   8.998   6.455
  168POPC   C4B 1585   0.491   9.052   6.155
  169POPC   NC3 1586   6.762   2.644   7.955
  169POPC   PO4 1587   6.755   2.619   7.655
  169POPC   GL1 1588   6.744   2.603   7.355
  169POPC   GL2 1589   6.522   2.741   7.355
  169POPC   C1A 1590   6.672   2.595   7.055
  169POPC   D2A 1591   6.769   2.660   6.755
  169POPC   C3A 1592   6.698   2.677   6.455
  169POPC   C4A 1593   6.718   2.667   6.155
  169POPC   C1B 1594   6.457   2.813   7.055
  169POPC   C2B 1595   6.369   2.790   6.755
  169POPC   C3B 1596   6.450   2.867   6.455
  169POPC   C4B 1597   6.390   2.856   6.155
  170POPC   NC3 1598   5.619  10.416   7.955
  170POPC   PO4 1599   5.631  10.414   7.655
  170POPC   GL1 1600   5.599  10.448   7.355
  170POPC   GL2 1601   5.797  10.385   7.355
  170POPC   C1A 1602   5.584  10.422   7.055
  170POPC   D2A 1603   5.629  10.421   6.755
  170POPC   C3A 1604   5.672  10.441   6.455
  170POPC   C4A 1605   5.593  10.440   6.155
  170POPC   C1B 1606   6.000  10.316   7.055
  170POPC   C2B 1607   5.970  10.306   6.755
  170POPC   C3B 1608   5.967  10.380   6.455
  170POPC   C4B 1609   5.992  10.305   6.155
  171POPC   NC3 1610   1.343   2.115   7.955
  171POPC   PO4 1611   1.325   2.057   7.655
  171POPC   GL1 1612   1.312   2.076   7.355
  171POPC   GL2 1613   1.187   1.983   7.355
  171POPC   C1A 1614   1.340   2.118   7.055
  171POPC   D2A 1615   1.291   2.124   6.755
  171POPC   C3A 1616   1.300   2.060   6.455
  171POPC   C4A 1617   1.306   2.149   6.155
  171POPC   C1B 1618   1.071   1.781   7.055
  171POPC   C2B 1619   1.065   1.788   6.755
  171POPC   C3B 1620   1.078   1.818   6.455
  171POPC   C4B 1621   1.128   1.815   6.155
  172POPC   NC3 1622   6.568   0.568   7.955
  172POPC   PO4 1623   6.645   0.647   7.655
  172POPC   GL1 1624   6.592   0.593   7.355
  172POPC   GL2 1625   6.606   0.433   7.355
  172POPC   C1A 1626   6.635   0.655   7.055
  172POPC   D2A 1627   6.592   0.625   6.755
  172POPC   C3A 1628   6.632   0.582   6.455
  172POPC   C4A 1629   6.661   0.608   6.155
  172POPC   C1B 1630   6.471   0.249   7.055
  172POPC   C2B 1631   6.492   0.266   6.755
  172POPC   C3B 1632   6.497   0.293   6.455
  172POPC   C4B 1633   6.486   0.297   6.155
  173POPC   NC3 1634   4.168   2.165   7.955
  173POPC   PO4 1635   4.145   2.101   7.655
  173POPC   GL1 1636   4.209   2.080   7.355
  173POPC   GL2 1637   4.272   1.958   7.355
  173POPC   C1A 1638   4.139   2.129   7.055
  173POPC   D2A 1639   4.133   2.109   6.755
  173POPC   C3A 1640   4.149   2.102   6.455
  173POPC   C4A 1641   4.220   2.083   6.155
  173POPC   C1B 1642   4.316   1.802   7.055
  173POPC   C2B 1643   4.317   1.818   6.755
  173POPC   C3B 1644   4.402   1.765   6.455
  173POPC   C4B 1645   4.382   1.778   6.155
  174POPC   NC3 1646   7.190  11.191   7.955
  174POPC   PO4 1647   7.170  11.099   7.655
  174POPC   GL1 1648   7.120  11.125   7.355
  174POPC   GL2 1649   7.295  11.138   7.355
  174POPC   C1A 1650   7.161  11.119   7.055
  174POPC   D2A 1651   7.164  11.161   6.755
  174POPC   C3A 1652   7.176  11.157   6.455
  174POPC   C4A 1653   7.129  11.151   6.155
  174POPC   C1B 1654   7.482  11.222   7.055
  174POPC   C2B 1655   7.556  11.183   6.755
  174POPC   C3B 1656   7.488  11.161   6.455
  174POPC   C4B 1657   7.497  11.199   6.155
  175POPC   NC3 1658   0.310  10.272   7.955
  175POPC   PO4 1659   0.282  10.277   7.655
  175POPC   GL1 1660   0.302  10.232   7.355
  175POPC   GL2 1661   0.430  10.390   7.355
  175POPC   C1A 1662   0.334  10.241   7.055
  175POPC   D2A 1663   0.307  10.225   6.755
  175POPC   C3A 1664   0.337  10.284   6.455
  175POPC   C4A 1665   0.322  10.230   6.155
  175POPC   C1B 1666   0.539  10.493   7.055
  175POPC   C2B 1667   0.554  10.581   6.755
  175POPC   C3B 1668   0.597  10.580   6.455
  175POPC   C4B 1669   0.572  10.551   6.155
  176POPC   NC3 1670   4.263   0.622   7.955
  176POPC   PO4 1671   4.230   0.570   7.655
  176POPC   GL1 1672   4.275   0.573   7.355
  176POPC   GL2 1673   4.302   0.410   7.355
  176POPC   C1A 1674   4.246   0.578   7.055
  176POPC   D2A 1675   4.180   0.583   6.755
  176POPC   C3A 1676   4.184   0.559   6.455
  176POPC   C4A 1677   4.235   0.626   6.155
  176POPC   C1B 1678   4.325   0.283   7.055
  176POPC   C2B 1679   4.276   0.216   6.755
  176POPC   C3B 1680   4.352   0.225   6.455
  176POPC   C4B 1681   4.306   0.217   6.155
  177POPC   NC3 1682   7.515   1.908   7.955
  177POPC   PO4 1683   7.521   1.955   7.655
  177POPC   GL1 1684   7.499   1.885   7.355
  177POPC   GL2 1685   7.314   1.923   7.355
  177POPC   C1A 1686   7.538   1.978   7.055
  177POPC   D2A 1687   7.500   1.947   6.755
  177POPC   C3A 1688   7.512   1.966   6.455
  177POPC   C4A 1689   7.540   1.969   6.155
  177POPC   C1B 1690   7.147   1.966   7.055
  177POPC   C2B 1691   7.120   1.975   6.755
  177POPC   C3B 1692   7.159   2.044   6.455
  177POPC   C4B 1693   7.145   1.988   6.155
  178POPC   NC3 1694  11.207   4.104   7.955
  178POPC   PO4 1695  11.170   4.124   7.655
  178POPC   GL1 1696  11.227   4.075   7.355
  178POPC   GL2 1697  11.129   4.229   7.355
  178POPC   C1A 1698  11.189   4.093   7.055
  178POPC   D2A 1699  11.143   4.044   6.755
  178POPC   C3A 1700  11.226   4.066   6.455
  178POPC   C4A 1701  11.147   4.136   6.155
  178POPC   C1B 1702  11.134   4.472   7.055
  178POPC   C2B 1703  11.156   4.480   6.755
  178POPC   C3B 1704  11.171   4.411   6.455
  178POPC   C4B 1705  11.162   4.424   6.155
  179POPC   NC3 1706   8.300   1.996   7.955
  179POPC   PO4 1707   8.256   1.984   7.655
  179POPC   GL1 1708   8.282   1.982   7.355
  179POPC   GL2 1709   8.103   1.935   7.355
  179POPC   C1A 1710   8.311   1.937   7.055
  179POPC   D2A 1711   8.244   2.008   6.755
  179POPC   C3A 1712   8.280   2.006   6.455
  179POPC   C4A 1713   8.299   1.946   6.155
  179POPC   C1B 1714   7.969   1.972   7.055
  179POPC   C2B 1715   7.948   1.972   6.755
  179POPC   C3B 1716   7.954   1.983   6.455
  179POPC   C4B 1717   7.894   2.016   6.155
  180POPC   NC3 1718  11.269   5.909   7.955
  180POPC   PO4 1719  11.350   5.937   7.655
  180POPC   GL1 1720  11.296   5.959   7.355
  180POPC   GL2 1721  11.145   5.810   7.355
  180POPC   C1A 1722  11.343   5.925   7.055
  180POPC   D2A 1723  11.323   5.908   6.755
  180POPC   C3A 1724  11.268   5.956   6.455
  180POPC   C4A 1725  11.311   5.960   6.155
  180POPC   C1B 1726  11.034   5.700   7.055
  180POPC   C2B 1727  10.983   5.645   6.755
  180POPC   C3B 1728  11.032   5.718   6.455
  180POPC   C4B 1729  11.029   5.726   6.155
  181POPC   NC3 1730   1.272   6.428   7.955
  181POPC   PO4 1731   1.233   6.395   7.655
  181POPC   GL1 1732   1.243   6.379   7.355
  181POPC   GL2 1733   1.234   6.567   7.355
  181POPC   C1A 1734   1.222   6.379   7.055
  181POPC   D2A 1735   1.256   6.368   6.755
  181POPC   C3A 1736   1.217   6.416   6.455
  181POPC   C4A 1737   1.214   6.372   6.155
  181POPC   C1B 1738   1.146   6.741   7.055
  181POPC   C2B 1739   1.213   6.756   6.755
  181POPC   C3B 1740   1.220   6.784   6.455
  181POPC   C4B 1741   1.128   6.700   6.155
  182POPC   NC3 1742   1.094   4.152   7.955
  182POPC   PO4 1743   1.007   4.210   7.655
  182POPC   GL1 1744   1.082   4.193   7.355
  182POPC   GL2 1745   1.162   4.229   7.355
  182POPC   C1A 1746   1.087   4.141   7.055
  182POPC   D2A 1747   1.030   4.165   6.755
  182POPC   C3A 1748   1.031   4.192   6.455
  182POPC   C4A 1749   1.018   4.151   6.155
  182POPC   C1B 1750   1.365   4.345   7.055
  182POPC   C2B 1751   1.307   4.324   6.755
  182POPC   C3B 1752   1.331   4.342   6.455
  182POPC   C4B 1753   1.350   4.340   6.155
  183POPC   NC3 1754   7.327   9.443   7.955
  183POPC   PO4 1755   7.352   9.419   7.655
  183POPC   GL1 1756   7.395   9.501   7.355
  183POPC   GL2 1757   7.324   9.617   7.355
  183POPC   C1A 1758   7.345   9.500   7.055
  183POPC   D2A 1759   7.375   9.426   6.755
  183POPC   C3A 1760   7.361   9.478   6.455
  183POPC   C4A 1761   7.303   9.410   6.155
  183POPC   C1B 1762   7.275   9.845   7.055
  183POPC   C2B 1763   7.349   9.838   6.755
  183POPC   C3B 1764   7.296   9.772   6.455
  183POPC   C4B 1765   7.271   9.771   6.155
  184POPC   NC3 1766   1.753   8.825   7.955
  184POPC   PO4 1767   1.749   8.879   7.655
  184POPC   GL1 1768   1.775   8.818   7.355
  184POPC   GL2 1769   1.964   8.865   7.355
  184POPC   C1A 1770   1.798   8.869   7.055
  184POPC   D2A 1771   1.747   8.849   6.755
  184POPC   C3A 1772   1.785   8.807   6.455
  184POPC   C4A 1773   1.795   8.852   6.155
  184POPC   C1B 1774   2.166   8.903   7.055
  184POPC   C2B 1775   2.158   8.917   6.755
  184POPC   C3B 1776   2.119   8.917   6.455
  184POPC   C4B 1777   2.144   8.873   6.155
  185POPC   NC3 1778   2.691   6.412   7.955
  185POPC   PO4 1779   2.642   6.381   7.655
  185POPC   GL1 1780   2.670   6.454   7.355
  185POPC   GL2 1781   2.745   6.533   7.355
  185POPC   C1A 1782   2.677   6.403   7.055
  185POPC   D2A 1783   2.647   6.375   6.755
  185POPC   C3A 1784   2.696   6.447   6.455
  185POPC   C4A 1785   2.697   6.436   6.155
  185POPC   C1B 1786   2.795   6.775   7.055
  185POPC   C2B 1787   2.791   6.720   6.755
  185POPC   C3B 1788   2.827   6.774   6.455
  185POPC   C4B 1789   2.847   6.701   6.155
  186POPC   NC3 1790   7.350   1.363   7.955
  186POPC   PO4 1791   7.393   1.363   7.655
  186POPC   GL1 1792   7.328   1.420   7.355
  186POPC   GL2 1793   7.379   1.217   7.355
  186POPC   C1A 1794   7.347   1.418   7.055
  186POPC   D2A 1795   7.423   1.324   6.755
  186POPC   C3A 1796   7.415   1.418   6.455
  186POPC   C4A 1797   7.326   1.413   6.155
  186POPC   C1B 1798   7.309   1.037   7.055
  186POPC   C2B 1799   7.279   1.037   6.755
  186POPC   C3B 1800   7.265   1.066   6.455
  186POPC   C4B 1801   7.329   1.039   6.155
  187POPC   NC3 1802   3.410  10.294   7.955
  187POPC   PO4 1803   3.366  10.266   7.655
  187POPC   GL1 1804   3.417  10.296   7.355
  187POPC   GL2 1805   3.489  10.435   7.355
  187POPC   C1A 1806   3.391  10.260   7.055
  187POPC   D2A 1807   3.419  10.294   6.755
  187POPC   C3A 1808   3.340  10.270   6.455
  187POPC   C4A 1809   3.398  10.251   6.155
  187POPC   C1B 1810   3.620  10.478   7.055
  187POPC   C2B 1811   3.640  10.544   6.755
  187POPC   C3B 1812   3.594  10.506   6.455
  187POPC   C4B 1813   3.666  10.541   6.155
  188POPC   NC3 1814   0.305   6.585   7.955
  188POPC   PO4 1815   0.254   6.528   7.655
  188POPC   GL1 1816   0.271   6.568   7.355
  188POPC   GL2 1817   0.430   6.560   7.355
  188POPC   C1A 1818   0.266   6.618   7.055
  188POPC   D2A 1819   0.252   6.565   6.755
  188POPC   C3A 1820   0.249   6.569   6.455
  188POPC   C4A 1821   0.296   6.617   6.155
  188POPC   C1B 1822   0.568   6.516   7.055
  188POPC   C2B 1823   0.565   6.584   6.755
  188POPC   C3B 1824   0.624   6.537   6.455
  188POPC   C4B 1825   0.647   6.520   6.155
  189POPC   NC3 1826   5.757  11.019   7.955
  189POPC   PO4 1827   5.771  11.016   7.655
  189POPC   GL1 1828   5.710  10.955   7.355
  189POPC   GL2 1829   5.826  11.204   7.355
  189POPC   C1A 1830   5.687  11.051   7.055
  189POPC   D2A 1831   5.753  10.965   6.755
  189POPC   C3A 1832   5.676  10.993   6.455
  189POPC   C4A 1833   5.748  10.956   6.155
  189POPC   C1B 1834   5.896  11.350   7.055
  189POPC   C2B 1835   5.857  11.292   6.755
  189POPC   C3B 1836   5.913  11.295   6.455
  189POPC   C4B 1837   5.892  11.329   6.155
  190POPC   NC3 1838   9.766   3.413   7.955
  190POPC   PO4 1839   9.718   3.351   7.655
  190POPC   GL1 1840   9.777   3.426   7.355
  190POPC   GL2 1841   9.671   3.529   7.355
  190POPC   C1A 1842   9.788   3.371   7.055
  190POPC   D2A 1843   9.770   3.338   6.755
  190POPC   C3A 1844   9.774   3.424   6.455
  190POPC   C4A 1845   9.758   3.417   6.155
  190POPC   C1B 1846   9.532   3.656   7.055
  190POPC   C2B 1847   9.494   3.630   6.755
  190POPC   C3B 1848   9.536   3.588   6.455
  190POPC   C4B 1849   9.546   3.618   6.155
  191POPC   NC3 1850   1.806   4.372   7.955
  191POPC   PO4 1851   1.779   4.339   7.655
  191POPC   GL1 1852   1.781   4.379   7.355
  191POPC   GL2 1853   1.988   4.247   7.355
  191POPC   C1A 1854   1.814   4.312   7.055
  191POPC   D2A 1855   1.803   4.294   6.755
  191POPC   C3A 1856   1.773   4.386   6.455
  191POPC   C4A 1857   1.761   4.387   6.155
  191POPC   C1B 1858   2.155   4.203   7.055
  191POPC   C2B 1859   2.089   4.146   6.755
  191POPC   C3B 1860   2.163   4.217   6.455
  191POPC   C4B 1861   2.134   4.200   6.155
  192POPC   NC3 1862  10.239   8.772   7.955
  192POPC   PO4 1863  10.246   8.813   7.655
  192POPC   GL1 1864  10.219   8.745   7.355
  192POPC   GL2 1865  10.406   8.852   7.355
  192POPC   C1A 1866  10.265   8.751   7.055
  192POPC   D2A 1867  10.247   8.795   6.755
  192POPC   C3A 1868  10.284   8.733   6.455
  192POPC   C4A 1869  10.283   8.753   6.155
  192POPC   C1B 1870  10.507   8.923   7.055
  192POPC   C2B 1871  10.552   8.964   6.755
  192POPC   C3B 1872  10.542   8.920   6.455
  192POPC   C4B 1873  10.567   8.991   6.155
  193POPC   NC3 1874   0.568   0.246   7.955
  193POPC   PO4 1875   0.570   0.273   7.655
  193POPC   GL1 1876   0.565   0.248   7.355
  193POPC   GL2 1877   0.406   0.411   7.355
  193POPC   C1A 1878   0.503   0.283   7.055
  193POPC   D2A 1879   0.558   0.305   6.755
  193POPC   C3A 1880   0.491   0.288   6.455
  193POPC   C4A 1881   0.491   0.236   6.155
  193POPC   C1B 1882   0.344   0.542   7.055
  193POPC   C2B 1883   0.354   0.542   6.755
  193POPC   C3B 1884   0.376   0.539   6.455
  193POPC   C4B 1885   0.363   0.600   6.155
  194POPC   NC3 1886  10.409   9.860   7.955
  194POPC   PO4 1887  10.429   9.763   7.655
  194POPC   GL1 1888  10.404   9.798   7.355
  194POPC   GL2 1889  10.387   9.584   7.355
  194POPC   C1A 1890  10.387   9.819   7.055
  194POPC   D2A 1891  10.354   9.802   6.755
  194POPC   C3A 1892  10.414   9.830   6.455
  194POPC   C4A 1893  10.380   9.761   6.155
  194POPC   C1B 1894  10.407   9.499   7.055
  194POPC   C2B 1895  10.407   9.471   6.755
  194POPC   C3B 1896  10.446   9.472   6.455
  194POPC   C4B 1897  10.460   9.448   6.155
  195POPC   NC3 1898   9.581   9.814   7.955
  195POPC   PO4 1899   9.582   9.775   7.655
  195POPC   GL1 1900   9.598   9.825   7.355
  195POPC   GL2 1901   9.614   9.679   7.355
  195POPC   C1A 1902   9.663   9.816   7.055
  195POPC   D2A 1903   9.595   9.795   6.755
  195POPC   C3A 1904   9.648   9.845   6.455
  195POPC   C4A 1905   9.620   9.781   6.155
  195POPC   C1B 1906   9.630   9.462   7.055
  195POPC   C2B 1907   9.616   9.410   6.755
  195POPC   C3B 1908   9.690   9.447   6.455
  195POPC   C4B 1909   9.601   9.408   6.155
  196POPC   NC3 1910  10.477  10.272   7.955
  196POPC   PO4 1911  10.538  10.244   7.655
  196POPC   GL1 1912  10.471  10.282   7.355
  196POPC   GL2 1913  10.423  10.372   7.355
  196POPC   C1A 1914  10.536  10.203   7.055
  196POPC   D2A 1915  10.447  10.221   6.755
  196POPC   C3A 1916  10.461  10.243   6.455
  196POPC   C4A 1917  10.538  10.199   6.155
  196POPC   C1B 1918  10.320  10.527   7.055
  196POPC   C2B 1919  10.275  10.503   6.755
  196POPC   C3B 1920  10.338  10.600   6.455
  196POPC   C4B 1921  10.275  10.583   6.155
  197POPC   NC3 1922  10.216   8.078   7.955
  197POPC   PO4 1923  10.183   8.097   7.655
  197POPC   GL1 1924  10.265   8.121   7.355
  197POPC   GL2 1925  10.421   8.056   7.355
  197POPC   C1A 1926  10.262   8.106   7.055
  197POPC   D2A 1927  10.187   8.115   6.755
  197POPC   C3A 1928  10.193   8.074   6.455
  197POPC   C4A 1929  10.214   8.147   6.155
  197POPC   C1B 1930  10.625   8.081   7.055
  197POPC   C2B 1931  10.552   8.102   6.755
  197POPC   C3B 1932  10.562   8.081   6.455
  197POPC   C4B 1933  10.614   8.059   6.155
  198POPC   NC3 1934   0.353   7.469   7.955
  198POPC   PO4 1935   0.335   7.461   7.655
  198POPC   GL1 1936   0.329   7.428   7.355
  198POPC   GL2 1937   0.406   7.326   7.355
  198POPC   C1A 1938   0.356   7.488   7.055
  198POPC   D2A 1939   0.277   7.460   6.755
  198POPC   C3A 1940   0.313   7.519   6.455
  198POPC   C4A 1941   0.352   7.503   6.155
  198POPC   C1B 1942   0.562   7.169   7.055
  198POPC   C2B 1943   0.520   7.234   6.755
  198POPC   C3B 1944   0.564   7.222   6.455
  198POPC   C4B 1945   0.594   7.180   6.155
  199POPC   NC3 1946   8.327   9.695   7.955
  199POPC   PO4 1947   8.277   9.635   7.655
  199POPC   GL1 1948   8.316   9.682   7.355
  199POPC   GL2 1949   8.064   9.654   7.355
  199POPC   C1A 1950   8.238   9.653   7.055
  199POPC   D2A 1951   8.254   9.634   6.755
  199POPC   C3A 1952   8.314   9.605   6.455
  199POPC   C4A 1953   8.239   9.673   6.155
  199POPC   C1B 1954   7.947   9.594   7.055
  199POPC   C2B 1955   7.966   9.593   6.755
  199POPC   C3B 1956   7.901   9.575   6.455
  199POPC   C4B 1957   7.964   9.593   6.155
  200POPC   NC3 1958   3.632   0.596   7.955
  200POPC   PO4 1959   3.651   0.586   7.655
  200POPC   GL1 1960   3.639   0.586   7.355
  200POPC   GL2 1961   3.507   0.392   7.355
  200POPC   C1A 1962   3.679   0.560   7.055
  200POPC   D2A 1963   3.631   0.529   6.755
  200POPC   C3A 1964   3.657   0.595   6.455
  200POPC   C4A 1965   3.657   0.544   6.155
  200POPC   C1B 1966   3.348   0.270   7.055
  200POPC   C2B 1967   3.319   0.292   6.755
  200POPC   C3B 1968   3.328   0.297   6.455
  200POPC   C4B 1969   3.371   0.344   6.155
  201POPC   NC3 1970  11.032   2.593   7.955
  201POPC   PO4 1971  10.996   2.650   7.655
  201POPC   GL1 1972  11.015   2.580   7.355
  201POPC   GL2 1973  11.207   2.717   7.355
  201POPC   C1A 1974  11.025   2.635   7.055
  201POPC   D2A 1975  11.022   2.663   6.755
  201POPC   C3A 1976  11.032   2.576   6.455
  201POPC   C4A 1977  11.032   2.601   6.155
  201POPC   C1B 1978  11.331   2.856   7.055
  201POPC   C2B 1979  11.337   2.827   6.755
  201POPC   C3B 1980  11.297   2.825   6.455
  201POPC   C4B 1981  11.311   2.870   6.155
  202POPC   NC3 1982   8.048  11.007   7.955
  202POPC   PO4 1983   7.990  11.056   7.655
  202POPC   GL1 1984   7.972  10.977   7.355
  202POPC   GL2 1985   8.051  11.194   7.355
  202POPC   C1A 1986   7.996  10.994   7.055
  202POPC   D2A 1987   8.021  10.972   6.755
  202POPC   C3A 1988   8.049  10.995   6.455
  202POPC   C4A 1989   7.990  11.001   6.155
  202POPC   C1B 1990   8.168  11.338   7.055
  202POPC   C2B 1991   8.214  11.317   6.755
  202POPC   C3B 1992   8.160  11.296   6.455
  202POPC   C4B 1993   8.233  11.369   6.155
  203POPC   NC3 1994   5.812   1.408   7.955
  203POPC   PO4 1995   5.728   1.345   7.655
  203POPC   GL1 1996   5.742   1.335   7.355
  203POPC   GL2 1997   5.794   1.159   7.355
  203POPC   C1A 1998   5.776   1.382   7.055
  203POPC   D2A 1999   5.773   1.352   6.755
  203POPC   C3A 2000   5.759   1.403   6.455
  203POPC   C4A 2001   5.768   1.344   6.155
  203POPC   C1B 2002   5.881   1.054   7.055
  203POPC   C2B 2003   5.838   1.062   6.755
  203POPC   C3B 2004   5.785   1.018   6.455
  203POPC   C4B 2005   5.847   1.067   6.155
  204POPC   NC3 2006  11.320   2.011   7.955
  204POPC   PO4 2007  11.328   2.076   7.655
  204POPC   GL1 2008  11.318   2.077   7.355
  204POPC   GL2 2009  11.135   1.973   7.355
  204POPC   C1A 2010  11.282   2.082   7.055
  204POPC   D2A 2011  11.352   2.004   6.755
  204POPC   C3A 2012  11.327   2.012   6.455
  204POPC   C4A 2013  11.301   2.010   6.155
  204POPC   C1B 2014  10.976   1.887   7.055
  204POPC   C2B 2015  11.027   1.849   6.755
  204POPC   C3B 2016  10.981   1.877   6.455
  204POPC   C4B 2017  11.023   1.903   6.155
  205POPC   NC3 2018   1.030   3.583   7.955
  205POPC   PO4 2019   1.038   3.634   7.655
  205POPC   GL1 2020   1.051   3.666   7.355
  205POPC   GL2 2021   1.236   3.504   7.355
  205POPC   C1A 2022   1.082   3.630   7.055
  205POPC   D2A 2023   1.083   3.623   6.755
  205POPC   C3A 2024   1.099   3.649   6.455
  205POPC   C4A 2025   1.082   3.610   6.155
  205POPC   C1B 2026   1.302   3.369   7.055
  205POPC   C2B 2027   1.340   3.352   6.755
  205POPC   C3B 2028   1.336   3.388   6.455
  205POPC   C4B 2029   1.300   3.344   6.155
  206POPC   NC3 2030   9.446  10.428   7.955
  206POPC   PO4 2031   9.448  10.470   7.655
  206POPC   GL1 2032   9.483  10.471   7.355
  206POPC   GL2 2033   9.627  10.439   7.355
  206POPC   C1A 2034   9.414  10.465   7.055
  206POPC   D2A 2035   9.506  10.414   6.755
  206POPC   C3A 2036   9.495  10.387   6.455
  206POPC   C4A 2037   9.435  10.457   6.155
  206POPC   C1B 2038   9.824  10.333   7.055
  206POPC   C2B 2039   9.834  10.408   6.755
  206POPC   C3B 2040   9.791  10.391   6.455
  206POPC   C4B 2041   9.839  10.381   6.155
  207POPC   NC3 2042  11.286   0.488   7.955
  207POPC   PO4 2043  11.335   0.486   7.655
  207POPC   GL1 2044  11.334   0.527   7.355
  207POPC   GL2 2045  11.206   0.393   7.355
  207POPC   C1A 2046  11.302   0.471   7.055
  207POPC   D2A 2047  11.294   0.494   6.755
  207POPC   C3A 2048  11.283   0.494   6.455
  207POPC   C4A 2049  11.315   0.546   6.155
  207POPC   C1B 2050  10.970   0.378   7.055
  207POPC   C2B 2051  11.018   0.387   6.755
  207POPC   C3B 2052  11.012   0.310   6.455
  207POPC   C4B 2053  11.039   0.399   6.155
  208POPC   NC3 2054   0.209   5.828   7.955
  208POPC   PO4 2055   0.238   5.792   7.655
  208POPC   GL1 2056   0.288   5.767   7.355
  208POPC   GL2 2057   0.447   5.840   7.355
  208POPC   C1A 2058   0.248   5.780   7.055
  208POPC   D2A 2059   0.305   5.840   6.755
  208POPC   C3A 2060   0.291   5.834   6.455
  208POPC   C4A 2061   0.218   5.805   6.155
  208POPC   C1B 2062   0.582   5.776   7.055
  208POPC   C2B 2063   0.627   5.857   6.755
  208POPC   C3B 2064   0.624   5.821   6.455
  208POPC   C4B 2065   0.655   5.853   6.155
  209POPC   NC3 2066  10.517   5.906   7.955
  209POPC   PO4 2067  10.588   5.879   7.655
  209POPC   GL1 2068  10.578   5.929   7.355
  209POPC   GL2 2069  10.438   5.789   7.355
  209POPC   C1A 2070  10.509   5.884   7.055
  209POPC   D2A 2071  10.556   5.919   6.755
  209POPC   C3A 2072  10.521   5.866   6.455
  209POPC   C4A 2073  10.573   5.952   6.155
  209POPC   C1B 2074  10.306   5.683   7.055
  209POPC   C2B 2075  10.220   5.735   6.755
  209POPC   C3B 2076  10.217   5.723   6.455
  209POPC   C4B 2077  10.247   5.711   6.155
  210POPC   NC3 2078   1.922   6.754   7.955
  210POPC   PO4 2079   1.934   6.774   7.655
  210POPC   GL1 2080   1.940   6.751   7.355
  210POPC   GL2 2081   2.007   6.585   7.355
  210POPC   C1A 2082   1.962   6.776   7.055
  210POPC   D2A 2083   1.957   6.784   6.755
  210POPC   C3A 2084   1.893   6.759   6.455
  210POPC   C4A 2085   1.896   6.792   6.155
  210POPC   C1B 2086   2.021   6.375   7.055
  210POPC   C2B 2087   1.995   6.400   6.755
  210POPC   C3B 2088   2.034   6.417   6.455
  210POPC   C4B 2089   2.035   6.349   6.155
  211POPC   NC3 2090  10.420   2.591   7.955
  211POPC   PO4 2091  10.481   2.595   7.655
  211POPC   GL1 2092  10.463   2.583   7.355
  211POPC   GL2 2093  10.380   2.776   7.355
  211POPC   C1A 2094  10.460   2.580   7.055
  211POPC   D2A 2095  10.466   2.594   6.755
  211POPC   C3A 2096  10.473   2.548   6.455
  211POPC   C4A 2097  10.402   2.592   6.155
  211POPC   C1B 2098  10.336   2.948   7.055
  211POPC   C2B 2099  10.404   2.941   6.755
  211POPC   C3B 2100  10.346   2.892   6.455
  211POPC   C4B 2101  10.412   2.912   6.155
  212POPC   NC3 2102   4.294  10.620   7.955
  212POPC   PO4 2103   4.263  10.566   7.655
  212POPC   GL1 2104   4.263  10.616   7.355
  212POPC   GL2 2105   4.296  10.366   7.355
  212POPC   C1A 2106   4.224  10.593   7.055
  212POPC   D2A 2107   4.268  10.623   6.755
  212POPC   C3A 2108   4.266  10.530   6.455
  212POPC   C4A 2109   4.292  10.571   6.155
  212POPC   C1B 2110   4.271  10.263   7.055
  212POPC   C2B 2111   4.291  10.246   6.755
  212POPC   C3B 2112   4.319  10.218   6.455
  212POPC   C4B 2113   4.324  10.226   6.155
  213POPC   NC3 2114   1.090   4.879   7.955
  213POPC   PO4 2115   1.152   4.859   7.655
  213POPC   GL1 2116   1.113   4.869   7.355
  213POPC   GL2 2117   1.186   5.075   7.355
  213POPC   C1A 2118   1.130   4.905   7.055
  213POPC   D2A 2119   1.085   4.910   6.755
  213POPC   C3A 2120   1.091   4.838   6.455
  213POPC   C4A 2121   1.135   4.897   6.155
  213POPC   C1B 2122   1.254   5.207   7.055
  213POPC   C2B 2123   1.230   5.155   6.755
  213POPC   C3B 2124   1.238   5.200   6.455
  213POPC   C4B 2125   1.268   5.192   6.155
  214POPC   NC3 2126   5.885   2.077   7.955
  214POPC   PO4 2127   5.930   2.051   7.655
  214POPC   GL1 2128   5.909   2.142   7.355
  214POPC   GL2 2129   5.775   1.928   7.355
  214POPC   C1A 2130   5.887   2.138   7.055
  214POPC   D2A 2131   5.958   2.122   6.755
  214POPC   C3A 2132   5.939   2.082   6.455
  214POPC   C4A 2133   5.913   2.052   6.155
  214POPC   C1B 2134   5.660   1.825   7.055
  214POPC   C2B 2135   5.700   1.820   6.755
  214POPC   C3B 2136   5.669   1.831   6.455
  214POPC   C4B 2137   5.709   1.791   6.155
  215POPC   NC3 2138   0.323  11.062   7.955
  215POPC   PO4 2139   0.353  11.054   7.655
  215POPC   GL1 2140   0.315  11.018   7.355
  215POPC   GL2 2141   0.431  11.171   7.355
  215POPC   C1A 2142   0.306  11.043   7.055
  215POPC   D2A 2143   0.273  11.043   6.755
  215POPC   C3A 2144   0.369  10.995   6.455
  215POPC   C4A 2145   0.300  11.021   6.155
  215POPC   C1B 2146   0.565  11.259   7.055
  215POPC   C2B 2147   0.516  11.264   6.755
  215POPC   C3B 2148   0.548  11.264   6.455
  215POPC   C4B 2149   0.540  11.255   6.155
  216POPC   NC3 2150   2.008   3.337   7.955
  216POPC   PO4 2151   1.927   3.345   7.655
  216POPC   GL1 2152   1.925   3.313   7.355
  216POPC   GL2 2153   1.989   3.516   7.355
  216POPC   C1A 2154   1.994   3.303   7.055
  216POPC   D2A 2155   2.006   3.312   6.755
  216POPC   C3A 2156   1.969   3.370   6.455
  216POPC   C4A 2157   1.955   3.333   6.155
  216POPC   C1B 2158   2.021   3.631   7.055
  216POPC   C2B 2159   1.996   3.656   6.755
  216POPC   C3B 2160   1.956   3.661   6.455
  216POPC   C4B 2161   1.949   3.721   6.155
  217POPC   NC3 2162   1.876   2.596   7.955
  217POPC   PO4 2163   1.790   2.587   7.655
  217POPC   GL1 2164   1.847   2.629   7.355
  217POPC   GL2 2165   2.014   2.696   7.355
  217POPC   C1A 2166   1.872   2.640   7.055
  217POPC   D2A 2167   1.811   2.614   6.755
  217POPC   C3A 2168   1.820   2.658   6.455
  217POPC   C4A 2169   1.817   2.642   6.155
  217POPC   C1B 2170   2.094   2.810   7.055
  217POPC   C2B 2171   2.151   2.864   6.755
  217POPC   C3B 2172   2.112   2.865   6.455
  217POPC   C4B 2173   2.072   2.848   6.155
  218POPC   NC3 2174   2.623   9.001   7.955
  218POPC   PO4 2175   2.558   9.012   7.655
  218POPC   GL1 2176   2.596   8.986   7.355
  218POPC   GL2 2177   2.762   8.900   7.355
  218POPC   C1A 2178   2.580   8.992   7.055
  218POPC   D2A 2179   2.596   8.957   6.755
  218POPC   C3A 2180   2.609   9.013   6.455
  218POPC   C4A 2181   2.569   9.022   6.155
  218POPC   C1B 2182   2.818   8.774   7.055
  218POPC   C2B 2183   2.875   8.719   6.755
  218POPC   C3B 2184   2.913   8.795   6.455
  218POPC   C4B 2185   2.893   8.790   6.155
  219POPC   NC3 2186   1.893   1.781   7.955
  219POPC   PO4 2187   1.876   1.827   7.655
  219POPC   GL1 2188   1.910   1.788   7.355
  219POPC   GL2 2189   2.016   2.014   7.355
  219POPC   C1A 2190   1.912   1.844   7.055
  219POPC   D2A 2191   1.858   1.862   6.755
  219POPC   C3A 2192   1.861   1.832   6.455
  219POPC   C4A 2193   1.890   1.828   6.155
  219POPC   C1B 2194   2.023   2.111   7.055
  219POPC   C2B 2195   2.104   2.143   6.755
  219POPC   C3B 2196   2.013   2.113   6.455
  219POPC   C4B 2197   2.046   2.082   6.155
  220POPC   NC3 2198   1.840  11.320   7.955
  220POPC   PO4 2199   1.837  11.286   7.655
  220POPC   GL1 2200   1.876  11.299   7.355
  220POPC   GL2 2201   1.998  11.171   7.355
  220POPC   C1A 2202   1.821  11.304   7.055
  220POPC   D2A 2203   1.897  11.323   6.755
  220POPC   C3A 2204   1.883  11.298   6.455
  220POPC   C4A 2205   1.815  11.320   6.155
  220POPC   C1B 2206   2.123  11.051   7.055
  220POPC   C2B 2207   2.061  11.035   6.755
  220POPC   C3B 2208   2.106  10.996   6.455
  220POPC   C4B 2209   2.057  10.983   6.155
  221POPC   NC3 2210   4.422  11.031   7.955
  221POPC   PO4 2211   4.373  11.023   7.655
  221POPC   GL1 2212   4.404  10.994   7.355
  221POPC   GL2 2213   4.297  11.135   7.355
  221POPC   C1A 2214   4.370  11.045   7.055
  221POPC   D2A 2215   4.328  11.072   6.755
  221POPC   C3A 2216   4.351  11.030   6.455
  221POPC   C4A 2217   4.386  11.044   6.155
  221POPC   C1B 2218   4.164  11.301   7.055
  221POPC   C2B 2219   4.118  11.296   6.755
  221POPC   C3B 2220   4.183  11.321   6.455
  221POPC   C4B 2221   4.129  11.311   6.155
  222POPC   NC3 2222   9.623   1.354   7.955
  222POPC   PO4 2223   9.644   1.366   7.655
  222POPC   GL1 2224   9.560   1.348   7.355
  222POPC   GL2 2225   9.606   1.191   7.355
  222POPC   C1A 2226   9.593   1.380   7.055
  222POPC   D2A 2227   9.578   1.330   6.755
  222POPC   C3A 2228   9.582   1.356   6.455
  222POPC   C4A 2229   9.639   1.388   6.155
  222POPC   C1B 2230   9.695   0.997   7.055
  222POPC   C2B 2231   9.666   0.980   6.755
  222POPC   C3B 2232   9.674   1.062   6.455
  222POPC   C4B 2233   9.623   0.979   6.155
  223POPC   NC3 2234   2.565  10.354   7.955
  223POPC   PO4 2235   2.513  10.379   7.655
  223POPC   GL1 2236   2.555  10.431   7.355
  223POPC   GL2 2237   2.743  10.369   7.355
  223POPC   C1A 2238   2.536  10.349   7.055
  223POPC   D2A 2239   2.541  10.357   6.755
  223POPC   C3A 2240   2.551  10.384   6.455
  223POPC   C4A 2241   2.548  10.356   6.155
  223POPC   C1B 2242   2.930  10.430   7.055
  223POPC   C2B 2243   2.916  10.359   6.755
  223POPC   C3B 2244   2.946  10.385   6.455
  223POPC   C4B 2245   2.959  10.382   6.155
  224POPC   NC3 2246   7.352   0.292   7.955
  224POPC   PO4 2247   7.383   0.246   7.655
  224POPC   GL1 2248   7.423   0.224   7.355
  224POPC   GL2 2249   7.303   0.414   7.355
  224POPC   C1A 2250   7.344   0.290   7.055
  224POPC   D2A 2251   7.359   0.216   6.755
  224POPC   C3A 2252   7.410   0.304   6.455
  224POPC   C4A 2253   7.397   0.243   6.155
  224POPC   C1B 2254   7.300   0.588   7.055
  224POPC   C2B 2255   7.230   0.619   6.755
  224POPC   C3B 2256   7.310   0.570   6.455
  224POPC   C4B 2257   7.283   0.586   6.155
  225POPC   NC3 2258   2.666   9.794   7.955
  225POPC   PO4 2259   2.589   9.765   7.655
  225POPC   GL1 2260   2.595   9.822   7.355
  225POPC   GL2 2261   2.739   9.625   7.355
  225POPC   C1A 2262   2.641   9.804   7.055
  225POPC   D2A 2263   2.686   9.741   6.755
  225POPC   C3A 2264   2.622   9.812   6.455
  225POPC   C4A 2265   2.601   9.735   6.155
  225POPC   C1B 2266   2.811   9.446   7.055
  225POPC   C2B 2267   2.814   9.470   6.755
  225POPC   C3B 2268   2.861   9.524   6.455
  225POPC   C4B 2269   2.854   9.445   6.155
  226POPC   NC3 2270   1.812   7.973   7.955
  226POPC   PO4 2271   1.820   8.036   7.655
  226POPC   GL1 2272   1.818   8.029   7.355
  226POPC   GL2 2273   1.984   8.105   7.355
  226POPC   C1A 2274   1.833   8.012   7.055
  226POPC   D2A 2275   1.850   8.015   6.755
  226POPC   C3A 2276   1.809   7.988   6.455
  226POPC   C4A 2277   1.855   8.032   6.155
  226POPC   C1B 2278   2.078   8.235   7.055
  226POPC   C2B 2279   2.113   8.260   6.755
  226POPC   C3B 2280   2.115   8.254   6.455
  226POPC   C4B 2281   2.116   8.192   6.155
  227POPC   NC3 2282   2.905   2.647   7.955
  227POPC   PO4 2283   2.910   2.622   7.655
  227POPC   GL1 2284   2.846   2.638   7.355
  227POPC   GL2 2285   2.762   2.699   7.355
  227POPC   C1A 2286   2.921   2.580   7.055
  227POPC   D2A 2287   2.908   2.609   6.755
  227POPC   C3A 2288   2.877   2.614   6.455
  227POPC   C4A 2289   2.868   2.594   6.155
  227POPC   C1B 2290   2.600   2.871   7.055
  227POPC   C2B 2291   2.606   2.855   6.755
  227POPC   C3B 2292   2.582   2.833   6.455
  227POPC   C4B 2293   2.587   2.841   6.155
  228POPC   NC3 2294  11.010   1.317   7.955
  228POPC   PO4 2295  11.025   1.285   7.655
  228POPC   GL1 2296  11.033   1.374   7.355
  228POPC   GL2 2297  11.179   1.176   7.355
  228POPC   C1A 2298  11.033   1.327   7.055
  228POPC   D2A 2299  11.059   1.327   6.755
  228POPC   C3A 2300  11.034   1.362   6.455
  228POPC   C4A 2301  11.059   1.300   6.155
  228POPC   C1B 2302  11.309   1.023   7.055
  228POPC   C2B 2303  11.275   1.076   6.755
  228POPC   C3B 2304  11.264   1.036   6.455
  228POPC   C4B 2305  11.299   1.121   6.155
  229POPC   NC3 2306   2.100   1.231   7.955
  229POPC   PO4 2307   2.172   1.234   7.655
  229POPC   GL1 2308   2.089   1.250   7.355
  229POPC   GL2 2309   1.954   1.223   7.355
  229POPC   C1A 2310   2.126   1.250   7.055
  229POPC   D2A 2311   2.175   1.255   6.755
  229POPC   C3A 2312   2.106   1.299   6.455
  229POPC   C4A 2313   2.098   1.224   6.155
  229POPC   C1B 2314   1.831   1.115   7.055
  229POPC   C2B 2315   1.821   1.176   6.755
  229POPC   C3B 2316   1.802   1.084   6.455
  229POPC   C4B 2317   1.827   1.134   6.155
  230POPC   NC3 2318  11.374  11.240   7.955
  230POPC   PO4 2319  11.322  11.210   7.655
  230POPC   GL1 2320  11.289  11.238   7.355
  230POPC   GL2 2321  11.147  11.156   7.355
  230POPC   C1A 2322  11.305  11.241   7.055
  230POPC   D2A 2323  11.332  11.255   6.755
  230POPC   C3A 2324  11.301  11.249   6.455
  230POPC   C4A 2325  11.337  11.253   6.155
  230POPC   C1B 2326  10.951  11.152   7.055
  230POPC   C2B 2327  11.009  11.146   6.755
  230POPC   C3B 2328  11.019  11.167   6.455
  230POPC   C4B 2329  10.996  11.149   6.155
  231POPC   NC3 2330   5.094   8.724   7.955
  231POPC   PO4 2331   5.044   8.652   7.655
  231POPC   GL1 2332   5.130   8.671   7.355
  231POPC   GL2 2333   5.034   8.831   7.355
  231POPC   C1A 2334   5.102   8.677   7.055
  231POPC   D2A 2335   5.107   8.734   6.755
  231POPC   C3A 2336   5.127   8.723   6.455
  231POPC   C4A 2337   5.042   8.650   6.155
  231POPC   C1B 2338   4.933   9.064   7.055
  231POPC   C2B 2339   4.941   9.068   6.755
  231POPC   C3B 2340   4.951   8.999   6.455
  231POPC   C4B 2341   5.019   8.994   6.155
  232POPC   NC3 2342   4.296   9.818   7.955
  232POPC   PO4 2343   4.324   9.814   7.655
  232POPC   GL1 2344   4.255   9.850   7.355
  232POPC   GL2 2345   4.239   9.588   7.355
  232POPC   C1A 2346   4.243   9.790   7.055
  232POPC   D2A 2347   4.318   9.775   6.755
  232POPC   C3A 2348   4.317   9.813   6.455
  232POPC   C4A 2349   4.257   9.790   6.155
  232POPC   C1B 2350   4.268   9.483   7.055
  232POPC   C2B 2351   4.261   9.452   6.755
  232POPC   C3B 2352   4.283   9.411   6.455
  232POPC   C4B 2353   4.289   9.457   6.155
  233POPC   NC3 2354   8.889   1.818   7.955
  233POPC   PO4 2355   8.932   1.782   7.655
  233POPC   GL1 2356   8.872   1.776   7.355
  233POPC   GL2 2357   8.818   1.963   7.355
  233POPC   C1A 2358   8.895   1.781   7.055
  233POPC   D2A 2359   8.915   1.821   6.755
  233POPC   C3A 2360   8.915   1.803   6.455
  233POPC   C4A 2361   8.869   1.807   6.155
  233POPC   C1B 2362   8.852   2.139   7.055
  233POPC   C2B 2363   8.816   2.153   6.755
  233POPC   C3B 2364   8.863   2.108   6.455
  233POPC   C4B 2365   8.806   2.098   6.155
  234POPC   NC3 2366  10.475  11.030   7.955
  234POPC   PO4 2367  10.454  10.987   7.655
  234POPC   GL1 2368  10.507  10.981   7.355
  234POPC   GL2 2369  10.406  11.200   7.355
  234POPC   C1A 2370  10.440  11.010   7.055
  234POPC   D2A 2371  10.514  11.051   6.755
  234POPC   C3A 2372  10.496  11.006   6.455
  234POPC   C4A 2373  10.503  10.983   6.155
  234POPC   C1B 2374  10.310  11.373   7.055
  234POPC   C2B 2375  10.312  11.329   6.755
  234POPC   C3B 2376  10.299  11.372   6.455
  234POPC   C4B 2377  10.292  11.304   6.155
  235POPC   NC3 2378   2.052   9.487   7.955
  235POPC   PO4 2379   2.077   9.432   7.655
  235POPC   GL1 2380   2.030   9.452   7.355
  235POPC   GL2 2381   1.940   9.637   7.355
  235POPC   C1A 2382   2.029   9.464   7.055
  235POPC   D2A 2383   2.034   9.491   6.755
  235POPC   C3A 2384   2.017   9.423   6.455
  235POPC   C4A 2385   2.058   9.465   6.155
  235POPC   C1B 2386   1.872   9.770   7.055
  235POPC   C2B 2387   1.899   9.785   6.755
  235POPC   C3B 2388   1.927   9.750   6.455
  235POPC   C4B 2389   1.902   9.797   6.155
  236POPC   NC3 2390   6.534  11.046   7.955
  236POPC   PO4 2391   6.511  10.973   7.655
  236POPC   GL1 2392   6.474  11.024   7.355
  236POPC   GL2 2393   6.533  11.135   7.355
  236POPC   C1A 2394   6.450  11.021   7.055
  236POPC   D2A 2395   6.542  10.990   6.755
  236POPC   C3A 2396   6.497  11.050   6.455
  236POPC   C4A 2397   6.463  11.021   6.155
  236POPC   C1B 2398   6.683  11.284   7.055
  236POPC   C2B 2399   6.660  11.301   6.755
  236POPC   C3B 2400   6.652  11.305   6.455
  236POPC   C4B 2401   6.631  11.286   6.155
  237POPC   NC3 2402   8.756   8.941   7.955
  237POPC   PO4 2403   8.729   8.937   7.655
  237POPC   GL1 2404   8.745   8.945   7.355
  237POPC   GL2 2405   8.841   8.844   7.355
  237POPC   C1A 2406   8.714   8.928   7.055
  237POPC   D2A 2407   8.689   8.967   6.755
  237POPC   C3A 2408   8.676   8.999   6.455
  237POPC   C4A 2409   8.758   8.969   6.155
  237POPC   C1B 2410   8.995   8.774   7.055
  237POPC   C2B 2411   9.057   8.765   6.755
  237POPC   C3B 2412   9.017   8.827   6.455
  237POPC   C4B 2413   8.973   8.799   6.155
  238POPC   NC3 2414   4.419   1.343   7.955
  238POPC   PO4 2415   4.338   1.302   7.655
  238POPC   GL1 2416   4.341   1.364   7.355
  238POPC   GL2 2417   4.313   1.197   7.355
  238POPC   C1A 2418   4.324   1.374   7.055
  238POPC   D2A 2419   4.353   1.334   6.755
  238POPC   C3A 2420   4.366   1.361   6.455
  238POPC   C4A 2421   4.408   1.303   6.155
  238POPC   C1B 2422   4.174   1.043   7.055
  238POPC   C2B 2423   4.159   1.095   6.755
  238POPC   C3B 2424   4.209   1.049   6.455
  238POPC   C4B 2425   4.138   1.076   6.155
  239POPC   NC3 2426   1.254   7.944   4.055
  239POPC   PO4 2427   1.305   7.911   4.355
  239POPC   GL1 2428   1.250   7.985   4.655
  239POPC   GL2 2429   1.236   8.088   4.655
  239POPC   C1A 2430   1.338   7.906   4.955
  239POPC   D2A 2431   1.285   7.913   5.255
  239POPC   C3A 2432   1.308   7.965   5.555
  239POPC   C4A 2433   1.332   7.963   5.855
  239POPC   C1B 2434   1.094   8.288   4.955
  239POPC   C2B 2435   1.093   8.265   5.255
  239POPC   C3B 2436   1.104   8.280   5.555
  239POPC   C4B 2437   1.122   8.278   5.855
  240POPC   NC3 2438   3.377   2.122   4.055
  240POPC   PO4 2439   3.458   2.105   4.355
  240POPC   GL1 2440   3.442   2.084   4.655
  240POPC   GL2 2441   3.488   2.007   4.655
  240POPC   C1A 2442   3.414   2.171   4.955
  240POPC   D2A 2443   3.377   2.074   5.255
  240POPC   C3A 2444   3.457   2.098   5.555
  240POPC   C4A 2445   3.416   2.121   5.855
  240POPC   C1B 2446   3.555   1.796   4.955
  240POPC   C2B 2447   3.631   1.782   5.255
  240POPC   C3B 2448   3.634   1.838   5.555
  240POPC   C4B 2449   3.563   1.780   5.855
  241POPC   NC3 2450   0.582   5.801   4.055
  241POPC   PO4 2451   0.603   5.881   4.355
  241POPC   GL1 2452   0.636   5.845   4.655
  241POPC   GL2 2453   0.468   5.828   4.655
  241POPC   C1A 2454   0.592   5.822   4.955
  241POPC   D2A 2455   0.617   5.810   5.255
  241POPC   C3A 2456   0.564   5.829   5.555
  241POPC   C4A 2457   0.605   5.839   5.855
  241POPC   C1B 2458   0.300   5.755   4.955
  241POPC   C2B 2459   0.244   5.758   5.255
  241POPC   C3B 2460   0.266   5.722   5.555
  241POPC   C4B 2461   0.283   5.772   5.855
  242POPC   NC3 2462   1.851   4.381   4.055
  242POPC   PO4 2463   1.840   4.309   4.355
  242POPC   GL1 2464   1.761   4.291   4.655
  242POPC   GL2 2465   2.000   4.257   4.655
  242POPC   C1A 2466   1.835   4.294   4.955
  242POPC   D2A 2467   1.843   4.334   5.255
  242POPC   C3A 2468   1.807   4.326   5.555
  242POPC   C4A 2469   1.832   4.378   5.855
  242POPC   C1B 2470   2.159   4.229   4.955
  242POPC   C2B 2471   2.147   4.201   5.255
  242POPC   C3B 2472   2.089   4.210   5.555
  242POPC   C4B 2473   2.167   4.239   5.855
  243POPC   NC3 2474   0.300   1.104   4.055
  243POPC   PO4 2475   0.273   1.087   4.355
  243POPC   GL1 2476   0.258   1.071   4.655
  243POPC   GL2 2477   0.396   1.247   4.655
  243POPC   C1A 2478   0.273   1.157   4.955
  243POPC   D2A 2479   0.254   1.130   5.255
  243POPC   C3A 2480   0.249   1.072   5.555
  243POPC   C4A 2481   0.304   1.103   5.855
  243POPC   C1B 2482   0.609   1.237   4.955
  243POPC   C2B 2483   0.635   1.236   5.255
  243POPC   C3B 2484   0.548   1.251   5.555
  243POPC   C4B 2485   0.623   1.242   5.855
  244POPC   NC3 2486   2.051   1.079   4.055
  244POPC   PO4 2487   2.022   1.074   4.355
  244POPC   GL1 2488   2.081   1.034   4.655
  244POPC   GL2 2489   1.925   1.242   4.655
  244POPC   C1A 2490   2.028   1.078   4.955
  244POPC   D2A 2491   2.065   1.056   5.255
  244POPC   C3A 2492   2.060   1.034   5.555
  244POPC   C4A 2493   2.067   1.034   5.855
  244POPC   C1B 2494   1.933   1.325   4.955
  244POPC   C2B 2495   1.923   1.350   5.255
  244POPC   C3B 2496   1.911   1.348   5.555
  244POPC   C4B 2497   1.933   1.327   5.855
  245POPC   NC3 2498   1.063   3.482   4.055
  245POPC   PO4 2499   1.016   3.515   4.355
  245POPC   GL1 2500   0.993   3.476   4.655
  245POPC   GL2 2501   1.238   3.500   4.655
  245POPC   C1A 2502   0.999   3.484   4.955
  245POPC   D2A 2503   1.064   3.495   5.255
  245POPC   C3A 2504   0.994   3.460   5.555
  245POPC   C4A 2505   1.065   3.460   5.855
  245POPC   C1B 2506   1.347   3.447   4.955
  245POPC   C2B 2507   1.392   3.511   5.255
  245POPC   C3B 2508   1.366   3.463   5.555
  245POPC   C4B 2509   1.330   3.494   5.855
  246POPC   NC3 2510   9.504   7.342   4.055
  246POPC   PO4 2511   9.419   7.369   4.355
  246POPC   GL1 2512   9.423   7.293   4.655
  246POPC   GL2 2513   9.612   7.287   4.655
  246POPC   C1A 2514   9.427   7.288   4.955
  246POPC   D2A 2515   9.434   7.324   5.255
  246POPC   C3A 2516   9.446   7.315   5.555
  246POPC   C4A 2517   9.428   7.379   5.855
  246POPC   C1B 2518   9.822   7.323   4.955
  246POPC   C2B 2519   9.794   7.291   5.255
  246POPC   C3B 2520   9.810   7.321   5.555
  246POPC   C4B 2521   9.857   7.369   5.855
  247POPC   NC3 2522  11.068   2.643   4.055
  247POPC   PO4 2523  11.040   2.636   4.355
  247POPC   GL1 2524  11.081   2.553   4.655
  247POPC   GL2 2525  11.121   2.754   4.655
  247POPC   C1A 2526  11.058   2.567   4.955
  247POPC   D2A 2527  11.089   2.619   5.255
  247POPC   C3A 2528  11.063   2.572   5.555
  247POPC   C4A 2529  11.043   2.610   5.855
  247POPC   C1B 2530  11.304   2.896   4.955
  247POPC   C2B 2531  11.244   2.852   5.255
  247POPC   C3B 2532  11.300   2.878   5.555
  247POPC   C4B 2533  11.308   2.841   5.855
  248POPC   NC3 2534  10.970   8.909   4.055
  248POPC   PO4 2535  11.010   8.915   4.355
  248POPC   GL1 2536  11.033   8.868   4.655
  248POPC   GL2 2537  11.159   8.889   4.655
  248POPC   C1A 2538  10.983   8.846   4.955
  248POPC   D2A 2539  10.990   8.921   5.255
  248POPC   C3A 2540  10.972   8.928   5.555
  248POPC   C4A 2541  10.998   8.912   5.855
  248POPC   C1B 2542  11.326   8.852   4.955
  248POPC   C2B 2543  11.305   8.837   5.255
  248POPC   C3B 2544  11.391   8.816   5.555
  248POPC   C4B 2545  11.299   8.811   5.855
  249POPC   NC3 2546   8.735   5.834   4.055
  249POPC   PO4 2547   8.675   5.826   4.355
  249POPC   GL1 2548   8.674   5.852   4.655
  249POPC   GL2 2549   8.851   5.763   4.655
  249POPC   C1A 2550   8.739   5.857   4.955
  249POPC   D2A 2551   8.712   5.806   5.255
  249POPC   C3A 2552   8.731   5.832   5.555
  249POPC   C4A 2553   8.714   5.810   5.855
  249POPC   C1B 2554   9.085   5.785   4.955
  249POPC   C2B 2555   9.045   5.799   5.255
  249POPC   C3B 2556   9.090   5.770   5.555
  249POPC   C4B 2557   9.025   5.761   5.855
  250POPC   NC3 2558   8.061   3.685   4.055
  250POPC   PO4 2559   8.089   3.637   4.355
  250POPC   GL1 2560   8.021   3.671   4.655
  250POPC   GL2 2561   8.135   3.510   4.655
  250POPC   C1A 2562   8.062   3.699   4.955
  250POPC   D2A 2563   8.094   3.625   5.255
  250POPC   C3A 2564   8.038   3.719   5.555
  250POPC   C4A 2565   8.016   3.685   5.855
  250POPC   C1B 2566   8.191   3.353   4.955
  250POPC   C2B 2567   8.100   3.352   5.255
  250POPC   C3B 2568   8.194   3.306   5.555
  250POPC   C4B 2569   8.197   3.345   5.855
  251POPC   NC3 2570   8.730   8.917   4.055
  251POPC   PO4 2571   8.719   8.917   4.355
  251POPC   GL1 2572   8.652   8.937   4.655
  251POPC   GL2 2573   8.819   8.869   4.655
  251POPC   C1A 2574   8.678   8.958   4.955
  251POPC   D2A 2575   8.664   8.928   5.255
  251POPC   C3A 2576   8.648   8.918   5.555
  251POPC   C4A 2577   8.692   8.967   5.855
  251POPC   C1B 2578   9.036   8.861   4.955
  251POPC   C2B 2579   9.036   8.820   5.255
  251POPC   C3B 2580   8.990   8.792   5.555
  251POPC   C4B 2581   8.990   8.778   5.855
  252POPC   NC3 2582  10.245   1.251   4.055
  252POPC   PO4 2583  10.192   1.274   4.355
  252POPC   GL1 2584  10.205   1.269   4.655
  252POPC   GL2 2585  10.401   1.197   4.655
  252POPC   C1A 2586  10.278   1.253   4.955
  252POPC   D2A 2587  10.233   1.239   5.255
  252POPC   C3A 2588  10.252   1.330   5.555
  252POPC   C4A 2589  10.194   1.313   5.855
  252POPC   C1B 2590  10.597   1.128   4.955
  252POPC   C2B 2591  10.569   1.116   5.255
  252POPC   C3B 2592  10.516   1.116   5.555
  252POPC   C4B 2593  10.545   1.128   5.855
  253POPC   NC3 2594   8.150   9.011   4.055
  253POPC   PO4 2595   8.224   9.014   4.355
  253POPC   GL1 2596   8.136   9.059   4.655
  253POPC   GL2 2597   8.113   8.874   4.655
  253POPC   C1A 2598   8.188   8.981   4.955
  253POPC   D2A 2599   8.186   8.977   5.255
  253POPC   C3A 2600   8.203   9.058   5.555
  253POPC   C4A 2601   8.188   9.055   5.855
  253POPC   C1B 2602   8.006   8.675   4.955
  253POPC   C2B 2603   7.975   8.722   5.255
  253POPC   C3B 2604   8.022   8.676   5.555
  253POPC   C4B 2605   7.990   8.727   5.855
  254POPC   NC3 2606   6.747   0.356   4.055
  254POPC   PO4 2607   6.736   0.433   4.355
  254POPC   GL1 2608   6.760   0.349   4.655
  254POPC   GL2 2609   6.525   0.394   4.655
  254POPC   C1A 2610   6.729   0.340   4.955
  254POPC   D2A 2611   6.707   0.421   5.255
  254POPC   C3A 2612   6.690   0.407   5.555
  254POPC   C4A 2613   6.707   0.422   5.855
  254POPC   C1B 2614   6.376   0.451   4.955
  254POPC   C2B 2615   6.394   0.524   5.255
  254POPC   C3B 2616   6.417   0.494   5.555
  254POPC   C4B 2617   6.444   0.527   5.855
  255POPC   NC3 2618   3.348   8.247   4.055
  255POPC   PO4 2619   3.381   8.221   4.355
  255POPC   GL1 2620   3.381   8.171   4.655
  255POPC   GL2 2621   3.525   8.147   4.655
  255POPC   C1A 2622   3.361   8.226   4.955
  255POPC   D2A 2623   3.355   8.206   5.255
  255POPC   C3A 2624   3.409   8.177   5.555
  255POPC   C4A 2625   3.411   8.268   5.855
  255POPC   C1B 2626   3.597   7.945   4.955
  255POPC   C2B 2627   3.615   8.016   5.255
  255POPC   C3B 2628   3.632   7.957   5.555
  255POPC   C4B 2629   3.598   7.996   5.855
  256POPC   NC3 2630   9.676   9.846   4.055
  256POPC   PO4 2631   9.666   9.850   4.355
  256POPC   GL1 2632   9.686   9.797   4.655
  256POPC   GL2 2633   9.662   9.680   4.655
  256POPC   C1A 2634   9.683   9.804   4.955
  256POPC   D2A 2635   9.716   9.858   5.255
  256POPC   C3A 2636   9.618   9.848   5.555
  256POPC   C4A 2637   9.630   9.770   5.855
  256POPC   C1B 2638   9.559   9.421   4.955
  256POPC   C2B 2639   9.625   9.463   5.255
  256POPC   C3B 2640   9.609   9.472   5.555
  256POPC   C4B 2641   9.556   9.467   5.855
  257POPC   NC3 2642   8.908   0.599   4.055
  257POPC   PO4 2643   8.841   0.574   4.355
  257POPC   GL1 2644   8.874   0.583   4.655
  257POPC   GL2 2645   8.907   0.459   4.655
  257POPC   C1A 2646   8.921   0.585   4.955
  257POPC   D2A 2647   8.839   0.577   5.255
  257POPC   C3A 2648   8.915   0.561   5.555
  257POPC   C4A 2649   8.934   0.580   5.855
  257POPC   C1B 2650   8.855   0.224   4.955
  257POPC   C2B 2651   8.879   0.306   5.255
  257POPC   C3B 2652   8.813   0.276   5.555
  257POPC   C4B 2653   8.834   0.304   5.855
  258POPC   NC3 2654   7.985   9.570   4.055
  258POPC   PO4 2655   7.968   9.565   4.355
  258POPC   GL1 2656   7.926   9.558   4.655
  258POPC   GL2 2657   8.061   9.626   4.655
  258POPC   C1A 2658   7.945   9.526   4.955
  258POPC   D2A 2659   7.955   9.567   5.255
  258POPC   C3A 2660   7.965   9.577   5.555
  258POPC   C4A 2661   7.964   9.539   5.855
  258POPC   C1B 2662   8.252   9.700   4.955
  258POPC   C2B 2663   8.214   9.716   5.255
  258POPC   C3B 2664   8.248   9.686   5.555
  258POPC   C4B 2665   8.281   9.705   5.855
  259POPC   NC3 2666   2.627   0.300   4.055
  259POPC   PO4 2667   2.604   0.275   4.355
  259POPC   GL1 2668   2.630   0.296   4.655
  259POPC   GL2 2669   2.749   0.389   4.655
  259POPC   C1A 2670   2.641   0.274   4.955
  259POPC   D2A 2671   2.602   0.265   5.255
  259POPC   C3A 2672   2.649   0.262   5.555
  259POPC   C4A 2673   2.583   0.291   5.855
  259POPC   C1B 2674   2.856   0.515   4.955
  259POPC   C2B 2675   2.909   0.562   5.255
  259POPC   C3B 2676   2.827   0.552   5.555
  259POPC   C4B 2677   2.844   0.520   5.855
  260POPC   NC3 2678   1.818  11.090   4.055
  260POPC   PO4 2679   1.783  11.147   4.355
  260POPC   GL1 2680   1.794  11.129   4.655
  260POPC   GL2 2681   1.917  11.167   4.655
  260POPC   C1A 2682   1.750  11.147   4.955
  260POPC   D2A 2683   1.781  11.103   5.255
  260POPC   C3A 2684   1.795  11.111   5.555
  260POPC   C4A 2685   1.792  11.177   5.855
  260POPC   C1B 2686   2.163  11.174   4.955
  260POPC   C2B 2687   2.185  11.234   5.255
  260POPC   C3B 2688   2.150  11.250   5.555
  260POPC   C4B 2689   2.186  11.226   5.855
  261POPC   NC3 2690  10.201   8.834   4.055
  261POPC   PO4 2691  10.246   8.808   4.355
  261POPC   GL1 2692  10.265   8.868   4.655
  261POPC   GL2 2693  10.414   8.856   4.655
  261POPC   C1A 2694  10.236   8.850   4.955
  261POPC   D2A 2695  10.206   8.800   5.255
  261POPC   C3A 2696  10.228   8.851   5.555
  261POPC   C4A 2697  10.270   8.831   5.855
  261POPC   C1B 2698  10.592   8.889   4.955
  261POPC   C2B 2699  10.578   8.861   5.255
  261POPC   C3B 2700  10.616   8.847   5.555
  261POPC   C4B 2701  10.555   8.924   5.855
  262POPC   NC3 2702   2.739  10.201   4.055
  262POPC   PO4 2703   2.766  10.225   4.355
  262POPC   GL1 2704   2.692  10.240   4.655
  262POPC   GL2 2705   2.749  10.395   4.655
  262POPC   C1A 2706   2.681  10.214   4.955
  262POPC   D2A 2707   2.723  10.211   5.255
  262POPC   C3A 2708   2.735  10.269   5.555
  262POPC   C4A 2709   2.681  10.254   5.855
  262POPC   C1B 2710   2.761  10.596   4.955
  262POPC   C2B 2711   2.740  10.576   5.255
  262POPC   C3B 2712   2.733  10.581   5.555
  262POPC   C4B 2713   2.699  10.603   5.855
  263POPC   NC3 2714  11.209   4.421   4.055
  263POPC   PO4 2715  11.171   4.481   4.355
  263POPC   GL1 2716  11.162   4.440   4.655
  263POPC   GL2 2717  11.123   4.298   4.655
  263POPC   C1A 2718  11.198   4.399   4.955
  263POPC   D2A 2719  11.146   4.481   5.255
  263POPC   C3A 2720  11.156   4.452   5.555
  263POPC   C4A 2721  11.240   4.411   5.855
  263POPC   C1B 2722  11.159   4.080   4.955
  263POPC   C2B 2723  11.173   4.060   5.255
  263POPC   C3B 2724  11.101   4.072   5.555
  263POPC   C4B 2725  11.177   4.049   5.855
  264POPC   NC3 2726   2.762  10.965   4.055
  264POPC   PO4 2727   2.819  10.956   4.355
  264POPC   GL1 2728   2.773  11.045   4.655
  264POPC   GL2 2729   2.757  11.147   4.655
  264POPC   C1A 2730   2.756  11.021   4.955
  264POPC   D2A 2731   2.810  10.981   5.255
  264POPC   C3A 2732   2.805  11.008   5.555
  264POPC   C4A 2733   2.761  11.008   5.855
  264POPC   C1B 2734   2.714  11.296   4.955
  264POPC   C2B 2735   2.634  11.305   5.255
  264POPC   C3B 2736   2.668  11.304   5.555
  264POPC   C4B 2737   2.681  11.293   5.855
  265POPC   NC3 2738   8.796   8.290   4.055
  265POPC   PO4 2739   8.760   8.290   4.355
  265POPC   GL1 2740   8.745   8.274   4.655
  265POPC   GL2 2741   8.886   8.055   4.655
  265POPC   C1A 2742   8.826   8.283   4.955
  265POPC   D2A 2743   8.779   8.251   5.255
  265POPC   C3A 2744   8.832   8.212   5.555
  265POPC   C4A 2745   8.749   8.232   5.855
  265POPC   C1B 2746   8.984   7.955   4.955
  265POPC   C2B 2747   8.913   7.952   5.255
  265POPC   C3B 2748   8.954   7.935   5.555
  265POPC   C4B 2749   8.938   7.986   5.855
  266POPC   NC3 2750   1.386  10.278   4.055
  266POPC   PO4 2751   1.377  10.312   4.355
  266POPC   GL1 2752   1.313  10.286   4.655
  266POPC   GL2 2753   1.227  10.440   4.655
  266POPC   C1A 2754   1.354  10.281   4.955
  266POPC   D2A 2755   1.340  10.337   5.255
  266POPC   C3A 2756   1.348  10.326   5.555
  266POPC   C4A 2757   1.357  10.261   5.855
  266POPC   C1B 2758   1.022  10.485   4.955
  266POPC   C2B 2759   1.017  10.453   5.255
  266POPC   C3B 2760   1.080  10.449   5.555
  266POPC   C4B 2761   1.096  10.510   5.855
  267POPC   NC3 2762   4.072   8.872   4.055
  267POPC   PO4 2763   4.054   8.929   4.355
  267POPC   GL1 2764   4.103   8.894   4.655
  267POPC   GL2 2765   4.239   8.846   4.655
  267POPC   C1A 2766   4.082   8.931   4.955
  267POPC   D2A 2767   4.119   8.931   5.255
  267POPC   C3A 2768   4.093   8.939   5.555
  267POPC   C4A 2769   4.136   8.929   5.855
  267POPC   C1B 2770   4.449   8.851   4.955
  267POPC   C2B 2771   4.393   8.795   5.255
  267POPC   C3B 2772   4.415   8.799   5.555
  267POPC   C4B 2773   4.479   8.774   5.855
  268POPC   NC3 2774  11.102   9.782   4.055
  268POPC   PO4 2775  11.093   9.769   4.355
  268POPC   GL1 2776  11.151   9.767   4.655
  268POPC   GL2 2777  11.168   9.618   4.655
  268POPC   C1A 2778  11.154   9.784   4.955
  268POPC   D2A 2779  11.100   9.806   5.255
  268POPC   C3A 2780  11.113   9.820   5.555
  268POPC   C4A 2781  11.178   9.762   5.855
  268POPC   C1B 2782  11.179   9.491   4.955
  268POPC   C2B 2783  11.193   9.426   5.255
  268POPC   C3B 2784  11.230   9.445   5.555
  268POPC   C4B 2785  11.223   9.501   5.855
  269POPC   NC3 2786   2.844   5.875   4.055
  269POPC   PO4 2787   2.893   5.910   4.355
  269POPC   GL1 2788   2.855   5.927   4.655
  269POPC   GL2 2789   2.707   5.787   4.655
  269POPC   C1A 2790   2.914   5.858   4.955
  269POPC   D2A 2791   2.856   5.915   5.255
  269POPC   C3A 2792   2.897   5.864   5.555
  269POPC   C4A 2793   2.902   5.900   5.855
  269POPC   C1B 2794   2.580   5.662   4.955
  269POPC   C2B 2795   2.558   5.751   5.255
  269POPC   C3B 2796   2.617   5.730   5.555
  269POPC   C4B 2797   2.599   5.709   5.855
  270POPC   NC3 2798  11.058   8.229   4.055
  270POPC   PO4 2799  11.087   8.203   4.355
  270POPC   GL1 2800  11.035   8.223   4.655
  270POPC   GL2 2801  11.202   8.110   4.655
  270POPC   C1A 2802  11.102   8.276   4.955
  270POPC   D2A 2803  11.072   8.224   5.255
  270POPC   C3A 2804  11.017   8.261   5.555
  270POPC   C4A 2805  11.065   8.195   5.855
  270POPC   C1B 2806  11.239   7.933   4.955
  270POPC   C2B 2807  11.297   7.946   5.255
  270POPC   C3B 2808  11.316   8.000   5.555
  270POPC   C4B 2809  11.260   7.951   5.855
  271POPC   NC3 2810   1.107   9.749   4.055
  271POPC   PO4 2811   1.110   9.838   4.355
  271POPC   GL1 2812   1.166   9.805   4.655
  271POPC   GL2 2813   1.188   9.652   4.655
  271POPC   C1A 2814   1.078   9.779   4.955
  271POPC   D2A 2815   1.118   9.841   5.255
  271POPC   C3A 2816   1.124   9.783   5.555
  271POPC   C4A 2817   1.100   9.809   5.855
  271POPC   C1B 2818   1.307   9.520   4.955
  271POPC   C2B 2819   1.301   9.478   5.255
  271POPC   C3B 2820   1.304   9.495   5.555
  271POPC   C4B 2821   1.293   9.517   5.855
  272POPC   NC3 2822   1.357   7.473   4.055
  272POPC   PO4 2823   1.307   7.391   4.355
  272POPC   GL1 2824   1.306   7.465   4.655
  272POPC   GL2 2825   1.203   7.307   4.655
  272POPC   C1A 2826   1.294   7.466   4.955
  272POPC   D2A 2827   1.319   7.455   5.255
  272POPC   C3A 2828   1.326   7.429   5.555
  272POPC   C4A 2829   1.326   7.452   5.855
  272POPC   C1B 2830   1.093   7.204   4.955
  272POPC   C2B 2831   1.039   7.251   5.255
  272POPC   C3B 2832   1.035   7.224   5.555
  272POPC   C4B 2833   1.031   7.264   5.855
  273POPC   NC3 2834   9.554   5.695   4.055
  273POPC   PO4 2835   9.549   5.647   4.355
  273POPC   GL1 2836   9.540   5.636   4.655
  273POPC   GL2 2837   9.587   5.820   4.655
  273POPC   C1A 2838   9.511   5.689   4.955
  273POPC   D2A 2839   9.484   5.658   5.255
  273POPC   C3A 2840   9.506   5.630   5.555
  273POPC   C4A 2841   9.554   5.619   5.855
  273POPC   C1B 2842   9.753   5.888   4.955
  273POPC   C2B 2843   9.744   5.928   5.255
  273POPC   C3B 2844   9.732   5.901   5.555
  273POPC   C4B 2845   9.765   5.899   5.855
  274POPC   NC3 2846   2.912   2.083   4.055
  274POPC   PO4 2847   2.932   2.044   4.355
  274POPC   GL1 2848   2.903   2.019   4.655
  274POPC   GL2 2849   2.742   1.991   4.655
  274POPC   C1A 2850   2.943   2.019   4.955
  274POPC   D2A 2851   2.937   2.019   5.255
  274POPC   C3A 2852   2.889   2.006   5.555
  274POPC   C4A 2853   2.872   2.017   5.855
  274POPC   C1B 2854   2.547   1.913   4.955
  274POPC   C2B 2855   2.583   1.868   5.255
  274POPC   C3B 2856   2.575   1.924   5.555
  274POPC   C4B 2857   2.591   1.895   5.855
  275POPC   NC3 2858   1.887   2.144   4.055
  275POPC   PO4 2859   1.841   2.104   4.355
  275POPC   GL1 2860   1.808   2.134   4.655
  275POPC   GL2 2861   1.991   2.006   4.655
  275POPC   C1A 2862   1.854   2.151   4.955
  275POPC   D2A 2863   1.889   2.131   5.255
  275POPC   C3A 2864   1.875   2.081   5.555
  275POPC   C4A 2865   1.885   2.090   5.855
  275POPC   C1B 2866   2.036   1.824   4.955
  275POPC   C2B 2867   2.041   1.785   5.255
  275POPC   C3B 2868   2.066   1.791   5.555
  275POPC   C4B 2869   2.051   1.874   5.855
  276POPC   NC3 2870   8.048   2.152   4.055
  276POPC   PO4 2871   8.051   2.166   4.355
  276POPC   GL1 2872   8.136   2.169   4.655
  276POPC   GL2 2873   8.146   1.970   4.655
  276POPC   C1A 2874   8.137   2.103   4.955
  276POPC   D2A 2875   8.064   2.179   5.255
  276POPC   C3A 2876   8.092   2.137   5.555
  276POPC   C4A 2877   8.131   2.131   5.855
  276POPC   C1B 2878   8.151   1.763   4.955
  276POPC   C2B 2879   8.153   1.739   5.255
  276POPC   C3B 2880   8.087   1.772   5.555
  276POPC   C4B 2881   8.114   1.761   5.855
  277POPC   NC3 2882   0.999   1.222   4.055
  277POPC   PO4 2883   0.994   1.198   4.355
  277POPC   GL1 2884   0.989   1.241   4.655
  277POPC   GL2 2885   1.186   1.162   4.655
  277POPC   C1A 2886   0.980   1.207   4.955
  277POPC   D2A 2887   1.002   1.296   5.255
  277POPC   C3A 2888   1.030   1.230   5.555
  277POPC   C4A 2889   1.077   1.210   5.855
  277POPC   C1B 2890   1.405   1.201   4.955
  277POPC   C2B 2891   1.359   1.155   5.255
  277POPC   C3B 2892   1.413   1.173   5.555
  277POPC   C4B 2893   1.326   1.136   5.855
  278POPC   NC3 2894  10.963  10.404   4.055
  278POPC   PO4 2895  10.996  10.416   4.355
  278POPC   GL1 2896  10.954  10.468   4.655
  278POPC   GL2 2897  11.212  10.450   4.655
  278POPC   C1A 2898  10.965  10.436   4.955
  278POPC   D2A 2899  10.979  10.411   5.255
  278POPC   C3A 2900  10.954  10.410   5.555
  278POPC   C4A 2901  10.947  10.446   5.855
  278POPC   C1B 2902  11.348  10.360   4.955
  278POPC   C2B 2903  11.324  10.353   5.255
  278POPC   C3B 2904  11.362  10.337   5.555
  278POPC   C4B 2905  11.336  10.395   5.855
  279POPC   NC3 2906   7.490   1.038   4.055
  279POPC   PO4 2907   7.420   1.053   4.355
  279POPC   GL1 2908   7.479   1.099   4.655
  279POPC   GL2 2909   7.284   1.245   4.655
  279POPC   C1A 2910   7.462   1.076   4.955
  279POPC   D2A 2911   7.422   1.112   5.255
  279POPC   C3A 2912   7.462   1.088   5.555
  279POPC   C4A 2913   7.494   1.058   5.855
  279POPC   C1B 2914   7.259   1.368   4.955
  279POPC   C2B 2915   7.172   1.372   5.255
  279POPC   C3B 2916   7.219   1.351   5.555
  279POPC   C4B 2917   7.172   1.301   5.855
  280POPC   NC3 2918   9.516   8.952   4.055
  280POPC   PO4 2919   9.456   8.959   4.355
  280POPC   GL1 2920   9.497   8.958   4.655
  280POPC   GL2 2921   9.679   8.822   4.655
  280POPC   C1A 2922   9.536   8.945   4.955
  280POPC   D2A 2923   9.478   8.928   5.255
  280POPC   C3A 2924   9.517   9.013   5.555
  280POPC   C4A 2925   9.484   8.984   5.855
  280POPC   C1B 2926   9.793   8.805   4.955
  280POPC   C2B 2927   9.814   8.723   5.255
  280POPC   C3B 2928   9.818   8.813   5.555
  280POPC   C4B 2929   9.775   8.776   5.855
  281POPC   NC3 2930   8.949  10.527   4.055
  281POPC   PO4 2931   8.933  10.505   4.355
  281POPC   GL1 2932   8.967  10.587   4.655
  281POPC   GL2 2933   8.866  10.432   4.655
  281POPC   C1A 2934   8.963  10.580   4.955
  281POPC   D2A 2935   8.963  10.510   5.255
  281POPC   C3A 2936   9.002  10.568   5.555
  281POPC   C4A 2937   9.021  10.507   5.855
  281POPC   C1B 2938   8.716  10.303   4.955
  281POPC   C2B 2939   8.797  10.230   5.255
  281POPC   C3B 2940   8.748  10.286   5.555
  281POPC   C4B 2941   8.716  10.243   5.855
  282POPC   NC3 2942   1.162   8.715   4.055
  282POPC   PO4 2943   1.135   8.702   4.355
  282POPC   GL1 2944   1.124   8.690   4.655
  282POPC   GL2 2945   1.185   8.831   4.655
  282POPC   C1A 2946   1.110   8.725   4.955
  282POPC   D2A 2947   1.114   8.679   5.255
  282POPC   C3A 2948   1.093   8.653   5.555
  282POPC   C4A 2949   1.170   8.724   5.855
  282POPC   C1B 2950   1.217   9.065   4.955
  282POPC   C2B 2951   1.221   9.018   5.255
  282POPC   C3B 2952   1.223   9.027   5.555
  282POPC   C4B 2953   1.221   9.077   5.855
  283POPC   NC3 2954   9.756   3.677   4.055
  283POPC   PO4 2955   9.700   3.595   4.355
  283POPC   GL1 2956   9.751   3.670   4.655
  283POPC   GL2 2957   9.602   3.529   4.655
  283POPC   C1A 2958   9.736   3.599   4.955
  283POPC   D2A 2959   9.726   3.596   5.255
  283POPC   C3A 2960   9.752   3.595   5.555
  283POPC   C4A 2961   9.696   3.676   5.855
  283POPC   C1B 2962   9.567   3.401   4.955
  283POPC   C2B 2963   9.534   3.328   5.255
  283POPC   C3B 2964   9.574   3.316   5.555
  283POPC   C4B 2965   9.493   3.314   5.855
  284POPC   NC3 2966   5.808   1.370   4.055
  284POPC   PO4 2967   5.782   1.417   4.355
  284POPC   GL1 2968   5.831   1.415   4.655
  284POPC   GL2 2969   5.789   1.152   4.655
  284POPC   C1A 2970   5.796   1.337   4.955
  284POPC   D2A 2971   5.769   1.355   5.255
  284POPC   C3A 2972   5.770   1.388   5.555
  284POPC   C4A 2973   5.755   1.348   5.855
  284POPC   C1B 2974   5.757   1.029   4.955
  284POPC   C2B 2975   5.771   0.989   5.255
  284POPC   C3B 2976   5.770   1.065   5.555
  284POPC   C4B 2977   5.795   1.002   5.855
  285POPC   NC3 2978   9.749   2.648   4.055
  285POPC   PO4 2979   9.826   2.592   4.355
  285POPC   GL1 2980   9.768   2.658   4.655
  285POPC   GL2 2981   9.634   2.741   4.655
  285POPC   C1A 2982   9.828   2.593   4.955
  285POPC   D2A 2983   9.755   2.630   5.255
  285POPC   C3A 2984   9.733   2.638   5.555
  285POPC   C4A 2985   9.754   2.616   5.855
  285POPC   C1B 2986   9.459   2.875   4.955
  285POPC   C2B 2987   9.482   2.832   5.255
  285POPC   C3B 2988   9.495   2.866   5.555
  285POPC   C4B 2989   9.523   2.854   5.855
  286POPC   NC3 2990  11.037   4.997   4.055
  286POPC   PO4 2991  11.034   4.955   4.355
  286POPC   GL1 2992  11.008   4.951   4.655
  286POPC   GL2 2993  11.211   5.082   4.655
  286POPC   C1A 2994  10.944   4.992   4.955
  286POPC   D2A 2995  11.027   5.037   5.255
  286POPC   C3A 2996  11.019   5.003   5.555
  286POPC   C4A 2997  10.969   5.017   5.855
  286POPC   C1B 2998  11.310   5.040   4.955
  286POPC   C2B 2999  11.368   5.064   5.255
  286POPC   C3B 3000  11.333   5.116   5.555
  286POPC   C4B 3001  11.303   5.050   5.855
  287POPC   NC3 3002  10.616   3.404   4.055
  287POPC   PO4 3003  10.608   3.481   4.355
  287POPC   GL1 3004  10.569   3.452   4.655
  287POPC   GL2 3005  10.353   3.482   4.655
  287POPC   C1A 3006  10.531   3.436   4.955
  287POPC   D2A 3007  10.608   3.429   5.255
  287POPC   C3A 3008  10.556   3.420   5.555
  287POPC   C4A 3009  10.545   3.427   5.855
  287POPC   C1B 3010  10.277   3.594   4.955
  287POPC   C2B 3011  10.194   3.569   5.255
  287POPC   C3B 3012  10.231   3.570   5.555
  287POPC   C4B 3013  10.184   3.512   5.855
  288POPC   NC3 3014   3.718   1.234   4.055
  288POPC   PO4 3015   3.714   1.253   4.355
  288POPC   GL1 3016   3.699   1.269   4.655
  288POPC   GL2 3017   3.549   1.158   4.655
  288POPC   C1A 3018   3.627   1.248   4.955
  288POPC   D2A 3019   3.691   1.208   5.255
  288POPC   C3A 3020   3.638   1.221   5.555
  288POPC   C4A 3021   3.712   1.258   5.855
  288POPC   C1B 3022   3.348   1.101   4.955
  288POPC   C2B 3023   3.350   1.149   5.255
  288POPC   C3B 3024   3.327   1.174   5.555
  288POPC   C4B 3025   3.344   1.125   5.855
  289POPC   NC3 3026   5.966   9.536   4.055
  289POPC   PO4 3027   5.891   9.510   4.355
  289POPC   GL1 3028   5.898   9.476   4.655
  289POPC   GL2 3029   5.790   9.681   4.655
  289POPC   C1A 3030   5.969   9.542   4.955
  289POPC   D2A 3031   5.971   9.473   5.255
  289POPC   C3A 3032   5.948   9.552   5.555
  289POPC   C4A 3033   5.947   9.554   5.855
  289POPC   C1B 3034   5.640   9.733   4.955
  289POPC   C2B 3035   5.644   9.745   5.255
  289POPC   C3B 3036   5.715   9.743   5.555
  289POPC   C4B 3037   5.717   9.755   5.855
  290POPC   NC3 3038   0.586  11.163   4.055
  290POPC   PO4 3039   0.567  11.158   4.355
  290POPC   GL1 3040   0.622  11.183   4.655
  290POPC   GL2 3041   0.456  11.202   4.655
  290POPC   C1A 3042   0.570  11.233   4.955
  290POPC   D2A 3043   0.601  11.198   5.255
  290POPC   C3A 3044   0.658  11.182   5.555
  290POPC   C4A 3045   0.640  11.220   5.855
  290POPC   C1B 3046   0.226  11.102   4.955
  290POPC   C2B 3047   0.298  11.093   5.255
  290POPC   C3B 3048   0.279  11.114   5.555
  290POPC   C4B 3049   0.211  11.170   5.855
  291POPC   NC3 3050   3.486   9.837   4.055
  291POPC   PO4 3051   3.469   9.801   4.355
  291POPC   GL1 3052   3.468   9.811   4.655
  291POPC   GL2 3053   3.547   9.650   4.655
  291POPC   C1A 3054   3.455   9.821   4.955
  291POPC   D2A 3055   3.483   9.824   5.255
  291POPC   C3A 3056   3.528   9.773   5.555
  291POPC   C4A 3057   3.504   9.837   5.855
  291POPC   C1B 3058   3.474   9.452   4.955
  291POPC   C2B 3059   3.559   9.445   5.255
  291POPC   C3B 3060   3.523   9.459   5.555
  291POPC   C4B 3061   3.483   9.477   5.855
  292POPC   NC3 3062   0.282   8.031   4.055
  292POPC   PO4 3063   0.244   8.048   4.355
  292POPC   GL1 3064   0.246   7.998   4.655
  292POPC   GL2 3065   0.396   8.112   4.655
  292POPC   C1A 3066   0.248   7.972   4.955
  292POPC   D2A 3067   0.271   7.999   5.255
  292POPC   C3A 3068   0.318   7.990   5.555
  292POPC   C4A 3069   0.246   8.041   5.855
  292POPC   C1B 3070   0.564   8.193   4.955
  292POPC   C2B 3071   0.563   8.205   5.255
  292POPC   C3B 3072   0.540   8.172   5.555
  292POPC   C4B 3073   0.630   8.164   5.855
  293POPC   NC3 3074   8.037  10.552   4.055
  293POPC   PO4 3075   8.079  10.554   4.355
  293POPC   GL1 3076   8.047  10.528   4.655
  293POPC   GL2 3077   8.055  10.359   4.655
  293POPC   C1A 3078   8.034  10.560   4.955
  293POPC   D2A 3079   7.994  10.534   5.255
  293POPC   C3A 3080   8.068  10.575   5.555
  293POPC   C4A 3081   8.081  10.591   5.855
  293POPC   C1B 3082   8.120  10.269   4.955
  293POPC   C2B 3083   8.128  10.263   5.255
  293POPC   C3B 3084   8.149  10.190   5.555
  293POPC   C4B 3085   8.139  10.248   5.855
  294POPC   NC3 3086   1.836   5.943   4.055
  294POPC   PO4 3087   1.799   5.877   4.355
  294POPC   GL1 3088   1.844   5.954   4.655
  294POPC   GL2 3089   1.930   5.827   4.655
  294POPC   C1A 3090   1.776   5.907   4.955
  294POPC   D2A 3091   1.782   5.881   5.255
  294POPC   C3A 3092   1.869   5.932   5.555
  294POPC   C4A 3093   1.822   5.958   5.855
  294POPC   C1B 3094   2.074   5.738   4.955
  294POPC   C2B 3095   2.077   5.683   5.255
  294POPC   C3B 3096   2.145   5.687   5.555
  294POPC   C4B 3097   2.065   5.653   5.855
  295POPC   NC3 3098   5.955  11.191   4.055
  295POPC   PO4 3099   5.968  11.205   4.355
  295POPC   GL1 3100   6.014  11.246   4.655
  295POPC   GL2 3101   5.816  11.147   4.655
  295POPC   C1A 3102   5.925  11.270   4.955
  295POPC   D2A 3103   6.016  11.192   5.255
  295POPC   C3A 3104   6.016  11.229   5.555
  295POPC   C4A 3105   5.958  11.189   5.855
  295POPC   C1B 3106   5.683  11.085   4.955
  295POPC   C2B 3107   5.672  11.115   5.255
  295POPC   C3B 3108   5.664  11.151   5.555
  295POPC   C4B 3109   5.663  11.097   5.855
  296POPC   NC3 3110   0.563   4.902   4.055
  296POPC   PO4 3111   0.581   4.916   4.355
  296POPC   GL1 3112   0.534   4.958   4.655
  296POPC   GL2 3113   0.468   5.019   4.655
  296POPC   C1A 3114   0.586   4.972   4.955
  296POPC   D2A 3115   0.624   4.940   5.255
  296POPC   C3A 3116   0.623   4.893   5.555
  296POPC   C4A 3117   0.612   4.948   5.855
  296POPC   C1B 3118   0.283   5.106   4.955
  296POPC   C2B 3119   0.301   5.102   5.255
  296POPC   C3B 3120   0.330   5.135   5.555
  296POPC   C4B 3121   0.277   5.184   5.855
  297POPC   NC3 3122   5.800   0.583   4.055
  297POPC   PO4 3123   5.802   0.646   4.355
  297POPC   GL1 3124   5.818   0.587   4.655
  297POPC   GL2 3125   5.850   0.396   4.655
  297POPC   C1A 3126   5.847   0.616   4.955
  297POPC   D2A 3127   5.855   0.563   5.255
  297POPC   C3A 3128   5.799   0.635   5.555
  297POPC   C4A 3129   5.799   0.594   5.855
  297POPC   C1B 3130   5.772   0.238   4.955
  297POPC   C2B 3131   5.788   0.254   5.255
  297POPC   C3B 3132   5.749   0.284   5.555
  297POPC   C4B 3133   5.799   0.241   5.855
  298POPC   NC3 3134   2.913   7.981   4.055
  298POPC   PO4 3135   2.851   8.042   4.355
  298POPC   GL1 3136   2.897   8.026   4.655
  298POPC   GL2 3137   2.717   8.080   4.655
  298POPC   C1A 3138   2.928   7.964   4.955
  298POPC   D2A 3139   2.835   8.030   5.255
  298POPC   C3A 3140   2.907   7.982   5.555
  298POPC   C4A 3141   2.847   7.972   5.855
  298POPC   C1B 3142   2.595   8.247   4.955
  298POPC   C2B 3143   2.546   8.236   5.255
  298POPC   C3B 3144   2.570   8.216   5.555
  298POPC   C4B 3145   2.581   8.236   5.855
  299POPC   NC3 3146   2.065   6.448   4.055
  299POPC   PO4 3147   2.112   6.454   4.355
  299POPC   GL1 3148   2.108   6.375   4.655
  299POPC   GL2 3149   1.964   6.551   4.655
  299POPC   C1A 3150   2.094   6.380   4.955
  299POPC   D2A 3151   2.105   6.449   5.255
  299POPC   C3A 3152   2.085   6.463   5.555
  299POPC   C4A 3153   2.048   6.387   5.855
  299POPC   C1B 3154   1.914   6.666   4.955
  299POPC   C2B 3155   1.901   6.745   5.255
  299POPC   C3B 3156   1.863   6.756   5.555
  299POPC   C4B 3157   1.855   6.748   5.855
  300POPC   NC3 3158   0.380   3.636   4.055
  300POPC   PO4 3159   0.399   3.638   4.355
  300POPC   GL1 3160   0.405   3.686   4.655
  300POPC   GL2 3161   0.397   3.488   4.655
  300POPC   C1A 3162   0.455   3.715   4.955
  300POPC   D2A 3163   0.399   3.664   5.255
  300POPC   C3A 3164   0.368   3.639   5.555
  300POPC   C4A 3165   0.447   3.631   5.855
  300POPC   C1B 3166   0.472   3.286   4.955
  300POPC   C2B 3167   0.470   3.340   5.255
  300POPC   C3B 3168   0.408   3.305   5.555
  300POPC   C4B 3169   0.486   3.331   5.855
  301POPC   NC3 3170  10.493   7.228   4.055
  301POPC   PO4 3171  10.486   7.190   4.355
  301POPC   GL1 3172  10.470   7.220   4.655
  301POPC   GL2 3173  10.429   7.345   4.655
  301POPC   C1A 3174  10.514   7.176   4.955
  301POPC   D2A 3175  10.484   7.163   5.255
  301POPC   C3A 3176  10.464   7.166   5.555
  301POPC   C4A 3177  10.449   7.171   5.855
  301POPC   C1B 3178  10.340   7.444   4.955
  301POPC   C2B 3179  10.281   7.533   5.255
  301POPC   C3B 3180  10.301   7.469   5.555
  301POPC   C4B 3181  10.329   7.519   5.855
  302POPC   NC3 3182  10.209   4.342   4.055
  302POPC   PO4 3183  10.265   4.310   4.355
  302POPC   GL1 3184  10.208   4.334   4.655
  302POPC   GL2 3185  10.353   4.314   4.655
  302POPC   C1A 3186  10.227   4.358   4.955
  302POPC   D2A 3187  10.249   4.374   5.255
  302POPC   C3A 3188  10.188   4.309   5.555
  302POPC   C4A 3189  10.266   4.308   5.855
  302POPC   C1B 3190  10.585   4.188   4.955
  302POPC   C2B 3191  10.591   4.181   5.255
  302POPC   C3B 3192  10.564   4.185   5.555
  302POPC   C4B 3193  10.544   4.147   5.855
  303POPC   NC3 3194   4.948   7.973   4.055
  303POPC   PO4 3195   4.917   7.934   4.355
  303POPC   GL1 3196   4.921   7.963   4.655
  303POPC   GL2 3197   4.994   8.082   4.655
  303POPC   C1A 3198   4.991   7.977   4.955
  303POPC   D2A 3199   4.939   7.987   5.255
  303POPC   C3A 3200   4.928   7.987   5.555
  303POPC   C4A 3201   4.999   7.960   5.855
  303POPC   C1B 3202   5.110   8.304   4.955
  303POPC   C2B 3203   5.137   8.287   5.255
  303POPC   C3B 3204   5.095   8.243   5.555
  303POPC   C4B 3205   5.078   8.253   5.855
  304POPC   NC3 3206   1.339   4.139   4.055
  304POPC   PO4 3207   1.341   4.118   4.355
  304POPC   GL1 3208   1.309   4.146   4.655
  304POPC   GL2 3209   1.219   4.292   4.655
  304POPC   C1A 3210   1.335   4.185   4.955
  304POPC   D2A 3211   1.354   4.113   5.255
  304POPC   C3A 3212   1.298   4.196   5.555
  304POPC   C4A 3213   1.363   4.106   5.855
  304POPC   C1B 3214   1.085   4.367   4.955
  304POPC   C2B 3215   1.063   4.348   5.255
  304POPC   C3B 3216   1.040   4.375   5.555
  304POPC   C4B 3217   1.094   4.376   5.855
  305POPC   NC3 3218   2.855   8.674   4.055
  305POPC   PO4 3219   2.816   8.745   4.355
  305POPC   GL1 3220   2.823   8.673   4.655
  305POPC   GL2 3221   2.709   8.915   4.655
  305POPC   C1A 3222   2.783   8.751   4.955
  305POPC   D2A 3223   2.802   8.659   5.255
  305POPC   C3A 3224   2.789   8.741   5.555
  305POPC   C4A 3225   2.820   8.662   5.855
  305POPC   C1B 3226   2.621   9.039   4.955
  305POPC   C2B 3227   2.615   9.067   5.255
  305POPC   C3B 3228   2.629   9.047   5.555
  305POPC   C4B 3229   2.707   9.034   5.855
  306POPC   NC3 3230  10.301   0.250   4.055
  306POPC   PO4 3231  10.292   0.248   4.355
  306POPC   GL1 3232  10.279   0.238   4.655
  306POPC   GL2 3233  10.364   0.447   4.655
  306POPC   C1A 3234  10.310   0.297   4.955
  306POPC   D2A 3235  10.309   0.324   5.255
  306POPC   C3A 3236  10.328   0.269   5.555
  306POPC   C4A 3237  10.365   0.264   5.855
  306POPC   C1B 3238  10.447   0.574   4.955
  306POPC   C2B 3239  10.521   0.561   5.255
  306POPC   C3B 3240  10.453   0.603   5.555
  306POPC   C4B 3241  10.442   0.554   5.855
  307POPC   NC3 3242   1.808   2.796   4.055
  307POPC   PO4 3243   1.776   2.775   4.355
  307POPC   GL1 3244   1.780   2.787   4.655
  307POPC   GL2 3245   2.015   2.744   4.655
  307POPC   C1A 3246   1.743   2.728   4.955
  307POPC   D2A 3247   1.771   2.770   5.255
  307POPC   C3A 3248   1.750   2.738   5.555
  307POPC   C4A 3249   1.821   2.800   5.855
  307POPC   C1B 3250   2.151   2.715   4.955
  307POPC   C2B 3251   2.118   2.695   5.255
  307POPC   C3B 3252   2.115   2.687   5.555
  307POPC   C4B 3253   2.115   2.723   5.855
  308POPC   NC3 3254   7.155   8.096   4.055
  308POPC   PO4 3255   7.118   8.090   4.355
  308POPC   GL1 3256   7.126   8.073   4.655
  308POPC   GL2 3257   7.372   8.123   4.655
  308POPC   C1A 3258   7.130   8.017   4.955
  308POPC   D2A 3259   7.167   8.065   5.255
  308POPC   C3A 3260   7.177   8.069   5.555
  308POPC   C4A 3261   7.184   8.023   5.855
  308POPC   C1B 3262   7.551   8.157   4.955
  308POPC   C2B 3263   7.492   8.122   5.255
  308POPC   C3B 3264   7.515   8.100   5.555
  308POPC   C4B 3265   7.505   8.093   5.855
  309POPC   NC3 3266   1.212   0.643   4.055
  309POPC   PO4 3267   1.166   0.646   4.355
  309POPC   GL1 3268   1.182   0.597   4.655
  309POPC   GL2 3269   1.151   0.458   4.655
  309POPC   C1A 3270   1.137   0.609   4.955
  309POPC   D2A 3271   1.122   0.608   5.255
  309POPC   C3A 3272   1.154   0.572   5.555
  309POPC   C4A 3273   1.169   0.572   5.855
  309POPC   C1B 3274   1.222   0.210   4.955
  309POPC   C2B 3275   1.208   0.243   5.255
  309POPC   C3B 3276   1.207   0.294   5.555
  309POPC   C4B 3277   1.281   0.294   5.855
  310POPC   NC3 3278  11.115   7.450   4.055
  310POPC   PO4 3279  11.131   7.465   4.355
  310POPC   GL1 3280  11.099   7.492   4.655
  310POPC   GL2 3281  11.142   7.328   4.655
  310POPC   C1A 3282  11.105   7.512   4.955
  310POPC   D2A 3283  11.061   7.537   5.255
  310POPC   C3A 3284  11.150   7.503   5.555
  310POPC   C4A 3285  11.099   7.463   5.855
  310POPC   C1B 3286  11.216   7.198   4.955
  310POPC   C2B 3287  11.245   7.128   5.255
  310POPC   C3B 3288  11.272   7.163   5.555
  310POPC   C4B 3289  11.271   7.128   5.855
  311POPC   NC3 3290   4.146   2.921   4.055
  311POPC   PO4 3291   4.187   2.922   4.355
  311POPC   GL1 3292   4.182   2.858   4.655
  311POPC   GL2 3293   4.299   2.778   4.655
  311POPC   C1A 3294   4.161   2.868   4.955
  311POPC   D2A 3295   4.155   2.856   5.255
  311POPC   C3A 3296   4.125   2.922   5.555
  311POPC   C4A 3297   4.133   2.864   5.855
  311POPC   C1B 3298   4.408   2.630   4.955
  311POPC   C2B 3299   4.360   2.544   5.255
  311POPC   C3B 3300   4.368   2.590   5.555
  311POPC   C4B 3301   4.320   2.632   5.855
  312POPC   NC3 3302   5.170  10.231   4.055
  312POPC   PO4 3303   5.201  10.231   4.355
  312POPC   GL1 3304   5.192  10.294   4.655
  312POPC   GL2 3305   5.006  10.393   4.655
  312POPC   C1A 3306   5.117  10.306   4.955
  312POPC   D2A 3307   5.181  10.267   5.255
  312POPC   C3A 3308   5.172  10.235   5.555
  312POPC   C4A 3309   5.155  10.319   5.855
  312POPC   C1B 3310   4.921  10.503   4.955
  312POPC   C2B 3311   4.873  10.571   5.255
  312POPC   C3B 3312   4.918  10.512   5.555
  312POPC   C4B 3313   4.905  10.482   5.855
  313POPC   NC3 3314  10.551   2.865   4.055
  313POPC   PO4 3315  10.562   2.880   4.355
  313POPC   GL1 3316  10.582   2.881   4.655
  313POPC   GL2 3317  10.380   2.727   4.655
  313POPC   C1A 3318  10.564   2.850   4.955
  313POPC   D2A 3319  10.495   2.798   5.255
  313POPC   C3A 3320  10.535   2.850   5.555
  313POPC   C4A 3321  10.522   2.808   5.855
  313POPC   C1B 3322  10.288   2.594   4.955
  313POPC   C2B 3323  10.284   2.614   5.255
  313POPC   C3B 3324  10.293   2.654   5.555
  313POPC   C4B 3325  10.295   2.617   5.855
  314POPC   NC3 3326   7.192  11.167   4.055
  314POPC   PO4 3327   7.202  11.185   4.355
  314POPC   GL1 3328   7.187  11.191   4.655
  314POPC   GL2 3329   7.304  11.160   4.655
  314POPC   C1A 3330   7.194  11.239   4.955
  314POPC   D2A 3331   7.200  11.223   5.255
  314POPC   C3A 3332   7.139  11.191   5.555
  314POPC   C4A 3333   7.140  11.238   5.855
  314POPC   C1B 3334   7.524  11.145   4.955
  314POPC   C2B 3335   7.479  11.157   5.255
  314POPC   C3B 3336   7.548  11.174   5.555
  314POPC   C4B 3337   7.555  11.167   5.855
  315POPC   NC3 3338   1.819   3.564   4.055
  315POPC   PO4 3339   1.864   3.620   4.355
  315POPC   GL1 3340   1.788   3.617   4.655
  315POPC   GL2 3341   2.001   3.479   4.655
  315POPC   C1A 3342   1.778   3.603   4.955
  315POPC   D2A 3343   1.800   3.597   5.255
  315POPC   C3A 3344   1.828   3.628   5.555
  315POPC   C4A 3345   1.828   3.549   5.855
  315POPC   C1B 3346   2.095   3.418   4.955
  315POPC   C2B 3347   2.079   3.431   5.255
  315POPC   C3B 3348   2.086   3.368   5.555
  315POPC   C4B 3349   2.079   3.374   5.855
  316POPC   NC3 3350   9.055   1.994   4.055
  316POPC   PO4 3351   9.013   2.026   4.355
  316POPC   GL1 3352   9.071   2.060   4.655
  316POPC   GL2 3353   8.884   1.970   4.655
  316POPC   C1A 3354   9.049   2.060   4.955
  316POPC   D2A 3355   8.988   2.041   5.255
  316POPC   C3A 3356   9.034   1.988   5.555
  316POPC   C4A 3357   8.994   1.995   5.855
  316POPC   C1B 3358   8.743   1.909   4.955
  316POPC   C2B 3359   8.734   1.876   5.255
  316POPC   C3B 3360   8.725   1.894   5.555
  316POPC   C4B 3361   8.725   1.938   5.855
  317POPC   NC3 3362   9.514   0.293   4.055
  317POPC   PO4 3363   9.544   0.294   4.355
  317POPC   GL1 3364   9.539   0.296   4.655
  317POPC   GL2 3365   9.660   0.477   4.655
  317POPC   C1A 3366   9.490   0.267   4.955
  317POPC   D2A 3367   9.472   0.327   5.255
  317POPC   C3A 3368   9.489   0.282   5.555
  317POPC   C4A 3369   9.555   0.259   5.855
  317POPC   C1B 3370   9.753   0.569   4.955
  317POPC   C2B 3371   9.754   0.514   5.255
  317POPC   C3B 3372   9.720   0.537   5.555
  317POPC   C4B 3373   9.802   0.516   5.855
  318POPC   NC3 3374   8.751   1.315   4.055
  318POPC   PO4 3375   8.818   1.376   4.355
  318POPC   GL1 3376   8.775   1.337   4.655
  318POPC   GL2 3377   8.897   1.237   4.655
  318POPC   C1A 3378   8.822   1.365   4.955
  318POPC   D2A 3379   8.802   1.350   5.255
  318POPC   C3A 3380   8.792   1.387   5.555
  318POPC   C4A 3381   8.821   1.366   5.855
  318POPC   C1B 3382   8.969   1.037   4.955
  318POPC   C2B 3383   8.954   1.093   5.255
  318POPC   C3B 3384   8.951   1.048   5.555
  318POPC   C4B 3385   8.961   1.017   5.855
  319POPC   NC3 3386   0.496   7.155   4.055
  319POPC   PO4 3387   0.547   7.178   4.355
  319POPC   GL1 3388   0.548   7.216   4.655
  319POPC   GL2 3389   0.402   7.286   4.655
  319POPC   C1A 3390   0.547   7.197   4.955
  319POPC   D2A 3391   0.495   7.183   5.255
  319POPC   C3A 3392   0.520   7.160   5.555
  319POPC   C4A 3393   0.529   7.204   5.855
  319POPC   C1B 3394   0.359   7.447   4.955
  319POPC   C2B 3395   0.337   7.464   5.255
  319POPC   C3B 3396   0.344   7.485   5.555
  319POPC   C4B 3397   0.340   7.516   5.855
  320POPC   NC3 3398   5.608   1.942   4.055
  320POPC   PO4 3399   5.641   2.020   4.355
  320POPC   GL1 3400   5.642   1.991   4.655
  320POPC   GL2 3401   5.785   1.975   4.655
  320POPC   C1A 3402   5.642   1.974   4.955
  320POPC   D2A 3403   5.619   2.005   5.255
  320POPC   C3A 3404   5.620   1.952   5.555
  320POPC   C4A 3405   5.652   1.992   5.855
  320POPC   C1B 3406   5.997   1.947   4.955
  320POPC   C2B 3407   5.934   1.976   5.255
  320POPC   C3B 3408   5.930   1.927   5.555
  320POPC   C4B 3409   5.967   1.978   5.855
  321POPC   NC3 3410   0.468   6.793   4.055
  321POPC   PO4 3411   0.446   6.704   4.355
  321POPC   GL1 3412   0.474   6.791   4.655
  321POPC   GL2 3413   0.425   6.573   4.655
  321POPC   C1A 3414   0.418   6.729   4.955
  321POPC   D2A 3415   0.443   6.759   5.255
  321POPC   C3A 3416   0.424   6.761   5.555
  321POPC   C4A 3417   0.476   6.698   5.855
  321POPC   C1B 3418   0.389   6.369   4.955
  321POPC   C2B 3419   0.463   6.357   5.255
  321POPC   C3B 3420   0.395   6.398   5.555
  321POPC   C4B 3421   0.408   6.346   5.855
  322POPC   NC3 3422  10.410   9.507   4.055
  322POPC   PO4 3423  10.451   9.460   4.355
  322POPC   GL1 3424  10.402   9.417   4.655
  322POPC   GL2 3425  10.407   9.613   4.655
  322POPC   C1A 3426  10.403   9.412   4.955
  322POPC   D2A 3427  10.402   9.451   5.255
  322POPC   C3A 3428  10.422   9.445   5.555
  322POPC   C4A 3429  10.447   9.485   5.855
  322POPC   C1B 3430  10.304   9.756   4.955
  322POPC   C2B 3431  10.381   9.800   5.255
  322POPC   C3B 3432  10.393   9.791   5.555
  322POPC   C4B 3433  10.370   9.841   5.855
  323POPC   NC3 3434   5.196  11.150   4.055
  323POPC   PO4 3435   5.246  11.118   4.355
  323POPC   GL1 3436   5.160  11.111   4.655
  323POPC   GL2 3437   5.079  11.175   4.655
  323POPC   C1A 3438   5.188  11.085   4.955
  323POPC   D2A 3439   5.173  11.152   5.255
  323POPC   C3A 3440   5.179  11.089   5.555
  323POPC   C4A 3441   5.248  11.175   5.855
  323POPC   C1B 3442   4.847  11.218   4.955
  323POPC   C2B 3443   4.861  11.191   5.255
  323POPC   C3B 3444   4.841  11.213   5.555
  323POPC   C4B 3445   4.831  11.211   5.855
  324POPC   NC3 3446  10.994   5.755   4.055
  324POPC   PO4 3447  11.036   5.730   4.355
  324POPC   GL1 3448  10.967   5.778   4.655
  324POPC   GL2 3449  11.156   5.791   4.655
  324POPC   C1A 3450  10.951   5.777   4.955
  324POPC   D2A 3451  11.029   5.707   5.255
  324POPC   C3A 3452  10.960   5.758   5.555
  324POPC   C4A 3453  11.023   5.787   5.855
  324POPC   C1B 3454  11.377   5.816   4.955
  324POPC   C2B 3455  11.314   5.893   5.255
  324POPC   C3B 3456  11.372   5.865   5.555
  324POPC   C4B 3457  11.361   5.890   5.855
  325POPC   NC3 3458   7.932  11.235   4.055
  325POPC   PO4 3459   7.948  11.220   4.355
  325POPC   GL1 3460   7.939  11.191   4.655
  325POPC   GL2 3461   8.137  11.153   4.655
  325POPC   C1A 3462   7.904  11.194   4.955
  325POPC   D2A 3463   7.972  11.271   5.255
  325POPC   C3A 3464   7.944  11.182   5.555
  325POPC   C4A 3465   7.885  11.223   5.855
  325POPC   C1B 3466   8.255  11.151   4.955
  325POPC   C2B 3467   8.285  11.147   5.255
  325POPC   C3B 3468   8.290  11.107   5.555
  325POPC   C4B 3469   8.258  11.121   5.855
  326POPC   NC3 3470   1.831   8.867   4.055
  326POPC   PO4 3471   1.836   8.898   4.355
  326POPC   GL1 3472   1.826   8.894   4.655
  326POPC   GL2 3473   1.924   8.873   4.655
  326POPC   C1A 3474   1.792   8.834   4.955
  326POPC   D2A 3475   1.802   8.892   5.255
  326POPC   C3A 3476   1.822   8.838   5.555
  326POPC   C4A 3477   1.744   8.877   5.855
  326POPC   C1B 3478   2.148   8.834   4.955
  326POPC   C2B 3479   2.170   8.826   5.255
  326POPC   C3B 3480   2.169   8.820   5.555
  326POPC   C4B 3481   2.164   8.824   5.855
  327POPC   NC3 3482   4.309   0.263   4.055
  327POPC   PO4 3483   4.287   0.287   4.355
  327POPC   GL1 3484   4.229   0.292   4.655
  327POPC   GL2 3485   4.274   0.396   4.655
  327POPC   C1A 3486   4.310   0.262   4.955
  327POPC   D2A 3487   4.306   0.254   5.255
  327POPC   C3A 3488   4.295   0.208   5.555
  327POPC   C4A 3489   4.277   0.284   5.855
  327POPC   C1B 3490   4.224   0.580   4.955
  327POPC   C2B 3491   4.287   0.563   5.255
  327POPC   C3B 3492   4.282   0.630   5.555
  327POPC   C4B 3493   4.230   0.589   5.855
  328POPC   NC3 3494   8.899   9.465   4.055
  328POPC   PO4 3495   8.958   9.490   4.355
  328POPC   GL1 3496   8.904   9.467   4.655
  328POPC   GL2 3497   8.849   9.663   4.655
  328POPC   C1A 3498   8.887   9.446   4.955
  328POPC   D2A 3499   8.878   9.428   5.255
  328POPC   C3A 3500   8.939   9.475   5.555
  328POPC   C4A 3501   8.907   9.499   5.855
  328POPC   C1B 3502   8.858   9.832   4.955
  328POPC   C2B 3503   8.765   9.769   5.255
  328POPC   C3B 3504   8.812   9.831   5.555
  328POPC   C4B 3505   8.814   9.829   5.855
  329POPC   NC3 3506   1.950   0.293   4.055
  329POPC   PO4 3507   1.950   0.211   4.355
  329POPC   GL1 3508   1.994   0.233   4.655
  329POPC   GL2 3509   2.006   0.413   4.655
  329POPC   C1A 3510   2.010   0.242   4.955
  329POPC   D2A 3511   1.940   0.293   5.255
  329POPC   C3A 3512   2.018   0.270   5.555
  329POPC   C4A 3513   2.035   0.236   5.855
  329POPC   C1B 3514   1.962   0.655   4.955
  329POPC   C2B 3515   1.959   0.619   5.255
  329POPC   C3B 3516   1.959   0.590   5.555
  329POPC   C4B 3517   1.962   0.584   5.855
  330POPC   NC3 3518  10.335   6.722   4.055
  330POPC   PO4 3519  10.427   6.792   4.355
  330POPC   GL1 3520  10.344   6.718   4.655
  330POPC   GL2 3521  10.401   6.552   4.655
  330POPC   C1A 3522  10.382   6.747   4.955
  330POPC   D2A 3523  10.357   6.724   5.255
  330POPC   C3A 3524  10.393   6.734   5.555
  330POPC   C4A 3525  10.351   6.699   5.855
  330POPC   C1B 3526  10.461   6.435   4.955
  330POPC   C2B 3527  10.417   6.411   5.255
  330POPC   C3B 3528  10.390   6.412   5.555
  330POPC   C4B 3529  10.383   6.342   5.855
  331POPC   NC3 3530   0.240   1.907   4.055
  331POPC   PO4 3531   0.217   1.942   4.355
  331POPC   GL1 3532   0.262   1.864   4.655
  331POPC   GL2 3533   0.388   1.995   4.655
  331POPC   C1A 3534   0.230   1.889   4.955
  331POPC   D2A 3535   0.257   1.921   5.255
  331POPC   C3A 3536   0.227   1.957   5.555
  331POPC   C4A 3537   0.301   1.960   5.855
  331POPC   C1B 3538   0.652   1.982   4.955
  331POPC   C2B 3539   0.571   2.063   5.255
  331POPC   C3B 3540   0.631   2.003   5.555
  331POPC   C4B 3541   0.579   1.976   5.855
  332POPC   NC3 3542   0.219   8.943   4.055
  332POPC   PO4 3543   0.295   8.858   4.355
  332POPC   GL1 3544   0.305   8.888   4.655
  332POPC   GL2 3545   0.394   8.846   4.655
  332POPC   C1A 3546   0.243   8.932   4.955
  332POPC   D2A 3547   0.222   8.935   5.255
  332POPC   C3A 3548   0.220   8.932   5.555
  332POPC   C4A 3549   0.228   8.919   5.855
  332POPC   C1B 3550   0.586   8.869   4.955
  332POPC   C2B 3551   0.652   8.814   5.255
  332POPC   C3B 3552   0.623   8.831   5.555
  332POPC   C4B 3553   0.599   8.841   5.855
  333POPC   NC3 3554  11.065  11.324   4.055
  333POPC   PO4 3555  11.057  11.357   4.355
  333POPC   GL1 3556  11.046  11.366   4.655
  333POPC   GL2 3557  11.154  11.159   4.655
  333POPC   C1A 3558  11.093  11.344   4.955
  333POPC   D2A 3559  11.029  11.329   5.255
  333POPC   C3A 3560  11.088  11.350   5.555
  333POPC   C4A 3561  11.086  11.309   5.855
  333POPC   C1B 3562  11.251  10.990   4.955
  333POPC   C2B 3563  11.278  11.010   5.255
  333POPC   C3B 3564  11.272  10.985   5.555
  333POPC   C4B 3565  11.290  11.036   5.855
  334POPC   NC3 3566   4.406   1.284   4.055
  334POPC   PO4 3567   4.467   1.237   4.355
  334POPC   GL1 3568   4.476   1.192   4.655
  334POPC   GL2 3569   4.265   1.241   4.655
  334POPC   C1A 3570   4.490   1.193   4.955
  334POPC   D2A 3571   4.428   1.228   5.255
  334POPC   C3A 3572   4.432   1.266   5.555
  334POPC   C4A 3573   4.477   1.218   5.855
  334POPC   C1B 3574   4.057   1.205   4.955
  334POPC   C2B 3575   4.091   1.180   5.255
  334POPC   C3B 3576   4.102   1.139   5.555
  334POPC   C4B 3577   4.088   1.200   5.855
  335POPC   NC3 3578   5.832  10.277   4.055
  335POPC   PO4 3579   5.852  10.243   4.355
  335POPC   GL1 3580   5.896  10.232   4.655
  335POPC   GL2 3581   5.794  10.425   4.655
  335POPC   C1A 3582   5.817  10.262   4.955
  335POPC   D2A 3583   5.826  10.224   5.255
  335POPC   C3A 3584   5.825  10.224   5.555
  335POPC   C4A 3585   5.821  10.267   5.855
  335POPC   C1B 3586   5.702  10.535   4.955
  335POPC   C2B 3587   5.790  10.599   5.255
  335POPC   C3B 3588   5.724  10.554   5.555
  335POPC   C4B 3589   5.734  10.608   5.855
  336POPC   NC3 3590   1.961  10.567   4.055
  336POPC   PO4 3591   1.972  10.557   4.355
  336POPC   GL1 3592   2.047  10.553   4.655
  336POPC   GL2 3593   1.970  10.406   4.655
  336POPC   C1A 3594   2.030  10.537   4.955
  336POPC   D2A 3595   1.975  10.575   5.255
  336POPC   C3A 3596   1.952  10.618   5.555
  336POPC   C4A 3597   2.010  10.553   5.855
  336POPC   C1B 3598   1.931  10.236   4.955
  336POPC   C2B 3599   1.933  10.246   5.255
  336POPC   C3B 3600   1.974  10.211   5.555
  336POPC   C4B 3601   1.960  10.193   5.855
  337POPC   NC3 3602   9.667  11.327   4.055
  337POPC   PO4 3603   9.672  11.345   4.355
  337POPC   GL1 3604   9.722  11.317   4.655
  337POPC   GL2 3605   9.665  11.180   4.655
  337POPC   C1A 3606   9.721  11.300   4.955
  337POPC   D2A 3607   9.706  11.373   5.255
  337POPC   C3A 3608   9.664  11.313   5.555
  337POPC   C4A 3609   9.689  11.347   5.855
  337POPC   C1B 3610   9.539  11.035   4.955
  337POPC   C2B 3611   9.575  10.964   5.255
  337POPC   C3B 3612   9.511  11.016   5.555
  337POPC   C4B 3613   9.603  10.993   5.855
  338POPC   NC3 3614   8.738   4.961   4.055
  338POPC   PO4 3615   8.648   5.035   4.355
  338POPC   GL1 3616   8.669   4.974   4.655
  338POPC   GL2 3617   8.835   5.043   4.655
  338POPC   C1A 3618   8.738   4.948   4.955
  338POPC   D2A 3619   8.689   4.948   5.255
  338POPC   C3A 3620   8.721   5.014   5.555
  338POPC   C4A 3621   8.668   4.971   5.855
  338POPC   C1B 3622   9.019   5.123   4.955
  338POPC   C2B 3623   9.052   5.054   5.255
  338POPC   C3B 3624   9.071   5.086   5.555
  338POPC   C4B 3625   9.031   5.034   5.855
  339POPC   NC3 3626   2.940   3.556   4.055
  339POPC   PO4 3627   2.894   3.511   4.355
  339POPC   GL1 3628   2.893   3.516   4.655
  339POPC   GL2 3629   2.755   3.471   4.655
  339POPC   C1A 3630   2.918   3.519   4.955
  339POPC   D2A 3631   2.938   3.468   5.255
  339POPC   C3A 3632   2.900   3.551   5.555
  339POPC   C4A 3633   2.880   3.465   5.855
  339POPC   C1B 3634   2.578   3.463   4.955
  339POPC   C2B 3635   2.515   3.457   5.255
  339POPC   C3B 3636   2.579   3.520   5.555
  339POPC   C4B 3637   2.539   3.461   5.855
  340POPC   NC3 3638   4.481  10.473   4.055
  340POPC   PO4 3639   4.478  10.400   4.355
  340POPC   GL1 3640   4.476  10.465   4.655
  340POPC   GL2 3641   4.265  10.419   4.655
  340POPC   C1A 3642   4.488  10.432   4.955
  340POPC   D2A 3643   4.472  10.431   5.255
  340POPC   C3A 3644   4.483  10.414   5.555
  340POPC   C4A 3645   4.434  10.449   5.855
  340POPC   C1B 3646   4.076  10.405   4.955
  340POPC   C2B 3647   4.109  10.358   5.255
  340POPC   C3B 3648   4.047  10.325   5.555
  340POPC   C4B 3649   4.083  10.378   5.855
  341POPC   NC3 3650   5.170   0.408   4.055
  341POPC   PO4 3651   5.178   0.460   4.355
  341POPC   GL1 3652   5.211   0.464   4.655
  341POPC   GL2 3653   5.055   0.405   4.655
  341POPC   C1A 3654   5.217   0.502   4.955
  341POPC   D2A 3655   5.252   0.438   5.255
  341POPC   C3A 3656   5.218   0.415   5.555
  341POPC   C4A 3657   5.176   0.423   5.855
  341POPC   C1B 3658   4.896   0.401   4.955
  341POPC   C2B 3659   4.839   0.433   5.255
  341POPC   C3B 3660   4.843   0.362   5.555
  341POPC   C4B 3661   4.832   0.439   5.855
  342POPC   NC3 3662   2.082   8.207   4.055
  342POPC   PO4 3663   2.066   8.187   4.355
  342POPC   GL1 3664   2.074   8.191   4.655
  342POPC   GL2 3665   1.923   8.101   4.655
  342POPC   C1A 3666   2.119   8.214   4.955
  342POPC   D2A 3667   2.106   8.259   5.255
  342POPC   C3A 3668   2.102   8.278   5.555
  342POPC   C4A 3669   2.131   8.258   5.855
  342POPC   C1B 3670   1.860   7.938   4.955
  342POPC   C2B 3671   1.811   8.002   5.255
  342POPC   C3B 3672   1.856   7.976   5.555
  342POPC   C4B 3673   1.820   8.001   5.855
  343POPC   NC3 3674   8.999   2.907   4.055
  343POPC   PO4 3675   8.993   2.870   4.355
  343POPC   GL1 3676   8.944   2.838   4.655
  343POPC   GL2 3677   8.912   2.776   4.655
  343POPC   C1A 3678   8.964   2.878   4.955
  343POPC   D2A 3679   9.009   2.842   5.255
  343POPC   C3A 3680   8.953   2.842   5.555
  343POPC   C4A 3681   8.942   2.890   5.855
  343POPC   C1B 3682   8.760   2.641   4.955
  343POPC   C2B 3683   8.723   2.647   5.255
  343POPC   C3B 3684   8.788   2.644   5.555
  343POPC   C4B 3685   8.743   2.605   5.855
  344POPC   NC3 3686   3.338  11.211   4.055
  344POPC   PO4 3687   3.370  11.267   4.355
  344POPC   GL1 3688   3.304  11.182   4.655
  344POPC   GL2 3689   3.507  11.141   4.655
  344POPC   C1A 3690   3.295  11.227   4.955
  344POPC   D2A 3691   3.371  11.228   5.255
  344POPC   C3A 3692   3.282  11.239   5.555
  344POPC   C4A 3693   3.331  11.237   5.855
  344POPC   C1B 3694   3.666  11.132   4.955
  344POPC   C2B 3695   3.700  11.123   5.255
  344POPC   C3B 3696   3.656  11.154   5.555
  344POPC   C4B 3697   3.636  11.148   5.855
  345POPC   NC3 3698  11.383   1.949   4.055
  345POPC   PO4 3699  11.308   1.916   4.355
  345POPC   GL1 3700  11.289   1.894   4.655
  345POPC   GL2 3701  11.139   1.973   4.655
  345POPC   C1A 3702  11.295   1.936   4.955
  345POPC   D2A 3703  11.372   1.937   5.255
  345POPC   C3A 3704  11.293   1.898   5.555
  345POPC   C4A 3705  11.321   1.906   5.855
  345POPC   C1B 3706  10.955   1.983   4.955
  345POPC   C2B 3707  10.964   1.982   5.255
  345POPC   C3B 3708  10.949   2.051   5.555
  345POPC   C4B 3709  11.024   1.998   5.855
  346POPC   NC3 3710   4.153   1.850   4.055
  346POPC   PO4 3711   4.109   1.852   4.355
  346POPC   GL1 3712   4.079   1.854   4.655
  346POPC   GL2 3713   4.295   1.961   4.655
  346POPC   C1A 3714   4.155   1.882   4.955
  346POPC   D2A 3715   4.080   1.882   5.255
  346POPC   C3A 3716   4.122   1.881   5.555
  346POPC   C4A 3717   4.095   1.864   5.855
  346POPC   C1B 3718   4.377   2.108   4.955
  346POPC   C2B 3719   4.407   2.086   5.255
  346POPC   C3B 3720   4.457   2.060   5.555
  346POPC   C4B 3721   4.386   2.110   5.855
  347POPC   NC3 3722   1.299   6.714   4.055
  347POPC   PO4 3723   1.313   6.708   4.355
  347POPC   GL1 3724   1.250   6.689   4.655
  347POPC   GL2 3725   1.178   6.522   4.655
  347POPC   C1A 3726   1.288   6.701   4.955
  347POPC   D2A 3727   1.289   6.761   5.255
  347POPC   C3A 3728   1.300   6.688   5.555
  347POPC   C4A 3729   1.264   6.758   5.855
  347POPC   C1B 3730   1.119   6.404   4.955
  347POPC   C2B 3731   1.110   6.374   5.255
  347POPC   C3B 3732   1.099   6.447   5.555
  347POPC   C4B 3733   1.097   6.408   5.855
  348POPC   NC3 3734   1.349   5.699   4.055
  348POPC   PO4 3735   1.338   5.670   4.355
  348POPC   GL1 3736   1.329   5.698   4.655
  348POPC   GL2 3737   1.221   5.786   4.655
  348POPC   C1A 3738   1.320   5.683   4.955
  348POPC   D2A 3739   1.310   5.671   5.255
  348POPC   C3A 3740   1.300   5.673   5.555
  348POPC   C4A 3741   1.282   5.660   5.855
  348POPC   C1B 3742   1.051   5.883   4.955
  348POPC   C2B 3743   1.043   5.975   5.255
  348POPC   C3B 3744   1.116   5.962   5.555
  348POPC   C4B 3745   1.034   5.968   5.855
  349POPC   NC3 3746   7.259   1.863   4.055
  349POPC   PO4 3747   7.253   1.807   4.355
  349POPC   GL1 3748   7.237   1.782   4.655
  349POPC   GL2 3749   7.364   1.982   4.655
  349POPC   C1A 3750   7.260   1.851   4.955
  349POPC   D2A 3751   7.191   1.800   5.255
  349POPC   C3A 3752   7.221   1.858   5.555
  349POPC   C4A 3753   7.176   1.820   5.855
  349POPC   C1B 3754   7.403   2.125   4.955
  349POPC   C2B 3755   7.488   2.121   5.255
  349POPC   C3B 3756   7.412   2.141   5.555
  349POPC   C4B 3757   7.420   2.068   5.855
  350POPC   NC3 3758  10.254   7.986   4.055
  350POPC   PO4 3759  10.252   7.959   4.355
  350POPC   GL1 3760  10.300   8.002   4.655
  350POPC   GL2 3761  10.411   8.145   4.655
  350POPC   C1A 3762  10.205   7.990   4.955
  350POPC   D2A 3763  10.244   7.990   5.255
  350POPC   C3A 3764  10.220   7.959   5.555
  350POPC   C4A 3765  10.284   7.966   5.855
  350POPC   C1B 3766  10.499   8.239   4.955
  350POPC   C2B 3767  10.518   8.221   5.255
  350POPC   C3B 3768  10.502   8.249   5.555
  350POPC   C4B 3769  10.523   8.207   5.855
  351POPC   NC3 3770   2.542   9.712   4.055
  351POPC   PO4 3771   2.583   9.734   4.355
  351POPC   GL1 3772   2.614   9.683   4.655
  351POPC   GL2 3773   2.684   9.648   4.655
  351POPC   C1A 3774   2.542   9.686   4.955
  351POPC   D2A 3775   2.561   9.713   5.255
  351POPC   C3A 3776   2.565   9.761   5.555
  351POPC   C4A 3777   2.619   9.754   5.855
  351POPC   C1B 3778   2.869   9.498   4.955
  351POPC   C2B 3779   2.934   9.503   5.255
  351POPC   C3B 3780   2.857   9.559   5.555
  351POPC   C4B 3781   2.907   9.529   5.855
  352POPC   NC3 3782   4.372  10.978   4.055
  352POPC   PO4 3783   4.330  11.026   4.355
  352POPC   GL1 3784   4.355  11.037   4.655
  352POPC   GL2 3785   4.289  11.189   4.655
  352POPC   C1A 3786   4.365  10.973   4.955
  352POPC   D2A 3787   4.406  10.966   5.255
  352POPC   C3A 3788   4.335  10.999   5.555
  352POPC   C4A 3789   4.392  11.024   5.855
  352POPC   C1B 3790   4.135  11.342   4.955
  352POPC   C2B 3791   4.167  11.273   5.255
  352POPC   C3B 3792   4.168  11.306   5.555
  352POPC   C4B 3793   4.151  11.304   5.855
  353POPC   NC3 3794   2.827   6.724   4.055
  353POPC   PO4 3795   2.770   6.738   4.355
  353POPC   GL1 3796   2.811   6.703   4.655
  353POPC   GL2 3797   2.732   6.524   4.655
  353POPC   C1A 3798   2.839   6.776   4.955
  353POPC   D2A 3799   2.813   6.721   5.255
  353POPC   C3A 3800   2.835   6.698   5.555
  353POPC   C4A 3801   2.796   6.694   5.855
  353POPC   C1B 3802   2.634   6.440   4.955
  353POPC   C2B 3803   2.642   6.392   5.255
  353POPC   C3B 3804   2.671   6.396   5.555
  353POPC   C4B 3805   2.626   6.375   5.855
  354POPC   NC3 3806   7.178   2.879   4.055
  354POPC   PO4 3807   7.173   2.801   4.355
  354POPC   GL1 3808   7.208   2.798   4.655
  354POPC   GL2 3809   7.376   2.773   4.655
  354POPC   C1A 3810   7.215   2.814   4.955
  354POPC   D2A 3811   7.225   2.878   5.255
  354POPC   C3A 3812   7.200   2.798   5.555
  354POPC   C4A 3813   7.161   2.894   5.855
  354POPC   C1B 3814   7.422   2.645   4.955
  354POPC   C2B 3815   7.438   2.572   5.255
  354POPC   C3B 3816   7.425   2.634   5.555
  354POPC   C4B 3817   7.494   2.580   5.855
  355POPC   NC3 3818   1.892   9.798   4.055
  355POPC   PO4 3819   1.883   9.783   4.355
  355POPC   GL1 3820   1.952   9.809   4.655
  355POPC   GL2 3821   1.922   9.592   4.655
  355POPC   C1A 3822   1.865   9.852   4.955
  355POPC   D2A 3823   1.892   9.837   5.255
  355POPC   C3A 3824   1.962   9.808   5.555
  355POPC   C4A 3825   1.945   9.794   5.855
  355POPC   C1B 3826   2.016   9.449   4.955
  355POPC   C2B 3827   2.053   9.492   5.255
  355POPC   C3B 3828   2.022   9.480   5.555
  355POPC   C4B 3829   2.024   9.488   5.855
  356POPC   NC3 3830   7.219   8.933   4.055
  356POPC   PO4 3831   7.145   8.921   4.355
  356POPC   GL1 3832   7.137   8.964   4.655
  356POPC   GL2 3833   7.360   8.826   4.655
  356POPC   C1A 3834   7.166   8.961   4.955
  356POPC   D2A 3835   7.172   8.952   5.255
  356POPC   C3A 3836   7.163   8.994   5.555
  356POPC   C4A 3837   7.139   8.946   5.855
  356POPC   C1B 3838   7.465   8.820   4.955
  356POPC   C2B 3839   7.477   8.812   5.255
  356POPC   C3B 3840   7.541   8.835   5.555
  356POPC   C4B 3841   7.483   8.791   5.855
  357POPC   NC3 3842   2.580   1.193   4.055
  357POPC   PO4 3843   2.601   1.237   4.355
  357POPC   GL1 3844   2.510   1.238   4.655
  357POPC   GL2 3845   2.752   1.179   4.655
  357POPC   C1A 3846   2.523   1.276   4.955
  357POPC   D2A 3847   2.534   1.209   5.255
  357POPC   C3A 3848   2.577   1.267   5.555
  357POPC   C4A 3849   2.539   1.209   5.855
  357POPC   C1B 3850   2.906   1.189   4.955
  357POPC   C2B 3851   2.900   1.123   5.255
  357POPC   C3B 3852   2.935   1.175   5.555
  357POPC   C4B 3853   2.883   1.148   5.855
  358POPC   NC3 3854   3.478   2.578   4.055
  358POPC   PO4 3855   3.485   2.520   4.355
  358POPC   GL1 3856   3.471   2.531   4.655
  358POPC   GL2 3857   3.484   2.739   4.655
  358POPC   C1A 3858   3.406   2.529   4.955
  358POPC   D2A 3859   3.443   2.586   5.255
  358POPC   C3A 3860   3.431   2.606   5.555
  358POPC   C4A 3861   3.475   2.583   5.855
  358POPC   C1B 3862   3.503   2.879   4.955
  358POPC   C2B 3863   3.512   2.947   5.255
  358POPC   C3B 3864   3.544   2.865   5.555
  358POPC   C4B 3865   3.511   2.947   5.855
  359POPC   NC3 3866   8.862  11.008   4.055
  359POPC   PO4 3867   8.895  10.983   4.355
  359POPC   GL1 3868   8.857  10.950   4.655
  359POPC   GL2 3869   8.906  11.203   4.655
  359POPC   C1A 3870   8.802  11.027   4.955
  359POPC   D2A 3871   8.892  10.941   5.255
  359POPC   C3A 3872   8.860  10.966   5.555
  359POPC   C4A 3873   8.813  10.980   5.855
  359POPC   C1B 3874   8.916  11.351   4.955
  359POPC   C2B 3875   8.874  11.379   5.255
  359POPC   C3B 3876   8.881  11.366   5.555
  359POPC   C4B 3877   8.869  11.378   5.855
  360POPC   NC3 3878   6.533   2.944   4.055
  360POPC   PO4 3879   6.509   2.894   4.355
  360POPC   GL1 3880   6.538   2.929   4.655
  360POPC   GL2 3881   6.585   2.735   4.655
  360POPC   C1A 3882   6.526   2.940   4.955
  360POPC   D2A 3883   6.576   2.946   5.255
  360POPC   C3A 3884   6.507   2.869   5.555
  360POPC   C4A 3885   6.526   2.904   5.855
  360POPC   C1B 3886   6.574   2.600   4.955
  360POPC   C2B 3887   6.575   2.552   5.255
  360POPC   C3B 3888   6.627   2.533   5.555
  360POPC   C4B 3889   6.581   2.519   5.855
  361POPC   NC3 3890   0.539   2.904   4.055
  361POPC   PO4 3891   0.559   2.841   4.355
  361POPC   GL1 3892   0.603   2.867   4.655
  361POPC   GL2 3893   0.388   2.719   4.655
  361POPC   C1A 3894   0.528   2.858   4.955
  361POPC   D2A 3895   0.578   2.814   5.255
  361POPC   C3A 3896   0.575   2.809   5.555
  361POPC   C4A 3897   0.580   2.863   5.855
  361POPC   C1B 3898   0.269   2.607   4.955
  361POPC   C2B 3899   0.265   2.592   5.255
  361POPC   C3B 3900   0.329   2.658   5.555
  361POPC   C4B 3901   0.330   2.654   5.855
  362POPC   NC3 3902  11.330   3.438   4.055
  362POPC   PO4 3903  11.361   3.417   4.355
  362POPC   GL1 3904  11.373   3.382   4.655
  362POPC   GL2 3905  11.163   3.467   4.655
  362POPC   C1A 3906  11.366   3.464   4.955
  362POPC   D2A 3907  11.314   3.396   5.255
  362POPC   C3A 3908  11.369   3.455   5.555
  362POPC   C4A 3909  11.289   3.469   5.855
  362POPC   C1B 3910  11.040   3.575   4.955
  362POPC   C2B 3911  10.982   3.525   5.255
  362POPC   C3B 3912  10.999   3.607   5.555
  362POPC   C4B 3913  10.967   3.567   5.855
  363POPC   NC3 3914   3.421  10.593   4.055
  363POPC   PO4 3915   3.452  10.595   4.355
  363POPC   GL1 3916   3.432  10.542   4.655
  363POPC   GL2 3917   3.501  10.406   4.655
  363POPC   C1A 3918   3.382  10.551   4.955
  363POPC   D2A 3919   3.392  10.595   5.255
  363POPC   C3A 3920   3.369  10.592   5.555
  363POPC   C4A 3921   3.373  10.538   5.855
  363POPC   C1B 3922   3.553  10.267   4.955
  363POPC   C2B 3923   3.607  10.289   5.255
  363POPC   C3B 3924   3.597  10.271   5.555
  363POPC   C4B 3925   3.613  10.275   5.855
  364POPC   NC3 3926   3.689   0.339   4.055
  364POPC   PO4 3927   3.665   0.370   4.355
  364POPC   GL1 3928   3.654   0.340   4.655
  364POPC   GL2 3929   3.473   0.473   4.655
  364POPC   C1A 3930   3.682   0.397   4.955
  364POPC   D2A 3931   3.656   0.314   5.255
  364POPC   C3A 3932   3.670   0.336   5.555
  364POPC   C4A 3933   3.688   0.355   5.855
  364POPC   C1B 3934   3.336   0.551   4.955
  364POPC   C2B 3935   3.329   0.487   5.255
  364POPC   C3B 3936   3.345   0.497   5.555
  364POPC   C4B 3937   3.383   0.479   5.855
  365POPC   NC3 3938   4.381   9.578   4.055
  365POPC   PO4 3939   4.395   9.592   4.355
  365POPC   GL1 3940   4.448   9.557   4.655
  365POPC   GL2 3941   4.231   9.670   4.655
  365POPC   C1A 3942   4.425   9.555   4.955
  365POPC   D2A 3943   4.411   9.500   5.255
  365POPC   C3A 3944   4.471   9.496   5.555
  365POPC   C4A 3945   4.424   9.589   5.855
  365POPC   C1B 3946   4.110   9.704   4.955
  365POPC   C2B 3947   4.138   9.734   5.255
  365POPC   C3B 3948   4.103   9.709   5.555
  365POPC   C4B 3949   4.137   9.703   5.855
  366POPC   NC3 3950  10.238  10.498   4.055
  366POPC   PO4 3951  10.211  10.506   4.355
  366POPC   GL1 3952  10.204  10.504   4.655
  366POPC   GL2 3953  10.422  10.381   4.655
  366POPC   C1A 3954  10.213  10.501   4.955
  366POPC   D2A 3955  10.263  10.527   5.255
  366POPC   C3A 3956  10.194  10.466   5.555
  366POPC   C4A 3957  10.264  10.485   5.855
  366POPC   C1B 3958  10.519  10.338   4.955
  366POPC   C2B 3959  10.576  10.290   5.255
  366POPC   C3B 3960  10.512  10.340   5.555
  366POPC   C4B 3961  10.525  10.285   5.855
  367POPC   NC3 3962   1.096   5.163   4.055
  367POPC   PO4 3963   1.126   5.163   4.355
  367POPC   GL1 3964   1.066   5.134   4.655
  367POPC   GL2 3965   1.152   5.054   4.655
  367POPC   C1A 3966   1.064   5.175   4.955
  367POPC   D2A 3967   1.120   5.146   5.255
  367POPC   C3A 3968   1.141   5.129   5.555
  367POPC   C4A 3969   1.111   5.198   5.855
  367POPC   C1B 3970   1.263   4.845   4.955
  367POPC   C2B 3971   1.291   4.916   5.255
  367POPC   C3B 3972   1.278   4.865   5.555
  367POPC   C4B 3973   1.257   4.839   5.855
  368POPC   NC3 3974   7.437   9.763   4.055
  368POPC   PO4 3975   7.494   9.743   4.355
  368POPC   GL1 3976   7.516   9.726   4.655
  368POPC   GL2 3977   7.363   9.643   4.655
  368POPC   C1A 3978   7.514   9.698   4.955
  368POPC   D2A 3979   7.515   9.781   5.255
  368POPC   C3A 3980   7.440   9.784   5.555
  368POPC   C4A 3981   7.517   9.738   5.855
  368POPC   C1B 3982   7.153   9.571   4.955
  368POPC   C2B 3983   7.207   9.482   5.255
  368POPC   C3B 3984   7.148   9.537   5.555
  368POPC   C4B 3985   7.176   9.505   5.855
  369POPC   NC3 3986   7.557   0.459   4.055
  369POPC   PO4 3987   7.534   0.467   4.355
  369POPC   GL1 3988   7.462   0.461   4.655
  369POPC   GL2 3989   7.305   0.421   4.655
  369POPC   C1A 3990   7.462   0.445   4.955
  369POPC   D2A 3991   7.478   0.435   5.255
  369POPC   C3A 3992   7.477   0.481   5.555
  369POPC   C4A 3993   7.535   0.462   5.855
  369POPC   C1B 3994   7.125   0.463   4.955
  369POPC   C2B 3995   7.114   0.456   5.255
  369POPC   C3B 3996   7.165   0.427   5.555
  369POPC   C4B 3997   7.138   0.449   5.855
  370POPC   NC3 3998   4.929   8.715   4.055
  370POPC   PO4 3999   5.019   8.708   4.355
  370POPC   GL1 4000   4.995   8.731   4.655
  370POPC   GL2 4001   4.999   8.900   4.655
  370POPC   C1A 4002   4.948   8.730   4.955
  370POPC   D2A 4003   5.018   8.655   5.255
  370POPC   C3A 4004   5.023   8.717   5.555
  370POPC   C4A 4005   4.974   8.724   5.855
  370POPC   C1B 4006   5.082   9.004   4.955
  370POPC   C2B 4007   5.083   9.042   5.255
  370POPC   C3B 4008   5.057   9.022   5.555
  370POPC   C4B 4009   5.064   8.992   5.855
  371POPC   NC3 4010   5.013   1.067   4.055
  371POPC   PO4 4011   4.996   1.024   4.355
  371POPC   GL1 4012   5.050   0.998   4.655
  371POPC   GL2 4013   5.058   1.211   4.655
  371POPC   C1A 4014   5.020   1.010   4.955
  371POPC   D2A 4015   5.024   0.981   5.255
  371POPC   C3A 4016   4.968   0.990   5.555
  371POPC   C4A 4017   4.982   1.064   5.855
  371POPC   C1B 4018   5.087   1.375   4.955
  371POPC   C2B 4019   5.008   1.371   5.255
  371POPC   C3B 4020   5.058   1.412   5.555
  371POPC   C4B 4021   5.085   1.375   5.855
  372POPC   NC3 4022   4.138   7.427   4.055
  372POPC   PO4 4023   4.148   7.401   4.355
  372POPC   GL1 4024   4.069   7.405   4.655
  372POPC   GL2 4025   4.258   7.353   4.655
  372POPC   C1A 4026   4.111   7.390   4.955
  372POPC   D2A 4027   4.072   7.414   5.255
  372POPC   C3A 4028   4.104   7.410   5.555
  372POPC   C4A 4029   4.066   7.457   5.855
  372POPC   C1B 4030   4.452   7.219   4.955
  372POPC   C2B 4031   4.378   7.221   5.255
  372POPC   C3B 4032   4.382   7.280   5.555
  372POPC   C4B 4033   4.398   7.197   5.855
  373POPC   NC3 4034   0.564   0.271   4.055
  373POPC   PO4 4035   0.538   0.233   4.355
  373POPC   GL1 4036   0.505   0.276   4.655
  373POPC   GL2 4037   0.457   0.440   4.655
  373POPC   C1A 4038   0.537   0.299   4.955
  373POPC   D2A 4039   0.517   0.326   5.255
  373POPC   C3A 4040   0.505   0.254   5.555
  373POPC   C4A 4041   0.554   0.329   5.855
  373POPC   C1B 4042   0.376   0.544   4.955
  373POPC   C2B 4043   0.350   0.600   5.255
  373POPC   C3B 4044   0.352   0.573   5.555
  373POPC   C4B 4045   0.372   0.570   5.855
  374POPC   NC3 4046  10.263   2.095   4.055
  374POPC   PO4 4047  10.234   2.084   4.355
  374POPC   GL1 4048  10.287   2.076   4.655
  374POPC   GL2 4049  10.430   1.984   4.655
  374POPC   C1A 4050  10.275   2.068   4.955
  374POPC   D2A 4051  10.321   2.100   5.255
  374POPC   C3A 4052  10.275   2.065   5.555
  374POPC   C4A 4053  10.289   2.079   5.855
  374POPC   C1B 4054  10.501   1.860   4.955
  374POPC   C2B 4055  10.555   1.887   5.255
  374POPC   C3B 4056  10.542   1.837   5.555
  374POPC   C4B 4057  10.492   1.863   5.855
  375POPC   NC3 4058   1.372   2.002   4.055
  375POPC   PO4 4059   1.374   2.074   4.355
  375POPC   GL1 4060   1.342   2.007   4.655
  375POPC   GL2 4061   1.167   1.956   4.655
  375POPC   C1A 4062   1.320   2.065   4.955
  375POPC   D2A 4063   1.393   2.082   5.255
  375POPC   C3A 4064   1.389   2.087   5.555
  375POPC   C4A 4065   1.346   2.060   5.855
  375POPC   C1B 4066   1.015   1.908   4.955
  375POPC   C2B 4067   1.066   1.852   5.255
  375POPC   C3B 4068   0.996   1.930   5.555
  375POPC   C4B 4069   1.061   1.889   5.855
  376POPC   NC3 4070   0.560  10.463   4.055
  376POPC   PO4 4071   0.595  10.446   4.355
  376POPC   GL1 4072   0.569  10.453   4.655
  376POPC   GL2 4073   0.442  10.433   4.655
  376POPC   C1A 4074   0.644  10.509   4.955
  376POPC   D2A 4075   0.566  10.424   5.255
  376POPC   C3A 4076   0.564  10.432   5.555
  376POPC   C4A 4077   0.562  10.439   5.855
  376POPC   C1B 4078   0.262  10.296   4.955
  376POPC   C2B 4079   0.291  10.379   5.255
  376POPC   C3B 4080   0.219  10.383   5.555
  376POPC   C4B 4081   0.236  10.362   5.855
  377POPC   NC3 4082   2.642   2.597   4.055
  377POPC   PO4 4083   2.554   2.630   4.355
  377POPC   GL1 4084   2.626   2.584   4.655
  377POPC   GL2 4085   2.772   2.741   4.655
  377POPC   C1A 4086   2.581   2.601   4.955
  377POPC   D2A 4087   2.589   2.584   5.255
  377POPC   C3A 4088   2.599   2.576   5.555
  377POPC   C4A 4089   2.613   2.586   5.855
  377POPC   C1B 4090   2.847   2.874   4.955
  377POPC   C2B 4091   2.907   2.811   5.255
  377POPC   C3B 4092   2.817   2.813   5.555
  377POPC   C4B 4093   2.847   2.867   5.855
  378POPC   NC3 4094   1.121  11.274   4.055
  378POPC   PO4 4095   1.068  11.322   4.355
  378POPC   GL1 4096   1.074  11.313   4.655
  378POPC   GL2 4097   1.169  11.130   4.655
  378POPC   C1A 4098   1.071  11.327   4.955
  378POPC   D2A 4099   1.102  11.276   5.255
  378POPC   C3A 4100   1.030  11.320   5.555
  378POPC   C4A 4101   1.060  11.273   5.855
  378POPC   C1B 4102   1.328  11.054   4.955
  378POPC   C2B 4103   1.317  11.083   5.255
  378POPC   C3B 4104   1.281  11.046   5.555
  378POPC   C4B 4105   1.336  11.020   5.855
  379POPC   NC3 4106   9.724   7.943   4.055
  379POPC   PO4 4107   9.686   7.940   4.355
  379POPC   GL1 4108   9.752   7.897   4.655
  379POPC   GL2 4109   9.678   8.143   4.655
  379POPC   C1A 4110   9.733   7.976   4.955
  379POPC   D2A 4111   9.707   7.931   5.255
  379POPC   C3A 4112   9.727   7.923   5.555
  379POPC   C4A 4113   9.721   7.931   5.855
  379POPC   C1B 4114   9.497   8.212   4.955
  379POPC   C2B 4115   9.585   8.249   5.255
  379POPC   C3B 4116   9.527   8.296   5.555
  379POPC   C4B 4117   9.501   8.283   5.855
  380POPC   NC3 4118   6.527  11.020   4.055
  380POPC   PO4 4119   6.536  11.017   4.355
  380POPC   GL1 4120   6.574  10.947   4.655
  380POPC   GL2 4121   6.564  11.196   4.655
  380POPC   C1A 4122   6.546  10.990   4.955
  380POPC   D2A 4123   6.589  11.001   5.255
  380POPC   C3A 4124   6.547  10.990   5.555
  380POPC   C4A 4125   6.588  10.948   5.855
  380POPC   C1B 4126   6.534  11.345   4.955
  380POPC   C2B 4127   6.556  11.333   5.255
  380POPC   C3B 4128   6.516  11.378   5.555
  380POPC   C4B 4129   6.575  11.373   5.855
  381POPC   NC3 4130  11.047   6.461   4.055
  381POPC   PO4 4131  10.980   6.448   4.355
  381POPC   GL1 4132  10.961   6.488   4.655
  381POPC   GL2 4133  11.208   6.583   4.655
  381POPC   C1A 4134  11.055   6.482   4.955
  381POPC   D2A 4135  11.023   6.466   5.255
  381POPC   C3A 4136  11.003   6.488   5.555
  381POPC   C4A 4137  10.973   6.453   5.855
  381POPC   C1B 4138  11.324   6.617   4.955
  381POPC   C2B 4139  11.307   6.649   5.255
  381POPC   C3B 4140  11.347   6.665   5.555
  381POPC   C4B 4141  11.316   6.664   5.855
  382POPC   NC3 4142  11.017   1.091   4.055
  382POPC   PO4 4143  10.973   1.129   4.355
  382POPC   GL1 4144  10.982   1.088   4.655
  382POPC   GL2 4145  11.211   1.243   4.655
  382POPC   C1A 4146  11.015   1.080   4.955
  382POPC   D2A 4147  11.048   1.115   5.255
  382POPC   C3A 4148  11.066   1.140   5.555
  382POPC   C4A 4149  10.998   1.067   5.855
  382POPC   C1B 4150  11.341   1.267   4.955
  382POPC   C2B 4151  11.307   1.275   5.255
  382POPC   C3B 4152  11.342   1.310   5.555
  382POPC   C4B 4153  11.285   1.306   5.855
  383POPC   NC3 4154  10.301   4.882   4.055
  383POPC   PO4 4155  10.316   4.835   4.355
  383POPC   GL1 4156  10.324   4.846   4.655
  383POPC   GL2 4157  10.438   4.987   4.655
  383POPC   C1A 4158  10.314   4.837   4.955
  383POPC   D2A 4159  10.301   4.871   5.255
  383POPC   C3A 4160  10.340   4.830   5.555
  383POPC   C4A 4161  10.396   4.841   5.855
  383POPC   C1B 4162  10.494   5.239   4.955
  383POPC   C2B 4163  10.467   5.249   5.255
  383POPC   C3B 4164  10.408   5.252   5.555
  383POPC   C4B 4165  10.445   5.220   5.855
  384POPC   NC3 4166   9.489   1.312   4.055
  384POPC   PO4 4167   9.557   1.380   4.355
  384POPC   GL1 4168   9.553   1.359   4.655
  384POPC   GL2 4169   9.584   1.153   4.655
  384POPC   C1A 4170   9.505   1.382   4.955
  384POPC   D2A 4171   9.567   1.321   5.255
  384POPC   C3A 4172   9.556   1.340   5.555
  384POPC   C4A 4173   9.578   1.315   5.855
  384POPC   C1B 4174   9.753   1.070   4.955
  384POPC   C2B 4175   9.780   1.091   5.255
  384POPC   C3B 4176   9.783   1.047   5.555
  384POPC   C4B 4177   9.694   1.050   5.855
  385POPC   NC3 4178   9.853  10.441   4.055
  385POPC   PO4 4179   9.768  10.378   4.355
  385POPC   GL1 4180   9.771  10.410   4.655
  385POPC   GL2 4181   9.678  10.397   4.655
  385POPC   C1A 4182   9.841  10.395   4.955
  385POPC   D2A 4183   9.812  10.384   5.255
  385POPC   C3A 4184   9.789  10.399   5.555
  385POPC   C4A 4185   9.798  10.448   5.855
  385POPC   C1B 4186   9.491  10.396   4.955
  385POPC   C2B 4187   9.452  10.418   5.255
  385POPC   C3B 4188   9.430  10.438   5.555
  385POPC   C4B 4189   9.470  10.392   5.855
  386POPC   NC3 4190   6.524   1.405   4.055
  386POPC   PO4 4191   6.551   1.339   4.355
  386POPC   GL1 4192   6.538   1.360   4.655
  386POPC   GL2 4193   6.585   1.178   4.655
  386POPC   C1A 4194   6.518   1.346   4.955
  386POPC   D2A 4195   6.588   1.330   5.255
  386POPC   C3A 4196   6.556   1.371   5.555
  386POPC   C4A 4197   6.563   1.378   5.855
  386POPC   C1B 4198   6.530   0.991   4.955
  386POPC   C2B 4199   6.529   1.007   5.255
  386POPC   C3B 4200   6.574   1.039   5.555
  386POPC   C4B 4201   6.543   1.045   5.855
  387POPC   NC3 4202  11.253   0.559   4.055
  387POPC   PO4 4203  11.253   0.624   4.355
  387POPC   GL1 4204  11.282   0.598   4.655
  387POPC   GL2 4205  11.134   0.479   4.655
  387POPC   C1A 4206  11.297   0.597   4.955
  387POPC   D2A 4207  11.222   0.540   5.255
  387POPC   C3A 4208  11.262   0.595   5.555
  387POPC   C4A 4209  11.315   0.620   5.855
  387POPC   C1B 4210  11.014   0.338   4.955
  387POPC   C2B 4211  11.080   0.290   5.255
  387POPC   C3B 4212  11.090   0.318   5.555
  387POPC   C4B 4213  11.028   0.282   5.855
  388POPC   NC3 4214   0.415   9.499   4.055
  388POPC   PO4 4215   0.412   9.504   4.355
  388POPC   GL1 4216   0.419   9.427   4.655
  388POPC   GL2 4217   0.446   9.675   4.655
  388POPC   C1A 4218   0.382   9.413   4.955
  388POPC   D2A 4219   0.358   9.462   5.255
  388POPC   C3A 4220   0.391   9.463   5.555
  388POPC   C4A 4221   0.378   9.480   5.855
  388POPC   C1B 4222   0.474   9.832   4.955
  388POPC   C2B 4223   0.443   9.783   5.255
  388POPC   C3B 4224   0.505   9.772   5.555
  388POPC   C4B 4225   0.475   9.817   5.855
  389POPC   NC3 4226  10.620   5.789   4.055
  389POPC   PO4 4227  10.537   5.723   4.355
  389POPC   GL1 4228  10.547   5.729   4.655
  389POPC   GL2 4229  10.431   5.827   4.655
  389POPC   C1A 4230  10.590   5.818   4.955
  389POPC   D2A 4231  10.590   5.815   5.255
  389POPC   C3A 4232  10.609   5.779   5.555
  389POPC   C4A 4233  10.529   5.804   5.855
  389POPC   C1B 4234  10.223   5.874   4.955
  389POPC   C2B 4235  10.265   5.837   5.255
  389POPC   C3B 4236  10.274   5.850   5.555
  389POPC   C4B 4237  10.271   5.827   5.855
  390POPC   NC3 4238  10.237  11.217   4.055
  390POPC   PO4 4239  10.211  11.262   4.355
  390POPC   GL1 4240  10.233  11.246   4.655
  390POPC   GL2 4241  10.415  11.215   4.655
  390POPC   C1A 4242  10.231  11.308   4.955
  390POPC   D2A 4243  10.239  11.248   5.255
  390POPC   C3A 4244  10.201  11.279   5.555
  390POPC   C4A 4245  10.248  11.310   5.855
  390POPC   C1B 4246  10.524  11.059   4.955
  390POPC   C2B 4247  10.506  11.104   5.255
  390POPC   C3B 4248  10.599  11.087   5.555
  390POPC   C4B 4249  10.504  11.115   5.855
  391POPC   NC3 4250   0.216   4.250   4.055
  391POPC   PO4 4251   0.277   4.266   4.355
  391POPC   GL1 4252   0.221   4.194   4.655
  391POPC   GL2 4253   0.420   4.245   4.655
  391POPC   C1A 4254   0.240   4.215   4.955
  391POPC   D2A 4255   0.256   4.284   5.255
  391POPC   C3A 4256   0.212   4.258   5.555
  391POPC   C4A 4257   0.248   4.293   5.855
  391POPC   C1B 4258   0.642   4.282   4.955
  391POPC   C2B 4259   0.627   4.334   5.255
  391POPC   C3B 4260   0.612   4.290   5.555
  391POPC   C4B 4261   0.626   4.240   5.855
  392POPC   NC3 4262   9.783   4.412   4.055
  392POPC   PO4 4263   9.729   4.365   4.355
  392POPC   GL1 4264   9.803   4.397   4.655
  392POPC   GL2 4265   9.682   4.236   4.655
  392POPC   C1A 4266   9.723   4.405   4.955
  392POPC   D2A 4267   9.806   4.355   5.255
  392POPC   C3A 4268   9.774   4.354   5.555
  392POPC   C4A 4269   9.753   4.376   5.855
  392POPC   C1B 4270   9.502   4.148   4.955
  392POPC   C2B 4271   9.487   4.143   5.255
  392POPC   C3B 4272   9.557   4.140   5.555
  392POPC   C4B 4273   9.522   4.098   5.855
  393POPC   NC3 4274   6.765  10.451   4.055
  393POPC   PO4 4275   6.758  10.420   4.355
  393POPC   GL1 4276   6.686  10.441   4.655
  393POPC   GL2 4277   6.527  10.380   4.655
  393POPC   C1A 4278   6.775  10.473   4.955
  393POPC   D2A 4279   6.699  10.452   5.255
  393POPC   C3A 4280   6.781  10.499   5.555
  393POPC   C4A 4281   6.718  10.440   5.855
  393POPC   C1B 4282   6.427  10.293   4.955
  393POPC   C2B 4283   6.397  10.375   5.255
  393POPC   C3B 4284   6.349  10.372   5.555
  393POPC   C4B 4285   6.403  10.348   5.855
  394POPC   NC3 4286   7.932   0.355   4.055
  394POPC   PO4 4287   7.957   0.339   4.355
  394POPC   GL1 4288   8.012   0.335   4.655
  394POPC   GL2 4289   8.084   0.402   4.655
  394POPC   C1A 4290   7.970   0.341   4.955
  394POPC   D2A 4291   7.988   0.264   5.255
  394POPC   C3A 4292   7.930   0.314   5.555
  394POPC   C4A 4293   8.022   0.325   5.855
  394POPC   C1B 4294   8.270   0.551   4.955
  394POPC   C2B 4295   8.197   0.511   5.255
  394POPC   C3B 4296   8.247   0.528   5.555
  394POPC   C4B 4297   8.205   0.591   5.855
  395POPC   NC3 4298   8.248   1.232   4.055
  395POPC   PO4 4299   8.296   1.206   4.355
  395POPC   GL1 4300   8.317   1.167   4.655
  395POPC   GL2 4301   8.124   1.238   4.655
  395POPC   C1A 4302   8.297   1.220   4.955
  395POPC   D2A 4303   8.276   1.184   5.255
  395POPC   C3A 4304   8.276   1.177   5.555
  395POPC   C4A 4305   8.268   1.224   5.855
  395POPC   C1B 4306   7.892   1.200   4.955
  395POPC   C2B 4307   7.960   1.162   5.255
  395POPC   C3B 4308   7.934   1.174   5.555
  395POPC   C4B 4309   7.944   1.152   5.855
  396POPC   NC3 4310   8.862   3.322   4.055
  396POPC   PO4 4311   8.920   3.295   4.355
  396POPC   GL1 4312   8.952   3.286   4.655
  396POPC   GL2 4313   8.844   3.492   4.655
  396POPC   C1A 4314   8.871   3.288   4.955
  396POPC   D2A 4315   8.945   3.313   5.255
  396POPC   C3A 4316   8.856   3.286   5.555
  396POPC   C4A 4317   8.952   3.343   5.855
  396POPC   C1B 4318   8.858   3.701   4.955
  396POPC   C2B 4319   8.877   3.632   5.255
  396POPC   C3B 4320   8.787   3.715   5.555
  396POPC   C4B 4321   8.867   3.699   5.855
  397POPC   NC3 4322   7.134  10.390   4.055
  397POPC   PO4 4323   7.198  10.396   4.355
  397POPC   GL1 4324   7.131  10.363   4.655
  397POPC   GL2 4325   7.340  10.429   4.655
  397POPC   C1A 4326   7.139  10.338   4.955
  397POPC   D2A 4327   7.118  10.327   5.255
  397POPC   C3A 4328   7.151  10.323   5.555
  397POPC   C4A 4329   7.186  10.334   5.855
  397POPC   C1B 4330   7.514  10.447   4.955
  397POPC   C2B 4331   7.540  10.414   5.255
  397POPC   C3B 4332   7.473  10.423   5.555
  397POPC   C4B 4333   7.503  10.421   5.855
  398POPC   NC3 4334   1.037   2.668   4.055
  398POPC   PO4 4335   1.030   2.719   4.355
  398POPC   GL1 4336   1.068   2.649   4.655
  398POPC   GL2 4337   1.181   2.730   4.655
  398POPC   C1A 4338   0.986   2.676   4.955
  398POPC   D2A 4339   1.055   2.635   5.255
  398POPC   C3A 4340   1.052   2.681   5.555
  398POPC   C4A 4341   1.000   2.715   5.855
  398POPC   C1B 4342   1.361   2.796   4.955
  398POPC   C2B 4343   1.366   2.788   5.255
  398POPC   C3B 4344   1.370   2.764   5.555
  398POPC   C4B 4345   1.389   2.765   5.855
  399POPC   NC3 4346   9.596   2.127   4.055
  399POPC   PO4 4347   9.627   2.171   4.355
  399POPC   GL1 4348   9.601   2.160   4.655
  399POPC   GL2 4349   9.626   1.962   4.655
  399POPC   C1A 4350   9.653   2.124   4.955
  399POPC   D2A 4351   9.606   2.131   5.255
  399POPC   C3A 4352   9.576   2.111   5.555
  399POPC   C4A 4353   9.583   2.166   5.855
  399POPC   C1B 4354   9.603   1.836   4.955
  399POPC   C2B 4355   9.614   1.784   5.255
  399POPC   C3B 4356   9.619   1.758   5.555
  399POPC   C4B 4357   9.626   1.825   5.855
  400POPC   NC3 4358   3.535   5.234   4.055
  400POPC   PO4 4359   3.539   5.171   4.355
  400POPC   GL1 4360   3.543   5.216   4.655
  400POPC   GL2 4361   3.460   5.038   4.655
  400POPC   C1A 4362   3.531   5.158   4.955
  400POPC   D2A 4363   3.589   5.257   5.255
  400POPC   C3A 4364   3.514   5.218   5.555
  400POPC   C4A 4365   3.584   5.190   5.855
  400POPC   C1B 4366   3.426   4.888   4.955
  400POPC   C2B 4367   3.453   4.819   5.255
  400POPC   C3B 4368   3.509   4.874   5.555
  400POPC   C4B 4369   3.484   4.904   5.855
  401W        W 4370  11.452  10.964   8.462
  402W        W 4371   8.494   4.217   3.223
  403W        W 4372   5.616   3.721   8.153
  404W        W 4373   6.521   7.014  11.842
  405W        W 4374   7.569   8.554   9.889
  406W        W 4375   2.350   9.876   8.465
  407W        W 4376   6.173   3.745   8.533
  408W        W 4377   0.725   5.044   2.219
  409W        W 4378   3.790   0.851   3.122
  410W        W 4379   9.529   0.850  11.368
  411W        W 4380   7.589   6.201   8.014
  412W        W 4381   8.466   5.749   8.546
  413W        W 4382  10.908   8.895   9.107
  414W        W 4383   9.919   9.520   8.963
  415W        W 4384  10.447   6.492   2.801
  416W        W 4385   7.970  10.899   2.231
  417W        W 4386  10.441   6.553  10.923
  418W        W 4387   7.650   1.436   0.337
  419W        W 4388   5.207   6.597   0.795
  420W        W 4389   0.743   4.244  11.950
  421W        W 4390  11.296   8.060  10.965
  422W        W 4391   7.967   2.302   2.757
  423W        W 4392   4.274  10.890  11.512
  424W        W 4393   3.283   7.657  10.040
  425W        W 4394   1.363   0.907   1.773
  426W        W 4395   9.840   6.523   9.849
  427W        W 4396   7.124   7.931   0.835
  428W        W 4397  10.886   5.565  10.360
  429W        W 4398   6.500   0.927   1.716
  430W        W 4399   3.151   7.025   1.690
  431W        W 4400   5.672   3.688   9.530
  432W        W 4401   1.801   9.376  11.810
  433W        W 4402   4.767   2.793   0.474
  434W        W 4403   9.995  11.289   3.162
  435W        W 4404   8.548   3.291   2.176
  436W        W 4405   1.239   7.591   9.903
  437W        W 4406   0.258   8.552  11.447
  438W        W 4407   0.906   7.051   8.478
  439W        W 4408   2.378   9.843   0.410
  440W        W 4409   6.226   3.739   8.937
  441W        W 4410   7.438   9.461   8.891
  442W        W 4411  10.360   5.089  11.996
  443W        W 4412   6.069   8.439  10.329
  444W        W 4413   1.229   1.211  10.009
  445W        W 4414   6.547   3.162  11.847
  446W        W 4415   2.274  10.866   1.434
  447W        W 4416   1.876   5.699   2.316
  448W        W 4417   9.455   8.865   2.797
  449W        W 4418   4.572  10.834   2.703
  450W        W 4419   5.126   5.600   1.767
  451W        W 4420   8.472   7.185   3.178
  452W        W 4421   7.452   6.529   9.485
  453W        W 4422   5.624   2.713   1.410
  454W        W 4423  11.365  10.383   2.756
  455W        W 4424   7.490   9.484   3.316
  456W        W 4425   5.641   6.599  10.540
  457W        W 4426   1.234  10.048   0.275
  458W        W 4427   9.940   4.656   0.891
  459W        W 4428   7.581   5.183   9.927
  460W        W 4429   2.332   3.750   2.246
  461W        W 4430   1.397   8.116   2.836
  462W        W 4431   3.660   3.633   1.268
  463W        W 4432   9.386   2.213   2.286
  464W        W 4433   5.269   3.199   1.306
  465W        W 4434   5.602   0.258  10.882
  466W        W 4435   5.522   6.073   9.884
  467W        W 4436   4.738   1.317   2.788
  468W        W 4437   9.581   4.720  11.969
  469W        W 4438   5.254  10.421  10.460
  470W        W 4439   8.497  10.047   2.745
  471W        W 4440  11.466   2.752   8.961
  472W        W 4441   2.827   6.225   1.858
  473W        W 4442   2.812   7.911   9.537
  474W        W 4443   2.741   1.853  11.896
  475W        W 4444   0.803   9.484   2.741
  476W        W 4445   5.539   4.706   4.082
  477W        W 4446   2.794   8.521   3.128
  478W        W 4447   1.765   7.906   3.601
  479W        W 4448   5.115   3.626   1.906
  480W        W 4449   6.961   7.576   1.360
  481W        W 4450   3.206   7.483   2.265
  482W        W 4451   3.613   0.439  10.511
  483W        W 4452  11.432   2.748  10.888
  484W        W 4453   5.548  11.012  10.449
  485W        W 4454   1.312   9.044   0.874
  486W        W 4455   8.457  10.419  11.778
  487W        W 4456   5.067   2.341   7.995
  488W        W 4457   3.166   6.531   1.384
  489W        W 4458   0.288   6.470  11.380
  490W        W 4459   3.244   4.607  11.019
  491W        W 4460  10.409   4.168   1.212
  492W        W 4461   3.608   5.577  11.515
  493W        W 4462   6.004  10.327  10.953
  494W        W 4463   7.644   5.132  11.891
  495W        W 4464   2.756   8.909   3.344
  496W        W 4465   6.534   9.851   3.739
  497W        W 4466   3.146   3.342   0.244
  498W        W 4467   8.143   8.917  11.297
  499W        W 4468   2.365   2.163   9.023
  500W        W 4469   9.101   5.529  11.413
  501W        W 4470   5.078   2.664  10.830
  502W        W 4471   9.865   6.560   2.804
  503W        W 4472   6.994   4.621  10.849
  504W        W 4473   4.095   7.181   0.861
  505W        W 4474  11.332   6.026  10.523
  506W        W 4475   1.322   6.516   0.322
  507W        W 4476   9.100   8.889   0.369
  508W        W 4477   6.625   4.250   9.047
  509W        W 4478   2.165   9.496  11.900
  510W        W 4479  11.009   7.634   1.386
  511W        W 4480  10.043  10.888  10.400
  512W        W 4481   3.811   0.385  10.858
  513W        W 4482   7.092   7.601   0.286
  514W        W 4483   7.942   0.839   2.788
  515W        W 4484   6.980   0.359  11.343
  516W        W 4485   8.419   2.307  11.991
  517W        W 4486   4.212   5.592   0.333
  518W        W 4487   4.190   3.825   1.233
  519W        W 4488   5.680   1.878   9.390
  520W        W 4489   8.576   7.113   1.719
  521W        W 4490   7.583   1.755   3.202
  522W        W 4491  10.040  10.852   1.304
  523W        W 4492   8.144   4.135   1.250
  524W        W 4493   5.552   9.430   9.392
  525W        W 4494   1.264   6.495   1.271
  526W        W 4495   9.370   7.972   2.743
  527W        W 4496   7.136  11.308   2.778
  528W        W 4497   5.679   4.116   2.209
  529W        W 4498   2.305   2.841   8.944
  530W        W 4499   0.934  10.930   9.842
  531W        W 4500   2.868   7.642   1.881
  532W        W 4501   4.173  10.940   3.194
  533W        W 4502   4.563   0.749  11.901
  534W        W 4503   7.614   3.637  10.373
  535W        W 4504  10.966   8.867   1.414
  536W        W 4505  10.396   0.759   1.242
  537W        W 4506   3.296   8.137   9.955
  538W        W 4507   3.343   1.748   2.718
  539W        W 4508   9.535   7.485  10.944
  540W        W 4509   2.736  10.962   2.341
  541W        W 4510   8.023   9.395  11.765
  542W        W 4511   9.535   2.725   0.250
  543W        W 4512   7.164   1.870   0.323
  544W        W 4513   4.198   8.938   8.989
  545W        W 4514   0.795   1.397  11.977
  546W        W 4515   6.977   8.936   3.162
  547W        W 4516   3.317   5.644   9.397
  548W        W 4517   9.922   7.101   0.438
  549W        W 4518   5.637   8.530   9.840
  550W        W 4519   0.730   0.867   0.356
  551W        W 4520   1.239   9.460   0.259
  552W        W 4521   7.012   4.124   0.801
  553W        W 4522   2.725  10.799   1.850
  554W        W 4523   4.290  11.008  11.942
  555W        W 4524   8.988  10.041  10.967
  556W        W 4525   3.322   6.510   8.913
  557W        W 4526   6.127   5.603  11.359
  558W        W 4527   6.088   6.120   9.882
  559W        W 4528   2.322   4.778   3.259
  560W        W 4529   9.423   0.891   9.364
  561W        W 4530  10.896   0.832  11.281
  562W        W 4531   4.680   0.419  10.997
  563W        W 4532   2.200   7.573   8.009
  564W        W 4533   2.722   4.760   7.952
  565W        W 4534   8.060   9.404   9.438
  566W        W 4535   3.688   2.814   8.987
  567W        W 4536   4.659   7.071  11.931
  568W        W 4537   3.824   8.993   8.500
  569W        W 4538   0.953   8.458   1.709
  570W        W 4539   9.364   6.532  10.433
  571W        W 4540   3.211   7.176   9.573
  572W        W 4541   5.215  10.885   9.880
  573W        W 4542   7.110   1.878  10.887
  574W        W 4543   5.159   2.171   3.176
  575W        W 4544   2.365   7.094   9.926
  576W        W 4545   2.851   1.804   3.672
  577W        W 4546   8.005   6.151   3.304
  578W        W 4547  11.352   3.148   2.704
  579W        W 4548   6.103   6.553   0.281
  580W        W 4549   4.261  11.341   2.201
  581W        W 4550   0.878   2.838   1.352
  582W        W 4551   5.598   2.782   3.300
  583W        W 4552   4.742   4.116   0.940
  584W        W 4553   9.935   3.295  10.549
  585W        W 4554   5.187  10.046   2.196
  586W        W 4555   6.111  10.917   9.976
  587W        W 4556   1.364   3.270   1.332
  588W        W 4557   7.005   0.722   9.471
  589W        W 4558   0.952   6.648   1.200
  590W        W 4559  10.011   8.470   0.414
  591W        W 4560   1.711   4.146   9.588
  592W        W 4561   4.716   5.118  11.463
  593W        W 4562  10.318  10.052   2.258
  594W        W 4563  11.327   4.786  11.776
  595W        W 4564   7.972   5.615   8.157
  596W        W 4565  10.951   9.473   1.792
  597W        W 4566   1.359   2.648   2.843
  598W        W 4567   7.454   6.539   8.558
  599W        W 4568  11.493   4.764   0.384
  600W        W 4569   2.840   8.505   0.424
  601W        W 4570   2.819   4.622   1.867
  602W        W 4571   4.680  10.312   0.819
  603W        W 4572   3.722   1.830   2.280
  604W        W 4573   7.555   2.354   2.733
  605W        W 4574   2.308   6.990  10.864
  606W        W 4575   6.202   9.510   9.588
  607W        W 4576   6.182   5.204  10.933
  608W        W 4577   3.316   8.464   9.921
  609W        W 4578   7.997   4.668   3.751
  610W        W 4579   9.103   8.525  11.475
  611W        W 4580   3.206   7.986   0.268
  612W        W 4581   7.487   2.795   1.778
  613W        W 4582   6.630   0.779   9.599
  614W        W 4583   9.931   7.553   1.258
  615W        W 4584   8.620   6.111   3.222
  616W        W 4585   0.780   5.729   9.482
  617W        W 4586   1.875  10.925  10.335
  618W        W 4587   5.091  11.396  10.518
  619W        W 4588   8.551   6.653   2.204
  620W        W 4589   1.421   7.569  10.975
  621W        W 4590   0.371   1.686   0.826
  622W        W 4591   5.569   2.860  11.021
  623W        W 4592   5.270   2.252   3.707
  624W        W 4593   6.695   8.573  11.315
  625W        W 4594   3.651   0.882   1.238
  626W        W 4595   7.617   1.290   0.833
  627W        W 4596   7.481   6.088   0.283
  628W        W 4597   0.803   8.488   8.509
  629W        W 4598  11.300   5.263   3.306
  630W        W 4599   9.001   6.130   8.051
  631W        W 4600   3.820  11.007  10.895
  632W        W 4601   0.828   8.130   1.753
  633W        W 4602  10.438   9.853   1.349
  634W        W 4603   5.717   7.013   1.708
  635W        W 4604   7.473   9.950  11.971
  636W        W 4605   2.870   7.625   0.262
  637W        W 4606  10.031   6.581   2.276
  638W        W 4607  10.837   6.492   9.549
  639W        W 4608  10.052   3.327   1.408
  640W        W 4609   1.758  11.369  11.932
  641W        W 4610   7.458   1.794   2.349
  642W        W 4611   9.462   7.159  10.936
  643W        W 4612   0.345   1.202   0.773
  644W        W 4613   5.654   7.969   2.682
  645W        W 4614   6.028  11.305   2.713
  646W        W 4615   1.216   6.693   0.758
  647W        W 4616  10.897  11.403   1.250
  648W        W 4617   4.772   6.974   9.876
  649W        W 4618  11.304   2.701   3.187
  650W        W 4619   5.697   4.103   8.510
  651W        W 4620   2.248   9.080   2.755
  652W        W 4621   2.303   8.091  11.991
  653W        W 4622   8.939  10.376  10.835
  654W        W 4623   0.799   1.690  11.952
  655W        W 4624   1.296   8.589   1.771
  656W        W 4625   6.688   7.018   3.321
  657W        W 4626   4.674   1.816   1.317
  658W        W 4627   9.857   9.912  10.412
  659W        W 4628   9.455   6.629   9.003
  660W        W 4629   0.904   5.602   0.355
  661W        W 4630   5.633  10.339   9.599
  662W        W 4631   8.042   0.371  11.474
  663W        W 4632   9.445   2.226   3.303
  664W        W 4633   6.176   5.662   2.318
  665W        W 4634   1.828   2.219   9.424
  666W        W 4635   9.516   3.181   3.246
  667W        W 4636   4.245   2.640  10.989
  668W        W 4637   5.677   8.532   9.471
  669W        W 4638  10.975   6.506  11.850
  670W        W 4639   8.127  10.971   0.899
  671W        W 4640   1.213   9.054  11.472
  672W        W 4641   2.302   1.697   2.658
  673W        W 4642   2.758   0.271   2.806
  674W        W 4643   3.219   3.732  11.937
  675W        W 4644   4.734   6.029   3.762
  676W        W 4645   9.570   4.290   9.967
  677W        W 4646   4.295   8.124  10.390
  678W        W 4647   0.732   9.006   1.324
  679W        W 4648   7.518   3.171   9.587
  680W        W 4649   5.149   9.438   9.404
  681W        W 4650   3.125   6.003  11.963
  682W        W 4651   0.303   8.512   1.864
  683W        W 4652   4.155   7.022   8.986
  684W        W 4653   9.843   1.899   1.690
  685W        W 4654   0.759   3.722   2.823
  686W        W 4655   2.828   9.428   9.875
  687W        W 4656   7.639   4.789  10.357
  688W        W 4657   4.678   6.487   1.257
  689W        W 4658   7.577   1.771  11.773
  690W        W 4659   9.376   3.261  11.420
  691W        W 4660   8.487   9.849   0.411
  692W        W 4661  10.535   9.491  10.013
  693W        W 4662   2.224   2.169   9.973
  694W        W 4663  11.005   9.438   8.918
  695W        W 4664   6.985  10.026   3.281
  696W        W 4665   3.712   4.786   3.720
  697W        W 4666   5.687   9.408   1.696
  698W        W 4667   5.575   2.394   9.399
  699W        W 4668   8.479  11.304   2.312
  700W        W 4669   6.063   6.995  10.495
  701W        W 4670   2.391   7.562  11.945
  702W        W 4671   1.356   2.854   1.854
  703W        W 4672   0.435   2.162   1.375
  704W        W 4673   4.167   6.229   8.420
  705W        W 4674   6.702   7.101  11.354
  706W        W 4675   0.379   5.589   1.316
  707W        W 4676   0.436   4.156   3.162
  708W        W 4677   3.809  10.443   0.308
  709W        W 4678   9.062   4.234   0.253
  710W        W 4679   1.363   1.317   2.792
  711W        W 4680   2.367   9.508   9.944
  712W        W 4681   7.983   9.366   0.914
  713W        W 4682  11.285   5.556  11.786
  714W        W 4683   5.640   8.462   1.269
  715W        W 4684   6.976  10.315   1.356
  716W        W 4685   2.739   9.475  11.461
  717W        W 4686   6.012   7.071   1.903
  718W        W 4687  10.840   7.451  11.448
  719W        W 4688   1.344   6.677   2.190
  720W        W 4689   3.642  10.479  10.397
  721W        W 4690   3.651   9.480   3.319
  722W        W 4691   0.833   6.674   8.933
  723W        W 4692   8.889   6.641   9.375
  724W        W 4693   8.490   6.551   1.694
  725W        W 4694  11.455   5.695   1.290
  726W        W 4695   3.735   1.736   2.738
  727W        W 4696  10.502   0.850   0.849
  728W        W 4697   1.778   9.982  11.344
  729W        W 4698   4.170   5.699  11.825
  730W        W 4699  11.369   7.443  11.800
  731W        W 4700   8.572   0.443  10.390
  732W        W 4701   6.199  10.004   0.415
  733W        W 4702   1.735   7.530   0.463
  734W        W 4703   4.099   0.372   1.348
  735W        W 4704   5.255   1.765  11.797
  736W        W 4705   8.097   7.043   9.846
  737W        W 4706   8.623   1.212  10.927
  738W        W 4707   5.250   4.664  11.436
  739W        W 4708   7.183   7.185   0.886
  740W        W 4709   0.911   1.793   2.327
  741W        W 4710   8.010   0.356   0.309
  742W        W 4711   5.152  10.016   3.179
  743W        W 4712   0.953   9.059  11.011
  744W        W 4713   5.077   1.902   3.199
  745W        W 4714   2.645   5.153   3.721
  746W        W 4715   5.692   3.257   2.265
  747W        W 4716   3.611   4.706   0.864
  748W        W 4717   9.006   3.767   0.856
  749W        W 4718   7.592   8.948   3.182
  750W        W 4719   7.569   7.959   1.900
  751W        W 4720   1.402  11.387  10.972
  752W        W 4721   0.741   3.179   9.524
  753W        W 4722   8.954   0.331  11.506
  754W        W 4723   5.728   5.678  11.786
  755W        W 4724   5.147  10.402  10.034
  756W        W 4725   3.676   6.976   9.508
  757W        W 4726   6.626  10.817  10.969
  758W        W 4727   9.471   5.586   9.491
  759W        W 4728   2.280   4.278  10.559
  760W        W 4729   7.493   4.181   1.889
  761W        W 4730   0.957   7.646   9.515
  762W        W 4731   2.321  10.451  10.048
  763W        W 4732   7.080  10.478   8.997
  764W        W 4733   6.986  11.304   0.403
  765W        W 4734   0.894   3.150  10.018
  766W        W 4735   4.649   6.038   0.931
  767W        W 4736   3.679   2.260  11.842
  768W        W 4737   2.228   6.089   2.768
  769W        W 4738   8.500   5.196   2.810
  770W        W 4739   8.928   3.725   8.919
  771W        W 4740  10.845   4.775   3.603
  772W        W 4741   5.541  10.430   0.361
  773W        W 4742   2.206  11.288   9.023
  774W        W 4743   5.732   1.844   0.891
  775W        W 4744   8.108   8.446   2.281
  776W        W 4745   2.279   1.767  11.953
  777W        W 4746   1.209   5.059   2.769
  778W        W 4747   5.565   2.873   0.822
  779W        W 4748   3.146   9.490   9.397
  780W        W 4749   3.131   4.220   0.305
  781W        W 4750   4.703   7.071   0.386
  782W        W 4751  10.059   0.932   3.826
  783W        W 4752  10.493   5.110   2.377
  784W        W 4753   8.064   4.621   9.441
  785W        W 4754   1.836   2.308   2.216
  786W        W 4755   9.480   3.297  10.868
  787W        W 4756   6.999   0.802  11.302
  788W        W 4757   9.549   8.900   0.959
  789W        W 4758   4.234  10.039  10.894
  790W        W 4759  10.452   3.181   0.858
  791W        W 4760   4.735   1.432   1.406
  792W        W 4761   1.324   9.897   9.852
  793W        W 4762   6.476   9.979   9.573
  794W        W 4763   2.372   8.587   1.746
  795W        W 4764   1.905   8.444   9.860
  796W        W 4765   9.369   9.381   2.320
  797W        W 4766   2.863   2.324   0.364
  798W        W 4767   3.130   3.205   1.822
  799W        W 4768  10.062   9.539   3.157
  800W        W 4769   0.285   0.459   0.268
  801W        W 4770   4.101   9.564  11.011
  802W        W 4771   5.160   9.496  10.938
  803W        W 4772   9.453   6.574  10.959
  804W        W 4773   7.932   9.903   9.090
  805W        W 4774   7.958   0.364  10.804
  806W        W 4775   8.108   1.362   1.861
  807W        W 4776   1.261   8.034  11.358
  808W        W 4777   7.103   3.611   1.223
  809W        W 4778   0.416   7.642   1.393
  810W        W 4779  10.345   0.405   0.817
  811W        W 4780   5.992   1.732   2.231
  812W        W 4781   2.790   5.674   3.192
  813W        W 4782   3.724   8.442  11.337
  814W        W 4783   0.861  10.506   1.398
  815W        W 4784   3.725   7.915  11.477
  816W        W 4785   5.034   3.348  11.440
  817W        W 4786   6.641   2.789   3.348
  818W        W 4787   0.747   0.847   3.139
  819W        W 4788   7.066   8.580   1.853
  820W        W 4789   5.591   8.066   9.889
  821W        W 4790   5.701  10.499   1.853
  822W        W 4791   0.418  10.871   0.951
  823W        W 4792   8.535   6.568  10.883
  824W        W 4793  11.344   7.572   9.517
  825W        W 4794   1.393   7.915  10.912
  826W        W 4795   2.245   1.384   0.838
  827W        W 4796   5.512   5.584   2.766
  828W        W 4797   9.845   8.412   0.860
  829W        W 4798   3.229  10.984   0.816
  830W        W 4799  10.809   8.588   8.966
  831W        W 4800   6.528   3.271   9.072
  832W        W 4801   2.829   4.250  11.392
  833W        W 4802  10.382   5.612   1.913
  834W        W 4803  11.462   4.674   1.729
  835W        W 4804   5.041   2.329   9.587
  836W        W 4805   8.513   7.116  11.364
  837W        W 4806  10.956   4.558   1.757
  838W        W 4807   4.745   2.681  10.856
  839W        W 4808   0.842   9.013   9.360
  840W        W 4809   7.088   4.264   9.987
  841W        W 4810   8.997  11.354   9.475
  842W        W 4811  11.276   5.701  10.847
  843W        W 4812   5.710   0.871   1.871
  844W        W 4813   0.926   0.367  11.018
  845W        W 4814  11.010   7.059   1.741
  846W        W 4815   9.941   4.577   9.952
  847W        W 4816   6.707   9.080  11.782
  848W        W 4817   1.911   6.642   3.828
  849W        W 4818   7.493   0.945   1.916
  850W        W 4819   9.985   5.516  10.467
  851W        W 4820   2.702   1.708   1.720
  852W        W 4821   4.181   1.768   3.295
  853W        W 4822   6.506   5.070   0.369
  854W        W 4823   1.850   0.750   0.383
  855W        W 4824   8.611   9.010   2.736
  856W        W 4825   5.248   6.622  10.485
  857W        W 4826   7.107   1.229   3.605
  858W        W 4827   9.354   5.060   3.804
  859W        W 4828   6.158   5.648   1.210
  860W        W 4829   0.855   5.189   1.870
  861W        W 4830   8.038   4.642  10.844
  862W        W 4831  11.458   8.548   9.586
  863W        W 4832   6.108   9.934  10.334
  864W        W 4833   4.639   5.547   1.904
  865W        W 4834  10.893   0.748   1.377
  866W        W 4835   6.701   2.842   9.437
  867W        W 4836   6.145   2.376   2.165
  868W        W 4837  10.478   0.313  10.912
  869W        W 4838  10.421   5.614  10.394
  870W        W 4839   9.450   7.602   3.342
  871W        W 4840   2.830   8.410   2.723
  872W        W 4841   1.232   9.509   1.711
  873W        W 4842   5.562   9.940   0.463
  874W        W 4843   6.703   3.336  11.330
  875W        W 4844   7.549   7.539   1.422
  876W        W 4845   5.658   1.825   3.127
  877W        W 4846   6.689  10.464  11.384
  878W        W 4847   7.651   7.628   2.183
  879W        W 4848   7.634   6.670  11.356
  880W        W 4849  10.328   6.568  10.349
  881W        W 4850   8.461  10.001   8.914
  882W        W 4851   8.965   9.094  11.407
  883W        W 4852  11.373   5.700   1.737
  884W        W 4853   0.760  10.021   0.244
  885W        W 4854   2.711   6.628  10.806
  886W        W 4855  10.519   5.176   3.181
  887W        W 4856   9.849   1.732  10.454
  888W        W 4857   6.706   3.705   9.567
  889W        W 4858   1.333   5.592   3.133
  890W        W 4859  11.422  11.365  10.850
  891W        W 4860   9.582   0.438   0.470
  892W        W 4861   5.068   0.428   0.902
  893W        W 4862   3.640   2.380   1.281
  894W        W 4863  10.018   0.344   0.431
  895W        W 4864   4.748   2.163   0.901
  896W        W 4865   2.861   8.562   0.796
  897W        W 4866   0.316   9.048   0.882
  898W        W 4867   6.055   8.109  11.903
  899W        W 4868   6.476   5.190   1.889
  900W        W 4869   4.711   8.589   1.317
  901W        W 4870   3.257   1.223   1.803
  902W        W 4871  10.475   0.779   9.410
  903W        W 4872   3.707   0.269   9.546
  904W        W 4873   6.158   7.069   9.534
  905W        W 4874   2.272   5.163   9.481
  906W        W 4875   5.570   0.885   9.912
  907W        W 4876   0.870   8.587   3.702
  908W        W 4877   5.704   9.936  11.768
  909W        W 4878   2.383   3.352   2.861
  910W        W 4879  11.364   7.131  10.422
  911W        W 4880   2.637   4.693   0.925
  912W        W 4881   1.408  10.029   9.377
  913W        W 4882   6.999   4.580   0.747
  914W        W 4883   1.766   8.074   1.378
  915W        W 4884   7.631   4.173   8.442
  916W        W 4885  10.844   1.849   2.380
  917W        W 4886  11.276   9.879   0.854
  918W        W 4887   1.425   0.868   2.843
  919W        W 4888   7.623  10.437   0.847
  920W        W 4889   0.741   8.999   2.680
  921W        W 4890   9.979   5.541   0.937
  922W        W 4891   8.081  10.958   1.327
  923W        W 4892   6.132   9.099   3.149
  924W        W 4893   1.305   6.067  10.045
  925W        W 4894   6.494   0.242  11.948
  926W        W 4895   0.923   8.459  10.001
  927W        W 4896   6.695   9.445   0.884
  928W        W 4897  10.947   2.184   1.735
  929W        W 4898   4.287  10.944   2.390
  930W        W 4899   2.765   3.649   1.863
  931W        W 4900   7.944   0.329   2.702
  932W        W 4901   6.609   7.963  11.282
  933W        W 4902   0.862   2.201   1.869
  934W        W 4903   0.766   0.840   0.858
  935W        W 4904   1.211   3.154  11.455
  936W        W 4905  11.394   4.139   3.331
  937W        W 4906   2.274   2.214   0.349
  938W        W 4907   8.467   7.543   2.218
  939W        W 4908   1.331   9.372   9.462
  940W        W 4909   4.291  11.347  11.302
  941W        W 4910   1.769   5.123   1.726
  942W        W 4911   3.751   9.398   0.437
  943W        W 4912   3.790  11.451  11.868
  944W        W 4913   7.638   5.145   0.751
  945W        W 4914   2.684   4.583  11.985
  946W        W 4915   7.956   1.339   0.442
  947W        W 4916   7.923   1.854   0.858
  948W        W 4917   0.843   2.843   8.631
  949W        W 4918   3.156   7.564   0.943
  950W        W 4919   2.665   4.116   1.225
  951W        W 4920   7.132   0.352   2.666
  952W        W 4921   2.653   8.016   8.057
  953W        W 4922   5.208   2.873   4.146
  954W        W 4923   4.260   3.265  11.427
  955W        W 4924   2.311   3.829   1.375
  956W        W 4925  11.452   7.442   0.874
  957W        W 4926   0.800   8.920   0.358
  958W        W 4927   8.482   1.768   3.127
  959W        W 4928   1.368   9.965  11.975
  960W        W 4929   9.990   8.903   9.501
  961W        W 4930   0.390   2.790  11.935
  962W        W 4931   9.835   7.456   8.500
  963W        W 4932   4.203   2.230   2.831
  964W        W 4933   7.002   5.561  10.404
  965W        W 4934   4.264   2.267   3.177
  966W        W 4935   4.257   0.842   2.294
  967W        W 4936   7.615   9.890   0.453
  968W        W 4937   0.272   6.094   1.842
  969W        W 4938   0.413   1.794  10.328
  970W        W 4939  11.404   4.724  10.400
  971W        W 4940   3.654   0.334   2.824
  972W        W 4941   5.678   1.266   0.883
  973W        W 4942   1.345  10.307   9.524
  974W        W 4943  10.885  10.469   9.441
  975W        W 4944   6.074  10.305   0.418
  976W        W 4945   4.553  11.308   9.064
  977W        W 4946   4.104   4.789   2.712
  978W        W 4947   6.643   9.389  10.448
  979W        W 4948  11.319   7.457   9.110
  980W        W 4949  10.511   9.462  10.398
  981W        W 4950   4.076   6.201  10.851
  982W        W 4951   4.135   4.155   9.431
  983W        W 4952   1.751   9.546   8.612
  984W        W 4953   1.369   8.610   0.919
  985W        W 4954   0.722   6.602   2.864
  986W        W 4955   3.727  11.391   9.588
  987W        W 4956   4.643   8.605   2.674
  988W        W 4957   8.424  10.345   2.849
  989W        W 4958   5.643  10.457   2.702
  990W        W 4959   7.553   8.504  10.419
  991W        W 4960   0.281   1.386  11.972
  992W        W 4961   6.078   3.240   0.397
  993W        W 4962   0.759   7.097   9.476
  994W        W 4963   3.181   8.988   1.819
  995W        W 4964  11.262   8.077   2.659
  996W        W 4965   1.737   7.569   2.688
  997W        W 4966   3.286   5.119   7.979
  998W        W 4967   7.912   2.686  11.326
  999W        W 4968   9.465   0.436   2.681
 1000W        W 4969   8.526   1.206   2.677
 1001W        W 4970   9.500   2.364   0.371
 1002W        W 4971  10.963  10.465   0.926
 1003W        W 4972   2.239   9.034   9.862
 1004W        W 4973   6.577   1.799   1.351
 1005W        W 4974   5.534   1.824   1.836
 1006W        W 4975   4.212   0.868  11.419
 1007W        W 4976   6.168   3.802   0.464
 1008W        W 4977   4.686   6.121  10.366
 1009W        W 4978   0.446   2.363  10.916
 1010W        W 4979   8.094   7.960   1.411
 1011W        W 4980   6.694  10.539  10.957
 1012W        W 4981   2.211   4.239   0.342
 1013W        W 4982   3.143   5.568  10.560
 1014W        W 4983   4.701   8.875   9.394
 1015W        W 4984  10.455   2.265  10.919
 1016W        W 4985   9.366   4.251   1.900
 1017W        W 4986   1.870   6.511   3.282
 1018W        W 4987   5.159   1.782   3.700
 1019W        W 4988   3.125  10.360   2.774
 1020W        W 4989   8.545   3.271   3.258
 1021W        W 4990   6.024   1.271   2.736
 1022W        W 4991  10.890   3.656   1.344
 1023W        W 4992   8.471   6.039   9.072
 1024W        W 4993  11.289   7.920   3.237
 1025W        W 4994   7.962  11.388   9.105
 1026W        W 4995   6.077  10.346   2.400
 1027W        W 4996   3.750   6.512   2.780
 1028W        W 4997   3.670   3.767   2.849
 1029W        W 4998   9.446  10.529  10.515
 1030W        W 4999   0.396   7.074   2.367
 1031W        W 5000   2.200  10.059   2.676
 1032W        W 5001   9.870   3.161  11.909
 1033W        W 5002   7.624   2.367  10.848
 1034W        W 5003   9.073  10.945   0.437
 1035W        W 5004   9.359   5.089   1.260
 1036W        W 5005   6.611   9.072   8.946
 1037W        W 5006   8.406   9.086  12.000
 1038W        W 5007   5.665   3.618   1.758
 1039W        W 5008   1.266   3.831   2.829
 1040W        W 5009   5.224   8.110   9.498
 1041W        W 5010   0.915   1.720   1.268
 1042W        W 5011   0.244   9.522   1.302
 1043W        W 5012  10.329   3.160   2.313
 1044W        W 5013   2.855  10.798   9.028
 1045W        W 5014   5.558   6.970  11.408
 1046W        W 5015   1.326   0.375   3.252
 1047W        W 5016   8.567   6.072  10.893
 1048W        W 5017   5.188   4.631  11.916
 1049W        W 5018   0.880   0.753   1.857
 1050W        W 5019   5.612   7.465  10.967
 1051W        W 5020   2.332   6.176  11.022
 1052W        W 5021   9.400   5.224   3.254
 1053W        W 5022   3.644   8.059   8.971
 1054W        W 5023   4.257   7.641   9.011
 1055W        W 5024   6.958   2.355   2.811
 1056W        W 5025   9.073   5.079  10.941
 1057W        W 5026   0.894   0.414   1.882
 1058W        W 5027   4.283   1.434   1.295
 1059W        W 5028   7.043   2.645   8.994
 1060W        W 5029   7.647   4.128   3.274
 1061W        W 5030  11.487   4.279   0.435
 1062W        W 5031   2.642   8.451   1.715
 1063W        W 5032  10.970  10.378   0.294
 1064W        W 5033   3.227   2.739   9.081
 1065W        W 5034   1.352   2.734  10.846
 1066W        W 5035   3.214   9.889   9.049
 1067W        W 5036   5.125   6.048  11.294
 1068W        W 5037   5.221   9.392   8.126
 1069W        W 5038  11.018   8.134   2.640
 1070W        W 5039   6.474   9.054   1.732
 1071W        W 5040   5.627   9.841   8.906
 1072W        W 5041   7.109   8.391   9.003
 1073W        W 5042   6.198   5.697   9.564
 1074W        W 5043   8.885   5.725  10.549
 1075W        W 5044   7.544   3.708   0.840
 1076W        W 5045   6.189   2.867   2.787
 1077W        W 5046   7.946   5.723   0.748
 1078W        W 5047   1.336   6.049   9.067
 1079W        W 5048   6.683  11.392  10.910
 1080W        W 5049   8.026   6.533   0.270
 1081W        W 5050  10.487   4.568   9.444
 1082W        W 5051   9.486   3.625   2.728
 1083W        W 5052   4.248   2.706   9.981
 1084W        W 5053   0.258   4.567   9.972
 1085W        W 5054   9.848   8.898  11.492
 1086W        W 5055   2.819   6.590   2.732
 1087W        W 5056   3.341  10.321   3.286
 1088W        W 5057   9.962   1.713   3.303
 1089W        W 5058   9.366   5.699  11.818
 1090W        W 5059   7.914  10.033   3.217
 1091W        W 5060   1.248   4.662  10.068
 1092W        W 5061   8.968   9.350  11.431
 1093W        W 5062   3.697   0.305  11.982
 1094W        W 5063   3.120   3.198   8.509
 1095W        W 5064   0.251   8.958  11.940
 1096W        W 5065   8.013   8.881   0.750
 1097W        W 5066   9.852   6.688   0.379
 1098W        W 5067   9.347   9.372  10.072
 1099W        W 5068   5.092   1.809   0.912
 1100W        W 5069   3.152   2.382   2.162
 1101W        W 5070   9.455   6.135   1.819
 1102W        W 5071   0.919   1.368  10.973
 1103W        W 5072   2.787   1.750  10.530
 1104W        W 5073   3.824   0.297   9.007
 1105W        W 5074   0.369   6.483   3.270
 1106W        W 5075   1.724   3.615   9.391
 1107W        W 5076  10.022   9.973   3.170
 1108W        W 5077   6.026   0.379   9.471
 1109W        W 5078  11.352   7.143   1.798
 1110W        W 5079   7.588   2.731  11.836
 1111W        W 5080   8.423   0.286   0.430
 1112W        W 5081   5.706  10.926   8.887
 1113W        W 5082   8.392   8.095   8.982
 1114W        W 5083   0.366   5.147   2.642
 1115W        W 5084   4.752   9.010   0.799
 1116W        W 5085   0.348   3.652  11.953
 1117W        W 5086   0.370   6.212   9.900
 1118W        W 5087   8.918   1.278  11.766
 1119W        W 5088  11.433  11.478  10.498
 1120W        W 5089   2.782   8.103   2.196
 1121W        W 5090   3.698   8.531  10.051
 1122W        W 5091   7.966   6.997   2.744
 1123W        W 5092   9.550   2.291  10.851
 1124W        W 5093   7.007   0.877   1.286
 1125W        W 5094   6.099   6.076   8.434
 1126W        W 5095   2.230   8.417  10.875
 1127W        W 5096   0.854   1.391   8.902
 1128W        W 5097   2.262   6.954   9.367
 1129W        W 5098   9.880  10.349   8.898
 1130W        W 5099  10.857   7.529  10.348
 1131W        W 5100   1.227   1.875   0.789
 1132W        W 5101   8.540   9.929   1.247
 1133W        W 5102   6.074   8.115   3.298
 1134W        W 5103  10.904   9.961   0.420
 1135W        W 5104   4.745  10.001   2.650
 1136W        W 5105   6.188   1.323   1.356
 1137W        W 5106   1.907  11.332  10.979
 1138W        W 5107   9.347   6.676   0.318
 1139W        W 5108   8.620   0.242   2.759
 1140W        W 5109   2.294   0.889   0.420
 1141W        W 5110   2.780   6.197  10.917
 1142W        W 5111   3.722  11.467   0.258
 1143W        W 5112   7.964   8.913   1.879
 1144W        W 5113   6.560   8.894   0.296
 1145W        W 5114   0.905   3.208  11.444
 1146W        W 5115   0.819   6.697  10.899
 1147W        W 5116   7.914   6.597   1.762
 1148W        W 5117   2.220   4.611   1.234
 1149W        W 5118   9.361   2.383  10.515
 1150W        W 5119   5.195   2.786   1.231
 1151W        W 5120   0.741   3.782  10.802
 1152W        W 5121   7.609   7.033   0.253
 1153W        W 5122   9.934   8.062   0.908
 1154W        W 5123   6.561   9.421  10.078
 1155W        W 5124  10.059  10.040   1.798
 1156W        W 5125   2.270   4.727   0.305
 1157W        W 5126   2.231   7.995   2.162
 1158W        W 5127  11.487   6.483  11.332
 1159W        W 5128  10.984   9.877   9.992
 1160W        W 5129   1.721   2.312   1.375
 1161W        W 5130   6.682   1.781   0.905
 1162W        W 5131   1.702   1.334   9.556
 1163W        W 5132  11.471   6.995   0.951
 1164W        W 5133   9.956  10.881   9.973
 1165W        W 5134   1.291   9.507   0.818
 1166W        W 5135   0.939   2.319  11.403
 1167W        W 5136   9.386  10.326  11.880
 1168W        W 5137   9.505   7.536   0.877
 1169W        W 5138  10.799   6.972   3.189
 1170W        W 5139   6.469   1.306   1.435
 1171W        W 5140   5.545   6.637   1.750
 1172W        W 5141   9.383   1.769  11.024
 1173W        W 5142   9.431   1.404  11.998
 1174W        W 5143   4.620   7.629   2.826
 1175W        W 5144   6.628   3.817  10.807
 1176W        W 5145   5.271   8.074   2.707
 1177W        W 5146   9.538   9.044  10.903
 1178W        W 5147   9.439   1.910   1.273
 1179W        W 5148   2.830   9.362   2.170
 1180W        W 5149  11.341   5.229   2.878
 1181W        W 5150   7.595   9.367  10.443
 1182W        W 5151   2.850   0.950  11.431
 1183W        W 5152   2.164   4.220  10.008
 1184W        W 5153   3.720   8.091  10.908
 1185W        W 5154   5.142   6.552  10.844
 1186W        W 5155   9.990   7.096   0.925
 1187W        W 5156   0.331   2.715   8.958
 1188W        W 5157   3.804  10.374   2.746
 1189W        W 5158   3.216  11.454  10.442
 1190W        W 5159  10.950  10.806   2.171
 1191W        W 5160  10.819   6.151   2.676
 1192W        W 5161  10.984  10.790  11.288
 1193W        W 5162   0.370   6.091  10.946
 1194W        W 5163   8.107   2.749   1.259
 1195W        W 5164   7.564   2.709   9.028
 1196W        W 5165   6.952   7.035   1.908
 1197W        W 5166   0.292   8.977   3.325
 1198W        W 5167   9.964   1.889   1.273
 1199W        W 5168   2.679   5.524   0.852
 1200W        W 5169   8.064   8.564  11.506
 1201W        W 5170   7.919   0.418   3.142
 1202W        W 5171   8.927   8.526   2.667
 1203W        W 5172   2.394   0.807   0.858
 1204W        W 5173   7.952   3.731   9.977
 1205W        W 5174   9.418   7.447   9.976
 1206W        W 5175   0.827   0.424   8.889
 1207W        W 5176   4.577   4.175   2.830
 1208W        W 5177   7.165   5.226  11.379
 1209W        W 5178  10.993   4.096   0.862
 1210W        W 5179   4.283   1.377   2.861
 1211W        W 5180   2.699   4.262  10.490
 1212W        W 5181   6.603   2.675   1.918
 1213W        W 5182   3.332   0.286   9.581
 1214W        W 5183   7.038   3.138  10.015
 1215W        W 5184   5.228   4.080   8.094
 1216W        W 5185  11.466   2.820  11.306
 1217W        W 5186   6.625  10.829   0.342
 1218W        W 5187   2.729  10.787   9.885
 1219W        W 5188   4.595   2.228  11.956
 1220W        W 5189   7.035   6.618  11.303
 1221W        W 5190  10.493   4.145  10.422
 1222W        W 5191   7.949   5.048   1.306
 1223W        W 5192   6.219   3.150   3.239
 1224W        W 5193   4.249   4.191   2.712
 1225W        W 5194  11.493   7.542   3.158
 1226W        W 5195   1.391   6.701  10.025
 1227W        W 5196   9.496   4.263   2.780
 1228W        W 5197   4.791   4.167   8.425
 1229W        W 5198   9.983   8.453   1.708
 1230W        W 5199   0.873   7.493  10.895
 1231W        W 5200   8.937   5.594   0.903
 1232W        W 5201   0.886   0.389  10.421
 1233W        W 5202   1.339  10.336   2.674
 1234W        W 5203  10.355   3.168  10.432
 1235W        W 5204  10.993   1.199   0.398
 1236W        W 5205   4.597   2.238   2.359
 1237W        W 5206   7.055   1.304   8.886
 1238W        W 5207   3.705   0.477  10.007
 1239W        W 5208   2.808   1.683   8.976
 1240W        W 5209   6.475  10.846   8.972
 1241W        W 5210   3.833   4.695  11.366
 1242W        W 5211   6.169   2.754  10.411
 1243W        W 5212   3.242   5.633   9.030
 1244W        W 5213   0.249   3.254  10.831
 1245W        W 5214   2.278   4.561  11.439
 1246W        W 5215   0.295   1.890   8.973
 1247W        W 5216   4.083   5.113   9.589
 1248W        W 5217   9.862   1.685   2.703
 1249W        W 5218   9.017   4.301   2.683
 1250W        W 5219  11.425   3.243  10.945
 1251W        W 5220   8.561   1.741   0.843
 1252W        W 5221   1.323   8.544  11.283
 1253W        W 5222   7.107   6.045   8.954
 1254W        W 5223  11.353   3.125   1.319
 1255W        W 5224  10.864   1.859   4.181
 1256W        W 5225   1.251  10.539  10.449
 1257W        W 5226   8.958   8.928   1.837
 1258W        W 5227   8.930   1.912  11.958
 1259W        W 5228   4.132   9.908   2.867
 1260W        W 5229   8.993   7.069   1.331
 1261W        W 5230   7.142   3.257   9.537
 1262W        W 5231   6.015   8.491  11.322
 1263W        W 5232   9.579   3.751   3.245
 1264W        W 5233   8.391   2.357   1.276
 1265W        W 5234   8.514   8.024   2.752
 1266W        W 5235  10.021   9.417  10.418
 1267W        W 5236   7.481   2.781   2.368
 1268W        W 5237   8.953   6.997  10.816
 1269W        W 5238  10.914   9.845   1.844
 1270W        W 5239   4.601   9.480   8.453
 1271W        W 5240   8.097   1.906   2.240
 1272W        W 5241   8.003   6.475  11.511
 1273W        W 5242   7.523   5.215  10.437
 1274W        W 5243   7.008   8.951  11.939
 1275W        W 5244   7.073  10.981   8.961
 1276W        W 5245   8.972   4.684   8.483
 1277W        W 5246   4.211   2.712   2.821
 1278W        W 5247   5.705   3.781   0.934
 1279W        W 5248   1.253   6.578  11.376
 1280W        W 5249   8.395   8.992   3.181
 1281W        W 5250   4.225   0.435   8.989
 1282W        W 5251   8.513  10.880   0.946
 1283W        W 5252   6.688   8.523   9.877
 1284W        W 5253   2.198   8.496  10.507
 1285W        W 5254   0.461   0.868  11.914
 1286W        W 5255   0.284   4.248   1.684
 1287W        W 5256   0.403   0.313   1.888
 1288W        W 5257  11.452  10.832   0.419
 1289W        W 5258  10.394   4.693   9.989
 1290W        W 5259   1.887   1.856  10.062
 1291W        W 5260   6.476   4.553   0.423
 1292W        W 5261   1.241   5.128   3.216
 1293W        W 5262  10.514   6.025  11.286
 1294W        W 5263   6.183   9.539  10.447
 1295W        W 5264  10.830   7.946   1.827
 1296W        W 5265   3.299   8.447   9.086
 1297W        W 5266   2.360   6.188   9.429
 1298W        W 5267   9.917   5.138   8.418
 1299W        W 5268  10.443   2.336   9.403
 1300W        W 5269   1.827   0.320   2.786
 1301W        W 5270   3.349   1.308   9.014
 1302W        W 5271   7.023   7.468   9.997
 1303W        W 5272   8.468  10.789   0.310
 1304W        W 5273   6.496   8.110   8.976
 1305W        W 5274   6.616   5.651  11.902
 1306W        W 5275   7.525   1.364   2.327
 1307W        W 5276   6.692   9.575   3.139
 1308W        W 5277   3.139   8.549  11.893
 1309W        W 5278   6.114   2.743   0.773
 1310W        W 5279  10.844   5.579   9.894
 1311W        W 5280   2.320   1.716  11.320
 1312W        W 5281   7.107  10.926   0.386
 1313W        W 5282  11.492  10.853   0.828
 1314W        W 5283   3.182   7.524   1.883
 1315W        W 5284   8.915   7.658  10.987
 1316W        W 5285   6.114  10.057  10.980
 1317W        W 5286   3.684  10.997   9.961
 1318W        W 5287   9.841   9.057   1.826
 1319W        W 5288   3.600   6.964   0.355
 1320W        W 5289   9.489   6.964   1.797
 1321W        W 5290   3.706   9.398   9.042
 1322W        W 5291   3.674   9.975   1.425
 1323W        W 5292   1.363   5.077   9.526
 1324W        W 5293  11.483   8.594   8.968
 1325W        W 5294   8.096   6.574   9.069
 1326W        W 5295   7.001  11.458   3.296
 1327W        W 5296   2.374   1.208   9.083
 1328W        W 5297   6.625   9.011  11.429
 1329W        W 5298   3.348   1.905   9.489
 1330W        W 5299   6.610   2.743  11.939
 1331W        W 5300   3.731   9.954   2.249
 1332W        W 5301   6.087  10.988  11.409
 1333W        W 5302   7.028   7.151   0.323
 1334W        W 5303   2.220   9.954   1.792
 1335W        W 5304   8.408   9.420  10.861
 1336W        W 5305   5.540   5.656   9.540
 1337W        W 5306   7.658   7.928  10.004
 1338W        W 5307   1.283   0.383  11.289
 1339W        W 5308   1.402   8.051   1.824
 1340W        W 5309   7.651  10.803  11.482
 1341W        W 5310   1.910   4.749   9.558
 1342W        W 5311   8.942   1.750   2.702
 1343W        W 5312   5.089   8.408   0.418
 1344W        W 5313   5.743   9.937   1.346
 1345W        W 5314   9.836  10.462  10.348
 1346W        W 5315   8.997   3.694   8.476
 1347W        W 5316   5.749   8.612   0.475
 1348W        W 5317   2.220  11.339  11.925
 1349W        W 5318   7.550   4.245  11.907
 1350W        W 5319   4.710   6.592   3.176
 1351W        W 5320   5.607   5.087   2.860
 1352W        W 5321   9.476   2.683   2.208
 1353W        W 5322   8.984   1.352  10.046
 1354W        W 5323   0.261   0.309  10.535
 1355W        W 5324   4.749  10.364   8.457
 1356W        W 5325   1.296   3.797   9.959
 1357W        W 5326   0.758  11.493  11.316
 1358W        W 5327   0.766   6.981   1.303
 1359W        W 5328  10.400  10.987  11.019
 1360W        W 5329   1.733   5.072   2.649
 1361W        W 5330   1.279   9.846   1.296
 1362W        W 5331   3.612   2.289   0.952
 1363W        W 5332   6.511   7.010   2.276
 1364W        W 5333   8.481   7.173   0.325
 1365W        W 5334   5.197   3.130   2.395
 1366W        W 5335   0.358   2.330   9.078
 1367W        W 5336   1.691   6.952   2.770
 1368W        W 5337   5.117   0.442   0.480
 1369W        W 5338  11.435  10.449   2.380
 1370W        W 5339   6.491   9.968  10.935
 1371W        W 5340   6.169   8.523  11.922
 1372W        W 5341   8.136   7.156  10.975
 1373W        W 5342   9.869   9.425   0.780
 1374W        W 5343   2.255  11.425   0.266
 1375W        W 5344   2.374   9.451   0.432
 1376W        W 5345   8.408   5.543   3.705
 1377W        W 5346   4.191   3.827   0.799
 1378W        W 5347   7.084   2.198  11.031
 1379W        W 5348   8.611   3.130   9.554
 1380W        W 5349   9.048   9.944   0.282
 1381W        W 5350  10.410   8.546  11.512
 1382W        W 5351  11.348   8.571   9.990
 1383W        W 5352   6.522   0.762  11.873
 1384W        W 5353   6.185  10.998   3.329
 1385W        W 5354   0.319   7.048   9.899
 1386W        W 5355   2.748   7.549   2.834
 1387W        W 5356   0.326   9.011   1.750
 1388W        W 5357  10.467   8.454  11.925
 1389W        W 5358   7.059   5.718   0.804
 1390W        W 5359   3.214   5.220   9.081
 1391W        W 5360   9.927   7.968   2.641
 1392W        W 5361   2.642   5.515   1.824
 1393W        W 5362   2.170   3.307   1.266
 1394W        W 5363   4.196   1.404   8.536
 1395W        W 5364   8.943   6.472  10.876
 1396W        W 5365  10.303   1.375  10.490
 1397W        W 5366   7.004   6.670   3.174
 1398W        W 5367  11.387   6.019  11.873
 1399W        W 5368   0.246   0.887   0.330
 1400W        W 5369  11.332   3.134  10.519
 1401W        W 5370   9.036   3.271   8.556
 1402W        W 5371  11.471   6.014   1.738
 1403W        W 5372   6.187   4.216   9.415
 1404W        W 5373   9.852   3.638   0.919
 1405W        W 5374   4.615   8.579   0.462
 1406W        W 5375  10.798   3.203   2.362
 1407W        W 5376   0.476   9.900   2.330
 1408W        W 5377   5.153  11.426   0.773
 1409W        W 5378   7.162   6.137  10.382
 1410W        W 5379   3.743  11.300  11.423
 1411W        W 5380   2.704   9.536  11.778
 1412W        W 5381  10.437   7.935   0.468
 1413W        W 5382   1.862   4.716  11.040
 1414W        W 5383   7.016  11.457   9.579
 1415W        W 5384   1.803   8.917   0.385
 1416W        W 5385   8.529   2.192   2.327
 1417W        W 5386   3.701   2.862   0.785
 1418W        W 5387  10.785  11.484   0.727
 1419W        W 5388   2.684   4.280   2.822
 1420W        W 5389   3.167   0.272   1.434
 1421W        W 5390   0.293   5.630   9.883
 1422W        W 5391   6.553  10.523  10.354
 1423W        W 5392   4.720   0.742   1.780
 1424W        W 5393   0.376   3.209   0.330
 1425W        W 5394   2.724   0.242  10.524
 1426W        W 5395   0.279   3.300  11.500
 1427W        W 5396   1.744   7.935  11.920
 1428W        W 5397   4.571   7.481  11.443
 1429W        W 5398   7.042   0.459   9.073
 1430W        W 5399   6.641   7.979   2.265
 1431W        W 5400   7.436   2.323   0.872
 1432W        W 5401   3.695   5.208   0.311
 1433W        W 5402   3.622   4.699   1.704
 1434W        W 5403   8.052   4.557   8.508
 1435W        W 5404   7.924   8.472  11.814
 1436W        W 5405   5.741   8.952   8.404
 1437W        W 5406   0.907   9.094   3.167
 1438W        W 5407   2.815   2.175  10.326
 1439W        W 5408   0.476   1.338   2.847
 1440W        W 5409   5.123  11.392   1.746
 1441W        W 5410  10.412   9.489  11.385
 1442W        W 5411  10.881  10.388   1.330
 1443W        W 5412   2.810   2.312   0.912
 1444W        W 5413   8.047   6.162   4.104
 1445W        W 5414   2.375  10.994  11.935
 1446W        W 5415   6.980   1.261   0.748
 1447W        W 5416  11.469   9.830   8.900
 1448W        W 5417   0.319   3.200   9.855
 1449W        W 5418  10.411   3.707   0.380
 1450W        W 5419   2.758   3.794   9.533
 1451W        W 5420   4.707   9.548  10.847
 1452W        W 5421   5.557   1.822   2.875
 1453W        W 5422   3.147   1.268   2.880
 1454W        W 5423   5.227   9.415   8.454
 1455W        W 5424   0.302   0.255  10.960
 1456W        W 5425  10.937   9.961  11.451
 1457W        W 5426   4.744   9.896   2.254
 1458W        W 5427   5.108   0.784   9.903
 1459W        W 5428   4.139   4.715   3.692
 1460W        W 5429  10.425   7.134  11.407
 1461W        W 5430   6.525   3.717   9.020
 1462W        W 5431   4.729   4.277   9.493
 1463W        W 5432   3.641   0.405  11.496
 1464W        W 5433  10.839   4.130   1.265
 1465W        W 5434   5.519   9.914   3.751
 1466W        W 5435   4.084   1.423  10.023
 1467W        W 5436   7.537   0.936   3.258
 1468W        W 5437   9.086   0.895   2.310
 1469W        W 5438   8.535   7.511   9.364
 1470W        W 5439   3.742   2.776   9.586
 1471W        W 5440   8.461   7.574   2.813
 1472W        W 5441   9.010   4.604   1.364
 1473W        W 5442   8.495   2.686   0.478
 1474W        W 5443   6.024   3.351   1.231
 1475W        W 5444   2.748   8.135   2.729
 1476W        W 5445   3.138  10.374  11.969
 1477W        W 5446  10.519  10.031  10.979
 1478W        W 5447   7.585   4.310   1.379
 1479W        W 5448   2.304   7.973  10.871
 1480W        W 5449   8.495   6.219  11.836
 1481W        W 5450   8.883   9.525  10.916
 1482W        W 5451   5.561   0.454   0.294
 1483W        W 5452   6.102   8.027   8.452
 1484W        W 5453   6.046   7.057   4.242
 1485W        W 5454   4.107  10.886   8.966
 1486W        W 5455   0.749   3.693  11.286
 1487W        W 5456   4.296   8.962   0.899
 1488W        W 5457   2.760   2.213  11.816
 1489W        W 5458   7.988   6.685   9.852
 1490W        W 5459   9.564   2.873   9.535
 1491W        W 5460   9.924   9.003   9.982
 1492W        W 5461   3.644   0.896   9.086
 1493W        W 5462   4.768   8.953  11.409
 1494W        W 5463   8.900  10.792   2.228
 1495W        W 5464   3.828   5.148  10.553
 1496W        W 5465   6.526   3.719   0.404
 1497W        W 5466   8.002   9.455  10.072
 1498W        W 5467   9.003   5.657   2.858
 1499W        W 5468   7.658   4.232  10.948
 1500W        W 5469  10.867   9.885  11.966
 1501W        W 5470   3.316   9.095  10.045
 1502W        W 5471   5.657   5.087  11.427
 1503W        W 5472   3.324   6.015  10.362
 1504W        W 5473   6.477   6.593   1.766
 1505W        W 5474   9.380   6.160  10.931
 1506W        W 5475   7.113  10.825  10.934
 1507W        W 5476   8.112   9.064   1.289
 1508W        W 5477   3.192   7.955  10.497
 1509W        W 5478   4.308   2.237  10.390
 1510W        W 5479  10.916   2.793   9.098
 1511W        W 5480   0.420  10.909   1.243
 1512W        W 5481   0.757  11.354   1.283
 1513W        W 5482   8.928   7.075   9.542
 1514W        W 5483   2.325   3.178   1.820
 1515W        W 5484   9.087   7.181  11.914
 1516W        W 5485   2.830   8.013  11.941
 1517W        W 5486   2.344   0.343   1.823
 1518W        W 5487   1.295   9.936   2.784
 1519W        W 5488   8.963   0.723  11.476
 1520W        W 5489   2.852   3.191   3.227
 1521W        W 5490   4.155   2.865   0.267
 1522W        W 5491   4.754   4.198   9.101
 1523W        W 5492   4.667   2.804   1.244
 1524W        W 5493   5.095   5.556  10.933
 1525W        W 5494   5.659  10.856   3.187
 1526W        W 5495  10.982   6.160   9.887
 1527W        W 5496   1.216   4.783   9.558
 1528W        W 5497   2.301   4.213   8.449
 1529W        W 5498   2.308   2.696  11.485
 1530W        W 5499   5.743   7.102  10.465
 1531W        W 5500   1.310   0.764  10.914
 1532W        W 5501   8.977   4.195   9.366
 1533W        W 5502   7.609   5.103   1.879
 1534W        W 5503   5.075   1.722  11.502
 1535W        W 5504   6.690   6.050  10.057
 1536W        W 5505   6.516   4.663   2.328
 1537W        W 5506   1.211   5.733   1.248
 1538W        W 5507  10.438   0.727  11.981
 1539W        W 5508   3.221   9.023   2.163
 1540W        W 5509   3.346  10.843  10.938
 1541W        W 5510   7.930   4.150   3.220
 1542W        W 5511   3.327   3.629   2.694
 1543W        W 5512   4.767  10.817   9.873
 1544W        W 5513   9.866   0.449  10.524
 1545W        W 5514   5.524   3.195   9.042
 1546W        W 5515   9.080   4.606  10.852
 1547W        W 5516  10.941   1.706   0.907
 1548W        W 5517   5.065   3.603   1.319
 1549W        W 5518   8.880   4.295   8.939
 1550W        W 5519  10.034   5.238   1.225
 1551W        W 5520  10.006   7.930   0.273
 1552W        W 5521  10.475  10.852   3.240
 1553W        W 5522   9.903   2.167   2.798
 1554W        W 5523   1.324   2.392   0.927
 1555W        W 5524   6.987   0.365   1.237
 1556W        W 5525   2.167   2.221  10.854
 1557W        W 5526   7.187   6.994   2.210
 1558W        W 5527  11.351   9.462   2.835
 1559W        W 5528   8.966   6.514   9.106
 1560W        W 5529   3.212   8.865   9.118
 1561W        W 5530   4.297   9.431  10.484
 1562W        W 5531   1.799   2.349   0.256
 1563W        W 5532   4.639  10.415   1.275
 1564W        W 5533   6.030   6.032   3.122
 1565W        W 5534   3.667   5.536  11.801
 1566W        W 5535   0.247   9.068   2.305
 1567W        W 5536   6.226   6.018  11.859
 1568W        W 5537   0.828   6.662   1.809
 1569W        W 5538   5.127   3.771  10.844
 1570W        W 5539   9.576   6.193  11.335
 1571W        W 5540   8.994   3.236  10.469
 1572W        W 5541   4.645   0.345  11.838
 1573W        W 5542   1.821   8.898  11.460
 1574W        W 5543   9.497   0.470   9.597
 1575W        W 5544   9.845   0.755  11.484
 1576W        W 5545  10.508  11.341   1.829
 1577W        W 5546  10.950   1.267  10.998
 1578W        W 5547   3.793   3.180  10.955
 1579W        W 5548   0.398   3.817   2.327
 1580W        W 5549   4.712   0.901   0.931
 1581W        W 5550   9.104   8.119   9.963
 1582W        W 5551  10.888   0.289   0.956
 1583W        W 5552   9.942  10.530  10.056
 1584W        W 5553   8.415  11.368   0.329
 1585W        W 5554   0.887  10.410   2.378
 1586W        W 5555   5.089  11.372   2.693
 1587W        W 5556   5.540   4.255   3.694
 1588W        W 5557   1.883   9.965   9.362
 1589W        W 5558   5.219   1.212   2.197
 1590W        W 5559   6.674   2.679  10.552
 1591W        W 5560   5.072   4.215   4.156
 1592W        W 5561   9.019   6.168   8.472
 1593W        W 5562   8.890   7.483   1.293
 1594W        W 5563  10.314   4.291   9.868
 1595W        W 5564   2.204   8.981  11.880
 1596W        W 5565   7.983   5.071   4.304
 1597W        W 5566   7.627   7.180   1.392
 1598W        W 5567   1.898   6.966   3.214
 1599W        W 5568  11.313   6.083  10.076
 1600W        W 5569   4.198  10.361  11.368
 1601W        W 5570   9.393   9.871   1.304
 1602W        W 5571   5.545   9.968  11.382
 1603W        W 5572   2.802   0.879   1.240
 1604W        W 5573   3.322   2.319   9.554
 1605W        W 5574  11.007   9.404  11.913
 1606W        W 5575   2.364   2.280   0.896
 1607W        W 5576   8.977   6.701   1.813
 1608W        W 5577   7.611   5.546  10.005
 1609W        W 5578  10.972   4.143  10.966
 1610W        W 5579   7.937   4.729   2.381
 1611W        W 5580   7.477   4.783  10.958
 1612W        W 5581   4.093  11.427   2.678
 1613W        W 5582   3.601   6.707   0.380
 1614W        W 5583   6.077   0.930   8.472
 1615W        W 5584  10.927   7.978   0.267
 1616W        W 5585  10.926   1.764  10.419
 1617W        W 5586   9.429   2.691   1.892
 1618W        W 5587   1.735   1.231  10.038
 1619W        W 5588   0.386  10.437   2.399
 1620W        W 5589   9.383  11.378  11.324
 1621W        W 5590   9.949  11.429   9.397
 1622W        W 5591   2.770   5.522   0.256
 1623W        W 5592   3.198   2.833  10.474
 1624W        W 5593   4.154   3.678  11.415
 1625W        W 5594   6.583   2.287   0.744
 1626W        W 5595   2.202   1.797   9.093
 1627W        W 5596   2.271  11.313  11.410
 1628W        W 5597   4.189   0.724   0.256
 1629W        W 5598   9.359   8.088  10.046
 1630W        W 5599   5.100   8.540  10.996
 1631W        W 5600   0.751   6.110   0.831
 1632W        W 5601   3.159   4.195  11.371
 1633W        W 5602   2.289   8.508   3.193
 1634W        W 5603   1.809   0.259   9.578
 1635W        W 5604   6.596   4.083  10.379
 1636W        W 5605   4.276  11.413  10.911
 1637W        W 5606   6.023   6.055   0.726
 1638W        W 5607   0.248   1.712  10.025
 1639W        W 5608   1.304  10.334   1.352
 1640W        W 5609   3.769   6.642   9.445
 1641W        W 5610   1.273   1.697   9.094
 1642W        W 5611   7.976   0.426   1.841
 1643W        W 5612   6.161   8.953   9.909
 1644W        W 5613   8.008   4.213  11.354
 1645W        W 5614   8.590   8.446   1.870
 1646W        W 5615   8.008   6.573   3.254
 1647W        W 5616   9.583   6.972   2.222
 1648W        W 5617   0.814  11.444   0.851
 1649W        W 5618   8.589   8.596   3.723
 1650W        W 5619  11.416   9.082  10.862
 1651W        W 5620   1.338   6.178  11.952
 1652W        W 5621   8.968   6.034   0.438
 1653W        W 5622   8.569   3.232   8.957
 1654W        W 5623   4.775   7.925  11.812
 1655W        W 5624  11.367   9.467   1.802
 1656W        W 5625   6.605   8.118   9.424
 1657W        W 5626   7.057  10.349   9.372
 1658W        W 5627  11.004  10.540  11.433
 1659W        W 5628   5.646   6.010   2.270
 1660W        W 5629   6.182   6.151   2.791
 1661W        W 5630   3.115   8.588  10.539
 1662W        W 5631   2.787   5.651   2.828
 1663W        W 5632   0.342   9.436  11.294
 1664W        W 5633   3.242   6.013   3.148
 1665W        W 5634   0.731   1.700   3.623
 1666W        W 5635   0.352   6.951  11.917
 1667W        W 5636   3.679   3.603  11.925
 1668W        W 5637   9.906  11.271   1.838
 1669W        W 5638  10.458   1.267  11.472
 1670W        W 5639   6.193   8.099   0.447
 1671W        W 5640  10.952   9.833   1.398
 1672W        W 5641  10.885   1.268   9.525
 1673W        W 5642  10.338   6.512  11.882
 1674W        W 5643   0.931   1.204   3.243
 1675W        W 5644   0.896   3.760   2.378
 1676W        W 5645   9.462   1.865   2.288
 1677W        W 5646   3.351   2.159  10.861
 1678W        W 5647   4.630   0.907  10.023
 1679W        W 5648   1.351   2.173   1.780
 1680W        W 5649   8.969   4.631   2.212
 1681W        W 5650   5.641   8.947   9.884
 1682W        W 5651  10.923  10.057   2.171
 1683W        W 5652   8.976   1.802   0.831
 1684W        W 5653   8.041   7.475   1.401
 1685W        W 5654   8.999   7.653   2.760
 1686W        W 5655   9.842   6.988   8.888
 1687W        W 5656   3.236   3.177   1.247
 1688W        W 5657   9.079   7.663  11.894
 1689W        W 5658  10.475   3.673   9.548
 1690W        W 5659   7.909  10.376  11.860
 1691W        W 5660   9.997   9.044   9.044
 1692W        W 5661   6.953   4.740  11.946
 1693W        W 5662   6.644   1.265   9.543
 1694W        W 5663   6.199   9.101   2.686
 1695W        W 5664  10.054   9.007  11.030
 1696W        W 5665   8.454   7.132   0.723
 1697W        W 5666   2.745  11.367   9.029
 1698W        W 5667   2.320  11.440  10.410
 1699W        W 5668   6.628  10.894   1.330
 1700W        W 5669   4.715   8.962  11.827
 1701W        W 5670   9.378   2.728   0.855
 1702W        W 5671   5.097   2.698   3.357
 1703W        W 5672   0.362  10.435   1.393
 1704W        W 5673  10.016   4.635   2.230
 1705W        W 5674   9.842   0.433   9.969
 1706W        W 5675   3.242   9.959   1.362
 1707W        W 5676  10.942   6.534   1.208
 1708W        W 5677   6.212   3.815   1.906
 1709W        W 5678   4.258   4.136  11.321
 1710W        W 5679   0.766  11.010   3.325
 1711W        W 5680   9.477   8.052   1.893
 1712W        W 5681   0.264   6.000  11.866
 1713W        W 5682   4.119   9.977   3.183
 1714W        W 5683   9.384   3.760   2.199
 1715W        W 5684   2.745   2.663  10.371
 1716W        W 5685   0.796   4.221   0.763
 1717W        W 5686   1.914   0.842   8.622
 1718W        W 5687   3.624   3.702  11.403
 1719W        W 5688   2.179   5.569   8.996
 1720W        W 5689   7.980   5.664  11.022
 1721W        W 5690   5.190   9.383   8.923
 1722W        W 5691   3.670   7.464   3.238
 1723W        W 5692   5.650   3.707   2.182
 1724W        W 5693   5.083   3.673   2.641
 1725W        W 5694  11.431   6.677   2.230
 1726W        W 5695  10.408   3.232   2.681
 1727W        W 5696   5.658   7.643   1.900
 1728W        W 5697   7.148   0.827   8.576
 1729W        W 5698   7.929   5.143  10.378
 1730W        W 5699   4.767   0.951  10.900
 1731W        W 5700   2.731   3.205   0.356
 1732W        W 5701   0.438   0.335   3.282
 1733W        W 5702   3.277   3.761  10.379
 1734W        W 5703   3.246   6.050   9.977
 1735W        W 5704   9.847   2.812   1.419
 1736W        W 5705   0.476   8.517  10.069
 1737W        W 5706   7.054   2.728   0.361
 1738W        W 5707   8.042   9.991   2.269
 1739W        W 5708   0.847   8.520  11.289
 1740W        W 5709   6.149   5.095   2.238
 1741W        W 5710   1.888   2.342   1.803
 1742W        W 5711   3.250   5.222   2.349
 1743W        W 5712   5.691   5.134   0.390
 1744W        W 5713   5.146   9.888  11.951
 1745W        W 5714   1.417   5.733   1.749
 1746W        W 5715   2.392   9.045   9.006
 1747W        W 5716  10.405   7.163   8.913
 1748W        W 5717   5.690   7.923   8.550
 1749W        W 5718   4.734   0.832   3.833
 1750W        W 5719   6.654   2.395   9.512
 1751W        W 5720   1.278   7.570   9.026
 1752W        W 5721  11.287   2.851   1.758
 1753W        W 5722   3.612   2.336   2.839
 1754W        W 5723  10.880   3.602   0.854
 1755W        W 5724  10.998   6.178   0.399
 1756W        W 5725   0.896   8.452  10.536
 1757W        W 5726   2.704   0.461  11.322
 1758W        W 5727  11.396   7.981   2.346
 1759W        W 5728   7.520  10.787   2.289
 1760W        W 5729  10.321   0.472   8.973
 1761W        W 5730   5.642   6.633   0.382
 1762W        W 5731   2.797   0.291   0.424
 1763W        W 5732   3.638   4.073   1.910
 1764W        W 5733   9.389   2.810  11.025
 1765W        W 5734   4.675   9.513   9.465
 1766W        W 5735   8.621   5.151   0.478
 1767W        W 5736   5.196   4.091  11.810
 1768W        W 5737   1.786   9.549   9.384
 1769W        W 5738   4.664   1.292  11.404
 1770W        W 5739   5.567   9.398  11.907
 1771W        W 5740   1.884   0.461   1.377
 1772W        W 5741   2.659   3.639   2.875
 1773W        W 5742   9.877   4.711   1.248
 1774W        W 5743   8.919   4.729   2.726
 1775W        W 5744  11.401   9.371   3.134
 1776W        W 5745   4.560   4.637   0.338
 1777W        W 5746  10.430   6.093   3.685
 1778W        W 5747   7.133  10.012   2.372
 1779W        W 5748   6.071   4.621  10.343
 1780W        W 5749  10.917   0.758   0.907
 1781W        W 5750   8.491   9.990  10.448
 1782W        W 5751   2.707   3.707   1.409
 1783W        W 5752   3.629  10.419   0.868
 1784W        W 5753  10.967  11.408  11.795
 1785W        W 5754   4.689   9.449   1.210
 1786W        W 5755   4.610  10.824   1.816
 1787W        W 5756   9.093  11.439  10.460
 1788W        W 5757   4.179   7.647  10.982
 1789W        W 5758   5.515  10.968   1.371
 1790W        W 5759   8.096   3.264  11.512
 1791W        W 5760   5.526   6.948  10.027
 1792W        W 5761   9.944   5.154  10.531
 1793W        W 5762   5.994   3.275   2.324
 1794W        W 5763   8.591   5.092   3.204
 1795W        W 5764  10.824   0.889   0.341
 1796W        W 5765  10.039   6.132  11.902
 1797W        W 5766   8.975   3.604  10.079
 1798W        W 5767   4.576   7.039   2.259
 1799W        W 5768   3.132   8.017  11.792
 1800W        W 5769   0.934   8.059  10.979
 1801W        W 5770   2.368   0.918   3.201
 1802W        W 5771   4.227   8.564   9.434
 1803W        W 5772   8.513   7.930   3.146
 1804W        W 5773   7.622  11.466  10.487
 1805W        W 5774   1.739   3.628   1.349
 1806W        W 5775   7.119   4.695   7.965
 1807W        W 5776   6.131  11.400   9.093
 1808W        W 5777   8.028   5.564   1.729
 1809W        W 5778   5.513   1.694   9.107
 1810W        W 5779   2.766   2.709   1.806
 1811W        W 5780   0.384   4.150   0.360
 1812W        W 5781   2.204   8.511   8.919
 1813W        W 5782   3.771  11.007   8.433
 1814W        W 5783   8.409  10.797  11.787
 1815W        W 5784   9.460  11.500   9.369
 1816W        W 5785   5.724   8.080   3.685
 1817W        W 5786   9.068   9.964   2.879
 1818W        W 5787   0.293   0.376   0.960
 1819W        W 5788   6.083   8.117   0.794
 1820W        W 5789   6.150   4.109   7.987
 1821W        W 5790   5.213   2.720  11.794
 1822W        W 5791   3.122   8.476   3.146
 1823W        W 5792   3.141   5.613   1.393
 1824W        W 5793   0.807  10.452  10.552
 1825W        W 5794   5.738   6.670   3.608
 1826W        W 5795   6.053   4.209   3.833
 1827W        W 5796   9.082   5.165   1.432
 1828W        W 5797   6.193   4.117   0.949
 1829W        W 5798   4.661   3.693  10.984
 1830W        W 5799   6.521   7.949   8.460
 1831W        W 5800   0.901   2.765   0.803
 1832W        W 5801   1.787   3.188   1.751
 1833W        W 5802  10.791   5.601   2.317
 1834W        W 5803   9.472   4.148  10.935
 1835W        W 5804   3.637   6.224   9.870
 1836W        W 5805   3.623   3.709   9.885
 1837W        W 5806   6.192   5.212  10.371
 1838W        W 5807   9.848   4.616   8.934
 1839W        W 5808  11.012   7.514   9.071
 1840W        W 5809   4.276   5.541  10.962
 1841W        W 5810   5.741  10.519   8.920
 1842W        W 5811   6.009   3.833   2.765
 1843W        W 5812   7.171   9.947   0.291
 1844W        W 5813   3.155   9.540   3.759
 1845W        W 5814  11.447   8.000   1.915
 1846W        W 5815   5.648   4.199   0.284
 1847W        W 5816   4.076   6.657   0.285
 1848W        W 5817   7.072   0.722  10.379
 1849W        W 5818  10.411  10.410   0.476
 1850W        W 5819   2.751   2.747  11.827
 1851W        W 5820   9.850   2.729  11.506
 1852W        W 5821   4.579   6.499   3.629
 1853W        W 5822   1.209   8.937   2.341
 1854W        W 5823   2.290   3.136  10.479
 1855W        W 5824   8.098   9.022   9.436
 1856W        W 5825   3.224   4.119   2.728
 1857W        W 5826  11.423   9.489   9.480
 1858W        W 5827   2.721   3.826   8.881
 1859W        W 5828   8.999   8.037   2.202
 1860W        W 5829   7.471   2.701   2.649
 1861W        W 5830   7.446   3.123  10.902
 1862W        W 5831   8.498   0.830   1.347
 1863W        W 5832   6.648   0.897  11.428
 1864W        W 5833   6.501   2.220   2.361
 1865W        W 5834   9.510   8.586  11.473
 1866W        W 5835   3.261   9.921   2.161
 1867W        W 5836   4.561   0.458   1.210
 1868W        W 5837   6.609   1.363  11.986
 1869W        W 5838   5.163   0.909   3.123
 1870W        W 5839   4.147   5.150  10.398
 1871W        W 5840   0.788   8.500   9.500
 1872W        W 5841  10.854   8.548  10.898
 1873W        W 5842   7.096   9.868   1.282
 1874W        W 5843   1.906   2.278  10.002
 1875W        W 5844   6.624   8.465   0.368
 1876W        W 5845   3.348   9.061  11.347
 1877W        W 5846   6.088   7.993  11.020
 1878W        W 5847   6.138   6.542   9.932
 1879W        W 5848   1.236   0.879   0.889
 1880W        W 5849   1.240   3.276   9.917
 1881W        W 5850   1.812   4.595   3.171
 1882W        W 5851   4.172   6.702   2.754
 1883W        W 5852   5.995   1.706   9.520
 1884W        W 5853  10.842   8.913   2.864
 1885W        W 5854   9.948   8.414   8.916
 1886W        W 5855   1.379   7.978  11.973
 1887W        W 5856   9.466   6.625   1.319
 1888W        W 5857   9.344   4.555   3.655
 1889W        W 5858   0.722   6.500  11.817
 1890W        W 5859   2.695  10.512  11.506
 1891W        W 5860   3.832   2.170   8.989
 1892W        W 5861  10.913  10.796   9.923
 1893W        W 5862  10.960   6.566   3.248
 1894W        W 5863   8.063  10.050  10.018
 1895W        W 5864   4.721  10.783   3.216
 1896W        W 5865   1.435   9.552  11.893
 1897W        W 5866   9.543   2.792   1.321
 1898W        W 5867   4.255  10.834  10.552
 1899W        W 5868   9.376   5.103  10.915
 1900W        W 5869   3.289   3.812  11.384
 1901W        W 5870   5.712   4.220   9.984
 1902W        W 5871   4.227   9.887  10.321
 1903W        W 5872   1.333   8.897   2.781
 1904W        W 5873   2.864  10.002   2.828
 1905W        W 5874   6.514   9.395   9.411
 1906W        W 5875   1.278   5.652   0.402
 1907W        W 5876   8.945   4.289   9.959
 1908W        W 5877   9.912   7.021   2.732
 1909W        W 5878   2.277   5.205   0.862
 1910W        W 5879   4.208   3.184  10.846
 1911W        W 5880   1.295   5.654   9.526
 1912W        W 5881   1.259   2.770   3.345
 1913W        W 5882   1.828   6.596  10.970
 1914W        W 5883   1.258  11.005   9.507
 1915W        W 5884   4.086   5.250  11.408
 1916W        W 5885   0.437  10.325   8.966
 1917W        W 5886   4.784   5.593   9.427
 1918W        W 5887   1.408   3.654   1.884
 1919W        W 5888   0.476   3.623   9.868
 1920W        W 5889   9.916   0.430   8.893
 1921W        W 5890   9.392   1.827   8.929
 1922W        W 5891   4.557   3.140   0.405
 1923W        W 5892   9.088   0.363   9.593
 1924W        W 5893   3.601   4.169   3.226
 1925W        W 5894   8.611   5.516  10.874
 1926W        W 5895   5.609   8.465   1.700
 1927W        W 5896  10.040   2.734   9.426
 1928W        W 5897  10.514   3.350  10.965
 1929W        W 5898   7.928   9.461   9.002
 1930W        W 5899   0.763   7.910   2.205
 1931W        W 5900   0.751   8.015   9.482
 1932W        W 5901   9.103   6.494   2.862
 1933W        W 5902   8.497  10.356   0.353
 1934W        W 5903   6.563   2.662  11.286
 1935W        W 5904   0.410   6.207   1.300
 1936W        W 5905   1.834   2.848   1.320
 1937W        W 5906   3.636   8.534   1.749
 1938W        W 5907   3.635   4.756  10.898
 1939W        W 5908   8.063   2.753   8.415
 1940W        W 5909   1.321  10.994   0.895
 1941W        W 5910   6.504   9.898   0.277
 1942W        W 5911   6.124   6.101  11.356
 1943W        W 5912   4.706  11.357   2.796
 1944W        W 5913   7.155   9.488   1.889
 1945W        W 5914  10.521  11.303  11.993
 1946W        W 5915   2.309   6.193  11.871
 1947W        W 5916   7.614   3.230   1.426
 1948W        W 5917   5.599   4.083   3.306
 1949W        W 5918   8.026  10.858   1.863
 1950W        W 5919   2.291  10.954  10.927
 1951W        W 5920  11.435   4.204   2.833
 1952W        W 5921   7.156   2.645   9.473
 1953W        W 5922   9.475   0.865   1.848
 1954W        W 5923   7.171   3.178   2.816
 1955W        W 5924   2.175   3.820   3.182
 1956W        W 5925  10.523   3.195   9.937
 1957W        W 5926   1.285   9.068   1.893
 1958W        W 5927   3.702   2.367   8.471
 1959W        W 5928  10.438   3.828   9.901
 1960W        W 5929   6.993   5.697   1.909
 1961W        W 5930   4.724   2.745   0.882
 1962W        W 5931   6.221   3.670   1.356
 1963W        W 5932   8.594  10.931   9.529
 1964W        W 5933   4.601   5.243   0.851
 1965W        W 5934   6.955   4.686   1.759
 1966W        W 5935  10.927  11.269   0.274
 1967W        W 5936   9.492   6.063  11.807
 1968W        W 5937   6.654  10.504   9.471
 1969W        W 5938   5.139  10.856   8.902
 1970W        W 5939   6.077   2.388   1.351
 1971W        W 5940   4.740   0.414   2.271
 1972W        W 5941   0.420   2.801  10.332
 1973W        W 5942  10.875   1.865   2.672
 1974W        W 5943   6.507   6.044   0.786
 1975W        W 5944   1.712  10.024   1.825
 1976W        W 5945   1.249   0.865   9.085
 1977W        W 5946   3.612   9.426   9.585
 1978W        W 5947  10.471   2.636   2.273
 1979W        W 5948   1.236   8.125   9.438
 1980W        W 5949   0.316   0.724   2.289
 1981W        W 5950   1.748   5.667   1.285
 1982W        W 5951   3.182   8.959   3.160
 1983W        W 5952   9.958   5.203   9.922
 1984W        W 5953   2.332   1.680   1.775
 1985W        W 5954   8.453   3.308  10.387
 1986W        W 5955   3.829   3.151  11.283
 1987W        W 5956   8.929   6.111   8.949
 1988W        W 5957  11.280   5.748  11.280
 1989W        W 5958   1.792   4.606   1.209
 1990W        W 5959   8.597   2.680   2.840
 1991W        W 5960  11.393  10.419  11.030
 1992W        W 5961  10.002   2.637  10.508
 1993W        W 5962   8.491   0.946  10.453
 1994W        W 5963   5.696   2.229   2.703
 1995W        W 5964   5.711   0.400   9.588
 1996W        W 5965  10.962   5.209  11.416
 1997W        W 5966   9.895   3.599   9.597
 1998W        W 5967   0.461   7.133   2.812
 1999W        W 5968   3.257  11.315   1.246
 2000W        W 5969   6.669   6.070   8.541
 2001W        W 5970   1.255   6.985   8.467
 2002W        W 5971  11.356   5.618   9.427
 2003W        W 5972   9.950   6.182   2.258
 2004W        W 5973   5.130  10.384   2.200
 2005W        W 5974   0.444  10.044   3.199
 2006W        W 5975   9.379   9.412   0.291
 2007W        W 5976   8.924  10.451   2.226
 2008W        W 5977   1.783   8.895   1.772
 2009W        W 5978   2.294   2.820  10.071
 2010W        W 5979   4.112   4.305   1.685
 2011W        W 5980   2.334   1.786   3.622
 2012W        W 5981   4.222   3.162   9.946
 2013W        W 5982   0.300   1.381   1.801
 2014W        W 5983   8.490  10.988   2.748
 2015W        W 5984   4.712   3.804   2.682
 2016W        W 5985   6.615   8.610  10.455
 2017W        W 5986   3.167  10.523  10.030
 2018W        W 5987   3.235   1.824   9.011
 2019W        W 5988   9.432  10.904   0.889
 2020W        W 5989   3.599   8.045   0.859
 2021W        W 5990   5.728   8.102   9.109
 2022W        W 5991   4.076   2.648   2.288
 2023W        W 5992   7.581  10.910   0.386
 2024W        W 5993   3.612   2.239   0.277
 2025W        W 5994   6.561   1.358   9.093
 2026W        W 5995   8.006   8.449   2.812
 2027W        W 5996   0.950   0.418   2.346
 2028W        W 5997   7.175   3.236   0.331
 2029W        W 5998   4.185   9.049   1.708
 2030W        W 5999   3.259   0.390   3.789
 2031W        W 6000   3.598   3.752   1.820
 2032W        W 6001  10.041   4.731  11.007
 2033W        W 6002   7.154   1.833   2.715
 2034W        W 6003   8.442   3.682  11.419
 2035W        W 6004  11.414   9.934   9.431
 2036W        W 6005   9.919  11.373   0.759
 2037W        W 6006   1.412   5.035   2.190
 2038W        W 6007   2.363   6.046   9.007
 2039W        W 6008   3.148   9.503   0.303
 2040W        W 6009   8.617   5.170  11.918
 2041W        W 6010   6.016   6.005  11.031
 2042W        W 6011  10.507   3.343   0.265
 2043W        W 6012   3.277  11.330  10.873
 2044W        W 6013   8.454   8.875   1.244
 2045W        W 6014   1.722   6.155   2.329
 2046W        W 6015   1.905  10.944   9.404
 2047W        W 6016  11.302   9.849  11.378
 2048W        W 6017   5.129   8.881   0.765
 2049W        W 6018  10.411  11.436  10.995
 2050W        W 6019  11.463   7.474   1.887
 2051W        W 6020   9.906   5.625  11.993
 2052W        W 6021   1.294   1.411   3.170
 2053W        W 6022   4.762   1.737  11.965
 2054W        W 6023   6.484   7.521   0.947
 2055W        W 6024   5.131   6.476   3.804
 2056W        W 6025   3.715   3.208   1.322
 2057W        W 6026   7.128   9.005  10.923
 2058W        W 6027   3.151   2.775   1.913
 2059W        W 6028   2.222   7.986   1.224
 2060W        W 6029   3.797   0.328   3.132
 2061W        W 6030   4.214  11.492  10.550
 2062W        W 6031  10.496   5.076  11.477
 2063W        W 6032   2.667   8.912   0.782
 2064W        W 6033  10.939   3.193   9.390
 2065W        W 6034   4.096   7.020   9.538
 2066W        W 6035   3.699   3.133  11.907
 2067W        W 6036  11.268   3.196   9.907
 2068W        W 6037   2.188   8.876  11.360
 2069W        W 6038   6.065  11.000  10.863
 2070W        W 6039   2.177   2.373  11.378
 2071W        W 6040   3.126   8.915  10.552
 2072W        W 6041   1.352   5.264   1.774
 2073W        W 6042   9.839   4.579  10.450
 2074W        W 6043   3.832   8.014   8.480
 2075W        W 6044   8.012  10.393   1.713
 2076W        W 6045   7.053   8.505   0.286
 2077W        W 6046   5.516   2.377   9.847
 2078W        W 6047   0.898   6.201   1.410
 2079W        W 6048   1.763   6.555  11.956
 2080W        W 6049   6.037   8.874   1.863
 2081W        W 6050   0.800   1.720   9.059
 2082W        W 6051   2.733   1.224  10.355
 2083W        W 6052   6.177   0.291   2.291
 2084W        W 6053   8.490   9.908   1.718
 2085W        W 6054  11.443   0.754  11.877
 2086W        W 6055   7.036   8.109   9.847
 2087W        W 6056   8.494  10.045  10.861
 2088W        W 6057   3.340   2.277   9.855
 2089W        W 6058   1.831   6.572   1.832
 2090W        W 6059   3.666   9.036   8.888
 2091W        W 6060   2.222   3.657  11.426
 2092W        W 6061   9.987   0.325   1.380
 2093W        W 6062   8.066   1.229  11.390
 2094W        W 6063   2.854   1.717  11.386
 2095W        W 6064   8.406   9.423  11.867
 2096W        W 6065   0.376   8.047   9.398
 2097W        W 6066   2.871   3.351   8.584
 2098W        W 6067   1.235   9.532   3.312
 2099W        W 6068  10.917   7.107  10.910
 2100W        W 6069   3.736   7.575   0.444
 2101W        W 6070   2.163   7.499   3.154
 2102W        W 6071   1.874   1.228   1.918
 2103W        W 6072   9.355   9.499  11.860
 2104W        W 6073   1.345  10.337   1.708
 2105W        W 6074   8.106  11.474   0.828
 2106W        W 6075   8.598   0.923   2.316
 2107W        W 6076   4.287   4.628  11.902
 2108W        W 6077   2.750   7.600   4.134
 2109W        W 6078   9.352  10.016   9.052
 2110W        W 6079   8.122   5.148   3.614
 2111W        W 6080   9.558  10.912  11.492
 2112W        W 6081   9.070   3.676  10.991
 2113W        W 6082   6.109   9.568   0.857
 2114W        W 6083   2.835  10.902   0.307
 2115W        W 6084  10.315   0.364   3.253
 2116W        W 6085   1.394   2.348  11.962
 2117W        W 6086  10.956   0.894   8.624
 2118W        W 6087   8.905  11.435   2.196
 2119W        W 6088   8.144   7.584   1.820
 2120W        W 6089   3.123   1.372   3.283
 2121W        W 6090   2.383   5.082   3.819
 2122W        W 6091   0.402   6.692   9.999
 2123W        W 6092  10.339   7.098  11.879
 2124W        W 6093  10.928   6.135  11.031
 2125W        W 6094   1.742   2.764   3.137
 2126W        W 6095   9.948   2.641   9.064
 2127W        W 6096   4.756   9.952   1.362
 2128W        W 6097   5.657  11.468   8.883
 2129W        W 6098   2.875   4.568   1.402
 2130W        W 6099   4.567  11.403  11.941
 2131W        W 6100   8.989   9.428  10.351
 2132W        W 6101   3.160   8.033   0.797
 2133W        W 6102   5.669   8.127   1.779
 2134W        W 6103   6.568   3.146   9.492
 2135W        W 6104   1.241   2.374   1.398
 2136W        W 6105   5.594   5.575   0.366
 2137W        W 6106   9.034   6.178  11.303
 2138W        W 6107  11.475   6.685   0.787
 2139W        W 6108   6.534  10.527   1.317
 2140W        W 6109   4.275   6.470   0.728
 2141W        W 6110  10.783   5.075   1.368
 2142W        W 6111   0.266  10.541   9.990
 2143W        W 6112   7.144   3.659   2.200
 2144W        W 6113   4.170   8.012   0.864
 2145W        W 6114   5.634   3.216   1.789
 2146W        W 6115  11.287   0.316  10.888
 2147W        W 6116   1.899  10.393   2.814
 2148W        W 6117   0.801   9.872   1.379
 2149W        W 6118  10.404   8.884  11.289
 2150W        W 6119   9.859   7.949   9.543
 2151W        W 6120   1.886   2.259  11.800
 2152W        W 6121   6.087   6.129   8.928
 2153W        W 6122   0.853   1.707   1.816
 2154W        W 6123   2.236  11.323  10.861
 2155W        W 6124   4.309  10.304   2.186
 2156W        W 6125   5.173   9.485   4.117
 2157W        W 6126   2.874   8.545   8.058
 2158W        W 6127   2.711   3.246  10.842
 2159W        W 6128   7.614   3.278  11.884
 2160W        W 6129   5.587   4.636   0.477
 2161W        W 6130   1.818   0.465   3.178
 2162W        W 6131  10.847   6.114   2.344
 2163W        W 6132   7.007   9.853  11.445
 2164W        W 6133   5.525   4.787  10.021
 2165W        W 6134  11.261   5.060   1.764
 2166W        W 6135   8.085   2.724   9.085
 2167W        W 6136   4.294   3.206   2.770
 2168W        W 6137   3.718  11.014   0.315
 2169W        W 6138   2.347   9.098   3.272
 2170W        W 6139   1.847   1.735   0.837
 2171W        W 6140   0.273   9.831  10.389
 2172W        W 6141  10.361   5.678   9.596
 2173W        W 6142  10.800   9.500  10.454
 2174W        W 6143   1.378   1.751  11.459
 2175W        W 6144   9.037   3.703   1.807
 2176W        W 6145   2.701   3.257   1.840
 2177W        W 6146   8.600   1.678   9.409
 2178W        W 6147   8.001  11.004  10.528
 2179W        W 6148   8.013   5.096   0.460
 2180W        W 6149   2.334   5.158  11.761
 2181W        W 6150   3.198   8.051   1.390
 2182W        W 6151   3.774   7.491   9.409
 2183W        W 6152   1.282   9.484   2.335
 2184W        W 6153   7.448  10.511   9.103
 2185W        W 6154  11.332   0.799   9.967
 2186W        W 6155  10.464   2.231   0.416
 2187W        W 6156  10.796   6.093  11.320
 2188W        W 6157   1.723   3.122   9.065
 2189W        W 6158  10.010   6.228  10.026
 2190W        W 6159   6.115  10.804   2.713
 2191W        W 6160  11.471   2.720   2.345
 2192W        W 6161   7.149   7.129  11.452
 2193W        W 6162  11.493   3.204  11.358
 2194W        W 6163   5.524   0.779   2.362
 2195W        W 6164   0.290   3.305  11.811
 2196W        W 6165   3.828   1.286  11.307
 2197W        W 6166   1.872   0.280  10.976
 2198W        W 6167   6.187   4.214  10.443
 2199W        W 6168   9.431   7.508   9.057
 2200W        W 6169   3.257   5.197   9.479
 2201W        W 6170   3.199   3.181   3.260
 2202W        W 6171   3.616   9.441  10.366
 2203W        W 6172  10.429   0.293   2.698
 2204W        W 6173   4.148   8.936   9.562
 2205W        W 6174   5.544   8.130   4.163
 2206W        W 6175   2.214   8.576   2.303
 2207W        W 6176  10.499   6.645   2.390
 2208W        W 6177   8.145   9.897   0.350
 2209W        W 6178  11.378   3.761   0.906
 2210W        W 6179   0.821   7.466   1.838
 2211W        W 6180  10.322   6.631   1.248
 2212W        W 6181   1.861   9.440  11.345
 2213W        W 6182   3.328   2.200  10.401
 2214W        W 6183   8.608   2.793   3.730
 2215W        W 6184   4.721   2.339   9.570
 2216W        W 6185   3.306   9.347  11.794
 2217W        W 6186   1.914   5.622   0.359
 2218W        W 6187   9.956   1.424   2.724
 2219W        W 6188   1.248   3.771   1.321
 2220W        W 6189   9.405   9.940  11.006
 2221W        W 6190   0.921   6.227  10.509
 2222W        W 6191   9.930   0.908   8.924
 2223W        W 6192   8.901   1.323   3.180
 2224W        W 6193   9.358   8.025  11.342
 2225W        W 6194   1.888   1.887   1.296
 2226W        W 6195   4.309   4.309   0.328
 2227W        W 6196   8.624   1.715   0.471
 2228W        W 6197   9.900   6.589   1.874
 2229W        W 6198   1.790   9.516   1.804
 2230W        W 6199   4.619   8.455  10.011
 2231W        W 6200   3.803   9.965   8.903
 2232W        W 6201   3.736   0.294   2.292
 2233W        W 6202   0.390   9.049   9.496
 2234W        W 6203   2.254   3.340   3.223
 2235W        W 6204   5.215   3.158   9.998
 2236W        W 6205   5.169   8.397   3.222
 2237W        W 6206   1.210   1.904  11.784
 2238W        W 6207   9.955  10.504  11.988
 2239W        W 6208   4.659   4.223   3.205
 2240W        W 6209   4.295   2.784   0.886
 2241W        W 6210   8.061   3.601   1.880
 2242W        W 6211   0.368  10.415   1.896
 2243W        W 6212   7.949   4.198   9.414
 2244W        W 6213   0.880   3.722   8.958
 2245W        W 6214   7.005   3.335  10.895
 2246W        W 6215   1.692  10.465  10.540
 2247W        W 6216   6.585   4.637   0.754
 2248W        W 6217   5.060   1.254   9.501
 2249W        W 6218  11.383   7.122   1.298
 2250W        W 6219   2.172  11.438   2.278
 2251W        W 6220   6.965   0.477   9.412
 2252W        W 6221   2.787   5.607  11.986
 2253W        W 6222   5.574   9.349   2.237
 2254W        W 6223   0.801   4.753  10.979
 2255W        W 6224   1.760   8.025   9.976
 2256W        W 6225   2.319   8.926   1.279
 2257W        W 6226   9.492   8.493   1.781
 2258W        W 6227   8.463   2.323   3.169
 2259W        W 6228   7.104   9.559   0.833
 2260W        W 6229   9.425   7.580  11.822
 2261W        W 6230  11.294   5.996   1.384
 2262W        W 6231  10.512   6.189   2.168
 2263W        W 6232   7.663   0.938   9.383
 2264W        W 6233   1.289   9.419  11.023
 2265W        W 6234   9.868   1.850   2.190
 2266W        W 6235   3.306   6.107   1.318
 2267W        W 6236   3.739   9.395  11.297
 2268W        W 6237   5.177   5.614   0.276
 2269W        W 6238   8.556   3.771  10.401
 2270W        W 6239   0.753   9.865  11.516
 2271W        W 6240  10.045   9.014   2.243
 2272W        W 6241  10.928   3.331   0.729
 2273W        W 6242  10.017   7.509   9.060
 2274W        W 6243  10.827   7.454  11.016
 2275W        W 6244   5.723   4.232   9.549
 2276W        W 6245   6.983   7.566  11.431
 2277W        W 6246   1.841   0.252   1.756
 2278W        W 6247   9.496   0.724  10.836
 2279W        W 6248   3.670   3.256   0.931
 2280W        W 6249   8.538   6.585   0.922
 2281W        W 6250   1.875   8.872   9.893
 2282W        W 6251   3.129   0.241  11.987
 2283W        W 6252   1.372   7.111  11.961
 2284W        W 6253   2.783   8.055  10.938
 2285W        W 6254  10.505  11.297   2.680
 2286W        W 6255   0.862   9.908   9.974
 2287W        W 6256   6.609   9.895   1.783
 2288W        W 6257   6.505   0.825   3.306
 2289W        W 6258   7.477   6.208   1.255
 2290W        W 6259   7.910   5.624   0.311
 2291W        W 6260   9.438   3.758  11.004
 2292W        W 6261  10.357   7.149   2.717
 2293W        W 6262   2.364   8.546   0.320
 2294W        W 6263   5.232   7.038   1.876
 2295W        W 6264   8.595  11.469  11.289
 2296W        W 6265   5.613  10.461   3.210
 2297W        W 6266  10.347   2.650  11.868
 2298W        W 6267   6.682   0.907  10.926
 2299W        W 6268  10.936   1.357   2.693
 2300W        W 6269   7.629   2.669   3.251
 2301W        W 6270   8.997   4.292  11.874
 2302W        W 6271   1.746  10.317   0.265
 2303W        W 6272  10.422   3.706   1.692
 2304W        W 6273  10.907  10.021  10.904
 2305W        W 6274   7.463   6.184  11.369
 2306W        W 6275   4.673   9.448   0.923
 2307W        W 6276  10.331  11.322   9.494
 2308W        W 6277   5.522   3.648   3.148
 2309W        W 6278   5.694   4.584   0.926
 2310W        W 6279   0.387   0.807   9.985
 2311W        W 6280   1.395   8.600   0.460
 2312W        W 6281   7.531   5.689  11.471
 2313W        W 6282   0.299   3.759  11.469
 2314W        W 6283  10.419   3.622   3.318
 2315W        W 6284   1.219   3.793   9.062
 2316W        W 6285  10.522   7.652  10.451
 2317W        W 6286  10.899   8.966   9.534
 2318W        W 6287   3.690   4.693   0.317
 2319W        W 6288  10.426  10.536   2.206
 2320W        W 6289   6.690   6.197   9.390
 2321W        W 6290   6.074   0.743   0.261
 2322W        W 6291   6.572   7.447  10.405
 2323W        W 6292   5.208   3.776   8.983
 2324W        W 6293   4.690   2.175   1.254
 2325W        W 6294   4.094   4.781   0.372
 2326W        W 6295  10.833   7.003  11.335
 2327W        W 6296   8.073   5.990   1.261
 2328W        W 6297  10.373   4.123  11.421
 2329W        W 6298   6.527   9.910   9.922
 2330W        W 6299   8.407   3.703  10.040
 2331W        W 6300   3.174   9.467   1.255
 2332W        W 6301   8.137   1.200   9.992
 2333W        W 6302   9.894   6.204  10.387
 2334W        W 6303   2.778   1.234   3.248
 2335W        W 6304   4.118   7.161   0.272
 2336W        W 6305   3.669   1.798  10.890
 2337W        W 6306   1.730   3.717   2.755
 2338W        W 6307   7.911  10.009   0.917
 2339W        W 6308  11.321   7.147  10.809
 2340W        W 6309  10.384   7.964   2.775
 2341W        W 6310   9.517   8.545  10.396
 2342W        W 6311   6.580  10.533   9.909
 2343W        W 6312   7.103   5.267  11.792
 2344W        W 6313   2.294   9.427   2.218
 2345W        W 6314   4.239   8.402   2.875
 2346W        W 6315  10.322   8.059  11.976
 2347W        W 6316   5.592   6.977   2.227
 2348W        W 6317   2.827   6.957  10.419
 2349W        W 6318   3.818   4.677   8.924
 2350W        W 6319   0.457   0.876  10.539
 2351W        W 6320  11.262   3.644   9.879
 2352W        W 6321   6.107   3.315   2.843
 2353W        W 6322   1.322   8.956  11.778
 2354W        W 6323   3.759   8.409   2.286
 2355W        W 6324  11.279   9.920  11.020
 2356W        W 6325   0.381   6.200   9.402
 2357W        W 6326   3.745  10.438   2.399
 2358W        W 6327   1.866   4.200  11.839
 2359W        W 6328   8.046   1.385   2.674
 2360W        W 6329   2.331  10.982   9.969
 2361W        W 6330   1.200  10.869  11.790
 2362W        W 6331   7.527   4.570   0.867
 2363W        W 6332   4.589   0.916   9.083
 2364W        W 6333   7.584   8.480  10.862
 2365W        W 6334   3.302   1.717  10.455
 2366W        W 6335   8.537   8.114  10.396
 2367W        W 6336   3.126   0.434   8.445
 2368W        W 6337   6.119   6.955  11.362
 2369W        W 6338   0.421   7.907   1.689
 2370W        W 6339   4.628   0.255   3.220
 2371W        W 6340   6.182   6.977   2.687
 2372W        W 6341   2.236   6.623   0.295
 2373W        W 6342   2.853   5.162  10.013
 2374W        W 6343   6.080  10.787   0.906
 2375W        W 6344   8.912   9.370   0.348
 2376W        W 6345   0.759  11.320   2.297
 2377W        W 6346   8.896   0.379   3.243
 2378W        W 6347   4.559  10.377  10.824
 2379W        W 6348   4.158   7.658   2.775
 2380W        W 6349   1.741   8.981   8.886
 2381W        W 6350   5.590   0.290   0.932
 2382W        W 6351   5.079   6.997  11.420
 2383W        W 6352  10.381   9.969   2.749
 2384W        W 6353   2.674   8.614  11.500
 2385W        W 6354  10.957   4.276  11.477
 2386W        W 6355   1.391   2.754   0.802
 2387W        W 6356   3.127  11.379   9.364
 2388W        W 6357   7.467   7.584   9.585
 2389W        W 6358   6.605   2.252  11.998
 2390W        W 6359   8.532   5.535   1.701
 2391W        W 6360   2.173   9.947  10.425
 2392W        W 6361   2.783   7.059   0.259
 2393W        W 6362   2.391   7.539   2.787
 2394W        W 6363  11.458   7.587   2.245
 2395W        W 6364   2.740   6.068   9.464
 2396W        W 6365   6.139   0.920   2.362
 2397W        W 6366  11.466   2.873   1.318
 2398W        W 6367   7.627   0.264  11.952
 2399W        W 6368   4.612  10.488   9.864
 2400W        W 6369   9.426   5.689   1.744
 2401W        W 6370   5.698   9.896  10.047
 2402W        W 6371  10.890   0.450   8.947
 2403W        W 6372   6.221   8.544   2.668
 2404W        W 6373   6.984   6.013   1.827
 2405W        W 6374   8.485   9.409   8.906
 2406W        W 6375   6.577   9.075   8.575
 2407W        W 6376   8.535  11.386   1.282
 2408W        W 6377   6.628   3.768   0.815
 2409W        W 6378   5.620   7.020   3.249
 2410W        W 6379   8.131   6.474   2.235
 2411W        W 6380   9.393  11.445   2.273
 2412W        W 6381   1.892   4.615  11.414
 2413W        W 6382   6.529   2.832   1.370
 2414W        W 6383   1.719   7.485   1.373
 2415W        W 6384   4.748   7.970  11.367
 2416W        W 6385  10.534   9.091   0.787
 2417W        W 6386   6.488   4.194  11.341
 2418W        W 6387   3.307   1.897   0.303
 2419W        W 6388   9.016   6.649   4.080
 2420W        W 6389   1.909   8.549   1.254
 2421W        W 6390   7.450   4.676   0.452
 2422W        W 6391   3.253   0.457   1.862
 2423W        W 6392   0.941   6.598   3.210
 2424W        W 6393   8.000   5.177   0.805
 2425W        W 6394   3.663   3.192   9.931
 2426W        W 6395   9.945   6.157   0.776
 2427W        W 6396   8.105   3.710   8.993
 2428W        W 6397   2.786   9.894   9.483
 2429W        W 6398   8.108  10.887   0.382
 2430W        W 6399  10.510   5.712   1.410
 2431W        W 6400   6.014   0.460   0.952
 2432W        W 6401  11.331   2.257   0.867
 2433W        W 6402   5.697   0.825  11.885
 2434W        W 6403  10.053   4.225  11.856
 2435W        W 6404   0.260   6.651   2.714
 2436W        W 6405   0.354  10.976   9.563
 2437W        W 6406   5.523   3.262  10.805
 2438W        W 6407   2.271   7.018  11.350
 2439W        W 6408   4.227   0.305   2.685
 2440W        W 6409   2.663   5.720   2.168
 2441W        W 6410  10.953   6.493   2.251
 2442W        W 6411   8.619   2.185  10.391
 2443W        W 6412   6.047   5.159   0.378
 2444W        W 6413   9.055   8.095   1.253
 2445W        W 6414  10.908   7.161  11.812
 2446W        W 6415   5.093   2.171   8.478
 2447W        W 6416   5.618   6.606  11.787
 2448W        W 6417   3.741   5.655   1.299
 2449W        W 6418   2.763   9.957   2.283
 2450W        W 6419   7.431   9.913   1.378
 2451W        W 6420   8.516   5.584   2.295
 2452W        W 6421   7.509   2.662  10.479
 2453W        W 6422   8.990   4.100   1.406
 2454W        W 6423   6.134   4.311  10.900
 2455W        W 6424   7.590   3.192   2.734
 2456W        W 6425   6.045   9.530  11.301
 2457W        W 6426  10.381   1.264  11.014
 2458W        W 6427   7.581   4.610   3.250
 2459W        W 6428   6.219   6.562   1.279
 2460W        W 6429  10.927   2.745   2.831
 2461W        W 6430   7.127   6.517  11.913
 2462W        W 6431   7.910   2.280   3.283
 2463W        W 6432   0.293   3.216  10.501
 2464W        W 6433   0.263  11.322   2.245
 2465W        W 6434   1.337   1.868   8.581
 2466W        W 6435   3.760   4.292  11.894
 2467W        W 6436   8.532   4.751   1.785
 2468W        W 6437   9.831   2.215   3.236
 2469W        W 6438   0.913   5.625   0.796
 2470W        W 6439   8.095   3.249  10.378
 2471W        W 6440   3.207   7.940   2.841
 2472W        W 6441   1.839   5.602   1.733
 2473W        W 6442   2.729  10.404   2.298
 2474W        W 6443   5.616   3.706  10.042
 2475W        W 6444  11.460   6.965   0.299
 2476W        W 6445   1.901   7.440   8.544
 2477W        W 6446   6.605   2.235   3.150
 2478W        W 6447   8.547   1.377   0.396
 2479W        W 6448   1.752   2.802   1.916
 2480W        W 6449   3.818   1.697   0.907
 2481W        W 6450   4.573  11.480   1.717
 2482W        W 6451   0.806   5.538   1.905
 2483W        W 6452   5.072   7.009   2.696
 2484W        W 6453   7.040  10.956  11.836
 2485W        W 6454  10.913   8.562  11.364
 2486W        W 6455   9.881   6.983  11.037
 2487W        W 6456   4.789   1.714  11.032
 2488W        W 6457   9.921   6.645   0.953
 2489W        W 6458   2.833   5.116   9.103
 2490W        W 6459  10.857   4.741  10.471
 2491W        W 6460   0.259   6.061  10.552
 2492W        W 6461   3.207   6.961   0.338
 2493W        W 6462   6.001   1.434   0.746
 2494W        W 6463   1.816   7.070  11.840
 2495W        W 6464   0.784   9.570   1.823
 2496W        W 6465   4.137   1.846   9.935
 2497W        W 6466   7.519  10.993  10.991
 2498W        W 6467   0.799   0.259   0.431
 2499W        W 6468  10.990   6.949   2.371
 2500W        W 6469   5.266   2.814  11.301
 2501W        W 6470   6.684  10.513  11.841
 2502W        W 6471   9.840   7.048   8.567
 2503W        W 6472   3.283   3.751   0.767
 2504W        W 6473   7.935   1.767   9.461
 2505W        W 6474   1.409   9.957   2.203
 2506W        W 6475   9.836   7.157   9.842
 2507W        W 6476   5.101   1.345   0.478
 2508W        W 6477   7.007  11.013  11.436
 2509W        W 6478   5.515   4.105  10.341
 2510W        W 6479   1.782   7.122  11.039
 2511W        W 6480   2.245   8.121   3.204
 2512W        W 6481   5.570   2.285   0.360
 2513W        W 6482   8.956  11.446   0.428
 2514W        W 6483   8.924   5.585  10.941
 2515W        W 6484   1.763   1.300   2.856
 2516W        W 6485   2.751   6.076   0.803
 2517W        W 6486   4.294   3.745   1.766
 2518W        W 6487  10.472   9.422  10.958
 2519W        W 6488   9.930   1.319   3.146
 2520W        W 6489   8.960  10.782   9.961
 2521W        W 6490  10.942   9.912   9.562
 2522W        W 6491   9.833   4.770   1.695
 2523W        W 6492   0.765   0.477   2.774
 2524W        W 6493   8.045  10.010   2.791
 2525W        W 6494   2.284   6.674   9.869
 2526W        W 6495   0.810  10.834   1.391
 2527W        W 6496   2.808   1.424   9.991
 2528W        W 6497   9.885   9.523   8.576
 2529W        W 6498   6.546   8.137   1.247
 2530W        W 6499   0.248   4.732   3.129
 2531W        W 6500   8.571   8.883  10.392
 2532W        W 6501   3.188   3.334   0.874
 2533W        W 6502  10.828  11.477   9.859
 2534W        W 6503   8.526   5.704   9.504
 2535W        W 6504  10.501   9.100  10.064
 2536W        W 6505   1.240   1.316   0.905
 2537W        W 6506   8.389  10.387   2.373
 2538W        W 6507  11.415   5.702   3.268
 2539W        W 6508   6.056   6.624  10.392
 2540W        W 6509   7.567   3.208   0.951
 2541W        W 6510   9.501   4.639   9.081
 2542W        W 6511   3.722   5.072  11.345
 2543W        W 6512   2.706  10.442   0.324
 2544W        W 6513   6.076   0.730  11.305
 2545W        W 6514   5.627   8.947   3.346
 2546W        W 6515   2.795   0.425   0.792
 2547W        W 6516   8.481   7.620   1.216
 2548W        W 6517   3.224   4.230   1.695
 2549W        W 6518   0.295   0.270   2.805
 2550W        W 6519   7.911   5.624   4.164
 2551W        W 6520   1.402   9.424   2.719
 2552W        W 6521  10.807   1.424  11.954
 2553W        W 6522   6.633   5.057   0.819
 2554W        W 6523   2.310   9.473   9.388
 2555W        W 6524   1.252   6.019   2.765
 2556W        W 6525   1.843   4.740   2.815
 2557W        W 6526   8.892   6.095   9.847
 2558W        W 6527   2.258   6.577   2.773
 2559W        W 6528  10.883   8.617   3.214
 2560W        W 6529   8.504   4.311  11.425
 2561W        W 6530   3.267   5.155   2.750
 2562W        W 6531   3.721   9.886  10.476
 2563W        W 6532   7.977   0.370  11.999
 2564W        W 6533   6.135  10.895   9.496
 2565W        W 6534  10.521   7.957   2.238
 2566W        W 6535   5.167  11.492   2.195
 2567W        W 6536   0.336   5.090   0.300
 2568W        W 6537   3.255   4.230  11.789
 2569W        W 6538   3.817   1.774  10.541
 2570W        W 6539   3.613   0.287   0.824
 2571W        W 6540   3.225   9.844   0.883
 2572W        W 6541   7.569   8.974   9.842
 2573W        W 6542   5.222   8.591   1.219
 2574W        W 6543   2.209  11.350   2.695
 2575W        W 6544   8.950   3.142   2.288
 2576W        W 6545   1.230   0.729   1.218
 2577W        W 6546  10.934  11.363  11.356
 2578W        W 6547   8.009   1.689   2.804
 2579W        W 6548  11.299  11.381   9.397
 2580W        W 6549   9.900   5.114   0.361
 2581W        W 6550   5.536   5.096  11.932
 2582W        W 6551   3.179   8.972   9.431
 2583W        W 6552   3.635   4.788   2.355
 2584W        W 6553   1.693   7.458   9.114
 2585W        W 6554   9.414   8.622  10.025
 2586W        W 6555   8.907   6.598   0.290
 2587W        W 6556  10.412   9.007   1.871
 2588W        W 6557   3.176  11.394   0.274
 2589W        W 6558   0.825   9.389   1.365
 2590W        W 6559   5.110   0.472   3.332
 2591W        W 6560   7.037  10.967   2.794
 2592W        W 6561   2.280   7.058   3.129
 2593W        W 6562   1.702   5.063   3.229
 2594W        W 6563   5.604   5.581   9.918
 2595W        W 6564  11.294   3.675   1.715
 2596W        W 6565   0.741   7.019  11.955
 2597W        W 6566   9.423   8.061  10.893
 2598W        W 6567   1.312   3.824  11.427
 2599W        W 6568   8.405  10.934   2.317
 2600W        W 6569   1.799   4.768  10.483
 2601W        W 6570   9.999   5.516   1.899
 2602W        W 6571   3.294   8.062   9.383
 2603W        W 6572   2.644   4.118   3.150
 2604W        W 6573   6.118   1.247   9.859
 2605W        W 6574   5.579   3.738   2.677
 2606W        W 6575   3.253   8.603  11.383
 2607W        W 6576   9.485   5.584   1.412
 2608W        W 6577   8.564   4.208   9.480
 2609W        W 6578   2.284   0.317  11.987
 2610W        W 6579   6.504   4.226   3.789
 2611W        W 6580   4.738   9.914   0.947
 2612W        W 6581   2.770   6.210   1.280
 2613W        W 6582  10.834   6.570  10.436
 2614W        W 6583   1.827   4.213   0.436
 2615W        W 6584   2.729   0.439  10.817
 2616W        W 6585  10.436   9.574   1.728
 2617W        W 6586   2.683   7.584  11.359
 2618W        W 6587   0.240   3.184   1.347
 2619W        W 6588   4.593  10.348   3.123
 2620W        W 6589  11.438   9.426  10.992
 2621W        W 6590   5.701   5.993   1.826
 2622W        W 6591   6.151   8.100   9.389
 2623W        W 6592   2.839   5.133  11.309
 2624W        W 6593   6.168   1.877  11.407
 2625W        W 6594   1.398   4.240  11.913
 2626W        W 6595   6.653   7.569   1.689
 2627W        W 6596   3.675   9.379   3.834
 2628W        W 6597   0.796   7.041   9.045
 2629W        W 6598   7.480   2.363   2.173
 2630W        W 6599  11.483   7.115   3.219
 2631W        W 6600   7.080  10.417   9.870
 2632W        W 6601   8.960   9.002  11.023
 2633W        W 6602  10.441   2.778   0.742
 2634W        W 6603   8.602   6.694  11.821
 2635W        W 6604  11.015   9.047   0.777
 2636W        W 6605  10.448   0.824   9.918
 2637W        W 6606  10.520   3.670   0.835
 2638W        W 6607   1.732   5.519   9.947
 2639W        W 6608   9.911  10.426   2.700
 2640W        W 6609   9.999   0.925  11.824
 2641W        W 6610  10.781   3.277  10.981
 2642W        W 6611   8.898   5.524   9.031
 2643W        W 6612   5.724   3.693   3.786
 2644W        W 6613   3.647   9.973   8.429
 2645W        W 6614   7.508   9.103   0.387
 2646W        W 6615  10.049   5.181   3.791
 2647W        W 6616   0.332   5.728   3.258
 2648W        W 6617   1.886   5.121  11.426
 2649W        W 6618  10.473   8.105  11.359
 2650W        W 6619   6.605   7.158   3.630
 2651W        W 6620   9.432   5.059  10.447
 2652W        W 6621   0.415   1.714   0.478
 2653W        W 6622   7.185   9.502   0.250
 2654W        W 6623   3.189   4.767   9.583
 2655W        W 6624   6.188   4.755  10.024
 2656W        W 6625   4.749   0.433   9.380
 2657W        W 6626   5.256   4.293  10.429
 2658W        W 6627   7.112   1.741   3.243
 2659W        W 6628   9.089   6.203   9.478
 2660W        W 6629   9.826   9.367   2.654
 2661W        W 6630   4.666   8.510  10.383
 2662W        W 6631   4.751   5.612   1.275
 2663W        W 6632   2.216   1.887   9.381
 2664W        W 6633  11.287   5.186   9.041
 2665W        W 6634   6.491   2.716   2.189
 2666W        W 6635   9.440   8.603   0.811
 2667W        W 6636  10.035   3.210   3.616
 2668W        W 6637   2.848   2.328  10.074
 2669W        W 6638  10.441   3.745   2.834
 2670W        W 6639   3.596   7.472  10.346
 2671W        W 6640   1.804   8.429  10.449
 2672W        W 6641   5.138   3.347   0.754
 2673W        W 6642   0.953   2.688   1.706
 2674W        W 6643   3.770  10.854   9.361
 2675W        W 6644  11.367   2.387   3.302
 2676W        W 6645   8.977   5.183   9.987
 2677W        W 6646  11.430   5.713   3.791
 2678W        W 6647   7.550   6.506   0.800
 2679W        W 6648   1.295   0.861   3.165
 2680W        W 6649   3.140   0.433   2.245
 2681W        W 6650   2.740   7.154   9.949
 2682W        W 6651   7.924   3.679  10.937
 2683W        W 6652   9.563   5.082   2.224
 2684W        W 6653   7.112   9.859   8.914
 2685W        W 6654   2.322   5.639   9.389
 2686W        W 6655   3.715   1.686   9.390
 2687W        W 6656  10.936   4.627   9.364
 2688W        W 6657   8.567  11.334   3.614
 2689W        W 6658   4.103   9.364   1.362
 2690W        W 6659   7.985   9.021   9.991
 2691W        W 6660   0.770   5.171   8.921
 2692W        W 6661   0.464   7.649   1.858
 2693W        W 6662   1.745  11.408   2.184
 2694W        W 6663   9.503  10.374   1.302
 2695W        W 6664   0.924   4.776   8.969
 2696W        W 6665   3.148  10.448   0.916
 2697W        W 6666   6.972   2.366   8.931
 2698W        W 6667   9.512   1.238  10.329
 2699W        W 6668   3.763   5.048   1.280
 2700W        W 6669  10.438   7.914  10.406
 2701W        W 6670  10.915   9.451   2.167
 2702W        W 6671   1.862   0.256   0.804
 2703W        W 6672   2.855   9.989  11.868
 2704W        W 6673   0.261   3.208   2.820
 2705W        W 6674   3.683   5.660   1.701
 2706W        W 6675   9.063  10.516  11.790
 2707W        W 6676   2.380   1.783   0.898
 2708W        W 6677   2.185   6.150   2.325
 2709W        W 6678  10.919   7.483   3.256
 2710W        W 6679   7.103   5.564  10.958
 2711W        W 6680   2.738   9.035   2.828
 2712W        W 6681   1.289   5.620  10.858
 2713W        W 6682   5.641   0.740   8.976
 2714W        W 6683   0.381  10.953   2.164
 2715W        W 6684   9.399  10.308   9.367
 2716W        W 6685  10.446   2.278   1.730
 2717W        W 6686   3.348   1.726   0.862
 2718W        W 6687   4.628   3.701   9.857
 2719W        W 6688   8.043   7.057   1.817
 2720W        W 6689   2.233   4.272   8.938
 2721W        W 6690   0.252   4.786  10.363
 2722W        W 6691  10.818   8.589   0.777
 2723W        W 6692   5.567   2.796   1.831
 2724W        W 6693   3.266   7.457  10.873
 2725W        W 6694   5.715   4.138   1.272
 2726W        W 6695   4.706  11.403  10.363
 2727W        W 6696   0.841   9.964  11.861
 2728W        W 6697   3.762  10.310   1.713
 2729W        W 6698   5.247  10.535  10.909
 2730W        W 6699   4.251  10.513   3.343
 2731W        W 6700   4.673   4.181  10.870
 2732W        W 6701  10.933   1.343   1.764
 2733W        W 6702   2.779   7.553   3.328
 2734W        W 6703  10.527  10.411   8.983
 2735W        W 6704   4.776   8.894   1.343
 2736W        W 6705   4.686   3.608   1.352
 2737W        W 6706   7.662   4.098   2.835
 2738W        W 6707   7.025   3.735   0.768
 2739W        W 6708   4.289   3.184   2.212
 2740W        W 6709   5.541   7.180   0.894
 2741W        W 6710   9.547  10.530   0.380
 2742W        W 6711   9.481   0.927   0.884
 2743W        W 6712  10.535   8.400  10.320
 2744W        W 6713   0.265   6.951  11.501
 2745W        W 6714   7.937   1.856  10.042
 2746W        W 6715   8.489   5.101   8.408
 2747W        W 6716   9.965   7.631   9.893
 2748W        W 6717   1.391  10.319   3.204
 2749W        W 6718   0.777   0.767  10.521
 2750W        W 6719  10.513  11.297   3.358
 2751W        W 6720   6.091   9.919   9.959
 2752W        W 6721   8.881   9.020   0.757
 2753W        W 6722   9.876  10.444   1.251
 2754W        W 6723   6.009   2.794  11.456
 2755W        W 6724   8.997   0.851  10.947
 2756W        W 6725  11.453   0.246   2.237
 2757W        W 6726   2.811   5.146   2.701
 2758W        W 6727   8.588  11.329   2.874
 2759W        W 6728   3.320  10.978   1.878
 2760W        W 6729   1.212   3.268   9.505
 2761W        W 6730   9.514   3.626  11.313
 2762W        W 6731   9.990   2.251  10.409
 2763W        W 6732   7.179   9.001   2.389
 2764W        W 6733   7.461  11.303   9.036
 2765W        W 6734   5.616   7.605   3.293
 2766W        W 6735   7.908   0.468  10.445
 2767W        W 6736   7.027   0.415   2.361
 2768W        W 6737   0.790   9.348  11.800
 2769W        W 6738   4.602   0.898  11.366
 2770W        W 6739   7.542  11.500   2.868
 2771W        W 6740   7.059   6.597   0.843
 2772W        W 6741   6.023   7.468   2.834
 2773W        W 6742   6.687   2.737   0.754
 2774W        W 6743   6.549   3.342   2.836
 2775W        W 6744   7.102   9.102   2.695
 2776W        W 6745   6.695   8.452   1.394
 2777W        W 6746   4.708   2.636   8.622
 2778W        W 6747   8.445   6.101   0.242
 2779W        W 6748   3.730   9.854  10.822
 2780W        W 6749  10.386   1.682   1.405
 2781W        W 6750   2.242   6.010  10.518
 2782W        W 6751   0.365   4.710   8.923
 2783W        W 6752   8.480   7.015  11.791
 2784W        W 6753   1.200   9.891   1.733
 2785W        W 6754   5.670   1.277   9.515
 2786W        W 6755   3.832   0.795   9.465
 2787W        W 6756   9.983  11.355   1.271
 2788W        W 6757  10.462   2.712   9.485
 2789W        W 6758   8.102   0.477   0.798
 2790W        W 6759   8.590   3.265   3.659
 2791W        W 6760  10.021   2.189   1.324
 2792W        W 6761   7.465   9.959  10.474
 2793W        W 6762   3.218   0.734   2.278
 2794W        W 6763   6.068   1.886   1.858
 2795W        W 6764   3.253   8.022   3.151
 2796W        W 6765   5.044   9.046  10.374
 2797W        W 6766   2.268   5.151   9.040
 2798W        W 6767   7.611   5.216   4.270
 2799W        W 6768   4.189   5.694  10.478
 2800W        W 6769   2.354   4.619  10.839
 2801W        W 6770   0.802  10.339   9.365
 2802W        W 6771   7.986   7.028   9.111
 2803W        W 6772   6.187   9.479   8.981
 2804W        W 6773   6.002   3.763  10.500
 2805W        W 6774   9.067   7.941   2.788
 2806W        W 6775   0.417   6.007   2.666
 2807W        W 6776  11.301   8.962  10.540
 2808W        W 6777   5.641   0.268   1.859
 2809W        W 6778   0.468   7.617  10.451
 2810W        W 6779  10.946   9.517   3.308
 2811W        W 6780   0.403   3.737   1.682
 2812W        W 6781  11.498   9.974  10.020
 2813W        W 6782   0.774   5.641   1.376
 2814W        W 6783   0.475   8.387   9.593
 2815W        W 6784   0.782   1.817  11.000
 2816W        W 6785   6.997  10.021  10.036
 2817W        W 6786   4.577   5.614  10.452
 2818W        W 6787   8.066  10.889   9.955
 2819W        W 6788  10.060   6.618   3.227
 2820W        W 6789   7.508   0.783   0.863
 2821W        W 6790   5.649   5.211   9.438
 2822W        W 6791  10.023   3.620   2.648
 2823W        W 6792   5.516   8.431  10.400
 2824W        W 6793   8.610  10.405   1.869
 2825W        W 6794   5.032   5.185  10.933
 2826W        W 6795  10.783   8.098   8.908
 2827W        W 6796   7.566   3.656  11.949
 2828W        W 6797   7.056   5.055  10.812
 2829W        W 6798  11.314  10.386  11.390
 2830W        W 6799   0.945   1.238   1.892
 2831W        W 6800   2.267   6.592  10.952
 2832W        W 6801   5.090   4.158  11.031
 2833W        W 6802   8.865   2.210  10.460
 2834W        W 6803   2.856   7.012   2.296
 2835W        W 6804   7.940   3.156  11.982
 2836W        W 6805   7.911  11.450   0.416
 2837W        W 6806   7.484   1.206   9.445
 2838W        W 6807   4.228   8.484   1.769
 2839W        W 6808   2.756   6.681   1.341
 2840W        W 6809   6.479   3.227   1.324
 2841W        W 6810   2.385   4.695   9.094
 2842W        W 6811   7.123   9.942  11.853
 2843W        W 6812  10.909   5.697   0.727
 2844W        W 6813   6.100  10.031   1.841
 2845W        W 6814   9.478   7.912   2.359
 2846W        W 6815   5.103   4.731  10.361
 2847W        W 6816   9.840   1.232   9.051
 2848W        W 6817   5.580   0.414  11.872
 2849W        W 6818   4.747  10.452   0.471
 2850W        W 6819   7.529   8.113   0.889
 2851W        W 6820   2.278   6.171   0.287
 2852W        W 6821   2.870   9.037   1.792
 2853W        W 6822   2.349   0.362   1.307
 2854W        W 6823   2.161   4.645   2.300
 2855W        W 6824   4.106   2.165  11.989
 2856W        W 6825  10.425   1.374   2.780
 2857W        W 6826  10.457   5.084   9.023
 2858W        W 6827   7.649   4.574   2.858
 2859W        W 6828   2.230   5.256  11.488
 2860W        W 6829   4.118  10.952   0.291
 2861W        W 6830   8.904   8.017   3.159
 2862W        W 6831   2.766   9.454   1.429
 2863W        W 6832   5.631   1.259   2.265
 2864W        W 6833   7.535   4.629   8.448
 2865W        W 6834   2.690   4.254   9.405
 2866W        W 6835   7.112   7.656   0.787
 2867W        W 6836  10.366   4.681   0.925
 2868W        W 6837  10.399   8.618   2.302
 2869W        W 6838   4.604   2.856  11.910
 2870W        W 6839   6.659   2.214  10.440
 2871W        W 6840   8.390   3.154  11.895
 2872W        W 6841   8.388  10.541   8.959
 2873W        W 6842   5.656   9.946  10.954
 2874W        W 6843   8.533   8.867   0.293
 2875W        W 6844   5.157   2.161   1.705
 2876W        W 6845   8.474   4.603   1.306
 2877W        W 6846   5.519   9.054   2.381
 2878W        W 6847   6.074   1.306  10.806
 2879W        W 6848   9.990   4.750  11.285
 2880W        W 6849   6.489   0.858   2.683
 2881W        W 6850   2.787   3.195   1.318
 2882W        W 6851   7.058   9.414   3.214
 2883W        W 6852   3.219   6.477  10.334
 2884W        W 6853   5.159   6.687   1.735
 2885W        W 6854   4.594   7.911   9.441
 2886W        W 6855   5.683   7.646   9.401
 2887W        W 6856   9.386   3.334   9.953
 2888W        W 6857   9.444   1.278  11.307
 2889W        W 6858   3.649   4.558   2.739
 2890W        W 6859   5.702   3.724  10.498
 2891W        W 6860   9.950   7.507  11.776
 2892W        W 6861   0.892   6.980   1.839
 2893W        W 6862   0.281   7.984   0.855
 2894W        W 6863   5.662   0.845  11.506
 2895W        W 6864  10.876   8.105  10.492
 2896W        W 6865   9.938   0.408   2.400
 2897W        W 6866   9.891  11.465   9.027
 2898W        W 6867   8.555   9.429   1.867
 2899W        W 6868   7.065   1.884   8.944
 2900W        W 6869   4.626   9.098   9.033
 2901W        W 6870  10.057   4.713   9.457
 2902W        W 6871   1.437   4.289   1.293
 2903W        W 6872   7.054   0.281   3.295
 2904W        W 6873   2.266   0.901   2.184
 2905W        W 6874   1.437  11.280   3.227
 2906W        W 6875   3.308   7.135   7.946
 2907W        W 6876   8.406   0.336   9.061
 2908W        W 6877   0.866   5.599   8.921
 2909W        W 6878  10.062   9.851   8.941
 2910W        W 6879   6.656   1.390   2.276
 2911W        W 6880   4.648   1.817   9.097
 2912W        W 6881   0.395  11.446  11.457
 2913W        W 6882   8.987   6.967   0.363
 2914W        W 6883   6.147   9.057   0.879
 2915W        W 6884  10.451   7.168   2.185
 2916W        W 6885   9.003  10.044   1.781
 2917W        W 6886   3.617   0.785  11.332
 2918W        W 6887   7.911   1.708  11.909
 2919W        W 6888   3.238   1.301   2.229
 2920W        W 6889  11.461   1.247   8.888
 2921W        W 6890  10.325   6.051   2.726
 2922W        W 6891   0.449   3.821  11.001
 2923W        W 6892   8.536   9.937   3.610
 2924W        W 6893   5.124  10.513   1.739
 2925W        W 6894   6.619  11.016  11.447
 2926W        W 6895  10.951   6.591   2.647
 2927W        W 6896   7.502  10.505  11.881
 2928W        W 6897   5.514   6.142   9.411
 2929W        W 6898   1.762   6.075   2.781
 2930W        W 6899   2.347   6.962   2.353
 2931W        W 6900   0.363   9.978  11.379
 2932W        W 6901   2.380   3.812   2.844
 2933W        W 6902  11.341   8.436   3.201
 2934W        W 6903   7.100   6.210   9.535
 2935W        W 6904  10.399  10.484  11.391
 2936W        W 6905   1.263   7.516   2.342
 2937W        W 6906   4.153   3.818   2.260
 2938W        W 6907   9.099   6.490  10.437
 2939W        W 6908   6.501   8.433  11.812
 2940W        W 6909  10.534   1.851   2.182
 2941W        W 6910   1.354   3.353  10.376
 2942W        W 6911   6.004   7.054   2.236
 2943W        W 6912   4.556   3.833   9.437
 2944W        W 6913   0.724  10.817   1.853
 2945W        W 6914   0.478   8.898   0.405
 2946W        W 6915   3.751   2.257   9.996
 2947W        W 6916   7.076   0.417  10.071
 2948W        W 6917  10.989   3.672   1.745
 2949W        W 6918   7.187   0.399  10.920
 2950W        W 6919   7.579   6.607   3.782
 2951W        W 6920   9.488   7.927  11.961
 2952W        W 6921   5.125   8.122  11.035
 2953W        W 6922   5.251   8.033   2.190
 2954W        W 6923   1.794   5.634   8.428
 2955W        W 6924   6.091   9.550   2.160
 2956W        W 6925   1.825   4.281   1.849
 2957W        W 6926   0.910   7.518   8.640
 2958W        W 6927   5.198  10.519   0.283
 2959W        W 6928   0.449  10.000  11.975
 2960W        W 6929   8.494   8.494  11.868
 2961W        W 6930   8.918   5.535   3.177
 2962W        W 6931   5.590   4.598  11.283
 2963W        W 6932   0.739   1.725   0.388
 2964W        W 6933  10.392   4.170   0.372
 2965W        W 6934   6.570   1.898   0.252
 2966W        W 6935   5.211   7.472  11.443
 2967W        W 6936   5.533   8.969   9.372
 2968W        W 6937   5.624   0.747   3.180
 2969W        W 6938  10.365   4.209   2.703
 2970W        W 6939   2.159   9.082  11.031
 2971W        W 6940   6.118   7.058   1.249
 2972W        W 6941   4.705   4.178   3.815
 2973W        W 6942   6.033   2.201   2.687
 2974W        W 6943   9.452   3.661   9.042
 2975W        W 6944   1.736   4.658   1.756
 2976W        W 6945   4.563   2.326   9.024
 2977W        W 6946   2.255   6.637   1.362
 2978W        W 6947  11.349   7.561  10.358
 2979W        W 6948   3.784   9.464   2.839
 2980W        W 6949   1.825   4.230   2.209
 2981W        W 6950   5.218   2.342   4.259
 2982W        W 6951   9.974   2.216   9.930
 2983W        W 6952   3.132  10.389   2.273
 2984W        W 6953   3.726  10.787   3.162
 2985W        W 6954   7.006   9.078  10.416
 2986W        W 6955   7.990   2.671   2.222
 2987W        W 6956   7.035   3.723  10.923
 2988W        W 6957  10.853   2.636   0.291
 2989W        W 6958   6.989   9.557  10.372
 2990W        W 6959   2.187   9.866   2.209
 2991W        W 6960   4.208   6.608   1.876
 2992W        W 6961   7.618   4.662   1.695
 2993W        W 6962   0.323   1.327   9.043
 2994W        W 6963   0.898   3.813   1.865
 2995W        W 6964  11.286   6.203   2.201
 2996W        W 6965   6.586   8.882   2.381
 2997W        W 6966   2.195   0.782  10.841
 2998W        W 6967   2.713   4.704   8.881
 2999W        W 6968  10.884  10.392   9.844
 3000W        W 6969   7.496   3.611  10.072
 3001W        W 6970   0.752   3.130  11.816
 3002W        W 6971   7.667  10.540   3.196
 3003W        W 6972   4.244   3.212   1.767
 3004W        W 6973  10.896   9.499   9.967
 3005W        W 6974   9.542   8.520   3.258
 3006W        W 6975  10.847   4.559   9.053
 3007W        W 6976   8.468   9.555   0.745
 3008W        W 6977   0.773   0.241   9.947
 3009W        W 6978   8.976   4.752   0.431
 3010W        W 6979   6.635   3.617   1.203
 3011W        W 6980   5.106   6.047   1.903
 3012W        W 6981   0.740   3.265   3.318
 3013W        W 6982  10.442   5.585   8.501
 3014W        W 6983   0.879   8.097  11.880
 3015W        W 6984   7.553   3.679  10.938
 3016W        W 6985  11.355   0.358  10.515
 3017W        W 6986   1.882   8.448   2.872
 3018W        W 6987   1.711   3.814   1.724
 3019W        W 6988   8.501   4.712  11.900
 3020W        W 6989   4.752  11.476  10.899
 3021W        W 6990   0.907   3.264   1.339
 3022W        W 6991   7.119   9.895   2.746
 3023W        W 6992   7.008   4.080  11.469
 3024W        W 6993   3.255   2.816   9.459
 3025W        W 6994   1.275   1.733  10.890
 3026W        W 6995   0.807   9.505   9.592
 3027W        W 6996   1.820   8.408   0.422
 3028W        W 6997   7.623   4.554   1.344
 3029W        W 6998   5.242   7.166  11.894
 3030W        W 6999   4.723   3.271   1.202
 3031W        W 7000   0.827   5.136  10.464
 3032W        W 7001  10.045   3.132   3.211
 3033W        W 7002   1.772   8.085   9.464
 3034W        W 7003   3.206   4.641   3.354
 3035W        W 7004   9.927   1.897   0.864
 3036W        W 7005   0.933  10.033   0.819
 3037W        W 7006   2.770   8.421   9.598
 3038W        W 7007   3.825   8.011   9.915
 3039W        W 7008   8.549   3.208   2.645
 3040W        W 7009  10.394   8.104   9.894
 3041W        W 7010   0.454   1.834   3.308
 3042W        W 7011   1.705   9.963   9.874
 3043W        W 7012   2.752   4.617   3.837
 3044W        W 7013   9.856  10.041   9.958
 3045W        W 7014  11.373   0.326   1.277
 3046W        W 7015   6.502   4.731   1.826
 3047W        W 7016   1.750  11.436  11.490
 3048W        W 7017   5.105   4.273   9.576
 3049W        W 7018   5.170   8.970   3.211
 3050W        W 7019   7.921   3.292   3.745
 3051W        W 7020   7.628   6.644   8.995
 3052W        W 7021   7.179   7.633   2.659
 3053W        W 7022  10.527  10.480   2.767
 3054W        W 7023   7.181   4.188  10.909
 3055W        W 7024   9.579   3.779   3.751
 3056W        W 7025   2.779   0.837   1.783
 3057W        W 7026   8.445   9.057   0.727
 3058W        W 7027   5.249   3.138   1.763
 3059W        W 7028   3.242   0.829   1.207
 3060W        W 7029   4.772  10.516  11.296
 3061W        W 7030   2.238   5.211   4.289
 3062W        W 7031   7.109   0.431   0.959
 3063W        W 7032   2.691   6.060  11.452
 3064W        W 7033   2.254   0.746  10.065
 3065W        W 7034   1.802   9.951   8.959
 3066W        W 7035  10.808   8.406  10.464
 3067W        W 7036   0.371   4.767   8.493
 3068W        W 7037   4.107   2.823   9.506
 3069W        W 7038   7.008   6.222   4.213
 3070W        W 7039   7.488   9.046   1.811
 3071W        W 7040   3.203   6.648  10.862
 3072W        W 7041   0.883   4.129  11.378
 3073W        W 7042   2.372   3.711  10.486
 3074W        W 7043  11.355  10.972   3.281
 3075W        W 7044   9.883  10.792   3.269
 3076W        W 7045   5.990   0.777  10.520
 3077W        W 7046   1.296   7.550   0.931
 3078W        W 7047   7.089   7.039   1.421
 3079W        W 7048  10.876   6.073  10.356
 3080W        W 7049   8.582   0.429   9.425
 3081W        W 7050   4.749   4.608  10.987
 3082W        W 7051   9.533   3.656   1.835
 3083W        W 7052   9.456   6.647   2.294
 3084W        W 7053   5.743  10.049   2.190
 3085W        W 7054   8.602   8.018  10.933
 3086W        W 7055   4.766   3.612   0.417
 3087W        W 7056   3.689   3.656  10.360
 3088W        W 7057   9.008   2.663  10.451
 3089W        W 7058   4.129   7.662   0.392
 3090W        W 7059   0.791   1.724   9.448
 3091W        W 7060  10.321   0.388   0.471
 3092W        W 7061   0.315   5.701   9.435
 3093W        W 7062   1.425   7.967   8.883
 3094W        W 7063   8.901   1.840  11.490
 3095W        W 7064   9.038   9.042   1.433
 3096W        W 7065   4.570   0.288   0.931
 3097W        W 7066   1.334   3.708   0.275
 3098W        W 7067   9.422   5.619   3.310
 3099W        W 7068   8.386   9.067  10.071
 3100W        W 7069   4.188   7.465   0.793
 3101W        W 7070   8.985   2.305   1.312
 3102W        W 7071   8.449   4.284   2.196
 3103W        W 7072   6.023  10.540   0.811
 3104W        W 7073  11.382   1.860   1.689
 3105W        W 7074   7.526   5.102   2.257
 3106W        W 7075   2.217   4.225   3.194
 3107W        W 7076   3.255  10.852  10.462
 3108W        W 7077   0.954   5.263  11.428
 3109W        W 7078   5.638   2.874   9.963
 3110W        W 7079   1.762   1.835   2.651
 3111W        W 7080   4.738   7.559   0.799
 3112W        W 7081   1.823   6.061   9.368
 3113W        W 7082   4.200   7.454  11.790
 3114W        W 7083  10.915   9.059   3.177
 3115W        W 7084   4.182   6.477  10.468
 3116W        W 7085   6.162   8.002   2.641
 3117W        W 7086   5.262   1.759   8.466
 3118W        W 7087   0.771   3.260   1.770
 3119W        W 7088   3.656   1.295   3.237
 3120W        W 7089  10.979   0.865   2.396
 3121W        W 7090   4.614   8.124   0.271
 3122W        W 7091   7.436   4.252   9.588
 3123W        W 7092   7.125   6.636   3.624
 3124W        W 7093   8.523   6.521   3.269
 3125W        W 7094   6.026   6.036   0.472
 3126W        W 7095  10.511  10.875   1.735
 3127W        W 7096   4.719   1.823  11.480
 3128W        W 7097   1.367  10.441   9.094
 3129W        W 7098   7.998   3.296   1.821
 3130W        W 7099   6.629  10.809   2.195
 3131W        W 7100   5.595   8.403   9.036
 3132W        W 7101   3.237   9.553   4.101
 3133W        W 7102   2.349   5.637   3.626
 3134W        W 7103   4.089  10.818   1.238
 3135W        W 7104   6.986   3.141  11.951
 3136W        W 7105   8.066   0.869  10.018
 3137W        W 7106   9.989  10.462   8.626
 3138W        W 7107  11.468   4.274   1.699
 3139W        W 7108  10.023   3.346   2.711
 3140W        W 7109   6.601   7.614  11.846
 3141W        W 7110   2.699   0.893   9.110
 3142W        W 7111   2.241   9.383   2.671
 3143W        W 7112   0.951   7.112   2.655
 3144W        W 7113   1.274   1.229  11.884
 3145W        W 7114  11.492   1.379  11.507
 3146W        W 7115   2.281   4.668   9.851
 3147W        W 7116   3.226   5.094   8.492
 3148W        W 7117   5.126   3.707  10.374
 3149W        W 7118   1.326   1.367   1.384
 3150W        W 7119   9.943   2.262   9.096
 3151W        W 7120   7.455   5.056   9.560
 3152W        W 7121   9.100   8.941   2.772
 3153W        W 7122   2.197   9.998   9.976
 3154W        W 7123   4.624  10.806   2.361
 3155W        W 7124   6.538   8.004   0.409
 3156W        W 7125   1.683   8.535  11.467
 3157W        W 7126   8.603  11.014   1.845
 3158W        W 7127   9.997   1.430   1.760
 3159W        W 7128   8.110   3.666   2.327
 3160W        W 7129  10.906   3.342  11.922
 3161W        W 7130   1.705   7.434   3.265
 3162W        W 7131   7.451   6.589   2.323
 3163W        W 7132   9.429   6.500   3.160
 3164W        W 7133   8.568   0.817   1.684
 3165W        W 7134   8.131  11.475  10.531
 3166W        W 7135  11.280   7.952   8.909
 3167W        W 7136   3.277   7.135   2.780
 3168W        W 7137   9.957   0.957   3.180
 3169W        W 7138   2.357   1.321  10.028
 3170W        W 7139   1.721   4.788   2.386
 3171W        W 7140   3.684  10.004   9.889
 3172W        W 7141   0.812  10.533   0.424
 3173W        W 7142   5.082  10.973   3.166
 3174W        W 7143  11.299   8.604   1.681
 3175W        W 7144   8.113   1.845   1.282
 3176W        W 7145   1.381   3.342  11.930
 3177W        W 7146   7.622  11.445   0.831
 3178W        W 7147  11.343   2.255   1.368
 3179W        W 7148   6.611   8.545  10.855
 3180W        W 7149   3.804   3.828   0.799
 3181W        W 7150   8.597   1.358   9.416
 3182W        W 7151  10.919   5.109   3.233
 3183W        W 7152   9.387   8.581  10.872
 3184W        W 7153   4.665   1.734   2.748
 3185W        W 7154   6.197   7.024   3.608
 3186W        W 7155   6.114   6.135   2.273
 3187W        W 7156   0.317   8.867   8.987
 3188W        W 7157   2.794  11.008  10.805
 3189W        W 7158   7.130   2.295   0.404
 3190W        W 7159  10.960   0.850   3.762
 3191W        W 7160   4.115   6.985  11.788
 3192W        W 7161   9.882   1.384  11.980
 3193W        W 7162   1.437   7.926   3.161
 3194W        W 7163   3.800   2.714  10.833
 3195W        W 7164   3.244   4.718   9.118
 3196W        W 7165   2.176  10.421   2.720
 3197W        W 7166   5.715   3.788   4.117
 3198W        W 7167   9.574   3.323   9.412
 3199W        W 7168   6.056  10.838   8.922
 3200W        W 7169   1.294   3.660   2.294
 3201W        W 7170   0.945   3.200   9.117
 3202W        W 7171   6.132   8.979  10.925
 3203W        W 7172   5.572   5.696  11.464
 3204W        W 7173   1.679   2.780   2.299
 3205W        W 7174   0.860   8.511   0.737
 3206W        W 7175   3.666   9.436   2.360
 3207W        W 7176   5.176   2.737  10.548
 3208W        W 7177  10.826   4.208   0.317
 3209W        W 7178   4.294   4.770   7.981
 3210W        W 7179   2.808   4.555   9.378
 3211W        W 7180   1.782   5.074  10.451
 3212W        W 7181   8.978   9.576  11.973
 3213W        W 7182  10.057   0.741  10.544
 3214W        W 7183   2.730  10.910   2.644
 3215W        W 7184   8.941  10.931  10.867
 3216W        W 7185   7.078   8.388   2.820
 3217W        W 7186   4.272   7.940   1.309
 3218W        W 7187   4.181   9.874   2.185
 3219W        W 7188   0.887   9.520   9.957
 3220W        W 7189   1.207   8.868   8.936
 3221W        W 7190   9.867   3.815   9.857
 3222W        W 7191   4.279   3.650   9.361
 3223W        W 7192   9.429   9.937  10.349
 3224W        W 7193   8.928   9.511   9.030
 3225W        W 7194   7.628   8.098   2.336
 3226W        W 7195   1.334   8.466   1.435
 3227W        W 7196   8.558   2.690  10.998
 3228W        W 7197  11.436   9.477   1.216
 3229W        W 7198  10.864   6.213   0.847
 3230W        W 7199   1.840   7.991  10.509
 3231W        W 7200   1.905   0.762   2.366
 3232W        W 7201  10.362   9.410   2.662
 3233W        W 7202   2.673  11.315   9.449
 3234W        W 7203   4.229   0.875  11.818
 3235W        W 7204  10.317   8.472   0.756
 3236W        W 7205   6.582   7.609   2.685
 3237W        W 7206   3.635   0.252   1.352
 3238W        W 7207  10.835   4.669  11.334
 3239W        W 7208   3.243   6.532   0.401
 3240W        W 7209   6.586  11.471  11.482
 3241W        W 7210   0.928   1.795   8.423
 3242W        W 7211   3.681   8.942  11.514
 3243W        W 7212  10.501   4.568   1.400
 3244W        W 7213   5.219   6.571  11.880
 3245W        W 7214   5.194   0.948  11.392
 3246W        W 7215   1.270  10.933   0.427
 3247W        W 7216   3.319   3.642   1.378
 3248W        W 7217  11.386   5.594   8.975
 3249W        W 7218  10.314   3.224   8.943
 3250W        W 7219   1.371   0.326   2.874
 3251W        W 7220   6.088   7.663   3.144
 3252W        W 7221   8.048   4.141   0.768
 3253W        W 7222   6.520   3.795   3.259
 3254W        W 7223   3.771   6.584  11.970
 3255W        W 7224  10.829   5.709  11.298
 3256W        W 7225   4.696   9.921   9.899
 3257W        W 7226   4.236   0.887   1.231
 3258W        W 7227   9.408   4.127   3.302
 3259W        W 7228   8.580   8.493  10.365
 3260W        W 7229  11.396   8.867  10.058
 3261W        W 7230   0.894   6.516   0.787
 3262W        W 7231   4.138   9.085   3.272
 3263W        W 7232   6.073   0.304   0.390
 3264W        W 7233   5.659   3.324   3.278
 3265W        W 7234   2.320   5.096   2.801
 3266W        W 7235   6.574   5.586  10.529
 3267W        W 7236  10.515   6.949   9.996
 3268W        W 7237   9.999   5.585   0.431
 3269W        W 7238   3.714   8.521   0.942
 3270W        W 7239   8.565   9.976   0.741
 3271W        W 7240   8.908   6.491   3.310
 3272W        W 7241   9.023   7.937   8.101
 3273W        W 7242   1.836   2.788   0.346
 3274W        W 7243   1.862   9.865  10.398
 3275W        W 7244   4.575  10.907   1.396
 3276W        W 7245   5.996   5.559  10.050
 3277W        W 7246  10.475   3.805  11.845
 3278W        W 7247   9.960   1.691   9.005
 3279W        W 7248  10.013   6.156   3.767
 3280W        W 7249   6.989   1.303  10.994
 3281W        W 7250   0.385   2.813   3.328
 3282W        W 7251   8.550   6.194   0.844
 3283W        W 7252   8.913   5.518   1.304
 3284W        W 7253   3.199   2.744  10.065
 3285W        W 7254   4.724   6.635   9.001
 3286W        W 7255   8.427   7.480   9.975
 3287W        W 7256   3.609  10.388   8.947
 3288W        W 7257  10.785   9.514   9.417
 3289W        W 7258  11.326   8.429   0.276
 3290W        W 7259  10.880   7.115  10.533
 3291W        W 7260   3.783   1.421  10.936
 3292W        W 7261   2.208   4.271   3.666
 3293W        W 7262   3.289  10.420  10.987
 3294W        W 7263  11.346   9.360   0.312
 3295W        W 7264   8.050   7.946   0.436
 3296W        W 7265   5.553   0.407  10.408
 3297W        W 7266   0.473   8.089   1.210
 3298W        W 7267   1.254   4.279   1.878
 3299W        W 7268   2.158   5.126   8.025
 3300W        W 7269   4.091   7.938   2.237
 3301W        W 7270   7.158  10.807   1.823
 3302W        W 7271   9.360   9.852   1.897
 3303W        W 7272   3.133   4.108   2.400
 3304W        W 7273   1.678   0.456   9.094
 3305W        W 7274   0.361   3.631   9.008
 3306W        W 7275   8.084   7.630  10.034
 3307W        W 7276   8.914   1.430  11.037
 3308W        W 7277   0.792   1.315   0.899
 3309W        W 7278   3.819  10.831   2.697
 3310W        W 7279   7.486   2.237  11.494
 3311W        W 7280   4.190   4.604   2.300
 3312W        W 7281   2.812  10.365   3.121
 3313W        W 7282  10.836   9.510   1.255
 3314W        W 7283   3.216  10.343  10.458
 3315W        W 7284   5.533   1.747   2.249
 3316W        W 7285   2.762  10.021   0.808
 3317W        W 7286   9.891   4.716   3.342
 3318W        W 7287  11.000  11.324   2.653
 3319W        W 7288   6.590   1.376  11.363
 3320W        W 7289  10.872  10.305   2.196
 3321W        W 7290   0.867  11.300  10.398
 3322W        W 7291   9.364  11.458   1.403
 3323W        W 7292   0.958   6.950  11.458
 3324W        W 7293   9.400   1.822  10.493
 3325W        W 7294   5.742   1.326  10.984
 3326W        W 7295   1.805   2.199   2.734
 3327W        W 7296   7.470   9.878   2.787
 3328W        W 7297   3.214   7.096   9.109
 3329W        W 7298   4.738   8.389   1.849
 3330W        W 7299   2.841  10.532   0.918
 3331W        W 7300   8.567   2.315   1.836
 3332W        W 7301   5.707   5.162  10.818
 3333W        W 7302   0.818   3.200   0.819
 3334W        W 7303   6.606   1.401   1.821
 3335W        W 7304   0.794   4.089   9.588
 3336W        W 7305   7.088   9.959  10.358
 3337W        W 7306  10.855   8.568   2.340
 3338W        W 7307   3.726   7.457  10.948
 3339W        W 7308   0.386   2.786   0.378
 3340W        W 7309   8.952   1.831   1.393
 3341W        W 7310   0.275   9.560   9.900
 3342W        W 7311   0.926   5.728  11.507
 3343W        W 7312   1.392   1.821   0.276
 3344W        W 7313   9.475   2.870  11.792
 3345W        W 7314   5.061   9.483   1.343
 3346W        W 7315   2.703   7.576  10.398
 3347W        W 7316   6.567   6.481  11.035
 3348W        W 7317   0.267   4.727   9.430
 3349W        W 7318   8.908   9.914  10.341
 3350W        W 7319   2.659   6.988   1.278
 3351W        W 7320   6.989   3.613   1.913
 3352W        W 7321   0.894   0.832  11.973
 3353W        W 7322   9.999   1.336  11.409
 3354W        W 7323   1.913   5.638  10.889
 3355W        W 7324   5.557  11.325  10.417
 3356W        W 7325  10.539   4.602   8.929
 3357W        W 7326   0.337   7.087  10.949
 3358W        W 7327   5.517  10.515   9.893
 3359W        W 7328   1.312   0.786  11.429
 3360W        W 7329  10.016   9.478  10.072
 3361W        W 7330   2.703   2.659   9.091
 3362W        W 7331   5.045   5.597  11.504
 3363W        W 7332   1.822   4.712  11.857
 3364W        W 7333   8.898   2.871   0.900
 3365W        W 7334   4.689   8.076   2.222
 3366W        W 7335  11.437   0.914   1.269
 3367W        W 7336   6.707   8.046  10.335
 3368W        W 7337  11.415   1.711   9.929
 3369W        W 7338   4.752   9.367  10.061
 3370W        W 7339   1.799   8.925   2.729
 3371W        W 7340   8.052   8.447   1.398
 3372W        W 7341   4.236   4.768   1.231
 3373W        W 7342   0.810   9.970   9.367
 3374W        W 7343   0.743   6.634   2.285
 3375W        W 7344  10.360   8.447   2.679
 3376W        W 7345  10.846   5.511   1.215
 3377W        W 7346   9.974   5.119   2.165
 3378W        W 7347   5.697   1.231   2.818
 3379W        W 7348   9.460   9.069  11.869
 3380W        W 7349   1.380   6.477   9.466
 3381W        W 7350   5.256   5.032   0.870
 3382W        W 7351   1.389   2.352   3.190
 3383W        W 7352   5.165   2.686   2.641
 3384W        W 7353   2.394   4.640   0.882
 3385W        W 7354   1.834  10.837  11.005
 3386W        W 7355   2.307  11.275   0.958
 3387W        W 7356   0.291   8.898   9.905
 3388W        W 7357   1.363  11.421   9.846
 3389W        W 7358  11.286   6.135   9.063
 3390W        W 7359   3.684   1.818   3.259
 3391W        W 7360   3.219   8.450   9.502
 3392W        W 7361  11.426   2.785   9.582
 3393W        W 7362   6.534   3.145   0.346
 3394W        W 7363   5.200  11.013   2.315
 3395W        W 7364   2.831   0.410   9.540
 3396W        W 7365   0.796   5.700  11.867
 3397W        W 7366   1.893   8.116  10.982
 3398W        W 7367   8.976   0.916   9.866
 3399W        W 7368   2.294   1.302   2.876
 3400W        W 7369   9.518   7.033   0.329
 3401W        W 7370   7.024   8.892   8.632
 3402W        W 7371  11.451  10.464   1.747
 3403W        W 7372   1.714  10.306  10.886
 3404W        W 7373   0.749   7.008  11.017
 3405W        W 7374   8.137   4.259   2.687
 3406W        W 7375   0.397   2.703   2.181
 3407W        W 7376   7.983   6.503  11.978
 3408W        W 7377   7.007   2.687   1.849
 3409W        W 7378   5.740   5.707  10.940
 3410W        W 7379  11.335   0.836   8.898
 3411W        W 7380   4.706   8.062  10.064
 3412W        W 7381   4.113  10.932  10.989
 3413W        W 7382   3.237   0.927   9.558
 3414W        W 7383   2.385   2.827  11.937
 3415W        W 7384  10.320   3.201   9.409
 3416W        W 7385   3.291   4.711  11.369
 3417W        W 7386   4.142   8.436  10.837
 3418W        W 7387   2.636   7.118   2.772
 3419W        W 7388   3.346   5.653   8.602
 3420W        W 7389   9.444   8.124   9.051
 3421W        W 7390   8.055   0.741  10.932
 3422W        W 7391   8.462  10.432  10.454
 3423W        W 7392   5.206  11.389   8.914
 3424W        W 7393   8.928  10.855  10.391
 3425W        W 7394  11.000   8.100  11.368
 3426W        W 7395   0.723   2.832   9.920
 3427W        W 7396   1.685  10.491   1.313
 3428W        W 7397  10.860   4.192   3.663
 3429W        W 7398  11.493   3.334   3.206
 3430W        W 7399   2.368   7.163   9.087
 3431W        W 7400   6.549   4.287   9.589
 3432W        W 7401   1.883   3.636   0.874
 3433W        W 7402   9.361   4.648   1.346
 3434W        W 7403   7.983  10.049  11.818
 3435W        W 7404   7.611   7.625   0.349
 3436W        W 7405   5.116   6.615   0.470
 3437W        W 7406   6.620   4.117   8.460
 3438W        W 7407  10.500   9.098  10.553
 3439W        W 7408  11.403   6.490   0.364
 3440W        W 7409   6.477  10.889  10.493
 3441W        W 7410   5.054  11.450  10.871
 3442W        W 7411   4.578   4.093   9.884
 3443W        W 7412   4.675   9.372   1.743
 3444W        W 7413   8.953   6.647   0.938
 3445W        W 7414   2.336   3.295  11.961
 3446W        W 7415   8.897   8.121   9.553
 3447W        W 7416   6.647   2.758   9.023
 3448W        W 7417   3.707   5.614  10.985
 3449W        W 7418   3.139   1.276   9.954
 3450W        W 7419  10.035   7.911   2.314
 3451W        W 7420  10.028   7.097   3.143
 3452W        W 7421   7.549   5.657   1.880
 3453W        W 7422   2.694  10.439  11.023
 3454W        W 7423   2.290  10.374  10.965
 3455W        W 7424   5.077  10.303  11.925
 3456W        W 7425   9.039   6.694   2.205
 3457W        W 7426   1.717   9.046   3.355
 3458W        W 7427   9.519   2.761  11.449
 3459W        W 7428  11.480  10.524  10.051
 3460W        W 7429   3.167   1.871   3.134
 3461W        W 7430   5.104   5.517  10.497
 3462W        W 7431   4.784   3.324   9.451
 3463W        W 7432   7.994   0.919  11.503
 3464W        W 7433   0.825   9.499  11.459
 3465W        W 7434   7.551   3.662   2.872
 3466W        W 7435   1.807   6.582   9.017
 3467W        W 7436   3.755   9.911  11.287
 3468W        W 7437   5.077   0.727   9.497
 3469W        W 7438   5.611   5.107   9.084
 3470W        W 7439   7.581   9.577   9.535
 3471W        W 7440   2.850  10.541   1.866
 3472W        W 7441   9.849   0.328  10.894
 3473W        W 7442   3.741   3.249   2.742
 3474W        W 7443   8.417   6.060   9.462
 3475W        W 7444   6.953   6.561  10.804
 3476W        W 7445   2.749   8.988  11.946
 3477W        W 7446   3.711   5.101   8.579
 3478W        W 7447   2.157   1.437   0.466
 3479W        W 7448  11.008   0.745   1.859
 3480W        W 7449   8.130   0.776   0.413
 3481W        W 7450   9.397   5.540   0.333
 3482W        W 7451   5.718   7.513  11.493
 3483W        W 7452   6.618   9.466   8.020
 3484W        W 7453   4.634   7.920   0.824
 3485W        W 7454   8.976   6.152   2.817
 3486W        W 7455   0.315   4.679   0.241
 3487W        W 7456   6.171  10.463   9.092
 3488W        W 7457   8.437   7.068   2.699
 3489W        W 7458   2.750   9.372  10.489
 3490W        W 7459   1.854   7.033  10.343
 3491W        W 7460   3.814   3.711   2.370
 3492W        W 7461   3.334   5.563   0.463
 3493W        W 7462   6.142   5.524   1.775
 3494W        W 7463   3.707   0.834   1.772
 3495W        W 7464   7.148   2.309   3.320
 3496W        W 7465   5.624  10.952  10.927
 3497W        W 7466  11.463   8.031   9.934
 3498W        W 7467   0.725   6.081   2.691
 3499W        W 7468   5.737   8.579   2.348
 3500W        W 7469   0.769   3.316   2.243
 3501W        W 7470   7.583   3.295  11.291
 3502W        W 7471   6.129  11.309   3.288
 3503W        W 7472   5.135   1.287  10.457
 3504W        W 7473   7.528   8.572   0.356
 3505W        W 7474   1.758   9.872   0.877
 3506W        W 7475   3.658   6.987   3.187
 3507W        W 7476  10.993   8.530   1.244
 3508W        W 7477   4.555   6.024  11.868
 3509W        W 7478   1.798   4.198   0.796
 3510W        W 7479   8.112   4.697   1.309
 3511W        W 7480   6.537   4.158   2.692
 3512W        W 7481   9.020   3.185   1.376
 3513W        W 7482  10.536   8.144  10.890
 3514W        W 7483   0.274   1.268  10.033
 3515W        W 7484   9.373  10.411   9.086
 3516W        W 7485   7.930   8.051   9.397
 3517W        W 7486   8.020   0.832   1.840
 3518W        W 7487   6.191   6.501   3.294
 3519W        W 7488   4.712   1.339   0.849
 3520W        W 7489  11.361  10.894  10.054
 3521W        W 7490  11.305   6.600   2.644
 3522W        W 7491   4.569   1.699   8.538
 3523W        W 7492   2.190   3.775   9.465
 3524W        W 7493   8.920   9.847  11.287
 3525W        W 7494   1.913   6.059   0.899
 3526W        W 7495   2.796   8.966   0.286
 3527W        W 7496   2.260   0.868   9.561
 3528W        W 7497   5.031   0.914   1.340
 3529W        W 7498   9.425   1.299   1.297
 3530W        W 7499   8.541  10.883  10.830
 3531W        W 7500   0.273   5.647  11.935
 3532W        W 7501   6.668   4.176  11.029
 3533W        W 7502   2.267  11.420   1.432
 3534W        W 7503   3.824   1.407  10.478
 3535W        W 7504   4.280   1.337   3.221
 3536W        W 7505   8.871   9.907  10.022
 3537W        W 7506   7.030   2.317   8.630
 3538W        W 7507   0.807   2.837   9.523
 3539W        W 7508   9.353   4.254   8.619
 3540W        W 7509   3.828   1.275   9.080
 3541W        W 7510   4.642   3.313   3.686
 3542W        W 7511   8.443  10.424   9.558
 3543W        W 7512   0.906   7.064   3.247
 3544W        W 7513   4.240   0.401  10.994
 3545W        W 7514   4.266   6.567   2.320
 3546W        W 7515   5.587   8.117   1.208
 3547W        W 7516   5.172   3.798   3.263
 3548W        W 7517   6.146  10.024   2.225
 3549W        W 7518   5.722   3.280   1.251
 3550W        W 7519   0.469   2.250   2.181
 3551W        W 7520  10.811   2.326   0.464
 3552W        W 7521   7.122   6.510   1.737
 3553W        W 7522   4.628   0.886  10.528
 3554W        W 7523   5.131   2.314  10.068
 3555W        W 7524   8.141   7.942  11.513
 3556W        W 7525   6.654   7.666   4.311
 3557W        W 7526   8.054   6.221  11.939
 3558W        W 7527   8.945   4.662   3.264
 3559W        W 7528   1.771   1.707   0.333
 3560W        W 7529  11.432   3.288   1.709
 3561W        W 7530  10.911  10.814   9.033
 3562W        W 7531   3.717   7.979   1.398
 3563W        W 7532   8.923   1.739   2.327
 3564W        W 7533   0.283   1.790   9.435
 3565W        W 7534   0.365  10.874  11.296
 3566W        W 7535   5.539  10.907   0.758
 3567W        W 7536   8.986   4.142   2.253
 3568W        W 7537   2.323   6.065   8.542
 3569W        W 7538   9.445   1.257   9.067
 3570W        W 7539   0.291   5.725   2.748
 3571W        W 7540   2.334  10.800   2.228
 3572W        W 7541   8.991   5.733   1.763
 3573W        W 7542  10.424   4.668   2.778
 3574W        W 7543   1.371   6.197   2.307
 3575W        W 7544  10.329   1.388   9.890
 3576W        W 7545   7.661   7.937  11.908
 3577W        W 7546   6.510   9.020  10.412
 3578W        W 7547   8.124   7.646   9.071
 3579W        W 7548  10.360   9.829   9.583
 3580W        W 7549   6.646   1.833   9.849
 3581W        W 7550   9.077   0.741   2.779
 3582W        W 7551   7.162   2.161  10.065
 3583W        W 7552   8.430   0.355   8.449
 3584W        W 7553   3.335   6.971  10.015
 3585W        W 7554   0.898   3.746  10.376
 3586W        W 7555   5.605   6.529   8.517
 3587W        W 7556   9.089   6.011   3.155
 3588W        W 7557   6.613   6.708   0.932
 3589W        W 7558   9.492   4.227   0.877
 3590W        W 7559   6.624   0.343   0.406
 3591W        W 7560   2.371   3.714   0.837
 3592W        W 7561  11.285   0.414  11.400
 3593W        W 7562   7.659   7.640   1.743
 3594W        W 7563   1.740   1.230  10.326
 3595W        W 7564  10.851   9.571  10.949
 3596W        W 7565   6.046   9.972   9.047
 3597W        W 7566   4.224  10.434   0.914
 3598W        W 7567   2.773  10.517  11.762
 3599W        W 7568   5.718   2.163   3.123
 3600W        W 7569   5.690   0.781   0.919
 3601W        W 7570   5.040   1.369   2.811
 3602W        W 7571   3.272   8.135  10.844
 3603W        W 7572   4.266   5.127  10.890
 3604W        W 7573   2.242   2.365   3.301
 3605W        W 7574   7.094   4.716   3.616
 3606W        W 7575   1.899  10.050   0.434
 3607W        W 7576   6.105   3.701   9.363
 3608W        W 7577   7.003   7.615  11.767
 3609W        W 7578   3.753   2.821   0.444
 3610W        W 7579   5.996   8.110   3.638
 3611W        W 7580   9.463   0.439   0.829
 3612W        W 7581   5.709   3.348   3.683
 3613W        W 7582   9.499   7.040  10.383
 3614W        W 7583   3.735   4.198   9.437
 3615W        W 7584   1.727   3.162   0.337
 3616W        W 7585   3.328   6.002   8.906
 3617W        W 7586  10.783   9.051   2.260
 3618W        W 7587   1.730   1.805  10.525
 3619W        W 7588  11.498  10.407   8.993
 3620W        W 7589   4.596   4.081  10.484
 3621W        W 7590   3.311   2.851  11.506
 3622W        W 7591   4.200   7.446  11.403
 3623W        W 7592   3.650   4.698  10.032
 3624W        W 7593   1.775   0.263  11.329
 3625W        W 7594   4.655  11.328   1.414
 3626W        W 7595   9.469   9.052   8.420
 3627W        W 7596   1.816   2.262   8.952
 3628W        W 7597   2.862   4.086   0.839
 3629W        W 7598   2.726   3.821   0.733
 3630W        W 7599   6.068   9.860   2.742
 3631W        W 7600   2.201  10.789   9.105
 3632W        W 7601  10.904   7.065   9.495
 3633W        W 7602   5.094   8.397   9.375
 3634W        W 7603  10.794   3.609  10.379
 3635W        W 7604  11.379   8.409  11.284
 3636W        W 7605   0.414   7.591  11.790
 3637W        W 7606   0.306   8.109   9.984
 3638W        W 7607   4.152   5.208   1.773
 3639W        W 7608   6.179   3.774  11.931
 3640W        W 7609   6.577   2.254  11.400
 3641W        W 7610   7.152   3.258   2.353
 3642W        W 7611  10.037   4.252   1.380
 3643W        W 7612  10.347   6.685   0.374
 3644W        W 7613   8.569   3.619  11.959
 3645W        W 7614   5.114   8.578   0.782
 3646W        W 7615  10.051   1.316  10.923
 3647W        W 7616   3.657   6.123  11.764
 3648W        W 7617   2.654   7.104   3.166
 3649W        W 7618   1.692   1.381   8.571
 3650W        W 7619   0.289   5.584   0.847
 3651W        W 7620   6.025   8.432   0.750
 3652W        W 7621  10.415   4.600   2.296
 3653W        W 7622   7.627   6.628   1.413
 3654W        W 7623   6.550   8.554   3.760
 3655W        W 7624   1.693   8.446   0.836
 3656W        W 7625   0.426   7.052   8.883
 3657W        W 7626   1.378   1.220   8.911
 3658W        W 7627   9.476   6.174   8.511
 3659W        W 7628  11.486   1.747   9.065
 3660W        W 7629   6.022   5.178   2.683
 3661W        W 7630   7.585  11.496   0.473
 3662W        W 7631   1.238  10.799   1.227
 3663W        W 7632   7.956   1.332   0.891
 3664W        W 7633   2.353  10.519   3.318
 3665W        W 7634   0.374   8.447   3.162
 3666W        W 7635  11.345  11.291   8.910
 3667W        W 7636   6.155   7.485   2.397
 3668W        W 7637  10.853   2.335   0.774
 3669W        W 7638   9.399  11.380   1.697
 3670W        W 7639   9.392   6.530   3.701
 3671W        W 7640   3.282   0.326   0.441
 3672W        W 7641   6.561   5.213   1.243
 3673W        W 7642   9.979   6.994   2.216
 3674W        W 7643   6.621   1.407   9.996
 3675W        W 7644   4.584   9.529   8.920
 3676W        W 7645   3.310  11.276   3.348
 3677W        W 7646   2.722   6.586   0.303
 3678W        W 7647   1.283   1.866   2.225
 3679W        W 7648   0.821   7.030   9.912
 3680W        W 7649   2.853   7.134  10.816
 3681W        W 7650   3.636   2.775  11.320
 3682W        W 7651   9.095  10.376   9.407
 3683W        W 7652   0.459   3.286   3.295
 3684W        W 7653   2.267   8.401   0.737
 3685W        W 7654   5.239   9.869   1.347
 3686W        W 7655   3.804   8.416  10.354
 3687W        W 7656   5.217  11.265   1.279
 3688W        W 7657   3.263   9.865   3.277
 3689W        W 7658   3.620   4.666  11.796
 3690W        W 7659   2.316   7.907  11.387
 3691W        W 7660   5.606   6.952   9.371
 3692W        W 7661   6.011   5.522   8.448
 3693W        W 7662  10.323   9.460   8.929
 3694W        W 7663   4.662   6.526  10.828
 3695W        W 7664   2.852   5.107  10.908
 3696W        W 7665   3.190   2.368   3.309
 3697W        W 7666  10.049   5.570   9.520
 3698W        W 7667   3.611   4.308  10.953
 3699W        W 7668   6.637   1.385   0.954
 3700W        W 7669  10.448   1.229   1.293
 3701W        W 7670   2.339   8.035   9.034
 3702W        W 7671   2.341   7.174   2.756
 3703W        W 7672   0.881   4.616   2.320
 3704W        W 7673   3.230   5.711  11.421
 3705W        W 7674   7.627   1.326   2.671
 3706W        W 7675   3.694   8.009   2.825
 3707W        W 7676   6.061  11.294  11.302
 3708W        W 7677   1.887   6.208  11.472
 3709W        W 7678   5.232   4.190   0.474
 3710W        W 7679   5.651   3.248   0.798
 3711W        W 7680   4.166   0.414   3.342
 3712W        W 7681   7.548   6.953   2.193
 3713W        W 7682   2.822   9.566   9.593
 3714W        W 7683   2.686   3.621  11.314
 3715W        W 7684   8.563   5.085   9.045
 3716W        W 7685   5.735   6.536   9.554
 3717W        W 7686   8.557   4.081   1.796
 3718W        W 7687   7.988   8.104  10.900
 3719W        W 7688   2.188   8.450   9.944
 3720W        W 7689   4.686   1.777   0.865
 3721W        W 7690   5.258  10.048   8.949
 3722W        W 7691   3.637  10.028   1.713
 3723W        W 7692   5.568  10.057   1.816
 3724W        W 7693   9.851   6.212   2.718
 3725W        W 7694   6.959   9.502   1.236
 3726W        W 7695   0.255   4.178   0.927
 3727W        W 7696  10.863   6.473  10.944
 3728W        W 7697   6.628   1.884   8.067
 3729W        W 7698   1.823   1.315   8.906
 3730W        W 7699   7.639   4.095   2.255
 3731W        W 7700   3.242   9.894  10.550
 3732W        W 7701   4.639   1.842   0.287
 3733W        W 7702   9.925   5.744   2.694
 3734W        W 7703   4.239   0.452   0.871
 3735W        W 7704   7.945   6.123   1.905
 3736W        W 7705  10.820   6.559   8.593
 3737W        W 7706   0.848   9.362   0.265
 3738W        W 7707   6.001   3.121  10.052
 3739W        W 7708   0.857   0.329   3.136
 3740W        W 7709   2.230   2.257   1.268
 3741W        W 7710  10.837   0.345  10.879
 3742W        W 7711   8.614   4.311   1.310
 3743W        W 7712  10.397   5.075   0.878
 3744W        W 7713   6.042   7.976   9.106
 3745W        W 7714   1.826   7.438   1.752
 3746W        W 7715   1.208   3.115   1.683
 3747W        W 7716   3.664   1.406   2.214
 3748W        W 7717   8.077   2.215  10.041
 3749W        W 7718   4.699   4.740   1.395
 3750W        W 7719   0.337  10.528  10.371
 3751W        W 7720   0.901   3.194   2.716
 3752W        W 7721   9.929   7.632  11.365
 3753W        W 7722   8.431  10.496   3.133
 3754W        W 7723   6.595   4.631  11.387
 3755W        W 7724   8.134   3.718   3.342
 3756W        W 7725  10.521   2.801   3.249
 3757W        W 7726   5.602   6.168  11.948
 3758W        W 7727   1.838   6.121  10.522
 3759W        W 7728   7.446  11.006   0.913
 3760W        W 7729   1.790  10.048  11.020
 3761W        W 7730   5.034   8.882  11.317
 3762W        W 7731   3.799   9.901  11.946
 3763W        W 7732   7.116   4.578   4.159
 3764W        W 7733   2.759   1.785  10.976
 3765W        W 7734   6.948  11.408  10.331
 3766W        W 7735  11.289  10.386   1.302
 3767W        W 7736   5.645   4.157  11.433
 3768W        W 7737   7.072   9.418   9.426
 3769W        W 7738   4.126   4.178   2.278
 3770W        W 7739  10.396   5.226   2.707
 3771W        W 7740   2.311   0.836  11.808
 3772W        W 7741   7.990   9.364  10.482
 3773W        W 7742   1.898   2.160   3.172
 3774W        W 7743   6.043   3.153   1.802
 3775W        W 7744  10.873   1.911   9.376
 3776W        W 7745   2.223   6.067   1.382
 3777W        W 7746   0.284  11.352   0.950
 3778W        W 7747   9.567   5.186   0.936
 3779W        W 7748   4.288   1.722  11.479
 3780W        W 7749   9.919   3.771   1.847
 3781W        W 7750   3.351  10.422   1.245
 3782W        W 7751   5.177   8.597   9.055
 3783W        W 7752   8.391   8.401   3.278
 3784W        W 7753   3.352   3.202  10.325
 3785W        W 7754   5.210  11.295   0.334
 3786W        W 7755   8.457   6.593  11.502
 3787W        W 7756   6.699   7.110   0.805
 3788W        W 7757   6.154   1.822  10.005
 3789W        W 7758  10.019   8.539   1.382
 3790W        W 7759   7.945   0.719   9.549
 3791W        W 7760   1.229   1.420  10.477
 3792W        W 7761   6.217   9.369   1.885
 3793W        W 7762  11.411  11.425  11.410
 3794W        W 7763   1.223   4.209   2.675
 3795W        W 7764   3.122   1.308   0.352
 3796W        W 7765   9.576   3.800   0.776
 3797W        W 7766   3.170   8.463   1.857
 3798W        W 7767   3.699   4.766   3.169
 3799W        W 7768   5.992   0.767  10.813
 3800W        W 7769   4.216   1.757   2.300
 3801W        W 7770   1.286   6.529   2.673
 3802W        W 7771  10.804  10.893   1.714
 3803W        W 7772   3.276   4.734  11.965
 3804W        W 7773   6.477   9.492  10.856
 3805W        W 7774   4.243   8.546   9.958
 3806W        W 7775  10.394   3.141  11.781
 3807W        W 7776   9.829  11.301  11.939
 3808W        W 7777   4.167   8.107   0.284
 3809W        W 7778   9.977   2.267   0.410
 3810W        W 7779   1.405   4.119   9.884
 3811W        W 7780   9.389   6.673  11.464
 3812W        W 7781   1.263   7.177   1.710
 3813W        W 7782   2.664   2.298   9.571
 3814W        W 7783   2.762   0.403   9.949
 3815W        W 7784   4.220   6.950  10.916
 3816W        W 7785   0.916  11.018   2.805
 3817W        W 7786   5.522   6.566   2.650
 3818W        W 7787   6.103   4.775  11.770
 3819W        W 7788   7.171   3.762   0.332
 3820W        W 7789  10.516   6.603   9.932
 3821W        W 7790   9.072   9.405   2.642
 3822W        W 7791   0.296   2.391   1.876
 3823W        W 7792   3.616   9.942   2.878
 3824W        W 7793  11.480   5.092   9.394
 3825W        W 7794  11.330   5.261   0.798
 3826W        W 7795   4.772   5.077  10.451
 3827W        W 7796   7.051   2.671  10.463
 3828W        W 7797   9.910   0.719   2.698
 3829W        W 7798   3.682   1.380  11.882
 3830W        W 7799  10.959   8.568  11.882
 3831W        W 7800   4.275   2.307   1.237
 3832W        W 7801  10.025   6.633   9.543
 3833W        W 7802   0.310   1.350   3.215
 3834W        W 7803   4.139   3.154   0.815
 3835W        W 7804   9.924   6.562  11.962
 3836W        W 7805   1.718   1.290   1.205
 3837W        W 7806  10.444   4.201   1.711
 3838W        W 7807   0.313   7.505   0.960
 3839W        W 7808  11.463   0.330   1.774
 3840W        W 7809   0.280   3.123   0.866
 3841W        W 7810   3.779  11.006   1.691
 3842W        W 7811   1.875   7.120   0.452
 3843W        W 7812  11.406   3.605   9.474
 3844W        W 7813  10.379   6.044  10.529
 3845W        W 7814   1.303   8.017   1.309
 3846W        W 7815  11.016   1.833  11.355
 3847W        W 7816   2.362   8.116   1.887
 3848W        W 7817   3.653   7.635   2.200
 3849W        W 7818   8.057  10.342   0.959
 3850W        W 7819   1.246   5.694   2.392
 3851W        W 7820   7.455   8.450   0.750
 3852W        W 7821   5.240   9.063   2.829
 3853W        W 7822   6.020   3.252   8.104
 3854W        W 7823   6.700   3.688  10.491
 3855W        W 7824   6.115   4.262   9.035
 3856W        W 7825   9.480   1.801  11.985
 3857W        W 7826   6.630   8.140   3.822
 3858W        W 7827   8.931   3.147   0.882
 3859W        W 7828   4.231   9.536   2.261
 3860W        W 7829   4.682  10.971  10.922
 3861W        W 7830   0.741   4.660   1.338
 3862W        W 7831   4.107   2.388  11.405
 3863W        W 7832  10.010   6.577   8.527
 3864W        W 7833   0.845   7.567  11.477
 3865W        W 7834   9.930   9.876   2.277
 3866W        W 7835   6.688   6.678   1.218
 3867W        W 7836   6.068   6.695  11.439
 3868W        W 7837   2.223   9.396   1.397
 3869W        W 7838   5.521   9.531  10.960
 3870W        W 7839   1.677   0.850   9.363
 3871W        W 7840   5.725   9.059  10.843
 3872W        W 7841   6.084   0.720   9.009
 3873W        W 7842   7.175   9.407  10.978
 3874W        W 7843   5.586   1.775  10.513
 3875W        W 7844   1.685   3.603  10.054
 3876W        W 7845   4.567   1.198   1.697
 3877W        W 7846   7.609  10.345   8.495
 3878W        W 7847   4.749   7.160   0.847
 3879W        W 7848   6.599   2.861   9.983
 3880W        W 7849   9.928   6.497  11.397
 3881W        W 7850  10.986   4.627   2.195
 3882W        W 7851   5.544   4.561   1.299
 3883W        W 7852   0.335   6.114   8.954
 3884W        W 7853   7.559  10.866   9.535
 3885W        W 7854   7.957   9.356   2.339
 3886W        W 7855   2.354  10.894   3.199
 3887W        W 7856   3.677   4.227   0.422
 3888W        W 7857   0.366   8.588  10.371
 3889W        W 7858   8.465   2.741  11.784
 3890W        W 7859   9.913   6.491   1.205
 3891W        W 7860   5.099   0.380   9.519
 3892W        W 7861  11.408   8.137   1.308
 3893W        W 7862  10.048   7.165   1.429
 3894W        W 7863   7.645   6.106  10.531
 3895W        W 7864   6.137   3.725   8.080
 3896W        W 7865   5.138   6.523   3.176
 3897W        W 7866   0.912   1.380   1.397
 3898W        W 7867   4.186  10.494   2.782
 3899W        W 7868  10.804   7.487  11.930
 3900W        W 7869   1.770   1.382  11.780
 3901W        W 7870   7.079   1.357  10.321
 3902W        W 7871   9.953   8.458   3.311
 3903W        W 7872   8.010  11.492   9.366
 3904W        W 7873  10.435   8.439  10.962
 3905W        W 7874   2.352   8.883   0.469
 3906W        W 7875   1.210   4.634   3.257
 3907W        W 7876   5.657   0.883  10.393
 3908W        W 7877   1.803  10.472   0.753
 3909W        W 7878   9.401   7.010   0.756
 3910W        W 7879   2.210   1.858   1.260
 3911W        W 7880   2.655  10.340   1.246
 3912W        W 7881   2.217   7.479   8.982
 3913W        W 7882   4.777   9.098   0.453
 3914W        W 7883   1.727   3.261  10.453
 3915W        W 7884   6.066   9.504  11.021
 3916W        W 7885   8.542   2.763   1.710
 3917W        W 7886   3.354   3.308   2.309
 3918W        W 7887   0.840   0.395  11.799
 3919W        W 7888  10.984   4.695   3.160
 3920W        W 7889   1.716   7.944   1.707
 3921W        W 7890   4.778   9.897   1.728
 3922W        W 7891  10.942   5.069  11.878
 3923W        W 7892   1.744   1.697   9.099
 3924W        W 7893   5.122   2.687   9.884
 3925W        W 7894  10.465   0.946   8.888
 3926W        W 7895   2.649   1.412   2.203
 3927W        W 7896   4.564   3.227  11.827
 3928W        W 7897   5.054   7.921  10.526
 3929W        W 7898   7.583   4.303   0.298
 3930W        W 7899   9.007   8.448   0.471
 3931W        W 7900   9.530   0.300   9.969
 3932W        W 7901   4.211   7.514   1.782
 3933W        W 7902   8.904   8.604   9.060
 3934W        W 7903   3.741   6.999  10.536
 3935W        W 7904   5.119   6.031   0.348
 3936W        W 7905   6.541   7.952   9.984
 3937W        W 7906   9.518   7.487   1.863
 3938W        W 7907   6.682   1.787   3.278
 3939W        W 7908  10.961   9.353   2.763
 3940W        W 7909   2.294   1.342  10.450
 3941W        W 7910   0.924   1.387   0.331
 3942W        W 7911   4.202  11.377   3.150
 3943W        W 7912  11.278   9.056   3.322
 3944W        W 7913   0.416   6.491   2.336
 3945W        W 7914   5.723   1.288  10.380
 3946W        W 7915   3.241   3.758   3.213
 3947W        W 7916   6.955   3.722   9.507
 3948W        W 7917   8.487   1.721   2.162
 3949W        W 7918   1.706   2.665   2.799
 3950W        W 7919   3.269   0.893   1.812
 3951W        W 7920   2.730   2.776   2.763
 3952W        W 7921  10.350   7.107   1.783
 3953W        W 7922   9.941   4.228   1.736
 3954W        W 7923   0.733   6.181   2.178
 3955W        W 7924   0.744   1.365   9.584
 3956W        W 7925   5.570   5.036   1.295
 3957W        W 7926   6.702   2.267   1.258
 3958W        W 7927   7.171   6.609  10.553
 3959W        W 7928  11.458   7.086   2.212
 3960W        W 7929   2.685   9.352   0.777
 3961W        W 7930   4.239   5.077  11.791
 3962W        W 7931  10.853   2.698  11.309
 3963W        W 7932   1.359   5.646  11.368
 3964W        W 7933   5.032   7.482  10.924
 3965W        W 7934   4.269   2.349   1.890
 3966W        W 7935   5.521   8.624   3.172
 3967W        W 7936   9.386   5.733  11.031
 3968W        W 7937   4.078   7.139   9.928
 3969W        W 7938  11.262   3.255   8.591
 3970W        W 7939   8.523   2.756  10.337
 3971W        W 7940   8.571   8.546   8.487
 3972W        W 7941   5.090   2.288   0.410
 3973W        W 7942   3.745   8.036   9.426
 3974W        W 7943   3.296   2.787   2.221
 3975W        W 7944  10.879   9.968  10.344
 3976W        W 7945   2.746   9.988   9.082
 3977W        W 7946   1.261   6.666   3.203
 3978W        W 7947   7.485   0.246   3.272
 3979W        W 7948   3.244   6.629  11.308
 3980W        W 7949  10.909   1.716   3.122
 3981W        W 7950   4.265   1.324   2.206
 3982W        W 7951   6.626   2.299   8.485
 3983W        W 7952   3.808   6.959   1.428
 3984W        W 7953   1.219   6.961   1.314
 3985W        W 7954   3.603  11.423  10.499
 3986W        W 7955   2.322   4.666  10.525
 3987W        W 7956   3.833   1.393   1.417
 3988W        W 7957   7.937   8.574   0.749
 3989W        W 7958   5.227   1.352   1.230
 3990W        W 7959  11.303   3.823   1.430
 3991W        W 7960   0.354   5.222   9.469
 3992W        W 7961   5.189  10.828  10.949
 3993W        W 7962   7.089   9.542  11.890
 3994W        W 7963   1.689   0.292   2.239
 3995W        W 7964  11.261   2.344   9.371
 3996W        W 7965   0.821   1.750   0.833
 3997W        W 7966   7.001   2.279  11.851
 3998W        W 7967   5.219   5.255   0.455
 3999W        W 7968   1.885   3.625  10.996
 4000W        W 7969   0.477   1.353   9.525
 4001W        W 7970   5.996   9.567   1.374
 4002W        W 7971   5.121   3.287   2.771
 4003W        W 7972   1.219   2.171  11.390
 4004W        W 7973   7.925   4.740   0.760
 4005W        W 7974   9.392   2.327  11.845
 4006W        W 7975  11.274   6.580   3.299
 4007W        W 7976   2.731   0.802   9.452
 4008W        W 7977  10.911   3.653   9.006
 4009W        W 7978   8.387   3.777   3.248
 4010W        W 7979   5.197   2.764   0.388
 4011W        W 7980   2.199   1.375  11.326
 4012W        W 7981   2.204   8.406   2.642
 4013W        W 7982   0.422   0.827  11.387
 4014W        W 7983  11.275   1.897  10.805
 4015W        W 7984   1.384   1.913  10.496
 4016W        W 7985   2.638   7.135   8.906
 4017W        W 7986   3.256   8.534   2.305
 4018W        W 7987  10.803   8.029   3.750
 4019W        W 7988   3.342  10.360   1.765
 4020W        W 7989   2.327   9.853   1.370
 4021W        W 7990   0.286   1.387  10.842
 4022W        W 7991  11.401  10.343  11.845
 4023W        W 7992  11.458   8.020  11.416
 4024W        W 7993   5.153  10.043   2.738
 4025W        W 7994   6.106   4.731   0.947
 4026W        W 7995  11.482   4.744   1.287
 4027W        W 7996   6.584   0.901   8.900
 4028W        W 7997   3.666   6.149   0.437
 4029W        W 7998   8.463   4.132   9.951
 4030W        W 7999   2.711   9.096   1.243
 4031W        W 8000   9.854   2.639   8.606
 4032W        W 8001   8.478   4.213  11.928
 4033W        W 8002   9.027   2.710   2.173
 4034W        W 8003   7.565   0.771  10.808
 4035W        W 8004   8.493   6.511  10.046
 4036W        W 8005   9.073   1.231   8.946
 4037W        W 8006   8.502   7.015  10.879
 4038W        W 8007   9.078   7.020   7.958
 4039W        W 8008   2.797   0.476   3.303
 4040W        W 8009   9.530   6.160   9.074
 4041W        W 8010  10.497   9.424   1.329
 4042W        W 8011   9.016   8.081   8.898
 4043W        W 8012   5.112   4.564   1.248
 4044W        W 8013   2.840   6.004  10.006
 4045W        W 8014   6.165   4.206   0.315
 4046W        W 8015   5.668   3.677   8.981
 4047W        W 8016   3.601   2.746   2.300
 4048W        W 8017   2.753   9.548   3.222
 4049W        W 8018   0.467  10.035  10.898
 4050W        W 8019   7.952   2.276  10.490
 4051W        W 8020   4.127  10.023   9.080
 4052W        W 8021   2.825   0.903  10.353
 4053W        W 8022   3.224  10.044  11.461
 4054W        W 8023   9.420   1.799   0.263
 4055W        W 8024   7.509   1.350   9.926
 4056W        W 8025   3.646  10.341  10.879
 4057W        W 8026   7.632  10.857  10.424
 4058W        W 8027   4.122   3.297   0.436
 4059W        W 8028   7.548  10.327   9.546
 4060W        W 8029   1.798  10.340  11.777
 4061W        W 8030   7.569   6.186   3.824
 4062W        W 8031   9.826   2.676   2.239
 4063W        W 8032   6.682   9.932   1.340
 4064W        W 8033   6.692   3.243   9.900
 4065W        W 8034  11.284   9.080   9.588
 4066W        W 8035   2.640  10.024   1.430
 4067W        W 8036   7.103   8.470   2.210
 4068W        W 8037   9.056   5.533   9.956
 4069W        W 8038  10.879   2.218   1.415
 4070W        W 8039   5.744   4.552  11.902
 4071W        W 8040   6.200   2.378   3.205
 4072W        W 8041   0.934   5.636   9.964
 4073W        W 8042   4.731   6.471   0.251
 4074W        W 8043   2.187   3.716   1.843
 4075W        W 8044   4.719  10.797   8.984
 4076W        W 8045   0.946   6.504  10.490
 4077W        W 8046   9.376   8.956  10.334
 4078W        W 8047   0.434  11.351   0.394
 4079W        W 8048   8.409   8.070   2.292
 4080W        W 8049   1.239   9.461  10.000
 4081W        W 8050   4.166  10.398   0.432
 4082W        W 8051   4.688   0.922   1.215
 4083W        W 8052   0.349   0.789   8.484
 4084W        W 8053   7.558   8.959   1.270
 4085W        W 8054   5.539   0.339   2.874
 4086W        W 8055  11.439   5.171   2.217
 4087W        W 8056   0.794   6.134  10.908
 4088W        W 8057  10.037   9.396   0.262
 4089W        W 8058   5.124  11.470  11.317
 4090W        W 8059   0.879   4.715   1.812
 4091W        W 8060   7.496   7.589  10.517
 4092W        W 8061   8.485   0.259   3.268
 4093W        W 8062   4.608   6.953   9.367
 4094W        W 8063   4.170  10.020   1.684
 4095W        W 8064   3.171   3.718   9.988
 4096W        W 8065   9.403   0.827   3.823
 4097W        W 8066   3.265  10.977  11.917
 4098W        W 8067   0.916   5.033   0.357
 4099W        W 8068   7.976   2.332  11.496
 4100W        W 8069  10.873   5.070   0.414
 4101W        W 8070   5.145   0.252   2.253
 4102W        W 8071   6.192  11.399   1.260
 4103W        W 8072   1.756  10.877   9.844
 4104W        W 8073   3.637   5.081   1.758
 4105W        W 8074   8.604  10.413   3.800
 4106W        W 8075   6.075   9.911   0.765
 4107W        W 8076   3.649  10.929  11.308
 4108W        W 8077   5.119   3.284  10.417
 4109W        W 8078  10.893   7.475   2.743
 4110W        W 8079   3.253   7.597   0.464
 4111W        W 8080   9.346   5.080   4.310
 4112W        W 8081   4.558   8.040  10.450
 4113W        W 8082   3.318   2.726   3.261
 4114W        W 8083   0.345   0.881   1.852
 4115W        W 8084   7.634   9.948   3.234
 4116W        W 8085   2.704   4.610  10.455
 4117W        W 8086   5.237   8.987   1.867
 4118W        W 8087   5.184   3.238   8.534
 4119W        W 8088  10.513   7.006   9.475
 4120W        W 8089   9.022   3.779   9.505
 4121W        W 8090   8.920   1.232   1.231
 4122W        W 8091   2.669   1.236   9.539
 4123W        W 8092   2.167   2.801   2.823
 4124W        W 8093   6.005  10.480  10.446
 4125W        W 8094   3.739   2.722   9.961
 4126W        W 8095  10.863   3.207   9.893
 4127W        W 8096  10.908   5.162   2.259
 4128W        W 8097   8.041   0.815   3.264
 4129W        W 8098  10.898   3.120  10.475
 4130W        W 8099  11.425   2.312   0.435
 4131W        W 8100   3.350   9.357  11.020
 4132W        W 8101   5.192   1.840   9.469
 4133W        W 8102   9.507   7.444  10.321
 4134W        W 8103   4.155   2.788  11.365
 4135W        W 8104   6.592   0.317   1.205
 4136W        W 8105  11.408   8.479   1.327
 4137W        W 8106  11.376   2.301  10.384
 4138W        W 8107   0.810   3.656   3.190
 4139W        W 8108   2.848   6.032   3.281
 4140W        W 8109   2.820   1.733   1.294
 4141W        W 8110   2.770   3.323   3.757
 4142W        W 8111   8.999   0.244   1.760
 4143W        W 8112   0.272   9.458   3.303
 4144W        W 8113   9.077   5.245   2.345
 4145W        W 8114   6.197   3.244   3.681
 4146W        W 8115  11.442   5.744   9.972
 4147W        W 8116   9.002   7.932  11.895
 4148W        W 8117   7.597  11.400  11.318
 4149W        W 8118   1.746   2.191  10.899
 4150W        W 8119   2.294  11.398   3.160
 4151W        W 8120   3.273   9.461  11.477
 4152W        W 8121   6.708   6.983   0.448
 4153W        W 8122   1.321   7.445   1.719
 4154W        W 8123   9.357   8.555   8.592
 4155W        W 8124  10.019   4.758   2.872
 4156W        W 8125  10.330  11.470   0.758
 4157W        W 8126   9.568   4.096   1.419
 4158W        W 8127   4.733   2.393   8.586
 4159W        W 8128   6.705   0.282   3.233
 4160W        W 8129   9.895   1.398   0.767
 4161W        W 8130   4.640  11.379   9.495
 4162W        W 8131   6.053   1.354   2.243
 4163W        W 8132   9.834   7.581  11.004
 4164W        W 8133   8.080   5.090  11.417
 4165W        W 8134   8.103   9.415   0.246
 4166W        W 8135   5.613   5.740   1.861
 4167W        W 8136   8.043   2.171   0.919
 4168W        W 8137   2.838   9.884   3.207
 4169W        W 8138   6.505   8.886   0.892
 4170W        W 8139   6.663   9.982   3.172
 4171W        W 8140   5.542   6.033   1.369
 4172W        W 8141   8.580   8.125   0.433
 4173W        W 8142   6.156   2.306   1.696
 4174W        W 8143   0.850   3.235   0.432
 4175W        W 8144   9.479   8.888   9.079
 4176W        W 8145   8.407   3.149  10.023
 4177W        W 8146  10.913   2.828   9.584
 4178W        W 8147   4.695   2.773  11.296
 4179W        W 8148   6.484  11.319  11.930
 4180W        W 8149   9.839   2.277   8.436
 4181W        W 8150  10.470   0.332  11.794
 4182W        W 8151   0.895   4.279  10.072
 4183W        W 8152  11.323   4.762   0.867
 4184W        W 8153   8.388   2.284   2.738
 4185W        W 8154   5.590   9.892   3.230
 4186W        W 8155  10.385  10.928   1.408
 4187W        W 8156   9.042   8.434  10.998
 4188W        W 8157  11.327   9.070  11.290
 4189W        W 8158   7.068  10.033   9.578
 4190W        W 8159   0.406   0.726   3.243
 4191W        W 8160   5.053   1.892   8.127
 4192W        W 8161   8.084   1.213   2.182
 4193W        W 8162   8.124  11.485  11.806
 4194W        W 8163   6.616   6.222   8.903
 4195W        W 8164  10.492   9.401   3.124
 4196W        W 8165  10.988   4.627   2.709
 4197W        W 8166  11.402   9.935   2.291
 4198W        W 8167   9.097   2.189   9.594
 4199W        W 8168   4.577  10.970   0.255
 4200W        W 8169   7.006   2.306   2.163
 4201W        W 8170   5.741   1.307  11.295
 4202W        W 8171  10.372   0.774   3.614
 4203W        W 8172  11.321   6.112   3.267
 4204W        W 8173   5.229   5.543   1.336
 4205W        W 8174   2.691   7.048   1.801
 4206W        W 8175   5.089   7.552  10.037
 4207W        W 8176  10.981   5.589   8.631
 4208W        W 8177   0.887   5.634  10.414
 4209W        W 8178   5.641   9.569   2.703
 4210W        W 8179   3.130   8.564  10.858
 4211W        W 8180   5.514  10.473   0.759
 4212W        W 8181   1.341   1.696   1.291
 4213W        W 8182   4.234   7.654   1.347
 4214W        W 8183   3.685  11.396   1.291
 4215W        W 8184   6.162   0.831   2.841
 4216W        W 8185  11.006  10.524   1.682
 4217W        W 8186   0.893   0.753   3.662
 4218W        W 8187   9.868   3.279   0.308
 4219W        W 8188   4.244   8.947  11.301
 4220W        W 8189  10.948   3.719   0.263
 4221W        W 8190   3.770   3.324   0.436
 4222W        W 8191   0.370   3.154   1.881
 4223W        W 8192   6.597   7.645   2.265
 4224W        W 8193   4.784   7.083   3.353
 4225W        W 8194   4.674  10.414  10.471
 4226W        W 8195   9.456   2.369  10.011
 4227W        W 8196   0.836   8.603   3.331
 4228W        W 8197   9.471   6.204   1.316
 4229W        W 8198   7.178   1.731   9.483
 4230W        W 8199  11.376   3.302  11.891
 4231W        W 8200   8.093   7.926   0.780
 4232W        W 8201   6.685   1.693   2.708
 4233W        W 8202   8.891   2.362   8.995
 4234W        W 8203   8.865   4.618  11.326
 4235W        W 8204   2.290   1.728   9.964
 4236W        W 8205   1.703   5.198   9.860
 4237W        W 8206   0.806   2.240   0.326
 4238W        W 8207  11.266   7.050   9.977
 4239W        W 8208   2.208  10.992  11.310
 4240W        W 8209   8.084   4.074   1.729
 4241W        W 8210   0.945   8.577   2.841
 4242W        W 8211   8.528   1.716  11.405
 4243W        W 8212   6.994   4.741  10.524
 4244W        W 8213   7.158   1.421   9.596
 4245W        W 8214  11.314   1.207   1.763
 4246W        W 8215   4.256   5.554   1.779
 4247W        W 8216   8.992   8.548   1.728
 4248W        W 8217   5.072   9.471   2.707
 4249W        W 8218   6.193   2.854   3.199
 4250W        W 8219   2.282   7.448   0.319
 4251W        W 8220   7.957   2.662   2.675
 4252W        W 8221   8.970  11.306   2.810
 4253W        W 8222   2.301   8.996   8.472
 4254W        W 8223   4.738   2.856  10.380
 4255W        W 8224   8.941   9.476   9.966
 4256W        W 8225   5.098   7.483   9.583
 4257W        W 8226   8.959   6.130  11.774
 4258W        W 8227   7.997   8.537   9.930
 4259W        W 8228   5.540   8.104   0.268
 4260W        W 8229   9.569   1.381   9.850
 4261W        W 8230   6.170   3.655   0.817
 4262W        W 8231   1.395   7.431   3.151
 4263W        W 8232   3.799   9.027   3.358
 4264W        W 8233   4.739   0.906   0.252
 4265W        W 8234   2.359   8.119   9.477
 4266W        W 8235   2.215   8.522   1.216
 4267W        W 8236   2.218   4.240   9.516
 4268W        W 8237   4.688   5.086   0.332
 4269W        W 8238   1.411   8.495   2.713
 4270W        W 8239   4.164   9.495   2.774
 4271W        W 8240  11.462   7.633  10.972
 4272W        W 8241   6.036   6.044   1.732
 4273W        W 8242   0.443   7.950  11.779
 4274W        W 8243  10.979   8.122  12.000
 4275W        W 8244  10.850   1.393   9.981
 4276W        W 8245   8.428   9.564   9.490
 4277W        W 8246  11.356   4.219   0.875
 4278W        W 8247   5.731   4.660   8.978
 4279W        W 8248  10.366   5.128   1.808
 4280W        W 8249   5.098   3.810   0.830
 4281W        W 8250   4.567   6.980  10.899
 4282W        W 8251   1.208  10.870   3.829
 4283W        W 8252   5.589  10.427  10.341
 4284W        W 8253   7.590   2.847   9.453
 4285W        W 8254   6.547   0.928   0.449
 4286W        W 8255   8.016   8.590   1.696
 4287W        W 8256   0.905   0.906  11.293
 4288W        W 8257   1.776   0.793   0.878
 4289W        W 8258   8.531   5.584  11.357
 4290W        W 8259   4.632   7.439  10.445
 4291W        W 8260   1.296   3.249   9.068
 4292W        W 8261   2.750   8.530  10.954
 4293W        W 8262   6.566   2.346   0.342
 4294W        W 8263   9.436   4.289   9.548
 4295W        W 8264  11.397   5.185   1.399
 4296W        W 8265   4.215   6.658   9.896
 4297W        W 8266   9.458   1.309   1.732
 4298W        W 8267   9.015   8.127   0.934
 4299W        W 8268  10.494  10.450  10.996
 4300W        W 8269   9.830   9.411  11.514
 4301W        W 8270  10.472   8.556   9.003
 4302W        W 8271   3.125  10.960   1.220
 4303W        W 8272   0.741   3.817   9.960
 4304W        W 8273  10.312   7.515   1.403
 4305W        W 8274   9.021   1.806   8.884
 4306W        W 8275   9.484   8.456   2.316
 4307W        W 8276   7.459   7.654  10.851
 4308W        W 8277   0.763   9.556   2.238
 4309W        W 8278   1.885   9.565   1.296
 4310W        W 8279   4.216   6.191   9.848
 4311W        W 8280   0.280   2.846   1.338
 4312W        W 8281   5.735   5.637   2.187
 4313W        W 8282   5.049   0.317   8.989
 4314W        W 8283   7.547  10.522   0.311
 4315W        W 8284   7.621   8.929   2.660
 4316W        W 8285   7.480   2.839   0.880
 4317W        W 8286   8.482   1.328  11.838
 4318W        W 8287   2.383   8.397   9.392
 4319W        W 8288   8.037  11.421   2.379
 4320W        W 8289   4.162   7.063   1.359
 4321W        W 8290   8.492   0.371   1.298
 4322W        W 8291   9.453   4.596  11.471
 4323W        W 8292  11.283   1.219  10.870
 4324W        W 8293   3.689   1.198   9.459
 4325W        W 8294   9.375   5.641   8.489
 4326W        W 8295  10.003  10.356  11.371
 4327W        W 8296   2.341   7.587  11.400
 4328W        W 8297   4.759   2.205   1.831
 4329W        W 8298   5.233   1.276  10.017
 4330W        W 8299  11.276  10.534   3.203
 4331W        W 8300   1.793   8.561   1.800
 4332W        W 8301   6.043   3.754   4.121
 4333W        W 8302   4.258   4.674   8.630
 4334W        W 8303   7.908   9.522   1.879
 4335W        W 8304   5.649   9.065  11.855
 4336W        W 8305  11.397   4.273  10.349
 4337W        W 8306   4.103   1.406   0.947
 4338W        W 8307  11.479   7.475   1.393
 4339W        W 8308   5.254   8.429  11.451
 4340W        W 8309   4.648   4.296  11.857
 4341W        W 8310   9.831   1.802   0.368
 4342W        W 8311   8.397  10.306   1.249
 4343W        W 8312  10.346  11.004   8.904
 4344W        W 8313   0.437   9.473   2.874
 4345W        W 8314   7.530   4.244   8.912
 4346W        W 8315   1.792   5.992   3.301
 4347W        W 8316   4.297   0.303   0.439
 4348W        W 8317   6.152   7.665  11.364
 4349W        W 8318   7.020   8.937   9.949
 4350W        W 8319   2.870   0.748   2.163
 4351W        W 8320   9.533   9.013   3.309
 4352W        W 8321   2.167   2.774   2.387
 4353W        W 8322  11.303  11.439   0.769
 4354W        W 8323   6.652   3.649   1.865
 4355W        W 8324   6.136   2.299   0.934
 4356W        W 8325   1.889  10.787   0.847
 4357W        W 8326   7.908   4.176  11.950
 4358W        W 8327   7.459  11.016   9.915
 4359W        W 8328  10.828   1.343   9.077
 4360W        W 8329  10.985   6.703   1.738
 4361W        W 8330  10.318   6.048   9.524
 4362W        W 8331   8.527   2.321  11.302
 4363W        W 8332   8.533   1.678   2.852
 4364W        W 8333   3.132   2.340   2.676
 4365W        W 8334   7.493   2.336   3.219
 4366W        W 8335   8.018  10.359   9.066
 4367W        W 8336   5.055   9.102   9.595
 4368W        W 8337   5.134   8.877  11.964
 4369W        W 8338   2.679   2.290   2.823
 4370W        W 8339   6.640   6.024  11.898
 4371W        W 8340   7.466   7.159   0.759
 4372W        W 8341   5.223   0.271  11.374
 4373W        W 8342   8.903   2.751   2.700
 4374W        W 8343   1.788  11.382   2.834
 4375W        W 8344   4.272   9.437  11.983
 4376W        W 8345   9.025   4.184  11.354
 4377W        W 8346   1.736   9.007   2.176
 4378W        W 8347   7.066   9.444   2.283
 4379W        W 8348   8.401   1.702   1.277
 4380W        W 8349   7.147   6.951  10.967
 4381W        W 8350   8.981   3.230   3.273
 4382W        W 8351   3.603   9.582   0.823
 4383W        W 8352   8.496   1.317   2.233
 4384W        W 8353   7.049   4.593   1.271
 4385W        W 8354   1.844   9.014   0.918
 4386W        W 8355   3.675   1.779   1.744
 4387W        W 8356   5.734   1.682  11.499
 4388W        W 8357   4.140   3.181   9.594
 4389W        W 8358   8.517   2.778   8.570
 4390W        W 8359  10.442   2.372  10.499
 4391W        W 8360   6.028  10.819   8.403
 4392W        W 8361   9.425  10.944   9.937
 4393W        W 8362   1.898  10.980  11.879
 4394W        W 8363   2.821   5.713  11.457
 4395W        W 8364   0.421   2.376   9.399
 4396W        W 8365   4.616   8.528  10.845
 4397W        W 8366   9.094   2.349   1.882
 4398W        W 8367   0.462   2.713   1.831
 4399W        W 8368   2.246   2.171   9.583
 4400W        W 8369   2.663  11.472   3.304
 4401W        W 8370   3.788   0.818   0.873
 4402W        W 8371   1.680   9.951  11.802
 4403W        W 8372   1.863  10.474   9.018
 4404W        W 8373   0.734   0.758   9.898
 4405W        W 8374   8.558   5.558   0.814
 4406W        W 8375   6.591   7.580   8.616
 4407W        W 8376  10.536   5.602  11.832
 4408W        W 8377   5.199   7.504   2.166
 4409W        W 8378   1.321   2.786  10.024
 4410W        W 8379   9.457   6.669   4.305
 4411W        W 8380  11.002   5.043   8.990
 4412W        W 8381   4.243   6.219   4.189
 4413W        W 8382   0.758  11.006   8.996
 4414W        W 8383   5.598   8.017  10.856
 4415W        W 8384   8.586   7.137   2.289
 4416W        W 8385  10.922   0.850  10.969
 4417W        W 8386   7.007   6.227   0.328
 4418W        W 8387  10.355  11.300  11.407
 4419W        W 8388   8.550   1.843  10.028
 4420W        W 8389   3.195   3.219   2.776
 4421W        W 8390   3.620   9.094  11.852
 4422W        W 8391   8.494   9.535  10.529
 4423W        W 8392   9.993  11.291  10.388
 4424W        W 8393  10.789   5.045   9.956
 4425W        W 8394   7.022  11.391  10.069
 4426W        W 8395  10.324   6.648   0.899
 4427W        W 8396   5.546  10.945   2.323
 4428W        W 8397   9.996   8.964  11.851
 4429W        W 8398   9.951   8.063  10.888
 4430W        W 8399   0.784  10.351   8.921
 4431W        W 8400  11.462   2.380   2.360
 4432W        W 8401   5.200   1.914   1.738
 4433W        W 8402   0.337   8.543  10.888
 4434W        W 8403   0.417   8.129   2.676
 4435W        W 8404   8.389   7.087   8.982
 4436W        W 8405   8.543   5.155   1.310
 4437W        W 8406   0.390   7.444   0.241
 4438W        W 8407  10.008   7.081   3.640
 4439W        W 8408   3.171   2.654   2.721
 4440W        W 8409   5.748   7.070   0.345
 4441W        W 8410   2.328  10.922   2.708
 4442W        W 8411  11.303   9.102   2.648
 4443W        W 8412   9.581   9.357   1.327
 4444W        W 8413  11.416   4.268  11.015
 4445W        W 8414   0.902   8.002   1.397
 4446W        W 8415   1.828   9.920   3.123
 4447W        W 8416   6.501   3.664  11.795
 4448W        W 8417   4.285   0.275   9.422
 4449W        W 8418   4.156  11.294   1.748
 4450W        W 8419   8.437   4.082  10.405
 4451W        W 8420   7.658   8.512   2.880
 4452W        W 8421  10.320   0.902  10.554
 4453W        W 8422   7.532   6.632   2.685
 4454W        W 8423   6.017   4.699  10.858
 4455W        W 8424  11.485   2.373   2.671
 4456W        W 8425   9.446   6.472   0.755
 4457W        W 8426   9.972   7.948  10.335
 4458W        W 8427  10.429   1.733  11.409
 4459W        W 8428   6.100   6.523  11.924
 4460W        W 8429   6.125   1.239  10.494
 4461W        W 8430   4.571  10.823  11.402
 4462W        W 8431   9.973   7.989   1.856
 4463W        W 8432   6.154   8.952   1.288
 4464W        W 8433   5.562   7.002  10.977
 4465W        W 8434   0.428   7.501  11.499
 4466W        W 8435   0.841   4.134   2.744
 4467W        W 8436   2.185   5.628   8.593
 4468W        W 8437   3.654   1.787   9.925
 4469W        W 8438   5.730   5.717  10.432
 4470W        W 8439   6.646   9.437   1.305
 4471W        W 8440   0.860   4.661   0.951
 4472W        W 8441  10.425   7.600   3.329
 4473W        W 8442   6.054   4.137   2.774
 4474W        W 8443   2.279   2.745  10.912
 4475W        W 8444   1.846   7.598   0.824
 4476W        W 8445   1.877   3.155   0.880
 4477W        W 8446  11.465  10.906   9.103
 4478W        W 8447   7.627   9.981   0.923
 4479W        W 8448   9.532   0.737   2.326
 4480W        W 8449   1.208   4.249   0.325
 4481W        W 8450   5.588   4.272  11.843
 4482W        W 8451   8.409   2.309   9.462
 4483W        W 8452   1.865   0.897   1.874
 4484W        W 8453   8.521   2.304   0.784
 4485W        W 8454   4.625   2.217  11.021
 4486W        W 8455   1.312  11.355   8.982
 4487W        W 8456  10.033   8.888   2.749
 4488W        W 8457   8.435   5.115   0.788
 4489W        W 8458   0.263   0.318  11.844
 4490W        W 8459   5.207   7.621   1.271
 4491W        W 8460  10.484   1.806   2.810
 4492W        W 8461   7.913   6.699   0.791
 4493W        W 8462   6.063   5.199   9.952
 4494W        W 8463   4.576   5.153  11.921
 4495W        W 8464   8.605   2.344   9.992
 4496W        W 8465   1.892  11.373   9.915
 4497W        W 8466  11.355  10.352   9.379
 4498W        W 8467   2.799  11.335  10.480
 4499W        W 8468   4.724   0.428   1.858
 4500W        W 8469   5.691   9.417  10.331
 4501W        W 8470   5.741   0.383   1.299
 4502W        W 8471   7.982   0.923   0.884
 4503W        W 8472   7.555   9.959   8.984
 4504W        W 8473   1.822  10.931   1.812
 4505W        W 8474   1.383   7.993  10.060
 4506W        W 8475   4.567   9.392   3.204
 4507W        W 8476   6.028   6.655   0.743
 4508W        W 8477   8.105   7.061   2.262
 4509W        W 8478   0.345   4.647   2.235
 4510W        W 8479   4.631   9.892  10.341
 4511W        W 8480   0.255   0.313   9.956
 4512W        W 8481  11.359   0.830  11.296
 4513W        W 8482   7.608   9.868   2.237
 4514W        W 8483   5.054   9.868   8.480
 4515W        W 8484   4.283   9.386   9.072
 4516W        W 8485   5.162   3.200  11.939
 4517W        W 8486   3.345   6.109   2.789
 4518W        W 8487  10.310   9.958   0.745
 4519W        W 8488   3.238   5.080  11.508
 4520W        W 8489   0.436  10.908  10.067
 4521W        W 8490   2.238   5.636  10.902
 4522W        W 8491   6.678   0.410  10.936
 4523W        W 8492   1.329   0.449   0.422
 4524W        W 8493   3.313   8.095   1.885
 4525W        W 8494   0.893   2.804   2.301
 4526W        W 8495   2.821   5.543   9.859
 4527W        W 8496   3.605   0.452   1.768
 4528W        W 8497  10.361   1.849   3.268
 4529W        W 8498   7.473   0.360   0.930
 4530W        W 8499  10.895   2.708  10.947
 4531W        W 8500   8.567   1.244   8.943
 4532W        W 8501   8.032   8.611   9.400
 4533W        W 8502   3.292  10.023   9.572
 4534W        W 8503  10.889  10.845  10.549
 4535W        W 8504   0.411   1.751   1.771
 4536W        W 8505   0.476   9.406  10.906
 4537W        W 8506  10.444   2.742   8.905
 4538W        W 8507   7.163  10.330   2.745
 4539W        W 8508   4.639   4.735   0.869
 4540W        W 8509   8.559   4.125  11.029
 4541W        W 8510   8.440   2.178   0.334
 4542W        W 8511   0.726   7.456   2.708
 4543W        W 8512   8.058   3.647   8.498
 4544W        W 8513   3.662   7.628   0.789
 4545W        W 8514   1.696   0.954   9.102
 4546W        W 8515   6.102  10.330   8.610
 4547W        W 8516  11.293   3.642   2.178
 4548W        W 8517  10.410  11.291  10.390
 4549W        W 8518   8.488   8.072   1.243
 4550W        W 8519  11.405   9.565  11.897
 4551W        W 8520   5.099  10.432   1.374
 4552W        W 8521   5.574  10.523  11.858
 4553W        W 8522   2.806   9.487   0.272
 4554W        W 8523   8.089   2.685   0.311
 4555W        W 8524   1.307   4.641   2.798
 4556W        W 8525   2.669   6.550   9.914
 4557W        W 8526  10.830  10.833  11.865
 4558W        W 8527   8.009   9.566   8.505
 4559W        W 8528   9.460   5.213  11.286
 4560W        W 8529   9.011   5.182   3.237
 4561W        W 8530   3.248   2.357   1.717
 4562W        W 8531  10.432  10.853   2.789
 4563W        W 8532  10.353  11.436   9.961
 4564W        W 8533   1.351   4.633  10.387
 4565W        W 8534   2.774  11.376  11.365
 4566W        W 8535   8.083   2.788  11.846
 4567W        W 8536   1.396   7.005  10.988
 4568W        W 8537   1.742   6.155  11.931
 4569W        W 8538   2.250   5.598  11.952
 4570W        W 8539  11.318   8.909  11.935
 4571W        W 8540   9.923   2.802   2.760
 4572W        W 8541   4.602   2.830   3.353
 4573W        W 8542   9.996   3.353   9.384
 4574W        W 8543  10.798   3.242   1.350
 4575W        W 8544   9.003   3.741  11.313
 4576W        W 8545   3.708   2.388  10.947
 4577W        W 8546   8.018   0.333  10.013
 4578W        W 8547   2.236   0.915   9.095
 4579W        W 8548   1.752   3.160   9.444
 4580W        W 8549  10.339  11.274   1.273
 4581W        W 8550   6.618  11.388   1.812
 4582W        W 8551   4.275   2.749   9.110
 4583W        W 8552   3.788   0.755  10.806
 4584W        W 8553   1.807   2.260  11.451
 4585W        W 8554   3.183   0.872  11.879
 4586W        W 8555   3.305   6.521  10.037
 4587W        W 8556   8.909   8.958  10.371
 4588W        W 8557   5.680   4.224   7.954
 4589W        W 8558   5.617  10.871   0.456
 4590W        W 8559   0.279   0.433   2.318
 4591W        W 8560   5.747   9.975   0.850
 4592W        W 8561   1.223   3.643   3.152
 4593W        W 8562   8.902  10.520   0.243
 4594W        W 8563   2.715   1.259   8.928
 4595W        W 8564   9.447   0.909  10.473
 4596W        W 8565   6.954   1.782   1.401
 4597W        W 8566   1.324   0.321   8.990
 4598W        W 8567   9.005   7.012   1.696
 4599W        W 8568  11.380   9.361  10.489
 4600W        W 8569   9.011   9.543   3.127
 4601W        W 8570   3.771   7.163   2.269
 4602W        W 8571   3.659   7.095  10.024
 4603W        W 8572   4.629   6.142   4.154
 4604W        W 8573   4.669   7.476   9.560
 4605W        W 8574   7.034   8.978  11.410
 4606W        W 8575   1.321  10.516  10.809
 4607W        W 8576   5.692   8.392   8.416
 4608W        W 8577   9.461   1.302   0.337
 4609W        W 8578   1.795   7.036   0.906
 4610W        W 8579   1.234   7.009   9.516
 4611W        W 8580   5.601   5.149  10.553
 4612W        W 8581   7.035   8.487   0.901
 4613W        W 8582   4.135   7.640  10.377
 4614W        W 8583   6.208   2.727   1.290
 4615W        W 8584  11.265   5.255  11.387
 4616W        W 8585   6.604   9.400   1.914
 4617W        W 8586   7.056   7.954  11.889
 4618W        W 8587   4.276   7.036   2.166
 4619W        W 8588   6.120   7.466   1.919
 4620W        W 8589   6.149   0.454  10.359
 4621W        W 8590   9.394   8.135   0.751
 4622W        W 8591   9.880   3.804  10.848
 4623W        W 8592  11.270   1.404  11.841
 4624W        W 8593   6.063   2.677   9.058
 4625W        W 8594  11.451   2.214  11.315
 4626W        W 8595   3.231   6.625   1.833
 4627W        W 8596   6.134   9.051   8.948
 4628W        W 8597   7.036   0.470  11.870
 4629W        W 8598   2.231   0.812  10.547
 4630W        W 8599   7.115   0.417  10.467
 4631W        W 8600   7.942   8.512  10.416
 4632W        W 8601   8.024   3.180  10.038
 4633W        W 8602   9.424  10.516   3.164
 4634W        W 8603   2.738   8.076   8.946
 4635W        W 8604   7.918   3.253   9.585
 4636W        W 8605   9.993   6.134   1.253
 4637W        W 8606   2.268   6.592   9.594
 4638W        W 8607   4.594   9.531  11.348
 4639W        W 8608   6.099   4.168   8.426
 4640W        W 8609   7.645   8.038   9.505
 4641W        W 8610   1.227  11.311   0.766
 4642W        W 8611   6.523  10.873   9.909
 4643W        W 8612   4.758   6.035   8.539
 4644W        W 8613   8.504   9.364   2.771
 4645W        W 8614   5.079  10.999  11.471
 4646W        W 8615   4.738  11.327   0.952
 4647W        W 8616  11.408   9.948   3.198
 4648W        W 8617   4.751   3.294   2.871
 4649W        W 8618   3.212   7.015   0.774
 4650W        W 8619   3.199   9.900   2.866
 4651W        W 8620  10.463  10.483   1.869
 4652W        W 8621   7.554   6.949   2.772
 4653W        W 8622  10.487   6.507   9.436
 4654W        W 8623  11.302   6.569  10.945
 4655W        W 8624   1.315   8.903  10.557
 4656W        W 8625   3.292   9.493   9.001
 4657W        W 8626   8.882   3.153   9.896
 4658W        W 8627   9.499   5.608   9.982
 4659W        W 8628   9.583   6.093   3.218
 4660W        W 8629   2.833   2.183  11.292
 4661W        W 8630   1.313   2.772  11.403
 4662W        W 8631   9.933   8.615  10.352
 4663W        W 8632   9.491   4.743   9.376
 4664W        W 8633   8.023   2.326  11.980
 4665W        W 8634   9.885   4.131   9.890
 4666W        W 8635   2.198   9.960  11.796
 4667W        W 8636   1.411   5.640  10.387
 4668W        W 8637   7.470   1.298  10.832
 4669W        W 8638   9.925   2.691   3.325
 4670W        W 8639   2.217   6.648  11.889
 4671W        W 8640   1.830   4.264   3.268
 4672W        W 8641   6.195   9.020   2.382
 4673W        W 8642  10.455   2.784   2.771
 4674W        W 8643  10.971   8.498   0.373
 4675W        W 8644   6.545  10.484   3.259
 4676W        W 8645   9.353   0.779   1.369
 4677W        W 8646   9.379   4.188   3.828
 4678W        W 8647   4.583  10.932  10.376
 4679W        W 8648   6.650  10.860   0.739
 4680W        W 8649   9.368  11.360   8.459
 4681W        W 8650  10.840   4.171   3.199
 4682W        W 8651   0.723   8.440   9.061
 4683W        W 8652   0.358   5.668   2.356
 4684W        W 8653   4.739   3.226  10.925
 4685W        W 8654  10.351   9.877  10.507
 4686W        W 8655  11.317   4.129   1.270
 4687W        W 8656   7.912   9.915   1.848
 4688W        W 8657   9.996   4.210   2.877
 4689W        W 8658   2.224   4.726   1.855
 4690W        W 8659   6.584   0.745   9.999
 4691W        W 8660   8.622   6.698   8.931
 4692W        W 8661   6.090   3.219  10.330
 4693W        W 8662   6.965   6.092   1.354
 4694W        W 8663   4.230   6.689   9.438
 4695W        W 8664   8.595   1.914   3.801
 4696W        W 8665   7.495   4.218  11.333
 4697W        W 8666   4.174   0.900  10.980
 4698W        W 8667   9.344   3.299  11.811
 4699W        W 8668   0.379   2.764   9.951
 4700W        W 8669   3.747   2.177   9.598
 4701W        W 8670   7.463  11.301   9.485
 4702W        W 8671  11.446   2.210  11.892
 4703W        W 8672   8.022  11.338   1.708
 4704W        W 8673   1.326   8.570   9.451
 4705W        W 8674   2.333   7.455   9.882
 4706W        W 8675   5.120   2.815   2.384
 4707W        W 8676   5.599   7.056   1.361
 4708W        W 8677   5.735   4.262   2.868
 4709W        W 8678   8.914   9.455   1.309
 4710W        W 8679   8.503   0.245   2.256
 4711W        W 8680   2.804   4.582  10.897
 4712W        W 8681   5.268   9.429  11.488
 4713W        W 8682   6.056   0.352   2.724
 4714W        W 8683   4.294   7.458   9.568
 4715W        W 8684   2.303   3.202   9.380
 4716W        W 8685  11.274  11.358   1.271
 4717W        W 8686   8.407  10.958   3.198
 4718W        W 8687   1.219   2.732   9.097
 4719W        W 8688   2.637   8.545   2.245
 4720W        W 8689   9.925  10.032   0.383
 4721W        W 8690   1.889   1.861  11.898
 4722W        W 8691   5.670   1.274   9.046
 4723W        W 8692   1.833   3.677  10.529
 4724W        W 8693   4.658   3.237   9.881
 4725W        W 8694   5.685   3.752  10.892
 4726W        W 8695   6.474   7.918  10.938
 4727W        W 8696   9.567  10.803   3.357
 4728W        W 8697   1.221   3.220   8.562
 4729W        W 8698   7.452   8.599   2.187
 4730W        W 8699  10.861   8.614   9.577
 4731W        W 8700   3.137   0.856   0.932
 4732W        W 8701   4.790   9.021  10.960
 4733W        W 8702   3.216   0.810   9.043
 4734W        W 8703   6.024   8.965  11.796
 4735W        W 8704   5.058  10.387   3.165
 4736W        W 8705  11.454   2.680   9.852
 4737W        W 8706   7.907   0.943   9.047
 4738W        W 8707   6.666   7.648  11.443
 4739W        W 8708   2.344   9.875   0.746
 4740W        W 8709   0.463  10.869   2.733
 4741W        W 8710  10.914   2.842  10.450
 4742W        W 8711   7.619   6.060   0.818
 4743W        W 8712   3.140   4.267   1.382
 4744W        W 8713   2.291   4.235  11.430
 4745W        W 8714  10.057  10.398   2.266
 4746W        W 8715   7.161  10.348   2.292
 4747W        W 8716   8.049   8.528   3.146
 4748W        W 8717   1.224   9.387   9.065
 4749W        W 8718  10.809   0.727  11.873
 4750W        W 8719   6.531   0.241   2.802
 4751W        W 8720  10.437   9.086  11.898
 4752W        W 8721   2.699   1.241   0.479
 4753W        W 8722   8.025   7.660   0.791
 4754W        W 8723   7.534   4.739  10.022
 4755W        W 8724   5.518   3.676   0.293
 4756W        W 8725  10.508   3.793   1.245
 4757W        W 8726   7.984   2.376   1.775
 4758W        W 8727  11.338   8.993   9.098
 4759W        W 8728   3.302   3.161   9.401
 4760W        W 8729   1.810  10.845   0.329
 4761W        W 8730   2.223   4.155   1.401
 4762W        W 8731   0.311   7.049   0.417
 4763W        W 8732  10.820   7.056   8.922
 4764W        W 8733   9.918   8.993   0.795
 4765W        W 8734   1.362   3.202   3.303
 4766W        W 8735   4.750   0.363  11.422
 4767W        W 8736   0.872  10.910   0.274
 4768W        W 8737   9.560   2.248   0.820
 4769W        W 8738   2.678  10.982   8.433
 4770W        W 8739   5.049   9.410   3.264
 4771W        W 8740   8.088   8.482   0.465
 4772W        W 8741   0.369   2.355   0.302
 4773W        W 8742   0.884   7.523   3.643
 4774W        W 8743   7.923   1.775   8.513
 4775W        W 8744   8.584   8.570   2.172
 4776W        W 8745   6.053   6.008  10.420
 4777W        W 8746   0.271   5.255  10.409
 4778W        W 8747   9.892   9.522  11.012
 4779W        W 8748  10.358   0.769   2.643
 4780W        W 8749   2.739   5.136   2.351
 4781W        W 8750   5.118  10.933  10.526
 4782W        W 8751   4.163  10.376  10.427
 4783W        W 8752   9.553  10.809  10.378
 4784W        W 8753   2.846   5.240   1.804
 4785W        W 8754  10.026   3.659  11.321
 4786W        W 8755   5.036  11.010   1.355
 4787W        W 8756   7.507   0.401  10.516
 4788W        W 8757   6.626   6.143  10.403
 4789W        W 8758   6.211   7.115   0.732
 4790W        W 8759   0.248   4.297   2.728
 4791W        W 8760   7.027   1.354   2.256
 4792W        W 8761   2.787   7.097   0.789
 4793W        W 8762  10.497   0.879   1.817
 4794W        W 8763   9.408   1.801  11.307
 4795W        W 8764   2.307   7.035   0.462
 4796W        W 8765   3.151   9.513   9.886
 4797W        W 8766  10.538   9.039   9.449
 4798W        W 8767   5.101  10.366  11.438
 4799W        W 8768   4.691   5.215   1.209
 4800W        W 8769   8.057   0.824   2.188
 4801W        W 8770   0.420   8.541   0.898
 4802W        W 8771   3.652   4.226   3.610
 4803W        W 8772   6.019   5.054   0.956
 4804W        W 8773   1.901   8.999   1.430
 4805W        W 8774   4.625   0.827   9.455
 4806W        W 8775   0.838   2.366   0.807
 4807W        W 8776   8.561   4.750   9.562
 4808W        W 8777   7.170   9.999  10.840
 4809W        W 8778   4.218   7.162  10.327
 4810W        W 8779   7.475   0.794  10.329
 4811W        W 8780   2.786   4.145  10.800
 4812W        W 8781   0.306  10.868   1.697
 4813W        W 8782   9.884   6.481  11.035
 4814W        W 8783   6.009   6.605   3.635
 4815W        W 8784   5.658   4.590   3.623
 4816W        W 8785  10.928   9.527  11.495
 4817W        W 8786   1.412   6.996   0.426
 4818W        W 8787  10.323   3.804   2.340
 4819W        W 8788   8.875  10.960   3.174
 4820W        W 8789   6.222   0.866   9.402
 4821W        W 8790  10.024   0.379  11.797
 4822W        W 8791   6.013   2.793   9.888
 4823W        W 8792   3.200   0.811   3.156
 4824W        W 8793   1.816   0.825   9.959
 4825W        W 8794   4.673   5.244   1.758
 4826W        W 8795   1.876   0.384  11.889
 4827W        W 8796   1.721   3.270  11.994
 4828W        W 8797  11.268   6.023  10.828
 4829W        W 8798   0.720   9.353   0.781
 4830W        W 8799   6.136   7.913   1.749
 4831W        W 8800   1.394   8.543  10.541
 4832W        W 8801   2.638   0.261  11.932
 4833W        W 8802   5.687   6.586   0.946
 4834W        W 8803   0.296   6.177   0.794
 4835W        W 8804   1.846   9.572   9.028
 4836W        W 8805   7.649   6.518  11.997
 4837W        W 8806   9.943   8.103   8.924
 4838W        W 8807   1.757   7.143   8.977
 4839W        W 8808   7.504  11.394  10.830
 4840W        W 8809   4.720  10.971  11.896
 4841W        W 8810   1.220  10.901   2.812
 4842W        W 8811   8.604   9.895   3.333
 4843W        W 8812   8.044  11.441   3.228
 4844W        W 8813   7.992   0.252   1.344
 4845W        W 8814   4.640   2.248  10.052
 4846W        W 8815   2.190   5.613   2.179
 4847W        W 8816   4.136   1.819  10.358
 4848W        W 8817   9.414  10.050   9.389
 4849W        W 8818   1.373   1.360   0.433
 4850W        W 8819  10.330   5.537   8.928
 4851W        W 8820   5.738  11.467   2.373
 4852W        W 8821  10.489   5.096   1.263
 4853W        W 8822   3.655   8.507   2.880
 4854W        W 8823   2.763   8.921   2.247
 4855W        W 8824   5.206   6.162   1.279
 4856W        W 8825  11.416   4.766  10.056
 4857W        W 8826   2.351   7.032   3.654
 4858W        W 8827   0.756   7.651  10.349
 4859W        W 8828   7.976   0.420   9.006
 4860W        W 8829   1.831  11.271   3.350
 4861W        W 8830   0.736  10.518   0.840
 4862W        W 8831   0.278   9.405   0.362
 4863W        W 8832   8.872   3.326   1.720
 4864W        W 8833   9.450   3.650  11.869
 4865W        W 8834   6.024   1.835  11.969
 4866W        W 8835  10.051   5.180   1.747
 4867W        W 8836   6.026   6.501   1.766
 4868W        W 8837  10.353   5.517  10.998
 4869W        W 8838   6.686   4.124   1.339
 4870W        W 8839   8.095   3.827   2.802
 4871W        W 8840   0.908  11.262   3.320
 4872W        W 8841   4.118   9.948   3.690
 4873W        W 8842  11.331   1.363   9.967
 4874W        W 8843   5.169  10.810  11.801
 4875W        W 8844   6.178   1.306  11.499
 4876W        W 8845   3.228   7.029  11.869
 4877W        W 8846   6.168  11.004  10.352
 4878W        W 8847  11.299  11.282   2.280
 4879W        W 8848   6.161   7.481   0.763
 4880W        W 8849   6.635   9.825   0.883
 4881W        W 8850   1.734   3.251   2.326
 4882W        W 8851   2.842   2.305   1.856
 4883W        W 8852  10.007   9.956   1.241
 4884W        W 8853   2.180  10.519  11.987
 4885W        W 8854   6.004   8.571   9.504
 4886W        W 8855   0.828   2.852   2.716
 4887W        W 8856  10.939   2.205   9.102
 4888W        W 8857   4.119   0.783   3.615
 4889W        W 8858   2.187   3.312  11.487
 4890W        W 8859  10.949  11.329   2.316
 4891W        W 8860   2.792  11.312  11.779
 4892W        W 8861   0.930   1.355   2.847
 4893W        W 8862   1.251   0.901  10.017
 4894W        W 8863   3.130   1.209  11.913
 4895W        W 8864   8.583   3.806   0.330
 4896W        W 8865  11.440   3.748   0.451
 4897W        W 8866  10.309   5.250   9.884
 4898W        W 8867   2.363   5.126   8.425
 4899W        W 8868   2.680   5.142   3.239
 4900W        W 8869   6.586   4.098  11.886
 4901W        W 8870   8.610   9.507   2.240
 4902W        W 8871   8.138   2.328   1.289
 4903W        W 8872   0.332   9.486   0.795
 4904W        W 8873   3.252   1.709  11.006
 4905W        W 8874   1.864  11.421  10.427
 4906W        W 8875   7.049   9.476   8.419
 4907W        W 8876   7.067   4.117   2.767
 4908W        W 8877  10.004  11.494  10.887
 4909W        W 8878   8.396   0.911  11.795
 4910W        W 8879   4.639   3.762   9.078
 4911W        W 8880   6.024   9.486   3.150
 4912W        W 8881   8.955   1.706  10.074
 4913W        W 8882   5.689   6.513   3.217
 4914W        W 8883   7.011   2.191  10.402
 4915W        W 8884   5.516   4.780   8.088
 4916W        W 8885   2.723   7.180   8.616
 4917W        W 8886   4.776   4.740  10.436
 4918W        W 8887   8.034   6.060   9.881
 4919W        W 8888   3.693  11.398   2.231
 4920W        W 8889  11.280   1.900   9.373
 4921W        W 8890  10.430   0.406  10.381
 4922W        W 8891  10.324   8.510   0.252
 4923W        W 8892   4.555   2.280   0.412
 4924W        W 8893   7.001   9.004   1.787
 4925W        W 8894   5.061   2.722   8.959
 4926W        W 8895   7.017   2.639   2.379
 4927W        W 8896   2.763   0.889   0.914
 4928W        W 8897  10.426   3.721  11.348
 4929W        W 8898   9.843   4.266   0.412
 4930W        W 8899   6.154   8.016   1.345
 4931W        W 8900   3.197  11.320   0.951
 4932W        W 8901   0.354   9.984   0.859
 4933W        W 8902   5.732  10.520   1.374
 4934W        W 8903   7.129   2.845   0.891
 4935W        W 8904  10.526   4.737  10.910
 4936W        W 8905   3.672  10.927   1.427
 4937W        W 8906   8.008   2.184   2.306
 4938W        W 8907   8.453   0.295   1.855
 4939W        W 8908   2.313   5.035  10.938
 4940W        W 8909   1.695   9.347   2.363
 4941W        W 8910   2.272  10.510   9.389
 4942W        W 8911   2.868   9.520   2.798
 4943W        W 8912   6.653   2.660   2.668
 4944W        W 8913  10.833   5.544   3.354
 4945W        W 8914   7.120   8.141   1.217
 4946W        W 8915   3.625   8.929   0.332
 4947W        W 8916   8.447  10.946   8.998
 4948W        W 8917  10.050  10.895  10.868
 4949W        W 8918   0.366  11.330   8.919
 4950W        W 8919   9.548   7.638   2.330
 4951W        W 8920  11.392   6.470   1.407
 4952W        W 8921  10.361   3.150   3.158
 4953W        W 8922   4.669   1.726   2.164
 4954W        W 8923  10.422   4.618  11.826
 4955W        W 8924   7.488   1.849   2.811
 4956W        W 8925   6.196   8.449   1.719
 4957W        W 8926  10.810   0.411   2.339
 4958W        W 8927   3.786   1.323   2.724
 4959W        W 8928   1.215   6.171   0.465
 4960W        W 8929   6.072   5.060  11.975
 4961W        W 8930   6.961   5.152   1.203
 4962W        W 8931   2.304  10.404   1.284
 4963W        W 8932   9.070   1.343   2.215
 4964W        W 8933   8.580  10.420   9.945
 4965W        W 8934   0.792   0.329  11.347
 4966W        W 8935   1.270   4.243   2.250
 4967W        W 8936   4.083   6.214   7.945
 4968W        W 8937   8.990   2.200   3.139
 4969W        W 8938   2.216   2.377   2.195
 4970W        W 8939  10.489   0.375   9.952
 4971W        W 8940   0.831   9.351  10.533
 4972W        W 8941   3.756   7.444  11.287
 4973W        W 8942   7.642   5.058  11.008
 4974W        W 8943   3.135   6.592   8.550
 4975W        W 8944   0.777   7.971   0.438
 4976W        W 8945   6.124   2.740   3.785
 4977W        W 8946   3.132   7.540  10.551
 4978W        W 8947   8.474  10.947   9.930
 4979W        W 8948   9.579  10.877   9.064
 4980W        W 8949   3.737   9.059   9.584
 4981W        W 8950   7.645   3.656   1.731
 4982W        W 8951   2.636   1.384  11.014
 4983W        W 8952   2.349   7.439  11.030
 4984W        W 8953   7.985   5.632  10.504
 4985W        W 8954   5.160   8.514   1.721
 4986W        W 8955  11.357   2.246  10.065
 4987W        W 8956   6.643   1.314   0.455
 4988W        W 8957   2.345   5.602   0.367
 4989W        W 8958   0.912   3.701  11.892
 4990W        W 8959   3.758   6.535   9.078
 4991W        W 8960   0.855   9.385   9.063
 4992W        W 8961   9.905   6.499   3.626
 4993W        W 8962   4.552   7.635  10.967
 4994W        W 8963   7.181   7.979   0.265
 4995W        W 8964   9.878   5.262   9.498
 4996W        W 8965   0.250   1.864   2.297
 4997W        W 8966   2.721   1.316   2.698
 4998W        W 8967   1.431  10.320   2.382
 4999W        W 8968  11.384   6.967  11.424
 5000W        W 8969   9.490   3.346   2.382
 5001W        W 8970   9.074   0.933   9.361
 5002W        W 8971   3.642  10.450   1.218
 5003W        W 8972  10.792   2.241  11.355
 5004W        W 8973  10.323   0.282   9.582
 5005W        W 8974   9.467   6.084   2.320
 5006W        W 8975   6.593   7.604   3.241
 5007W        W 8976   6.154  11.457   1.710
 5008W        W 8977   6.520   5.735   9.583
 5009W        W 8978   6.991   2.755   1.216
 5010W        W 8979  10.343   6.603   1.918
 5011W        W 8980   0.930   5.708  10.805
 5012W        W 8981   5.536   2.805   2.258
 5013W        W 8982   7.477   0.437   0.326
 5014W        W 8983   1.252   6.001   0.805
 5015W        W 8984   3.597   8.492   3.244
 5016W        W 8985  10.475   1.213  11.798
 5017W        W 8986   2.665   1.874   0.778
 5018W        W 8987   3.239  10.480   9.548
 5019W        W 8988   3.684   7.088  10.923
 5020W        W 8989   7.481   1.851  10.451
 5021W        W 8990   4.269   2.365   9.060
 5022W        W 8991   3.210   9.846  11.969
 5023W        W 8992   8.550   3.815   1.847
 5024W        W 8993   8.030   6.533   2.810
 5025W        W 8994   1.219  10.516  11.814
 5026W        W 8995  10.498   7.586   0.328
 5027W        W 8996  10.879   1.343   2.273
 5028W        W 8997  10.044   9.103   0.350
 5029W        W 8998   9.511   4.234   8.967
 5030W        W 8999   2.667   1.224  11.365
 5031W        W 9000   4.148  10.830   1.692
 5032W        W 9001   6.948   0.880   3.146
 5033W        W 9002   8.553   9.007   1.884
 5034W        W 9003   1.754   3.242   2.774
 5035W        W 9004  11.391   2.823  10.438
 5036W        W 9005   9.007   7.990  10.417
 5037W        W 9006   6.203  10.524   1.411
 5038W        W 9007   2.848  11.452   2.726
 5039W        W 9008   2.807   2.295   1.311
 5040W        W 9009  10.535   7.626   2.310
 5041W        W 9010   9.432   4.712   2.235
 5042W        W 9011   2.836   5.199   1.383
 5043W        W 9012  10.439   1.849  10.928
 5044W        W 9013  10.816   6.140   3.252
 5045W        W 9014   1.259   4.168   9.577
 5046W        W 9015   1.319   0.425   1.908
 5047W        W 9016   7.147   7.996  11.323
 5048W        W 9017   3.804   8.041   1.895
 5049W        W 9018   1.837   8.088   2.224
 5050W        W 9019   5.749   7.169  11.767
 5051W        W 9020   0.455   3.308   3.719
 5052W        W 9021   2.261   5.664   3.303
 5053W        W 9022  10.389  11.280   2.380
 5054W        W 9023   6.686   0.765  10.325
 5055W        W 9024   6.592   6.219   1.795
 5056W        W 9025  10.017   5.060  11.918
 5057W        W 9026  10.953   4.752  11.011
 5058W        W 9027   8.897   6.591   8.057
 5059W        W 9028   1.800   5.089   0.872
 5060W        W 9029   6.600   5.747   0.254
 5061W        W 9030   6.596   5.080  11.911
 5062W        W 9031   6.026  10.463   1.695
 5063W        W 9032  11.009   0.429  10.021
 5064W        W 9033   9.959   3.685   0.274
 5065W        W 9034   5.230   7.069   2.218
 5066W        W 9035   9.508   6.125   9.481
 5067W        W 9036   0.470   9.072  11.442
 5068W        W 9037   2.246   3.659   0.335
 5069W        W 9038   4.698   9.936   9.539
 5070W        W 9039   9.010   5.659   9.419
 5071W        W 9040   1.680   6.668   9.949
 5072W        W 9041   4.565  11.380  11.421
 5073W        W 9042   7.073   5.612  11.339
 5074W        W 9043   2.310   4.240   2.345
 5075W        W 9044   6.696  10.941   3.345
 5076W        W 9045   7.972   6.085  11.361
 5077W        W 9046   6.668   8.021   0.750
 5078W        W 9047   3.601   7.917   2.259
 5079W        W 9048   8.443   6.172  11.372
 5080W        W 9049  11.418   6.509   9.974
 5081W        W 9050   1.864   2.862   9.482
 5082W        W 9051   7.531   9.937   8.587
 5083W        W 9052   5.593   6.492   1.317
 5084W        W 9053  11.304   2.268   8.880
 5085W        W 9054   8.534  10.357  11.364
 5086W        W 9055   0.279   8.028  11.482
 5087W        W 9056  10.008   5.151   3.334
 5088W        W 9057   0.796   9.008   3.711
 5089W        W 9058   2.755   6.642  11.961
 5090W        W 9059   7.432  10.472  11.503
 5091W        W 9060   4.255  11.341   3.767
 5092W        W 9061   8.015   7.152   1.236
 5093W        W 9062   8.555   4.096   2.673
 5094W        W 9063   3.705  11.379   0.929
 5095W        W 9064   0.840   7.549   2.396
 5096W        W 9065   5.209   9.368   3.837
 5097W        W 9066   0.888   9.453  10.935
 5098W        W 9067   7.614   2.646   9.923
 5099W        W 9068   4.083   6.131   1.755
 5100W        W 9069   7.629  10.817   2.695
 5101W        W 9070   8.598   7.467  11.017
 5102W        W 9071   6.688   6.014   8.024
 5103W        W 9072   2.715   6.495   0.958
 5104W        W 9073   3.184   2.671  11.981
 5105W        W 9074   6.618   8.496   9.453
 5106W        W 9075   2.733  11.010   1.225
 5107W        W 9076   6.596  10.497   2.306
 5108W        W 9077   3.319   1.203   0.887
 5109W        W 9078   8.970  10.358   8.974
 5110W        W 9079   5.594   3.211   9.383
 5111W        W 9080   5.996   5.742  10.555
 5112W        W 9081  10.003   3.672  11.774
 5113W        W 9082   9.959   5.588   8.915
 5114W        W 9083   8.392   2.661   9.990
 5115W        W 9084   5.217   2.185  11.378
 5116W        W 9085   0.452   2.224  10.554
 5117W        W 9086   1.235   9.426  11.510
 5118W        W 9087   6.675   8.443   2.295
 5119W        W 9088   8.095   9.451   3.313
 5120W        W 9089  10.050   8.568   2.713
 5121W        W 9090   2.650   6.645   3.250
 5122W        W 9091   1.391   1.355   1.745
 5123W        W 9092   9.842   9.391   2.222
 5124W        W 9093   5.122   5.262  11.431
 5125W        W 9094   6.648  11.401   1.381
 5126W        W 9095   9.046   8.393   8.094
 5127W        W 9096   2.782   8.092  10.070
 5128W        W 9097   1.729   1.397   2.360
 5129W        W 9098   5.595   9.101   0.410
 5130W        W 9099  10.800   5.694  11.922
 5131W        W 9100   1.293   4.582   8.956
 5132W        W 9101   5.742   6.065  10.509
 5133W        W 9102  11.332  10.937   9.457
 5134W        W 9103   9.385   1.752   0.896
 5135W        W 9104   5.154   1.397   8.920
 5136W        W 9105   9.534   3.673   9.376
 5137W        W 9106   2.376   2.682  10.452
 5138W        W 9107   3.659   8.537   9.414
 5139W        W 9108  11.434   1.321   0.809
 5140W        W 9109   8.573  10.803  10.399
 5141W        W 9110   5.623   7.477   8.043
 5142W        W 9111   1.296   5.616   2.855
 5143W        W 9112   7.504  10.862   1.385
 5144W        W 9113   0.349   1.415   0.386
 5145W        W 9114   4.779   1.338  11.977
 5146W        W 9115   0.267   7.657   2.216
 5147W        W 9116   2.267   5.135   0.406
 5148W        W 9117   7.913   5.535  11.852
 5149W        W 9118   7.523   9.036  10.340
 5150W        W 9119   3.154   1.862   9.923
 5151W        W 9120   4.249   0.268   1.892
 5152W        W 9121   7.582   0.843  11.504
 5153W        W 9122   4.277   4.693   0.802
 5154W        W 9123   9.519   1.427   2.735
 5155W        W 9124   6.595   7.616   8.965
 5156W        W 9125   3.239   7.953   8.980
 5157W        W 9126  11.493   0.754  10.948
 5158W        W 9127   1.362   5.255   8.995
 5159W        W 9128   7.124  10.504   3.299
 5160W        W 9129   1.416   2.176   2.863
 5161W        W 9130   8.866   3.123  10.953
 5162W        W 9131   1.795   7.554  11.817
 5163W        W 9132   4.160   2.156   2.255
 5164W        W 9133   9.994   1.855  11.302
 5165W        W 9134   3.172   8.581   2.740
 5166W        W 9135   8.063   7.539   3.325
 5167W        W 9136   4.644   4.237  11.354
 5168W        W 9137  11.284   9.457  11.441
 5169W        W 9138   8.624   7.100  10.401
 5170W        W 9139   3.289   7.151  10.899
 5171W        W 9140   1.910   0.289  10.028
 5172W        W 9141   2.838   9.933   0.253
 5173W        W 9142   0.459  10.890   8.997
 5174W        W 9143   1.711   6.618   2.318
 5175W        W 9144   3.700   9.041  10.048
 5176W        W 9145   8.450   2.858   3.128
 5177W        W 9146   6.954   0.835  11.867
 5178W        W 9147   9.470  10.961  11.781
 5179W        W 9148   9.382  10.945   9.513
 5180W        W 9149   2.719   5.594   9.599
 5181W        W 9150   1.391   8.021  10.420
 5182W        W 9151   4.583   8.920   8.597
 5183W        W 9152  11.014   9.843   3.164
 5184W        W 9153   0.915   6.481   0.468
 5185W        W 9154   3.721   8.132   0.467
 5186W        W 9155   2.298   9.399  11.004
 5187W        W 9156   8.908   6.206   1.839
 5188W        W 9157   4.223   7.151   2.764
 5189W        W 9158  10.843   7.944   3.155
 5190W        W 9159   6.652   9.404   0.298
 5191W        W 9160   1.318   0.266   0.925
 5192W        W 9161   4.631   3.137   1.690
 5193W        W 9162   8.893   3.759   8.033
 5194W        W 9163   4.599   6.005  10.820
 5195W        W 9164   4.651   1.344   3.240
 5196W        W 9165   3.203   8.988   2.715
 5197W        W 9166   0.912   5.243   3.155
 5198W        W 9167   0.361  10.877   3.672
 5199W        W 9168   0.264   9.347  10.497
 5200W        W 9169   1.832  10.931   2.655
 5201W        W 9170   1.728   3.304   3.254
 5202W        W 9171  11.335  10.921   2.384
 5203W        W 9172   0.378   5.216  11.766
 5204W        W 9173   1.894  11.305   1.914
 5205W        W 9174   3.697   7.585   1.683
 5206W        W 9175   8.057   7.037  11.383
 5207W        W 9176   4.682   4.271   1.803
 5208W        W 9177  10.870   0.880   9.959
 5209W        W 9178  10.427   2.244  11.825
 5210W        W 9179   5.551   5.112  10.073
 5211W        W 9180   7.531   8.874  10.881
 5212W        W 9181   4.224   3.158  10.339
 5213W        W 9182   0.796   4.175   9.110
 5214W        W 9183   3.153   6.681   9.440
 5215W        W 9184   4.709   3.741   2.222
 5216W        W 9185  10.874   2.393   3.778
 5217W        W 9186   6.544   9.851   2.281
 5218W        W 9187   0.889   1.887   3.200
 5219W        W 9188   0.873   1.880  11.408
 5220W        W 9189   1.400   9.927  11.398
 5221W        W 9190   2.732   3.710   9.909
 5222W        W 9191   3.241   3.177  11.964
 5223W        W 9192   0.898   8.032   2.879
 5224W        W 9193   7.998   4.623   3.303
 5225W        W 9194   6.141   2.822   8.582
 5226W        W 9195  10.373   6.991   3.235
 5227W        W 9196   6.032   1.761   0.360
 5228W        W 9197  11.482   8.896   1.780
 5229W        W 9198   0.461   9.534   2.214
 5230W        W 9199   5.237   4.266   3.752
 5231W        W 9200   1.803   1.766   1.696
 5232W        W 9201   2.365   0.761   1.368
 5233W        W 9202   5.271   1.224   1.685
 5234W        W 9203   3.236   5.220   3.269
 5235W        W 9204   6.113   7.445  10.933
 5236W        W 9205  10.853   2.743  10.048
 5237W        W 9206   6.103   2.205  11.966
 5238W        W 9207   4.610   4.708  11.924
 5239W        W 9208  10.882   1.354   3.152
 5240W        W 9209   0.839   8.562   1.379
 5241W        W 9210   5.549   0.780   9.410
 5242W        W 9211   7.104   4.083   1.808
 5243W        W 9212   3.759   5.125   8.059
 5244W        W 9213   9.007  11.402   1.239
 5245W        W 9214   3.611   7.576  11.856
 5246W        W 9215   8.989   2.161  10.893
 5247W        W 9216   9.892   9.937   9.552
 5248W        W 9217   4.082   5.095   1.323
 5249W        W 9218   2.245  10.474   2.317
 5250W        W 9219   1.310   4.769   0.720
 5251W        W 9220   1.277   8.124   0.848
 5252W        W 9221   1.829   4.144  10.016
 5253W        W 9222   2.728   4.631   2.238
 5254W        W 9223   8.068   8.946  11.896
 5255W        W 9224   8.433   5.615   2.782
 5256W        W 9225  10.352   7.051   0.925
 5257W        W 9226   0.723   4.275   3.790
 5258W        W 9227   0.788   5.542   2.383
 5259W        W 9228   9.049   6.036   0.916
 5260W        W 9229   1.785   4.280   2.653
 5261W        W 9230   2.171   9.579   3.278
 5262W        W 9231   5.214   6.970   0.318
 5263W        W 9232  10.946   2.744   1.714
 5264W        W 9233   9.385   5.605   8.944
 5265W        W 9234  10.947  10.515   8.902
 5266W        W 9235   3.768   4.115   1.272
 5267W        W 9236   0.310   5.592  10.870
 5268W        W 9237   6.178   7.593   1.234
 5269W        W 9238   9.549   1.222   3.333
 5270W        W 9239   3.255   4.238  10.026
 5271W        W 9240  10.812   0.919   3.155
 5272W        W 9241   7.984   1.902   8.973
 5273W        W 9242   6.028   0.826   3.160
 5274W        W 9243   0.721  10.966  10.511
 5275W        W 9244   7.159   9.567   8.890
 5276W        W 9245  10.800   2.265   2.801
 5277W        W 9246   9.360   5.236   9.110
 5278W        W 9247   0.866   4.273  10.808
 5279W        W 9248   9.497  10.515   2.382
 5280W        W 9249   3.789   6.508  11.356
 5281W        W 9250   1.706   7.453  10.995
 5282W        W 9251   3.698   6.122   1.832
 5283W        W 9252   2.757   1.829   9.454
 5284W        W 9253   8.902   4.148  10.462
 5285W        W 9254   5.196   3.229   8.926
 5286W        W 9255   6.502   6.049   0.468
 5287W        W 9256   8.509   1.729   8.880
 5288W        W 9257   9.366  10.958   2.278
 5289W        W 9258   8.933   5.075   0.261
 5290W        W 9259   4.592   9.488   0.267
 5291W        W 9260   3.335   7.088   2.225
 5292W        W 9261   1.852   6.165   9.909
 5293W        W 9262   7.117  10.982   0.879
 5294W        W 9263   4.126   0.875  10.028
 5295W        W 9264   6.046   0.282   9.007
 5296W        W 9265   9.090   6.672  11.788
 5297W        W 9266   9.471   1.696   1.835
 5298W        W 9267   9.091   8.473   8.541
 5299W        W 9268   6.565   6.542   3.739
 5300W        W 9269  10.402   5.229   0.328
 5301W        W 9270   0.927   6.979  10.393
 5302W        W 9271   2.270   5.628  10.427
 5303W        W 9272   1.356   5.045   9.943
 5304W        W 9273   0.475   2.162  11.352
 5305W        W 9274   9.356  11.297   2.840
 5306W        W 9275   8.106   1.242  11.898
 5307W        W 9276   3.213   7.060   1.401
 5308W        W 9277   3.154   8.486   1.264
 5309W        W 9278   8.980   7.576  11.430
 5310W        W 9279   2.233   4.203  11.896
 5311W        W 9280   0.844   0.389   1.353
 5312W        W 9281   5.245   0.934   9.082
 5313W        W 9282   8.009   9.397  10.912
 5314W        W 9283   1.358   8.552  10.821
 5315W        W 9284   2.871  11.485   2.255
 5316W        W 9285   3.169  10.964   0.306
 5317W        W 9286   0.349   5.536   0.428
 5318W        W 9287   1.223   1.729   9.493
 5319W        W 9288   1.868   2.782  11.030
 5320W        W 9289   8.603   4.623   2.189
 5321W        W 9290   6.699   0.324  11.338
 5322W        W 9291   9.345   9.882  11.806
 5323W        W 9292   9.559   8.498   1.422
 5324W        W 9293  10.952   8.035  10.819
 5325W        W 9294  10.782   3.806  10.975
 5326W        W 9295   9.374   2.276  11.461
 5327W        W 9296   3.259   4.739   2.214
 5328W        W 9297  11.480   0.403  11.959
 5329W        W 9298   1.266   2.820   9.423
 5330W        W 9299   9.834   2.206  11.286
 5331W        W 9300   7.472   4.270   9.927
 5332W        W 9301   0.856   7.521   3.302
 5333W        W 9302   0.848   2.707  11.421
 5334W        W 9303   6.153   2.324  10.904
 5335W        W 9304   7.068   1.422  11.467
 5336W        W 9305   1.895   8.101   3.263
 5337W        W 9306   3.790   2.846   1.262
 5338W        W 9307   8.502   9.961  11.829
 5339W        W 9308  10.388   1.290   1.737
 5340W        W 9309   1.697  11.427   0.924
 5341W        W 9310   9.555   7.480   1.397
 5342W        W 9311   9.464   8.873   9.942
 5343W        W 9312   9.067   5.052   1.715
 5344W        W 9313   3.832   3.164   9.545
 5345W        W 9314   1.696   0.777   3.308
 5346W        W 9315   7.160   6.125  10.065
 5347W        W 9316   5.080   0.832  11.020
 5348W        W 9317   2.872   2.706   1.437
 5349W        W 9318   1.274   8.974   9.378
 5350W        W 9319   4.188   9.956  11.773
 5351W        W 9320   9.476   3.817   9.983
 5352W        W 9321   2.670  11.467   1.382
 5353W        W 9322  11.005   5.208  10.962
 5354W        W 9323   1.259   7.659   0.318
 5355W        W 9324  11.345   4.772  10.894
 5356W        W 9325  10.951   3.629  11.831
 5357W        W 9326   1.279   4.655   2.369
 5358W        W 9327   4.751  10.358   9.516
 5359W        W 9328   4.161   6.950   3.247
 5360W        W 9329   3.165   6.538   0.732
 5361W        W 9330   5.643   8.585  11.514
 5362W        W 9331   9.562   5.098  11.910
 5363W        W 9332   3.315   0.288  10.869
 5364W        W 9333   6.527   3.674   2.366
 5365W        W 9334   8.895   2.187  11.844
 5366W        W 9335   2.759  10.312   9.874
 5367W        W 9336   4.660   9.876  11.363
 5368W        W 9337   8.964   2.650   1.724
 5369W        W 9338   2.677   9.356  10.842
 5370W        W 9339  11.318   1.423   3.206
 5371W        W 9340   3.778   9.054  10.978
 5372W        W 9341   0.298   4.694  10.982
 5373W        W 9342   6.151   8.605   1.247
 5374W        W 9343   2.228   5.563   9.935
 5375W        W 9344   0.254   1.878   1.222
 5376W        W 9345   0.920   6.579   9.523
 5377W        W 9346   0.874   1.225   2.199
 5378W        W 9347  10.843   4.283  11.921
 5379W        W 9348   1.390   9.854  10.379
 5380W        W 9349   4.176   6.582  11.488
 5381W        W 9350   9.097   6.982   2.299
 5382W        W 9351   1.240   6.215   9.555
 5383W        W 9352   3.336  11.343  10.041
 5384W        W 9353   5.214   0.255  10.879
 5385W        W 9354  11.390   1.758   3.174
 5386W        W 9355   1.306   3.317   2.263
 5387W        W 9356  10.897   7.458   0.442
 5388W        W 9357  10.815   6.652   0.463
 5389W        W 9358   5.216   9.943   1.753
 5390W        W 9359   9.370   4.597  11.031
 5391W        W 9360   6.970   0.833   0.821
 5392W        W 9361   2.369   1.752  10.923
 5393W        W 9362   6.164   0.916   1.852
 5394W        W 9363   8.104   1.351  10.821
 5395W        W 9364   1.755   4.285  10.450
 5396W        W 9365  10.846   8.618   2.667
 5397W        W 9366   5.220   0.924   0.323
 5398W        W 9367   3.704   9.421   1.321
 5399W        W 9368   3.330   6.654  11.969
 5400W        W 9369   8.419   1.731  10.882
 5401W        W 9370   1.276   4.559  11.486
 5402W        W 9371  10.341   1.743  11.969
 5403W        W 9372   5.132   0.299   9.965
 5404W        W 9373   9.873   2.675   9.850
 5405W        W 9374   6.594   4.143   0.816
 5406W        W 9375   1.228   6.152  10.487
 5407W        W 9376   7.639   2.316  10.059
 5408W        W 9377  10.513  11.004   2.192
 5409W        W 9378   9.830   5.160  11.032
 5410W        W 9379  11.411   5.652   2.813
 5411W        W 9380   5.690   5.994   2.788
 5412W        W 9381   6.684   9.493   3.742
 5413W        W 9382   3.827   4.192   2.303
 5414W        W 9383   9.823  11.454   2.737
 5415W        W 9384   4.606   7.557   1.746
 5416W        W 9385   3.775   0.415   0.451
 5417W        W 9386   8.572   7.549  11.955
 5418W        W 9387   5.206   3.727  11.787
 5419W        W 9388   1.297   7.653   9.589
 5420W        W 9389  11.346   5.622  10.497
 5421W        W 9390   2.289   2.824   9.448
 5422W        W 9391   9.044   1.418   0.246
 5423W        W 9392   7.911   7.446  11.444
 5424W        W 9393   7.910   8.904   2.733
 5425W        W 9394   7.627   1.383  10.483
 5426W        W 9395   5.686   2.173  11.338
 5427W        W 9396   8.132   1.750  11.012
 5428W        W 9397   1.271  11.444   0.386
 5429W        W 9398   6.653   5.180  10.538
 5430W        W 9399   0.938   1.749  10.368
 5431W        W 9400   1.740   3.735   3.132
 5432W        W 9401  11.378   9.029   0.873
 5433W        W 9402   9.942   4.294  11.002
 5434W        W 9403   3.134   7.946   7.931
 5435W        W 9404   1.792   5.086   0.240
 5436W        W 9405  10.326   1.267   2.201
 5437W        W 9406   1.238   0.430   2.281
 5438W        W 9407  11.331   5.554   8.540
 5439W        W 9408   2.685   0.841  11.906
 5440W        W 9409   2.865   0.374   2.261
 5441W        W 9410   4.741   8.076  10.880
 5442W        W 9411   0.458   4.714  11.295
 5443W        W 9412   0.880   5.714   2.709
 5444W        W 9413   8.928  10.973   1.916
 5445W        W 9414   3.708  11.406   2.782
 5446W        W 9415   6.571   1.737  11.914
 5447W        W 9416   6.547  10.321   9.020
 5448W        W 9417   4.191   4.778   8.972
 5449W        W 9418   7.558   3.326  10.542
 5450W        W 9419   9.398  10.511   0.949
 5451W        W 9420   9.071  10.932   8.899
 5452W        W 9421   1.715  11.382   9.499
 5453W        W 9422  10.033   9.473  11.931
 5454W        W 9423   0.455   4.614   0.828
 5455W        W 9424   6.186   4.741   2.766
 5456W        W 9425   7.928  10.022   9.383
 5457W        W 9426  11.264   0.384   9.970
 5458W        W 9427   4.287   2.853  10.355
 5459W        W 9428   2.720  10.961   9.492
 5460W        W 9429   5.576   4.772   9.438
 5461W        W 9430  10.335   2.854   9.982
 5462W        W 9431   5.167   0.335  11.969
 5463W        W 9432   7.626   4.088   0.939
 5464W        W 9433   6.685   7.169  10.471
 5465W        W 9434   4.625   4.637   2.223
 5466W        W 9435   7.012   5.251  10.526
 5467W        W 9436   6.177   3.800  11.327
 5468W        W 9437   2.659   6.593  11.518
 5469W        W 9438   9.864   9.457   1.792
 5470W        W 9439   9.084   8.916   8.987
 5471W        W 9440   8.919  11.326  11.962
 5472W        W 9441   7.605   9.583   0.357
 5473W        W 9442   2.745   1.404   0.899
 5474W        W 9443   1.203   8.552  11.928
 5475W        W 9444   7.984   2.385  11.019
 5476W        W 9445   1.225   9.041  10.913
 5477W        W 9446   5.644   1.419   1.341
 5478W        W 9447   5.996   3.722   3.356
 5479W        W 9448   4.100   8.142  10.896
 5480W        W 9449   7.975   7.023   9.480
 5481W        W 9450   3.669   8.871   1.877
 5482W        W 9451   9.037  11.351   3.160
 5483W        W 9452   4.275   8.950   1.231
 5484W        W 9453   6.153   1.890  10.503
 5485W        W 9454   8.570   9.504   3.121
 5486W        W 9455   3.794   7.582   9.855
 5487W        W 9456   3.636   0.806   2.721
 5488W        W 9457   1.394  10.819  10.331
 5489W        W 9458   8.925  10.540   1.281
 5490W        W 9459  11.296   4.742   2.209
 5491W        W 9460   5.261   2.807   8.612
 5492W        W 9461   4.213   5.146   0.925
 5493W        W 9462   1.764   6.486   2.701
 5494W        W 9463   0.415  11.269   9.428
 5495W        W 9464   3.181   1.386  10.335
 5496W        W 9465   9.987   8.552  11.876
 5497W        W 9466   3.197  10.981   8.484
 5498W        W 9467   5.586   9.364   1.417
 5499W        W 9468   5.741   9.055  10.472
 5500W        W 9469   6.140   4.686   9.485
 5501W        W 9470   2.772   8.117  11.358
 5502W        W 9471   8.574  11.442   8.901
 5503W        W 9472   0.896   2.378  10.834
 5504W        W 9473   9.531   4.588   0.339
 5505W        W 9474   2.315   3.202   2.323
 5506W        W 9475  10.027   2.222   2.384
 5507W        W 9476   7.176   6.138   8.416
 5508W        W 9477  10.809   0.418   2.690
 5509W        W 9478   7.654   0.450   1.425
 5510W        W 9479   7.451   9.921   9.536
 5511W        W 9480   3.762   2.732   2.712
 5512W        W 9481  10.422   6.046   9.070
 5513W        W 9482   0.298   3.630   9.400
 5514W        W 9483   9.028   6.500   9.964
 5515W        W 9484  10.959   4.742   9.921
 5516W        W 9485   5.126   4.725   0.763
 5517W        W 9486   3.670   9.945   3.134
 5518W        W 9487   9.078   3.687   2.830
 5519W        W 9488   2.391   0.949   2.671
 5520W        W 9489   7.172   5.591   1.300
 5521W        W 9490  11.339   6.022   0.266
 5522W        W 9491   4.647   9.963   3.263
 5523W        W 9492  10.464   3.154  11.360
 5524W        W 9493   9.830   2.342   9.540
 5525W        W 9494   3.187   4.272   8.945
 5526W        W 9495   9.924   0.271  11.341
 5527W        W 9496   8.037   2.654   3.166
 5528W        W 9497   3.747   5.156  11.032
 5529W        W 9498   1.305   4.286  10.450
 5530W        W 9499   0.452   1.254   2.173
 5531W        W 9500   4.119   0.351  11.318
 5532W        W 9501   3.159   0.331  10.326
 5533W        W 9502   6.036   0.370   1.747
 5534W        W 9503   5.568   7.925   2.287
 5535W        W 9504   4.655   8.487  11.815
 5536W        W 9505   8.392   7.166   1.420
 5537W        W 9506   9.435   6.560   2.644
 5538W        W 9507   8.471   3.830   9.103
 5539W        W 9508   3.300   7.990  11.414
 5540W        W 9509   8.049   3.262   8.565
 5541W        W 9510   7.606   6.031   2.293
 5542W        W 9511  10.927   5.704   9.098
 5543W        W 9512   6.010   8.913   9.494
 5544W        W 9513   5.555  10.852  11.886
 5545W        W 9514   8.977   9.949   9.474
 5546W        W 9515   5.142   1.788  10.078
 5547W        W 9516   8.921   6.537   1.314
 5548W        W 9517   4.786  10.020  11.968
 5549W        W 9518   7.660   7.492  11.911
 5550W        W 9519   0.843   2.206   1.237
 5551W        W 9520  11.011   4.097   9.394
 5552W        W 9521  10.822  10.959   8.605
 5553W        W 9522   1.248   5.185   0.883
 5554W        W 9523   7.097   9.918   1.746
 5555W        W 9524   7.978   5.665  11.357
 5556W        W 9525   1.314   5.050  10.434
 5557W        W 9526   2.753   3.142   0.758
 5558W        W 9527   7.578  10.450   1.821
 5559W        W 9528   9.835  10.325  11.002
 5560W        W 9529   6.104   6.697   2.367
 5561W        W 9530  10.415   9.080   2.297
 5562W        W 9531   2.329   2.385   1.811
 5563W        W 9532   9.053   7.589   0.786
 5564W        W 9533  10.954   4.742   1.203
 5565W        W 9534   9.864  10.875  11.929
 5566W        W 9535  10.919   2.169  11.938
 5567W        W 9536   3.813   1.677  11.364
 5568W        W 9537  11.456   4.298   8.917
 5569W        W 9538   7.454   7.114  11.797
 5570W        W 9539   6.016   2.718   1.919
 5571W        W 9540   1.746  10.813   2.278
 5572W        W 9541   6.072  10.444   3.330
 5573W        W 9542   8.578   9.008  11.490
 5574W        W 9543  10.500   3.691   3.628
 5575W        W 9544   4.594   0.309  10.351
 5576W        W 9545   5.206   0.826   2.340
 5577W        W 9546   7.131   7.462   3.159
 5578W        W 9547   9.427   2.644   2.872
 5579W        W 9548   1.819   0.463   8.465
 5580W        W 9549   7.925   6.957  10.380
 5581W        W 9550   9.517   0.872   8.597
 5582W        W 9551   7.140   2.196  11.417
 5583W        W 9552   8.486   0.722  10.808
 5584W        W 9553   0.823   7.630   9.048
 5585W        W 9554   2.230   3.626  11.891
 5586W        W 9555   9.347  10.973  10.819
 5587W        W 9556   9.094   4.255   1.883
 5588W        W 9557   4.683   7.070   8.994
 5589W        W 9558   5.033   8.470   2.730
 5590W        W 9559   0.395   3.342   9.394
 5591W        W 9560  10.431   6.057   0.299
 5592W        W 9561  10.890   6.550   9.093
 5593W        W 9562   0.842   6.052   0.355
 5594W        W 9563   5.642   1.405   0.346
 5595W        W 9564   1.223   8.878   1.397
 5596W        W 9565   7.520   2.228   1.342
 5597W        W 9566   2.797   3.211   8.899
 5598W        W 9567   9.422   9.060   0.298
 5599W        W 9568   3.608   0.955  11.993
 5600W        W 9569  10.046   5.266   0.857
 5601W        W 9570  10.937   7.611   1.816
 5602W        W 9571   1.730   7.968   8.901
 5603W        W 9572   1.289   2.778  11.838
 5604W        W 9573   4.137   1.334   9.512
 5605W        W 9574   6.181   3.147  11.806
 5606W        W 9575   6.051   6.612   9.451
 5607W        W 9576  11.292   9.003   0.333
 5608W        W 9577   4.107   9.501   0.726
 5609W        W 9578   7.911   5.038   2.370
 5610W        W 9579   6.962   1.747  11.834
 5611W        W 9580   5.130   6.992  10.428
 5612W        W 9581   9.373   8.031   3.166
 5613W        W 9582   7.165   3.832  11.454
 5614W        W 9583   7.147   8.915   1.211
 5615W        W 9584   0.318   5.100   9.905
 5616W        W 9585   9.552   9.044   1.891
 5617W        W 9586   8.585   0.424  11.029
 5618W        W 9587   3.708   4.617   1.266
 5619W        W 9588   6.220   0.361   9.914
 5620W        W 9589   1.392   5.646   0.940
 5621W        W 9590   4.274   0.805   9.509
 5622W        W 9591   3.812   3.658   0.443
 5623W        W 9592   9.086  10.524   0.912
 5624W        W 9593   0.777   4.683   8.537
 5625W        W 9594   2.754   6.652   1.774
 5626W        W 9595   0.832   6.616   8.543
 5627W        W 9596   3.224  11.388   1.843
 5628W        W 9597   9.371   9.846   0.836
 5629W        W 9598   4.615   4.238   1.217
 5630W        W 9599   8.026   3.293   2.776
 5631W        W 9600   7.599   8.972   2.220
 5632W        W 9601   8.579   8.602   0.421
 5633W        W 9602   0.785   8.419  11.774
 5634W        W 9603   9.433   5.700  10.403
 5635W        W 9604   1.329   8.527   3.272
 5636W        W 9605   5.576  10.924  10.003
 5637W        W 9606   5.151   7.430  10.401
 5638W        W 9607   2.192   2.329   8.464
 5639W        W 9608   7.524   8.502   1.341
 5640W        W 9609   5.136  10.431   2.874
 5641W        W 9610  10.804   6.550   0.906
 5642W        W 9611   2.358   2.164  11.881
 5643W        W 9612   9.899   7.633   2.852
 5644W        W 9613   3.597   1.734   9.051
 5645W        W 9614  10.396   7.155  10.979
 5646W        W 9615   2.379   0.926   1.729
 5647W        W 9616   2.710  10.833  11.499
 5648W        W 9617   5.746   0.838  10.824
 5649W        W 9618   4.284  10.053   9.382
 5650W        W 9619   6.584   6.496   0.243
 5651W        W 9620  10.881   3.237   1.881
 5652W        W 9621  10.439   1.205   9.508
 5653W        W 9622   6.090   5.558   8.965
 5654W        W 9623   2.359   2.238   2.822
 5655W        W 9624   8.092   7.933   2.797
 5656W        W 9625   7.599  10.893  11.986
 5657W        W 9626  11.260   8.514   2.856
 5658W        W 9627   4.662   3.759  11.498
 5659W        W 9628   5.642   1.718   1.362
 5660W        W 9629   0.256   2.792   2.791
 5661W        W 9630   7.484  11.336   9.930
 5662W        W 9631   7.974   9.011  10.978
 5663W        W 9632   6.209   4.284   2.399
 5664W        W 9633   5.175   7.666   0.253
 5665W        W 9634   8.089   1.776   1.750
 5666W        W 9635   8.910   7.926   8.432
 5667W        W 9636   5.128   9.393  11.897
 5668W        W 9637   7.095   4.283   3.658
 5669W        W 9638   6.693   7.446   1.422
 5670W        W 9639   6.113   0.278   3.168
 5671W        W 9640   0.432   3.708   0.309
 5672W        W 9641   7.590   7.077  10.961
 5673W        W 9642  11.480  10.016   0.355
 5674W        W 9643   8.946   2.714   0.270
 5675W        W 9644   8.098   1.680   0.407
 5676W        W 9645   2.294   3.630   9.899
 5677W        W 9646   9.407   9.547   8.474
 5678W        W 9647   3.254   8.544   8.535
 5679W        W 9648   5.616   4.255   9.073
 5680W        W 9649   0.798  10.511  10.959
 5681W        W 9650   8.993   8.432  10.486
 5682W        W 9651   5.699   7.555   1.365
 5683W        W 9652   4.163   4.074  10.860
 5684W        W 9653   4.745   1.862  10.024
 5685W        W 9654   8.471   6.611  10.411
 5686W        W 9655   4.160   9.026  10.434
 5687W        W 9656   3.789   5.215   0.944
 5688W        W 9657   8.915   9.926   3.219
 5689W        W 9658   3.665   6.105  11.490
 5690W        W 9659  10.949   3.130   3.286
 5691W        W 9660   4.700   2.846   2.768
 5692W        W 9661   4.082   0.765   2.785
 5693W        W 9662  10.394  10.328   0.899
 5694W        W 9663   3.747   5.085  11.807
 5695W        W 9664   8.566   4.777  10.850
 5696W        W 9665  10.864   0.302   1.915
 5697W        W 9666   3.759   9.535  11.895
 5698W        W 9667  10.362  10.783   9.531
 5699W        W 9668   7.945   5.098   8.567
 5700W        W 9669   9.355   1.345  10.801
 5701W        W 9670   0.324  11.442  11.040
 5702W        W 9671   9.567   0.446   1.275
 5703W        W 9672  11.483   7.960   9.427
 5704W        W 9673   5.990   9.079  10.502
 5705W        W 9674   0.433   0.843   1.206
 5706W        W 9675   7.068   1.784  10.040
 5707W        W 9676   1.275   4.295  11.515
 5708W        W 9677  10.034   7.428   0.917
 5709W        W 9678   7.952   2.850   9.904
 5710W        W 9679   2.678   8.606  10.384
 5711W        W 9680   9.533   6.622   7.936
 5712W        W 9681  11.297  11.367   2.775
 5713W        W 9682   3.643  11.306   3.289
 5714W        W 9683   3.115   7.929   2.262
 5715W        W 9684   3.763   3.164   2.389
 5716W        W 9685   3.665   6.146   3.763
 5717W        W 9686  11.488   9.856   1.204
 5718W        W 9687   7.497   5.193   0.446
 5719W        W 9688   3.122   2.245   1.321
 5720W        W 9689   0.823   8.127   9.942
 5721W        W 9690   0.321   5.664   1.818
 5722W        W 9691   9.463   3.133   1.226
 5723W        W 9692   6.047   8.439   0.443
 5724W        W 9693   2.395   9.016   1.837
 5725W        W 9694   4.699  10.520   8.996
 5726W        W 9695   8.118  11.446   2.874
 5727W        W 9696   9.371   8.136   0.249
 5728W        W 9697   4.307   6.014  11.295
 5729W        W 9698   1.268   7.055  10.384
 5730W        W 9699   8.516   6.063  10.455
 5731W        W 9700   9.077   5.102  11.774
 5732W        W 9701   0.858   3.635   0.940
 5733W        W 9702   8.046   9.064   3.335
 5734W        W 9703   0.420   9.502   9.048
 5735W        W 9704   8.514   1.199   3.122
 5736W        W 9705   8.565   4.618   8.998
 5737W        W 9706   6.507   6.226  10.968
 5738W        W 9707   2.872   4.592  11.504
 5739W        W 9708   2.314   0.276   9.502
 5740W        W 9709   6.569  11.280   2.363
 5741W        W 9710   5.733   5.070   1.699
 5742W        W 9711   6.013   6.101   8.100
 5743W        W 9712  10.040  10.527   1.882
 5744W        W 9713   3.310   3.650   9.003
 5745W        W 9714   1.232   3.342   0.945
 5746W        W 9715   8.925  11.404   9.957
 5747W        W 9716   9.502   2.663  10.466
 5748W        W 9717   5.140   3.147   0.389
 5749W        W 9718   3.347   9.410   2.379
 5750W        W 9719   5.039   7.940  11.962
 5751W        W 9720   3.318   4.076  10.904
 5752W        W 9721   3.757   1.271   0.788
 5753W        W 9722   6.705   4.207   3.309
 5754W        W 9723   7.558   0.380  10.063
 5755W        W 9724   3.597  10.474  11.952
 5756W        W 9725   8.882   2.815   1.244
 5757W        W 9726   3.720  10.817   2.373
 5758W        W 9727   6.117   9.920   1.366
 5759W        W 9728   5.259   7.944   0.807
 5760W        W 9729   8.130   1.436   9.036
 5761W        W 9730   3.174   7.551  11.780
 5762W        W 9731   7.589   1.211  11.850
 5763W        W 9732  10.045  10.808   0.356
 5764W        W 9733   7.078   8.049   9.405
 5765W        W 9734   7.574   9.966  10.893
 5766W        W 9735   3.190   5.110   1.855
 5767W        W 9736   8.476   4.591  10.490
 5768W        W 9737   3.347   0.785   2.717
 5769W        W 9738  10.319   2.342   2.356
 5770W        W 9739  10.016   0.757   9.594
 5771W        W 9740  10.486   9.527   9.575
 5772W        W 9741   9.395   2.751   3.161
 5773W        W 9742   7.513   9.004  11.325
 5774W        W 9743   8.012   3.238   9.081
 5775W        W 9744   5.748   5.522   1.298
 5776W        W 9745   2.264   5.086   3.258
 5777W        W 9746   0.755   5.631   3.314
 5778W        W 9747   4.264   1.401  10.911
 5779W        W 9748   2.686   4.159   1.722
 5780W        W 9749   5.616   8.124   3.301
 5781W        W 9750   6.591   9.832   7.945
 5782W        W 9751   3.198   1.812   1.258
 5783W        W 9752   0.958  10.878   0.747
 5784W        W 9753   6.509   6.583   3.203
 5785W        W 9754   3.730   4.144   0.882
 5786W        W 9755   2.337  11.492   9.580
 5787W        W 9756  11.495  11.325   3.175
 5788W        W 9757   9.473   6.659   9.862
 5789W        W 9758   8.032   4.197   2.240
 5790W        W 9759   9.012   4.301   3.196
 5791W        W 9760   3.338   9.882   1.917
 5792W        W 9761   2.721   6.707   2.243
 5793W        W 9762  10.522   6.978  10.324
 5794W        W 9763   6.612   2.302   2.869
 5795W        W 9764   2.856   9.071  11.413
 5796W        W 9765   4.696   6.668   8.567
 5797W        W 9766   2.356   8.521  11.968
 5798W        W 9767   7.557   3.801  11.326
 5799W        W 9768  10.366   7.625  11.510
 5800W        W 9769   4.264   0.764   1.841
 5801W        W 9770   4.100   4.298  10.480
 5802W        W 9771  10.402  10.537   1.420
 5803W        W 9772  11.416   0.856   1.913
 5804W        W 9773   2.258   7.457   0.936
 5805W        W 9774   1.428   0.466  10.859
 5806W        W 9775  11.341   1.217   1.431
 5807W        W 9776   3.332   9.489   2.816
 5808W        W 9777   3.801   2.230   2.328
 5809W        W 9778   7.636   0.328   8.979
 5810W        W 9779   1.717   1.406   3.191
 5811W        W 9780   3.315   5.749  10.992
 5812W        W 9781   7.070   4.613   0.289
 5813W        W 9782  10.984   0.305   3.154
 5814W        W 9783   4.251   8.616  11.821
 5815W        W 9784   1.290   0.441  10.408
 5816W        W 9785  10.001   1.841  11.980
 5817W        W 9786   5.682   3.121   9.863
 5818W        W 9787   2.328   8.487   8.558
 5819W        W 9788   1.265   0.786  10.406
 5820W        W 9789  10.941   3.221   2.712
 5821W        W 9790   3.742   8.504   1.354
 5822W        W 9791   8.499   7.950  11.947
 5823W        W 9792   9.552   1.707   2.657
 5824W        W 9793   9.398   4.740   0.940
 5825W        W 9794   1.744   3.819   8.895
 5826W        W 9795  11.470   8.881   1.213
 5827W        W 9796   4.185   9.909   0.884
 5828W        W 9797   2.766   1.700   0.288
 5829W        W 9798   7.062   3.670  10.381
 5830W        W 9799   7.522   8.045  11.456
 5831W        W 9800   3.144   3.630   1.911
 5832W        W 9801   5.110   8.960   8.926
 5833W        W 9802  10.402   7.596  11.796
 5834W        W 9803   2.830  10.334   8.925
 5835W        W 9804  11.442   7.532  11.344
 5836W        W 9805   0.312   1.295  11.393
 5837W        W 9806  10.818  11.379   3.177
 5838W        W 9807   6.007   1.202   8.468
 5839W        W 9808   3.232   1.335   9.365
 5840W        W 9809   6.152   6.558   2.748
 5841W        W 9810  10.864   6.099  11.985
 5842W        W 9811   3.800   3.787  10.925
 5843W        W 9812  11.282   7.124   9.524
 5844W        W 9813   0.365   1.365  10.329
 5845W        W 9814   0.737   0.938   2.194
 5846W        W 9815   0.889   6.057  11.285
 5847W        W 9816   3.316   5.066   0.252
 5848W        W 9817   0.865   8.530   0.391
 5849W        W 9818   6.683  11.317   0.257
 5850W        W 9819   9.023   0.922   0.788
 5851W        W 9820  11.398   1.231   9.515
 5852W        W 9821   0.907   4.265   2.371
 5853W        W 9822   8.006   9.396   2.790
 5854W        W 9823   9.427   2.211   1.237
 5855W        W 9824   1.200   7.555  11.945
 5856W        W 9825   2.168   6.192   1.890
 5857W        W 9826   9.505   9.431   1.906
 5858W        W 9827  10.496   6.056  11.026
 5859W        W 9828   9.398   7.121   3.261
 5860W        W 9829   8.465   6.211   1.434
 5861W        W 9830   7.000   6.041   7.979
 5862W        W 9831   0.924   5.036  11.028
 5863W        W 9832   8.945   9.415   2.335
 5864W        W 9833  11.358   7.470   0.419
 5865W        W 9834   8.954   0.408   2.729
 5866W        W 9835   6.603   3.297  10.475
 5867W        W 9836   6.022   9.977   3.306
 5868W        W 9837   6.012   4.553   0.411
 5869W        W 9838   5.619   7.528   3.732
 5870W        W 9839   6.472   8.037  11.813
 5871W        W 9840  11.313   5.592   2.358
 5872W        W 9841  10.845  10.837   0.301
 5873W        W 9842   7.121   3.694  11.833
 5874W        W 9843   6.481   2.267   1.799
 5875W        W 9844   7.985  10.358   0.432
 5876W        W 9845   2.730   1.213   1.902
 5877W        W 9846   8.429   6.475   1.235
 5878W        W 9847   8.021  10.530   2.360
 5879W        W 9848   5.589  11.006   1.738
 5880W        W 9849  11.499   4.709   9.523
 5881W        W 9850   2.846   0.424   9.054
 5882W        W 9851  10.802   4.109  10.342
 5883W        W 9852   3.263   7.038  11.370
 5884W        W 9853   4.641  10.313   2.720
 5885W        W 9854   1.275   9.904   0.939
 5886W        W 9855   5.521   3.603   8.480
 5887W        W 9856   2.164   7.127  11.930
 5888W        W 9857   6.140   9.936  11.973
 5889W        W 9858   4.184   7.527   9.928
 5890W        W 9859   5.607   8.603   4.135
 5891W        W 9860   7.525   0.897   2.675
 5892W        W 9861   0.297   1.208   1.270
 5893W        W 9862   7.117   9.543  10.026
 5894W        W 9863  10.318   2.739  10.479
 5895W        W 9864  11.295   0.766   2.287
 5896W        W 9865   1.333  10.914   3.314
 5897W        W 9866   2.247  10.957   0.943
 5898W        W 9867   0.940   9.511   8.475
 5899W        W 9868   6.567   2.352   8.964
 5900W        W 9869   2.736   0.731  10.842
 5901W        W 9870   4.780   6.207   0.242
 5902W        W 9871   3.349   0.902   0.292
 5903W        W 9872   0.336   9.462  11.865
 5904W        W 9873   5.744   2.170   1.803
 5905W        W 9874   2.867   3.137   9.855
 5906W        W 9875   2.772   9.954  11.456
 5907W        W 9876   5.055   3.233   9.477
 5908W        W 9877   0.445   4.111   8.989
 5909W        W 9878   8.118   3.757  11.404
 5910W        W 9879   6.593   0.374   0.904
 5911W        W 9880   1.824   1.435   0.942
 5912W        W 9881  11.463  10.920   3.817
 5913W        W 9882  11.498   3.797  10.549
 5914W        W 9883  10.347   4.784   3.189
 5915W        W 9884  10.317   8.041   8.905
 5916W        W 9885   5.088   7.993  10.043
 5917W        W 9886   7.123   6.650   0.458
 5918W        W 9887  10.307   6.528  11.385
 5919W        W 9888   6.193   4.559   1.788
 5920W        W 9889  10.423   7.986   1.264
 5921W        W 9890   6.113   7.959   9.962
 5922W        W 9891   4.198   6.496   1.226
 5923W        W 9892   6.517   5.557   0.852
 5924W        W 9893   0.264   0.874   2.774
 5925W        W 9894   3.169   6.051  11.020
 5926W        W 9895   6.996   4.088   0.412
 5927W        W 9896   9.952  10.323   0.278
 5928W        W 9897   6.956   2.298   9.470
 5929W        W 9898  10.831   3.783   2.770
 5930W        W 9899   6.535   0.391  10.375
 5931W        W 9900   1.764   4.272  11.020
 5932W        W 9901  10.944   1.736   9.961
 5933W        W 9902   9.065   7.542   9.473
 5934W        W 9903  11.368  11.494  11.994
 5935W        W 9904   8.491   5.749  11.976
 5936W        W 9905   0.301   8.962   1.204
 5937W        W 9906   4.132   1.788  11.770
 5938W        W 9907   4.102   8.532  10.534
 5939W        W 9908   0.886   4.726  11.343
 5940W        W 9909   6.474   7.155  11.032
 5941W        W 9910   1.906   5.251   8.407
 5942W        W 9911   7.652   0.861   1.304
 5943W        W 9912   7.042   0.366   0.410
 5944W        W 9913   3.664  10.359   9.874
 5945W        W 9914   2.157   0.415   9.086
 5946W        W 9915   9.883   9.947   2.683
 5947W        W 9916   8.075   7.629  11.800
 5948W        W 9917   4.732   6.669   0.783
 5949W        W 9918   9.370   9.370   2.833
 5950W        W 9919  10.931   5.082  10.337
 5951W        W 9920   2.645   4.277   9.850
 5952W        W 9921   3.706   3.145  10.394
 5953W        W 9922  10.937   2.674  11.922
 5954W        W 9923   7.658   1.756   0.454
 5955W        W 9924   7.438   6.490  10.455
 5956W        W 9925   1.777   5.080  10.877
 5957W        W 9926   4.563   9.355  11.833
 5958W        W 9927   6.977   4.224   2.231
 5959W        W 9928   6.966   3.280  10.326
 5960W        W 9929   5.571   5.686   0.748
 5961W        W 9930   2.648   2.704   9.417
 5962W        W 9931  10.471   7.456   1.691
 5963W        W 9932  10.521   5.162   9.557
 5964W        W 9933   7.646  10.515   9.949
 5965W        W 9934   6.136   7.572  11.947
 5966W        W 9935   5.709   8.097  11.804
 5967W        W 9936   9.377   4.227   0.330
 5968W        W 9937  11.391   3.204   9.082
 5969W        W 9938   2.765   8.569  10.009
 5970W        W 9939   7.179   9.044   0.950
 5971W        W 9940   4.182   2.354   9.973
 5972W        W 9941   3.688   6.585   9.996
 5973W        W 9942  10.941   2.860   1.323
 5974W        W 9943   0.456   7.619   2.867
 5975W        W 9944   4.167   1.340  11.818
 5976W        W 9945   5.090   4.754  10.924
 5977W        W 9946   0.303  11.001   0.377
 5978W        W 9947   7.062   8.134  11.023
 5979W        W 9948   1.759   1.847   9.365
 5980W        W 9949  10.340   1.240   3.338
 5981W        W 9950  10.967   9.049   0.451
 5982W        W 9951   8.066   1.861   3.333
 5983W        W 9952   3.659   4.728   8.509
 5984W        W 9953   7.997   9.999  10.504
 5985W        W 9954   5.171   8.094   1.768
 5986W        W 9955   1.717  10.053   2.290
 5987W        W 9956   2.357   1.916   0.276
 5988W        W 9957   6.636   8.133   2.696
 5989W        W 9958   9.827   1.337   1.359
 5990W        W 9959   2.821   3.146   2.748
 5991W        W 9960   8.937   7.105  11.320
 5992W        W 9961   6.010   0.309  11.376
 5993W        W 9962   2.779  10.532   2.854
 5994W        W 9963   9.862  10.880   8.516
 5995W        W 9964   4.687   3.751   0.757
 5996W        W 9965   9.397   9.928  10.020
 5997W        W 9966   5.232   3.753   0.391
 5998W        W 9967   3.291   2.748   0.369
 5999W        W 9968   3.235   1.250   3.779
 6000W        W 9969   0.835  11.393   1.783
 6001W        W 9970   3.609   8.490   0.317
 6002W        W 9971   4.581   8.487  11.416
 6003W        W 9972   9.930  11.284   9.915
 6004W        W 9973   3.597   0.424   8.516
 6005W        W 9974   2.231   9.388   1.739
 6006W        W 9975  10.054   3.775   2.199
 6007W        W 9976  10.903   4.077  10.066
 6008W        W 9977   5.168   7.109   3.229
 6009W        W 9978   5.121   9.505   1.798
 6010W        W 9979   8.990   3.635   2.354
 6011W        W 9980   0.937  10.520   1.690
 6012W        W 9981   1.313   1.273   9.441
 6013W        W 9982   3.297   6.627   3.780
 6014W        W 9983  10.361   7.645   9.417
 6015W        W 9984   6.187   5.532  10.889
 6016W        W 9985  11.391   6.999  11.925
 6017W        W 9986   6.103   5.593   0.850
 6018W        W 9987   4.130   7.935  11.460
 6019W        W 9988   1.392  10.991  11.314
 6020W        W 9989   0.938   3.307  10.468
 6021W        W 9990   4.083   7.922   1.723
 6022W        W 9991   3.136   8.959  10.992
 6023W        W 9992  10.807   1.682   0.428
 6024W        W 9993   4.269   0.298  10.388
 6025W        W 9994   6.630   3.770   2.734
 6026W        W 9995   0.849   8.100   0.913
 6027W        W 9996   1.768   8.876  10.459
 6028W        W 9997   7.612   6.178  10.878
 6029W        W 9998   6.566   7.141   2.661
 6030W        W 9999   9.032   2.175   0.408
 6031W        W10000   2.644   8.007   0.934
 6032W        W10001   6.650   5.523  10.980
 6033W        W10002   8.971   7.951  10.956
 6034W        W10003   3.190   1.774  11.332
 6035W        W10004   8.085   5.270  10.042
 6036W        W10005   0.852  10.810  11.886
 6037W        W10006   2.781   7.578   2.306
 6038W        W10007   2.363   2.736   3.328
 6039W        W10008   1.203   1.405   2.356
 6040W        W10009   4.692   1.790   3.292
 6041W        W10010   6.227   4.642   1.257
 6042W        W10011   8.564  10.326  10.839
 6043W        W10012   2.823   7.564  11.780
 6044W        W10013   8.531   2.834   9.581
 6045W        W10014   7.635   9.902   9.872
 6046W        W10015   4.724   4.640   4.312
 6047W        W10016   4.689   8.889   9.872
 6048W        W10017  11.288   4.232   2.357
 6049W        W10018   7.943  10.455   9.876
 6050W        W10019   1.706   9.979   2.806
 6051W        W10020   1.388  11.353   9.568
 6052W        W10021   2.700   4.117   0.299
 6053W        W10022  10.050   2.158  11.032
 6054W        W10023   4.214  11.481   0.370
 6055W        W10024   8.563   7.568  11.320
 6056W        W10025   7.517   9.537   2.828
 6057W        W10026   3.674   2.662   3.172
 6058W        W10027   7.632   1.336  11.373
 6059W        W10028   7.648   3.272   1.832
 6060W        W10029  10.053   5.550  11.491
 6061W        W10030   2.717   5.073   4.155
 6062W        W10031   9.040   0.405  10.970
 6063W        W10032   4.671   9.852   8.933
 6064W        W10033   6.064   7.060  11.978
 6065W        W10034   9.385   3.138   0.794
 6066W        W10035   0.332   7.044   9.444
 6067W        W10036   9.400   0.281   1.765
 6068W        W10037   8.478   4.623   7.984
 6069W        W10038   9.344   8.423   9.433
 6070W        W10039   2.367   0.292   3.324
 6071W        W10040   2.173   1.245   1.855
 6072W        W10041   6.957   5.706   0.371
 6073W        W10042  10.960   1.817   1.805
 6074W        W10043   0.361   4.201   9.539
 6075W        W10044   5.129  11.382  11.982
 6076W        W10045   6.090   5.167  11.290
 6077W        W10046   5.058  10.359   0.889
 6078W        W10047   9.509   8.140  10.448
 6079W        W10048   0.800  11.005  11.324
 6080W        W10049   5.999   7.174  10.856
 6081W        W10050   9.026   1.877  10.897
 6082W        W10051   7.964   8.992   9.096
 6083W        W10052   7.107   2.345   1.916
 6084W        W10053  11.390   3.685   2.670
 6085W        W10054   8.985   2.313   2.744
 6086W        W10055   3.326   6.218   2.314
 6087W        W10056   7.932   1.695  10.450
 6088W        W10057   8.460   0.784   3.125
 6089W        W10058   5.572   7.996  11.304
 6090W        W10059   3.344   4.580  10.369
 6091W        W10060   5.103   0.306   1.814
 6092W        W10061   8.016   4.586   8.971
 6093W        W10062   6.507   1.422  10.527
 6094W        W10063   6.506   8.948   1.414
 6095W        W10064   0.283   6.495   8.897
 6096W        W10065   7.625   7.051   9.364
 6097W        W10066   9.014   8.466   9.925
 6098W        W10067   9.919  10.804   8.896
 6099W        W10068   6.099   4.074  11.830
 6100W        W10069   7.989   6.690   3.693
 6101W        W10070   9.430   4.658   3.257
 6102W        W10071   9.399   2.651   3.739
 6103W        W10072   5.054   9.964   0.743
 6104W        W10073   3.628   6.578   2.184
 6105W        W10074   3.269   7.009   3.333
 6106W        W10075  10.974  10.785  10.910
 6107W        W10076   1.802  10.358   9.444
 6108W        W10077  10.874   0.311   3.618
 6109W        W10078   6.698   7.666   0.440
 6110W        W10079   5.240  10.794   2.861
 6111W        W10080   5.234   2.205   2.340
 6112W        W10081  10.525   4.235   8.896
 6113W        W10082   2.374   2.856   1.917
 6114W        W10083   9.575   7.135  11.804
 6115W        W10084   3.634   7.185   9.110
 6116W        W10085  11.464  11.468   9.852
 6117W        W10086   3.757   8.903   0.730
 6118W        W10087   6.150   6.557   4.093
 6119W        W10088   6.086   3.330   0.757
 6120W        W10089   7.559   0.898   8.415
 6121W        W10090   3.731   6.638   3.241
 6122W        W10091   2.168   9.092  10.434
 6123W        W10092   5.170   2.244   0.935
 6124W        W10093   8.898   6.499   3.657
 6125W        W10094   2.205   9.390   3.622
 6126W        W10095   6.592  11.271   8.927
 6127W        W10096   0.935   8.007   8.594
 6128W        W10097   7.469   7.987   0.465
 6129W        W10098   4.638  10.788   9.380
 6130W        W10099  10.917   4.570   0.792
 6131W        W10100   6.572   8.984   9.546
 6132W        W10101   7.179   6.649   1.273
 6133W        W10102   2.355   7.907   8.512
 6134W        W10103   0.792   4.628   2.838
 6135W        W10104   4.167   9.073  10.928
 6136W        W10105   0.840   8.563   2.274
 6137W        W10106   1.686   4.553   8.996
 6138W        W10107   2.812   4.252   2.356
 6139W        W10108  11.358   8.898   2.397
 6140W        W10109   3.666   0.945   0.267
 6141W        W10110   2.331   2.837   0.737
 6142W        W10111   7.072  11.393  11.511
 6143W        W10112   9.084   4.707   7.952
 6144W        W10113   9.553   5.581   0.944
 6145W        W10114   9.555   6.059   2.803
 6146W        W10115   6.682  10.318   0.362
 6147W        W10116  10.347   4.203  10.922
 6148W        W10117   1.397  10.414   9.889
 6149W        W10118   5.666   0.803   0.450
 6150W        W10119   8.064  10.973   9.060
 6151W        W10120   8.000   9.547  11.381
 6152W        W10121   9.894   2.761   1.802
 6153W        W10122   0.375  10.827   3.350
 6154W        W10123   8.062   3.150   3.334
 6155W        W10124  10.377   7.518   8.951
 6156W        W10125   7.044   7.989   1.717
 6157W        W10126  11.425   8.535  11.869
 6158W        W10127   5.515   7.133   8.630
 6159W        W10128   7.102  10.451  11.768
 6160W        W10129   4.240   7.966   9.982
 6161W        W10130   8.442   6.189   2.846
 6162W        W10131   4.283   8.865   2.808
 6163W        W10132  11.429   4.245  10.028
 6164W        W10133   0.938   1.733  10.027
 6165W        W10134   6.984   8.415   9.957
 6166W        W10135   6.047   7.630   9.533
 6167W        W10136   1.432   0.411   9.879
 6168W        W10137   5.180  11.336   9.440
 6169W        W10138   7.518   5.641  10.336
 6170W        W10139   5.993   1.789   2.700
 6171W        W10140   2.791   2.285   3.292
 6172W        W10141   7.083   7.972   8.586
 6173W        W10142   4.098   1.683   1.708
 6174W        W10143   1.312   9.491   1.386
 6175W        W10144   8.516   5.204   2.388
 6176W        W10145   0.359   8.571   9.115
 6177W        W10146   8.918   0.413  11.966
 6178W        W10147  10.372   3.628   9.074
 6179W        W10148   6.479  11.418   3.356
 6180W        W10149   1.206   3.806   9.545
 6181W        W10150   6.022   3.601   2.200
 6182W        W10151   9.857   9.391   3.801
 6183W        W10152   4.717   5.719  11.819
 6184W        W10153   8.962   3.795  11.805
 6185W        W10154   8.908   7.140   9.843
 6186W        W10155   8.882   9.968   2.324
 6187W        W10156   6.024   2.390  10.332
 6188W        W10157   2.734   8.405   8.408
 6189W        W10158   8.941  10.058   9.091
 6190W        W10159   7.972   6.226   0.877
 6191W        W10160   5.630   2.667  11.986
 6192W        W10161   0.429   2.171   2.749
 6193W        W10162   6.582   9.413   2.713
 6194W        W10163   5.701   3.131  11.854
 6195W        W10164   3.744   1.350   0.316
 6196W        W10165   8.870   6.221   2.162
 6197W        W10166   4.577   8.474   2.361
 6198W        W10167   0.807   9.843   3.249
 6199W        W10168   5.681   9.380   0.939
 6200W        W10169   3.778   6.090   4.256
 6201W        W10170   9.981  10.908   2.363
 6202W        W10171   0.332  11.454   9.906
 6203W        W10172   6.055   7.665   9.853
 6204W        W10173   2.766   5.069   8.475
 6205W        W10174   2.321   5.664   0.820
 6206W        W10175   5.701   1.707   9.873
 6207W        W10176   6.534   0.763   2.272
 6208W        W10177   0.901   9.088   8.416
 6209W        W10178   8.002   8.565  10.858
 6210W        W10179   3.613   4.699  10.433
 6211W        W10180  11.015   7.181   0.450
 6212W        W10181   2.263   5.252   1.392
 6213W        W10182   4.751   2.356   3.737
 6214W        W10183   9.492   3.203   0.462
 6215W        W10184   7.644   9.559   1.390
 6216W        W10185  10.402   4.226   9.578
 6217W        W10186   8.531   5.622   1.205
 6218W        W10187   4.629   9.511   2.160
 6219W        W10188   8.979  11.281  11.319
 6220W        W10189   6.593   9.959  11.874
 6221W        W10190   2.175   5.117   1.862
 6222W        W10191   7.659   1.782  10.032
 6223W        W10192   9.573   5.093   1.764
 6224W        W10193   7.043  11.260  11.965
 6225W        W10194   7.942   2.256   0.283
 6226W        W10195   0.426   2.716  11.352
 6227W        W10196   8.548   6.592   0.460
 6228W        W10197   0.877   1.915   2.830
 6229W        W10198   0.948   8.015  10.344
 6230W        W10199   1.746   0.829  11.821
 6231W        W10200   4.075   9.375   9.455
 6232W        W10201   4.143   9.881   1.262
 6233W        W10202   6.217  11.305   2.304
 6234W        W10203   1.715  10.519  11.347
 6235W        W10204  10.323   9.897   0.294
 6236W        W10205   4.124   6.612   3.254
 6237W        W10206  11.266   2.866   0.446
 6238W        W10207   1.715   5.992  10.985
 6239W        W10208  10.817   8.398   9.926
 6240W        W10209  10.368  10.503   3.152
 6241W        W10210   5.205   2.210   1.252
 6242W        W10211   4.255   4.251   0.947
 6243W        W10212   7.002   2.755  11.005
 6244W        W10213   9.567  10.855   2.750
 6245W        W10214   7.122   3.747   9.930
 6246W        W10215  10.059   3.750   3.121
 6247W        W10216   6.143   2.673   2.352
 6248W        W10217   4.759   0.465   0.416
 6249W        W10218   1.885   1.224   0.282
 6250W        W10219   9.098   4.775   1.890
 6251W        W10220  10.540   0.337   1.870
 6252W        W10221   7.979   7.103   0.732
 6253W        W10222   7.088  10.854   3.165
 6254W        W10223   6.186   7.982  10.493
 6255W        W10224   9.580   9.366  10.423
 6256W        W10225   3.709   9.961   9.591
 6257W        W10226   8.459   8.048  10.046
 6258W        W10227   3.268   0.789  11.491
 6259W        W10228   3.732   6.026   8.624
 6260W        W10229   8.609   8.973   8.989
 6261W        W10230   7.006   4.274   1.399
 6262W        W10231  11.457  10.917   1.861
 6263W        W10232   3.751   8.966   2.827
 6264W        W10233   0.958   0.790   9.442
 6265W        W10234   8.952   0.942   1.368
 6266W        W10235   4.273   1.762  10.896
 6267W        W10236   6.652  10.386   0.947
 6268W        W10237   0.759   9.897   2.337
 6269W        W10238   7.140  10.381  10.360
 6270W        W10239   7.641   2.345   1.866
 6271W        W10240   4.573   1.748   1.819
 6272W        W10241   0.904   8.979   1.789
 6273W        W10242   5.108   3.776   2.309
 6274W        W10243   4.771   0.261   9.077
 6275W        W10244   7.927   3.649  10.355
 6276W        W10245  10.907   6.567  11.407
 6277W        W10246  10.838   6.201   9.077
 6278W        W10247   1.690   9.402   0.283
 6279W        W10248   7.045  10.494   0.767
 6280W        W10249   7.495   6.606   1.847
 6281W        W10250  11.350   3.340   0.265
 6282W        W10251   8.907  10.886   2.718
 6283W        W10252   7.458   9.365  11.379
 6284W        W10253   2.366   8.008  10.364
 6285W        W10254  11.403   4.249  11.466
 6286W        W10255   4.711   3.802   3.327
 6287W        W10256   8.981   4.296   0.855
 6288W        W10257   8.964   1.900   9.461
 6289W        W10258   1.314   2.337  10.840
 6290W        W10259   3.178   0.769   4.141
 6291W        W10260  10.973   6.064   1.786
 6292W        W10261   8.051   4.672   1.832
 6293W        W10262   6.662  10.032   9.005
 6294W        W10263   2.354   0.334  10.521
 6295W        W10264   2.233   2.823   1.350
 6296W        W10265   3.258   9.872  10.833
 6297W        W10266   5.145  10.505   8.918
 6298W        W10267   5.645   7.559   2.821
 6299W        W10268  10.864   4.083   8.887
 6300W        W10269   9.096   7.023   9.037
 6301W        W10270   1.428   7.583   1.361
 6302W        W10271   9.472   0.309   2.177
 6303W        W10272  10.946   5.200   0.870
 6304W        W10273   7.436   4.250   3.812
 6305W        W10274   5.054   9.513  10.509
 6306W        W10275   9.520   7.109   9.111
 6307W        W10276   9.418   8.877   2.291
 6308W        W10277   9.969   7.593   9.390
 6309W        W10278   4.581  10.782   0.732
 6310W        W10279  11.271   1.680   2.232
 6311W        W10280   7.484   6.684  10.069
 6312W        W10281   5.667   1.771  11.035
 6313W        W10282   6.596   9.493  11.831
 6314W        W10283   8.079   9.005   2.193
 6315W        W10284   7.140   7.593   1.810
 6316W        W10285   4.091   6.029   0.801
 6317W        W10286  10.914   3.802   2.340
 6318W        W10287   4.636   3.307  11.283
 6319W        W10288   9.349   5.133   9.389
 6320W        W10289  10.968   8.394   1.788
 6321W        W10290   7.945   7.911   1.698
 6322W        W10291   3.163   6.645   3.132
 6323W        W10292   0.941   9.542   3.327
 6324W        W10293  10.869   9.980   2.829
 6325W        W10294   2.362   5.748   2.735
 6326W        W10295   1.232   3.303   0.380
 6327W        W10296   3.168   2.866   1.295
 6328W        W10297   9.386   6.470   8.600
 6329W        W10298   7.648   6.159   1.704
 6330W        W10299  10.389   9.825  11.405
 6331W        W10300   2.752  10.372   9.438
 6332W        W10301   0.794   8.086  11.417
 6333W        W10302  11.482  10.387  10.436
 6334W        W10303   8.940  10.945  11.835
 6335W        W10304   4.663   6.989   1.884
 6336W        W10305   3.692  11.331   1.732
 6337W        W10306   9.064   3.705   3.239
 6338W        W10307   7.035   1.250   0.303
 6339W        W10308   4.677   9.468   2.876
 6340W        W10309   3.285  10.833   9.906
 6341W        W10310   4.218   5.652   9.899
 6342W        W10311   6.054   4.303   1.821
 6343W        W10312   5.678  10.032  10.382
 6344W        W10313   3.643   9.034   1.404
 6345W        W10314  11.332   0.241   8.949
 6346W        W10315   2.652   8.037  10.324
 6347W        W10316  10.885   1.729   9.032
 6348W        W10317   2.204   4.312   1.769
 6349W        W10318   9.398   7.157   8.508
 6350W        W10319   4.221   4.237   9.927
 6351W        W10320   1.329   9.998  10.954
 6352W        W10321   7.589   3.795   0.338
 6353W        W10322   9.557   6.150   9.924
 6354W        W10323  10.944   9.031   1.858
 6355W        W10324   8.596  10.838  11.425
 6356W        W10325   4.791   1.277   9.927
 6357W        W10326   7.524   4.573   2.379
 6358W        W10327   5.100   4.655   0.283
 6359W        W10328   9.058   1.299   9.501
 6360W        W10329  10.820   9.063  10.380
 6361W        W10330   0.732   8.068   3.602
 6362W        W10331   0.444   3.277   8.882
 6363W        W10332   2.261   8.556  11.513
 6364W        W10333  11.473  10.823  10.499
 6365W        W10334   5.068   3.778   9.873
 6366W        W10335   7.647   6.008  11.794
 6367W        W10336   4.275  11.441   1.346
 6368W        W10337   0.244   7.534  10.982
 6369W        W10338   1.792   7.520  10.405
 6370W        W10339   6.213   7.463   8.582
 6371W        W10340   7.055   8.579  10.362
 6372W        W10341   5.688  11.304   9.861
 6373W        W10342   8.588   1.749  10.459
 6374W        W10343   3.192  11.478  11.900
 6375W        W10344  10.851   2.379   9.958
 6376W        W10345   1.705   7.127   1.768
 6377W        W10346   3.278   0.267   9.938
 6378W        W10347  10.892   3.128   8.896
 6379W        W10348   8.394   1.883  11.889
 6380W        W10349   1.781   8.508   8.985
 6381W        W10350   4.137   7.509   2.169
 6382W        W10351   7.143   1.292  10.060
 6383W        W10352   4.135  11.011   9.846
 6384W        W10353   5.644   6.590  11.343
 6385W        W10354   5.153   5.525   0.798
 6386W        W10355   6.974   3.299   0.832
 6387W        W10356   0.258   5.271   2.397
 6388W        W10357  10.809  11.315   9.515
 6389W        W10358   7.515   9.433  11.790
 6390W        W10359   9.046   7.128   3.317
 6391W        W10360   9.539   0.909   2.765
 6392W        W10361   2.386   7.165   1.827
 6393W        W10362  10.929   5.058   1.750
 6394W        W10363   4.626   0.920   2.696
 6395W        W10364   0.345  10.480   9.404
 6396W        W10365   2.846   6.596  10.411
 6397W        W10366   2.166   4.681   8.619
 6398W        W10367   0.839  10.437   3.291
 6399W        W10368  10.058  10.892   9.572
 6400W        W10369   1.758   9.538  10.078
 6401W        W10370  11.355   2.733  11.947
 6402W        W10371   8.526   6.519   9.577
 6403W        W10372   8.404  11.018   8.625
 6404W        W10373   8.550   8.009   1.751
 6405W        W10374   2.196   6.558   3.162
 6406W        W10375   1.224   5.683   9.106
 6407W        W10376   2.702   5.157   9.454
 6408W        W10377   3.333   0.421  11.495
 6409W        W10378   1.894   6.088   0.352
 6410W        W10379   6.162  11.401   0.386
 6411W        W10380   0.264   9.875   1.259
 6412W        W10381   1.374  10.396  11.437
 6413W        W10382   0.393   5.099   3.252
 6414W        W10383   6.047   1.400   0.412
 6415W        W10384  11.481   1.350   2.656
 6416W        W10385   3.217  10.883   8.987
 6417W        W10386   5.641  11.371  10.837
 6418W        W10387   3.734  10.885   0.888
 6419W        W10388   5.147   5.219  11.784
 6420W        W10389   0.882   6.220   8.890
 6421W        W10390   0.786   9.963   3.607
 6422W        W10391   9.050   2.329   9.933
 6423W        W10392   0.333   5.702  11.391
 6424W        W10393   9.983   2.807   0.742
 6425W        W10394   8.609   8.616   2.710
 6426W        W10395  10.346   1.434   0.429
 6427W        W10396   6.000   7.036   0.395
 6428W        W10397   4.670  10.519   2.214
 6429W        W10398   1.889   7.158  10.036
 6430W        W10399  10.343   9.005   3.323
 6431W        W10400   9.961   1.872   9.466
 6432W        W10401   4.754  11.376  10.056
 6433W        W10402   7.006   0.788   8.988
 6434W        W10403   9.030   5.119   2.684
 6435W        W10404   2.805   1.736   3.179
 6436W        W10405   3.130   3.120   9.016
 6437W        W10406   0.933   4.731   9.877
 6438W        W10407   9.855   5.597  11.007
 6439W        W10408   2.655   9.441   8.925
 6440W        W10409   2.704   7.461   8.092
 6441W        W10410   3.259   6.224   0.818
 6442W        W10411   4.310   5.197   2.348
 6443W        W10412  10.362   7.950   1.920
 6444W        W10413   8.941   4.564   0.722
 6445W        W10414   7.033  10.428   1.864
 6446W        W10415   5.178   1.820   0.367
 6447W        W10416   7.036   2.305   0.839
 6448W        W10417   4.175   9.480  10.066
 6449W        W10418   5.728   3.805   1.297
 6450W        W10419   3.182   2.218   0.942
 6451W        W10420   2.308   8.878   0.817
 6452W        W10421  10.869   1.706  11.818
 6453W        W10422   7.976   8.434   8.569
 6454W        W10423   4.123   6.192  11.815
 6455W        W10424   1.867   9.554  11.000
 6456W        W10425   0.874   9.026  11.999
 6457W        W10426   7.453   5.542  11.984
 6458W        W10427   3.232   5.540   0.875
 6459W        W10428   0.345   6.139   2.250
 6460W        W10429   0.400   6.135  11.311
 6461W        W10430   1.713   6.217   1.323
 6462W        W10431   8.570   3.642   9.529
 6463W        W10432   9.464   5.237   9.921
 6464W        W10433   0.315   7.643   3.139
 6465W        W10434  10.471   0.455  11.377
 6466W        W10435  11.021   6.950   1.413
 6467W        W10436   3.240   9.851   0.372
 6468W        W10437   0.447   2.340   0.856
 6469W        W10438   3.336   5.136  10.068
 6470W        W10439   1.881   1.876   2.393
 6471W        W10440  10.962   6.995   3.644
 6472W        W10441   6.590   3.618   9.906
 6473W        W10442   0.834  10.538   8.538
 6474W        W10443   7.036   8.572   1.381
 6475W        W10444   3.337   4.588   0.396
 6476W        W10445   4.556   6.674  10.534
 6477W        W10446   6.562   4.724  10.867
 6478W        W10447   9.375  11.386   8.939
 6479W        W10448   8.452   7.571   3.125
 6480W        W10449  10.909   0.744   2.725
 6481W        W10450   9.438   9.058  11.307
 6482W        W10451   9.979   5.603   1.260
 6483W        W10452  10.835   7.648   0.812
 6484W        W10453   8.923  10.496  11.493
 6485W        W10454   5.207   1.714  10.344
 6486W        W10455   6.707   3.300   3.215
 6487W        W10456   0.400   5.518   8.884
 6488W        W10457   1.697   5.616  11.875
 6489W        W10458   8.873   0.290   2.160
 6490W        W10459   2.339   5.705   1.239
 6491W        W10460   1.306   2.194   0.293
 6492W        W10461  10.311   7.936   9.587
 6493W        W10462   0.379   0.797  11.002
 6494W        W10463  10.936  10.921   0.957
 6495W        W10464   1.817   2.639   0.723
 6496W        W10465   7.088  11.368  10.870
 6497W        W10466  10.317   9.570   0.933
 6498W        W10467   7.979   2.862  10.956
 6499W        W10468   5.512   6.215   0.467
 6500W        W10469   9.493   3.126   1.710
 6501W        W10470   6.209   8.447   8.915
 6502W        W10471  11.426   6.208  11.343
 6503W        W10472  10.838   0.272  11.321
 6504W        W10473   9.374   9.464   0.844
 6505W        W10474   5.209   9.404   0.418
 6506W        W10475   6.196   8.459   3.297
 6507W        W10476   5.583   4.606  10.980
 6508W        W10477   5.622   0.797   1.385
 6509W        W10478   9.504   2.186   2.873
 6510W        W10479   1.322   8.426   2.392
 6511W        W10480   4.231   3.333  11.954
 6512W        W10481   0.867   2.272   9.969
 6513W        W10482   1.823   7.936   0.299
 6514W        W10483   4.116   2.310   0.342
 6515W        W10484   2.650   8.508   9.055
 6516W        W10485   8.413  10.989   1.258
 6517W        W10486   8.107   9.044  10.555
 6518W        W10487   8.581   7.950   0.734
 6519W        W10488   7.051   8.105   2.208
 6520W        W10489   7.142   1.749   2.179
 6521W        W10490  11.490   3.223   2.182
 6522W        W10491   8.596   2.766   2.184
 6523W        W10492   4.117   9.513   3.165
 6524W        W10493   3.340   4.271   9.426
 6525W        W10494  10.466   1.761   9.548
 6526W        W10495   9.980   2.647  10.866
 6527W        W10496   2.826   9.915  10.439
 6528W        W10497   0.744   8.138   8.888
 6529W        W10498   3.728   8.538   8.447
 6530W        W10499   2.357   5.995  11.506
 6531W        W10500  11.321   8.120  10.489
 6532W        W10501  10.390   2.700  11.321
 6533W        W10502   3.791   9.561  10.022
 6534W        W10503   2.374   4.255   2.813
 6535W        W10504  11.327   6.568  11.854
 6536W        W10505  10.860  10.485   2.768
 6537W        W10506   9.431   5.121   2.818
 6538W        W10507   0.340   7.055   3.283
 6539W        W10508   5.536   0.358   9.116
 6540W        W10509   3.296   7.543   9.401
 6541W        W10510  11.399  10.881  11.413
 6542W        W10511   7.936   9.827   8.604
 6543W        W10512   1.290   1.803   1.909
 6544W        W10513   5.128   4.241  11.511
 6545W        W10514   5.691   5.250   2.182
 6546W        W10515   1.352   2.693   2.312
 6547W        W10516   9.980   1.417  10.447
 6548W        W10517   9.830   0.761   9.887
 6549W        W10518   4.212   8.404   2.316
 6550W        W10519   8.916   0.468   0.262
 6551W        W10520   9.012   4.680  10.458
 6552W        W10521   5.040   2.212   2.663
 6553W        W10522   8.442   9.938  11.439
 6554W        W10523  10.883   9.520   0.326
 6555W        W10524   1.759   0.762  10.985
 6556W        W10525   7.545   6.553  10.912
 6557W        W10526   8.396   6.600   3.729
 6558W        W10527   3.829   3.117   3.251
 6559W        W10528   9.410  11.500  11.839
 6560W        W10529   8.471   8.526  11.482
 6561W        W10530   4.732   5.574   0.794
 6562W        W10531   0.729  10.388   2.759
 6563W        W10532  10.349   6.514   8.945
 6564W        W10533   0.424   3.786   0.797
 6565W        W10534   0.837   2.188   9.391
 6566W        W10535   1.226   0.729   2.322
 6567W        W10536  10.529   9.404  11.855
 6568W        W10537   4.752   8.441   3.726
 6569W        W10538   7.570   7.569   9.981
 6570W        W10539   1.723   1.900  10.980
 6571W        W10540   4.767   7.652  11.896
 6572W        W10541   0.931  10.378  11.421
 6573W        W10542   2.395   3.253   0.722
 6574W        W10543   0.393  11.458   1.241
 6575W        W10544   1.717   5.549  11.480
 6576W        W10545   5.261   4.099   1.903
 6577W        W10546   3.616   7.079   0.919
 6578W        W10547  10.530   5.656   2.824
 6579W        W10548   8.085   4.181   0.312
 6580W        W10549   0.802   9.057  10.018
 6581W        W10550   7.598  11.321   3.217
 6582W        W10551   9.040   1.901   0.457
 6583W        W10552   9.407  11.330   3.144
 6584W        W10553   2.648   7.458   1.232
 6585W        W10554   7.082   5.192   1.818
 6586W        W10555  11.430   3.336   0.757
 6587W        W10556   2.371   7.083   0.860
 6588W        W10557   0.309   0.762   0.835
 6589W        W10558   5.145   9.826   9.523
 6590W        W10559   3.688   3.149   1.833
 6591W        W10560   5.524   5.121   0.909
 6592W        W10561   7.428   9.404   2.351
 6593W        W10562   1.373   2.241  10.340
 6594W        W10563   3.734   6.475   8.466
 6595W        W10564   2.230   7.428   2.263
 6596W        W10565  11.317   9.920   2.811
 6597W        W10566   4.673   1.323   2.291
 6598W        W10567   7.082   4.118  11.933
 6599W        W10568   0.877   5.241  10.005
 6600W        W10569   6.588   1.748  11.351
 6601W        W10570   8.588  11.444   3.171
 6602W        W10571   6.950   1.870   0.846
 6603W        W10572   1.321   0.734  11.903
 6604W        W10573   7.958   9.930  11.304
 6605W        W10574   4.279   0.446  11.858
 6606W        W10575   8.037   8.005   9.961
 6607W        W10576   0.259   6.627   3.839
 6608W        W10577   4.720   5.736  11.497
 6609W        W10578   4.077  10.356   9.842
 6610W        W10579   5.637   2.293  10.962
 6611W        W10580   8.945   9.410   9.436
 6612W        W10581   1.896   6.952   2.374
 6613W        W10582   0.269  10.970  11.891
 6614W        W10583   3.221  10.833  11.490
 6615W        W10584   0.796   9.977  10.494
 6616W        W10585   2.796   5.222   8.133
 6617W        W10586   6.658   6.695  11.290
 6618W        W10587   3.209   3.316  10.896
 6619W        W10588  10.802  10.541  11.766
 6620W        W10589   1.267  11.381   2.773
 6621W        W10590   3.729  10.906  10.506
 6622W        W10591   7.489   1.843  11.353
 6623W        W10592   4.123  11.362  11.844
 6624W        W10593   0.842   0.875   1.421
 6625W        W10594   1.872   8.487   9.540
 6626W        W10595   3.597   6.059   0.954
 6627W        W10596   9.856   1.826  10.980
 6628W        W10597   3.208   5.738  11.967
 6629W        W10598   0.427   7.036   1.899
 6630W        W10599   5.746   7.038   2.648
 6631W        W10600   9.985  11.498  11.476
 6632W        W10601   5.173   6.651   1.269
 6633W        W10602   6.015   4.200   4.084
 6634W        W10603   1.378   6.192  11.372
 6635W        W10604   6.582   7.110   1.392
 6636W        W10605   7.096   7.461  10.440
 6637W        W10606   6.485   7.625  10.831
 6638W        W10607   4.129  10.842   2.782
 6639W        W10608   7.043   0.821  10.890
 6640W        W10609   6.166  11.423   9.413
 6641W        W10610   5.669   9.573   9.926
 6642W        W10611   3.720   9.068   2.161
 6643W        W10612   4.156   6.202   3.779
 6644W        W10613   1.369   2.739   0.412
 6645W        W10614  10.479   2.264   9.905
 6646W        W10615   0.331  11.274   2.707
 6647W        W10616   0.445   7.013   1.430
 6648W        W10617   3.232   2.216  11.949
 6649W        W10618   2.836   2.788  11.387
 6650W        W10619   5.594   9.404   3.338
 6651W        W10620   9.851   8.612   2.350
 6652W        W10621  10.819  11.348   1.799
 6653W        W10622   1.845   9.398   3.249
 6654W        W10623   2.220  10.912  10.340
 6655W        W10624   7.433   0.764   0.379
 6656W        W10625   1.794   1.308  11.400
 6657W        W10626   6.558   3.181   2.271
 6658W        W10627   2.172   6.646   8.550
 6659W        W10628   2.758   6.089  10.481
 6660W        W10629   4.296   3.603  10.836
 6661W        W10630   6.509   3.229   8.442
 6662W        W10631   2.270   2.358  10.324
 6663W        W10632   1.811   7.137   9.456
 6664W        W10633  11.405   7.526   2.647
 6665W        W10634   9.527   0.740   0.346
 6666W        W10635   1.775   8.535   2.209
 6667W        W10636   5.237  11.350   9.937
 6668W        W10637   2.228   9.408   9.068
 6669W        W10638   9.956   3.191   1.779
 6670W        W10639   8.940   3.274  11.803
 6671W        W10640   4.203  11.431   9.881
 6672W        W10641   9.910   2.288   1.849
 6673W        W10642  10.907   7.943   0.730
 6674W        W10643   9.890   0.827   0.385
 6675W        W10644   5.157   6.127   0.911
 6676W        W10645   7.530   4.580   8.914
 6677W        W10646   3.118   2.703   0.786
 6678W        W10647   5.067   6.100  10.484
 6679W        W10648   9.827   8.100  11.912
 6680W        W10649   6.037   0.774   0.838
 6681W        W10650   1.780   3.323  11.015
 6682W        W10651  10.463   6.052   0.848
 6683W        W10652   8.942   7.948  11.490
 6684W        W10653   1.327   1.870   3.332
 6685W        W10654   6.633   8.530   1.898
 6686W        W10655   6.021   7.460   8.904
 6687W        W10656  10.837   0.954   8.983
 6688W        W10657   2.806   8.914   9.363
 6689W        W10658  11.261   8.419   0.865
 6690W        W10659   3.314   4.092   0.792
 6691W        W10660   4.302   6.220   0.423
 6692W        W10661   4.212   1.858   0.819
 6693W        W10662   6.071   0.289  10.880
 6694W        W10663   4.140  11.410   0.886
 6695W        W10664   7.650   9.010   0.930
 6696W        W10665   1.898   2.871  11.905
 6697W        W10666   8.113   2.741  10.374
 6698W        W10667   1.325   3.637  11.871
 6699W        W10668   4.614   3.249  10.541
 6700W        W10669   4.727   7.185  11.447
 6701W        W10670   5.571   6.488  10.073
 6702W        W10671   7.445   3.808   1.403
 6703W        W10672  11.427   5.588   0.735
 6704W        W10673  10.503   8.391  10.075
 6705W        W10674   7.150   3.298   1.831
 6706W        W10675   6.032   2.162   9.412
 6707W        W10676   4.749   1.352   9.553
 6708W        W10677   4.303   4.592   3.317
 6709W        W10678  10.000   7.511  10.469
 6710W        W10679  10.013  10.962   0.767
 6711W        W10680  11.384   5.187  10.957
 6712W        W10681   4.647   1.241  10.352
 6713W        W10682   0.790   3.775   9.553
 6714W        W10683   5.623   4.159   0.938
 6715W        W10684   9.892   7.651   1.752
 6716W        W10685   8.530   1.252   9.910
 6717W        W10686   3.257   8.473   0.393
 6718W        W10687   6.009   1.856  10.842
 6719W        W10688   5.266   1.859   4.244
 6720W        W10689   7.158   1.370   1.433
 6721W        W10690   7.960   5.171   9.403
 6722W        W10691   0.475   3.760   2.685
 6723W        W10692   7.926  11.261  10.924
 6724W        W10693   1.743   5.036   8.913
 6725W        W10694   1.259   2.694  10.334
 6726W        W10695   8.035  11.267   9.880
 6727W        W10696   9.517   0.445   3.234
 6728W        W10697   0.441  11.315  11.802
 6729W        W10698   8.432  11.487  10.469
 6730W        W10699   2.670   6.507   8.887
 6731W        W10700  10.476   0.728  10.879
 6732W        W10701   5.687   7.521   4.248
 6733W        W10702   3.121   3.250  11.350
 6734W        W10703   4.209  10.407  11.022
 6735W        W10704   9.091   3.203   9.097
 6736W        W10705   6.052   5.515   2.862
 6737W        W10706   5.165   8.079   8.937
 6738W        W10707   9.410   6.114  10.512
 6739W        W10708  10.435   4.286   3.148
 6740W        W10709   3.312   7.610   2.761
 6741W        W10710   7.645   2.157  11.947
 6742W        W10711   3.134   1.253  11.393
 6743W        W10712  10.801  11.320   9.021
 6744W        W10713  10.310   0.928   3.353
 6745W        W10714   4.239   1.414  10.485
 6746W        W10715   6.111  11.008   2.302
 6747W        W10716   2.287  10.465   9.086
 6748W        W10717   1.364   3.623  10.906
 6749W        W10718   1.680   4.656   0.344
 6750W        W10719   4.237   1.419   1.747
 6751W        W10720   9.100   8.963   9.915
 6752W        W10721   1.326   4.781  10.906
 6753W        W10722   4.226   2.643   1.414
 6754W        W10723   0.850   4.171   1.370
 6755W        W10724   9.463  10.346   3.795
 6756W        W10725  10.967   6.171   1.344
 6757W        W10726   1.858  10.395   1.785
 6758W        W10727  11.277   0.768   3.250
 6759W        W10728   0.316   1.705  11.446
 6760W        W10729   1.891  10.039   1.303
 6761W        W10730   7.496   6.048  10.062
 6762W        W10731   4.291   6.691  11.862
 6763W        W10732  11.432   1.822  11.295
 6764W        W10733   7.642  10.350  10.804
 6765W        W10734   7.627   7.909  10.497
 6766W        W10735   3.597   5.145   9.414
 6767W        W10736   5.136   0.407   1.214
 6768W        W10737   1.228   6.025  10.863
 6769W        W10738   9.900   8.953   3.327
 6770W        W10739   7.609   5.682   0.820
 6771W        W10740   2.311   9.039   2.213
 6772W        W10741   7.593   1.879   9.119
 6773W        W10742   9.572   4.571  10.006
 6774W        W10743   7.133   7.583   9.031
 6775W        W10744  10.959  11.007   2.877
 6776W        W10745   7.982   2.279   9.479
 6777W        W10746   3.812   6.481  10.878
 6778W        W10747   7.979  10.997   3.230
 6779W        W10748   3.775  10.363  11.475
 6780W        W10749   5.525   8.547  10.886
 6781W        W10750   0.460   9.098  10.381
 6782W        W10751   0.278   3.196   2.391
 6783W        W10752   6.059   2.641  10.803
 6784W        W10753  10.464   8.474   1.211
 6785W        W10754   3.212  11.485   8.999
 6786W        W10755   9.966   4.303   9.052
 6787W        W10756   6.670   1.860   2.327
 6788W        W10757   0.728   4.717  10.512
 6789W        W10758   5.647   2.776   2.733
 6790W        W10759   9.991   2.651   0.281
 6791W        W10760   3.793   7.590   2.857
 6792W        W10761   9.896   0.465   3.323
 6793W        W10762   7.522   0.913   2.250
 6794W        W10763   8.050   3.313  11.021
 6795W        W10764   0.825   7.556   0.796
 6796W        W10765   1.852   3.150   9.903
 6797W        W10766   1.838   6.554   0.267
 6798W        W10767   5.656   1.878  11.787
 6799W        W10768   2.310   9.576  10.518
 6800W        W10769   6.149   2.204  11.452
 6801W        W10770   4.559   6.192   1.424
 6802W        W10771   4.662  11.334   0.386
 6803W        W10772   8.962   7.651  10.507
 6804W        W10773   1.821  11.005  11.352
 6805W        W10774   4.212   9.529  11.441
 6806W        W10775   6.163   8.409   2.254
 6807W        W10776   3.693   0.958  10.373
 6808W        W10777   0.792   6.193  11.793
 6809W        W10778   8.925   7.530   9.003
 6810W        W10779   5.200   4.180   0.930
 6811W        W10780   9.929   3.216   8.969
 6812W        W10781   8.071   1.874  11.424
 6813W        W10782   9.564   9.363   3.281
 6814W        W10783   5.603   4.648   1.913
 6815W        W10784   5.633   6.959   9.111
 6816W        W10785   3.138   1.904   2.247
 6817W        W10786   8.617   6.104  10.008
 6818W        W10787   8.430   8.517   9.388
 6819W        W10788   0.311   4.209   1.300
 6820W        W10789   6.225   1.769   8.950
 6821W        W10790   4.771   8.044   1.221
 6822W        W10791   8.942   8.898   3.293
 6823W        W10792   9.945   7.939   1.318
 6824W        W10793   7.009  10.799   2.190
 6825W        W10794   9.526   3.160   8.979
 6826W        W10795   8.537   0.330   3.729
 6827W        W10796   2.637   0.831   0.396
 6828W        W10797   5.997   2.239  10.053
 6829W        W10798   5.084   2.823   1.853
 6830W        W10799   7.178   8.456   9.514
 6831W        W10800   7.999  10.348  11.331
 6832W        W10801   5.532   0.777   2.667
 6833W        W10802  11.428   5.179   9.985
 6834W        W10803   7.523  10.036  11.308
 6835W        W10804   6.982  11.335   1.338
 6836W        W10805  11.395   3.704  11.369
 6837W        W10806   9.843   9.933  11.984
 6838W        W10807   7.139   8.903   0.461
 6839W        W10808   2.305   4.784  11.902
 6840W        W10809   4.674   8.872   2.698
 6841W        W10810   2.768   9.415   1.725
 6842W        W10811  10.991   7.591   2.353
 6843W        W10812   1.699   2.779   9.876
 6844W        W10813   5.104   9.380   9.980
 6845W        W10814   2.322   9.859  11.487
 6846W        W10815  11.312   8.117   0.822
 6847W        W10816   8.422   1.270   0.733
 6848W        W10817   9.853   7.603   0.372
 6849W        W10818   5.186   7.065  10.889
 6850W        W10819   3.727   7.049   2.751
 6851W        W10820   8.622   3.230   1.323
 6852W        W10821   7.955   3.689   1.219
 6853W        W10822   1.318   7.068  11.359
 6854W        W10823   0.893   3.762   0.351
 6855W        W10824   2.790   2.869   0.850
 6856W        W10825  10.368  10.895  11.880
 6857W        W10826   6.617   2.282  10.949
 6858W        W10827   9.405   7.108   9.882
 6859W        W10828   4.599   9.941  10.953
 6860W        W10829   6.504   0.803   3.803
 6861W        W10830  10.303   7.093   1.404
 6862W        W10831  11.425   0.346   9.590
 6863W        W10832   5.093   9.045  10.800
 6864W        W10833   2.164   1.797  10.408
 6865W        W10834   5.170   9.359   2.285
 6866W        W10835   3.202   5.045   3.689
 6867W        W10836  11.288   5.142   0.342
 6868W        W10837   7.928   6.026   8.400
 6869W        W10838   9.834   0.385   1.897
 6870W        W10839  10.500   3.694  10.875
 6871W        W10840   1.365   6.655   8.968
 6872W        W10841   2.241   7.557   3.610
 6873W        W10842   4.641   1.342  10.825
 6874W        W10843   6.105   7.565  10.401
 6875W        W10844   2.699   7.637   9.449
 6876W        W10845   4.245  10.799   9.405
 6877W        W10846   4.735   7.153  10.438
 6878W        W10847   7.978  10.501   1.440
 6879W        W10848   8.020   1.366   1.339
 6880W        W10849   7.168   6.956   2.864
 6881W        W10850   8.986   8.616   1.225
 6882W        W10851   5.709   2.739   0.400
 6883W        W10852   1.698   2.358  10.415
 6884W        W10853   2.797   2.655  10.993
 6885W        W10854  10.385   7.507   2.825
 6886W        W10855  10.973   0.326   1.322
 6887W        W10856   6.217   4.165  11.491
 6888W        W10857   7.489   5.154   1.396
 6889W        W10858   6.997   9.363   2.813
 6890W        W10859   9.379   9.068   1.361
 6891W        W10860   5.545  11.010   3.794
 6892W        W10861   8.048   2.295   9.023
 6893W        W10862   3.776   7.116  11.989
 6894W        W10863   2.202  10.915   1.774
 6895W        W10864  11.375   0.353   0.890
 6896W        W10865   3.179   9.046   0.912
 6897W        W10866   7.533   6.958   8.943
 6898W        W10867   9.091   7.570   9.865
 6899W        W10868  10.308   8.924   8.994
 6900W        W10869   4.692   6.615  11.476
 6901W        W10870   0.352   4.769   1.754
 6902W        W10871   2.332   6.686  11.511
 6903W        W10872   9.444  10.044   2.689
 6904W        W10873   8.994   5.570  11.860
 6905W        W10874  10.966   0.308   9.564
 6906W        W10875   5.101   7.467   0.789
 6907W        W10876   2.367  10.368   0.950
 6908W        W10877  10.435   6.228   1.273
 6909W        W10878   5.263   9.960   0.387
 6910W        W10879  11.308   4.763   3.205
 6911W        W10880   5.188   0.901  11.869
 6912W        W10881   5.124   2.840   3.837
 6913W        W10882   5.642   4.255  11.009
 6914W        W10883   9.354  10.501   2.738
 6915W        W10884   1.808   7.969   2.713
 6916W        W10885  10.839   7.027   0.821
 6917W        W10886   9.920   4.644   0.260
 6918W        W10887   9.869   1.318   2.187
 6919W        W10888   3.236   4.740   0.891
 6920W        W10889   2.839   3.343  11.771
 6921W        W10890   0.792  10.541  11.980
 6922W        W10891   6.694   8.447   2.739
 6923W        W10892   8.416   9.385  10.075
 6924W        W10893   1.721   5.554   2.762
 6925W        W10894  11.430   2.843   2.718
 6926W        W10895   5.639  11.403   9.574
 6927W        W10896   9.024   9.837   0.721
 6928W        W10897   8.461   3.692  10.863
 6929W        W10898   6.561   1.679  10.457
 6930W        W10899   0.907   5.123  11.996
 6931W        W10900   2.640   7.997   1.381
 6932W        W10901   9.479   4.305  10.554
 6933W        W10902   7.625   6.647   0.319
 6934W        W10903  10.014   3.823   1.377
 6935W        W10904   2.158   7.601  10.352
 6936W        W10905   9.411   8.030   9.480
 6937W        W10906   8.498   9.845   9.890
 6938W        W10907   2.660   3.783  11.944
 6939W        W10908   0.724   0.874  10.836
 6940W        W10909  10.377  10.437   9.596
 6941W        W10910   6.137   1.374   9.058
 6942W        W10911   0.427   5.993   3.124
 6943W        W10912   0.896   4.661   9.534
 6944W        W10913   7.521   1.372   1.433
 6945W        W10914   9.574   5.696  11.286
 6946W        W10915  10.921   1.323  11.403
 6947W        W10916   8.945   4.699  11.782
 6948W        W10917   2.254   3.247  10.941
 6949W        W10918   6.540   1.340  10.840
 6950W        W10919   7.605   7.562   0.789
 6951W        W10920   1.340  10.882   2.223
 6952W        W10921   8.973   7.573   3.281
 6953W        W10922   5.522  10.520   2.358
 6954W        W10923   4.171  10.388  11.849
 6955W        W10924   1.220   1.731   9.949
 6956W        W10925   3.745   4.094   2.782
 6957W        W10926   5.222   6.213  11.990
 6958W        W10927   9.564   8.498   2.779
 6959W        W10928   7.429   5.642   2.363
 6960W        W10929   1.262   9.926   3.277
 6961W        W10930   5.528   7.452   0.754
 6962W        W10931  10.419   9.911   3.174
 6963W        W10932   4.116   5.121   0.428
 6964W        W10933   4.247   2.287   9.523
 6965W        W10934   8.942   7.049   2.790
 6966W        W10935   5.634   3.699  11.505
 6967W        W10936   7.907   2.862   1.782
 6968W        W10937   3.196   2.300  11.362
 6969W        W10938   7.531  10.025   1.806
 6970W        W10939   2.175   6.669   8.885
 6971W        W10940   8.918   9.489   1.880
 6972W        W10941   4.263  10.443   9.449
 6973W        W10942   3.187   6.014   1.881
 6974W        W10943   1.743   7.960  11.471
 6975W        W10944   6.075   0.464   1.364
 6976W        W10945   2.872   3.289   2.331
 6977W        W10946   4.118  11.403   8.946
 6978W        W10947   8.952   8.527   3.233
 6979W        W10948   7.058   7.989  10.483
 6980W        W10949   7.156   2.304   1.280
 6981W        W10950   9.969   8.002   9.880
 6982W        W10951   5.560   1.849   0.329
 6983W        W10952   0.882  11.311  10.870
 6984W        W10953   0.896  10.840   9.559
 6985W        W10954   3.212  11.279   2.288
 6986W        W10955   0.428   7.983   9.074
 6987W        W10956   1.914   7.553  10.054
 6988W        W10957   4.728   1.889  10.377
 6989W        W10958   7.577  10.521   1.342
 6990W        W10959   5.061   9.100   9.971
 6991W        W10960   7.158   5.194   0.847
 6992W        W10961   8.120   7.495   0.244
 6993W        W10962   5.527   3.291   0.278
 6994W        W10963  10.809   9.017  10.914
 6995W        W10964   3.677  10.497   9.573
 6996W        W10965   8.082   6.538   9.480
 6997W        W10966  10.331   1.682  10.422
 6998W        W10967   3.188   5.611   3.781
 6999W        W10968   6.002   0.343  11.771
 7000W        W10969   2.328   0.851  11.369
 7001W        W10970   7.966  10.386  10.958
 7002W        W10971   2.671  10.333  10.460
 7003W        W10972   1.424   1.423  10.951
 7004W        W10973   9.553   0.478  11.429
 7005W        W10974   7.128   9.082   8.888
 7006W        W10975   3.199   5.196   0.849
 7007W        W10976   9.911   7.053  11.858
 7008W        W10977   7.550   1.863   0.945
 7009W        W10978   7.074   7.474  11.018
 7010W        W10979  11.385   4.708  11.488
 7011W        W10980   9.080   7.449   1.890
 7012W        W10981   2.784  10.046  10.900
 7013W        W10982   6.998   9.962   3.661
 7014W        W10983  10.897   5.577   0.392
 7015W        W10984  10.447   8.882  10.804
 7016W        W10985   0.849  11.310   2.724
 7017W        W10986  10.883   3.180  11.312
 7018W        W10987  10.866   5.260   2.754
 7019W        W10988   4.238   9.985   0.396
 7020W        W10989   8.046  10.798  11.365
 7021W        W10990   0.319   6.638   9.562
 7022W        W10991   9.853   9.471   9.566
 7023W        W10992   7.429   2.370  10.371
 7024W        W10993   5.069   4.192   3.171
 7025W        W10994   2.766  11.316   9.975
 7026W        W10995   3.259   1.380  10.993
 7027W        W10996   1.694   5.741   9.005
 7028W        W10997   1.696   4.301   9.114
 7029W        W10998   8.537   9.555   1.286
 7030W        W10999   3.152   4.624   1.379
 7031W        W11000   1.817   6.953   1.231
 7032W        W11001   6.560   8.950   9.967
 7033W        W11002   9.966   9.353   1.333
 7034W        W11003   9.087   9.846   1.333
 7035W        W11004   3.176   3.674   2.214
 7036W        W11005   7.443   2.849  10.900
 7037W        W11006   8.435   5.190  10.379
 7038W        W11007   8.400   8.397   0.907
 7039W        W11008   7.629   5.688   0.417
 7040W        W11009  11.411   0.312   3.358
 7041W        W11010   8.046   0.835   1.211
 7042W        W11011   0.308   4.260  11.021
 7043W        W11012  10.823   2.178  10.854
 7044W        W11013   6.672   7.502   9.536
 7045W        W11014   4.100   1.277   8.954
 7046W        W11015   6.227   5.098   9.466
 7047W        W11016   5.137   1.678   1.368
 7048W        W11017   5.622  10.049   9.370
 7049W        W11018   6.550  11.390  10.488
 7050W        W11019   4.267   5.577   1.212
 7051W        W11020   8.990   0.834  11.815
 7052W        W11021   3.340   2.197   9.068
 7053W        W11022   9.905   6.225   8.920
 7054W        W11023   7.462   1.828  11.033
 7055W        W11024   3.807  11.321   9.873
 7056W        W11025  10.358   5.187  10.883
 7057W        W11026   7.479   1.233   1.828
 7058W        W11027   9.844   7.449   2.324
 7059W        W11028   5.578   8.400  11.829
 7060W        W11029   5.733  10.959   9.507
 7061W        W11030   6.019   4.197  10.041
 7062W        W11031   5.681  11.394  11.883
 7063W        W11032   8.493   0.754   0.734
 7064W        W11033   5.729   9.014   8.977
 7065W        W11034   9.572  11.340   9.891
 7066W        W11035   2.807   0.756   3.210
 7067W        W11036   4.759   9.487  10.490
 7068W        W11037   6.512   5.152  10.933
 7069W        W11038   4.668   3.184   2.264
 7070W        W11039   2.338   5.225   9.961
 7071W        W11040  11.476   6.617   1.831
 7072W        W11041   2.800   1.698   2.214
 7073W        W11042   3.678   6.059  10.345
 7074W        W11043  11.489   7.656  10.045
 7075W        W11044   4.740  11.341   3.262
 7076W        W11045  10.488   2.304   1.245
 7077W        W11046   9.501   0.331   9.004
 7078W        W11047   8.424   0.751   9.893
 7079W        W11048   4.190  10.429   3.713
 7080W        W11049   1.361   4.630  11.805
 7081W        W11050   5.265   7.102   9.913
 7082W        W11051   6.535  11.450   0.823
 7083W        W11052   2.865   1.294  11.861
 7084W        W11053  10.384   9.358   8.522
 7085W        W11054   8.920   2.663   8.935
 7086W        W11055   1.745  11.496   9.038
 7087W        W11056   7.651   0.726   8.997
 7088W        W11057   3.806   2.770  11.920
 7089W        W11058   7.101   4.153   9.364
 7090W        W11059   2.842   2.857  10.057
 7091W        W11060   0.277   4.300  10.021
 7092W        W11061  10.346   1.907   0.766
 7093W        W11062   1.686  10.884   3.141
 7094W        W11063   9.024   4.092  10.928
 7095W        W11064   2.274   6.190   3.175
 7096W        W11065   2.637  11.385   1.739
 7097W        W11066  10.423   5.664   0.363
 7098W        W11067  10.791   1.304   1.356
 7099W        W11068   9.901   1.239   0.292
 7100W        W11069   0.814   7.096   0.316
 7101W        W11070   0.894   5.044   2.736
 7102W        W11071   7.138   7.068  10.552
 7103W        W11072  11.275   0.917   0.891
 7104W        W11073   2.800  11.436   0.343
 7105W        W11074   5.721   6.641   2.333
 7106W        W11075   1.806   0.921  11.481
 7107W        W11076   4.110   8.399  11.312
 7108W        W11077   7.496   2.162   0.405
 7109W        W11078   0.749   4.791   0.363
 7110W        W11079   1.384  10.024   9.105
 7111W        W11080   8.486   2.774   8.907
 7112W        W11081   6.472   8.889   3.312
 7113W        W11082   4.294   5.667   0.954
 7114W        W11083   6.188   3.751  10.836
 7115W        W11084   5.518   6.092   0.829
 7116W        W11085   5.060   3.733   8.543
 7117W        W11086   6.127  10.057   9.564
 7118W        W11087   6.587  10.802   1.871
 7119W        W11088  11.361   1.851   2.801
 7120W        W11089   7.633   2.790   0.407
 7121W        W11090   0.406   7.932   2.223
 7122W        W11091   9.058   4.659   9.061
 7123W        W11092   1.383  10.930   9.091
 7124W        W11093   7.934   0.243   2.346
 7125W        W11094   3.142   9.077   0.436
 7126W        W11095   7.966   3.712   0.770
 7127W        W11096   5.059   9.915  10.017
 7128W        W11097   8.945   0.796   1.776
 7129W        W11098   9.836  10.880   2.839
 7130W        W11099   5.715   1.416   3.207
 7131W        W11100   5.996   8.918  11.380
 7132W        W11101   5.544   4.650   2.391
 7133W        W11102   8.614   0.800   0.307
 7134W        W11103   8.051   5.681   3.746
 7135W        W11104   0.768   0.892   9.064
 7136W        W11105   2.729   4.295  11.921
 7137W        W11106  11.331   6.175   2.649
 7138W        W11107   7.443   8.033   1.245
 7139W        W11108   5.260   0.474  10.385
 7140W        W11109   5.700   6.534   8.893
 7141W        W11110   8.041   8.043   2.183
 7142W        W11111   9.049  10.427  10.459
 7143W        W11112   7.917  10.799  11.928
 7144W        W11113  10.790   0.304   0.438
 7145W        W11114   3.636   4.182  10.479
 7146W        W11115  10.356   1.305   0.815
 7147W        W11116  10.035   6.685  10.332
 7148W        W11117   4.179   2.695   3.311
 7149W        W11118   6.579   1.688   9.084
 7150W        W11119   5.651   8.137   9.453
 7151W        W11120   3.241   9.559   1.864
 7152W        W11121   7.537  11.384   1.217
 7153W        W11122   1.824   8.518   3.143
 7154W        W11123   7.439   8.455  11.887
 7155W        W11124   7.011  10.441  11.507
 7156W        W11125   0.864   8.395  10.889
 7157W        W11126   5.627  11.309   0.456
 7158W        W11127   6.703   6.600  11.839
 7159W        W11128   9.835   8.397   3.788
 7160W        W11129   5.698   8.942   0.935
 7161W        W11130  10.529   5.548   0.897
 7162W        W11131   8.882  10.487   3.293
 7163W        W11132   8.022  10.906   9.512
 7164W        W11133   6.517  10.843   9.363
 7165W        W11134   2.276   7.058  10.430
 7166W        W11135  10.843   0.277  11.936
 7167W        W11136   6.577   9.092  10.840
 7168W        W11137   4.122   2.674   1.811
 7169W        W11138   7.976   9.993   1.297
 7170W        W11139   5.101   4.281   2.239
 7171W        W11140   0.926   4.297   1.848
 7172W        W11141   7.178   2.682   9.864
 7173W        W11142   2.686   5.043  10.514
 7174W        W11143   8.482   0.436  11.817
 7175W        W11144   7.507   9.069   9.416
 7176W        W11145   3.707   5.535   0.320
 7177W        W11146  10.459   6.130   3.247
 7178W        W11147  11.443  10.910   1.299
 7179W        W11148   4.674   0.364  10.066
 7180W        W11149   6.162   3.301   8.516
 7181W        W11150   8.477  10.421   0.764
 7182W        W11151   4.789   4.242   0.450
 7183W        W11152  11.384   1.728   1.308
 7184W        W11153  10.909   7.065   2.745
 7185W        W11154   5.556   9.399   9.075
 7186W        W11155   1.326   8.884   0.406
 7187W        W11156   9.542   0.291  10.421
 7188W        W11157   2.818   7.172  11.370
 7189W        W11158   2.689  10.894  11.930
 7190W        W11159   2.178   7.520   9.468
 7191W        W11160   1.771   9.583   0.877
 7192W        W11161   0.829   9.840  10.954
 7193W        W11162   9.949   2.853  11.905
 7194W        W11163   2.295   1.372   9.374
 7195W        W11164   8.391   3.200   1.797
 7196W        W11165   0.394  10.368   2.790
 7197W        W11166  11.294   8.613   2.230
 7198W        W11167   8.508   7.053   9.490
 7199W        W11168   5.032   1.685   2.740
 7200W        W11169   9.853   6.031   3.214
 7201W        W11170   7.959   6.978   3.244
 7202W        W11171   7.049   6.700   8.523
 7203W        W11172   1.913   6.548   0.952
 7204W        W11173   6.578   1.909  10.920
 7205W        W11174   2.730   5.674  10.938
 7206W        W11175   6.168  11.420  10.908
 7207W        W11176   1.269   5.724  10.034
 7208W        W11177   1.262   8.895  10.064
 7209W        W11178   5.037   2.827   0.955
 7210W        W11179   0.790   6.503  11.426
 7211W        W11180   8.580   1.394   1.876
 7212W        W11181   7.965   7.566   2.364
 7213W        W11182   2.713   2.682   3.266
 7214W        W11183   5.733   1.430  11.814
 7215W        W11184   1.754   7.519  11.403
 7216W        W11185   8.500   0.855  11.292
 7217W        W11186   0.327   6.588  10.529
 7218W        W11187   1.801  10.930   1.305
 7219W        W11188   0.414  11.011  10.421
 7220W        W11189   4.270   4.605   9.464
 7221W        W11190  10.888   8.945  11.860
 7222W        W11191   5.092   5.628  11.840
 7223W        W11192   9.909   5.194   2.880
 7224W        W11193   6.690   9.516   8.507
 7225W        W11194   9.948   1.775   9.906
 7226W        W11195   4.655   5.652   0.450
 7227W        W11196   1.429   8.492  10.077
 7228W        W11197   8.508  11.352   9.489
 7229W        W11198   3.193   0.876   9.862
 7230W        W11199   8.605   6.070   8.109
 7231W        W11200   3.689   4.179   8.921
 7232W        W11201   2.276   9.986  10.819
 7233W        W11202   1.840   5.056   9.493
 7234W        W11203   7.930   6.006  10.367
 7235W        W11204   6.976   0.949   2.325
 7236W        W11205   5.135   0.842   2.861
 7237W        W11206   4.683   3.206   0.851
 7238W        W11207   3.215  11.449  11.433
 7239W        W11208   8.106  11.275  11.300
 7240W        W11209   4.659   0.343   8.500
 7241W        W11210   8.434   7.644   0.272
 7242W        W11211  10.350   2.639   1.346
 7243W        W11212   8.535   1.375  11.349
 7244W        W11213   5.572  11.341   3.135
 7245W        W11214   4.738   0.922   3.258
 7246W        W11215   9.930   8.510   9.380
 7247W        W11216   4.162   1.879   8.950
 7248W        W11217   5.051   8.053   1.413
 7249W        W11218   3.293  10.890   2.226
 7250W        W11219   5.072   9.006   1.399
 7251W        W11220   6.660  10.977  11.988
 7252W        W11221   1.815   8.888  10.892
 7253W        W11222  11.302   1.795  11.906
 7254W        W11223   2.717   5.617   1.219
 7255W        W11224   8.595   4.121   0.457
 7256W        W11225   3.228   5.151   1.415
 7257W        W11226   7.047   4.614  11.290
 7258W        W11227  10.943   2.821   0.872
 7259W        W11228   6.680  11.413   2.729
 7260W        W11229   5.100   3.196  10.886
 7261W        W11230   9.468  10.905   0.451
 7262W        W11231   3.741   8.101  10.496
 7263W        W11232   7.176   7.006  11.919
 7264W        W11233   1.390   8.601   9.098
 7265W        W11234   3.760   1.694   1.360
 7266W        W11235   1.228   6.597  11.850
 7267W        W11236   5.069   1.396   0.723
 7268W        W11237   4.621   9.083   1.832
 7269W        W11238   3.290   8.884   8.534
 7270W        W11239   1.377   4.679   0.430
 7271W        W11240   7.117   8.504  10.844
 7272W        W11241   0.724   1.385  10.381
 7273W        W11242   2.839   8.546   1.256
 7274W        W11243   7.177   1.682  10.478
 7275W        W11244   5.218  10.934   0.338
 7276W        W11245   2.714   2.337   2.297
 7277W        W11246  10.784   4.247   2.771
 7278W        W11247   4.768   6.026   1.781
 7279W        W11248   9.003   3.704   1.213
 7280W        W11249   5.696   3.321   2.792
 7281W        W11250   1.836   5.538   9.467
 7282W        W11251   4.682   2.267   2.663
 7283W        W11252   6.142   3.247   9.076
 7284W        W11253   6.588   5.708   1.781
 7285W        W11254   3.638  11.479  10.938
 7286W        W11255   3.308   7.152  10.533
 7287W        W11256   3.828   2.759  10.411
 7288W        W11257  11.302   4.249   9.457
 7289W        W11258   9.523   5.063   0.262
 7290W        W11259   6.684   5.697  11.337
 7291W        W11260   8.622   6.507   8.466
 7292W        W11261   0.846   1.284   9.888
 7293W        W11262   4.136   4.597  10.892
 7294W        W11263   0.920   7.959   3.252
 7295W        W11264   4.287   2.714  11.967
 7296W        W11265   5.711   7.589   8.982
 7297W        W11266   8.020   3.674   9.503
 7298W        W11267   0.412   4.723  11.899
 7299W        W11268   0.923   8.971  10.443
 7300W        W11269   7.139   0.900   2.682
 7301W        W11270   0.447   7.648  10.073
 7302W        W11271   3.594   2.204  11.342
 7303W        W11272   7.104  11.399   2.360
 7304W        W11273   9.024   3.119   2.652
 7305W        W11274   4.095   1.866   9.423
 7306W        W11275   9.371   2.253   9.567
 7307W        W11276   5.094   6.511   8.901
 7308W        W11277   6.206   6.044   9.377
 7309W        W11278   0.419   6.657  11.875
 7310W        W11279   2.384   0.306   0.739
 7311W        W11280   5.534  10.519  10.885
 7312W        W11281   5.195  11.418   3.218
 7313W        W11282   2.335   1.724   3.351
 7314W        W11283   0.865  11.293  11.928
 7315W        W11284   8.066  10.896   2.730
 7316W        W11285   8.977   1.433   0.834
 7317W        W11286   0.309   9.865   0.408
 7318W        W11287   7.014   7.578   9.444
 7319W        W11288  11.289   5.173  11.966
 7320W        W11289   4.706   6.175  11.398
 7321W        W11290   3.779  11.007  11.908
 7322W        W11291   4.582   7.603  10.013
 7323W        W11292   8.460   9.499   3.747
 7324W        W11293   3.691   1.299   9.921
 7325W        W11294   2.700   9.884   1.886
 7326W        W11295   2.351   5.089  10.357
 7327W        W11296   1.913   3.668  11.414
 7328W        W11297   8.559   8.929   9.411
 7329W        W11298   6.558   7.099   1.858
 7330W        W11299   2.686   0.936  10.024
 7331W        W11300   2.778   1.791   2.800
 7332W        W11301   0.263  11.313   1.795
 7333W        W11302   4.168   3.832  10.340
 7334W        W11303   3.803   6.061   7.982
 7335W        W11304   3.286   4.726  10.025
 7336W        W11305   0.376   6.508   0.828
 7337W        W11306   0.820   3.204  10.913
 7338W        W11307   8.621   9.015  10.962
 7339W        W11308   1.680   9.046  11.777
 7340W        W11309   8.590   1.242   1.225
 7341W        W11310   2.753   5.691   8.913
 7342W        W11311   7.627   0.384   2.785
 7343W        W11312   2.770   8.870  10.046
 7344W        W11313   4.567   2.278  11.458
 7345W        W11314  10.856   2.707   2.305
 7346W        W11315   3.248  10.471   0.439
 7347W        W11316   6.041   5.660  11.843
 7348W        W11317   7.440   8.049  11.037
 7349W        W11318   8.984   8.436   0.874
 7350W        W11319   7.965   6.575   1.279
 7351W        W11320   9.935   0.442   9.409
 7352W        W11321   9.954   8.106   3.158
 7353W        W11322   5.185   8.461  11.848
 7354W        W11323   1.894   2.666   8.940
 7355W        W11324  10.321   8.871   2.728
 7356W        W11325   3.684   4.090   8.419
 7357W        W11326  10.521   2.222  11.485
 7358W        W11327   6.192  10.493   9.566
 7359W        W11328   2.248   3.769   8.921
 7360W        W11329   3.607   9.885   0.289
 7361W        W11330   4.130   0.287   2.273
 7362W        W11331  10.342   1.845   1.890
 7363W        W11332  10.802   2.377   2.245
 7364W        W11333   1.809   7.557   9.561
 7365W        W11334   0.361   0.419   1.429
 7366W        W11335   8.926   2.786  11.317
 7367W        W11336  10.967   6.200   9.498
 7368W        W11337   2.348   6.634   1.793
 7369W        W11338  10.515   8.067   3.229
 7370W        W11339  10.990   4.557  11.791
 7371W        W11340   6.640   5.730   1.286
 7372W        W11341   0.753   2.792  10.346
 7373W        W11342   2.840   9.917  10.067
 7374W        W11343  11.401   9.542   9.040
 7375W        W11344   8.888   2.742   3.209
 7376W        W11345   0.863   2.873  10.826
 7377W        W11346   7.476  11.469   2.204
 7378W        W11347   5.701   4.086   4.173
 7379W        W11348   0.833  11.299   0.324
 7380W        W11349   1.362   4.306   0.942
 7381W        W11350   8.488   0.730   9.555
 7382W        W11351  10.931   1.722   3.653
 7383W        W11352   3.794   1.266   1.879
 7384W        W11353   2.320   9.372  11.385
 7385W        W11354   7.035   1.904  11.356
 7386W        W11355   1.842   7.913   0.957
 7387W        W11356   9.065  11.014   1.204
 7388W        W11357  10.005  11.007  11.419
 7389W        W11358   1.222   4.184  11.020
 7390W        W11359   4.232   4.779   1.824
 7391W        W11360  10.540   8.532   1.908
 7392W        W11361   2.376   3.236   3.623
 7393W        W11362   6.649   1.301   3.178
 7394W        W11363   1.415  10.441   0.770
 7395W        W11364   5.601   8.386   0.732
 7396W        W11365   0.291  10.342  11.356
 7397W        W11366   5.116  10.788   1.910
 7398W        W11367   0.887   7.654   1.264
 7399W        W11368   1.903   5.260   1.288
 7400W        W11369   0.369   2.663   0.946
 7401W        W11370   5.685   4.784   3.149
 7402W        W11371   4.737   3.284   8.924
 7403W        W11372   9.909   4.233   0.890
 7404W        W11373   3.771   8.559  11.937
 7405W        W11374   4.113  10.469   1.702
 7406W        W11375   8.865   2.205  11.317
 7407W        W11376   6.206   9.425   0.269
 7408W        W11377   0.308   5.258   0.915
 7409W        W11378   5.635   2.725  10.365
 7410W        W11379   0.406  10.973  10.858
 7411W        W11380   0.388   2.203   9.861
 7412W        W11381   0.363   6.652   1.844
 7413W        W11382  10.473   1.793   8.958
 7414W        W11383   7.023   6.214  11.511
 7415W        W11384   8.907   0.268   1.219
 7416W        W11385   2.778   6.185   0.272
 7417W        W11386  11.299  10.474   0.395
 7418W        W11387   9.079   2.219   2.245
 7419W        W11388   1.290   7.921   2.163
 7420W        W11389   3.295   5.071  11.877
 7421W        W11390   6.639   4.585  10.481
 7422W        W11391   9.403   0.321  11.973
 7423W        W11392   1.743   8.945   9.435
 7424W        W11393   3.159   1.682   8.405
 7425W        W11394   9.963   0.902   0.860
 7426W        W11395  10.053   2.309   0.805
 7427W        W11396   0.857  11.370   9.408
 7428W        W11397   8.603   6.220   8.486
 7429W        W11398   8.093   4.178   9.922
 7430W        W11399   8.946   9.943  11.857
 7431W        W11400   7.156   0.813  10.010
 7432W        W11401   8.106   4.614  10.346
 7433W        W11402   9.576   2.823   9.084
 7434W        W11403  10.443   0.870   2.237
 7435W        W11404  11.402   6.198   9.513
 7436W        W11405   5.738   2.197   1.312
 7437W        W11406   6.493   0.350   2.320
 7438W        W11407   8.617   7.928   9.520
 7439W        W11408   7.975   7.028  11.953
 7440W        W11409   7.926  11.410   1.401
 7441W        W11410   2.853   5.182   0.810
 7442W        W11411   5.066   6.994   9.364
 7443W        W11412   4.644   4.737   1.893
 7444W        W11413   1.790   2.371   0.890
 7445W        W11414   0.403   5.697  10.421
 7446W        W11415   2.668   3.745   0.461
 7447W        W11416   5.039   1.788   9.077
 7448W        W11417  10.790   7.125   9.948
 7449W        W11418   2.267   0.398   0.350
 7450W        W11419   4.266   4.787  10.524
 7451W        W11420   1.899   5.641   0.828
 7452W        W11421   6.099   6.520  10.838
 7453W        W11422   9.018   9.516   0.749
 7454W        W11423   9.916   5.575   2.303
 7455W        W11424  10.344   7.561   0.801
 7456W        W11425   1.405  11.370  10.559
 7457W        W11426  10.861   9.573   0.850
 7458W        W11427   8.450   2.640   0.740
 7459W        W11428   4.248   9.957  11.493
 7460W        W11429   8.918   6.140  10.334
 7461W        W11430   8.428   4.278   0.869
 7462W        W11431   2.191   7.980   0.843
 7463W        W11432  11.278   3.632   3.274
 7464W        W11433   7.485  10.387   2.818
 7465W        W11434   9.036   8.452   2.375
 7466W        W11435   0.843   7.074   2.383
 7467W        W11436   7.665  11.376  11.769
 7468W        W11437  10.475   9.056   1.391
 7469W        W11438   3.679   7.040   1.785
 7470W        W11439   0.726   3.629   1.223
 7471W        W11440   3.614   0.842   9.931
 7472W        W11441   0.739   9.077   2.391
 7473W        W11442  11.391   8.496  10.972
 7474W        W11443   7.168   2.854   2.675
 7475W        W11444   8.599   8.391   1.394
 7476W        W11445   3.696   3.772   9.537
 7477W        W11446   4.562   5.572  10.850
 7478W        W11447   5.084   7.170   9.097
 7479W        W11448   7.473   0.424   2.164
 7480W        W11449   3.218   3.336   9.977
 7481W        W11450   9.874   0.460   2.663
 7482W        W11451   2.303   9.956   3.325
 7483W        W11452   8.049  10.386  10.507
 7484W        W11453   7.180   1.237   3.228
 7485W        W11454   1.286   0.464   1.221
 7486W        W11455   4.652   8.582   0.933
 7487W        W11456   5.561   2.722  11.500
 7488W        W11457   1.203   0.956   0.476
 7489W        W11458   6.674   7.941   1.819
 7490W        W11459   2.760   2.753   0.245
 7491W        W11460   9.432   1.839   9.503
 7492W        W11461   3.643   6.969  11.439
 7493W        W11462   0.723   6.009   9.471
 7494W        W11463  10.306   2.857  11.002
 7495W        W11464   3.772   3.196   8.947
 7496W        W11465   1.824   0.850   3.720
 7497W        W11466   5.594   7.428  11.817
 7498W        W11467  11.335   2.700   0.873
 7499W        W11468   6.690   6.527  10.352
 7500W        W11469   7.437  10.444  10.380
 7501W        W11470   6.086   5.165   1.312
 7502W        W11471   3.776   1.854  11.762
 7503W        W11472   1.890   3.759   0.438
 7504W        W11473   5.062   4.118   1.341
 7505W        W11474   3.192   4.674   1.805
 7506W        W11475   6.004   7.652   3.770
 7507W        W11476   7.624   4.732   9.592
 7508W        W11477   5.161   8.877   0.283
 7509W        W11478  10.972   5.717   1.758
 7510W        W11479   8.468   8.913   2.175
 7511W        W11480   9.368   3.689   1.325
 7512W        W11481   8.016   8.137  11.928
 7513W        W11482   2.336   7.616   1.436
 7514W        W11483   9.046   2.740   9.577
 7515W        W11484   2.319   9.856   8.891
 7516W        W11485   6.482   4.292   0.397
 7517W        W11486   8.921   0.780   0.340
 7518W        W11487   9.972  11.474   0.460
 7519W        W11488   6.110  10.535  11.402
 7520W        W11489   4.103   1.319   0.274
 7521W        W11490   9.953  10.378   9.379
 7522W        W11491   2.704   4.565   0.265
 7523W        W11492   8.611   2.646   1.374
 7524W        W11493   8.578   7.452   1.806
 7525W        W11494   3.810   8.054   3.159
 7526W        W11495  10.053   3.242   2.297
 7527W        W11496   0.405   5.136   8.928
 7528W        W11497   0.445   8.474   2.278
 7529W        W11498   9.346  10.306   1.899
 7530W        W11499  10.910   4.687   0.324
 7531W        W11500   2.234   3.204   0.330
 7532W        W11501   5.125   1.356  11.516
 7533W        W11502  10.319   2.326   3.283
 7534W        W11503   4.606  10.519  11.811
 7535W        W11504   5.662   4.744  10.511
 7536W        W11505   6.987   4.164   3.328
 7537W        W11506   4.202   4.658   9.921
 7538W        W11507   0.471   2.709   9.445
 7539W        W11508   9.566   5.730   2.693
 7540W        W11509   9.912   7.555   3.202
 7541W        W11510   1.780   8.614   8.619
 7542W        W11511   1.886   6.494   1.436
 7543W        W11512   4.241   6.082   1.202
 7544W        W11513   5.154   8.090  11.311
 7545W        W11514   2.259  11.289   9.979
 7546W        W11515   1.866   2.748  11.508
 7547W        W11516   8.418   1.693   1.855
 7548W        W11517   0.286   9.504   9.407
 7549W        W11518   9.892   6.138   0.354
 7550W        W11519   3.628   8.526  10.907
 7551W        W11520   6.119  10.825   0.257
 7552W        W11521  10.418   9.964   1.718
 7553W        W11522   7.478  11.286   1.718
 7554W        W11523   5.224   8.508  10.475
 7555W        W11524   8.007   3.815   0.468
 7556W        W11525   8.919   3.154  11.317
 7557W        W11526   7.585   5.519  10.886
 7558W        W11527   6.491   3.744  11.457
 7559W        W11528   8.132   0.350   9.360
 7560W        W11529   4.675   2.382   3.216
 7561W        W11530   9.960   6.204  10.934
 7562W        W11531   2.350   3.299   9.055
 7563W        W11532   8.463   5.177  10.077
 7564W        W11533  11.410   4.714   8.448
 7565W        W11534   8.608   8.512  10.920
 7566W        W11535   0.913   4.760   3.229
 7567W        W11536  10.311   5.710  11.494
 7568W        W11537   0.458   4.612   2.701
 7569W        W11538   0.314   8.574   2.812
 7570W        W11539   8.405  11.339   1.886
 7571W        W11540   9.032   5.228  11.411
 7572W        W11541   7.913   4.768  11.796
 7573W        W11542   7.562   7.012   3.328
 7574W        W11543   8.873   9.032   2.190
 7575W        W11544   5.149   4.103   8.986
 7576W        W11545   9.103   5.585   2.337
 7577W        W11546  11.280  10.037   1.858
 7578W        W11547   5.090  10.008  10.412
 7579W        W11548   4.734   7.140   1.251
 7580W        W11549   1.789   3.344  11.439
 7581W        W11550   0.766  10.316   9.940
 7582W        W11551   6.203   5.069   1.892
 7583W        W11552   2.271   1.234  11.933
 7584W        W11553   2.683   5.717  10.335
 7585W        W11554  10.996  10.449   3.162
 7586W        W11555   7.138   8.584   3.181
 7587W        W11556  11.429   0.371   0.459
 7588W        W11557   6.590   0.396   9.397
 7589W        W11558   3.732   2.687   1.807
 7590W        W11559   6.963   7.911   3.141
 7591W        W11560   9.849   0.942   8.628
 7592W        W11561   5.190   3.656  11.470
 7593W        W11562   6.600   0.937   1.264
 7594W        W11563   1.902   5.141   2.393
 7595W        W11564   4.627   6.504   1.754
 7596W        W11565   0.855   2.309   3.183
 7597W        W11566   2.849   6.685   9.508
 7598W        W11567   5.041   1.299  11.788
 7599W        W11568   7.134   5.576  11.893
 7600W        W11569   9.952   1.227   9.497
 7601W        W11570   0.826   2.368   2.204
 7602W        W11571   6.636   8.045   3.262
 7603W        W11572   5.074   3.705   4.317
 7604W        W11573   8.501   3.161  11.001
 7605W        W11574   9.581   7.553   0.296
 7606W        W11575   7.648  10.813   3.151
 7607W        W11576   6.672   6.024   1.360
 7608W        W11577   6.210   0.825  11.961
 7609W        W11578   8.073   3.240   0.244
 7610W        W11579   8.557   6.546   2.641
 7611W        W11580  11.298   2.255   1.873
 7612W        W11581   9.073   5.050   0.857
 7613W        W11582   5.515  10.883  11.397
 7614W        W11583   0.349   8.479  11.917
 7615W        W11584   9.499   8.534   0.276
 7616W        W11585   6.549   5.617   8.962
 7617W        W11586   5.531   7.497   8.588
 7618W        W11587   4.191   6.017  10.320
 7619W        W11588   5.181   3.216   3.765
 7620W        W11589   8.516   3.605   1.288
 7621W        W11590   8.534  10.025   2.282
 7622W        W11591   6.096  10.798  11.836
 7623W        W11592   4.181   9.060   0.265
 7624W        W11593   1.401  11.384   1.693
 7625W        W11594   1.716   3.190   8.578
 7626W        W11595   3.631   9.579   1.809
 7627W        W11596   3.142   4.093  10.333
 7628W        W11597   2.646   8.920   9.065
 7629W        W11598   4.279  11.484   9.363
 7630W        W11599   6.478   9.835  11.447
 7631W        W11600   4.675  11.449   2.370
 7632W        W11601   1.258   6.997   2.805
 7633W        W11602   7.574   9.515   1.888
 7634W        W11603   7.085  10.864  10.367
 7635W        W11604  10.513   0.380   2.327
 7636W        W11605  11.468   4.579   2.671
 7637W        W11606   5.623   6.223  11.413
 7638W        W11607   7.516   1.769   9.440
 7639W        W11608   7.912   3.313   1.240
 7640W        W11609   6.053   1.257   1.818
 7641W        W11610   5.111   0.762   0.820
 7642W        W11611   2.785   7.058   9.475
 7643W        W11612   3.259   5.641   3.148
 7644W        W11613   2.705  11.009  10.363
 7645W        W11614   6.203   2.675   9.409
 7646W        W11615   0.327   6.088   0.409
 7647W        W11616   5.094   8.583   9.942
 7648W        W11617   5.540   9.575   0.274
 7649W        W11618   8.142   7.528  10.931
 7650W        W11619   2.783   4.198   8.985
 7651W        W11620   8.593  11.327   0.819
 7652W        W11621   3.322   6.064   0.317
 7653W        W11622   2.211  10.376   1.773
 7654W        W11623   9.930   4.257  11.301
 7655W        W11624   6.620   8.433   3.168
 7656W        W11625  11.342   1.782  10.446
 7657W        W11626   0.903  10.914   2.382
 7658W        W11627   6.984  10.862  10.064
 7659W        W11628   6.688   4.127  10.038
 7660W        W11629  10.456   4.609  10.341
 7661W        W11630   7.951   4.592   2.650
 7662W        W11631   1.405   7.632   2.739
 7663W        W11632   9.964   4.166  10.373
 7664W        W11633   2.773   3.605  10.874
 7665W        W11634   0.345   5.037   1.299
 7666W        W11635   8.989   6.982  10.461
 7667W        W11636   8.930   3.144   9.376
 7668W        W11637   9.388   4.104  11.881
 7669W        W11638  11.361   4.295  11.873
 7670W        W11639   5.169   3.640   9.431
 7671W        W11640   4.197   2.208   0.766
 7672W        W11641   8.865   8.043   0.372
 7673W        W11642   3.311   5.069  10.876
 7674W        W11643   7.496   3.137   0.352
 7675W        W11644   2.166   7.545   1.812
 7676W        W11645   3.823   1.734   0.376
 7677W        W11646   4.264   6.592  10.814
 7678W        W11647   3.759   6.475   1.707
 7679W        W11648  10.505   9.377   2.321
 7680W        W11649   9.508   6.495  11.776
 7681W        W11650   6.208   4.270   3.222
 7682W        W11651   9.423   7.009   2.665
 7683W        W11652   0.312  10.319   0.477
 7684W        W11653   2.207   7.939   0.311
 7685W        W11654   8.960   6.630   8.624
 7686W        W11655  10.847   1.844  10.829
 7687W        W11656   2.849   3.314  11.489
 7688W        W11657   6.075  10.538   2.848
 7689W        W11658   2.280   8.071   2.833
 7690W        W11659   1.369   1.744   2.713
 7691W        W11660   2.871   6.084   9.082
 7692W        W11661  10.984   3.344   0.383
 7693W        W11662   9.569   4.734   2.794
 7694W        W11663  10.951   4.245   8.444
 7695W        W11664   2.748  11.316  10.821
 7696W        W11665   4.782   8.483   9.573
 7697W        W11666   1.814   6.618  11.433
 7698W        W11667   9.879   5.691   3.173
 7699W        W11668   6.706   2.693   0.248
 7700W        W11669   7.441   4.674  11.912
 7701W        W11670  10.002   3.753  10.352
 7702W        W11671   6.199  10.978   1.393
 7703W        W11672   8.922   5.078   9.382
 7704W        W11673   9.987   0.836   2.202
 7705W        W11674  11.314   9.947  11.985
 7706W        W11675   7.540   3.308   2.269
 7707W        W11676   8.881   7.980   1.720
 7708W        W11677   8.440   8.550   9.106
 7709W        W11678   6.974   9.926   0.948
 7710W        W11679  10.416   4.093  11.882
 7711W        W11680   3.301   2.677  10.984
 7712W        W11681  10.892   9.838   9.039
 7713W        W11682   3.792  11.379   9.003
 7714W        W11683   8.426   5.151  11.352
 7715W        W11684   3.310   7.446   1.429
 7716W        W11685   5.222   9.008   2.310
 7717W        W11686   9.401   9.428   9.413
 7718W        W11687   2.648   9.056  10.924
 7719W        W11688   4.125   4.632  11.485
 7720W        W11689  11.368   7.068   3.833
 7721W        W11690   2.701   2.331   8.919
 7722W        W11691   0.333   0.404  11.365
 7723W        W11692  11.294   3.260   9.379
 7724W        W11693   5.585   2.355   9.087
 7725W        W11694  10.370   7.456  10.967
 7726W        W11695   1.303  10.950   1.727
 7727W        W11696   7.484   3.820   9.410
 7728W        W11697  10.931  10.863   3.294
 7729W        W11698   6.176   0.754   1.431
 7730W        W11699  11.378  10.001  10.363
 7731W        W11700   5.243   4.284   2.752
 7732W        W11701   6.605   0.745   0.948
 7733W        W11702   9.356   0.257  10.844
 7734W        W11703   6.010   1.837   1.316
 7735W        W11704   3.274   4.780   2.814
 7736W        W11705   7.607   7.475  11.365
 7737W        W11706  10.822  10.838   9.544
 7738W        W11707   4.245   9.098   9.900
 7739W        W11708   5.573   3.180  10.553
 7740W        W11709   4.294   1.786   1.273
 7741W        W11710  11.396   1.832   0.796
 7742W        W11711   1.298   8.927   3.207
 7743W        W11712   8.948   4.573  10.035
 7744W        W11713   0.445   8.122   0.465
 7745W        W11714   7.539   5.713   1.210
 7746W        W11715   5.207   7.513   2.843
 7747W        W11716   3.747   8.063  11.974
 7748W        W11717   3.146   5.220  10.434
 7749W        W11718   4.776   3.652   1.899
 7750W        W11719   0.266   3.677   3.306
 7751W        W11720   5.538   4.246   1.894
 7752W        W11721   5.699   7.648   0.443
 7753W        W11722   7.146  10.918   9.579
 7754W        W11723   1.879   8.563  11.950
 7755W        W11724  10.473   8.529   8.535
 7756W        W11725   8.401   5.034   9.559
 7757W        W11726   6.966   6.199  11.763
 7758W        W11727   6.064   4.727   2.233
 7759W        W11728   7.156   3.274  11.427
 7760W        W11729   0.303   0.338   9.527
 7761W        W11730   7.932   5.132   8.114
 7762W        W11731   3.197   7.646  11.509
 7763W        W11732   5.135   0.728  10.324
 7764W        W11733   1.692   5.604  10.377
 7765W        W11734   8.903   5.177   8.923
 7766W        W11735  11.473  10.865   2.747
 7767W        W11736   4.306   8.024   2.771
 7768W        W11737   1.419   3.740   0.810
 7769W        W11738   8.002  10.794  10.863
 7770W        W11739   5.525   5.135   3.267
 7771W        W11740   1.276   7.145   8.989
 7772W        W11741  10.042   6.007   9.492
 7773W        W11742   7.068   4.666   8.409
 7774W        W11743   5.746   3.268   8.628
 7775W        W11744   0.887   2.393   3.824
 7776W        W11745   5.076   1.246   3.339
 7777W        W11746   6.665   4.300   2.242
 7778W        W11747   8.583   3.252   0.723
 7779W        W11748   3.130   9.431   3.212
 7780W        W11749   8.593   4.790   3.166
 7781W        W11750   4.275   3.627   2.665
 7782W        W11751  10.795  10.384  10.462
 7783W        W11752   8.053   9.888  10.959
 7784W        W11753   2.375  10.366   0.333
 7785W        W11754   7.943   8.888   0.308
 7786W        W11755   4.183   3.771   9.946
 7787W        W11756   1.356   7.518  10.555
 7788W        W11757   2.785   0.391   1.334
 7789W        W11758   9.992   5.144  11.438
 7790W        W11759   6.065  11.357   9.846
 7791W        W11760   7.650   2.185   9.381
 7792W        W11761   7.106   0.771   1.860
 7793W        W11762  11.308  11.009  10.887
 7794W        W11763   5.705  11.456   2.796
 7795W        W11764   5.229   5.055   1.311
 7796W        W11765   6.029   2.758  11.912
 7797W        W11766   0.449  11.483  10.487
 7798W        W11767   3.186   0.720  10.383
 7799W        W11768   7.175  10.826   1.389
 7800W        W11769   4.302   4.181  11.827
 7801W        W11770  11.322   9.353   9.904
 7802W        W11771   0.300   8.533   0.470
 7803W        W11772   2.363   2.860   0.248
 7804W        W11773   4.700   2.339  10.407
 7805W        W11774   0.401   4.254   2.267
 7806W        W11775   6.987   8.021   2.692
 7807W        W11776   5.662  10.041   2.864
 7808W        W11777   6.577   1.758   9.386
 7809W        W11778   1.222  10.897   9.915
 7810W        W11779   1.232   2.193   2.219
 7811W        W11780   0.813   6.045   9.885
 7812W        W11781  10.820   3.718  11.353
 7813W        W11782   4.610   8.929   3.234
 7814W        W11783   6.649   2.387   3.661
 7815W        W11784  10.861   1.326   0.948
 7816W        W11785   6.575   3.341   0.953
 7817W        W11786   5.524   7.606  10.052
 7818W        W11787   4.180   8.615   0.253
 7819W        W11788   2.299  10.345  10.453
 7820W        W11789  10.417   3.303   1.327
 7821W        W11790   0.863   2.698  11.804
 7822W        W11791  10.316   5.590   3.350
 7823W        W11792   5.252   5.529  10.018
 7824W        W11793  10.014   3.130  10.063
 7825W        W11794   5.171   2.214   9.064
 7826W        W11795   0.304   0.745   9.050
 7827W        W11796  10.050   6.555   8.992
 7828W        W11797  11.280   6.590   9.527
 7829W        W11798   2.696   4.730   3.121
 7830W        W11799   9.915   0.749   1.215
 7831W        W11800   6.977   7.911   8.996
 7832W        W11801   2.647   3.776   3.350
 7833W        W11802   2.299   9.557   0.739
 7834W        W11803   0.251   4.199  10.427
 7835W        W11804   0.466  11.267   3.266
 7836W        W11805   0.849   2.654   3.239
 7837W        W11806   5.237   0.745   1.688
 7838W        W11807   7.952  10.503   2.872
 7839W        W11808   5.052   7.577   1.823
 7840W        W11809  10.399  10.879   9.955
 7841W        W11810   1.813   0.399   0.272
 7842W        W11811   5.174   7.586  11.906
 7843W        W11812  10.975   9.055   8.440
 7844W        W11813   1.260   4.722   1.702
 7845W        W11814   8.398   4.737   9.935
 7846W        W11815   1.716   5.226  11.998
 7847W        W11816  10.944   5.682   2.770
 7848W        W11817   8.625  11.490  10.989
 7849W        W11818   2.281   0.252   2.398
 7850W        W11819   9.926   8.462  11.034
 7851W        W11820   8.413   7.515   0.942
 7852W        W11821   5.707   9.099   1.838
 7853W        W11822  10.411   6.106   1.806
 7854W        W11823   9.845   8.885  10.380
 7855W        W11824   0.361   3.781  10.440
 7856W        W11825   0.258   6.535   0.456
 7857W        W11826   5.722   0.252   2.291
 7858W        W11827  10.808   7.444   9.959
 7859W        W11828   4.648   2.658   2.378
 7860W        W11829   2.186   6.622   0.813
 7861W        W11830   5.712   8.105  10.320
 7862W        W11831   1.705   3.213   1.394
 7863W        W11832   7.073   2.233   3.788
 7864W        W11833   3.155   1.735   1.860
 7865W        W11834   6.103   3.671   3.665
 7866W        W11835   1.739   8.536  10.960
 7867W        W11836   4.216   5.611  11.516
 7868W        W11837   2.358   1.268   2.315
 7869W        W11838   8.044   1.396   9.591
 7870W        W11839  10.974   8.865   9.910
 7871W        W11840  10.384  10.383   9.894
 7872W        W11841  10.929   3.729   9.396
 7873W        W11842  11.322   3.748   9.030
 7874W        W11843   2.656   7.542   0.893
 7875W        W11844   7.485   8.138   2.777
 7876W        W11845   3.127  11.405   2.864
 7877W        W11846   0.413   7.174   0.727
 7878W        W11847   0.757   0.318   0.922
 7879W        W11848   9.387  10.371   9.915
 7880W        W11849   8.582   3.722   2.657
 7881W        W11850   0.392   8.101  10.419
 7882W        W11851   5.699   9.426  11.353
 7883W        W11852   3.149   1.751  11.917
 7884W        W11853   9.579   9.872   0.244
 7885W        W11854   3.657   6.600  10.526
 7886W        W11855   7.108   4.182   8.997
 7887W        W11856   1.381   5.564  11.987
 7888W        W11857   5.702   0.350  11.355
 7889W        W11858   9.400  10.959   1.690
 7890W        W11859   5.164   2.851   9.592
 7891W        W11860   8.556   8.520  10.071
 7892W        W11861   7.592   4.642   3.814
 7893W        W11862   1.365   2.659   1.351
 7894W        W11863  10.445  11.011  11.504
 7895W        W11864  10.517  11.500   8.892
 7896W        W11865   7.971   7.656   9.467
 7897W        W11866  11.449   1.877   0.269
 7898W        W11867   8.127   5.589   1.299
 7899W        W11868   9.416   7.558   2.748
 7900W        W11869   5.517  11.280   0.755
 7901W        W11870   7.458   4.776  11.324
 7902W        W11871   7.613   2.831  11.329
 7903W        W11872   3.647   9.062   3.810
 7904W        W11873   4.737   2.825   9.556
 7905W        W11874   8.949   3.679   0.356
 7906W        W11875   0.731   4.708  11.967
 7907W        W11876   6.165   1.323   3.221
 7908W        W11877  10.500   2.221   0.778
 7909W        W11878  10.037  10.373   3.182
 7910W        W11879   0.784  11.332  10.064
 7911W        W11880   4.719   4.301   2.176
 7912W        W11881  10.497   9.392   0.251
 7913W        W11882   7.971   6.032   3.632
 7914W        W11883   6.697   8.888   2.867
 7915W        W11884   1.384  11.272   1.223
 7916W        W11885   5.157   5.145  10.516
 7917W        W11886  11.492   1.378   2.322
 7918W        W11887   8.444   7.644  10.493
 7919W        W11888   3.192   3.622  10.951
 7920W        W11889   0.776   5.648   8.616
 7921W        W11890   6.702   9.987   2.684
 7922W        W11891   0.248   8.094  10.919
 7923W        W11892   6.137   6.172   1.259
 7924W        W11893   8.508   4.225   8.930
 7925W        W11894   9.365   9.972   2.255
 7926W        W11895   8.560   5.536   9.892
 7927W        W11896   9.000   2.811  10.931
 7928W        W11897   7.970   5.185  10.967
 7929W        W11898  10.361   2.364   9.045
 7930W        W11899   2.644   1.725   9.928
 7931W        W11900   1.248   1.347  11.285
 7932W        W11901   3.738  10.789   9.066
 7933W        W11902   6.502   0.423   1.888
 7934W        W11903   7.173  10.431  10.912
 7935W        W11904   0.375   2.332  11.972
 7936W        W11905   8.084   7.031   0.431
 7937W        W11906   9.950   0.406   0.790
 7938W        W11907   7.096   6.956   3.175
 7939W        W11908   0.474   6.640  11.039
 7940W        W11909   4.270   6.627   9.044
 7941W        W11910   3.276   0.369   9.083
 7942W        W11911   8.615   5.579   3.341
 7943W        W11912  11.361   7.965   0.317
 7944W        W11913   2.258   3.290  10.004
 7945W        W11914   7.580   0.953   9.955
 7946W        W11915   8.868   1.384   1.721
 7947W        W11916  11.489   2.192  10.932
 7948W        W11917   5.602   6.539  10.929
 7949W        W11918   4.606   6.666  11.815
 7950W        W11919   5.540   9.013   1.352
 7951W        W11920   6.975   8.391  11.476
 7952W        W11921   0.781   4.259  10.382
 7953W        W11922   2.774   4.562   9.981
 7954W        W11923   8.516   0.860   3.606
 7955W        W11924   3.774   8.997  10.452
 7956W        W11925   8.938   0.247  10.017
 7957W        W11926   5.993   2.330   0.381
 7958W        W11927   2.204   6.535  10.436
 7959W        W11928   6.062  11.445  10.467
 7960W        W11929   0.380   9.961   9.413
 7961W        W11930   0.925   2.207   8.977
 7962W        W11931  11.364   3.621  10.902
 7963W        W11932   5.567   2.225   2.165
 7964W        W11933   6.057   3.207  11.023
 7965W        W11934   9.566   9.915  11.395
 7966W        W11935   9.919   8.478  11.348
 7967W        W11936   0.296   0.807   9.379
 7968W        W11937   4.715   9.062   2.236
 7969W        W11938   2.361   3.661  10.981
 7970W        W11939   7.912   0.907  10.500
 7971W        W11940  10.980  10.536  10.992
 7972W        W11941   0.250   9.946   1.904
 7973W        W11942   8.049   6.140   0.343
 7974W        W11943   3.223  10.310   8.910
 7975W        W11944  10.050   3.167   0.845
 7976W        W11945   3.290  11.018   9.399
 7977W        W11946   4.782   1.770   9.586
 7978W        W11947  11.001   5.661  10.949
 7979W        W11948   5.553   8.558   3.642
 7980W        W11949   0.370   2.727  11.019
 7981W        W11950   5.634   2.773   8.990
 7982W        W11951  10.368   0.873  11.495
 7983W        W11952  10.483   1.323   8.911
 7984W        W11953   8.071   5.116   1.913
 7985W        W11954   6.031   7.907  11.497
 7986W        W11955   7.438   9.396   9.939
 7987W        W11956   6.657   3.280   1.693
 7988W        W11957  10.974   3.807   3.312
 7989W        W11958   9.381   1.767   9.937
 7990W        W11959   8.986  11.451  11.017
 7991W        W11960   9.413   3.198   2.814
 7992W        W11961   4.301   9.512   8.433
 7993W        W11962   4.186   1.914   0.465
 7994W        W11963  10.447  10.897  10.506
 7995W        W11964   7.480   7.638   2.792
 7996W        W11965   6.670   6.002  11.340
 7997W        W11966   7.462   6.979   9.878
 7998W        W11967   3.595   6.599   1.211
 7999W        W11968  10.955   7.474   9.574
 8000W        W11969   8.519   2.682  11.360
 8001W        W11970   8.939  11.286   8.906
 8002W        W11971  10.463   4.602  11.442
 8003W        W11972   5.240   3.248   3.198
 8004W        W11973   9.081  11.424   1.700
 8005W        W11974   4.149   6.968   1.685
 8006W        W11975   9.836   6.110  11.456
 8007W        W11976   4.094   0.894   3.201
 8008W        W11977   4.120   9.080  11.920
 8009W        W11978   3.731   9.973   0.773
 8010W        W11979  10.956   2.273   9.532
 8011W        W11980   9.438   8.523   9.059
 8012W        W11981   9.992   7.113  11.474
 8013W        W11982   5.195   9.901  10.996
 8014W        W11983   2.717   5.063   0.383
 8015W        W11984   9.545  10.349  10.837
 8016W        W11985   6.553   7.055   4.273
 8017W        W11986   6.029   8.476  10.855
 8018W        W11987   1.317   4.105   3.191
 8019W        W11988   1.680   0.906   2.676
 8020W        W11989   8.584   1.264  10.332
 8021W        W11990   4.106   6.134   2.279
 8022W        W11991   3.254   9.362  10.339
 8023W        W11992  10.786   4.239   2.189
 8024W        W11993   9.025   0.844   3.350
 8025W        W11994   9.829   5.134   8.911
 8026W        W11995   6.647   1.721   1.848
 8027W        W11996   8.895   1.271   2.801
 8028W        W11997   2.854   8.145   0.433
 8029W        W11998   1.384   7.029   0.910
 8030W        W11999   5.181  10.817   8.542
 8031W        W12000  11.315   5.617   0.342
 8032W        W12001   0.896   2.341  11.802
 8033W        W12002   5.511   8.061   8.099
 8034W        W12003   5.710   9.104   2.743
 8035W        W12004   9.566   7.030  11.419
 8036W        W12005   3.600   4.696   9.499
 8037W        W12006  10.990   5.073   9.482
 8038W        W12007  11.480   6.621   8.923
 8039W        W12008   8.883  10.848  11.488
 8040W        W12009  10.517  10.977   0.871
 8041W        W12010  10.398   6.210   9.983
 8042W        W12011  10.368   9.000   0.430
 8043W        W12012   6.680   7.637   3.714
 8044W        W12013   5.181  10.953   0.757
 8045W        W12014   2.243   4.159   0.841
 8046W        W12015   8.065   3.229   2.339
 8047W        W12016  10.037   2.360  11.784
 8048W        W12017   9.027   1.344  10.397
 8049W        W12018   8.980   0.244   9.100
 8050W        W12019   4.767   7.575   2.308
 8051W        W12020   3.190  10.784   2.746
 8052W        W12021   7.594   1.795   1.269
 8053W        W12022   5.608  11.289  11.304
 8054W        W12023   5.560   2.316  10.367
 8055W        W12024   9.860   7.048  10.382
 8056W        W12025   6.226   3.284   9.515
 8057W        W12026   8.943   7.599   2.166
 8058W        W12027   9.572   7.158   1.414
 8059W        W12028   2.341   0.422   2.773
 8060W        W12029   2.855   1.279   1.417
 8061W        W12030   2.376   4.686   9.372
 8062W        W12031   8.928   8.455   9.389
 8063W        W12032   4.156   4.312   3.146
 8064W        W12033   9.529  11.296  10.900
 8065W        W12034   8.090   4.718   9.963
 8066W        W12035   1.310   6.607  10.839
 8067W        W12036   7.992   4.705   0.251
 8068W        W12037   2.253   7.019   1.372
 8069W        W12038   0.930   2.360  10.371
 8070W        W12039   0.757   0.830   2.699
 8071W        W12040   6.199   1.866   0.754
 8072W        W12041   2.681   6.182   2.231
 8073W        W12042  10.331   5.733   2.206
 8074W        W12043   9.938  10.371   0.733
 8075W        W12044   7.559   8.617  11.454
 8076W        W12045   4.748   2.639   1.827
 8077W        W12046  11.371  11.490   1.824
 8078W        W12047   9.541   0.903   8.997
 8079W        W12048   9.026   0.424   0.729
 8080W        W12049   1.416   6.183   1.350
 8081W        W12050   2.356   8.922   9.390
 8082W        W12051  10.480   8.117   0.774
 8083W        W12052   9.362  11.309   0.414
 8084W        W12053   6.633  10.348   1.855
 8085W        W12054   0.472   4.182  11.315
 8086W        W12055  10.027   5.135   7.967
 8087W        W12056  11.281   0.733   9.435
 8088W        W12057   1.679   7.123  11.418
 8089W        W12058   8.558   5.227   1.815
 8090W        W12059  10.031   5.737   9.945
 8091W        W12060   2.395   5.702   1.875
 8092W        W12061   4.128   4.651   4.200
 8093W        W12062   0.925  10.015   1.727
 8094W        W12063   9.350   6.555   1.808
 8095W        W12064   8.069   4.236  10.963
 8096W        W12065   6.089   5.515   3.168
 8097W        W12066   9.994   9.019   1.347
 8098W        W12067   9.982   0.771  10.904
 8099W        W12068   2.310   6.034   9.859
 8100W        W12069   6.177  10.347  11.786
 8101W        W12070   7.557   7.014  10.330
 8102W        W12071   9.550   0.919   3.216
 8103W        W12072   6.512   2.287   9.999
 8104W        W12073   7.614  10.419   2.161
 8105W        W12074   8.953   8.934   9.520
 8106W        W12075   8.621   3.655   0.928
 8107W        W12076   3.827   6.165  11.002
 8108W        W12077   7.032   2.667   3.328
 8109W        W12078   7.960   9.481   1.300
 8110W        W12079   0.371  10.056   2.826
 8111W        W12080   8.042  10.363   3.203
 8112W        W12081   1.784   1.227  10.857
 8113W        W12082   1.802   0.755  10.412
 8114W        W12083   5.114   4.269   8.569
 8115W        W12084   9.042  10.506   2.756
 8116W        W12085   0.827   6.036   3.191
 8117W        W12086   7.556   8.997  11.911
 8118W        W12087   6.090   2.204   3.761
 8119W        W12088   4.214  10.053   9.961
 8120W        W12089  11.383   0.723   0.271
 8121W        W12090   1.864   6.065   1.762
 8122W        W12091   6.494   2.723  10.858
 8123W        W12092   1.819   0.906   1.252
 8124W        W12093   0.361   7.018  10.368
 8125W        W12094   0.851   9.921   2.673
 8126W        W12095   8.593   5.542   0.424
 8127W        W12096   0.803   5.032   0.839
 8128W        W12097   6.592  10.315   2.872
 8129W        W12098   1.773   5.267   3.710
 8130W        W12099  11.006   2.836   3.318
 8131W        W12100   8.002   4.140  10.534
 8132W        W12101   9.519   5.239   8.523
 8133W        W12102   1.215   4.236   9.070
 8134W        W12103   9.369   5.622   2.167
 8135W        W12104   6.007  11.437  11.829
 8136W        W12105   0.909   7.021   0.806
 8137W        W12106   6.101   1.215  11.909
 8138W        W12107   7.975   1.255  10.441
 8139W        W12108   4.773   1.335   0.270
 8140W        W12109   3.831   2.294  10.491
 8141W        W12110   7.177   3.203   1.355
 8142W        W12111  10.833   2.189   3.165
 8143W        W12112   1.302   0.379  11.844
 8144W        W12113   0.787   4.214   0.282
 8145W        W12114   7.656   3.179   9.984
 8146W        W12115   9.879   7.181   9.547
 8147W        W12116  10.309   3.688  10.320
 8148W        W12117   0.852   7.484   0.265
 8149W        W12118   6.967   0.409   1.726
 8150W        W12119  11.008   8.099   2.310
 8151W        W12120   5.137   4.586  10.065
 8152W        W12121   4.183   1.333  11.307
 8153W        W12122  10.306   1.827   9.896
 8154W        W12123   1.281   6.984   3.326
 8155W        W12124   9.985   4.695  11.801
 8156W        W12125   3.134  10.343  11.510
 8157W        W12126  11.373   3.687  11.810
 8158W        W12127   3.629   6.562   4.122
 8159W        W12128   8.532   4.735   0.442
 8160W        W12129   1.794   1.716  11.395
 8161W        W12130  11.487  11.459   0.459
 8162W        W12131   1.404   3.252  11.017
 8163W        W12132   8.091   0.722  11.778
 8164W        W12133   9.379   7.554   9.533
 8165W        W12134   9.370   4.272   2.160
 8166W        W12135   6.177   1.353   9.454
 8167W        W12136   8.985   6.963   0.761
 8168W        W12137   5.129   1.357  10.982
 8169W        W12138   7.967   4.232   8.977
 8170W        W12139   9.043   0.342  10.401
 8171W        W12140   1.788  10.412   9.952
 8172W        W12141   5.537  10.358  11.442
 8173W        W12142   9.094   7.626   0.250
 8174W        W12143   8.488   9.373   0.478
 8175W        W12144   8.976   1.703  10.427
 8176W        W12145   0.339   5.050  11.419
 8177W        W12146   6.652  10.927   2.698
 8178W        W12147   6.065   5.553   0.329
 8179W        W12148   2.292   1.399   1.428
 8180W        W12149   0.761   2.811   0.282
 8181W        W12150   6.099   3.671   9.901
 8182W        W12151   3.797   5.056   2.783
 8183W        W12152   9.533   2.377   9.031
 8184W        W12153  11.426   7.051   2.676
 8185W        W12154   7.516   0.274  11.018
 8186W        W12155   0.427   1.797   2.677
 8187W        W12156   8.939   1.874   3.149
 8188W        W12157   7.097   1.410   1.723
 8189W        W12158   8.555   6.112   2.346
 8190W        W12159   7.066   8.575  11.937
 8191W        W12160  10.505  10.422  10.492
 8192W        W12161   9.066  10.517  10.019
 8193W        W12162   1.300   5.100   1.302
 8194W        W12163   7.016   6.108  10.862
 8195W        W12164   7.115   4.262  10.534
 8196W        W12165   1.739   2.739  10.481
 8197W        W12166   4.658   2.766  10.048
 8198W        W12167   6.486   9.937  10.507
 8199W        W12168   2.387   0.247   9.955
 8200W        W12169   3.752  10.529   3.342
 8201W        W12170   3.304   9.356   0.729
 8202W        W12171  10.845   0.786  10.463
 8203W        W12172   0.323   5.170   1.758
 8204W        W12173   3.640   5.604  10.410
 8205W        W12174   1.697   5.656   3.333
 8206W        W12175   5.219   2.277  10.338
 8207W        W12176   0.275   8.992  10.992
 8208W        W12177   8.144   7.602  10.514
 8209W        W12178   5.675  11.285   1.720
 8210W        W12179   6.010   0.797   9.843
 8211W        W12180   2.247   1.343  10.819
 8212W        W12181   1.856   3.688  11.808
 8213W        W12182   4.705   9.927   0.371
 8214W        W12183   9.453   3.335  10.375
 8215W        W12184   3.758   6.127   1.361
 8216W        W12185   2.709  10.863   0.771
 8217W        W12186   2.814   7.449  10.988
 8218W        W12187   6.140   1.786   3.358
 8219W        W12188   6.514   1.819   8.484
 8220W        W12189   1.893  10.380   2.274
 8221W        W12190   9.419   9.912   3.212
 8222W        W12191  10.317   9.857   9.028
 8223W        W12192   5.733   2.314  11.767
 8224W        W12193   6.975  10.380   0.259
 8225W        W12194   3.214   4.249   3.136
 8226W        W12195  10.034  10.837   1.771
 8227W        W12196   7.534   0.384   1.861
 8228W        W12197   7.946   6.228  10.870
 8229W        W12198   4.276   7.915  11.910
 8230W        W12199   6.522  11.411   9.578
 8231W        W12200   3.225   5.726   9.938
 8232W        W12201   5.244  10.432   9.422
 8233W        W12202   5.648   8.082   0.859
 8234W        W12203   0.831   6.651  10.052
 8235W        W12204   2.755   7.570   9.090
 8236W        W12205   2.309  10.396  11.290
 8237W        W12206   1.307   2.272   9.854
 8238W        W12207   1.211   3.775  10.413
 8239W        W12208   3.644   5.129   9.902
 8240W        W12209   8.020   3.619  11.984
 8241W        W12210   5.576  10.929   2.759
 8242W        W12211   8.108   6.670  10.913
 8243W        W12212   6.502  11.284   9.877
 8244W        W12213   8.406   6.056   1.808
 8245W        W12214  10.814   3.138   8.620
 8246W        W12215  10.882   5.705   9.555
 8247W        W12216  10.413   3.150   1.692
 8248W        W12217   7.928   3.154   0.928
 8249W        W12218   5.118   7.073   0.944
 8250W        W12219   0.398   9.924   9.086
 8251W        W12220   5.087   0.433   2.652
 8252W        W12221   1.753   1.857   3.334
 8253W        W12222   6.141   4.635  11.348
 8254W        W12223   3.595   9.461  10.869
 8255W        W12224   1.218   5.041  11.452
 8256W        W12225   9.866  11.362   2.195
 8257W        W12226   5.182  10.925   9.438
 8258W        W12227   9.898   9.943   0.808
 8259W        W12228   7.661  10.939   1.887
 8260W        W12229   3.810   0.750   2.383
 8261W        W12230   4.246   9.576   1.737
 8262W        W12231   4.158  10.410   8.894
 8263W        W12232   5.704  11.472   1.313
 8264W        W12233   9.899   0.882   1.731
 8265W        W12234   1.247  11.353  11.904
 8266W        W12235  11.498  10.530   0.889
 8267W        W12236   2.212   5.569  11.479
 8268W        W12237  10.412   9.836   9.915
 8269W        W12238   0.950  10.848  10.904
 8270W        W12239  10.535   8.581   9.387
 8271W        W12240   4.274   3.290   1.212
 8272W        W12241   9.057   6.172  10.881
 8273W        W12242   9.524   4.687   8.627
 8274W        W12243  10.889   8.111   9.944
 8275W        W12244   8.907   4.277   8.100
 8276W        W12245   1.221   6.581   1.901
 8277W        W12246   6.030   8.546  10.010
 8278W        W12247   9.031   4.748   9.536
 8279W        W12248   7.988   2.727   9.530
 8280W        W12249   7.485   2.860   1.388
 8281W        W12250   3.242   1.280   1.410
 8282W        W12251   7.021   8.919   9.582
 8283W        W12252   0.878   9.031   8.945
 8284W        W12253   6.193   8.902   0.446
 8285W        W12254   1.378  10.877  10.865
 8286W        W12255   1.871   3.772   2.323
 8287W        W12256   4.693   3.326   3.337
 8288W        W12257  11.344   9.515   2.320
 8289W        W12258   2.793  11.400   0.844
 8290W        W12259   1.372   7.986   0.471
 8291W        W12260   6.972   3.687   2.851
 8292W        W12261   5.587   2.346   0.881
 8293W        W12262   9.851   4.210   9.594
 8294W        W12263   3.161   6.061  11.490
 8295W        W12264   4.211   2.160  10.917
 8296W        W12265   9.377   3.706   0.301
 8297W        W12266   7.615   6.964  11.382
 8298W        W12267   1.836   9.408   2.699
 8299W        W12268   2.842   7.928   8.586
 8300W        W12269   6.625   5.158  11.486
 8301W        W12270  10.881   8.939  11.461
 8302W        W12271   2.695   3.763   2.233
 8303W        W12272   5.128   9.566   0.856
 8304W        W12273   4.620   6.082   8.012
 8305W        W12274   9.956   3.160  11.461
 8306W        W12275   8.105   2.855   0.959
 8307W        W12276   9.418   9.582  11.369
 8308W        W12277  10.533   1.917   0.331
 8309W        W12278   9.510   3.650  10.476
 8310W        W12279   8.502   3.224  11.398
 8311W        W12280  10.884   1.834   1.430
 8312W        W12281   2.739   6.141  11.935
 8313W        W12282   4.230   8.925   2.325
 8314W        W12283   0.399   4.679   1.270
 8315W        W12284   0.783   7.611  11.952
 8316W        W12285   4.629   0.240   2.756
 8317W        W12286   9.072   6.016   1.386
 8318W        W12287   0.443  10.396   3.159
 8319W        W12288   0.913   2.840   9.058
 8320W        W12289   9.003   0.940   9.097
 8321W        W12290   5.198   8.414   2.220
 8322W        W12291  10.312   2.701   1.842
 8323W        W12292  10.447  10.466  11.990
 8324W        W12293   5.175   6.605   8.526
 8325W        W12294   1.202   9.381  10.361
 8326W        W12295   2.737   6.010   2.785
 8327W        W12296   6.534   4.217   1.788
 8328W        W12297   1.792   0.339  10.543
 8329W        W12298   9.399   4.591   1.896
 8330W        W12299   5.674   0.254   9.928
 8331W        W12300   7.149  11.371   0.791
 8332W        W12301   1.390   6.504  10.372
 8333W        W12302   6.149   2.235   9.061
 8334W        W12303   8.920   2.744  11.983
 8335W        W12304   4.099   8.585   1.395
 8336W        W12305  10.314   0.813   0.387
 8337W        W12306   3.244   0.756   3.728
 8338W        W12307   4.138   3.810  11.993
 8339W        W12308   3.763   4.138  11.326
 8340W        W12309   0.333  10.494  11.987
 8341W        W12310   8.591  11.344  11.766
 8342W        W12311   6.530   4.724   1.355
 8343W        W12312   2.270   0.433  11.011
 8344W        W12313  10.340   6.703   3.298
 8345W        W12314   1.254   5.175   0.342
 8346W        W12315  10.887   8.025   1.395
 8347W        W12316   2.736   0.884   2.684
 8348W        W12317   6.653   1.213   2.683
 8349W        W12318   5.565   7.451  10.332
 8350W        W12319   8.486   5.681  10.467
 8351W        W12320   9.427   9.092   9.596
 8352W        W12321   5.169   4.158   9.849
 8353W        W12322   4.126   0.940   0.799
 8354W        W12323  10.321   5.255  10.534
 8355W        W12324  10.468  11.459   0.432
 8356W        W12325   9.064   0.896  10.546
 8357W        W12326   2.331   6.179   0.802
 8358W        W12327   1.714   4.110  11.457
 8359W        W12328   7.168   7.463   2.313
 8360W        W12329   0.851   7.468   9.995
 8361W        W12330   2.752   7.091  11.814
 8362W        W12331   3.163   6.520   2.866
 8363W        W12332  10.821  10.878   1.412
 8364W        W12333  10.029   3.707   9.115
 8365W        W12334   8.967   6.470  11.322
 8366W        W12335   6.092   4.112   1.325
 8367W        W12336   0.375   5.998   3.755
 8368W        W12337   5.095   2.250  10.937
 8369W        W12338  10.948   0.307  10.539
 8370W        W12339   8.414   5.692   9.043
 8371W        W12340   4.603   4.631  11.403
 8372W        W12341   4.703   7.593   1.253
 8373W        W12342   2.265   4.146  10.824
 8374W        W12343   7.094   5.271   0.409
 8375W        W12344   9.478   7.152   9.389
 8376W        W12345   6.629   9.943   8.634
 8377W        W12346   7.140   2.782  11.361
 8378W        W12347   1.828  11.304   1.357
 8379W        W12348   9.444  11.309   0.796
 8380W        W12349   4.295   7.062  11.301
 8381W        W12350   8.896   5.651   0.479
 8382W        W12351  11.462   6.124   0.904
 8383W        W12352   5.738   8.923  11.492
 8384W        W12353   7.469   5.186  11.352
 8385W        W12354   7.434   9.363  10.951
 8386W        W12355   0.844   8.923   0.914
 8387W        W12356   0.355   3.651   1.358
 8388W        W12357   8.101   5.240  11.866
 8389W        W12358  10.455   4.737   0.337
 8390W        W12359   6.022  11.493   0.754
 8391W        W12360   5.541   4.774   8.571
 8392W        W12361   5.534   3.778  11.845
 8393W        W12362   2.837   8.890  10.418
 8394W        W12363   5.538   4.663   2.751
 8395W        W12364  10.338   2.665   0.467
 8396W        W12365   3.830   5.208   2.243
 8397W        W12366  10.409   9.867  11.973
 8398W        W12367   3.301   3.727   0.261
 8399W        W12368   6.609   0.340  10.029
 8400W        W12369  10.875   8.020   9.514
 8401W        W12370   2.188  10.924   9.529
 8402W        W12371   6.602   8.421   0.729
 8403W        W12372   5.118   6.079  10.995
 8404W        W12373   8.509   5.055  10.857
 8405W        W12374   9.420   6.116   0.825
 8406W        W12375   7.464  10.809   8.893
 8407W        W12376   3.288   5.522   2.736
 8408W        W12377   9.922   1.365  10.026
 8409W        W12378   2.842   2.772   2.362
 8410W        W12379   4.240  10.359   1.437
 8411W        W12380   9.433   8.095   1.425
 8412W        W12381   3.720   6.629   0.764
 8413W        W12382   3.604   5.654   7.972
 8414W        W12383   6.969   6.171   0.787
 8415W        W12384   0.850   5.103   9.361
 8416W        W12385   9.895   6.228   1.741
 8417W        W12386   1.237   0.375   9.587
 8418W        W12387   5.141   8.117   0.320
 8419W        W12388  10.331   4.770   1.862
 8420W        W12389   9.527  11.394  10.495
 8421W        W12390   9.086  10.506   1.790
 8422W        W12391   1.887   6.645  10.554
 8423W        W12392   9.062   2.669   9.968
 8424W        W12393   8.566   9.945   9.591
 8425W        W12394  10.962   3.775  10.010
 8426W        W12395   3.266   0.387   3.327
 8427W        W12396   0.824   2.309   2.768
 8428W        W12397   9.359   8.402   3.711
 8429W        W12398   6.170   9.525  11.765
 8430W        W12399   1.234  11.340   2.314
 8431W        W12400   5.256   3.678   3.602
 8432W        W12401   0.435   8.915   2.661
 8433W        W12402   5.651   1.378   9.939
 8434W        W12403   1.746   4.763   9.987
 8435W        W12404   5.729   0.378   3.310
 8436W        W12405   4.671   2.654   9.089
 8437W        W12406   1.872   9.528  10.340
 8438W        W12407   7.642   6.536   3.204
 8439W        W12408   9.398   9.346   9.053
 8440W        W12409   5.239   4.685   1.891
 8441W        W12410   3.334   6.110   9.500
 8442W        W12411   7.984   4.748  11.382
 8443W        W12412   3.774   5.617   0.910
 8444W        W12413   1.333   6.029   3.250
 8445W        W12414   7.184   2.790  11.920
 8446W        W12415   2.207   7.536   4.101
 8447W        W12416   4.759   8.911  10.510
 8448W        W12417   9.084   1.904   1.886
 8449W        W12418   8.559   4.560   0.898
 8450W        W12419   2.640   0.317   1.769
 8451W        W12420  10.499   8.462   3.239
 8452W        W12421   1.325   7.007   2.197
 8453W        W12422   2.172   4.706   2.742
 8454W        W12423  10.456   5.719   9.956
 8455W        W12424   4.254   4.256   8.918
 8456W        W12425   1.885   4.741   0.777
 8457W        W12426   5.064   7.064   1.437
 8458W        W12427   2.212   1.824   2.369
 8459W        W12428   9.090   5.205  10.461
 8460W        W12429   4.140   5.206  10.046
 8461W        W12430   8.549   3.772   2.307
 8462W        W12431   9.492   9.434  11.008
 8463W        W12432   4.646   7.515   0.303
 8464W        W12433   1.341   4.584   1.316
 8465W        W12434   8.536   9.565  11.470
 8466W        W12435   2.235   1.382   3.198
 8467W        W12436   3.188   0.311   2.640
 8468W        W12437   7.648   8.533   9.419
 8469W        W12438   1.329   7.044  10.033
 8470W        W12439   8.576   0.254  11.461
 8471W        W12440   7.144  11.296   1.740
 8472W        W12441  11.478   4.585   9.016
 8473W        W12442   0.262   9.848  10.004
 8474W        W12443   5.086   1.809  11.019
 8475W        W12444   1.815   6.135   8.967
 8476W        W12445   7.109  11.449   9.000
 8477W        W12446   7.593   4.227  10.506
 8478W        W12447   2.661   3.192   9.475
 8479W        W12448   6.101   2.645   0.251
 8480W        W12449   8.484   0.468   0.815
 8481W        W12450   2.348   0.352  11.293
 8482W        W12451   3.315   3.652   9.592
 8483W        W12452   6.588   3.250  10.881
 8484W        W12453   0.254   9.457   1.920
 8485W        W12454   0.879   6.181   1.765
 8486W        W12455   1.353   0.932   9.371
 8487W        W12456   1.377   5.086  10.873
 8488W        W12457   7.574   0.396   9.528
 8489W        W12458   3.685   8.435   8.964
 8490W        W12459   4.286  10.993   0.732
 8491W        W12460   9.435   1.406   0.767
 8492W        W12461   2.341   5.098   2.384
 8493W        W12462   2.644   8.088   3.177
 8494W        W12463   6.051   3.277  11.399
 8495W        W12464   4.276   0.848   9.051
 8496W        W12465   6.082   7.110   3.324
 8497W        W12466  10.493   6.039  11.851
 8498W        W12467   3.230  11.288   8.597
 8499W        W12468   7.482   8.617   1.910
 8500W        W12469   1.415  10.426   0.431
 8501W        W12470   6.695   9.387  11.472
 8502W        W12471   8.926   2.171   0.795
 8503W        W12472   3.197   0.935  11.038
 8504W        W12473   8.448   0.794   8.930
 8505W        W12474   1.786   7.535   2.320
 8506W        W12475  11.423   6.548  10.394
 8507W        W12476   7.560   1.685   1.916
 8508W        W12477   7.179   1.258  11.773
 8509W        W12478   4.683   2.817   3.616
 8510W        W12479   6.680   0.360   8.977
 8511W        W12480   2.863   7.491   9.994
 8512W        W12481   0.473   5.152  10.906
 8513W        W12482  10.815  11.382  10.522
 8514W        W12483   1.431   3.266   2.839
 8515W        W12484  10.892   0.905   9.510
 8516W        W12485   8.524   2.320   9.032
 8517W        W12486   1.219   6.135   1.908
 8518W        W12487   7.514   6.126   8.559
 8519W        W12488  10.029   7.047   1.867
 8520W        W12489   9.452   3.726   8.572
 8521W        W12490   6.511   2.265   4.225
 8522W        W12491   2.636   8.506  11.929
 8523W        W12492   9.480   1.835   3.244
 8524W        W12493  10.999   9.883   0.840
 8525W        W12494   3.342   6.469   2.334
 8526W        W12495   4.712  10.444   1.890
 8527W        W12496   3.136   9.963   9.930
 8528W        W12497   6.141  10.853   1.759
 8529W        W12498   3.206   0.350   0.936
 8530NA+    NA+12499   2.387  11.472   1.694
 8531NA+    NA+12500   3.663   7.514   1.387
 8532NA+    NA+12501   9.554   4.155  11.490
 8533NA+    NA+12502   3.213   8.886   1.379
 8534NA+    NA+12503   9.419   4.723  10.485
 8535NA+    NA+12504   2.333   6.550   2.237
 8536NA+    NA+12505   4.665   3.674  11.819
 8537NA+    NA+12506   7.481   1.207   3.176
 8538NA+    NA+12507  11.355   8.482  10.448
 8539NA+    NA+12508   6.193   8.038   2.352
 8540NA+    NA+12509   9.364   8.533  11.950
 8541NA+    NA+12510   9.549   6.050   0.360
 8542NA+    NA+12511   3.202   5.693   1.808
 8543NA+    NA+12512   9.500   0.833  11.996
 8544NA+    NA+12513   5.183   5.065   1.814
 8545NA+    NA+12514  11.426   5.072  10.535
 8546NA+    NA+12515   7.465   3.613   2.203
 8547NA+    NA+12516   8.121  10.437   9.494
 8548NA+    NA+12517  11.349   7.023   8.921
 8549NA+    NA+12518   9.484   6.486   9.469
 8550NA+    NA+12519   2.373   7.990   9.962
 8551NA+    NA+12520   7.579   2.248   9.029
 8552NA+    NA+12521   7.909   2.807   3.698
 8553NA+    NA+12522   8.967  10.956   9.399
 8554NA+    NA+12523   5.062   6.598  11.487
 8555NA+    NA+12524   0.241   7.515   9.583
 8556NA+    NA+12525   9.045  10.933   0.834
 8557NA+    NA+12526   3.653   4.189  10.050
 8558NA+    NA+12527   9.356   7.617  11.438
 8559NA+    NA+12528   3.814   2.251   1.727
 8560NA+    NA+12529   4.676   0.815   2.200
 8561NA+    NA+12530   1.237   5.144  11.801
 8562NA+    NA+12531   0.822  11.454   9.112
 8563NA+    NA+12532   9.047   8.520  11.788
 8564NA+    NA+12533   0.770   4.232   3.279
 8565NA+    NA+12534   6.964   1.213   2.814
 8566NA+    NA+12535   5.196   2.168  11.911
 8567NA+    NA+12536   4.137   0.859  10.415
 8568NA+    NA+12537  10.401   0.393   1.366
 8569NA+    NA+12538   5.646   7.629   2.197
 8570NA+    NA+12539  11.261   0.428   2.754
 8571NA+    NA+12540   4.114   3.821   0.293
 8572NA+    NA+12541   6.131   9.383   2.835
 8573NA+    NA+12542   3.271   2.275   0.435
 8574NA+    NA+12543   1.350   2.225   8.967
 8575NA+    NA+12544   3.133   9.011  11.772
 8576NA+    NA+12545   4.107   1.891   2.737
 8577NA+    NA+12546   8.596   7.107   9.932
 8578NA+    NA+12547   7.476   9.496   0.908
 8579NA+    NA+12548   7.569   0.832  11.983
 8580NA+    NA+12549   1.830   4.170   1.312
 8581NA+    NA+12550   8.059   6.530  10.551
 8582NA+    NA+12551   3.324   5.739   2.310
 8583NA+    NA+12552   5.153   1.752   2.315
 8584NA+    NA+12553   0.408   4.298  11.909
 8585NA+    NA+12554   3.279   8.528   0.888
 8586NA+    NA+12555   7.129   1.690   1.856
 8587NA+    NA+12556   3.201  10.938   8.072
 8588NA+    NA+12557   8.067   1.308   3.206
 8589NA+    NA+12558   4.257   8.610   0.859
 8590NA+    NA+12559   9.065  11.371   0.808
 8591NA+    NA+12560   3.615   2.183   3.355
 8592NA+    NA+12561   5.075   9.851  11.432
 8593NA+    NA+12562   8.090   5.182   2.783
 8594NA+    NA+12563  11.272   8.054  11.935
 8595NA+    NA+12564   9.508   0.781   9.927
 8596NA+    NA+12565  11.320  10.898  11.985
 8597NA+    NA+12566  10.887   6.490   9.947
 8598NA+    NA+12567   5.674   2.674   9.580
 8599NA+    NA+12568   6.596   9.530   9.052
 8600NA+    NA+12569   0.733   5.174   1.204
 8601NA+    NA+12570   7.542   0.444  11.337
 8602NA+    NA+12571   0.364   0.338   8.899
 8603NA+    NA+12572   2.297   7.629   8.441
 8604NA+    NA+12573   9.006   3.217   0.429
 8605NA+    NA+12574   9.533   1.393   2.180
 8606NA+    NA+12575  10.414   7.593   9.941
 8607NA+    NA+12576  10.483   4.074   0.761
 8608NA+    NA+12577   7.489   9.023   8.983
 8609NA+    NA+12578   0.769   1.434  11.314
 8610NA+    NA+12579   9.996   9.923  11.340
 8611NA+    NA+12580  10.313  10.833   0.277
 8612NA+    NA+12581   9.559   1.236   9.521
 8613NA+    NA+12582   0.269   1.743  10.916
 8614NA+    NA+12583   8.601   4.572   2.662
 8615NA+    NA+12584   1.901  11.326   0.363
 8616NA+    NA+12585   2.804   3.287  10.511
 8617NA+    NA+12586   8.615   0.407   9.888
 8618NA+    NA+12587   5.206   3.764   8.102
 8619CL-    CL-12588   2.809   4.744   2.867
 8620CL-    CL-12589   4.782   3.157   8.501
 8621CL-    CL-12590   0.462   2.274   3.251
 8622CL-    CL-12591   1.214  11.273  11.489
 8623CL-    CL-12592  10.034   4.096   3.171
 8624CL-    CL-12593  10.833  11.300  11.029
 8625CL-    CL-12594   5.996   9.994  11.349
 8626CL-    CL-12595   9.089   3.664  10.340
 8627CL-    CL-12596   9.427  10.388  11.313
 8628CL-    CL-12597  11.303   0.747  10.428
 8629CL-    CL-12598   2.717   5.078  11.815
 8630CL-    CL-12599   5.684   1.364   1.881
 8631CL-    CL-12600   3.315  10.830   3.353
 8632CL-    CL-12601  10.866   4.231   1.751
 8633CL-    CL-12602   1.315   7.428  11.343
 8634CL-    CL-12603  11.486   1.342  10.481
 8635CL-    CL-12604   6.593   9.427   2.173
 8636CL-    CL-12605   0.326  10.391  10.998
 8637CL-    CL-12606   4.580   3.747  10.410
 8638CL-    CL-12607   6.172   9.562  10.039
 8639CL-    CL-12608   0.867   0.385   9.388
 8640CL-    CL-12609   2.666   2.271  10.831
 8641CL-    CL-12610   7.546   1.353   9.024
 8642CL-    CL-12611   9.419   2.196   1.752
 8643CL-    CL-12612   9.027   1.321  11.488
 8644CL-    CL-12613   0.884   8.894  11.429
 8645CL-    CL-12614   8.386   0.833   2.831
 8646CL-    CL-12615   9.436  10.967   3.789
 8647CL-    CL-12616  11.315   0.947   2.711
 8648CL-    CL-12617   8.419   4.597  11.512
 8649CL-    CL-12618   2.283  10.037   9.494
 8650CL-    CL-12619   8.387   3.169   0.345
 8651CL-    CL-12620   9.549   2.718   9.895
 8652CL-    CL-12621   4.615   7.120   2.794
 8653CL-    CL-12622   8.965   9.019  11.865
 8654CL-    CL-12623   8.537   7.920  11.421
 8655CL-    CL-12624   6.140   7.517   0.263
 8656CL-    CL-12625  10.482   2.170   2.861
 8657CL-    CL-12626  11.431   9.459   0.796
 8658CL-    CL-12627   1.851   5.070   4.223
 8659CL-    CL-12628   0.361   1.836  11.877
 8660CL-    CL-12629   8.457  11.435  10.064
 8661CL-    CL-12630   1.883  10.371   3.248
 8662CL-    CL-12631   8.434   2.338  10.874
 8663CL-    CL-12632  11.338   1.322   0.450
 8664CL-    CL-12633   2.806  10.794   3.141
 8665CL-    CL-12634   7.986   8.011  10.451
 8666CL-    CL-12635   9.979  10.034  10.937
 8667CL-    CL-12636   4.154   0.241   8.633
 8668CL-    CL-12637   0.255   6.566   1.387
 8669CL-    CL-12638   5.664   8.444   2.647
 8670CL-    CL-12639   7.646   7.159   1.778
 8671CL-    CL-12640   1.239   2.237   9.503
 8672CL-    CL-12641   9.885   3.297  10.858
 8673CL-    CL-12642   6.100  10.495   9.936
 8674CL-    CL-12643   1.681  11.019   8.992
 8675CL-    CL-12644   4.074   4.148   1.320
 8676CL-    CL-12645   0.410  10.488   0.873
 8677CL-    CL-12646   2.640   8.033   1.726
 8678CL-    CL-12647   9.490  10.976   1.374
 8679CL-    CL-12648  10.326   4.119   2.366
 8680CL-    CL-12649  10.944   1.290  10.326
 8681CL-    CL-12650   4.736   7.947   1.841
 8682CL-    CL-12651   5.745   3.158  11.346
 8683CL-    CL-12652  10.309   7.054   0.444
 8684CL-    CL-12653   2.848   3.734  10.535
 8685CL-    CL-12654   4.602   1.231   8.989
 8686CL-    CL-12655  11.297   7.998   8.500
 8687CL-    CL-12656   7.095   9.354  11.328
 8688CL-    CL-12657   9.848   8.557   9.849
 8689CL-    CL-12658   6.070   7.179  10.007
 8690CL-    CL-12659   4.146   0.381   9.942
 8691CL-    CL-12660   9.836   8.011  11.416
 8692CL-    CL-12661   0.353   7.535   9.068
 8693CL-    CL-12662   8.089   7.448   2.830
 8694CL-    CL-12663   1.720   6.609   9.554
 8695CL-    CL-12664   6.559   8.411   9.001
 8696CL-    CL-12665   2.207  10.802   0.290
 8697CL-    CL-12666   9.909   4.269   2.302
 8698CL-    CL-12667   5.750   6.060  10.982
 8699CL-    CL-12668   4.679   5.218  10.827
 8700CL-    CL-12669   7.041   0.753   0.293
 8701CL-    CL-12670   0.379   8.042   3.134
 8702CL-    CL-12671  11.020   2.208  10.351
 8703CL-    CL-12672   4.251   9.552   0.294
 8704CL-    CL-12673   0.747  10.022   9.084
 8705CL-    CL-12674   6.696   4.648  11.947
 8706CL-    CL-12675   0.379   8.413   1.339
 8707CL-    CL-12676   6.695   7.636  10.041
  11.50000  11.50000  12.00000   0.00000   0.00000   0.00000   0.00000   0.00000   0.00000
