Protein in INSANE! Membrane UpperLeaflet>POPC=1.0 LowerLeaflet>POPC=1.0
10365
    1AU     AUC    1   0.485   6.812   6.426 -0.1116 -0.0851  0.0013
    1AU     AUC    2   0.794   6.945   6.523 -0.0515  0.0339  0.0130
    1AU     AUC    3   0.684   6.626   6.647  0.0606 -0.0390 -0.0268
    1AU     AUC    4   0.309   6.953   6.229 -0.0653  0.1021  0.0291
    1AU     AUC    5   0.203   6.672   6.375  0.0508 -0.0548  0.0373
    1AU     AUC    6   0.247   6.983   6.534 -0.0749  0.0728 -0.0649
    1AU     AUC    7   0.546   6.931   6.725  0.0263 -0.1513  0.0401
    1AU     AUC    8   0.455   6.676   6.147 -0.0469 -0.0797 -0.0010
    1AU     AUC    9   0.731   6.659   6.317 -0.0595 -0.0575  0.0559
    1AU     AUC   10   0.494   6.475   6.404  0.0220 -0.0096  0.0425
    1AU     AUC   11   0.340   6.649   6.660  0.0200  0.0967  0.0490
    1AU     AUC   12   0.663   6.972   6.178 -0.1319  0.1240 -0.0515
    1AU     AUC   13   0.550   7.117   6.424 -0.0261  0.0289 -0.0409
    1AU     AUC   14   1.138   7.056   6.616 -0.0220 -0.1534 -0.0072
    1AU     AUC   15   1.041   6.747   6.738  0.0964  0.1308  0.0505
    1AU     AUC   16   0.868   6.456   6.849  0.0336 -0.0752  0.0172
    1AU     AUC   17   0.134   7.149   5.970 -0.0351 -0.0400 -0.0104
    1AU     AUC   18  -0.054   6.880   6.159  0.0611  0.0017 -0.0268
    1AU     AUC   19  -0.128   6.591   6.309  0.0304  0.0064  0.0146
    1AU     AUC   20  -0.010   7.185   6.673 -0.0521  0.0800 -0.0815
    1AU     AUC   21   0.271   7.139   6.893  0.0304  0.0289  0.0268
    1AU     AUC   22   0.579   7.070   7.045  0.0654  0.1179 -0.0017
    1AU     AUC   23   0.426   6.560   5.830  0.1377 -0.0255  0.0706
    1AU     AUC   24   0.737   6.521   5.991  0.0453 -0.0816  0.0537
    1AU     AUC   25   1.047   6.505   6.155 -0.0041 -0.0243 -0.0469
    1AU     AUC   26   0.487   6.128   6.412 -0.0550  0.0059  0.0341
    1AU     AUC   27   0.296   6.270   6.681 -0.0661  0.0366  0.0192
    1AU     AUC   28   0.189   6.501   6.922 -0.0102 -0.1227 -0.0069
    1AU     AUC   29   0.840   7.109   5.953  0.0760  0.0283  0.0726
    1AU     AUC   30   0.722   7.306   6.180  0.0077  0.0445  0.0377
    1AU     AUC   31   0.573   7.466   6.456  0.0492 -0.0260 -0.0525
    1AU     AUC   32   0.672   6.267   6.641 -0.0336  0.0621 -0.0567
    1AU     AUC   33   0.534   6.429   6.919 -0.1560 -0.0045  0.1119
    1AU     AUC   34   1.023   7.108   6.267  0.0503 -0.0192  0.0889
    1AU     AUC   35   0.864   7.288   6.593  0.1198  0.0715  0.0235
    1AU     AUC   36   0.164   6.321   6.363  0.0109  0.0127 -0.0505
    1AU     AUC   37   0.019   6.516   6.622  0.0365 -0.1252 -0.0761
    1AU     AUC   38   0.455   7.133   5.944 -0.0147  0.0465  0.0203
    1AU     AUC   39   0.348   7.346   6.164 -0.0763 -0.2273  0.1355
    1AU     AUC   40   0.883   7.056   6.870  0.0712  0.0731  0.0287
    1AU     AUC   41   0.717   6.750   6.960 -0.0663 -0.0645 -0.0220
    1AU     AUC   42   0.017   7.161   6.347  0.0500  0.0008  0.0204
    1AU     AUC   43  -0.091   6.860   6.497  0.0716 -0.0249 -0.0812
    1AU     AUC   44   1.083   6.766   6.383  0.0303  0.0146  0.0592
    1AU     AUC   45   0.970   6.462   6.481  0.0063  0.0125  0.1565
    1AU     AUC   46   0.225   6.818   5.912  0.0521 -0.0944  0.0259
    1AU     AUC   47   0.140   6.525   6.083  0.0224  0.0893  0.0039
    1AU     AUC   48   0.050   6.839   6.816  0.1433 -0.0408  0.0509
    1AU     AUC   49   0.348   6.770   6.999 -0.0038  0.0670  0.0907
    1AU     AUC   50   0.445   6.315   6.099  0.0112 -0.0719 -0.0302
    1AU     AUC   51   0.757   6.283   6.259 -0.0832  0.0288 -0.0827
    1AU     AUC   52   0.265   7.306   6.560  0.0804  0.0238 -0.0664
    1AU     AUC   53   0.583   7.294   6.778  0.0002 -0.0861 -0.0118
    1AU     AUC   54   0.633   6.826   5.821 -0.1203 -0.0957  0.0376
    1AU     AUC   55   0.959   6.824   6.063  0.0434  0.0332  0.0546
    1AU    AUSL   56   0.779   6.118   6.955 -0.0369  0.0211 -0.0274
    1AU    AUSL   57   0.789   5.955   6.513  0.0226  0.0338 -0.0798
    1AU     AUL   58   0.985   5.857   6.855 -0.0498  0.0085  0.0258
    1AU       S   59   1.274   5.754   6.503  0.3032 -0.0204 -0.2508
    1AU     LIG   60   1.437   5.363   6.501  0.2888  0.1280  0.0835
    1AU     LIG   61   1.808   5.102   6.337  0.1994  0.1084 -0.0367
    1AU     LIG   62   1.744   4.636   6.252  0.1303 -0.1002  0.0914
    1AU       S   63   0.614   5.735   7.091  0.1597  0.0753 -0.0348
    1AU     LIG   64   0.598   5.240   7.000  0.0968 -0.1858  0.0487
    1AU     LIG   65   0.528   4.931   6.714 -0.0081 -0.2863 -0.2525
    1AU     LIG   66   0.344   4.748   6.396 -0.2421  0.1126 -0.1885
    1AU    AUSL   67   0.416   6.011   6.701 -0.0572  0.0642  0.0240
    1AU    AUSL   68   0.021   6.166   6.842  0.0227 -0.1293  0.0513
    1AU     AUL   69   0.111   5.841   6.906  0.0028 -0.0813  0.0565
    1AU       S   70   0.518   5.690   6.797  0.0080  0.0380  0.0025
    1AU     LIG   71   0.804   5.495   6.649 -0.1838 -0.0814  0.1404
    1AU     LIG   72   1.002   5.100   6.513 -0.0959  0.0832 -0.0399
    1AU     LIG   73   1.258   4.976   6.228 -0.0985  0.1487  0.2542
    1AU       S   74  -0.298   5.797   6.696 -0.1280 -0.1340  0.1598
    1AU     LIG   75  -0.349   5.434   6.903 -0.0008 -0.2589 -0.1923
    1AU     LIG   76  -0.585   5.037   6.896 -0.1565 -0.1683 -0.0090
    1AU     LIG   77  -0.644   4.928   7.342  0.3105 -0.0709 -0.2123
    1AU    AUSL   78   0.366   6.158   7.099  0.0751 -0.0638 -0.1524
    1AU    AUSL   79   0.705   6.445   7.231 -0.0026 -0.0173 -0.0222
    1AU     AUL   80   0.731   6.140   7.270  0.0272  0.0520  0.0338
    1AU       S   81   0.442   5.779   7.229 -0.3319 -0.0569  0.2553
    1AU     LIG   82   0.180   5.814   7.438  0.1957  0.1183 -0.0736
    1AU     LIG   83  -0.123   5.831   7.675  0.3159  0.0490 -0.0333
    1AU     LIG   84  -0.412   5.644   8.019  0.1821  0.3644  0.0902
    1AU       S   85   0.465   6.423   7.516 -0.0610  0.0970  0.3835
    1AU     LIG   86   0.537   5.999   7.709 -0.1603 -0.2663  0.2538
    1AU     LIG   87   0.321   5.631   7.837  0.1811 -0.2889 -0.1933
    1AU     LIG   88   0.029   5.323   7.749 -0.1843 -0.2063  0.1373
    1AU    AUSL   89   1.095   7.311   6.510  0.0321  0.0739  0.0422
    1AU    AUSL   90   0.862   7.576   6.776  0.1122  0.0021 -0.0184
    1AU     AUL   91   1.206   7.661   6.719 -0.0584  0.0051  0.1249
    1AU       S   92   1.070   7.871   6.328  0.0331 -0.0384 -0.3853
    1AU     LIG   93   1.297   8.280   6.433  0.1655  0.1985  0.1056
    1AU     LIG   94   1.459   8.634   6.572  0.1742 -0.1093  0.1077
    1AU     LIG   95   1.612   8.914   6.358  0.0246 -0.3581 -0.3434
    1AU       S   96   1.034   7.765   7.139  0.1872  0.0240 -0.1293
    1AU     LIG   97   0.876   8.075   7.303 -0.1308  0.2827  0.0536
    1AU     LIG   98   0.984   8.431   7.532  0.0588  0.1075  0.2253
    1AU     LIG   99   1.049   8.719   7.874 -0.2074  0.0552 -0.1711
    1AU    AUSL  100   1.140   7.454   6.111 -0.0980  0.0184 -0.0366
    1AU    AUSL  101   1.418   7.113   6.316 -0.0477 -0.0172  0.0612
    1AU     AUL  102   1.394   7.416   6.377  0.0600  0.0613 -0.1045
    1AU       S  103   1.573   7.173   6.029 -0.1530  0.1599  0.1646
    1AU     LIG  104   1.854   7.360   6.159  0.0433  0.1017 -0.0336
    1AU     LIG  105   2.092   7.826   6.181 -0.0932 -0.2443 -0.1200
    1AU     LIG  106   2.262   8.371   6.032  0.1768  0.2716 -0.1195
    1AU       S  107   1.219   7.883   6.236  0.3230  0.2618 -0.0841
    1AU     LIG  108   1.091   8.252   5.995 -0.4095 -0.3788 -0.0057
    1AU     LIG  109   1.031   8.701   6.052 -0.1563 -0.0473  0.3089
    1AU     LIG  110   1.108   8.965   6.392  0.4184  0.1846  0.3409
    1AU    AUSL  111   0.764   7.520   6.359 -0.0550  0.0424 -0.0118
    1AU    AUSL  112   0.778   7.378   5.864 -0.1157 -0.0963 -0.0213
    1AU     AUL  113   0.965   7.612   5.946 -0.0498 -0.0128 -0.0508
    1AU       S  114   0.679   7.802   5.604 -0.1720 -0.0127  0.2747
    1AU     LIG  115   1.012   7.949   5.504 -0.2522 -0.1513 -0.0841
    1AU     LIG  116   1.219   8.155   5.205 -0.4823 -0.1454 -0.2702
    1AU     LIG  117   1.591   8.119   4.900  0.1819  0.0469 -0.5671
    1AU       S  118   0.906   7.795   6.367  0.0849 -0.2336  0.3758
    1AU     LIG  119   0.649   8.077   6.369 -0.0147  0.0031  0.0008
    1AU     LIG  120   0.604   8.469   6.207  0.0988 -0.0468 -0.0120
    1AU     LIG  121   0.533   8.892   6.081 -0.1751  0.6182 -0.0156
    1AU    AUSL  122  -0.139   6.330   6.471 -0.0204 -0.0257 -0.0970
    1AU    AUSL  123  -0.174   6.535   6.905  0.0248  0.0950 -0.1047
    1AU     AUL  124  -0.331   6.257   6.815  0.0368 -0.1138 -0.0526
    1AU       S  125  -0.395   5.847   6.643 -0.3068  0.0409 -0.1970
    1AU     LIG  126  -0.648   5.785   6.331  0.1268  0.2919 -0.0698
    1AU     LIG  127  -1.038   5.742   6.249 -0.0984 -0.2691 -0.2299
    1AU     LIG  128  -1.301   5.564   5.958  0.0355 -0.2769  0.2327
    1AU       S  129  -0.679   6.558   6.837 -0.0178  0.0678  0.1772
    1AU     LIG  130  -0.942   6.220   6.899 -0.1026  0.1770 -0.0653
    1AU     LIG  131  -0.975   5.873   6.721 -0.0285  0.2439  0.0109
    1AU     LIG  132  -0.850   5.459   6.688  0.0056  0.3233 -0.2316
    1AU    AUSL  133   0.068   5.950   6.457  0.0087 -0.0632  0.0466
    1AU    AUSL  134  -0.065   6.212   6.077 -0.0367 -0.0077 -0.0346
    1AU     AUL  135  -0.308   6.127   6.298 -0.0884  0.0427  0.0661
    1AU       S  136  -0.108   5.874   5.975 -0.0994  0.5647 -0.0969
    1AU     LIG  137  -0.433   5.657   5.880 -0.0347 -0.1987 -0.0461
    1AU     LIG  138  -0.766   5.446   5.853 -0.0182  0.0659  0.0813
    1AU     LIG  139  -1.002   5.205   6.126  0.0884 -0.2095  0.2105
    1AU       S  140  -0.085   5.741   6.498  0.3866 -0.4315  0.4134
    1AU     LIG  141  -0.371   5.367   6.432  0.4416  0.3331 -0.0075
    1AU     LIG  142  -0.632   5.013   6.389  0.1692  0.1214 -0.0605
    1AU     LIG  143  -0.984   4.734   6.280  0.2476  0.0534  0.5626
    1AU    AUSL  144   0.360   7.402   5.758 -0.0504 -0.0369  0.0705
    1AU    AUSL  145   0.595   7.025   5.704  0.0566 -0.0037 -0.1347
    1AU     AUL  146   0.701   7.322   5.564 -0.0331 -0.0361 -0.0291
    1AU       S  147   0.523   7.755   5.467  0.3574 -0.0647  0.3714
    1AU     LIG  148   0.140   7.771   5.178  0.3246  0.0755 -0.0865
    1AU     LIG  149  -0.228   7.812   5.272  0.0318 -0.6277  0.1236
    1AU     LIG  150  -0.746   7.700   5.318 -0.1633 -0.1201 -0.1187
    1AU       S  151   0.330   7.201   5.315  0.2892 -0.2649 -0.3509
    1AU     LIG  152   0.443   7.399   5.044  0.0166 -0.1323 -0.1998
    1AU     LIG  153   0.103   7.507   4.756  0.4317  0.1179 -0.0879
    1AU     LIG  154  -0.087   7.660   4.272 -0.0573 -0.0616  0.1781
    1AU    AUSL  155   0.502   7.684   6.068  0.0703 -0.0172 -0.0294
    1AU    AUSL  156   0.025   7.525   6.022  0.0433  0.0600 -0.0002
    1AU     AUL  157   0.204   7.685   5.782 -0.0595  0.0554  0.0331
    1AU       S  158  -0.166   7.894   6.083 -0.2816 -0.2117 -0.5741
    1AU     LIG  159  -0.092   7.994   5.662  0.0222 -0.0773  0.1580
    1AU     LIG  160   0.168   8.238   5.406  0.0307  0.3315  0.0400
    1AU     LIG  161  -0.109   8.385   5.125 -0.2379  0.2938 -0.0674
    1AU       S  162   0.597   7.920   5.862  0.2552  0.1091 -0.4123
    1AU     LIG  163   0.669   8.351   5.571 -0.0934  0.1639 -0.0388
    1AU     LIG  164   0.862   8.537   5.266 -0.2233  0.0613  0.0595
    1AU     LIG  165   0.971   8.722   4.814  0.0303  0.2055 -0.0680
    1AU    AUSL  166   0.950   6.976   7.209  0.0594 -0.1011  0.0016
    1AU    AUSL  167   1.139   7.287   6.939 -0.1383  0.0108  0.0660
    1AU     AUL  168   1.211   7.152   7.320  0.0190 -0.0701 -0.0683
    1AU       S  169   1.051   7.575   7.267  0.3422 -0.2507  0.2406
    1AU     LIG  170   1.503   7.552   7.237  0.2014 -0.1046  0.0154
    1AU     LIG  171   1.758   7.794   6.987  0.0725 -0.0567  0.1781
    1AU     LIG  172   2.176   8.059   6.948 -0.3602 -0.0602  0.1087
    1AU       S  173   1.322   6.690   7.395  0.1968 -0.1975  0.5320
    1AU     LIG  174   1.603   6.527   7.655 -0.0377  0.1180 -0.1762
    1AU     LIG  175   1.539   6.515   8.057  0.0847 -0.3509  0.2871
    1AU     LIG  176   1.781   6.550   8.546  0.3951  0.4579  0.0913
    1AU    AUSL  177   1.311   6.911   6.919 -0.0768  0.0138  0.0321
    1AU    AUSL  178   1.354   6.499   6.789  0.0055  0.0960  0.0806
    1AU     AUL  179   1.632   6.801   6.872  0.0188  0.0099 -0.0488
    1AU       S  180   1.378   6.716   7.223 -0.1456  0.2300 -0.2055
    1AU     LIG  181   1.720   6.435   7.205 -0.1468 -0.1153  0.2420
    1AU     LIG  182   1.612   6.001   7.056 -0.3442 -0.1972 -0.0155
    1AU     LIG  183   1.448   5.735   7.000  0.2995 -0.4154  0.2976
    1AU       S  184   1.761   6.378   6.708 -0.0758  0.1368  0.1919
    1AU     LIG  185   2.115   6.224   6.861  0.1509 -0.0245  0.1424
    1AU     LIG  186   2.476   5.911   6.971  0.1388 -0.2475  0.2726
    1AU     LIG  187   2.387   5.554   7.078  0.1586 -0.2366 -0.0667
    1AU    AUSL  188   1.002   6.614   6.989  0.0024 -0.0103 -0.0932
    1AU    AUSL  189   0.571   6.842   7.337  0.0323  0.0347 -0.0586
    1AU     AUL  190   0.861   6.710   7.407  0.0800 -0.0741  0.0053
    1AU       S  191   0.482   6.599   7.698  0.0778  0.1222 -0.1120
    1AU     LIG  192   0.800   6.785   7.854  0.2972  0.2264  0.0315
    1AU     LIG  193   1.145   6.897   8.239  0.0183  0.0697  0.0737
    1AU     LIG  194   1.496   6.911   8.364  0.3147 -0.1794 -0.1556
    1AU       S  195   1.217   6.507   7.209 -0.2657 -0.0208 -0.1510
    1AU     LIG  196   1.240   6.111   7.324 -0.4153 -0.0607 -0.0726
    1AU     LIG  197   1.024   5.645   7.395 -0.0033  0.0013  0.0571
    1AU     LIG  198   0.673   5.482   7.541  0.0629 -0.1465 -0.3408
    1AU    AUSL  199  -0.321   7.182   6.516  0.0114 -0.0611  0.1018
    1AU    AUSL  200  -0.342   6.690   6.535 -0.0105 -0.0790 -0.0425
    1AU     AUL  201  -0.508   7.085   6.694  0.0072 -0.0314 -0.0221
    1AU       S  202  -0.541   6.623   6.565 -0.1391  0.2598  0.2097
    1AU     LIG  203  -0.759   6.328   6.432  0.0749  0.0463  0.2717
    1AU     LIG  204  -1.241   6.231   6.353 -0.2236  0.3394 -0.4727
    1AU     LIG  205  -1.490   5.867   6.329  0.0142 -0.2165 -0.0825
    1AU       S  206  -0.714   7.369   6.420  0.3440 -0.1403  0.2378
    1AU     LIG  207  -1.075   7.641   6.508 -0.3498  0.0611  0.1849
    1AU     LIG  208  -1.405   7.903   6.381 -0.3212  0.0681 -0.1306
    1AU     LIG  209  -1.729   8.229   6.313  0.0195  0.3135 -0.0189
    1AU    AUSL  210  -0.069   7.147   6.144  0.0669 -0.0305 -0.0735
    1AU    AUSL  211  -0.110   7.555   6.463  0.0297  0.0040 -0.0313
    1AU     AUL  212  -0.302   7.452   6.195 -0.1003 -0.0814  0.0339
    1AU       S  213  -0.731   7.266   6.117 -0.0365 -0.0903  0.1315
    1AU     LIG  214  -0.943   7.115   5.701  0.0765  0.2804 -0.0791
    1AU     LIG  215  -1.127   7.280   5.356  0.1748 -0.1108 -0.2059
    1AU     LIG  216  -1.151   7.589   5.042 -0.0914 -0.3190 -0.1492
    1AU       S  217  -0.225   7.861   6.400  0.0303  0.1391  0.3418
    1AU     LIG  218  -0.626   7.940   6.164 -0.3191 -0.0624 -0.2537
    1AU     LIG  219  -0.999   7.729   6.019  0.0856 -0.0550 -0.2309
    1AU     LIG  220  -1.196   7.752   5.603 -0.1076  0.0090 -0.0025
    1AU    AUSL  221  -0.448   6.919   6.191  0.0492  0.0002 -0.0284
    1AU    AUSL  222  -0.210   6.908   5.815 -0.0102  0.0368 -0.2176
    1AU     AUL  223  -0.357   7.146   5.861 -0.0220  0.0516  0.0078
    1AU       S  224  -0.604   6.733   5.775 -0.0994  0.0924 -0.1702
    1AU     LIG  225  -0.882   6.715   5.299  0.2110 -0.5247 -0.0275
    1AU     LIG  226  -1.116   6.431   5.105  0.1848 -0.1513  0.2558
    1AU     LIG  227  -1.397   6.053   5.039 -0.0253 -0.1825  0.3956
    1AU       S  228  -0.697   6.962   6.233  0.1073  0.0737  0.1909
    1AU     LIG  229  -1.005   6.849   6.438  0.2913 -0.1781 -0.0324
    1AU     LIG  230  -1.353   7.032   6.591  0.1502  0.0046 -0.1793
    1AU     LIG  231  -1.828   7.102   6.551 -0.3698  0.2344  0.4071
    1AU    AUSL  232   1.326   6.439   6.339 -0.0136 -0.0838 -0.1611
    1AU    AUSL  233   1.001   6.303   6.642  0.0577  0.0754  0.0448
    1AU     AUL  234   1.303   6.205   6.736  0.0104  0.1083  0.0618
    1AU       S  235   1.544   6.363   6.385 -0.4113 -0.0219  0.2318
    1AU     LIG  236   1.926   6.200   6.091  0.4049  0.0170 -0.0973
    1AU     LIG  237   2.183   5.969   6.037  0.0853  0.3418  0.2251
    1AU     LIG  238   2.345   5.520   6.080  0.4149 -0.2044  0.2405
    1AU       S  239   1.314   5.890   6.402  0.1708  0.1872  0.1093
    1AU     LIG  240   1.710   5.919   6.602  0.1550  0.0295 -0.3065
    1AU     LIG  241   2.208   5.872   6.546  0.0206  0.1603 -0.5135
    1AU     LIG  242   2.529   6.048   6.357 -0.3884 -0.0135  0.0009
    1AU    AUSL  243   1.225   6.811   6.515  0.0355  0.0365 -0.0798
    1AU    AUSL  244   1.385   6.743   6.070 -0.0538 -0.0334  0.0522
    1AU     AUL  245   1.528   6.842   6.413 -0.0255 -0.0488 -0.0759
    1AU       S  246   1.779   6.476   6.480 -0.2862  0.0423 -0.1113
    1AU     LIG  247   2.022   6.859   6.563  0.1145 -0.0405 -0.0478
    1AU     LIG  248   2.319   7.037   6.326  0.3735  0.1299  0.1264
    1AU     LIG  249   2.585   6.855   5.992  0.2128  0.2456 -0.1589
    1AU       S  250   1.684   7.000   5.880  0.2831 -0.0569 -0.0836
    1AU     LIG  251   1.953   6.794   5.982  0.4099 -0.3101 -0.3677
    1AU     LIG  252   2.261   6.542   6.222  0.1358  0.1484 -0.0780
    1AU     LIG  253   2.532   6.649   6.521  0.1954  0.0739 -0.0080
    1AU    AUSL  254   0.128   6.586   5.850 -0.0283  0.0045  0.1183
    1AU    AUSL  255   0.171   7.036   5.750 -0.0285 -0.0461  0.0654
    1AU     AUL  256  -0.117   6.749   5.598  0.0365  0.0492  0.0198
    1AU       S  257   0.151   7.108   5.439 -0.0474 -0.2295 -0.0421
    1AU     LIG  258  -0.113   7.435   5.541 -0.2097 -0.2347  0.1923
    1AU     LIG  259  -0.536   7.600   5.724  0.1341 -0.1720 -0.2889
    1AU     LIG  260  -0.778   8.096   5.707  0.0607 -0.2358 -0.1823
    1AU       S  261  -0.520   6.538   5.720  0.0976 -0.5047 -0.0169
    1AU     LIG  262  -0.461   6.076   5.578  0.2088  0.1122  0.2118
    1AU     LIG  263  -0.528   5.799   5.317  0.1238  0.1432  0.0078
    1AU     LIG  264  -0.552   5.349   5.408 -0.3372  0.0303  0.0525
    1AU    AUSL  265  -0.234   6.586   6.092 -0.0789 -0.0703  0.0092
    1AU    AUSL  266   0.205   6.193   5.732  0.0303  0.0168 -0.0684
    1AU     AUL  267  -0.123   6.332   5.779 -0.0083 -0.0106  0.0560
    1AU       S  268   0.005   5.845   5.706  0.0220 -0.0207  0.3031
    1AU     LIG  269   0.315   5.789   5.387  0.2542  0.2335  0.0413
    1AU     LIG  270   0.509   5.628   5.074 -0.2072  0.0111  0.3144
    1AU     LIG  271   0.739   5.291   4.960  0.4192  0.0764  0.0987
    1AU       S  272  -0.536   6.540   5.988 -0.4156 -0.0049 -0.2373
    1AU     LIG  273  -0.709   6.152   5.983  0.0950  0.0783 -0.0902
    1AU     LIG  274  -0.923   5.885   5.795 -0.2191  0.0259  0.3315
    1AU     LIG  275  -1.405   5.922   5.538 -0.0639  0.2586  0.1099
    1AU    AUSL  276  -0.030   6.769   7.226 -0.0050 -0.0406  0.0159
    1AU    AUSL  277  -0.114   6.940   6.812  0.0455  0.0296  0.0278
    1AU     AUL  278  -0.362   6.791   7.089 -0.0983 -0.0188 -0.0126
    1AU       S  279  -0.741   6.716   6.808  0.4100  0.1201  0.4820
    1AU     LIG  280  -1.183   6.598   7.010 -0.1403 -0.3368 -0.0109
    1AU     LIG  281  -1.415   6.388   6.775 -0.1078  0.0445 -0.1511
    1AU     LIG  282  -1.773   6.193   6.593  0.2161  0.1494  0.1097
    1AU       S  283  -0.173   6.903   7.486  0.2512  0.1456  0.0573
    1AU     LIG  284  -0.545   6.807   7.531  0.1332  0.2995 -0.0103
    1AU     LIG  285  -0.804   6.994   7.230 -0.0248 -0.2134  0.1259
    1AU     LIG  286  -0.959   7.159   6.840 -0.1805 -0.1436 -0.0313
    1AU    AUSL  287  -0.089   7.215   7.127  0.0058 -0.0708  0.0018
    1AU    AUSL  288   0.347   7.458   7.135  0.0289 -0.0138  0.0504
    1AU     AUL  289   0.181   7.386   7.412  0.0015  0.0274 -0.0189
    1AU       S  290  -0.226   7.205   7.246  0.0897 -0.2356  0.1079
    1AU     LIG  291  -0.569   7.417   7.021 -0.0777 -0.4289  0.0891
    1AU     LIG  292  -0.553   7.721   6.759 -0.0600  0.0437  0.3015
    1AU     LIG  293  -0.408   8.158   6.686  0.3235 -0.0195 -0.1656
    1AU       S  294   0.117   7.721   7.110 -0.2953 -0.2309 -0.4963
    1AU     LIG  295   0.526   7.747   7.494 -0.0307  0.0327  0.1440
    1AU     LIG  296   0.407   7.633   7.898  0.2814  0.3188 -0.0226
    1AU     LIG  297   0.083   7.374   8.081  0.0247 -0.0544  0.0279
    1AU    AUSL  298   0.307   7.033   7.103  0.0394 -0.0048 -0.0867
    1AU    AUSL  299   0.307   6.567   7.104  0.0237 -0.0128  0.0405
    1AU     AUL  300   0.296   6.921   7.421  0.0437  0.0256 -0.0387
    1AU       S  301   0.264   6.422   7.519  0.2056 -0.1069  0.2877
    1AU     LIG  302  -0.100   6.266   7.305  0.1710 -0.2939  0.2212
    1AU     LIG  303  -0.292   5.854   7.182  0.0570 -0.1844  0.0782
    1AU     LIG  304  -0.706   5.739   7.084 -0.2402 -0.0477 -0.0486
    1AU       S  305  -0.159   7.101   7.560  0.0376 -0.1173 -0.0500
    1AU     LIG  306  -0.181   7.544   7.698 -0.0166  0.2459 -0.2072
    1AU     LIG  307   0.019   7.934   7.547  0.0572  0.0617 -0.0778
    1AU     LIG  308  -0.144   8.306   7.322 -0.2027 -0.0583  0.1733
    1AU    AUSL  309   0.696   5.961   6.080  0.0504  0.0281 -0.0646
    1AU    AUSL  310   1.013   6.199   6.228  0.0380 -0.0377 -0.0408
    1AU     AUL  311   0.824   5.773   6.269 -0.0201 -0.0151  0.0141
    1AU       S  312   0.895   5.731   5.829  0.0295  0.1302  0.2913
    1AU     LIG  313   1.272   5.478   6.050 -0.3131  0.1034  0.1956
    1AU     LIG  314   1.567   5.258   5.976  0.0798  0.0871  0.1827
    1AU     LIG  315   1.597   4.808   5.818  0.1631  0.0229 -0.1204
    1AU       S  316   1.250   5.988   6.154 -0.1236  0.2350 -0.2562
    1AU     LIG  317   1.512   6.341   5.850 -0.0946 -0.2432  0.5096
    1AU     LIG  318   1.767   6.532   5.640  0.3417  0.4386 -0.1454
    1AU     LIG  319   1.934   6.898   5.416 -0.1130  0.4616  0.0001
    1AU    AUSL  320   0.568   6.345   5.880  0.0160  0.1151  0.0633
    1AU    AUSL  321   0.325   6.113   6.180 -0.0707  0.0575 -0.0477
    1AU     AUL  322   0.447   5.980   5.800  0.0314 -0.0134 -0.0645
    1AU       S  323   0.805   5.820   5.578 -0.5279  0.3642  0.0787
    1AU     LIG  324   0.774   5.368   5.450  0.1086 -0.0267  0.1696
    1AU     LIG  325   0.739   4.914   5.507  0.1687 -0.1778  0.2664
    1AU     LIG  326   0.730   4.734   5.817 -0.0992  0.1959  0.0155
    1AU       S  327   0.114   5.760   6.033  0.3889  0.2222  0.1388
    1AU     LIG  328   0.398   5.630   6.302 -0.2804  0.4562  0.0776
    1AU     LIG  329   0.563   5.228   6.224  0.2870  0.0167  0.2582
    1AU     LIG  330   0.866   5.205   6.053  0.1336 -0.0363 -0.3980
    1AU    AUSL  331   0.976   6.213   5.796 -0.0853 -0.1133 -0.0700
    1AU    AUSL  332   0.783   6.597   5.589 -0.0588  0.0404 -0.1009
    1AU     AUL  333   0.669   6.270   5.519  0.0263 -0.0164  0.0199
    1AU       S  334   1.051   6.535   5.392  0.1071 -0.1202 -0.0157
    1AU     LIG  335   0.786   6.461   5.102  0.0320  0.1358 -0.0274
    1AU     LIG  336   0.353   6.369   5.079  0.2078 -0.4661 -0.3108
    1AU     LIG  337  -0.099   6.346   4.749  0.0244 -0.2158 -0.0795
    1AU       S  338   1.003   6.035   5.717  0.0673 -0.2672  0.1192
    1AU     LIG  339   1.370   5.766   5.716 -0.2325 -0.1980  0.1883
    1AU     LIG  340   1.684   5.796   6.001 -0.2958 -0.1448 -0.3597
    1AU     LIG  341   1.886   5.559   6.282  0.0336  0.0089  0.1410
    1AU    AUSL  342   0.423   7.655   6.741 -0.0599 -0.0358 -0.1115
    1AU    AUSL  343   0.719   7.293   7.064  0.0389 -0.0161  0.0583
    1AU     AUL  344   0.596   7.675   7.014 -0.0722  0.0259 -0.0590
    1AU       S  345   0.136   7.906   7.004  0.0851 -0.3577  0.1010
    1AU     LIG  346   0.364   8.316   6.675 -0.1073 -0.1162 -0.2922
    1AU     LIG  347   0.452   8.726   6.669 -0.1498 -0.1525 -0.0013
    1AU     LIG  348   0.651   9.019   6.555 -0.0857  0.0227  0.2896
    1AU       S  349   0.857   7.450   7.305 -0.0662  0.3610  0.0739
    1AU     LIG  350   0.619   7.274   7.567  0.0467 -0.0039 -0.1892
    1AU     LIG  351   0.451   7.097   7.859 -0.0584  0.0687 -0.1490
    1AU     LIG  352   0.108   6.919   7.928 -0.1257  0.1319 -0.3876
    1AU    AUSL  353   0.099   7.361   6.776  0.0791  0.0510 -0.0573
    1AU    AUSL  354   0.309   7.497   6.367  0.0594 -0.0048  0.0095
    1AU     AUL  355   0.181   7.760   6.586  0.0926  0.1098  0.0254
    1AU       S  356  -0.070   7.673   6.950  0.0317 -0.7253  0.2940
    1AU     LIG  357  -0.484   7.839   7.329 -0.1152  0.1248  0.2813
    1AU     LIG  358  -0.840   7.827   7.177 -0.4709  0.1183  0.0347
    1AU     LIG  359  -1.048   7.422   7.250 -0.0602 -0.2024  0.1633
    1AU       S  360   0.011   7.962   6.196 -0.2294  0.3191 -0.2261
    1AU     LIG  361  -0.074   8.317   6.395  0.1723  0.0540  0.0879
    1AU     LIG  362   0.080   8.697   6.324 -0.1496  0.0693  0.0159
    1AU     LIG  363   0.234   9.181   6.420  0.0458 -0.0740  0.0629
    1AU    AUSL  364   1.008   6.977   5.637 -0.0287  0.0741  0.0258
    1AU    AUSL  365   0.377   6.685   5.520 -0.0438  0.0241  0.0025
    1AU     AUL  366   0.727   6.882   5.390 -0.0448 -0.0076  0.0259
    1AU       S  367   0.270   6.888   5.274 -0.1551  0.1331  0.1354
    1AU     LIG  368  -0.098   6.742   5.108 -0.1063  0.0567  0.0681
    1AU     LIG  369  -0.464   6.750   5.029 -0.3096  0.1500  0.3756
    1AU     LIG  370  -0.820   6.686   4.750  0.1868  0.7024  0.0802
    1AU       S  371   1.202   6.756   5.310 -0.2599  0.1071 -0.1306
    1AU     LIG  372   1.437   7.083   5.371  0.0672  0.2185 -0.2566
    1AU     LIG  373   1.736   7.388   5.420  0.1479 -0.3021  0.0599
    1AU     LIG  374   1.996   7.710   5.698  0.3026 -0.2511  0.0522
    1AU    AUSL  375   1.006   6.591   5.959 -0.0287  0.0178  0.0380
    1AU    AUSL  376   1.074   7.036   6.053  0.0141  0.0372 -0.0340
    1AU     AUL  377   1.287   6.778   5.781  0.0291  0.0263  0.0275
    1AU       S  378   1.220   6.444   5.447  0.2515 -0.0681 -0.2879
    1AU     LIG  379   1.146   6.096   5.222 -0.1025  0.3292 -0.1500
    1AU     LIG  380   1.106   5.649   5.118  0.0311 -0.1490 -0.1305
    1AU     LIG  381   1.196   5.368   5.029 -0.0725 -0.1930  0.0456
    1AU       S  382   1.418   7.209   5.826  0.2011 -0.0363 -0.1697
    1AU     LIG  383   1.539   7.649   5.934  0.2557  0.0234 -0.1397
    1AU     LIG  384   1.580   8.011   5.925  0.0942  0.0521 -0.1120
    1AU     LIG  385   1.589   8.403   6.083 -0.2609 -0.1871 -0.1959
    2POPC   NC3  386   7.273   8.617   8.390 -0.0063  0.1494  0.0421
    2POPC   PO4  387   6.952   8.837   8.555  0.0653  0.2702  0.1606
    2POPC   GL1  388   6.845   8.827   8.169  0.2999 -0.0571 -0.0463
    2POPC   GL2  389   6.919   8.485   8.099 -0.1973  0.0241  0.0301
    2POPC   C1A  390   6.632   8.870   7.801  0.0907  0.1508 -0.0769
    2POPC   D2A  391   6.642   8.611   7.399 -0.2779  0.0981  0.2673
    2POPC   C3A  392   6.846   8.781   6.973 -0.0463 -0.0311  0.0690
    2POPC   C4A  393   6.901   8.908   6.606 -0.0032  0.3450  0.2146
    2POPC   C1B  394   7.054   8.677   7.660 -0.2533 -0.0716  0.3724
    2POPC   C2B  395   7.272   8.742   7.314 -0.2344  0.4042  0.3354
    2POPC   C3B  396   7.409   8.625   6.827 -0.0167  0.1467 -0.0735
    2POPC   C4B  397   7.646   8.229   6.701 -0.1395 -0.0787 -0.0363
    3POPC   NC3  398   1.322   8.250   8.672  0.0691 -0.1172  0.1394
    3POPC   PO4  399   0.903   8.192   8.885 -0.1715  0.2008  0.0526
    3POPC   GL1  400   0.468   8.159   8.600 -0.1315  0.4583 -0.0263
    3POPC   GL2  401   0.262   8.147   8.811 -0.0656  0.0917 -0.0607
    3POPC   C1A  402   0.274   8.280   8.212 -0.2619  0.0295 -0.0252
    3POPC   D2A  403  -0.013   8.359   7.906 -0.1144 -0.2051 -0.1568
    3POPC   C3A  404  -0.007   8.650   7.680  0.0289 -0.1514 -0.0516
    3POPC   C4A  405   0.211   8.662   7.206  0.2531 -0.0666 -0.1587
    3POPC   C1B  406   0.005   7.845   8.554  0.2667 -0.0508  0.1842
    3POPC   C2B  407  -0.413   7.766   8.249  0.2989 -0.0759 -0.1055
    3POPC   C3B  408  -0.792   7.759   7.958  0.2677 -0.0391 -0.3186
    3POPC   C4B  409  -1.047   7.740   7.618 -0.3825 -0.1524  0.0883
    4POPC   NC3  410   1.859   8.768   8.361  0.2583  0.1881  0.0929
    4POPC   PO4  411   1.814   8.354   8.546  0.0035 -0.0082  0.0180
    4POPC   GL1  412   1.619   8.229   8.061 -0.2386  0.3350  0.1033
    4POPC   GL2  413   1.746   7.925   7.982  0.1675  0.1229  0.1274
    4POPC   C1A  414   1.257   8.111   7.982 -0.1166 -0.1766  0.0097
    4POPC   D2A  415   1.143   7.946   7.688  0.1022 -0.2937 -0.2153
    4POPC   C3A  416   0.917   7.629   7.795  0.0611 -0.1377 -0.1165
    4POPC   C4A  417   1.065   7.246   7.762 -0.1702  0.0397 -0.0906
    4POPC   C1B  418   1.654   7.944   7.536 -0.2698 -0.2075  0.2297
    4POPC   C2B  419   1.481   8.129   7.202 -0.0437 -0.2969 -0.0224
    4POPC   C3B  420   1.363   8.087   6.838 -0.0264  0.1180  0.0646
    4POPC   C4B  421   1.613   7.806   6.472 -0.4415  0.0963  0.0850
    5POPC   NC3  422   5.585   0.771   8.076  0.1266  0.2039  0.2490
    5POPC   PO4  423   5.723   0.985   7.810 -0.0765 -0.2516  0.0372
    5POPC   GL1  424   5.940   1.148   7.446 -0.1004  0.1304  0.4124
    5POPC   GL2  425   6.125   0.793   7.481  0.0922  0.3109  0.0747
    5POPC   C1A  426   6.142   1.490   7.264 -0.2465  0.1631  0.1095
    5POPC   D2A  427   5.997   1.845   7.144 -0.1089 -0.0848 -0.1289
    5POPC   C3A  428   6.108   2.247   6.990 -0.0138  0.0391  0.0726
    5POPC   C4A  429   6.264   2.590   6.733 -0.2551 -0.0870  0.0938
    5POPC   C1B  430   6.051   0.494   7.142 -0.1815  0.2497 -0.0291
    5POPC   C2B  431   6.159   0.451   6.753 -0.2439 -0.3611 -0.0630
    5POPC   C3B  432   6.091   0.209   6.274 -0.0356 -0.0212 -0.0103
    5POPC   C4B  433   5.773  -0.022   5.936  0.0393  0.2008 -0.2596
    6POPC   NC3  434   5.875   0.454   7.768  0.0256  0.2837 -0.2604
    6POPC   PO4  435   5.660   0.110   8.007 -0.3363  0.0492  0.2250
    6POPC   GL1  436   5.627  -0.073   7.540  0.5578 -0.0434 -0.1260
    6POPC   GL2  437   5.599   0.224   7.363 -0.2892  0.0593 -0.0602
    6POPC   C1A  438   5.593  -0.263   7.245 -0.1735 -0.1193 -0.0514
    6POPC   D2A  439   5.381  -0.621   7.064 -0.0448 -0.1820  0.2072
    6POPC   C3A  440   5.356  -1.043   7.070 -0.1366  0.0641  0.1484
    6POPC   C4A  441   5.111  -1.339   7.236  0.2164  0.0989 -0.4371
    6POPC   C1B  442   5.265   0.289   7.093  0.1036 -0.0618 -0.1729
    6POPC   C2B  443   5.138   0.239   6.681  0.0938 -0.0559 -0.1541
    6POPC   C3B  444   5.185   0.076   6.313  0.0905 -0.4874  0.0738
    6POPC   C4B  445   5.372  -0.302   6.186  0.2167 -0.1626 -0.3042
    7POPC   NC3  446   9.173   8.891   8.868  0.1189  0.0625  0.0688
    7POPC   PO4  447   9.134   8.477   8.978 -0.3768 -0.0631 -0.2004
    7POPC   GL1  448   8.937   8.291   8.705 -0.0487  0.3186  0.1887
    7POPC   GL2  449   9.233   8.108   8.650 -0.0478  0.0624 -0.2023
    7POPC   C1A  450   8.904   8.170   8.153  0.1240 -0.4086  0.4204
    7POPC   D2A  451   8.980   8.151   7.686 -0.1591  0.1782  0.3437
    7POPC   C3A  452   9.386   7.990   7.807 -0.1438 -0.0849  0.4342
    7POPC   C4A  453   9.776   7.866   8.047 -0.1491  0.2454 -0.0254
    7POPC   C1B  454   9.536   8.260   8.316 -0.2541  0.1584 -0.0053
    7POPC   C2B  455   9.245   8.455   7.936 -0.0637  0.0813  0.2259
    7POPC   C3B  456   9.221   8.640   7.511  0.2366 -0.0933  0.0331
    7POPC   C4B  457   9.230   8.415   7.082 -0.1166  0.5179 -0.2236
    8POPC   NC3  458   4.077   4.154   8.652  0.1219  0.1320  0.3915
    8POPC   PO4  459   3.778   4.288   8.301 -0.0806  0.0157  0.2714
    8POPC   GL1  460   3.710   4.507   7.908 -0.3233 -0.5251 -0.2712
    8POPC   GL2  461   3.640   4.790   7.791 -0.0343  0.0491 -0.0277
    8POPC   C1A  462   3.736   4.316   7.573  0.2018  0.5708 -0.4259
    8POPC   D2A  463   3.582   3.774   7.494  0.0744 -0.3951 -0.0898
    8POPC   C3A  464   3.368   3.731   7.158 -0.1946  0.1183 -0.3517
    8POPC   C4A  465   3.285   3.776   6.712  0.0137  0.0194 -0.3738
    8POPC   C1B  466   3.787   5.122   7.490 -0.0839  0.0977  0.0278
    8POPC   C2B  467   3.502   5.237   7.130  0.2009 -0.2160  0.2595
    8POPC   C3B  468   3.183   5.018   6.890  0.0100  0.0640 -0.0452
    8POPC   C4B  469   3.158   4.744   6.514  0.0924  0.1531 -0.2058
    9POPC   NC3  470   7.425   7.492   8.991 -0.4133 -0.1412  0.0671
    9POPC   PO4  471   7.513   7.924   8.666  0.1217  0.1035 -0.2298
    9POPC   GL1  472   7.463   7.978   8.284 -0.0685 -0.1397 -0.0380
    9POPC   GL2  473   7.340   8.243   8.105  0.3063  0.0954  0.2647
    9POPC   C1A  474   7.715   7.838   7.919 -0.1685  0.1470 -0.1767
    9POPC   D2A  475   8.083   7.612   7.703 -0.0457 -0.3211  0.0789
    9POPC   C3A  476   8.241   7.559   7.329 -0.4061 -0.0895 -0.0185
    9POPC   C4A  477   8.304   7.431   6.834  0.1721 -0.1770  0.0271
    9POPC   C1B  478   7.085   8.206   7.614  0.1327 -0.0828 -0.0849
    9POPC   C2B  479   6.983   8.262   7.241 -0.1579 -0.2344 -0.1947
    9POPC   C3B  480   7.020   8.301   6.821 -0.0077 -0.0106 -0.2389
    9POPC   C4B  481   7.214   8.376   6.373  0.0556 -0.1779  0.0363
   10POPC   NC3  482   2.215   2.805   8.116  0.3572 -0.1093  0.1293
   10POPC   PO4  483   2.247   3.132   7.851 -0.0310  0.0853  0.0431
   10POPC   GL1  484   1.995   3.070   7.489  0.2844  0.4076  0.0815
   10POPC   GL2  485   1.705   3.041   7.585  0.3693  0.2321  0.1958
   10POPC   C1A  486   1.857   3.019   7.088 -0.0067 -0.0898 -0.3778
   10POPC   D2A  487   1.787   3.139   6.675  0.1495  0.1984 -0.2800
   10POPC   C3A  488   1.684   3.115   6.262 -0.0427  0.1869 -0.1001
   10POPC   C4A  489   2.071   3.034   6.047 -0.0818  0.2581  0.1365
   10POPC   C1B  490   1.486   2.613   7.450  0.1192 -0.1498  0.3087
   10POPC   C2B  491   1.388   2.236   7.085  0.3684 -0.1176  0.3372
   10POPC   C3B  492   1.244   2.242   6.747  0.3013 -0.0723  0.1258
   10POPC   C4B  493   1.176   2.497   6.321  0.2137  0.1580  0.0216
   11POPC   NC3  494   1.305   9.258   8.889  0.0401  0.0892 -0.3438
   11POPC   PO4  495   1.435   9.058   8.524 -0.0188  0.3797  0.0868
   11POPC   GL1  496   1.311   9.103   8.136  0.1777  0.0193  0.2848
   11POPC   GL2  497   1.156   9.319   7.974 -0.1671  0.0202  0.0320
   11POPC   C1A  498   1.518   8.964   7.687  0.1322 -0.1448 -0.3580
   11POPC   D2A  499   1.565   9.238   7.309  0.4476 -0.0588 -0.0634
   11POPC   C3A  500   1.206   9.550   7.389  0.0775  0.1183  0.1295
   11POPC   C4A  501   0.974   9.937   7.091 -0.2275 -0.0803 -0.3019
   11POPC   C1B  502   0.887   9.237   7.577 -0.2156 -0.1189 -0.1190
   11POPC   C2B  503   1.079   8.914   7.325 -0.0313  0.1217  0.0454
   11POPC   C3B  504   1.179   8.848   6.951 -0.0856  0.0319 -0.0391
   11POPC   C4B  505   0.964   8.585   6.651  0.0927 -0.1645  0.2773
   12POPC   NC3  506   4.890   3.569   8.151 -0.2024  0.1067 -0.0057
   12POPC   PO4  507   5.222   3.792   8.056  0.0701  0.1571 -0.2856
   12POPC   GL1  508   5.138   3.634   7.612  0.0594 -0.3139 -0.1345
   12POPC   GL2  509   4.764   3.511   7.632 -0.0036 -0.0609  0.0211
   12POPC   C1A  510   5.076   3.892   7.223 -0.1166  0.5086 -0.2962
   12POPC   D2A  511   4.857   3.752   6.760 -0.1964 -0.3073 -0.0556
   12POPC   C3A  512   4.900   3.842   6.286 -0.3412  0.0182  0.4476
   12POPC   C4A  513   5.129   3.640   5.915 -0.0280 -0.1031 -0.0265
   12POPC   C1B  514   4.841   3.410   7.258 -0.2568 -0.0503 -0.1728
   12POPC   C2B  515   4.727   3.285   6.987  0.0244 -0.3324  0.0678
   12POPC   C3B  516   4.974   3.045   6.602  0.2215  0.1242  0.2233
   12POPC   C4B  517   4.889   3.244   6.142 -0.0712  0.0335  0.2420
   13POPC   NC3  518   7.641   9.423   8.307 -0.0525 -0.1399 -0.4039
   13POPC   PO4  519   8.136   9.293   8.201  0.0473  0.3250 -0.2426
   13POPC   GL1  520   7.995   9.267   7.774 -0.2502  0.0643  0.0304
   13POPC   GL2  521   8.399   9.181   7.574  0.0838  0.2321 -0.1767
   13POPC   C1A  522   7.977   9.288   7.322  0.0846  0.0452 -0.0655
   13POPC   D2A  523   8.241   9.088   7.010  0.1038  0.2208 -0.3104
   13POPC   C3A  524   8.155   9.148   6.582  0.0090  0.1752  0.1832
   13POPC   C4A  525   8.285   9.432   6.288 -0.2907  0.2633  0.0653
   13POPC   C1B  526   8.662   8.963   7.336 -0.0329 -0.1754 -0.1905
   13POPC   C2B  527   8.997   8.824   7.093  0.0812 -0.1624  0.0925
   13POPC   C3B  528   9.037   8.628   6.605 -0.1071 -0.3694  0.2146
   13POPC   C4B  529   9.201   8.438   6.273  0.1296 -0.7730 -0.0055
   14POPC   NC3  530   2.893   1.107   8.245 -0.0421  0.1342 -0.0561
   14POPC   PO4  531   3.222   0.745   8.043  0.0259  0.0480  0.0737
   14POPC   GL1  532   3.149   0.904   7.576  0.1264  0.2619 -0.1938
   14POPC   GL2  533   2.827   0.876   7.533  0.0883  0.1814  0.0037
   14POPC   C1A  534   3.187   0.817   7.126  0.3880  0.3499  0.3376
   14POPC   D2A  535   3.085   0.544   6.859 -0.2844  0.0195 -0.4543
   14POPC   C3A  536   2.964   0.677   6.440 -0.1878 -0.2398  0.1352
   14POPC   C4A  537   2.860   0.732   6.057 -0.2159  0.1616  0.1395
   14POPC   C1B  538   2.661   0.709   7.203  0.0954 -0.0136  0.2008
   14POPC   C2B  539   2.587   0.596   6.809 -0.3883  0.1977 -0.3910
   14POPC   C3B  540   2.494   0.471   6.335 -0.0596 -0.0316  0.2335
   14POPC   C4B  541   2.496   0.055   6.191 -0.0401  0.4086 -0.1066
   15POPC   NC3  542   3.449   0.227   8.046 -0.1119 -0.0871  0.0479
   15POPC   PO4  543   3.309  -0.169   8.074 -0.0236 -0.1530 -0.1036
   15POPC   GL1  544   3.236  -0.560   7.775 -0.0628 -0.0218 -0.4512
   15POPC   GL2  545   2.994  -0.677   7.802 -0.1416 -0.2792  0.2368
   15POPC   C1A  546   3.163  -0.401   7.312 -0.1281  0.0068  0.0255
   15POPC   D2A  547   3.578  -0.282   7.161 -0.0558 -0.0004 -0.0409
   15POPC   C3A  548   3.940  -0.581   7.381 -0.0240  0.0958 -0.2272
   15POPC   C4A  549   4.210  -0.790   7.167  0.2459  0.0540 -0.1825
   15POPC   C1B  550   2.722  -0.751   7.349 -0.0816 -0.4793  0.0219
   15POPC   C2B  551   2.694  -0.772   6.909 -0.0870 -0.1222 -0.1409
   15POPC   C3B  552   2.529  -0.782   6.558  0.0663 -0.2071  0.0723
   15POPC   C4B  553   2.506  -0.813   6.116  0.0646 -0.0938 -0.2443
   16POPC   NC3  554   1.544   4.978   8.832  0.0162  0.1374  0.0544
   16POPC   PO4  555   1.518   4.674   8.547  0.0732 -0.2418  0.0730
   16POPC   GL1  556   1.576   4.687   8.119  0.1406  0.3748 -0.5774
   16POPC   GL2  557   1.222   4.845   8.177 -0.2257 -0.1314 -0.1038
   16POPC   C1A  558   1.511   4.954   7.781  0.0122 -0.1988  0.4100
   16POPC   D2A  559   1.764   4.933   7.423 -0.0418 -0.0218 -0.4407
   16POPC   C3A  560   1.446   5.272   7.328  0.0289  0.3078 -0.0801
   16POPC   C4A  561   1.101   5.329   6.995  0.3174  0.3918 -0.2082
   16POPC   C1B  562   1.176   4.602   7.800 -0.0922 -0.1730  0.3928
   16POPC   C2B  563   1.291   4.640   7.391 -0.4244 -0.2181 -0.1357
   16POPC   C3B  564   1.472   4.812   7.117 -0.1442 -0.2637 -0.2114
   16POPC   C4B  565   1.428   4.948   6.697 -0.0740  0.0332  0.0936
   17POPC   NC3  566   9.004   1.331   7.622 -0.2206  0.0958  0.1124
   17POPC   PO4  567   8.707   1.443   7.862 -0.0842 -0.2128 -0.1892
   17POPC   GL1  568   8.653   1.575   7.413  0.0367  0.1189 -0.2826
   17POPC   GL2  569   8.832   1.270   7.133 -0.1137 -0.0608  0.0842
   17POPC   C1A  570   8.705   1.855   7.034 -0.0226  0.3274 -0.0361
   17POPC   D2A  571   8.994   2.145   6.920  0.0700 -0.0481  0.1052
   17POPC   C3A  572   8.908   2.314   6.522 -0.1330 -0.1315  0.0242
   17POPC   C4A  573   9.334   2.025   6.243  0.1714 -0.1139 -0.0358
   17POPC   C1B  574   9.145   1.176   6.821 -0.4229 -0.0960  0.1197
   17POPC   C2B  575   9.444   1.056   6.420  0.0729 -0.1803 -0.0177
   17POPC   C3B  576   9.250   1.141   6.059  0.1553 -0.2906 -0.1704
   17POPC   C4B  577   9.262   1.313   5.629  0.0091 -0.2740 -0.0521
   18POPC   NC3  578   4.197   1.372   7.965 -0.0738 -0.1175  0.0517
   18POPC   PO4  579   4.614   1.478   8.024 -0.1488  0.1094  0.0846
   18POPC   GL1  580   4.671   1.446   7.562  0.1158 -0.2245  0.0082
   18POPC   GL2  581   4.356   1.394   7.371  0.3986 -0.2684 -0.2551
   18POPC   C1A  582   4.969   1.362   7.178  0.0166 -0.2654  0.0514
   18POPC   D2A  583   5.116   1.156   6.791  0.0634 -0.0189  0.1802
   18POPC   C3A  584   5.469   1.318   6.464  0.0526 -0.0080 -0.1126
   18POPC   C4A  585   5.785   1.423   6.287  0.0542  0.1843  0.2559
   18POPC   C1B  586   4.383   1.678   7.102 -0.2441  0.0980  0.1155
   18POPC   C2B  587   4.598   1.451   6.740  0.3092 -0.0247  0.0686
   18POPC   C3B  588   4.604   1.658   6.236  0.1985 -0.2329  0.1244
   18POPC   C4B  589   4.822   1.714   5.881  0.2708  0.1439  0.1919
   19POPC   NC3  590   7.931   3.188   8.145 -0.0043 -0.0395  0.4055
   19POPC   PO4  591   7.715   3.557   8.255  0.2279  0.4076 -0.0976
   19POPC   GL1  592   8.024   3.747   7.968  0.2090  0.1723  0.1987
   19POPC   GL2  593   8.172   3.990   8.062 -0.0674  0.0094 -0.1854
   19POPC   C1A  594   8.088   3.758   7.543 -0.0997 -0.1818  0.0098
   19POPC   D2A  595   8.233   3.823   7.096 -0.1140 -0.0839 -0.2476
   19POPC   C3A  596   8.396   3.772   6.744 -0.2853 -0.0315  0.0452
   19POPC   C4A  597   8.748   3.631   6.583  0.0946 -0.0574  0.1490
   19POPC   C1B  598   8.181   4.341   7.765 -0.0406 -0.0625 -0.0289
   19POPC   C2B  599   8.062   4.481   7.426  0.1074 -0.1327  0.1575
   19POPC   C3B  600   8.000   4.693   7.018  0.2451  0.1993  0.2145
   19POPC   C4B  601   8.128   4.989   6.758  0.0916 -0.3123 -0.0884
   20POPC   NC3  602   8.717   2.623   8.063 -0.0541 -0.1781 -0.1981
   20POPC   PO4  603   8.244   2.760   8.065 -0.1259 -0.1033 -0.1530
   20POPC   GL1  604   7.934   2.828   7.711  0.4096  0.4480  0.0133
   20POPC   GL2  605   7.639   2.564   7.550 -0.0571 -0.0082 -0.0102
   20POPC   C1A  606   8.061   2.947   7.248  0.3766  0.1830 -0.3806
   20POPC   D2A  607   8.074   2.993   6.782  0.1484 -0.1461  0.2200
   20POPC   C3A  608   7.704   2.987   6.612  0.2511 -0.2127  0.1297
   20POPC   C4A  609   7.363   2.923   6.148 -0.1279  0.0611 -0.0041
   20POPC   C1B  610   7.678   2.651   7.075 -0.3839  0.1236  0.0918
   20POPC   C2B  611   7.442   2.547   6.634  0.1230  0.0737 -0.2692
   20POPC   C3B  612   7.127   2.612   6.470  0.1909 -0.0330 -0.2393
   20POPC   C4B  613   6.719   2.664   6.248  0.2714 -0.3895 -0.0011
   21POPC   NC3  614   2.915   6.573   8.934  0.4232  0.1437 -0.1370
   21POPC   PO4  615   2.951   6.100   8.992  0.0335  0.6309 -0.0709
   21POPC   GL1  616   2.775   6.225   8.624  0.4025  0.2472  0.4512
   21POPC   GL2  617   2.878   6.164   8.307 -0.1263 -0.1354 -0.0371
   21POPC   C1A  618   2.400   6.051   8.368  0.0788 -0.0547 -0.1824
   21POPC   D2A  619   2.367   5.847   7.941 -0.0394 -0.1496  0.0048
   21POPC   C3A  620   2.413   6.002   7.507  0.0307  0.0355  0.0587
   21POPC   C4A  621   2.407   6.320   7.269  0.2833 -0.0419  0.1216
   21POPC   C1B  622   2.658   6.295   8.017  0.4337  0.1138  0.0551
   21POPC   C2B  623   2.385   6.424   7.775  0.4494 -0.1010 -0.2186
   21POPC   C3B  624   2.494   6.770   7.455  0.0309 -0.0245 -0.4737
   21POPC   C4B  625   2.673   7.191   7.661  0.1236  0.3173  0.2306
   22POPC   NC3  626   0.206   0.889   7.895  0.0853 -0.0773  0.1489
   22POPC   PO4  627   0.558   0.923   8.102  0.1790 -0.0699 -0.1974
   22POPC   GL1  628   0.614   0.736   7.674  0.0047  0.1107  0.3430
   22POPC   GL2  629   0.373   0.676   7.439 -0.3553  0.5252 -0.1181
   22POPC   C1A  630   0.796   0.575   7.273 -0.2081  0.0673  0.0763
   22POPC   D2A  631   0.710   0.536   6.824  0.2913 -0.1738 -0.2409
   22POPC   C3A  632   1.090   0.451   6.560  0.1396  0.1742  0.4134
   22POPC   C4A  633   1.397   0.601   6.247  0.1229 -0.2745  0.3638
   22POPC   C1B  634   0.168   0.758   7.070  0.0138 -0.0974 -0.0402
   22POPC   C2B  635   0.150   0.906   6.628  0.2219 -0.5329 -0.0918
   22POPC   C3B  636   0.483   1.194   6.448  0.0389 -0.0759 -0.0209
   22POPC   C4B  637   0.721   1.577   6.403 -0.1706 -0.1054 -0.1586
   23POPC   NC3  638   4.446   7.604   8.468  0.0817 -0.0892 -0.1333
   23POPC   PO4  639   4.313   7.442   8.087  0.0298  0.2047 -0.1121
   23POPC   GL1  640   4.350   7.581   7.716  0.0296 -0.1385 -0.5313
   23POPC   GL2  641   4.046   7.848   7.701 -0.3967  0.3769  0.0702
   23POPC   C1A  642   4.549   7.609   7.340  0.2528  0.0129  0.1467
   23POPC   D2A  643   4.426   7.570   6.921 -0.1989  0.4311 -0.4416
   23POPC   C3A  644   4.765   7.387   6.656  0.1164  0.2547 -0.0161
   23POPC   C4A  645   4.797   6.934   6.590  0.1535 -0.2422 -0.0190
   23POPC   C1B  646   4.157   7.909   7.325 -0.0211 -0.3364  0.1553
   23POPC   C2B  647   4.206   8.261   6.953  0.2619 -0.1579  0.1532
   23POPC   C3B  648   4.477   8.434   6.562  0.0104  0.3686  0.0657
   23POPC   C4B  649   4.680   8.606   6.298 -0.2416  0.0786 -0.0717
   24POPC   NC3  650   0.213   1.499   8.640 -0.3456 -0.0731 -0.1692
   24POPC   PO4  651   0.385   1.798   8.326  0.1806 -0.3047  0.3007
   24POPC   GL1  652   0.685   1.693   7.924  0.1578 -0.0550 -0.2708
   24POPC   GL2  653   0.432   1.635   7.573  0.0250  0.5724  0.1479
   24POPC   C1A  654   0.937   1.649   7.583  0.0199 -0.0204 -0.0050
   24POPC   D2A  655   1.382   1.764   7.282 -0.1023 -0.1387 -0.0414
   24POPC   C3A  656   1.434   1.733   6.857  0.1202  0.1888  0.2198
   24POPC   C4A  657   1.089   1.430   6.640 -0.1094  0.1211 -0.1935
   24POPC   C1B  658   0.420   1.855   7.296 -0.2893 -0.1803  0.1192
   24POPC   C2B  659   0.374   1.988   6.799  0.2002  0.0019  0.0740
   24POPC   C3B  660   0.688   2.001   6.579  0.3247  0.0607 -0.0782
   24POPC   C4B  661   1.106   1.939   6.341 -0.0443  0.0493 -0.1643
   25POPC   NC3  662   0.251   4.593   8.616  0.1672 -0.2883  0.1841
   25POPC   PO4  663   0.008   4.379   8.462 -0.2280  0.1634  0.2503
   25POPC   GL1  664   0.197   4.490   8.108  0.1072 -0.1054  0.0759
   25POPC   GL2  665   0.554   4.359   8.007  0.0979  0.2838 -0.1684
   25POPC   C1A  666   0.163   4.689   7.683 -0.3894  0.1772  0.1611
   25POPC   D2A  667  -0.048   4.436   7.330  0.0565 -0.0386 -0.5958
   25POPC   C3A  668  -0.320   4.086   7.358 -0.3503  0.1780  0.0794
   25POPC   C4A  669  -0.476   3.643   7.494  0.1708 -0.0805  0.1062
   25POPC   C1B  670   0.386   4.148   7.636 -0.2395  0.0876  0.2585
   25POPC   C2B  671   0.387   4.100   7.111 -0.0768  0.0343 -0.0975
   25POPC   C3B  672   0.033   3.959   6.974 -0.0609 -0.1736  0.3073
   25POPC   C4B  673  -0.039   3.696   6.628  0.0109  0.0943  0.2425
   26POPC   NC3  674   6.530   1.326   8.167 -0.0761 -0.2983 -0.0244
   26POPC   PO4  675   6.801   1.487   7.846  0.0175 -0.1004  0.2021
   26POPC   GL1  676   7.068   1.224   7.499  0.2320 -0.0348 -0.2007
   26POPC   GL2  677   7.329   1.326   7.508  0.0355  0.1109  0.0916
   26POPC   C1A  678   6.899   0.973   7.169  0.1131  0.3448 -0.2185
   26POPC   D2A  679   6.789   1.036   6.773 -0.0483  0.0829 -0.1354
   26POPC   C3A  680   7.237   1.098   6.578 -0.1385 -0.2966 -0.1230
   26POPC   C4A  681   7.641   1.458   6.721 -0.1576  0.2417 -0.2179
   26POPC   C1B  682   7.448   1.110   7.124  0.1095  0.0860 -0.1452
   26POPC   C2B  683   7.244   0.710   6.901  0.2202  0.1110 -0.1729
   26POPC   C3B  684   7.157   0.252   6.639  0.0809 -0.1145 -0.1492
   26POPC   C4B  685   7.398  -0.114   6.660  0.0405  0.1047  0.1741
   27POPC   NC3  686   6.554   5.327   8.251 -0.0689  0.1448  0.1981
   27POPC   PO4  687   6.382   4.944   8.233 -0.2224 -0.0755  0.1037
   27POPC   GL1  688   6.485   5.040   7.809 -0.0402  0.2273 -0.1182
   27POPC   GL2  689   6.288   4.977   7.592 -0.1756 -0.0597 -0.1368
   27POPC   C1A  690   6.661   4.868   7.336  0.0448 -0.0914 -0.1939
   27POPC   D2A  691   6.733   5.076   6.924 -0.2439  0.0041 -0.0937
   27POPC   C3A  692   6.931   5.305   6.614  0.1029  0.0587  0.3676
   27POPC   C4A  693   6.958   5.438   6.180  0.1318 -0.1051  0.1300
   27POPC   C1B  694   6.208   5.156   7.182  0.0726 -0.2973  0.0480
   27POPC   C2B  695   6.247   5.064   6.797 -0.2440  0.1072  0.1561
   27POPC   C3B  696   6.187   4.975   6.417  0.3361 -0.2737 -0.1308
   27POPC   C4B  697   5.888   5.164   6.038  0.0516  0.1702 -0.1545
   28POPC   NC3  698   6.786   9.338   8.219 -0.0984  0.0422  0.1310
   28POPC   PO4  699   6.639   9.756   8.341 -0.1012 -0.0103  0.0353
   28POPC   GL1  700   6.726   9.762   7.850  0.5565 -0.1959 -0.0155
   28POPC   GL2  701   6.886   9.951   7.653  0.2246 -0.1621 -0.3111
   28POPC   C1A  702   6.526   9.690   7.341 -0.0512 -0.3012  0.0161
   28POPC   D2A  703   6.551   9.796   6.961  0.1342 -0.1289 -0.0798
   28POPC   C3A  704   6.792   9.544   6.644  0.2169 -0.3714  0.2255
   28POPC   C4A  705   6.968   9.296   6.372  0.2324 -0.1098  0.0059
   28POPC   C1B  706   7.108   9.655   7.528  0.1142  0.0019  0.3907
   28POPC   C2B  707   7.433   9.459   7.256  0.0370  0.0942 -0.1166
   28POPC   C3B  708   7.821   9.563   6.970  0.0507  0.4667 -0.1791
   28POPC   C4B  709   8.208   9.619   6.718  0.2183 -0.2581 -0.1154
   29POPC   NC3  710   6.557   4.022   7.856 -0.2715  0.0618 -0.2880
   29POPC   PO4  711   6.892   4.048   8.147 -0.4531  0.2567 -0.1811
   29POPC   GL1  712   7.033   4.243   7.859  0.1513 -0.1392 -0.0321
   29POPC   GL2  713   6.930   4.506   7.821  0.1249  0.1923  0.1119
   29POPC   C1A  714   7.170   4.294   7.428  0.0980 -0.0961  0.1051
   29POPC   D2A  715   7.115   4.562   7.105  0.4658  0.2857 -0.0255
   29POPC   C3A  716   7.173   4.839   6.755 -0.1049 -0.0462 -0.2646
   29POPC   C4A  717   7.607   4.947   6.726 -0.2562  0.0883  0.3102
   29POPC   C1B  718   7.165   4.816   7.586 -0.2079  0.1386  0.1262
   29POPC   C2B  719   7.228   5.072   7.281 -0.0268 -0.0805  0.1647
   29POPC   C3B  720   7.264   5.374   6.960  0.0732  0.0463 -0.0617
   29POPC   C4B  721   7.458   5.404   6.521 -0.2190 -0.1395 -0.0822
   30POPC   NC3  722   6.032   5.839   8.314  0.1288  0.0309  0.0328
   30POPC   PO4  723   6.457   5.822   8.327  0.0814  0.0434  0.1938
   30POPC   GL1  724   6.475   6.013   7.946  0.3375  0.3624 -0.1585
   30POPC   GL2  725   6.287   5.959   7.761  0.1234 -0.2211  0.2096
   30POPC   C1A  726   6.702   6.248   7.782  0.2443  0.2552  0.2509
   30POPC   D2A  727   6.927   6.355   7.425 -0.1355 -0.1466 -0.2237
   30POPC   C3A  728   6.791   6.361   6.972 -0.1230  0.0618  0.2292
   30POPC   C4A  729   6.911   6.299   6.615  0.1392 -0.0828 -0.0071
   30POPC   C1B  730   6.582   5.524   7.541  0.0243 -0.1914  0.0528
   30POPC   C2B  731   6.829   5.510   7.163 -0.1799  0.2587 -0.2482
   30POPC   C3B  732   7.006   5.926   7.064 -0.3784 -0.1935 -0.1685
   30POPC   C4B  733   7.281   6.287   7.017  0.2279 -0.0279  0.3070
   31POPC   NC3  734   2.063   8.063   9.195  0.1197  0.0534  0.0007
   31POPC   PO4  735   1.738   7.891   8.899  0.1370 -0.0246  0.1031
   31POPC   GL1  736   1.500   7.794   8.509  0.0953  0.0056  0.3825
   31POPC   GL2  737   1.723   7.608   8.428  0.0802 -0.0437  0.0865
   31POPC   C1A  738   1.315   7.549   8.113  0.0119 -0.1886 -0.0082
   31POPC   D2A  739   1.408   7.548   7.709  0.2087  0.0341 -0.0591
   31POPC   C3A  740   1.841   7.485   7.639 -0.2445  0.0808  0.0290
   31POPC   C4A  741   2.141   7.132   7.719 -0.1958  0.1288  0.1766
   31POPC   C1B  742   1.731   7.272   8.098 -0.2290  0.0612  0.0721
   31POPC   C2B  743   1.580   7.058   7.706  0.0636  0.3210 -0.0340
   31POPC   C3B  744   1.679   7.099   7.313  0.0018  0.0583 -0.1133
   31POPC   C4B  745   1.578   7.288   6.804 -0.1024  0.0002  0.1518
   32POPC   NC3  746   4.741   7.826   8.100  0.2012 -0.0661 -0.0150
   32POPC   PO4  747   5.109   7.861   8.354 -0.0138 -0.1226 -0.3739
   32POPC   GL1  748   5.109   7.491   7.959  0.0762 -0.0246  0.0684
   32POPC   GL2  749   4.763   7.331   7.877  0.1363 -0.1213 -0.0780
   32POPC   C1A  750   5.007   7.604   7.481 -0.0452  0.0048 -0.0699
   32POPC   D2A  751   5.102   7.512   7.009  0.1839  0.0741  0.0786
   32POPC   C3A  752   5.158   7.730   6.702 -0.1241  0.0763 -0.1211
   32POPC   C4A  753   5.080   7.695   6.295  0.0414 -0.3238  0.2040
   32POPC   C1B  754   4.546   7.122   7.589 -0.2419 -0.0927 -0.0580
   32POPC   C2B  755   4.548   7.106   7.098 -0.1058  0.0693 -0.2512
   32POPC   C3B  756   4.336   7.102   6.703 -0.0600  0.1759 -0.0095
   32POPC   C4B  757   4.340   6.852   6.351 -0.0118  0.4529  0.0767
   33POPC   NC3  758   6.007   3.672   8.300 -0.0882  0.1033  0.0101
   33POPC   PO4  759   5.897   3.280   8.185 -0.3657 -0.1889 -0.0961
   33POPC   GL1  760   6.008   3.478   7.683 -0.0701  0.0850 -0.0261
   33POPC   GL2  761   5.777   3.137   7.611 -0.1256  0.1067  0.2009
   33POPC   C1A  762   6.095   3.656   7.241 -0.5863  0.0552 -0.2083
   33POPC   D2A  763   6.204   4.060   7.066 -0.1853 -0.0786  0.4106
   33POPC   C3A  764   6.692   4.098   6.950  0.1228 -0.1318  0.1264
   33POPC   C4A  765   7.044   3.795   6.851 -0.0457  0.1052  0.1046
   33POPC   C1B  766   6.202   3.093   7.383  0.0191 -0.1016  0.2076
   33POPC   C2B  767   6.288   3.020   6.988 -0.1014 -0.0939 -0.2823
   33POPC   C3B  768   5.979   3.006   6.670  0.2199  0.1333 -0.1259
   33POPC   C4B  769   5.746   2.638   6.610  0.0063  0.2163  0.1432
   34POPC   NC3  770   4.902   0.682   8.248 -0.2999  0.0791 -0.2257
   34POPC   PO4  771   5.154   0.725   7.910 -0.1076 -0.3397 -0.2307
   34POPC   GL1  772   5.184   0.986   7.571 -0.1012  0.2004  0.2718
   34POPC   GL2  773   5.087   0.747   7.215 -0.2220 -0.0179 -0.2371
   34POPC   C1A  774   5.437   1.172   7.179 -0.0544 -0.1898 -0.0466
   34POPC   D2A  775   5.795   1.428   6.959  0.1425  0.0888  0.0100
   34POPC   C3A  776   5.849   1.760   6.614 -0.0395 -0.3317 -0.0386
   34POPC   C4A  777   5.913   2.194   6.377 -0.3259 -0.0649 -0.1194
   34POPC   C1B  778   4.931   0.654   6.841 -0.1776  0.2019  0.1535
   34POPC   C2B  779   4.697   1.001   6.510 -0.0687 -0.1111  0.2217
   34POPC   C3B  780   4.459   1.129   6.134 -0.0085  0.0632  0.1608
   34POPC   C4B  781   4.375   1.391   5.868  0.1184 -0.3497 -0.0528
   35POPC   NC3  782   7.245   4.467   8.205 -0.0248  0.1889  0.2079
   35POPC   PO4  783   7.367   4.887   8.397 -0.0386  0.0680  0.2086
   35POPC   GL1  784   7.440   5.015   7.998  0.0310 -0.3317  0.1047
   35POPC   GL2  785   7.585   4.672   7.946  0.2661  0.2323  0.1470
   35POPC   C1A  786   7.662   5.131   7.671  0.0239  0.0383 -0.0696
   35POPC   D2A  787   7.726   5.046   7.198 -0.0931  0.1045 -0.2337
   35POPC   C3A  788   7.773   5.349   6.930 -0.1973  0.3451 -0.0719
   35POPC   C4A  789   7.864   5.683   6.682 -0.3334 -0.4804 -0.0426
   35POPC   C1B  790   7.575   4.640   7.459  0.1528 -0.0983 -0.0130
   35POPC   C2B  791   7.582   4.482   7.119 -0.1712 -0.1651 -0.2176
   35POPC   C3B  792   7.456   4.135   6.780  0.0419  0.4172  0.0174
   35POPC   C4B  793   7.561   3.823   6.513  0.0527 -0.2125  0.1570
   36POPC   NC3  794   0.933   3.962   8.252 -0.0398  0.1169 -0.0862
   36POPC   PO4  795   1.341   3.694   8.338  0.1447  0.1757 -0.0029
   36POPC   GL1  796   1.250   3.634   7.967  0.3704 -0.3600  0.0587
   36POPC   GL2  797   1.210   3.328   7.803  0.3255 -0.1063  0.3994
   36POPC   C1A  798   1.268   3.763   7.534  0.1234 -0.1695  0.4292
   36POPC   D2A  799   1.310   3.732   7.050  0.0507  0.0463 -0.0683
   36POPC   C3A  800   1.740   3.573   6.983  0.1282  0.1570 -0.2377
   36POPC   C4A  801   2.194   3.373   7.008 -0.2090 -0.2339  0.2112
   36POPC   C1B  802   1.296   3.138   7.380  0.1326 -0.1641  0.0527
   36POPC   C2B  803   1.398   3.187   6.929  0.2343 -0.1608  0.0384
   36POPC   C3B  804   1.328   3.455   6.611 -0.0643 -0.1701  0.0813
   36POPC   C4B  805   1.471   3.700   6.262  0.0812 -0.0187  0.0730
   37POPC   NC3  806   8.815   4.019   8.816 -0.1564 -0.0447  0.1772
   37POPC   PO4  807   8.635   3.745   8.556 -0.1157 -0.1190  0.4043
   37POPC   GL1  808   8.772   3.993   8.186 -0.0701  0.3713  0.1769
   37POPC   GL2  809   8.631   3.986   7.903  0.0990 -0.2968 -0.3990
   37POPC   C1A  810   8.609   4.446   8.009  0.1748  0.2913 -0.0508
   37POPC   D2A  811   8.862   4.676   7.863  0.1587  0.0858  0.2241
   37POPC   C3A  812   8.611   4.688   7.457  0.1604 -0.1421 -0.7491
   37POPC   C4A  813   8.578   4.854   7.070 -0.0948 -0.1120  0.3021
   37POPC   C1B  814   8.577   4.177   7.491  0.0279  0.0104  0.0712
   37POPC   C2B  815   8.380   4.291   7.078 -0.0493  0.0260 -0.1184
   37POPC   C3B  816   8.519   4.401   6.716 -0.0588 -0.0362 -0.2614
   37POPC   C4B  817   8.621   4.120   6.439  0.2255  0.2792 -0.0679
   38POPC   NC3  818   9.180   5.265   8.723  0.0511 -0.1073  0.1303
   38POPC   PO4  819   9.134   5.692   8.984 -0.0533  0.3556 -0.1194
   38POPC   GL1  820   9.065   5.907   8.650 -0.1126  0.0492 -0.3196
   38POPC   GL2  821   9.008   5.747   8.355  0.0853 -0.1970 -0.0707
   38POPC   C1A  822   9.128   6.330   8.452 -0.2128 -0.1996 -0.2777
   38POPC   D2A  823   9.433   6.700   8.458  0.0859 -0.0109 -0.2669
   38POPC   C3A  824   9.808   6.483   8.225  0.0160 -0.4845 -0.0394
   38POPC   C4A  825  10.020   6.181   7.992 -0.0737 -0.0838 -0.2381
   38POPC   C1B  826   8.951   6.023   7.980  0.1180 -0.0224 -0.1725
   38POPC   C2B  827   8.845   6.006   7.544  0.1763  0.3406  0.0507
   38POPC   C3B  828   8.622   5.850   7.216  0.5541 -0.0020  0.0797
   38POPC   C4B  829   8.323   5.909   6.861  0.2685  0.2256  0.2346
   39POPC   NC3  830   8.420   1.779   8.191 -0.3535  0.1298  0.3853
   39POPC   PO4  831   8.213   1.536   7.848 -0.1144  0.0203  0.2075
   39POPC   GL1  832   7.976   1.402   7.474 -0.3219 -0.0849  0.0893
   39POPC   GL2  833   7.849   1.096   7.469 -0.0144 -0.1890 -0.1127
   39POPC   C1A  834   7.710   1.627   7.257 -0.0353  0.1323  0.0481
   39POPC   D2A  835   7.328   1.745   7.074  0.1203 -0.4329 -0.1081
   39POPC   C3A  836   7.110   1.500   6.982  0.2981 -0.0896  0.1508
   39POPC   C4A  837   6.668   1.412   7.185  0.1482 -0.0322 -0.4343
   39POPC   C1B  838   7.958   1.203   6.966  0.0712  0.1505 -0.1510
   39POPC   C2B  839   8.067   1.198   6.501 -0.2443 -0.3592  0.3275
   39POPC   C3B  840   8.031   1.092   6.083  0.0055 -0.1397 -0.1823
   39POPC   C4B  841   7.788   0.933   5.799 -0.4084 -0.2538 -0.2071
   40POPC   NC3  842   6.299   2.168   7.924  0.0635  0.2582  0.0780
   40POPC   PO4  843   6.493   1.836   8.090  0.2529  0.0971 -0.0994
   40POPC   GL1  844   6.630   1.900   7.639  0.2901 -0.0743  0.0487
   40POPC   GL2  845   6.418   1.863   7.366  0.0414  0.1644  0.0126
   40POPC   C1A  846   6.873   1.962   7.205 -0.0192 -0.0389  0.1146
   40POPC   D2A  847   7.171   2.281   6.978 -0.0287 -0.0622  0.2241
   40POPC   C3A  848   7.293   2.075   6.504 -0.2985 -0.0141  0.1363
   40POPC   C4A  849   7.239   1.616   6.487  0.1932 -0.2923 -0.0935
   40POPC   C1B  850   6.391   1.842   6.825 -0.2172  0.2532 -0.2696
   40POPC   C2B  851   6.307   1.833   6.472 -0.0041  0.0028 -0.0063
   40POPC   C3B  852   6.129   1.785   6.101 -0.3309 -0.2245  0.2361
   40POPC   C4B  853   5.854   1.528   5.741 -0.1461  0.3978 -0.0483
   41POPC   NC3  854   8.910   5.767   9.453  0.2646 -0.1487 -0.0582
   41POPC   PO4  855   8.670   6.025   9.007  0.2929 -0.2236 -0.1151
   41POPC   GL1  856   8.706   6.211   8.709  0.1510 -0.0215  0.0517
   41POPC   GL2  857   8.533   6.577   8.694 -0.3583  0.2792  0.1782
   41POPC   C1A  858   8.637   6.108   8.361  0.0139  0.1116  0.0388
   41POPC   D2A  859   8.525   6.268   7.961  0.1823  0.0873  0.0609
   41POPC   C3A  860   8.425   6.275   7.602 -0.2043  0.3378  0.0368
   41POPC   C4A  861   8.234   6.570   7.294 -0.2025  0.1113  0.0775
   41POPC   C1B  862   8.371   6.662   8.368 -0.0265  0.1949  0.0379
   41POPC   C2B  863   8.152   6.709   8.027 -0.0129  0.2982 -0.1289
   41POPC   C3B  864   8.393   6.743   7.685 -0.1076  0.0807 -0.2194
   41POPC   C4B  865   8.821   6.592   7.494  0.1062  0.0955  0.2060
   42POPC   NC3  866   0.676   8.536   9.137 -0.0132  0.3570  0.3205
   42POPC   PO4  867   0.603   8.956   8.806  0.1294 -0.3601 -0.0947
   42POPC   GL1  868   0.571   8.665   8.555 -0.0152 -0.2840 -0.2111
   42POPC   GL2  869   0.652   8.864   8.229 -0.2053  0.2431 -0.0217
   42POPC   C1A  870   0.790   8.382   8.238  0.0125 -0.0169  0.0416
   42POPC   D2A  871   0.723   8.044   8.020 -0.2162 -0.0829 -0.3016
   42POPC   C3A  872   0.438   8.174   7.732  0.3165 -0.1476  0.1015
   42POPC   C4A  873   0.361   8.195   7.289 -0.0966 -0.0383 -0.0130
   42POPC   C1B  874   0.440   8.651   7.938 -0.0299  0.1327 -0.1680
   42POPC   C2B  875   0.585   8.666   7.504  0.2341 -0.0076  0.0106
   42POPC   C3B  876   0.681   8.490   7.099  0.0551  0.0587 -0.1104
   42POPC   C4B  877   0.859   8.103   6.803  0.1425  0.2586  0.0881
   43POPC   NC3  878   3.629   2.847   8.161 -0.0838  0.3559 -0.1436
   43POPC   PO4  879   4.067   2.817   8.065 -0.2715 -0.1222 -0.2709
   43POPC   GL1  880   4.198   2.876   7.732 -0.1826 -0.3144  0.1808
   43POPC   GL2  881   4.470   3.082   7.593 -0.0196  0.1844  0.4392
   43POPC   C1A  882   4.306   2.702   7.363 -0.0166 -0.2105  0.0111
   43POPC   D2A  883   4.237   2.548   6.923 -0.1706  0.1135  0.0580
   43POPC   C3A  884   4.006   2.662   6.537 -0.0615 -0.1607 -0.0509
   43POPC   C4A  885   3.838   2.389   6.263  0.4090 -0.1253 -0.0795
   43POPC   C1B  886   4.811   2.900   7.321  0.1240 -0.1399 -0.1293
   43POPC   C2B  887   4.810   2.725   6.934 -0.1674 -0.0562  0.2861
   43POPC   C3B  888   4.678   2.558   6.570 -0.0535 -0.1087  0.3852
   43POPC   C4B  889   4.407   2.290   6.416 -0.0131 -0.2954 -0.4137
   44POPC   NC3  890   4.018   1.972   8.148  0.1403 -0.0087 -0.3516
   44POPC   PO4  891   4.212   1.787   7.715 -0.4903  0.0753 -0.0724
   44POPC   GL1  892   3.907   1.870   7.486 -0.3192 -0.1231  0.3462
   44POPC   GL2  893   3.746   1.929   7.706 -0.1146 -0.1631  0.2597
   44POPC   C1A  894   3.902   1.580   7.132 -0.2234  0.0698  0.0723
   44POPC   D2A  895   4.125   1.332   6.903  0.0678  0.2142 -0.2597
   44POPC   C3A  896   4.436   1.018   6.929 -0.2921  0.2871 -0.2915
   44POPC   C4A  897   4.475   0.563   6.636  0.1296 -0.2749 -0.2195
   44POPC   C1B  898   3.466   2.066   7.310 -0.1332 -0.0104 -0.3254
   44POPC   C2B  899   3.484   1.895   6.959 -0.0958 -0.1176  0.3175
   44POPC   C3B  900   3.377   1.858   6.577  0.1577  0.2354 -0.4135
   44POPC   C4B  901   3.471   2.036   6.145  0.1160  0.0829  0.0824
   45POPC   NC3  902   3.693   0.931   7.719 -0.2012  0.2654 -0.1216
   45POPC   PO4  903   3.848   0.431   7.783  0.1581 -0.1689 -0.2402
   45POPC   GL1  904   3.583   0.543   7.467 -0.0899 -0.0492  0.2404
   45POPC   GL2  905   3.316   0.483   7.634  0.1172 -0.2234 -0.0033
   45POPC   C1A  906   3.566   0.604   6.911  0.0633  0.0946  0.3831
   45POPC   D2A  907   3.841   0.588   6.557  0.2255  0.0692  0.2091
   45POPC   C3A  908   4.082   0.929   6.545 -0.1921 -0.2155  0.2584
   45POPC   C4A  909   4.153   1.412   6.398 -0.0982  0.0779 -0.0107
   45POPC   C1B  910   3.018   0.370   7.324 -0.2251  0.0559  0.0019
   45POPC   C2B  911   2.654   0.176   7.030 -0.1128 -0.1526 -0.2664
   45POPC   C3B  912   2.322   0.118   6.738 -0.3111  0.0687  0.0087
   45POPC   C4B  913   1.870   0.014   6.564  0.0196  0.3311 -0.2059
   46POPC   NC3  914   3.141   8.189   8.401 -0.2481 -0.1030  0.0611
   46POPC   PO4  915   3.161   8.101   8.009 -0.0831  0.1750  0.1028
   46POPC   GL1  916   3.039   8.076   7.562 -0.0322  0.1426  0.3208
   46POPC   GL2  917   3.274   8.366   7.408  0.1004 -0.3505  0.2904
   46POPC   C1A  918   2.825   8.137   7.157  0.2177 -0.0084 -0.0221
   46POPC   D2A  919   2.824   8.021   6.814 -0.2395 -0.4657 -0.0047
   46POPC   C3A  920   3.036   8.288   6.577 -0.2181  0.1589 -0.0387
   46POPC   C4A  921   2.955   8.739   6.471 -0.2070 -0.2235  0.0476
   46POPC   C1B  922   3.356   8.418   6.985 -0.1699  0.1319  0.0047
   46POPC   C2B  923   3.463   8.589   6.686 -0.0164 -0.0176  0.0234
   46POPC   C3B  924   3.412   8.598   6.353 -0.1829  0.0107 -0.1969
   46POPC   C4B  925   3.633   8.416   5.967 -0.1367 -0.5328 -0.0069
   47POPC   NC3  926   2.113   0.735   8.068  0.2817 -0.2194  0.1171
   47POPC   PO4  927   1.839   0.304   8.096 -0.2804 -0.0477 -0.0714
   47POPC   GL1  928   2.035   0.239   7.740 -0.0516  0.0788  0.1111
   47POPC   GL2  929   1.680   0.044   7.679 -0.1526 -0.0758 -0.2143
   47POPC   C1A  930   2.136   0.071   7.376  0.3436 -0.3414  0.0839
   47POPC   D2A  931   1.943  -0.086   7.026 -0.0028 -0.0508 -0.1694
   47POPC   C3A  932   1.523  -0.163   6.979 -0.3535 -0.1445 -0.1216
   47POPC   C4A  933   1.377  -0.545   6.746 -0.0890  0.0854  0.2553
   47POPC   C1B  934   1.685   0.354   7.346  0.0669  0.0339  0.0987
   47POPC   C2B  935   1.703   0.803   7.343  0.2265 -0.1992 -0.1827
   47POPC   C3B  936   1.640   1.223   7.323  0.0770 -0.2619 -0.0373
   47POPC   C4B  937   1.832   1.370   6.903  0.3301 -0.1353  0.2813
   48POPC   NC3  938   5.551   8.532   8.398  0.1429  0.1210  0.2897
   48POPC   PO4  939   5.905   8.390   8.573 -0.1462  0.2998 -0.0246
   48POPC   GL1  940   6.114   8.623   8.236 -0.1115  0.0521  0.0248
   48POPC   GL2  941   5.900   8.497   8.012 -0.0813  0.1725 -0.0992
   48POPC   C1A  942   6.324   8.476   7.844  0.0331  0.0814 -0.0251
   48POPC   D2A  943   6.562   8.107   7.546 -0.2509 -0.1123  0.1760
   48POPC   C3A  944   6.465   7.908   7.165 -0.0538 -0.1875 -0.0414
   48POPC   C4A  945   6.313   7.709   6.768 -0.0165 -0.1127 -0.2221
   48POPC   C1B  946   5.810   8.144   7.634  0.0851  0.0295  0.1594
   48POPC   C2B  947   5.656   8.281   7.258  0.0770  0.1913 -0.1249
   48POPC   C3B  948   5.761   8.516   6.927  0.2028  0.0582 -0.2776
   48POPC   C4B  949   5.641   8.583   6.523  0.1019  0.1608 -0.1210
   49POPC   NC3  950   6.131   0.048   8.165 -0.0217 -0.2435 -0.2143
   49POPC   PO4  951   6.404   0.327   7.959 -0.1100 -0.0227 -0.0052
   49POPC   GL1  952   6.565   0.624   7.624 -0.1296  0.3167 -0.0912
   49POPC   GL2  953   6.622   0.978   7.582 -0.2671 -0.4602  0.2362
   49POPC   C1A  954   6.678   0.465   7.226  0.0361 -0.1512  0.2311
   49POPC   D2A  955   6.725   0.515   6.853 -0.2480  0.3202  0.0999
   49POPC   C3A  956   6.473   0.750   6.471  0.0291 -0.1984 -0.2752
   49POPC   C4A  957   6.759   1.083   6.219  0.0037 -0.1057 -0.2643
   49POPC   C1B  958   6.402   0.980   7.115 -0.1293  0.1447 -0.0277
   49POPC   C2B  959   6.055   0.945   6.903 -0.2061  0.0381 -0.0570
   49POPC   C3B  960   5.876   0.754   6.471  0.1395 -0.1317  0.1570
   49POPC   C4B  961   6.126   0.689   6.051 -0.0985 -0.0308  0.1746
   50POPC   NC3  962   8.320   5.650   8.859 -0.1715  0.1109 -0.0098
   50POPC   PO4  963   8.021   5.309   9.054 -0.0859 -0.0985 -0.0118
   50POPC   GL1  964   8.056   5.330   8.585 -0.3425 -0.1307 -0.3256
   50POPC   GL2  965   8.222   5.336   8.436  0.0981 -0.0903 -0.1525
   50POPC   C1A  966   7.872   5.459   8.167 -0.2030  0.4003 -0.0506
   50POPC   D2A  967   8.174   5.383   7.761 -0.0139  0.1958 -0.1100
   50POPC   C3A  968   8.182   5.779   7.434  0.0306 -0.1902  0.1600
   50POPC   C4A  969   7.983   6.149   7.134  0.0176 -0.2975 -0.1330
   50POPC   C1B  970   8.405   5.524   8.169  0.0703  0.0745  0.2481
   50POPC   C2B  971   8.638   5.663   7.866 -0.2000  0.2464 -0.0685
   50POPC   C3B  972   9.042   5.559   7.555  0.0943 -0.3575  0.2941
   50POPC   C4B  973   9.335   5.309   7.634 -0.0784  0.0863  0.0660
   51POPC   NC3  974   5.970   8.905   8.607 -0.0158  0.0496  0.1552
   51POPC   PO4  975   5.593   9.045   8.366  0.3017 -0.3876  0.1323
   51POPC   GL1  976   5.402   8.948   7.979 -0.0019  0.2451  0.0107
   51POPC   GL2  977   5.405   9.250   7.679 -0.2647  0.2245 -0.0448
   51POPC   C1A  978   5.166   8.634   7.704 -0.1738 -0.2829 -0.2967
   51POPC   D2A  979   5.146   8.092   7.626  0.0767 -0.0507  0.2155
   51POPC   C3A  980   5.291   7.962   7.242  0.0037  0.2415 -0.1779
   51POPC   C4A  981   5.563   7.646   6.941 -0.1437  0.0069  0.0458
   51POPC   C1B  982   5.589   8.867   7.489 -0.0572  0.1488  0.2248
   51POPC   C2B  983   5.873   8.976   7.079  0.1641 -0.1675 -0.1565
   51POPC   C3B  984   6.027   8.897   6.757  0.0447  0.2331  0.2082
   51POPC   C4B  985   6.009   8.817   6.262  0.1948 -0.0740 -0.0899
   52POPC   NC3  986   5.429   7.139   8.225  0.2027  0.1987  0.2507
   52POPC   PO4  987   5.744   6.846   7.992 -0.2421 -0.0425  0.1827
   52POPC   GL1  988   5.940   6.690   7.682 -0.0762 -0.0039  0.1292
   52POPC   GL2  989   5.630   6.392   7.645 -0.0334  0.0473 -0.0231
   52POPC   C1A  990   6.281   6.321   7.461 -0.5011 -0.7756 -0.2991
   52POPC   D2A  991   6.527   6.032   7.303  0.2238 -0.1791 -0.2736
   52POPC   C3A  992   6.896   5.888   7.579 -0.0940  0.3480  0.1378
   52POPC   C4A  993   7.188   5.544   7.512 -0.0611 -0.0555  0.1094
   52POPC   C1B  994   5.894   6.105   7.313 -0.0397 -0.1888 -0.3771
   52POPC   C2B  995   6.029   6.102   6.917 -0.5030 -0.1361  0.0775
   52POPC   C3B  996   6.204   6.081   6.515 -0.1303 -0.1571 -0.1992
   52POPC   C4B  997   6.480   6.338   6.350 -0.1364  0.0586  0.4077
   53POPC   NC3  998   9.645   3.806   8.401 -0.1596 -0.1312  0.1252
   53POPC   PO4  999   9.950   3.483   8.335 -0.1590  0.1084 -0.0151
   53POPC   GL1 1000   9.884   3.310   7.962 -0.0586 -0.0768  0.0526
   53POPC   GL2 1001  10.053   3.149   7.979  0.1383  0.0075  0.0872
   53POPC   C1A 1002   9.814   3.149   7.479  0.3920  0.1724  0.0952
   53POPC   D2A 1003   9.899   2.859   7.218 -0.0504 -0.1082  0.0402
   53POPC   C3A 1004   9.598   2.620   6.967  0.1926 -0.1078  0.3848
   53POPC   C4A 1005   9.387   2.453   6.587 -0.4081 -0.2636  0.0270
   53POPC   C1B 1006  10.292   3.106   7.614  0.0003  0.1643  0.1461
   53POPC   C2B 1007  10.574   3.197   7.357 -0.0788  0.2713 -0.1577
   53POPC   C3B 1008  10.726   3.364   6.950 -0.0946 -0.0400  0.1343
   53POPC   C4B 1009  10.602   3.402   6.613  0.0740 -0.2994 -0.2754
   54POPC   NC3 1010   3.011   2.332   8.610 -0.0641 -0.2652  0.1372
   54POPC   PO4 1011   3.470   2.420   8.432  0.0258  0.1779 -0.0017
   54POPC   GL1 1012   3.535   2.356   8.030  0.1386  0.1920  0.2300
   54POPC   GL2 1013   3.830   2.428   7.842  0.0211 -0.2509 -0.0871
   54POPC   C1A 1014   3.238   2.426   7.677 -0.1822 -0.1333  0.2314
   54POPC   D2A 1015   3.321   2.564   7.168  0.0482 -0.2254 -0.0545
   54POPC   C3A 1016   2.940   2.782   6.935 -0.0338  0.0207  0.2798
   54POPC   C4A 1017   2.722   2.531   6.568  0.1148 -0.0198 -0.1498
   54POPC   C1B 1018   3.862   2.528   7.436 -0.3045  0.1231 -0.2076
   54POPC   C2B 1019   3.895   2.814   7.147 -0.3338 -0.1458 -0.2466
   54POPC   C3B 1020   4.235   3.044   6.977 -0.2204  0.3088  0.0580
   54POPC   C4B 1021   4.465   2.958   6.701 -0.2430  0.0517 -0.0196
   55POPC   NC3 1022   3.413   7.360   8.709  0.3392  0.1484 -0.0582
   55POPC   PO4 1023   2.979   7.356   8.577 -0.1518  0.0856  0.0475
   55POPC   GL1 1024   3.052   7.155   8.046  0.0482 -0.0937  0.2081
   55POPC   GL2 1025   3.368   7.145   7.897  0.1911  0.0536  0.2055
   55POPC   C1A 1026   2.982   6.789   7.761  0.1026 -0.0987 -0.0068
   55POPC   D2A 1027   2.874   6.418   7.397 -0.0994  0.1665 -0.1007
   55POPC   C3A 1028   2.767   6.579   6.986 -0.1877 -0.1194 -0.1455
   55POPC   C4A 1029   3.058   6.833   6.635  0.0586 -0.0379  0.1057
   55POPC   C1B 1030   3.151   7.223   7.545 -0.2539 -0.3742 -0.3171
   55POPC   C2B 1031   2.976   7.127   7.216  0.3343 -0.0499  0.0301
   55POPC   C3B 1032   2.757   7.282   6.825  0.0526 -0.2425  0.2646
   55POPC   C4B 1033   2.362   7.152   6.812  0.0808  0.0503  0.0118
   56POPC   NC3 1034   4.978   1.790   8.311 -0.3363 -0.0674 -0.0643
   56POPC   PO4 1035   4.478   1.934   8.204 -0.1347 -0.1383  0.0489
   56POPC   GL1 1036   4.808   1.918   7.878  0.3659 -0.4340 -0.0633
   56POPC   GL2 1037   4.658   1.940   7.509  0.2028 -0.0970  0.2529
   56POPC   C1A 1038   5.206   1.872   7.644  0.1807  0.1255 -0.2208
   56POPC   D2A 1039   5.501   1.755   7.204  0.0720  0.0838  0.0463
   56POPC   C3A 1040   5.297   1.610   6.834  0.1629 -0.4434 -0.1961
   56POPC   C4A 1041   4.916   1.789   6.639  0.1116  0.2970 -0.3078
   56POPC   C1B 1042   4.974   1.903   7.168 -0.0461 -0.0242 -0.3802
   56POPC   C2B 1043   5.124   2.149   6.933 -0.0084 -0.0489  0.0706
   56POPC   C3B 1044   5.172   2.498   6.673  0.1162  0.3209  0.1720
   56POPC   C4B 1045   5.357   2.482   6.288  0.1921  0.2569 -0.2197
   57POPC   NC3 1046   1.131   4.368   8.525  0.1940  0.1573 -0.0154
   57POPC   PO4 1047   0.672   4.395   8.651 -0.0531 -0.0006  0.2390
   57POPC   GL1 1048   0.695   4.739   8.259  0.3304 -0.2839 -0.1936
   57POPC   GL2 1049   0.374   4.971   8.291  0.1994 -0.0051  0.0670
   57POPC   C1A 1050   0.709   4.739   7.789  0.1831  0.3848 -0.0835
   57POPC   D2A 1051   0.725   4.558   7.489 -0.2287 -0.0172  0.2506
   57POPC   C3A 1052   0.458   4.680   7.138 -0.2524  0.2084 -0.0612
   57POPC   C4A 1053   0.242   4.535   6.846 -0.1365 -0.1628  0.0744
   57POPC   C1B 1054   0.482   5.143   7.843  0.0517 -0.0099  0.1925
   57POPC   C2B 1055   0.357   5.129   7.437 -0.2324 -0.0032  0.3600
   57POPC   C3B 1056   0.108   5.393   7.141  0.1346  0.3344 -0.3033
   57POPC   C4B 1057   0.144   5.338   6.740 -0.1091 -0.0748 -0.2158
   58POPC   NC3 1058   0.549   0.273   7.939 -0.2742  0.0355 -0.1367
   58POPC   PO4 1059   0.149   0.351   7.785  0.6197  0.2667 -0.2283
   58POPC   GL1 1060   0.424   0.154   7.450 -0.2220  0.0818  0.2386
   58POPC   GL2 1061   0.696  -0.028   7.561  0.0446 -0.0959 -0.2672
   58POPC   C1A 1062   0.286   0.139   7.016  0.0133  0.0179  0.2686
   58POPC   D2A 1063   0.566   0.026   6.796  0.0855 -0.3165  0.1796
   58POPC   C3A 1064   0.484   0.323   6.354  0.0189  0.0234 -0.1247
   58POPC   C4A 1065   0.182   0.407   6.125  0.1450  0.1825 -0.1895
   58POPC   C1B 1066   0.575  -0.271   7.225  0.0746 -0.3446  0.1889
   58POPC   C2B 1067   0.370  -0.471   6.898 -0.2947  0.1193 -0.1006
   58POPC   C3B 1068   0.102  -0.766   6.914  0.0707  0.1368  0.0218
   58POPC   C4B 1069  -0.136  -1.148   6.782  0.0462 -0.0488  0.1983
   59POPC   NC3 1070   4.084   0.485   8.703 -0.2158  0.1290  0.1015
   59POPC   PO4 1071   4.470   0.556   8.376 -0.1591 -0.0034 -0.0708
   59POPC   GL1 1072   4.424   0.408   7.890  0.3153 -0.1375  0.0570
   59POPC   GL2 1073   4.337   0.505   7.441 -0.1043 -0.0414  0.0067
   59POPC   C1A 1074   4.540   0.112   7.591 -0.0027  0.2423  0.4399
   59POPC   D2A 1075   4.909  -0.074   7.482  0.2187  0.1267  0.0462
   59POPC   C3A 1076   5.060  -0.256   7.031  0.2623 -0.1135  0.0114
   59POPC   C4A 1077   5.300  -0.248   6.766  0.1268  0.1313  0.0235
   59POPC   C1B 1078   4.407   0.288   7.059 -0.2755  0.1491  0.1104
   59POPC   C2B 1079   4.218   0.131   6.739  0.1700 -0.0101 -0.3867
   59POPC   C3B 1080   3.813   0.025   6.606  0.1521  0.3119  0.0968
   59POPC   C4B 1081   3.439  -0.149   6.562  0.1935 -0.0832 -0.0529
   60POPC   NC3 1082   9.696   7.119   9.365  0.3324 -0.0640 -0.2512
   60POPC   PO4 1083   9.561   6.594   9.311  0.1397  0.1408 -0.1565
   60POPC   GL1 1084   9.562   6.388   8.963  0.1428 -0.0514 -0.0148
   60POPC   GL2 1085   9.611   6.079   8.904  0.1238  0.0006  0.1771
   60POPC   C1A 1086  10.044   6.481   8.690  0.0726 -0.0927 -0.0347
   60POPC   D2A 1087  10.488   6.579   8.767  0.3210  0.0959 -0.0509
   60POPC   C3A 1088  10.534   7.051   8.596 -0.1676 -0.1028  0.1255
   60POPC   C4A 1089  10.596   7.329   8.211  0.1125 -0.2780 -0.1839
   60POPC   C1B 1090   9.579   6.115   8.555  0.0487  0.0762  0.0213
   60POPC   C2B 1091   9.463   6.112   8.137 -0.0072  0.0914  0.0477
   60POPC   C3B 1092   9.309   6.182   7.624 -0.2902  0.2798 -0.0447
   60POPC   C4B 1093   9.180   6.333   7.278  0.1212  0.1837 -0.0425
   61POPC   NC3 1094   7.052   6.981   8.324 -0.3193 -0.0720  0.0863
   61POPC   PO4 1095   6.675   6.979   8.161  0.1209  0.1664  0.1941
   61POPC   GL1 1096   6.853   6.891   7.846 -0.2337 -0.1565  0.0094
   61POPC   GL2 1097   6.803   6.691   7.719 -0.1891 -0.1634 -0.2582
   61POPC   C1A 1098   7.110   7.083   7.623 -0.1424 -0.1720 -0.0796
   61POPC   D2A 1099   7.250   7.444   7.337  0.0669  0.0426  0.2241
   61POPC   C3A 1100   7.273   7.685   6.913 -0.0622 -0.2867  0.3234
   61POPC   C4A 1101   7.126   7.871   6.585 -0.1385 -0.0714 -0.4459
   61POPC   C1B 1102   7.281   6.643   7.535  0.5338  0.0994  0.0953
   61POPC   C2B 1103   7.491   6.967   7.291  0.1043 -0.4011  0.1622
   61POPC   C3B 1104   7.555   7.142   6.833  0.5949 -0.3993  0.0135
   61POPC   C4B 1105   7.713   7.531   6.646 -0.2641  0.3632 -0.2778
   62POPC   NC3 1106   2.052   9.761   8.424 -0.0382  0.1175 -0.1371
   62POPC   PO4 1107   2.142   9.590   8.052 -0.1494 -0.1044  0.0032
   62POPC   GL1 1108   2.119   9.453   7.652 -0.5833  0.4354 -0.1637
   62POPC   GL2 1109   2.284   9.076   7.583 -0.1855  0.1970 -0.3431
   62POPC   C1A 1110   2.254   9.357   7.217 -0.2054 -0.4213 -0.2688
   62POPC   D2A 1111   2.205   9.142   6.974  0.1908  0.0369  0.1622
   62POPC   C3A 1112   1.978   9.270   6.675 -0.0976  0.1398  0.0122
   62POPC   C4A 1113   1.759   9.390   6.320  0.1609 -0.0041 -0.3203
   62POPC   C1B 1114   1.997   8.862   7.386  0.2473  0.1173  0.2064
   62POPC   C2B 1115   1.929   8.371   7.290  0.0113  0.1127  0.2231
   62POPC   C3B 1116   1.782   8.333   6.840  0.0912  0.0074 -0.0745
   62POPC   C4B 1117   1.908   8.215   6.403 -0.2382 -0.3203  0.0581
   63POPC   NC3 1118   4.459   5.000   8.269  0.0709  0.3143  0.1468
   63POPC   PO4 1119   4.810   5.127   8.223 -0.0199 -0.1669  0.0104
   63POPC   GL1 1120   4.925   5.219   7.749  0.0867 -0.2022  0.0301
   63POPC   GL2 1121   4.872   5.671   7.739  0.2141  0.1429 -0.0592
   63POPC   C1A 1122   5.048   5.229   7.348 -0.1574  0.1672 -0.0110
   63POPC   D2A 1123   5.159   5.018   6.968  0.1970 -0.1638 -0.1381
   63POPC   C3A 1124   5.095   5.217   6.561 -0.0874  0.0365 -0.2236
   63POPC   C4A 1125   4.954   5.223   6.126 -0.0620 -0.2753 -0.2343
   63POPC   C1B 1126   5.013   5.798   7.402  0.1202  0.1283  0.1036
   63POPC   C2B 1127   4.803   6.041   7.034 -0.1168  0.1776  0.0619
   63POPC   C3B 1128   4.626   6.311   6.717  0.2853  0.1319  0.1810
   63POPC   C4B 1129   4.220   6.629   6.766  0.0762  0.2176  0.1448
   64POPC   NC3 1130   0.973   0.960   8.393  0.1658  0.2025  0.0470
   64POPC   PO4 1131   1.224   1.121   8.335 -0.0579  0.0671 -0.0295
   64POPC   GL1 1132   1.118   1.009   7.863 -0.2046  0.1639  0.0250
   64POPC   GL2 1133   0.837   1.214   7.791 -0.0390 -0.0942  0.1583
   64POPC   C1A 1134   1.196   0.903   7.437 -0.1338 -0.0837  0.0060
   64POPC   D2A 1135   1.277   0.566   7.111  0.0325  0.0101  0.1308
   64POPC   C3A 1136   1.474   0.396   6.819  0.0419  0.1619 -0.3289
   64POPC   C4A 1137   1.375   0.027   6.540  0.2699 -0.0680  0.0686
   64POPC   C1B 1138   0.749   1.082   7.389 -0.2145 -0.2231  0.0991
   64POPC   C2B 1139   0.992   0.935   6.940  0.0081 -0.2796 -0.1535
   64POPC   C3B 1140   1.452   0.998   6.900  0.1859  0.0304  0.1388
   64POPC   C4B 1141   1.780   0.984   6.550 -0.2679 -0.0091  0.1248
   65POPC   NC3 1142   3.393   3.987   8.596 -0.2076  0.2509 -0.0586
   65POPC   PO4 1143   3.681   3.754   8.298  0.1071  0.3392 -0.0509
   65POPC   GL1 1144   3.808   3.618   7.869 -0.1619  0.0118  0.1999
   65POPC   GL2 1145   3.996   3.303   7.869  0.1017 -0.0258  0.2621
   65POPC   C1A 1146   4.317   3.683   7.719 -0.0169 -0.1435  0.3350
   65POPC   D2A 1147   4.315   3.518   7.331 -0.1472  0.1796  0.2289
   65POPC   C3A 1148   4.290   3.597   6.850  0.3491  0.1166  0.0748
   65POPC   C4A 1149   4.148   3.654   6.391 -0.0034  0.2116  0.1089
   65POPC   C1B 1150   3.925   3.215   7.434 -0.4252  0.0448  0.0622
   65POPC   C2B 1151   3.829   3.301   6.948 -0.1651 -0.1069  0.2162
   65POPC   C3B 1152   3.743   3.599   6.625 -0.1980 -0.1608  0.2001
   65POPC   C4B 1153   3.712   3.466   6.106  0.0013 -0.2483  0.0805
   66POPC   NC3 1154   2.555   4.927   8.732 -0.2325  0.1865 -0.6095
   66POPC   PO4 1155   2.538   4.526   8.521 -0.0572  0.0278 -0.1148
   66POPC   GL1 1156   2.351   4.713   8.162 -0.3235  0.4484  0.1284
   66POPC   GL2 1157   2.602   4.936   8.066  0.1717 -0.1164 -0.5038
   66POPC   C1A 1158   2.194   4.907   7.793  0.0356 -0.3401 -0.1601
   66POPC   D2A 1159   2.350   4.916   7.348  0.1657  0.0684  0.0865
   66POPC   C3A 1160   2.324   5.086   6.951 -0.1154  0.0826 -0.0785
   66POPC   C4A 1161   2.248   5.330   6.629  0.1346  0.0763 -0.0972
   66POPC   C1B 1162   2.735   5.133   7.741  0.3939  0.0699 -0.5196
   66POPC   C2B 1163   2.726   5.195   7.296  0.0613 -0.1909 -0.1185
   66POPC   C3B 1164   2.766   5.301   6.809 -0.1658  0.2616  0.2105
   66POPC   C4B 1165   2.693   5.596   6.516  0.1132 -0.1838 -0.1161
   67POPC   NC3 1166   2.880   0.316   8.012 -0.1590  0.1360  0.2631
   67POPC   PO4 1167   2.697   0.729   7.992 -0.0690 -0.0559  0.0234
   67POPC   GL1 1168   2.441   0.620   7.746  0.3006  0.1392 -0.3580
   67POPC   GL2 1169   2.514   0.255   7.631 -0.2958 -0.1637  0.1069
   67POPC   C1A 1170   2.214   0.625   7.295  0.2191 -0.0378  0.1712
   67POPC   D2A 1171   1.961   0.506   7.005 -0.1982  0.2078 -0.1861
   67POPC   C3A 1172   2.099   0.574   6.625 -0.0709  0.1417 -0.3345
   67POPC   C4A 1173   1.886   0.415   6.219  0.2460 -0.2184  0.4417
   67POPC   C1B 1174   2.577  -0.183   7.458 -0.2115  0.0219  0.1232
   67POPC   C2B 1175   2.746  -0.312   7.064  0.4814 -0.0932 -0.1408
   67POPC   C3B 1176   2.500  -0.314   6.728 -0.1952 -0.0154 -0.3892
   67POPC   C4B 1177   2.301  -0.386   6.337  0.0807 -0.1611  0.0564
   68POPC   NC3 1178   0.025   2.396   8.240  0.2864  0.1726  0.1789
   68POPC   PO4 1179   0.329   2.221   8.107  0.1420 -0.4192 -0.0637
   68POPC   GL1 1180   0.095   2.205   7.614 -0.1546 -0.1297  0.2185
   68POPC   GL2 1181  -0.039   1.954   7.490 -0.1097  0.1400  0.0436
   68POPC   C1A 1182   0.169   2.329   7.159 -0.1125  0.3293  0.2258
   68POPC   D2A 1183   0.305   2.545   6.809 -0.1874  0.1660  0.0384
   68POPC   C3A 1184   0.258   2.306   6.447 -0.3265  0.1888  0.1028
   68POPC   C4A 1185   0.302   2.030   6.222  0.2385  0.2326  0.0749
   68POPC   C1B 1186  -0.072   1.708   7.109  0.1346 -0.0794  0.0661
   68POPC   C2B 1187  -0.204   1.406   6.773 -0.1407  0.1894 -0.0326
   68POPC   C3B 1188  -0.373   1.520   6.332 -0.0133  0.1074  0.1539
   68POPC   C4B 1189  -0.631   1.609   6.020 -0.2110 -0.0166 -0.0097
   69POPC   NC3 1190   4.614   0.883   7.880 -0.0680 -0.2266  0.3555
   69POPC   PO4 1191   4.204   0.976   7.632  0.0697 -0.2079 -0.2602
   69POPC   GL1 1192   4.014   0.974   7.228 -0.1529 -0.0337 -0.0345
   69POPC   GL2 1193   3.992   0.719   7.061  0.5011 -0.1172 -0.1616
   69POPC   C1A 1194   3.717   1.099   6.863  0.0708  0.0658 -0.0126
   69POPC   D2A 1195   3.655   1.398   6.557  0.1008 -0.1576 -0.0320
   69POPC   C3A 1196   3.464   1.371   6.296  0.1801 -0.2078 -0.1389
   69POPC   C4A 1197   3.061   1.249   6.181 -0.0269  0.1198  0.0372
   69POPC   C1B 1198   3.864   0.312   7.142 -0.1997  0.0587  0.2566
   69POPC   C2B 1199   3.415   0.164   7.029 -0.1064 -0.2155  0.2155
   69POPC   C3B 1200   3.124  -0.003   6.927  0.1290  0.0719  0.0297
   69POPC   C4B 1201   3.014  -0.398   6.646  0.1055 -0.2797  0.0067
   70POPC   NC3 1202   7.572   5.415   9.074  0.4096  0.2163 -0.0294
   70POPC   PO4 1203   7.767   5.797   8.955  0.0141  0.2307 -0.0663
   70POPC   GL1 1204   7.847   5.900   8.527  0.0467  0.1223 -0.4374
   70POPC   GL2 1205   8.180   5.942   8.427 -0.1000  0.0490  0.1423
   70POPC   C1A 1206   7.901   6.329   8.257 -0.1979 -0.0674  0.0791
   70POPC   D2A 1207   7.656   6.449   7.963  0.0569 -0.1132  0.0962
   70POPC   C3A 1208   7.614   6.859   7.855  0.1668  0.2239 -0.3806
   70POPC   C4A 1209   7.641   7.334   7.640 -0.0049  0.0865 -0.2545
   70POPC   C1B 1210   8.144   5.982   7.861  0.1642 -0.1097  0.1770
   70POPC   C2B 1211   7.889   6.224   7.625 -0.1879 -0.1334  0.2414
   70POPC   C3B 1212   7.761   6.586   7.394  0.1958  0.4091  0.0606
   70POPC   C4B 1213   7.753   6.626   6.961  0.1491  0.1886  0.2010
   71POPC   NC3 1214   0.705   7.142   9.285  0.1413 -0.0561 -0.0764
   71POPC   PO4 1215   0.302   7.461   9.175 -0.0185 -0.2021 -0.0554
   71POPC   GL1 1216  -0.054   7.359   8.919 -0.3664  0.0473 -0.0715
   71POPC   GL2 1217  -0.016   7.011   8.873 -0.0789 -0.1389  0.1530
   71POPC   C1A 1218  -0.174   7.394   8.475 -0.3626  0.4113  0.1735
   71POPC   D2A 1219  -0.386   7.237   8.096 -0.2780 -0.1000  0.3022
   71POPC   C3A 1220  -0.369   6.809   7.996  0.0366 -0.1230  0.4241
   71POPC   C4A 1221  -0.146   6.485   7.716  0.0160 -0.1149 -0.2310
   71POPC   C1B 1222   0.174   6.970   8.511 -0.1817 -0.3467  0.1185
   71POPC   C2B 1223   0.476   6.775   8.287  0.2705  0.2259 -0.3382
   71POPC   C3B 1224   0.598   6.407   8.218 -0.0094 -0.1675  0.0965
   71POPC   C4B 1225   0.635   5.912   8.215  0.1429 -0.1280  0.0660
   72POPC   NC3 1226   4.521   5.504   8.430 -0.0998 -0.1325 -0.0852
   72POPC   PO4 1227   4.084   5.457   8.282  0.0618  0.0478 -0.0921
   72POPC   GL1 1228   3.949   5.593   7.817 -0.1668 -0.0998 -0.2778
   72POPC   GL2 1229   4.093   5.684   7.523 -0.1861  0.0640 -0.2629
   72POPC   C1A 1230   3.553   5.636   7.540  0.0493  0.2054 -0.0394
   72POPC   D2A 1231   3.191   5.620   7.339  0.1086 -0.1333  0.0983
   72POPC   C3A 1232   3.025   5.982   7.217 -0.0953 -0.2012 -0.1151
   72POPC   C4A 1233   2.930   6.151   6.778  0.0039 -0.2159 -0.0699
   72POPC   C1B 1234   3.973   5.478   7.121  0.2158 -0.2881 -0.1635
   72POPC   C2B 1235   3.648   5.598   6.724  0.1537  0.0067  0.1739
   72POPC   C3B 1236   3.628   5.555   6.203  0.1862 -0.1372 -0.0823
   72POPC   C4B 1237   3.779   5.156   5.901 -0.4578 -0.0892 -0.1636
   73POPC   NC3 1238   0.035   2.977   8.490 -0.1152  0.0051 -0.0529
   73POPC   PO4 1239  -0.223   2.806   8.115  0.0986 -0.2653  0.1329
   73POPC   GL1 1240  -0.284   2.885   7.681  0.2681  0.0940  0.0192
   73POPC   GL2 1241  -0.406   3.133   7.697 -0.1559  0.0257  0.1627
   73POPC   C1A 1242  -0.293   2.569   7.405  0.0104 -0.0372 -0.5081
   73POPC   D2A 1243  -0.342   2.161   7.175  0.1898 -0.0181 -0.1457
   73POPC   C3A 1244  -0.174   2.100   6.851 -0.2000 -0.1336 -0.0790
   73POPC   C4A 1245  -0.031   1.816   6.575 -0.1128 -0.2379 -0.0474
   73POPC   C1B 1246  -0.452   3.018   7.236 -0.0190 -0.2269 -0.0161
   73POPC   C2B 1247  -0.371   3.056   6.801  0.0648  0.0538 -0.2531
   73POPC   C3B 1248  -0.082   2.835   6.438 -0.1402  0.0041  0.2569
   73POPC   C4B 1249   0.197   2.791   6.109  0.0833  0.0341  0.3525
   74POPC   NC3 1250   6.256   4.415   8.149 -0.0075 -0.1178 -0.2057
   74POPC   PO4 1251   5.805   4.399   8.032  0.2249 -0.1377 -0.0195
   74POPC   GL1 1252   5.983   4.444   7.623  0.0449 -0.0009  0.1110
   74POPC   GL2 1253   6.347   4.414   7.620  0.2017 -0.3673 -0.0561
   74POPC   C1A 1254   6.147   4.591   7.205 -0.0442  0.0123  0.2576
   74POPC   D2A 1255   6.065   4.509   6.856 -0.0630  0.2769  0.0010
   74POPC   C3A 1256   6.245   4.312   6.463  0.2986 -0.1779  0.0021
   74POPC   C4A 1257   6.581   4.460   6.210 -0.1463 -0.0415 -0.0093
   74POPC   C1B 1258   6.576   4.380   7.298  0.0502  0.1278 -0.0726
   74POPC   C2B 1259   6.584   4.596   6.850 -0.0585  0.2737 -0.0001
   74POPC   C3B 1260   6.950   4.444   6.547  0.0453  0.1444 -0.2013
   74POPC   C4B 1261   7.111   4.137   6.447  0.2856 -0.0614 -0.1818
   75POPC   NC3 1262   3.631   4.811   8.394 -0.1648  0.1501  0.1551
   75POPC   PO4 1263   3.981   4.965   8.259  0.1612  0.0881 -0.4128
   75POPC   GL1 1264   4.103   4.999   7.857 -0.0502 -0.2428  0.0418
   75POPC   GL2 1265   4.496   4.919   7.763 -0.0810 -0.0100 -0.1225
   75POPC   C1A 1266   4.078   4.745   7.520  0.3601 -0.0918 -0.3893
   75POPC   D2A 1267   3.934   4.656   7.109  0.0456  0.3075  0.2404
   75POPC   C3A 1268   3.962   4.490   6.685 -0.1170 -0.0271  0.1704
   75POPC   C4A 1269   4.111   4.400   6.322  0.3391 -0.2139  0.1520
   75POPC   C1B 1270   4.466   5.193   7.309 -0.5406 -0.0063 -0.4107
   75POPC   C2B 1271   4.239   5.138   6.975 -0.0266 -0.0992 -0.1292
   75POPC   C3B 1272   4.104   4.943   6.582  0.0604 -0.2523  0.0780
   75POPC   C4B 1273   3.785   4.733   6.262 -0.1738 -0.1019  0.0251
   76POPC   NC3 1274   2.902   7.682   8.200 -0.2472  0.2182 -0.1250
   76POPC   PO4 1275   3.245   7.704   8.270  0.0631 -0.1268  0.0541
   76POPC   GL1 1276   3.302   7.614   7.801 -0.0360 -0.0215  0.2327
   76POPC   GL2 1277   3.531   7.850   7.615  0.0090 -0.2168 -0.2541
   76POPC   C1A 1278   3.077   7.653   7.325 -0.2658 -0.0173  0.3283
   76POPC   D2A 1279   3.274   7.883   6.987 -0.0216 -0.2406 -0.1108
   76POPC   C3A 1280   3.092   7.785   6.512 -0.0644  0.0009  0.2758
   76POPC   C4A 1281   3.202   7.395   6.330 -0.4492 -0.2409 -0.1275
   76POPC   C1B 1282   3.697   8.062   7.221 -0.0361 -0.1003 -0.0688
   76POPC   C2B 1283   3.742   8.190   6.796 -0.1563  0.0067  0.1372
   76POPC   C3B 1284   3.542   8.098   6.488  0.3049  0.1343  0.1395
   76POPC   C4B 1285   3.583   7.694   6.482 -0.1457  0.4326  0.1952
   77POPC   NC3 1286   3.721   6.186   8.212  0.3083  0.0948  0.1966
   77POPC   PO4 1287   4.071   6.253   7.910 -0.2518 -0.0972 -0.0785
   77POPC   GL1 1288   3.895   6.127   7.513 -0.1691  0.0358 -0.1788
   77POPC   GL2 1289   3.920   6.336   7.360 -0.6460 -0.0997  0.2227
   77POPC   C1A 1290   3.681   5.876   7.164  0.0088  0.1033  0.0520
   77POPC   D2A 1291   3.487   6.081   6.833  0.2704 -0.0694  0.1194
   77POPC   C3A 1292   3.883   6.126   6.614  0.0166 -0.2638  0.0056
   77POPC   C4A 1293   4.204   6.378   6.317 -0.4835  0.0230  0.1178
   77POPC   C1B 1294   3.803   6.412   7.013 -0.0969 -0.2677  0.0723
   77POPC   C2B 1295   3.596   6.615   6.732  0.0969  0.0293 -0.1504
   77POPC   C3B 1296   3.717   6.575   6.389  0.2871  0.1353  0.0361
   77POPC   C4B 1297   3.819   6.331   6.016  0.3611  0.0877  0.1587
   78POPC   NC3 1298   0.566   5.207   9.399  0.0663  0.0618  0.0952
   78POPC   PO4 1299   0.560   5.515   9.120 -0.1073  0.2403  0.2093
   78POPC   GL1 1300   0.768   5.623   8.732 -0.0280 -0.0612 -0.0768
   78POPC   GL2 1301   1.017   5.370   8.555 -0.3286  0.2065  0.1961
   78POPC   C1A 1302   0.524   5.454   8.336 -0.3879 -0.0477 -0.0814
   78POPC   D2A 1303   0.121   5.420   8.240  0.1173 -0.2112 -0.0189
   78POPC   C3A 1304   0.075   5.785   8.354  0.2609 -0.2694  0.0028
   78POPC   C4A 1305   0.361   5.998   8.600 -0.0330  0.0267  0.0621
   78POPC   C1B 1306   0.955   5.388   8.138 -0.2031  0.1642  0.2382
   78POPC   C2B 1307   1.054   5.198   7.787 -0.2226  0.4225  0.0380
   78POPC   C3B 1308   0.946   5.015   7.336  0.0603  0.1091 -0.0557
   78POPC   C4B 1309   1.013   4.718   7.011  0.1863 -0.2205 -0.1221
   79POPC   NC3 1310   1.770   3.758   8.104 -0.1983 -0.2251 -0.1359
   79POPC   PO4 1311   1.865   3.474   7.915 -0.1718  0.2715  0.3975
   79POPC   GL1 1312   1.741   3.592   7.496 -0.0950  0.2985 -0.1041
   79POPC   GL2 1313   1.729   3.973   7.651  0.2254  0.1834 -0.1831
   79POPC   C1A 1314   2.046   3.924   7.265  0.0505 -0.1507  0.1111
   79POPC   D2A 1315   2.015   4.083   6.878 -0.0002  0.3555 -0.2336
   79POPC   C3A 1316   1.658   4.105   6.631  0.3366  0.0058  0.1729
   79POPC   C4A 1317   1.193   3.986   6.595 -0.0703 -0.2108  0.2255
   79POPC   C1B 1318   1.451   4.151   7.289 -0.1921 -0.0019  0.2395
   79POPC   C2B 1319   1.358   4.343   6.942  0.2989  0.1974 -0.2294
   79POPC   C3B 1320   1.207   4.482   6.604 -0.0544  0.2367 -0.2019
   79POPC   C4B 1321   1.401   4.295   6.231  0.0590  0.1437 -0.0493
   80POPC   NC3 1322   9.202   9.679   8.322  0.0909  0.0606  0.0487
   80POPC   PO4 1323   8.774   9.652   8.209 -0.3642  0.0438  0.0688
   80POPC   GL1 1324   8.875   9.521   7.796  0.1413 -0.0302 -0.0680
   80POPC   GL2 1325   9.005   9.202   7.726 -0.3115  0.1262  0.2184
   80POPC   C1A 1326   8.951   9.716   7.345 -0.3034 -0.1003  0.2129
   80POPC   D2A 1327   8.698   9.902   6.921  0.1721  0.3737 -0.0606
   80POPC   C3A 1328   8.691   9.626   6.566  0.0273  0.1619 -0.0383
   80POPC   C4A 1329   8.670   9.240   6.457  0.1844 -0.0548 -0.0814
   80POPC   C1B 1330   9.175   9.264   7.285 -0.2299 -0.0462 -0.2629
   80POPC   C2B 1331   9.098   9.532   6.940 -0.2306  0.0152  0.2810
   80POPC   C3B 1332   9.299   9.632   6.615 -0.0065 -0.0179  0.1950
   80POPC   C4B 1333   9.527   9.298   6.417 -0.2204  0.1946 -0.1100
   81POPC   NC3 1334   2.901   5.602   9.010 -0.0982 -0.0373 -0.0530
   81POPC   PO4 1335   3.090   5.270   8.744  0.0464 -0.1168 -0.0856
   81POPC   GL1 1336   2.709   5.338   8.463  0.1633 -0.1469 -0.0521
   81POPC   GL2 1337   2.601   5.584   8.500  0.2091  0.1292 -0.0532
   81POPC   C1A 1338   2.331   5.394   8.088  0.1724 -0.0777 -0.2141
   81POPC   D2A 1339   2.283   5.416   7.597 -0.0966 -0.0006  0.0388
   81POPC   C3A 1340   2.664   5.591   7.579  0.3360 -0.0398  0.1047
   81POPC   C4A 1341   2.897   5.972   7.679 -0.1624  0.2535  0.2245
   81POPC   C1B 1342   2.833   5.696   8.094 -0.2401 -0.0582 -0.0656
   81POPC   C2B 1343   3.165   5.458   7.806  0.1061 -0.1831 -0.4465
   81POPC   C3B 1344   3.188   5.099   7.516 -0.5171  0.2188  0.3850
   81POPC   C4B 1345   3.284   4.768   7.317 -0.1626  0.1037  0.1478
   82POPC   NC3 1346   4.953   8.766   8.353 -0.1839  0.0936 -0.3052
   82POPC   PO4 1347   4.635   8.507   8.274 -0.0018  0.0138 -0.1553
   82POPC   GL1 1348   4.409   8.492   7.847  0.0871  0.0061 -0.3579
   82POPC   GL2 1349   4.519   8.159   7.751  0.0324 -0.2289  0.2073
   82POPC   C1A 1350   4.178   8.530   7.452 -0.3116  0.0980 -0.1702
   82POPC   D2A 1351   3.859   8.523   7.297 -0.2299 -0.3197  0.1907
   82POPC   C3A 1352   3.946   8.676   6.945  0.2051  0.1301 -0.0673
   82POPC   C4A 1353   4.215   8.834   6.719  0.1247  0.2835  0.3391
   82POPC   C1B 1354   4.654   8.197   7.377  0.1617  0.0063 -0.0903
   82POPC   C2B 1355   4.765   7.974   6.920  0.0678 -0.1732 -0.2626
   82POPC   C3B 1356   4.832   8.108   6.463  0.1400 -0.1010 -0.2082
   82POPC   C4B 1357   4.899   8.192   6.069 -0.1654  0.1284  0.0311
   83POPC   NC3 1358   4.392   9.472   8.455  0.2319  0.1174 -0.1737
   83POPC   PO4 1359   4.041   9.188   8.293 -0.0652  0.1596  0.1850
   83POPC   GL1 1360   4.182   9.438   7.895 -0.0081  0.2704 -0.0625
   83POPC   GL2 1361   4.104   9.686   7.804 -0.0772 -0.2498  0.1542
   83POPC   C1A 1362   4.436   9.323   7.536  0.4123 -0.4673  0.1062
   83POPC   D2A 1363   4.564   9.360   7.139  0.2110 -0.0142  0.2263
   83POPC   C3A 1364   4.587   9.541   6.764  0.2603  0.1305  0.1945
   83POPC   C4A 1365   4.918   9.517   6.463  0.1521 -0.3058  0.3429
   83POPC   C1B 1366   4.070   9.765   7.389  0.4611  0.3804  0.3364
   83POPC   C2B 1367   4.050   9.514   6.993  0.0809  0.4748 -0.2816
   83POPC   C3B 1368   3.810   9.285   6.681 -0.1033 -0.3557  0.0408
   83POPC   C4B 1369   3.849   8.968   6.415 -0.1622 -0.0761 -0.4378
   84POPC   NC3 1370   6.639   7.389   9.394  0.3231  0.0848  0.0740
   84POPC   PO4 1371   6.895   7.462   9.076 -0.0110  0.0738 -0.0729
   84POPC   GL1 1372   7.111   7.556   8.582 -0.1971  0.2446 -0.1972
   84POPC   GL2 1373   7.359   7.422   8.476 -0.3806 -0.0903  0.0741
   84POPC   C1A 1374   7.021   7.782   8.214  0.2125  0.3061  0.0059
   84POPC   D2A 1375   6.784   7.905   7.948  0.0501 -0.0868  0.0540
   84POPC   C3A 1376   6.872   7.771   7.410 -0.0664  0.1263 -0.1759
   84POPC   C4A 1377   6.781   7.559   7.025  0.1256 -0.2971 -0.1790
   84POPC   C1B 1378   7.418   7.416   8.123  0.0348 -0.1986  0.2426
   84POPC   C2B 1379   7.267   7.684   7.804  0.5084  0.2010 -0.1745
   84POPC   C3B 1380   7.510   7.837   7.407  0.0639  0.0712 -0.0855
   84POPC   C4B 1381   7.770   7.498   7.170  0.1854 -0.1448 -0.0074
   85POPC   NC3 1382   1.950   5.823   9.768 -0.2409 -0.0622  0.0587
   85POPC   PO4 1383   2.115   5.738   9.336 -0.0553  0.2986 -0.0203
   85POPC   GL1 1384   1.912   5.884   8.959 -0.2423 -0.2503 -0.1406
   85POPC   GL2 1385   1.685   6.167   8.918 -0.0855  0.3391  0.0729
   85POPC   C1A 1386   1.969   6.069   8.551 -0.1417 -0.0442 -0.0580
   85POPC   D2A 1387   2.011   6.304   8.154 -0.0713 -0.0204  0.0314
   85POPC   C3A 1388   1.945   6.152   7.635 -0.1198  0.0600  0.1068
   85POPC   C4A 1389   2.027   5.837   7.244  0.3313 -0.0634 -0.0476
   85POPC   C1B 1390   1.295   5.960   8.829  0.0659 -0.0378  0.1119
   85POPC   C2B 1391   0.848   6.154   8.575 -0.0190 -0.1910 -0.2218
   85POPC   C3B 1392   1.046   6.218   8.164 -0.2460  0.1182 -0.0748
   85POPC   C4B 1393   1.025   6.364   7.719 -0.2852 -0.0068  0.3148
   86POPC   NC3 1394   1.511   1.528   8.414 -0.1751  0.1581  0.0771
   86POPC   PO4 1395   1.977   1.502   8.650 -0.0281 -0.1184  0.0963
   86POPC   GL1 1396   2.041   1.398   8.229  0.0505  0.0265 -0.0962
   86POPC   GL2 1397   2.308   1.189   8.078 -0.2891  0.0748 -0.0545
   86POPC   C1A 1398   1.949   1.379   7.711 -0.2064 -0.1531 -0.1009
   86POPC   D2A 1399   1.983   1.637   7.416  0.1694 -0.2388 -0.0877
   86POPC   C3A 1400   2.370   1.594   7.210  0.1775 -0.0195 -0.0231
   86POPC   C4A 1401   2.449   1.740   6.827  0.3056  0.1800  0.0004
   86POPC   C1B 1402   2.393   1.156   7.609 -0.0818  0.1611  0.2519
   86POPC   C2B 1403   2.166   1.147   7.241  0.0934  0.1182 -0.4029
   86POPC   C3B 1404   2.167   0.994   6.859  0.1941 -0.1010  0.0916
   86POPC   C4B 1405   2.149   1.335   6.516 -0.1707 -0.1812  0.0593
   87POPC   NC3 1406   0.075   9.627   7.814 -0.2930  0.2186 -0.1670
   87POPC   PO4 1407  -0.343   9.601   7.840 -0.1044 -0.2226 -0.3769
   87POPC   GL1 1408  -0.230   9.607   7.405  0.1880  0.0214 -0.2322
   87POPC   GL2 1409   0.061   9.591   7.327  0.1441  0.0653 -0.0237
   87POPC   C1A 1410  -0.438   9.924   7.054 -0.1150 -0.1066 -0.1264
   87POPC   D2A 1411  -0.682  10.063   6.655  0.0671 -0.0093  0.1630
   87POPC   C3A 1412  -0.467  10.341   6.323  0.3285  0.1470 -0.0526
   87POPC   C4A 1413  -0.602  10.354   5.973  0.1231 -0.2639  0.0777
   87POPC   C1B 1414  -0.096   9.557   6.919 -0.1066  0.1523 -0.0179
   87POPC   C2B 1415   0.163   9.689   6.576  0.0015 -0.2110 -0.0361
   87POPC   C3B 1416   0.504   9.594   6.200 -0.2453 -0.2326  0.1435
   87POPC   C4B 1417   0.777   9.300   6.102  0.0051 -0.2212  0.1519
   88POPC   NC3 1418   2.552   4.356   9.485 -0.1298 -0.1236  0.0904
   88POPC   PO4 1419   2.313   4.705   9.146  0.2393  0.1399  0.2658
   88POPC   GL1 1420   2.075   4.947   8.776 -0.0131 -0.2992  0.2912
   88POPC   GL2 1421   1.967   4.983   8.362  0.3742 -0.2645  0.1964
   88POPC   C1A 1422   2.108   5.421   8.560 -0.0983  0.2501  0.0212
   88POPC   D2A 1423   1.789   5.694   8.312 -0.2413  0.2887  0.0253
   88POPC   C3A 1424   1.478   5.537   8.039  0.1265 -0.1406  0.0584
   88POPC   C4A 1425   1.002   5.790   7.869 -0.0704 -0.0884 -0.1893
   88POPC   C1B 1426   1.869   5.165   8.067  0.0235 -0.1583  0.6060
   88POPC   C2B 1427   1.823   5.443   7.686  0.3148 -0.0562 -0.3011
   88POPC   C3B 1428   1.978   5.329   7.246 -0.0008 -0.0372 -0.1971
   88POPC   C4B 1429   1.896   5.536   6.889 -0.0666 -0.0761  0.1520
   89POPC   NC3 1430   7.604   0.324   8.688  0.1011  0.1808 -0.0386
   89POPC   PO4 1431   7.553   0.156   8.293  0.0790 -0.1606  0.0561
   89POPC   GL1 1432   7.731  -0.107   7.923  0.2529 -0.2465  0.5198
   89POPC   GL2 1433   7.527  -0.332   7.782 -0.0924 -0.2144 -0.2188
   89POPC   C1A 1434   7.654   0.017   7.466 -0.0191  0.0689 -0.0336
   89POPC   D2A 1435   7.594   0.225   7.002 -0.1987  0.3091  0.2073
   89POPC   C3A 1436   7.731   0.266   6.700 -0.0070  0.1647 -0.0236
   89POPC   C4A 1437   7.866   0.544   6.380 -0.0637  0.0249  0.1007
   89POPC   C1B 1438   7.585  -0.700   7.580 -0.0055  0.1192  0.1468
   89POPC   C2B 1439   7.614  -0.774   7.108 -0.0470 -0.0844  0.1208
   89POPC   C3B 1440   7.633  -0.740   6.664  0.2746 -0.3369 -0.0614
   89POPC   C4B 1441   7.348  -0.813   6.457 -0.0155  0.1159  0.4881
   90POPC   NC3 1442   5.250   7.899   8.874 -0.1715  0.2198  0.5094
   90POPC   PO4 1443   5.527   8.011   8.543  0.3372 -0.2730  0.0812
   90POPC   GL1 1444   5.536   8.061   8.126 -0.3551  0.0184  0.2587
   90POPC   GL2 1445   5.871   8.010   8.176  0.2383  0.6451  0.0414
   90POPC   C1A 1446   5.480   7.797   7.800 -0.0377  0.2350 -0.1417
   90POPC   D2A 1447   5.489   7.532   7.455 -0.0560  0.2883  0.2146
   90POPC   C3A 1448   5.797   7.244   7.322  0.0661 -0.2416  0.0569
   90POPC   C4A 1449   6.086   6.927   7.159 -0.0506  0.0195  0.1837
   90POPC   C1B 1450   6.257   7.918   7.889 -0.2406 -0.3170 -0.1302
   90POPC   C2B 1451   6.441   7.569   7.683 -0.1488 -0.0587 -0.1691
   90POPC   C3B 1452   6.701   7.268   7.493 -0.0444  0.1462  0.1557
   90POPC   C4B 1453   6.988   7.089   7.109  0.0033  0.4518 -0.0097
   91POPC   NC3 1454   8.374   7.950   9.287 -0.1394  0.3337  0.1337
   91POPC   PO4 1455   8.049   7.738   9.324  0.0147  0.0116  0.1728
   91POPC   GL1 1456   8.265   7.704   8.856 -0.1699 -0.2190 -0.1040
   91POPC   GL2 1457   7.965   7.538   8.728  0.1869 -0.1687 -0.0434
   91POPC   C1A 1458   8.438   7.513   8.440 -0.2174  0.1137 -0.0809
   91POPC   D2A 1459   8.501   7.572   8.000  0.0614 -0.0111  0.1175
   91POPC   C3A 1460   8.485   7.212   7.686 -0.3263  0.1195 -0.0597
   91POPC   C4A 1461   8.489   7.041   7.288  0.2310  0.1023  0.2407
   91POPC   C1B 1462   7.892   7.505   8.222  0.2197 -0.0929 -0.1465
   91POPC   C2B 1463   8.009   7.182   7.940 -0.0176 -0.0014  0.0675
   91POPC   C3B 1464   8.026   7.036   7.530 -0.1338 -0.2519  0.2216
   91POPC   C4B 1465   7.983   7.062   7.052  0.1765  0.2614 -0.2306
   92POPC   NC3 1466   2.347   8.417   8.472  0.1485  0.2719 -0.4100
   92POPC   PO4 1467   2.596   8.108   8.351 -0.0084  0.3464 -0.1176
   92POPC   GL1 1468   2.637   7.995   7.932 -0.3072  0.2737  0.4043
   92POPC   GL2 1469   2.625   8.211   7.794 -0.0800  0.0875 -0.0202
   92POPC   C1A 1470   2.566   7.739   7.529 -0.0567  0.1447  0.0558
   92POPC   D2A 1471   2.515   7.527   7.181 -0.1798 -0.0720 -0.0212
   92POPC   C3A 1472   2.466   7.693   6.803 -0.0680 -0.1274 -0.0679
   92POPC   C4A 1473   2.423   8.028   6.475  0.1554  0.2335  0.0557
   92POPC   C1B 1474   2.428   8.380   7.426 -0.1633 -0.0199  0.0057
   92POPC   C2B 1475   2.438   8.711   7.217  0.1631  0.1168  0.1310
   92POPC   C3B 1476   2.132   8.693   6.883  0.0099  0.1285 -0.2330
   92POPC   C4B 1477   2.086   8.837   6.377  0.1960  0.2321 -0.0921
   93POPC   NC3 1478   5.228   6.920   8.624  0.0977 -0.1867 -0.1530
   93POPC   PO4 1479   4.925   6.989   8.235 -0.0957  0.1433  0.2369
   93POPC   GL1 1480   5.143   7.005   7.778  0.4331 -0.1669  0.2207
   93POPC   GL2 1481   5.380   6.858   7.699 -0.0234  0.1944  0.0818
   93POPC   C1A 1482   5.231   7.155   7.267  0.0639  0.0779  0.0616
   93POPC   D2A 1483   5.193   7.047   6.849 -0.1888  0.0723 -0.2281
   93POPC   C3A 1484   5.567   7.104   6.756  0.3077 -0.3436  0.0429
   93POPC   C4A 1485   5.937   7.249   6.772  0.1638  0.2515 -0.1390
   93POPC   C1B 1486   5.542   6.826   7.287 -0.0029  0.0240 -0.1084
   93POPC   C2B 1487   5.715   6.519   7.017  0.3545 -0.1336  0.1593
   93POPC   C3B 1488   5.841   6.611   6.659 -0.0261  0.1200  0.1442
   93POPC   C4B 1489   5.949   6.496   6.220 -0.0324  0.0059 -0.0946
   94POPC   NC3 1490   5.138   6.124   8.069  0.0963 -0.1023 -0.1598
   94POPC   PO4 1491   5.526   5.942   8.186 -0.0366  0.4931 -0.2856
   94POPC   GL1 1492   5.479   5.850   7.766  0.3357  0.1040  0.1335
   94POPC   GL2 1493   5.860   5.791   7.796 -0.1125  0.1152  0.0776
   94POPC   C1A 1494   5.497   5.791   7.397 -0.1481  0.0699 -0.0421
   94POPC   D2A 1495   5.315   5.471   7.012  0.2574  0.2067  0.2557
   94POPC   C3A 1496   5.366   5.682   6.515 -0.0118  0.3628  0.3856
   94POPC   C4A 1497   5.516   5.328   6.285 -0.1268  0.1117 -0.2514
   94POPC   C1B 1498   6.125   5.659   7.413 -0.1018  0.1104 -0.0695
   94POPC   C2B 1499   6.345   5.685   6.961  0.1758 -0.3727  0.1585
   94POPC   C3B 1500   6.698   5.843   6.713  0.0964 -0.0132  0.1690
   94POPC   C4B 1501   6.594   5.822   6.210  0.1899 -0.1855 -0.2030
   95POPC   NC3 1502   5.805   2.070   8.523  0.3220  0.2946 -0.1983
   95POPC   PO4 1503   5.736   2.203   8.147 -0.1062  0.0658 -0.1180
   95POPC   GL1 1504   5.579   2.458   7.783 -0.1529 -0.1845  0.0619
   95POPC   GL2 1505   5.482   2.248   7.623 -0.0829 -0.5307 -0.0862
   95POPC   C1A 1506   5.394   2.844   7.583  0.3190 -0.1674 -0.1973
   95POPC   D2A 1507   5.325   3.234   7.416 -0.0650 -0.0525 -0.1192
   95POPC   C3A 1508   5.256   3.332   6.932  0.2782 -0.1754 -0.0387
   95POPC   C4A 1509   5.166   3.476   6.535 -0.1141  0.0462  0.1720
   95POPC   C1B 1510   5.616   2.232   7.198  0.2911 -0.1565  0.2330
   95POPC   C2B 1511   5.639   2.181   6.807 -0.0081  0.0958 -0.2556
   95POPC   C3B 1512   5.367   1.996   6.447  0.3355 -0.0113  0.0413
   95POPC   C4B 1513   5.334   1.778   6.109 -0.2226 -0.0599  0.3419
   96POPC   NC3 1514   7.566   4.473   8.580  0.0496  0.3636 -0.0902
   96POPC   PO4 1515   7.927   4.091   8.493 -0.2543 -0.1063  0.1447
   96POPC   GL1 1516   7.620   4.094   8.142  0.1669 -0.0704  0.2678
   96POPC   GL2 1517   7.502   3.904   8.009  0.0177 -0.2215 -0.1661
   96POPC   C1A 1518   7.682   4.177   7.682  0.0307  0.1354  0.1132
   96POPC   D2A 1519   7.783   4.017   7.264  0.4626 -0.0925 -0.1125
   96POPC   C3A 1520   7.924   4.116   6.876 -0.1481 -0.0288  0.1522
   96POPC   C4A 1521   8.126   4.069   6.454 -0.1856  0.0515 -0.1199
   96POPC   C1B 1522   7.575   3.666   7.665 -0.0452  0.1683  0.0469
   96POPC   C2B 1523   7.711   3.292   7.484 -0.2769 -0.1450  0.1724
   96POPC   C3B 1524   7.519   3.142   7.098  0.0031 -0.0932  0.2965
   96POPC   C4B 1525   7.246   2.933   6.878 -0.0857 -0.3227 -0.1782
   97POPC   NC3 1526   2.807   3.398   7.788  0.3363 -0.0771 -0.0535
   97POPC   PO4 1527   3.052   3.101   8.051  0.5256 -0.2559  0.2751
   97POPC   GL1 1528   2.712   2.939   7.738 -0.0178 -0.3856  0.0749
   97POPC   GL2 1529   2.560   3.176   7.397  0.1172  0.3384  0.2246
   97POPC   C1A 1530   2.756   2.581   7.412  0.2990 -0.1259  0.0351
   97POPC   D2A 1531   2.894   2.284   7.214 -0.2012  0.2366  0.3242
   97POPC   C3A 1532   3.141   2.299   6.774 -0.0081 -0.3954 -0.1443
   97POPC   C4A 1533   3.350   2.370   6.488  0.1609  0.0298 -0.3268
   97POPC   C1B 1534   2.425   2.941   7.108 -0.1149 -0.0890 -0.1618
   97POPC   C2B 1535   2.382   2.954   6.702  0.0536  0.0155 -0.0147
   97POPC   C3B 1536   2.333   3.363   6.501  0.2464 -0.1467 -0.3565
   97POPC   C4B 1537   1.916   3.550   6.489 -0.2521  0.2304 -0.1432
   98POPC   NC3 1538   8.412   1.106   7.664  0.1029 -0.0240 -0.0117
   98POPC   PO4 1539   8.229   0.730   7.577  0.0385  0.0387  0.1253
   98POPC   GL1 1540   8.271   0.800   7.192  0.0567  0.2051  0.0072
   98POPC   GL2 1541   8.375   1.095   7.185 -0.2496 -0.0329 -0.2083
   98POPC   C1A 1542   8.203   0.779   6.710 -0.0904  0.0760  0.1763
   98POPC   D2A 1543   8.338   0.744   6.334 -0.3607  0.0920  0.0649
   98POPC   C3A 1544   8.266   0.463   6.117  0.1170 -0.1768  0.1899
   98POPC   C4A 1545   8.244   0.324   5.735  0.0974 -0.2531 -0.1751
   98POPC   C1B 1546   8.333   1.508   7.009 -0.3348  0.0956  0.1259
   98POPC   C2B 1547   8.150   1.635   6.699  0.0632 -0.0085  0.1908
   98POPC   C3B 1548   8.353   1.620   6.266 -0.0183  0.2427 -0.1019
   98POPC   C4B 1549   8.734   1.841   6.224  0.2875  0.3222 -0.0246
   99POPC   NC3 1550   9.137   3.772   8.490  0.1068  0.2091  0.1557
   99POPC   PO4 1551   9.389   4.126   8.662 -0.2768 -0.1937 -0.1652
   99POPC   GL1 1552   9.376   4.259   8.195 -0.0879 -0.1428  0.1459
   99POPC   GL2 1553   9.300   4.517   8.115 -0.1426 -0.0007  0.0899
   99POPC   C1A 1554   9.626   4.221   7.821  0.0550  0.0702 -0.2731
   99POPC   D2A 1555   9.733   3.800   7.780 -0.0411 -0.0605 -0.2581
   99POPC   C3A 1556   9.933   3.652   7.361  0.0433 -0.1883  0.0065
   99POPC   C4A 1557   9.783   3.407   7.071  0.0275 -0.0084 -0.2011
   99POPC   C1B 1558   9.373   4.795   7.764 -0.3599  0.1636 -0.0515
   99POPC   C2B 1559   9.677   4.985   7.429  0.1035 -0.3071  0.0804
   99POPC   C3B 1560   9.781   4.929   7.087 -0.2503 -0.2098 -0.0764
   99POPC   C4B 1561   9.610   4.761   6.718 -0.0886  0.0354 -0.0603
  100POPC   NC3 1562   7.155   9.339   8.553  0.0362  0.3015  0.1016
  100POPC   PO4 1563   7.249   9.079   8.185 -0.1820 -0.1606 -0.0232
  100POPC   GL1 1564   7.125   9.163   7.758 -0.2024 -0.0523  0.2105
  100POPC   GL2 1565   6.807   9.344   7.690  0.3643  0.1340  0.2480
  100POPC   C1A 1566   6.942   9.115   7.272 -0.3189  0.1946  0.1472
  100POPC   D2A 1567   6.637   9.259   6.984 -0.0277  0.2086 -0.2729
  100POPC   C3A 1568   6.466   9.166   6.649 -0.1223  0.1347 -0.1407
  100POPC   C4A 1569   6.461   8.757   6.462 -0.2181 -0.0576 -0.2589
  100POPC   C1B 1570   6.490   9.235   7.489  0.2200  0.0353 -0.1652
  100POPC   C2B 1571   6.294   9.047   7.257 -0.1298 -0.0820 -0.1300
  100POPC   C3B 1572   6.358   8.691   7.007  0.3512  0.3396  0.0350
  100POPC   C4B 1573   6.515   8.325   6.933  0.2015  0.1452  0.4662
  101POPC   NC3 1574   3.533   8.512   8.173 -0.0018 -0.0259  0.0770
  101POPC   PO4 1575   3.268   8.756   8.278 -0.0835  0.2071 -0.2038
  101POPC   GL1 1576   3.135   8.631   7.808 -0.1514 -0.0595 -0.1358
  101POPC   GL2 1577   2.869   8.579   7.546  0.1506 -0.2939 -0.0515
  101POPC   C1A 1578   3.317   8.827   7.491  0.2550  0.0111  0.0647
  101POPC   D2A 1579   3.519   8.985   7.198 -0.0839  0.1092 -0.1332
  101POPC   C3A 1580   3.320   9.086   6.812 -0.1079  0.0267  0.0531
  101POPC   C4A 1581   3.282   9.128   6.335  0.1585  0.2208  0.0038
  101POPC   C1B 1582   2.918   8.626   7.048 -0.0256  0.2698 -0.1927
  101POPC   C2B 1583   2.497   8.482   6.633  0.1426  0.0627  0.0033
  101POPC   C3B 1584   2.725   8.346   6.195  0.2372 -0.2068 -0.1053
  101POPC   C4B 1585   3.157   8.180   6.100 -0.0737 -0.1402 -0.1490
  102POPC   NC3 1586   3.654   1.121   8.150  0.4116  0.0510 -0.1231
  102POPC   PO4 1587   3.371   1.234   7.857  0.0219  0.2341 -0.0697
  102POPC   GL1 1588   3.148   1.440   7.449 -0.1845 -0.0260  0.0350
  102POPC   GL2 1589   3.416   1.556   7.341 -0.1859  0.1756  0.1200
  102POPC   C1A 1590   2.868   1.210   7.204  0.3874 -0.4009 -0.2133
  102POPC   D2A 1591   2.565   1.230   6.919  0.3887 -0.1585 -0.0657
  102POPC   C3A 1592   2.686   1.063   6.521  0.1644 -0.3410 -0.1189
  102POPC   C4A 1593   2.390   1.032   6.127 -0.1836 -0.0936 -0.1842
  102POPC   C1B 1594   3.348   1.402   6.949  0.1403 -0.0365  0.0741
  102POPC   C2B 1595   3.228   1.179   6.706  0.2790  0.2126  0.0118
  102POPC   C3B 1596   3.441   0.858   6.411  0.1368 -0.0433 -0.0429
  102POPC   C4B 1597   3.502   0.608   6.100 -0.1439  0.0515  0.0623
  103POPC   NC3 1598   7.791   2.413   8.004  0.2323 -0.3050  0.2426
  103POPC   PO4 1599   7.553   2.801   8.220  0.0409 -0.1159 -0.0248
  103POPC   GL1 1600   7.462   2.973   7.796 -0.2293  0.1053  0.2362
  103POPC   GL2 1601   7.188   3.054   7.868 -0.0151  0.2999 -0.0702
  103POPC   C1A 1602   7.257   2.802   7.351 -0.2080  0.1101 -0.1405
  103POPC   D2A 1603   6.909   2.687   7.125  0.0013  0.1248 -0.3771
  103POPC   C3A 1604   6.773   2.873   6.785  0.0188  0.1045 -0.4880
  103POPC   C4A 1605   6.405   3.012   6.441  0.0514  0.2949  0.3044
  103POPC   C1B 1606   7.163   3.315   7.517  0.0923  0.0126  0.1799
  103POPC   C2B 1607   7.104   3.350   7.099  0.1296 -0.0322 -0.1124
  103POPC   C3B 1608   7.340   3.420   6.664  0.1099  0.2409 -0.1822
  103POPC   C4B 1609   7.648   3.334   6.241  0.0522  0.4827 -0.1029
  104POPC   NC3 1610   8.403   9.090   8.573 -0.0487  0.0407  0.0487
  104POPC   PO4 1611   8.741   8.759   8.671 -0.0616  0.1376  0.0772
  104POPC   GL1 1612   8.546   8.709   8.261 -0.4499  0.0334  0.0566
  104POPC   GL2 1613   8.381   8.408   8.227  0.1903  0.1236  0.0710
  104POPC   C1A 1614   8.634   8.616   7.822  0.1570 -0.5665  0.0300
  104POPC   D2A 1615   8.763   8.522   7.426 -0.0319  0.0518  0.0305
  104POPC   C3A 1616   8.743   8.324   7.042  0.1249 -0.0960 -0.0899
  104POPC   C4A 1617   8.879   8.127   6.638  0.2049 -0.1693  0.0004
  104POPC   C1B 1618   8.464   8.124   8.558  0.0669 -0.1744 -0.0861
  104POPC   C2B 1619   8.800   7.799   8.554  0.1318 -0.0929  0.1961
  104POPC   C3B 1620   9.110   7.574   8.727 -0.1554 -0.3041 -0.1114
  104POPC   C4B 1621   9.226   7.089   8.614 -0.0411 -0.0185  0.4680
  105POPC   NC3 1622   0.590   3.178   8.419 -0.0592  0.0703 -0.1535
  105POPC   PO4 1623   0.678   3.470   8.121 -0.1406  0.0290  0.2003
  105POPC   GL1 1624   0.683   3.729   7.704  0.2303  0.0455 -0.0891
  105POPC   GL2 1625   0.870   4.023   7.760  0.1010 -0.0701  0.1063
  105POPC   C1A 1626   0.783   3.698   7.240  0.3026 -0.3292  0.2981
  105POPC   D2A 1627   0.499   3.625   6.921  0.2133  0.0951 -0.1128
  105POPC   C3A 1628   0.688   3.890   6.492  0.1219 -0.0007 -0.0870
  105POPC   C4A 1629   0.792   4.184   6.239  0.0599  0.1774  0.0371
  105POPC   C1B 1630   0.996   4.188   7.279 -0.6160  0.0002  0.3969
  105POPC   C2B 1631   0.814   4.233   6.907 -0.1338 -0.1267  0.2151
  105POPC   C3B 1632   0.704   4.473   6.634 -0.1397  0.0392 -0.4429
  105POPC   C4B 1633   0.860   4.684   6.308  0.2277  0.3471 -0.0115
  106POPC   NC3 1634   8.191   8.658   8.601 -0.0788 -0.0283  0.0415
  106POPC   PO4 1635   7.931   8.982   8.629 -0.1087 -0.1782  0.1245
  106POPC   GL1 1636   7.891   8.857   8.272 -0.0644 -0.2793 -0.0455
  106POPC   GL2 1637   7.624   8.769   8.061 -0.1298 -0.1215 -0.0203
  106POPC   C1A 1638   8.127   8.740   7.899 -0.3717 -0.0385  0.1198
  106POPC   D2A 1639   8.009   8.724   7.476  0.1260  0.0525 -0.1974
  106POPC   C3A 1640   8.314   8.505   7.244 -0.1345 -0.0277 -0.1269
  106POPC   C4A 1641   8.341   8.256   6.778  0.0225 -0.0970  0.1468
  106POPC   C1B 1642   7.566   8.485   7.631 -0.1181 -0.5496 -0.0069
  106POPC   C2B 1643   7.644   8.389   7.279 -0.1198  0.1931 -0.2576
  106POPC   C3B 1644   7.861   8.645   6.965 -0.0343 -0.0430  0.4194
  106POPC   C4B 1645   8.014   8.655   6.646  0.2512  0.1641 -0.2608
  107POPC   NC3 1646   2.303   3.607   8.120 -0.1396  0.0819 -0.0764
  107POPC   PO4 1647   2.641   3.818   8.326  0.0549  0.0293 -0.1212
  107POPC   GL1 1648   2.694   3.872   7.849  0.0903  0.1034  0.1765
  107POPC   GL2 1649   3.007   3.844   7.667  0.0675 -0.2746  0.2249
  107POPC   C1A 1650   2.645   4.164   7.542  0.1388  0.0884 -0.0673
  107POPC   D2A 1651   2.782   4.178   7.070  0.1753  0.1062  0.1563
  107POPC   C3A 1652   3.063   4.275   6.778  0.0187  0.1433  0.2379
  107POPC   C4A 1653   3.339   4.222   6.446  0.1926  0.3740  0.2827
  107POPC   C1B 1654   2.888   3.708   7.233  0.1367  0.2734 -0.2795
  107POPC   C2B 1655   2.607   3.685   6.961  0.1243  0.0105  0.0345
  107POPC   C3B 1656   2.360   3.867   6.558  0.3251  0.0839  0.4870
  107POPC   C4B 1657   2.241   4.210   6.221  0.2222  0.2614 -0.0417
  108POPC   NC3 1658   4.314   5.870   8.128 -0.0548 -0.0333  0.1000
  108POPC   PO4 1659   4.604   6.124   8.044 -0.4127  0.3142 -0.0379
  108POPC   GL1 1660   4.463   5.983   7.693 -0.1105 -0.1813  0.0714
  108POPC   GL2 1661   4.437   6.105   7.438  0.3195 -0.3189  0.1363
  108POPC   C1A 1662   4.530   5.653   7.309  0.3244 -0.0869 -0.0777
  108POPC   D2A 1663   4.641   5.507   6.854  0.1647 -0.2326 -0.0544
  108POPC   C3A 1664   4.875   5.797   6.542  0.2167  0.1710  0.2678
  108POPC   C4A 1665   5.110   6.195   6.514 -0.0066  0.2474  0.0688
  108POPC   C1B 1666   4.258   6.052   7.076  0.0514 -0.0811 -0.0546
  108POPC   C2B 1667   4.159   5.792   6.768 -0.1342 -0.0883 -0.3732
  108POPC   C3B 1668   4.150   5.422   6.624 -0.1013 -0.0120 -0.0439
  108POPC   C4B 1669   4.090   5.356   6.222 -0.0031 -0.0177 -0.3460
  109POPC   NC3 1670   7.728   0.652   8.039  0.3101 -0.2567 -0.0599
  109POPC   PO4 1671   7.482   0.949   7.790 -0.0444 -0.1299  0.1779
  109POPC   GL1 1672   7.585   0.576   7.525  0.1709 -0.0409  0.2275
  109POPC   GL2 1673   7.784   0.545   7.454 -0.0133  0.1431  0.1450
  109POPC   C1A 1674   7.303   0.372   7.354  0.1476  0.0553 -0.0643
  109POPC   D2A 1675   7.064   0.232   7.108  0.1177 -0.1234 -0.0726
  109POPC   C3A 1676   7.070  -0.137   7.002  0.6024 -0.0081 -0.1912
  109POPC   C4A 1677   7.181  -0.593   6.881 -0.0558  0.2363  0.1054
  109POPC   C1B 1678   7.768   0.668   7.010 -0.0854  0.2620 -0.1756
  109POPC   C2B 1679   7.680   0.857   6.682 -0.0879  0.0132  0.0146
  109POPC   C3B 1680   7.493   0.787   6.249 -0.0386  0.3938  0.0957
  109POPC   C4B 1681   7.585   0.552   5.936  0.1629  0.4661 -0.1309
  110POPC   NC3 1682   9.116   1.631   8.043 -0.3368 -0.0244 -0.0533
  110POPC   PO4 1683   8.927   2.083   7.977 -0.0259 -0.1689  0.1811
  110POPC   GL1 1684   8.876   2.302   7.645  0.2006 -0.0372 -0.2684
  110POPC   GL2 1685   9.028   2.650   7.711 -0.1558 -0.0543  0.1811
  110POPC   C1A 1686   8.584   2.279   7.332  0.0625  0.1182 -0.3637
  110POPC   D2A 1687   8.499   2.377   6.976 -0.2026 -0.1522  0.2552
  110POPC   C3A 1688   8.472   2.780   7.057 -0.0749 -0.2272 -0.0959
  110POPC   C4A 1689   8.453   3.326   7.110  0.0077 -0.4365 -0.0191
  110POPC   C1B 1690   9.046   2.570   7.241  0.0029  0.1455  0.4292
  110POPC   C2B 1691   9.053   2.722   6.932 -0.1229  0.1041  0.1283
  110POPC   C3B 1692   8.967   2.822   6.549  0.0210 -0.0235  0.0341
  110POPC   C4B 1693   8.863   2.968   6.090 -0.2232  0.4583 -0.0677
  111POPC   NC3 1694   0.105   1.760   7.906  0.0247  0.0052 -0.0992
  111POPC   PO4 1695  -0.249   1.632   7.755 -0.1074  0.0572 -0.0516
  111POPC   GL1 1696  -0.383   1.483   7.391  0.2478  0.0735  0.2171
  111POPC   GL2 1697  -0.430   1.124   7.332  0.1618  0.0106  0.2238
  111POPC   C1A 1698  -0.576   1.691   7.117 -0.0570 -0.1358 -0.2828
  111POPC   D2A 1699  -0.670   1.694   6.668 -0.2120 -0.2091  0.2129
  111POPC   C3A 1700  -1.022   1.504   6.584 -0.3193  0.1727 -0.1473
  111POPC   C4A 1701  -1.254   1.189   6.672  0.1293  0.0736 -0.0616
  111POPC   C1B 1702  -0.007   1.172   7.187  0.2014 -0.4966  0.1791
  111POPC   C2B 1703   0.295   1.363   6.941  0.0546 -0.2416  0.1141
  111POPC   C3B 1704   0.732   1.502   7.028  0.1929  0.1402  0.1444
  111POPC   C4B 1705   1.001   1.833   6.992  0.1741  0.0701 -0.1858
  112POPC   NC3 1706   8.858   6.848   9.578 -0.0247  0.1225  0.3195
  112POPC   PO4 1707   8.855   7.224   9.401 -0.0461  0.1381  0.0097
  112POPC   GL1 1708   8.697   7.002   8.943  0.0264  0.0741 -0.0431
  112POPC   GL2 1709   8.326   7.077   8.897  0.2286  0.2112  0.0734
  112POPC   C1A 1710   8.749   6.974   8.512  0.0960  0.1305  0.0611
  112POPC   D2A 1711   8.886   7.307   8.227 -0.0928  0.1320  0.2065
  112POPC   C3A 1712   8.980   7.233   7.784  0.0905  0.1301  0.0119
  112POPC   C4A 1713   9.173   7.402   7.514 -0.2633 -0.4172 -0.3434
  112POPC   C1B 1714   8.183   7.095   8.459 -0.2578 -0.2492  0.1081
  112POPC   C2B 1715   8.465   7.079   8.146  0.0293 -0.0603  0.2234
  112POPC   C3B 1716   8.723   6.717   8.038 -0.2737 -0.1339 -0.1256
  112POPC   C4B 1717   9.089   6.511   7.951  0.0671  0.0856 -0.0526
  113POPC   NC3 1718   8.334   9.746   7.972 -0.4495  0.2622 -0.0507
  113POPC   PO4 1719   8.095  10.105   7.856 -0.3388 -0.1258  0.0961
  113POPC   GL1 1720   8.237   9.932   7.445 -0.1025  0.1340  0.0211
  113POPC   GL2 1721   8.433   9.681   7.530 -0.0335 -0.0742 -0.0098
  113POPC   C1A 1722   8.212  10.090   7.017  0.1251  0.1872 -0.0899
  113POPC   D2A 1723   8.274  10.105   6.575 -0.0345 -0.0581  0.0851
  113POPC   C3A 1724   8.005   9.866   6.249 -0.1566 -0.0347 -0.4077
  113POPC   C4A 1725   8.063   9.606   5.878  0.1729  0.1235  0.1955
  113POPC   C1B 1726   8.398   9.548   7.141  0.0644  0.0528  0.1316
  113POPC   C2B 1727   8.654   9.232   6.915  0.2798  0.4937  0.0423
  113POPC   C3B 1728   8.579   8.825   6.775 -0.2297 -0.1108  0.1633
  113POPC   C4B 1729   8.447   8.556   6.421 -0.1107  0.2477 -0.1654
  114POPC   NC3 1730   8.896   2.967   8.648  0.2547  0.1791 -0.3908
  114POPC   PO4 1731   8.882   3.345   8.389 -0.1306 -0.1348 -0.4568
  114POPC   GL1 1732   8.972   3.542   8.028  0.1278 -0.1505 -0.1768
  114POPC   GL2 1733   8.956   3.377   7.768 -0.0672  0.0857 -0.0801
  114POPC   C1A 1734   9.159   3.887   7.873  0.5195 -0.4561 -0.0972
  114POPC   D2A 1735   9.044   4.233   7.780  0.1662 -0.0175 -0.1938
  114POPC   C3A 1736   9.014   4.423   7.364 -0.3037 -0.2474  0.0095
  114POPC   C4A 1737   9.372   4.490   7.069  0.2312 -0.0787  0.1163
  114POPC   C1B 1738   8.635   3.548   7.501 -0.1414 -0.2047 -0.0919
  114POPC   C2B 1739   8.800   3.826   7.116  0.1168 -0.1165  0.4791
  114POPC   C3B 1740   8.960   4.174   6.953  0.2456 -0.3467  0.0057
  114POPC   C4B 1741   8.972   4.609   6.762  0.1604 -0.0632  0.0709
  115POPC   NC3 1742   5.220   9.381   8.575  0.0940  0.0042 -0.0905
  115POPC   PO4 1743   4.892   9.313   8.284 -0.1039 -0.1699  0.1600
  115POPC   GL1 1744   4.921   9.136   7.807  0.2478  0.1886  0.1348
  115POPC   GL2 1745   4.756   8.832   7.840  0.1341  0.1865  0.0440
  115POPC   C1A 1746   4.947   9.207   7.414 -0.0272  0.1845 -0.0207
  115POPC   D2A 1747   4.900   8.983   7.049  0.3176  0.2297  0.4420
  115POPC   C3A 1748   4.629   9.072   6.717  0.3727  0.0130  0.0090
  115POPC   C4A 1749   4.340   9.173   6.347  0.0069 -0.4166 -0.3096
  115POPC   C1B 1750   4.665   8.734   7.434  0.1315 -0.0276  0.2066
  115POPC   C2B 1751   4.524   8.599   7.008 -0.0181  0.4457  0.5868
  115POPC   C3B 1752   4.891   8.475   6.788 -0.1323 -0.0306 -0.0625
  115POPC   C4B 1753   5.161   8.700   6.574 -0.1152 -0.0411  0.1728
  116POPC   NC3 1754   6.723   3.228   8.096  0.1657  0.1944  0.1407
  116POPC   PO4 1755   6.441   3.538   8.018  0.1434 -0.0388 -0.1706
  116POPC   GL1 1756   6.674   3.574   7.605 -0.0939  0.0190 -0.1435
  116POPC   GL2 1757   6.769   3.863   7.403 -0.1775  0.1184 -0.0071
  116POPC   C1A 1758   6.651   3.439   7.186 -0.1022  0.0417 -0.1248
  116POPC   D2A 1759   6.648   3.419   6.724 -0.2315  0.1943 -0.0927
  116POPC   C3A 1760   6.174   3.489   6.596  0.0708 -0.1705 -0.0089
  116POPC   C4A 1761   5.981   3.282   6.169 -0.4064 -0.2771  0.2611
  116POPC   C1B 1762   7.183   3.793   7.370  0.0865  0.1979  0.0447
  116POPC   C2B 1763   7.513   3.627   7.052 -0.1452 -0.1802 -0.4334
  116POPC   C3B 1764   7.869   3.563   6.890  0.1805 -0.1961 -0.2223
  116POPC   C4B 1765   8.022   3.570   6.524  0.1651  0.2415 -0.1428
  117POPC   NC3 1766   5.972   6.683   8.404 -0.0223  0.0455 -0.0603
  117POPC   PO4 1767   5.731   7.118   8.566 -0.3518  0.1229 -0.2314
  117POPC   GL1 1768   6.015   7.227   8.196 -0.0820 -0.3047 -0.2012
  117POPC   GL2 1769   6.226   7.113   7.924  0.1345  0.2127 -0.1728
  117POPC   C1A 1770   5.913   7.486   7.821 -0.2922 -0.0981  0.0349
  117POPC   D2A 1771   5.963   7.696   7.365 -0.0602  0.1508 -0.1483
  117POPC   C3A 1772   6.224   7.430   7.168 -0.0217 -0.0176  0.4120
  117POPC   C4A 1773   6.484   7.163   6.849 -0.1936 -0.1263 -0.0890
  117POPC   C1B 1774   6.362   6.854   7.593 -0.0969  0.0180  0.1686
  117POPC   C2B 1775   6.561   6.765   7.232 -0.0483  0.0788  0.0768
  117POPC   C3B 1776   6.772   6.813   6.725 -0.0281 -0.0404  0.0349
  117POPC   C4B 1777   7.259   6.809   6.765 -0.1364  0.0101  0.1706
  118POPC   NC3 1778   1.775   7.123   9.202 -0.0870  0.1296  0.2200
  118POPC   PO4 1779   2.018   6.729   9.261 -0.0002 -0.0153 -0.1995
  118POPC   GL1 1780   2.101   6.769   8.874 -0.1691 -0.0492  0.1252
  118POPC   GL2 1781   1.948   7.049   8.628 -0.3550 -0.1042  0.1353
  118POPC   C1A 1782   2.437   6.552   8.502 -0.0144  0.2586 -0.0342
  118POPC   D2A 1783   2.598   6.784   8.055  0.0225  0.2570 -0.0009
  118POPC   C3A 1784   2.394   7.160   8.223  0.2726  0.0592 -0.0351
  118POPC   C4A 1785   2.211   7.580   7.994  0.0910  0.3509  0.1725
  118POPC   C1B 1786   2.119   6.770   8.249 -0.0210 -0.1891 -0.4710
  118POPC   C2B 1787   1.934   6.719   7.910 -0.2151 -0.2024  0.0619
  118POPC   C3B 1788   1.992   6.724   7.512  0.2421 -0.2542  0.1306
  118POPC   C4B 1789   2.136   6.756   7.082  0.0287 -0.1886 -0.0222
  119POPC   NC3 1790   8.130   4.855   9.057 -0.0905  0.0202  0.1686
  119POPC   PO4 1791   8.406   4.989   8.747 -0.1793 -0.2257 -0.0112
  119POPC   GL1 1792   8.209   4.856   8.435 -0.1032  0.2445  0.0639
  119POPC   GL2 1793   7.903   4.957   8.235  0.2964 -0.0662 -0.1570
  119POPC   C1A 1794   8.396   5.047   8.073  0.1808  0.3470  0.0948
  119POPC   D2A 1795   8.764   5.180   7.893 -0.0170  0.0945 -0.2242
  119POPC   C3A 1796   8.609   5.251   7.530  0.2612 -0.4195 -0.0807
  119POPC   C4A 1797   8.882   5.298   7.183 -0.1188  0.0026 -0.2893
  119POPC   C1B 1798   8.047   4.779   7.851  0.1621  0.2539  0.0217
  119POPC   C2B 1799   8.154   5.003   7.373  0.1285  0.1343  0.0488
  119POPC   C3B 1800   8.280   5.290   7.156 -0.2438 -0.0001  0.1350
  119POPC   C4B 1801   8.369   5.447   6.651 -0.1753 -0.0476 -0.0214
  120POPC   NC3 1802   0.448   9.294   8.420 -0.2269  0.0511 -0.0208
  120POPC   PO4 1803   0.011   9.459   8.296 -0.0619  0.3652  0.0729
  120POPC   GL1 1804   0.138   9.174   7.947  0.2539 -0.2592 -0.0630
  120POPC   GL2 1805  -0.149   9.163   7.770  0.0908 -0.0863  0.6187
  120POPC   C1A 1806   0.300   9.108   7.571  0.0236  0.0310  0.1040
  120POPC   D2A 1807   0.593   9.003   7.166  0.0520 -0.2220 -0.0969
  120POPC   C3A 1808   0.973   9.297   7.019  0.1309  0.0629  0.0462
  120POPC   C4A 1809   0.919   9.442   6.587 -0.2308  0.2233  0.1888
  120POPC   C1B 1810  -0.152   9.099   7.354 -0.2813 -0.0621 -0.0233
  120POPC   C2B 1811  -0.356   9.113   6.872 -0.1160 -0.0140  0.1180
  120POPC   C3B 1812  -0.671   9.107   6.571  0.1060 -0.0834  0.0143
  120POPC   C4B 1813  -0.727   9.392   6.177  0.1219 -0.1828 -0.0170
  121POPC   NC3 1814   5.474   4.755   7.964  0.4110 -0.0749 -0.1066
  121POPC   PO4 1815   5.153   4.759   8.244 -0.1256  0.3350  0.1919
  121POPC   GL1 1816   4.958   4.730   7.778  0.0306  0.0003  0.0163
  121POPC   GL2 1817   5.104   4.734   7.423  0.1140 -0.0209  0.0118
  121POPC   C1A 1818   4.717   4.511   7.649 -0.0321 -0.0153  0.2639
  121POPC   D2A 1819   4.318   4.256   7.463  0.4249  0.0890  0.2191
  121POPC   C3A 1820   3.976   4.174   7.132 -0.1636  0.1858  0.0313
  121POPC   C4A 1821   3.945   3.997   6.753  0.1053  0.2269  0.0263
  121POPC   C1B 1822   4.755   4.836   7.202 -0.0211 -0.1878  0.0575
  121POPC   C2B 1823   4.667   5.004   6.858 -0.1176  0.0447  0.1743
  121POPC   C3B 1824   4.550   5.211   6.385  0.2340  0.0643 -0.1456
  121POPC   C4B 1825   4.425   5.150   5.908 -0.0571  0.0737 -0.1074
  122POPC   NC3 1826   5.824   9.412   8.021  0.2022 -0.3089  0.3193
  122POPC   PO4 1827   6.011   9.073   8.070  0.0167 -0.1477  0.0319
  122POPC   GL1 1828   6.099   8.950   7.712 -0.1545 -0.5784 -0.2427
  122POPC   GL2 1829   6.027   9.297   7.536  0.0225 -0.4696  0.0875
  122POPC   C1A 1830   6.031   8.651   7.470  0.1119  0.1480  0.0100
  122POPC   D2A 1831   6.177   8.259   7.368  0.2665  0.0540  0.4560
  122POPC   C3A 1832   6.082   8.111   6.938 -0.1266 -0.1135 -0.1221
  122POPC   C4A 1833   5.803   8.032   6.682  0.3785 -0.0202 -0.1693
  122POPC   C1B 1834   6.140   9.478   7.045  0.2207 -0.0934 -0.3121
  122POPC   C2B 1835   5.944   9.791   6.929  0.2656 -0.0029 -0.1556
  122POPC   C3B 1836   5.647  10.146   6.804 -0.2138  0.1694  0.2037
  122POPC   C4B 1837   5.463  10.544   6.922 -0.0986 -0.5177  0.0777
  123POPC   NC3 1838   2.536   9.083   8.055 -0.0137  0.0100 -0.3424
  123POPC   PO4 1839   2.431   8.915   8.268 -0.1725 -0.3282  0.0284
  123POPC   GL1 1840   2.265   8.570   8.004  0.5852 -0.3783 -0.0498
  123POPC   GL2 1841   2.149   8.297   8.036 -0.3727  0.1114 -0.0015
  123POPC   C1A 1842   1.888   8.619   7.770 -0.0143 -0.1603 -0.2120
  123POPC   D2A 1843   1.531   8.431   7.615 -0.0971 -0.0029 -0.0075
  123POPC   C3A 1844   1.546   8.671   7.282 -0.0347  0.1279  0.0728
  123POPC   C4A 1845   1.732   8.961   6.972 -0.0111 -0.0414 -0.0544
  123POPC   C1B 1846   2.186   8.020   7.690  0.0841  0.3288 -0.0883
  123POPC   C2B 1847   2.067   7.761   7.335 -0.3415  0.1753  0.0081
  123POPC   C3B 1848   2.066   7.441   7.056  0.2418 -0.1441 -0.0541
  123POPC   C4B 1849   2.003   7.515   6.611 -0.1150 -0.1344  0.0828
  124POPC   NC3 1850   2.026   4.433   8.603 -0.0832 -0.0201 -0.0486
  124POPC   PO4 1851   1.882   4.311   8.136  0.1930  0.0339  0.0946
  124POPC   GL1 1852   2.003   4.510   7.801 -0.5969  0.0253  0.2438
  124POPC   GL2 1853   1.713   4.450   7.654  0.1521 -0.1641 -0.1027
  124POPC   C1A 1854   2.221   4.412   7.472  0.2922 -0.0364 -0.1728
  124POPC   D2A 1855   2.365   4.458   7.018  0.0067 -0.2419  0.0144
  124POPC   C3A 1856   2.491   4.288   6.647 -0.1331 -0.2074  0.2207
  124POPC   C4A 1857   2.814   4.159   6.294 -0.0301  0.1738 -0.3801
  124POPC   C1B 1858   1.801   4.465   7.265 -0.0006  0.4103  0.0139
  124POPC   C2B 1859   1.808   4.546   6.803  0.0119 -0.0675  0.2431
  124POPC   C3B 1860   2.030   4.796   6.659  0.0323  0.1784  0.1151
  124POPC   C4B 1861   2.262   4.910   6.318  0.1183  0.1706 -0.1566
  125POPC   NC3 1862   2.406   1.154   8.806  0.1401  0.2202  0.1759
  125POPC   PO4 1863   2.560   1.446   8.465 -0.0747 -0.0016  0.0498
  125POPC   GL1 1864   2.665   1.624   8.160  0.2518  0.2503 -0.0105
  125POPC   GL2 1865   2.848   1.805   7.931  0.0570 -0.0054 -0.0943
  125POPC   C1A 1866   2.355   1.706   7.774  0.0129 -0.0022  0.0892
  125POPC   D2A 1867   2.319   2.103   7.454 -0.0072 -0.1920  0.0746
  125POPC   C3A 1868   2.342   2.200   7.033 -0.1393  0.0822 -0.3796
  125POPC   C4A 1869   2.287   2.203   6.633  0.0946 -0.1786  0.1281
  125POPC   C1B 1870   2.813   1.842   7.502  0.1737 -0.2163 -0.0569
  125POPC   C2B 1871   2.968   1.828   7.025 -0.0712  0.2047 -0.1045
  125POPC   C3B 1872   2.915   1.564   6.703  0.0276  0.0871  0.3722
  125POPC   C4B 1873   2.625   1.528   6.313  0.1759  0.1628  0.0256
  126POPC   NC3 1874   2.206   1.894   8.399  0.0367 -0.1524 -0.1136
  126POPC   PO4 1875   2.182   2.471   8.470 -0.1891  0.0922  0.0400
  126POPC   GL1 1876   2.244   2.286   8.047 -0.1925  0.3681  0.1299
  126POPC   GL2 1877   2.312   2.540   7.686 -0.0235 -0.0864  0.3004
  126POPC   C1A 1878   1.965   1.993   7.854 -0.0670  0.1234  0.0919
  126POPC   D2A 1879   1.644   1.780   7.774  0.0709 -0.0657  0.4396
  126POPC   C3A 1880   1.371   1.426   7.673  0.0093 -0.0394  0.1368
  126POPC   C4A 1881   1.143   1.337   7.195  0.3371  0.1400 -0.0539
  126POPC   C1B 1882   2.139   2.607   7.268 -0.2043  0.1434  0.2670
  126POPC   C2B 1883   2.032   2.599   6.934  0.0478  0.0912 -0.1383
  126POPC   C3B 1884   1.741   2.317   6.712 -0.0143  0.2267  0.0848
  126POPC   C4B 1885   1.658   2.161   6.378 -0.0562  0.2683  0.0154
  127POPC   NC3 1886   4.791   2.322   8.169 -0.1091  0.1352 -0.1955
  127POPC   PO4 1887   4.649   2.657   8.041 -0.3401 -0.1335 -0.0163
  127POPC   GL1 1888   4.751   2.557   7.613 -0.2086 -0.0105 -0.2943
  127POPC   GL2 1889   4.951   2.327   7.612  0.1236 -0.0867 -0.0779
  127POPC   C1A 1890   4.656   2.347   7.208 -0.1339  0.2774 -0.2000
  127POPC   D2A 1891   4.641   2.109   6.822  0.2136 -0.0751  0.2774
  127POPC   C3A 1892   4.292   1.813   6.663  0.1587  0.0612  0.0691
  127POPC   C4A 1893   3.887   1.909   6.555  0.4775 -0.0942  0.3085
  127POPC   C1B 1894   5.160   2.555   7.207 -0.3177 -0.0767 -0.3881
  127POPC   C2B 1895   5.393   2.869   6.899  0.0226  0.0608  0.0408
  127POPC   C3B 1896   5.493   3.089   6.546  0.0294  0.1615 -0.2054
  127POPC   C4B 1897   5.499   3.308   6.215 -0.2076 -0.3313 -0.1024
  128POPC   NC3 1898   1.157   3.232   8.301 -0.1746  0.1594 -0.0016
  128POPC   PO4 1899   0.929   2.740   8.342 -0.3545  0.1833  0.3004
  128POPC   GL1 1900   0.969   2.549   7.871  0.0461  0.0374  0.1953
  128POPC   GL2 1901   0.600   2.538   7.869 -0.0620  0.0063  0.1778
  128POPC   C1A 1902   0.991   2.793   7.452  0.4545  0.0918 -0.1703
  128POPC   D2A 1903   1.089   2.642   7.070 -0.1962  0.1813  0.0076
  128POPC   C3A 1904   1.163   2.849   6.706 -0.1303  0.3898 -0.0310
  128POPC   C4A 1905   1.503   2.779   6.546 -0.0150  0.1359  0.0795
  128POPC   C1B 1906   0.560   2.666   7.333  0.1013  0.0060  0.0148
  128POPC   C2B 1907   0.615   2.902   6.914  0.0531  0.3983 -0.1156
  128POPC   C3B 1908   0.309   3.159   6.531 -0.1593 -0.1735  0.0721
  128POPC   C4B 1909   0.031   3.227   6.225  0.3744  0.0089 -0.0701
  129POPC   NC3 1910   3.594   7.107   8.335  0.1145  0.0484 -0.0749
  129POPC   PO4 1911   3.474   6.696   8.143 -0.1490 -0.3347  0.0875
  129POPC   GL1 1912   3.647   6.497   7.828 -0.2519  0.0817 -0.2873
  129POPC   GL2 1913   3.431   6.712   7.648  0.2211  0.0448  0.2374
  129POPC   C1A 1914   3.432   6.298   7.419 -0.4266  0.2021  0.0439
  129POPC   D2A 1915   3.259   6.565   7.129  0.2217  0.0989  0.0497
  129POPC   C3A 1916   3.444   7.028   7.048  0.2849  0.0628 -0.1464
  129POPC   C4A 1917   3.214   7.402   6.838 -0.0963 -0.4942  0.2447
  129POPC   C1B 1918   3.789   6.773   7.389 -0.2304 -0.0472 -0.0515
  129POPC   C2B 1919   4.204   6.729   7.284 -0.0522  0.0060 -0.1841
  129POPC   C3B 1920   4.662   6.551   7.180  0.0160  0.0176 -0.2260
  129POPC   C4B 1921   5.035   6.630   7.284  0.0248 -0.0942 -0.0858
  130POPC   NC3 1922   7.990   1.952   7.961  0.0618  0.0439 -0.0567
  130POPC   PO4 1923   8.309   2.237   8.093 -0.0075 -0.0174 -0.0028
  130POPC   GL1 1924   8.274   2.423   7.691 -0.0037  0.1098  0.2026
  130POPC   GL2 1925   8.519   2.699   7.568  0.1874 -0.1486 -0.1274
  130POPC   C1A 1926   8.102   2.411   7.230 -0.1248 -0.2445  0.1416
  130POPC   D2A 1927   8.063   2.513   6.737  0.1791 -0.0282 -0.2094
  130POPC   C3A 1928   8.439   2.758   6.531 -0.0424  0.1326  0.5107
  130POPC   C4A 1929   8.518   3.189   6.640 -0.1657  0.0398 -0.2351
  130POPC   C1B 1930   8.806   2.998   7.410  0.2386 -0.0406 -0.2680
  130POPC   C2B 1931   8.899   3.221   6.916 -0.2480  0.0627  0.1707
  130POPC   C3B 1932   9.223   3.576   6.924 -0.1939  0.0418 -0.0591
  130POPC   C4B 1933   9.361   3.898   6.930 -0.0402  0.1775 -0.4321
  131POPC   NC3 1934   5.028   4.411   8.598 -0.2907 -0.2258 -0.0947
  131POPC   PO4 1935   4.830   4.041   8.353  0.0207 -0.0386 -0.0850
  131POPC   GL1 1936   4.715   3.958   7.892 -0.1648  0.1934  0.0886
  131POPC   GL2 1937   4.953   4.101   7.626 -0.3647  0.0324 -0.0496
  131POPC   C1A 1938   4.605   3.877   7.378  0.1590 -0.1767 -0.1227
  131POPC   D2A 1939   4.420   4.063   6.907  0.4957  0.3633 -0.2443
  131POPC   C3A 1940   4.583   4.134   6.503  0.1474 -0.0064 -0.3400
  131POPC   C4A 1941   4.817   4.288   6.086  0.0613  0.0651 -0.0429
  131POPC   C1B 1942   4.819   4.341   7.198 -0.2667  0.1219  0.2562
  131POPC   C2B 1943   4.434   4.567   7.038 -0.0430  0.2393 -0.1525
  131POPC   C3B 1944   4.442   4.609   6.671  0.2628  0.1376  0.1477
  131POPC   C4B 1945   4.453   4.739   6.248  0.1981  0.0479 -0.0552
  132POPC   NC3 1946   5.473   5.454   8.474 -0.2939  0.0499  0.1170
  132POPC   PO4 1947   5.733   5.377   8.103 -0.3591  0.0525  0.1746
  132POPC   GL1 1948   5.736   5.238   7.620 -0.1977 -0.0951  0.0169
  132POPC   GL2 1949   5.620   4.960   7.492  0.1131  0.2236  0.3861
  132POPC   C1A 1950   5.751   5.345   7.190  0.1117  0.1812  0.1496
  132POPC   D2A 1951   5.800   5.701   6.831  0.0247 -0.0332  0.2870
  132POPC   C3A 1952   5.511   6.003   6.882  0.1240  0.1618 -0.3229
  132POPC   C4A 1953   5.396   6.224   7.205 -0.2522  0.0863  0.2939
  132POPC   C1B 1954   5.678   4.823   7.097  0.3908 -0.0789  0.0602
  132POPC   C2B 1955   5.771   5.111   6.755  0.0390  0.1581  0.0862
  132POPC   C3B 1956   6.025   5.381   6.498 -0.1685 -0.1479 -0.2728
  132POPC   C4B 1957   6.477   5.447   6.536  0.1072  0.0311  0.1041
  133POPC   NC3 1958   0.781   6.339   9.474 -0.1432  0.0254  0.1400
  133POPC   PO4 1959   0.931   6.666   9.169 -0.1663 -0.1081  0.0870
  133POPC   GL1 1960   1.149   7.014   8.975  0.1474 -0.2014  0.0013
  133POPC   GL2 1961   1.209   6.844   8.731  0.0957 -0.2604 -0.3141
  133POPC   C1A 1962   1.137   7.397   8.615  0.0923  0.1469 -0.0105
  133POPC   D2A 1963   1.015   7.831   8.399  0.0362 -0.2321  0.1646
  133POPC   C3A 1964   0.642   7.773   8.394  0.2099  0.0952 -0.0304
  133POPC   C4A 1965   0.361   7.492   8.575 -0.0692 -0.0969 -0.0451
  133POPC   C1B 1966   1.264   6.424   8.602  0.2444 -0.0785 -0.1517
  133POPC   C2B 1967   1.521   6.105   8.330  0.1402 -0.0639 -0.0230
  133POPC   C3B 1968   1.442   6.053   7.824  0.0832  0.0817 -0.2724
  133POPC   C4B 1969   1.472   5.737   7.521  0.2202 -0.2095 -0.1599
  134POPC   NC3 1970   5.816   2.831   8.068 -0.3290  0.0435 -0.0212
  134POPC   PO4 1971   6.067   2.610   7.935  0.0298 -0.1686  0.2406
  134POPC   GL1 1972   6.053   2.539   7.561  0.3323  0.0669 -0.0698
  134POPC   GL2 1973   6.337   2.611   7.324  0.0107 -0.0658 -0.0749
  134POPC   C1A 1974   5.853   2.723   7.192  0.2134 -0.0733 -0.0234
  134POPC   D2A 1975   5.779   3.181   7.100  0.0628  0.1944  0.0113
  134POPC   C3A 1976   5.708   3.498   6.737  0.1649 -0.0677 -0.3306
  134POPC   C4A 1977   5.883   3.878   6.702 -0.1189  0.1090 -0.0549
  134POPC   C1B 1978   6.584   2.296   7.159 -0.1415  0.0163  0.1476
  134POPC   C2B 1979   6.655   2.253   6.751 -0.1905  0.0368  0.0420
  134POPC   C3B 1980   6.826   1.906   6.645 -0.1430  0.1791 -0.1526
  134POPC   C4B 1981   6.765   1.455   6.588 -0.1548 -0.0029  0.4216
  135POPC   NC3 1982   3.505   3.294   8.082  0.0404  0.1589 -0.1671
  135POPC   PO4 1983   3.329   3.426   7.743 -0.1109 -0.1641 -0.0163
  135POPC   GL1 1984   3.154   3.322   7.360  0.0510  0.1092  0.3782
  135POPC   GL2 1985   3.429   3.185   7.235 -0.1300  0.2314  0.1355
  135POPC   C1A 1986   3.083   3.334   6.903  0.0372  0.3951 -0.1870
  135POPC   D2A 1987   2.884   3.167   6.608 -0.0706 -0.1256 -0.1603
  135POPC   C3A 1988   3.070   2.852   6.366  0.1888 -0.0367 -0.1675
  135POPC   C4A 1989   3.186   2.794   6.006  0.2016  0.2935  0.0404
  135POPC   C1B 1990   3.429   2.949   6.880 -0.0993 -0.0504  0.0946
  135POPC   C2B 1991   3.649   2.457   6.874 -0.2820 -0.1581  0.3565
  135POPC   C3B 1992   3.889   2.196   7.042 -0.0934  0.0434  0.2416
  135POPC   C4B 1993   4.190   2.127   7.222  0.0107  0.1841  0.0410
  136POPC   NC3 1994   7.245   1.645   8.042  0.1561  0.0604 -0.1967
  136POPC   PO4 1995   7.488   2.030   7.786 -0.1067 -0.1044 -0.0506
  136POPC   GL1 1996   7.706   2.102   7.382  0.2348 -0.0761 -0.1561
  136POPC   GL2 1997   8.080   1.924   7.330  0.0959 -0.2363 -0.1012
  136POPC   C1A 1998   7.653   2.104   6.973 -0.3123 -0.0234  0.5510
  136POPC   D2A 1999   7.848   2.101   6.523  0.1163 -0.0051 -0.3594
  136POPC   C3A 2000   7.767   2.493   6.277 -0.1061  0.0418  0.0241
  136POPC   C4A 2001   8.048   2.841   6.219  0.2986 -0.1383 -0.0425
  136POPC   C1B 2002   8.157   2.019   6.914 -0.3339  0.0743 -0.1149
  136POPC   C2B 2003   8.392   2.156   6.482  0.0114  0.0543 -0.0279
  136POPC   C3B 2004   8.543   2.344   6.182  0.0955  0.0807 -0.0812
  136POPC   C4B 2005   8.622   2.598   5.742 -0.0852 -0.2781  0.0329
  137POPC   NC3 2006   5.682   3.914   8.035  0.2080  0.2682  0.1418
  137POPC   PO4 2007   6.058   3.988   7.901  0.0477 -0.0616  0.2642
  137POPC   GL1 2008   5.809   3.971   7.567 -0.1797 -0.3032  0.0686
  137POPC   GL2 2009   5.545   3.860   7.569 -0.1611 -0.1525 -0.1872
  137POPC   C1A 2010   5.656   4.191   7.147  0.1303  0.1704  0.1489
  137POPC   D2A 2011   5.311   4.445   7.061 -0.3374  0.1748  0.0862
  137POPC   C3A 2012   5.397   4.698   6.667  0.2090  0.0744  0.0340
  137POPC   C4A 2013   5.737   4.714   6.435 -0.1719  0.1398  0.0277
  137POPC   C1B 2014   5.557   3.707   7.159 -0.4848 -0.1609  0.0515
  137POPC   C2B 2015   5.376   3.907   6.791 -0.0859 -0.0996  0.0804
  137POPC   C3B 2016   5.112   4.166   6.678  0.1351 -0.1102  0.0487
  137POPC   C4B 2017   4.896   4.518   6.756 -0.2922 -0.0254  0.0041
  138POPC   NC3 2018   7.723   8.836   9.100  0.0218 -0.2424  0.1955
  138POPC   PO4 2019   7.689   8.525   8.796 -0.2445 -0.2054  0.3067
  138POPC   GL1 2020   7.806   8.417   8.438 -0.0179  0.0044  0.3044
  138POPC   GL2 2021   7.901   8.145   8.489 -0.1390  0.0410  0.0951
  138POPC   C1A 2022   7.893   8.321   8.007  0.0589  0.0632 -0.0073
  138POPC   D2A 2023   8.058   8.219   7.569 -0.1236 -0.1468 -0.1597
  138POPC   C3A 2024   7.917   8.002   7.154  0.1387  0.1477  0.3497
  138POPC   C4A 2025   8.026   7.852   6.866 -0.1192  0.1812  0.0537
  138POPC   C1B 2026   8.166   7.919   8.153 -0.3170 -0.0330  0.1402
  138POPC   C2B 2027   8.434   8.131   7.838 -0.2555 -0.2885  0.1660
  138POPC   C3B 2028   8.431   8.033   7.342 -0.1961  0.1257 -0.0998
  138POPC   C4B 2029   8.558   7.846   6.926  0.0561  0.1481  0.1193
  139POPC   NC3 2030   4.426   6.870   8.148  0.1058  0.3327  0.0054
  139POPC   PO4 2031   3.948   6.804   8.180 -0.3532 -0.0847 -0.2710
  139POPC   GL1 2032   3.863   6.970   7.878  0.1398 -0.2504  0.0817
  139POPC   GL2 2033   4.075   7.113   7.743 -0.1074  0.0769 -0.0432
  139POPC   C1A 2034   3.642   7.232   7.495  0.1749 -0.0429 -0.3128
  139POPC   D2A 2035   3.595   7.499   7.218  0.1297  0.1448  0.1108
  139POPC   C3A 2036   3.951   7.737   6.883 -0.1447 -0.1734 -0.1406
  139POPC   C4A 2037   4.154   7.963   6.548  0.0972 -0.3447  0.0439
  139POPC   C1B 2038   4.112   7.280   7.342  0.0070  0.0231 -0.1174
  139POPC   C2B 2039   3.897   7.266   6.965 -0.3565 -0.2684 -0.0267
  139POPC   C3B 2040   3.640   7.137   6.576 -0.3746 -0.2342 -0.1712
  139POPC   C4B 2041   3.463   6.957   6.232  0.0392 -0.1139  0.1348
  140POPC   NC3 2042   2.993   4.124   8.154 -0.0714 -0.1982  0.1965
  140POPC   PO4 2043   3.318   4.475   8.215  0.1015  0.3086 -0.2610
  140POPC   GL1 2044   3.179   4.469   7.743  0.3337 -0.0776  0.0874
  140POPC   GL2 2045   2.901   4.559   7.965 -0.1219  0.1774 -0.1797
  140POPC   C1A 2046   3.326   4.221   7.326  0.1737  0.2579  0.4031
  140POPC   D2A 2047   3.506   4.234   6.936 -0.2726 -0.0483 -0.1083
  140POPC   C3A 2048   3.524   4.680   6.820 -0.0194  0.1694 -0.0555
  140POPC   C4A 2049   3.577   5.084   6.593  0.3344  0.1785  0.1433
  140POPC   C1B 2050   2.852   4.653   7.501  0.3548 -0.3291  0.2728
  140POPC   C2B 2051   2.798   4.763   7.023 -0.0136  0.2171 -0.3102
  140POPC   C3B 2052   2.644   4.776   6.598  0.0237 -0.0861 -0.0674
  140POPC   C4B 2053   2.631   4.626   6.214  0.1207 -0.0079  0.2450
  141POPC   NC3 2054   9.363   0.267   7.683  0.2358  0.0812 -0.1246
  141POPC   PO4 2055   9.216   0.667   7.601 -0.0920 -0.0788 -0.2576
  141POPC   GL1 2056   9.186   0.613   7.124  0.1942 -0.1103  0.1741
  141POPC   GL2 2057   8.940   0.684   6.967  0.2460  0.0986 -0.1429
  141POPC   C1A 2058   9.500   0.677   6.752  0.4683 -0.3245  0.0628
  141POPC   D2A 2059   9.744   0.357   6.583  0.3987 -0.2970 -0.1710
  141POPC   C3A 2060   9.582   0.114   6.248 -0.2729  0.0484  0.0502
  141POPC   C4A 2061   9.821  -0.183   6.093  0.0096  0.1870  0.0092
  141POPC   C1B 2062   8.667   0.579   6.811  0.0291 -0.2911  0.1748
  141POPC   C2B 2063   8.754   0.425   6.346  0.1250  0.0868 -0.1454
  141POPC   C3B 2064   9.060   0.090   6.100  0.2330 -0.1088 -0.4038
  141POPC   C4B 2065   9.360  -0.226   5.807  0.1184  0.2000  0.2808
  142POPC   NC3 2066   7.497   6.213   8.931 -0.1491 -0.1845 -0.2151
  142POPC   PO4 2067   7.503   6.631   8.798  0.1488  0.0712 -0.0095
  142POPC   GL1 2068   7.366   6.419   8.366 -0.3778  0.0148  0.0589
  142POPC   GL2 2069   7.216   6.553   8.101 -0.2462 -0.1720  0.1589
  142POPC   C1A 2070   7.330   6.050   8.259  0.4887 -0.0818 -0.1802
  142POPC   D2A 2071   7.431   5.704   8.007  0.1147  0.1931 -0.2679
  142POPC   C3A 2072   7.775   5.707   7.763  0.1219  0.2543 -0.1368
  142POPC   C4A 2073   7.742   5.584   7.361  0.1358 -0.0853  0.1139
  142POPC   C1B 2074   7.184   6.194   7.828 -0.1420  0.1557  0.3621
  142POPC   C2B 2075   7.397   6.056   7.408 -0.0931  0.0864 -0.0998
  142POPC   C3B 2076   7.493   5.808   6.970  0.0060  0.0100  0.1314
  142POPC   C4B 2077   7.521   6.189   6.576 -0.2984 -0.0080  0.1293
  143POPC   NC3 2078   0.858   2.087   8.176  0.3663 -0.2921 -0.0138
  143POPC   PO4 2079   1.350   1.975   8.194  0.0223  0.0972  0.2005
  143POPC   GL1 2080   1.174   2.016   7.775  0.0388 -0.0571  0.1850
  143POPC   GL2 2081   1.462   2.216   7.767  0.1376  0.5012  0.2974
  143POPC   C1A 2082   1.078   2.193   7.441  0.3535  0.0633 -0.1893
  143POPC   D2A 2083   0.768   2.289   7.119 -0.3233 -0.1421  0.1121
  143POPC   C3A 2084   0.795   2.465   6.700  0.0233 -0.0502  0.3554
  143POPC   C4A 2085   0.625   2.737   6.320 -0.2261  0.2565  0.0409
  143POPC   C1B 2086   1.815   2.235   7.454  0.1536 -0.2394  0.0413
  143POPC   C2B 2087   1.851   1.958   7.075 -0.0770 -0.3705  0.1457
  143POPC   C3B 2088   1.967   1.809   6.648 -0.1246  0.2170  0.0433
  143POPC   C4B 2089   2.174   1.811   6.224 -0.0152  0.2032 -0.0908
  144POPC   NC3 2090   1.415   9.296   4.120  0.0418  0.1551 -0.2014
  144POPC   PO4 2091   1.655   9.745   4.072  0.2628  0.1209 -0.0664
  144POPC   GL1 2092   1.539   9.757   4.509  0.0495 -0.0289  0.0607
  144POPC   GL2 2093   1.693  10.038   4.678 -0.0135 -0.2774 -0.0477
  144POPC   C1A 2094   1.544   9.712   4.993  0.1584  0.0986  0.1801
  144POPC   D2A 2095   1.446   9.441   5.416  0.0703 -0.2913 -0.1863
  144POPC   C3A 2096   1.680   9.525   5.747 -0.0950  0.0334 -0.1993
  144POPC   C4A 2097   2.005   9.642   5.984  0.2071  0.2499 -0.0332
  144POPC   C1B 2098   2.033   9.726   4.929 -0.1650 -0.3634  0.1304
  144POPC   C2B 2099   1.965   9.378   5.228  0.1340 -0.1776 -0.0659
  144POPC   C3B 2100   2.117   9.207   5.597 -0.2237  0.3528  0.5845
  144POPC   C4B 2101   1.878   9.114   5.918 -0.0455 -0.0643  0.2982
  145POPC   NC3 2102   7.458   8.556   4.117  0.3171  0.0960  0.0120
  145POPC   PO4 2103   7.662   8.911   4.131  0.0877  0.2961  0.4468
  145POPC   GL1 2104   7.803   8.674   4.472  0.0628 -0.0816 -0.1829
  145POPC   GL2 2105   8.118   8.733   4.704  0.1224 -0.1761  0.0906
  145POPC   C1A 2106   7.527   8.644   4.942 -0.1164 -0.1981 -0.2209
  145POPC   D2A 2107   7.322   8.933   5.219 -0.2790 -0.0125 -0.1983
  145POPC   C3A 2108   7.040   8.693   5.513  0.0253 -0.2514  0.3183
  145POPC   C4A 2109   6.629   8.591   5.624 -0.1964  0.0236  0.0122
  145POPC   C1B 2110   8.239   8.666   5.196  0.0010 -0.2287 -0.0040
  145POPC   C2B 2111   8.140   8.641   5.579  0.0441 -0.0066 -0.3249
  145POPC   C3B 2112   8.058   8.562   5.984 -0.1096  0.0681 -0.1630
  145POPC   C4B 2113   7.729   8.734   6.267  0.2428 -0.0601 -0.0249
  146POPC   NC3 2114   0.836   1.459   3.738  0.2529  0.0836  0.2863
  146POPC   PO4 2115   0.775   1.136   4.140  0.0203 -0.1739  0.1223
  146POPC   GL1 2116   0.835   1.098   4.565  0.1364  0.0210 -0.3672
  146POPC   GL2 2117   1.080   1.257   4.559  0.2023 -0.1027 -0.3481
  146POPC   C1A 2118   0.817   0.944   5.010  0.1313  0.1816  0.0693
  146POPC   D2A 2119   1.008   1.026   5.437  0.1424 -0.0758  0.0608
  146POPC   C3A 2120   1.165   0.942   5.891  0.0714 -0.1381 -0.0320
  146POPC   C4A 2121   1.365   1.157   6.243 -0.1465  0.1064  0.1365
  146POPC   C1B 2122   1.032   1.417   4.938  0.0995 -0.2632 -0.0654
  146POPC   C2B 2123   0.682   1.408   5.110 -0.2260 -0.3220 -0.1620
  146POPC   C3B 2124   0.478   1.129   5.347  0.1096  0.0308 -0.2467
  146POPC   C4B 2125   0.192   0.862   5.630  0.4231 -0.0731 -0.0170
  147POPC   NC3 2126   4.498   3.132   4.507 -0.1339 -0.0446 -0.3989
  147POPC   PO4 2127   4.218   2.953   4.376  0.3783 -0.0469  0.1424
  147POPC   GL1 2128   4.209   2.767   4.788 -0.0765 -0.0171 -0.3397
  147POPC   GL2 2129   4.398   2.936   5.046 -0.0060 -0.0597 -0.0141
  147POPC   C1A 2130   4.148   2.625   5.279 -0.1323 -0.0613  0.1531
  147POPC   D2A 2131   4.189   2.989   5.577 -0.1968  0.0609 -0.5528
  147POPC   C3A 2132   4.005   2.988   5.981  0.1417 -0.1932  0.0316
  147POPC   C4A 2133   4.008   3.139   6.465 -0.1903 -0.0746  0.0230
  147POPC   C1B 2134   4.647   3.097   5.317  0.2302  0.0914 -0.0607
  147POPC   C2B 2135   4.680   3.018   5.738 -0.2868  0.0471 -0.1131
  147POPC   C3B 2136   4.585   2.877   6.159 -0.0260 -0.0063 -0.2789
  147POPC   C4B 2137   4.531   3.329   6.458  0.0794 -0.0728  0.1816
  148POPC   NC3 2138   1.479   3.594   3.903  0.0558  0.0082  0.1150
  148POPC   PO4 2139   1.806   3.831   4.186  0.0729  0.2442 -0.0176
  148POPC   GL1 2140   1.748   4.125   4.447 -0.0751 -0.0159 -0.4168
  148POPC   GL2 2141   1.654   3.932   4.690  0.1990  0.4514  0.0688
  148POPC   C1A 2142   1.614   4.402   4.841  0.1769 -0.2053 -0.2430
  148POPC   D2A 2143   1.584   4.596   5.339  0.1929  0.1913 -0.1180
  148POPC   C3A 2144   1.732   4.299   5.776  0.2453 -0.0752 -0.2222
  148POPC   C4A 2145   1.808   3.948   5.992 -0.2607  0.0634 -0.0646
  148POPC   C1B 2146   1.525   3.794   5.120 -0.1710  0.2109 -0.2944
  148POPC   C2B 2147   1.539   3.724   5.662  0.0306 -0.1258  0.0680
  148POPC   C3B 2148   1.844   3.482   5.920 -0.2099 -0.2875  0.0764
  148POPC   C4B 2149   2.184   3.658   6.070  0.4168  0.2895  0.0633
  149POPC   NC3 2150   1.491   3.512   4.382  0.0213 -0.0999  0.1323
  149POPC   PO4 2151   1.797   3.264   4.304 -0.2455  0.1256 -0.0617
  149POPC   GL1 2152   1.746   3.243   4.756 -0.3515  0.1279  0.1682
  149POPC   GL2 2153   1.642   2.852   4.744 -0.0173  0.2545  0.1589
  149POPC   C1A 2154   2.051   3.069   4.959  0.0383  0.1513  0.2395
  149POPC   D2A 2155   2.174   2.944   5.438  0.0613 -0.3990  0.0057
  149POPC   C3A 2156   1.741   3.002   5.678 -0.0620 -0.1682  0.0273
  149POPC   C4A 2157   1.371   3.280   5.800  0.0315  0.1907  0.3742
  149POPC   C1B 2158   1.404   2.973   5.087 -0.1282  0.3414  0.1172
  149POPC   C2B 2159   1.278   2.878   5.515 -0.1138  0.0096 -0.0680
  149POPC   C3B 2160   1.224   2.840   5.940  0.1809 -0.0058  0.0735
  149POPC   C4B 2161   1.069   3.016   6.244  0.4065 -0.2159  0.2727
  150POPC   NC3 2162   8.825   5.265   3.799 -0.0848  0.1792  0.0014
  150POPC   PO4 2163   9.009   5.601   3.927 -0.1836  0.0914  0.0544
  150POPC   GL1 2164   9.253   5.757   4.234  0.1378  0.1480 -0.0760
  150POPC   GL2 2165   9.154   6.023   4.392  0.1573 -0.1042 -0.1273
  150POPC   C1A 2166   9.675   5.907   4.306 -0.0244 -0.2997  0.3189
  150POPC   D2A 2167  10.036   5.570   4.198 -0.0954  0.0643  0.1948
  150POPC   C3A 2168  10.294   5.812   4.068  0.2749  0.2846 -0.2933
  150POPC   C4A 2169  10.498   6.179   4.272 -0.1317 -0.1719  0.0555
  150POPC   C1B 2170   8.909   5.902   4.857  0.2285 -0.1504  0.1430
  150POPC   C2B 2171   8.807   6.009   5.247  0.0421 -0.2319 -0.3898
  150POPC   C3B 2172   8.808   6.318   5.621 -0.0919  0.0283 -0.0186
  150POPC   C4B 2173   8.723   6.576   6.027 -0.1621 -0.0363 -0.0795
  151POPC   NC3 2174   2.424   7.365   3.695 -0.0823  0.4039 -0.0008
  151POPC   PO4 2175   2.365   7.806   3.657  0.2909 -0.0694  0.1649
  151POPC   GL1 2176   2.180   7.695   4.134 -0.0266  0.1511  0.1588
  151POPC   GL2 2177   2.478   7.573   4.258  0.0441  0.2109  0.0783
  151POPC   C1A 2178   2.186   7.939   4.570  0.0141 -0.1187 -0.1490
  151POPC   D2A 2179   2.076   7.790   4.939  0.1600  0.1348  0.0459
  151POPC   C3A 2180   1.963   7.922   5.234  0.0812 -0.0917 -0.0086
  151POPC   C4A 2181   1.577   7.955   5.418  0.2390  0.3173  0.1668
  151POPC   C1B 2182   2.601   7.446   4.771 -0.3880  0.1916  0.2042
  151POPC   C2B 2183   2.520   7.051   5.084 -0.1279 -0.0784 -0.3668
  151POPC   C3B 2184   2.393   6.987   5.506  0.0629  0.0921 -0.3113
  151POPC   C4B 2185   2.160   7.196   5.823  0.0062  0.1018  0.0116
  152POPC   NC3 2186   7.071   6.248   4.497  0.0795 -0.0720 -0.5307
  152POPC   PO4 2187   7.331   6.585   4.555  0.0849  0.1260 -0.2928
  152POPC   GL1 2188   7.407   6.694   4.996 -0.0688  0.0499  0.1750
  152POPC   GL2 2189   7.200   6.935   5.010  0.0836  0.2291 -0.0608
  152POPC   C1A 2190   7.385   6.399   5.319  0.2108  0.1897 -0.2401
  152POPC   D2A 2191   7.749   6.518   5.643  0.1897  0.3288  0.0601
  152POPC   C3A 2192   7.747   6.777   6.021  0.2030  0.2107  0.0952
  152POPC   C4A 2193   7.613   6.691   6.450 -0.1093 -0.1515 -0.0495
  152POPC   C1B 2194   7.422   7.021   5.401  0.0283  0.0360 -0.0310
  152POPC   C2B 2195   7.291   6.936   5.838 -0.2639  0.4151 -0.0234
  152POPC   C3B 2196   7.321   7.059   6.303 -0.2621  0.0419 -0.1999
  152POPC   C4B 2197   7.049   7.339   6.638 -0.0052  0.1583 -0.0297
  153POPC   NC3 2198   3.211   0.773   4.523  0.1572 -0.2797 -0.1314
  153POPC   PO4 2199   2.647   0.682   4.415  0.1692  0.0973  0.1688
  153POPC   GL1 2200   2.635   0.812   4.783 -0.1210  0.1924 -0.2370
  153POPC   GL2 2201   2.829   0.740   4.886  0.2546  0.0638 -0.1586
  153POPC   C1A 2202   2.389   0.921   5.153 -0.2343 -0.2499 -0.0682
  153POPC   D2A 2203   2.519   0.996   5.602 -0.4161  0.0860  0.0824
  153POPC   C3A 2204   2.764   0.668   5.597  0.1761  0.0148  0.3667
  153POPC   C4A 2205   2.650   0.284   5.616 -0.2431  0.0967 -0.1527
  153POPC   C1B 2206   3.049   0.532   5.217 -0.1507 -0.0255 -0.0938
  153POPC   C2B 2207   3.171   0.382   5.638  0.0306 -0.0383 -0.1634
  153POPC   C3B 2208   3.045   0.192   6.083 -0.0342  0.0911  0.2170
  153POPC   C4B 2209   2.814   0.085   6.575  0.3647  0.0473  0.2307
  154POPC   NC3 2210   8.246   0.600   4.197  0.1331 -0.2555 -0.0262
  154POPC   PO4 2211   8.041   0.249   4.220 -0.2594  0.1285  0.2781
  154POPC   GL1 2212   8.114   0.319   4.706 -0.0790 -0.1752  0.3395
  154POPC   GL2 2213   7.938   0.217   4.831  0.0255  0.1441  0.0030
  154POPC   C1A 2214   8.000   0.554   5.155 -0.0617  0.2390 -0.2751
  154POPC   D2A 2215   7.749   0.512   5.476 -0.3282 -0.3043 -0.4147
  154POPC   C3A 2216   7.346   0.597   5.444  0.1115 -0.4387  0.0629
  154POPC   C4A 2217   6.956   0.823   5.326 -0.1464  0.1655 -0.0775
  154POPC   C1B 2218   7.992  -0.226   4.975  0.1989  0.0636  0.1415
  154POPC   C2B 2219   8.079  -0.393   5.407 -0.1480  0.2160  0.0942
  154POPC   C3B 2220   8.168  -0.651   5.781 -0.3353  0.2078  0.0863
  154POPC   C4B 2221   8.288  -0.828   6.152  0.2028  0.1577  0.2029
  155POPC   NC3 2222   2.675   4.418   4.360 -0.1355  0.2016 -0.1714
  155POPC   PO4 2223   2.850   4.063   4.331 -0.0223  0.1927 -0.1353
  155POPC   GL1 2224   2.722   3.923   4.655 -0.1318 -0.2410 -0.3148
  155POPC   GL2 2225   2.790   4.047   4.886  0.1213 -0.0073  0.2230
  155POPC   C1A 2226   2.517   3.666   4.947  0.1417  0.2093 -0.7364
  155POPC   D2A 2227   2.592   3.309   5.315  0.0404  0.0411 -0.2265
  155POPC   C3A 2228   2.411   3.255   5.767 -0.2886  0.2498 -0.0848
  155POPC   C4A 2229   2.637   3.185   6.170  0.0895  0.0750  0.1954
  155POPC   C1B 2230   2.396   4.100   5.253  0.2471 -0.1503 -0.0366
  155POPC   C2B 2231   2.625   3.790   5.647  0.0962  0.1952  0.1771
  155POPC   C3B 2232   2.678   3.672   6.149 -0.3523  0.0497  0.1323
  155POPC   C4B 2233   2.843   3.610   6.524  0.0845  0.0033  0.0552
  156POPC   NC3 2234   8.106   7.429   3.793  0.1347 -0.0199  0.3365
  156POPC   PO4 2235   7.876   7.256   4.199  0.0501 -0.1088  0.0539
  156POPC   GL1 2236   8.290   7.023   4.392  0.0824  0.1174 -0.2417
  156POPC   GL2 2237   8.116   7.050   4.724  0.0133 -0.3619  0.2260
  156POPC   C1A 2238   8.764   6.854   4.328  0.3293 -0.1926  0.2338
  156POPC   D2A 2239   9.039   6.473   4.310 -0.0655 -0.1690 -0.1354
  156POPC   C3A 2240   9.241   6.291   4.775  0.0981 -0.2979 -0.2045
  156POPC   C4A 2241   9.241   6.281   5.148 -0.2374  0.4984 -0.0035
  156POPC   C1B 2242   8.168   7.374   4.886 -0.3204 -0.2055 -0.1545
  156POPC   C2B 2243   8.154   7.380   5.399  0.1611  0.1158  0.0467
  156POPC   C3B 2244   8.264   7.356   5.729  0.1309 -0.4607  0.1044
  156POPC   C4B 2245   8.569   7.271   6.121 -0.1057  0.1705  0.0282
  157POPC   NC3 2246   2.805   8.966   3.838 -0.0478  0.0336  0.2347
  157POPC   PO4 2247   2.420   9.031   3.972  0.1333 -0.2156  0.5992
  157POPC   GL1 2248   2.389   9.056   4.325  0.3718 -0.1959 -0.1666
  157POPC   GL2 2249   2.084   8.913   4.413 -0.1817  0.0324 -0.1790
  157POPC   C1A 2250   2.390   9.324   4.673  0.1611 -0.0404  0.2284
  157POPC   D2A 2251   2.361   9.284   4.984  0.0691 -0.2023  0.0185
  157POPC   C3A 2252   2.331   8.859   5.196  0.0500  0.2345 -0.3995
  157POPC   C4A 2253   2.508   8.558   5.365 -0.3661 -0.3605 -0.2352
  157POPC   C1B 2254   1.940   9.063   4.802  0.1678  0.1427 -0.0100
  157POPC   C2B 2255   1.774   8.937   5.236  0.0230  0.5135  0.0295
  157POPC   C3B 2256   1.548   8.897   5.640  0.1182  0.2008  0.0989
  157POPC   C4B 2257   1.189   9.085   5.670 -0.1094  0.0475 -0.1489
  158POPC   NC3 2258   0.877   0.321   3.956 -0.0542  0.2510  0.1099
  158POPC   PO4 2259   0.669   0.145   4.290  0.1820  0.2017 -0.2583
  158POPC   GL1 2260   0.577   0.204   4.645 -0.0880 -0.0378 -0.0785
  158POPC   GL2 2261   0.746   0.438   4.923 -0.1023  0.0767  0.2907
  158POPC   C1A 2262   0.191   0.371   4.825 -0.2052 -0.0031  0.1954
  158POPC   D2A 2263   0.065   0.473   5.264 -0.1531 -0.1447  0.0738
  158POPC   C3A 2264   0.375   0.399   5.656  0.0226 -0.1947 -0.0343
  158POPC   C4A 2265   0.651   0.083   5.792 -0.2292 -0.1670 -0.2241
  158POPC   C1B 2266   0.578   0.621   5.312  0.0868 -0.0498 -0.1422
  158POPC   C2B 2267   0.681   0.774   5.741  0.0763  0.1612 -0.0405
  158POPC   C3B 2268   0.758   0.707   6.099  0.0627 -0.2020 -0.2734
  158POPC   C4B 2269   0.965   0.906   6.445  0.2749 -0.1259  0.2133
  159POPC   NC3 2270   5.367   1.377   3.931  0.0481  0.1299  0.0442
  159POPC   PO4 2271   5.415   1.050   4.260  0.1787 -0.2180  0.0768
  159POPC   GL1 2272   5.222   1.419   4.475 -0.1482 -0.0264  0.0706
  159POPC   GL2 2273   5.321   1.673   4.437  0.1808  0.0044 -0.0564
  159POPC   C1A 2274   4.885   1.536   4.657 -0.4116  0.0894  0.2196
  159POPC   D2A 2275   4.491   1.616   4.945 -0.0504 -0.1677 -0.0178
  159POPC   C3A 2276   4.096   1.566   5.155 -0.0179 -0.0621 -0.1050
  159POPC   C4A 2277   3.759   1.773   5.292 -0.2211  0.1648 -0.2054
  159POPC   C1B 2278   5.336   1.905   4.899 -0.0897  0.0282  0.1279
  159POPC   C2B 2279   5.222   2.182   5.309 -0.0975 -0.1734  0.3962
  159POPC   C3B 2280   4.883   2.056   5.462  0.0327 -0.1452 -0.0403
  159POPC   C4B 2281   4.702   2.167   5.799 -0.2481  0.0888 -0.0363
  160POPC   NC3 2282   6.406   4.585   4.056  0.0060  0.2466 -0.1464
  160POPC   PO4 2283   6.053   4.763   4.299  0.3119  0.0126  0.1315
  160POPC   GL1 2284   5.838   4.786   4.619 -0.1193  0.0059 -0.0782
  160POPC   GL2 2285   5.899   5.075   4.661 -0.2036 -0.0997 -0.1904
  160POPC   C1A 2286   5.875   4.573   4.978 -0.0047  0.1851 -0.2848
  160POPC   D2A 2287   5.927   4.115   5.043 -0.0719 -0.1396 -0.0358
  160POPC   C3A 2288   6.093   3.837   5.350 -0.0853  0.1025 -0.1102
  160POPC   C4A 2289   6.337   3.754   5.739 -0.1627 -0.2738  0.2543
  160POPC   C1B 2290   6.122   5.014   4.996 -0.5361 -0.0242  0.0850
  160POPC   C2B 2291   6.232   4.695   5.332  0.2450 -0.1627 -0.1100
  160POPC   C3B 2292   6.137   4.313   5.586 -0.0492 -0.0190  0.0580
  160POPC   C4B 2293   6.221   4.190   5.963 -0.0546 -0.1203  0.2709
  161POPC   NC3 2294   5.429   5.040   4.460 -0.0066  0.1089 -0.1669
  161POPC   PO4 2295   5.063   4.886   4.439  0.1556  0.1866 -0.0646
  161POPC   GL1 2296   5.046   4.972   4.927  0.0487  0.4456  0.0816
  161POPC   GL2 2297   4.905   4.762   5.033 -0.1999  0.2221 -0.0460
  161POPC   C1A 2298   5.440   4.827   5.211  0.0413 -0.0536  0.1341
  161POPC   D2A 2299   5.794   4.980   5.373 -0.0390 -0.1922 -0.1480
  161POPC   C3A 2300   5.827   4.790   5.741 -0.3198 -0.1392 -0.0167
  161POPC   C4A 2301   5.758   4.398   6.042 -0.1617 -0.1992  0.3120
  161POPC   C1B 2302   5.100   4.621   5.464 -0.0220 -0.0772 -0.1325
  161POPC   C2B 2303   5.200   4.481   5.834 -0.2075  0.2537 -0.2851
  161POPC   C3B 2304   5.296   4.352   6.251  0.1033  0.0283 -0.0712
  161POPC   C4B 2305   5.670   4.249   6.566 -0.3046  0.0288  0.1487
  162POPC   NC3 2306   4.078   0.876   4.245 -0.2496  0.0703  0.0969
  162POPC   PO4 2307   3.623   1.126   4.320  0.3087  0.2173 -0.0209
  162POPC   GL1 2308   3.757   0.916   4.780 -0.0254 -0.1117  0.2545
  162POPC   GL2 2309   3.471   0.786   4.985  0.0347  0.0232 -0.0380
  162POPC   C1A 2310   3.964   0.835   5.241  0.0584  0.0643  0.3590
  162POPC   D2A 2311   4.031   1.035   5.584  0.0501 -0.0031  0.1929
  162POPC   C3A 2312   3.914   1.478   5.701  0.2523 -0.3845 -0.0684
  162POPC   C4A 2313   3.862   1.709   6.116  0.0107 -0.0893  0.2254
  162POPC   C1B 2314   3.506   0.684   5.405 -0.1803  0.1260 -0.1739
  162POPC   C2B 2315   3.784   0.613   5.628 -0.1525  0.1477  0.1449
  162POPC   C3B 2316   3.986   0.640   6.025  0.0592  0.1821  0.1740
  162POPC   C4B 2317   4.198   0.377   6.237  0.1827  0.0770 -0.1492
  163POPC   NC3 2318   3.337   8.249   3.966 -0.0796 -0.1217 -0.1789
  163POPC   PO4 2319   3.645   8.083   4.227 -0.1113  0.4029 -0.2697
  163POPC   GL1 2320   3.481   8.022   4.580 -0.0844  0.2547  0.2671
  163POPC   GL2 2321   3.662   7.983   4.772  0.1212  0.4321  0.0851
  163POPC   C1A 2322   3.174   8.144   4.744  0.0267 -0.0954 -0.2326
  163POPC   D2A 2323   3.041   8.361   5.222  0.0304  0.1984  0.1021
  163POPC   C3A 2324   2.958   8.744   5.263  0.0716  0.1130 -0.0508
  163POPC   C4A 2325   3.265   9.183   5.187 -0.0823  0.3597  0.1195
  163POPC   C1B 2326   3.534   7.994   5.240 -0.1674  0.3136 -0.0635
  163POPC   C2B 2327   3.415   8.132   5.684 -0.0137 -0.1606  0.1326
  163POPC   C3B 2328   3.472   7.759   5.990  0.1420  0.0480 -0.0044
  163POPC   C4B 2329   3.751   7.345   6.006  0.3679 -0.0520  0.2317
  164POPC   NC3 2330   6.437   8.580   4.488  0.0224  0.0998  0.2323
  164POPC   PO4 2331   6.465   8.343   4.870 -0.1870 -0.4401 -0.0058
  164POPC   GL1 2332   6.239   8.609   5.116  0.2408  0.0625  0.2069
  164POPC   GL2 2333   6.143   8.363   5.467 -0.1577 -0.1831  0.3113
  164POPC   C1A 2334   6.338   9.012   5.400  0.0351  0.1107  0.0251
  164POPC   D2A 2335   6.419   9.444   5.700 -0.3924  0.0772 -0.2478
  164POPC   C3A 2336   6.495   9.432   6.145  0.2213  0.2354 -0.5120
  164POPC   C4A 2337   6.274   9.639   6.491  0.1756 -0.0758  0.1930
  164POPC   C1B 2338   6.467   8.096   5.530 -0.1031  0.0742 -0.1785
  164POPC   C2B 2339   6.581   7.714   5.691 -0.0047 -0.0106  0.1104
  164POPC   C3B 2340   6.378   7.495   5.957 -0.5309  0.0686 -0.0199
  164POPC   C4B 2341   6.126   7.445   6.283  0.0020 -0.0033 -0.1051
  165POPC   NC3 2342   4.074   7.896   4.524  0.0014 -0.0303 -0.1208
  165POPC   PO4 2343   4.320   8.321   4.357  0.1367  0.2068  0.2538
  165POPC   GL1 2344   4.194   8.309   4.852  0.0745  0.0419  0.2822
  165POPC   GL2 2345   4.338   8.488   5.094 -0.3113 -0.0120 -0.3761
  165POPC   C1A 2346   3.809   8.415   4.992  0.1706 -0.0538  0.1644
  165POPC   D2A 2347   3.373   8.546   4.938 -0.2809 -0.2105  0.1162
  165POPC   C3A 2348   2.981   8.757   4.749 -0.1777 -0.0372 -0.0982
  165POPC   C4A 2349   2.462   8.848   4.765  0.0609  0.1249 -0.0990
  165POPC   C1B 2350   4.343   8.609   5.398 -0.1903 -0.0261  0.3969
  165POPC   C2B 2351   4.335   8.370   5.825  0.0491  0.0767 -0.0387
  165POPC   C3B 2352   4.408   8.210   6.140  0.0647 -0.1702  0.3521
  165POPC   C4B 2353   4.510   7.751   6.161  0.0173  0.2591 -0.1964
  166POPC   NC3 2354   2.904   2.525   4.294 -0.1633 -0.0402 -0.1991
  166POPC   PO4 2355   2.491   2.447   4.101 -0.2614 -0.2075 -0.0865
  166POPC   GL1 2356   2.416   2.497   4.543 -0.1014 -0.0846  0.0033
  166POPC   GL2 2357   2.601   2.297   4.743  0.0083 -0.2578  0.2050
  166POPC   C1A 2358   2.237   2.625   4.975  0.0186  0.4023 -0.2117
  166POPC   D2A 2359   2.227   2.414   5.366  0.2490  0.1196 -0.1901
  166POPC   C3A 2360   2.177   2.604   5.812  0.0600  0.0144 -0.3963
  166POPC   C4A 2361   2.111   2.349   6.117 -0.1493 -0.0429 -0.1165
  166POPC   C1B 2362   2.832   1.993   4.991 -0.1238 -0.1129  0.1276
  166POPC   C2B 2363   2.920   1.743   5.282  0.0508  0.2406 -0.0135
  166POPC   C3B 2364   3.260   1.563   5.205  0.2452  0.2841 -0.5018
  166POPC   C4B 2365   3.594   1.234   5.346  0.0342  0.1391 -0.2031
  167POPC   NC3 2366   8.866   7.559   3.829  0.0867  0.3213  0.1854
  167POPC   PO4 2367   8.508   7.488   4.043 -0.2221 -0.0690 -0.0488
  167POPC   GL1 2368   8.781   7.468   4.366 -0.1224 -0.3560  0.2135
  167POPC   GL2 2369   8.617   7.326   4.646 -0.1724  0.1509  0.0819
  167POPC   C1A 2370   9.034   7.624   4.686  0.1061 -0.1028  0.0828
  167POPC   D2A 2371   9.331   7.612   4.833  0.0218 -0.1536  0.0305
  167POPC   C3A 2372   9.625   7.978   4.756 -0.1064  0.1446 -0.3726
  167POPC   C4A 2373  10.010   8.137   4.804  0.1700  0.2522  0.0813
  167POPC   C1B 2374   8.612   6.953   4.906 -0.0888 -0.1960 -0.0268
  167POPC   C2B 2375   8.339   6.893   5.335 -0.1625  0.0358  0.0918
  167POPC   C3B 2376   8.282   6.799   5.734  0.1279  0.0714  0.3553
  167POPC   C4B 2377   8.285   6.720   6.237  0.2048 -0.1032  0.1265
  168POPC   NC3 2378   9.175   4.310   4.142  0.4422 -0.1472  0.0493
  168POPC   PO4 2379   9.362   4.757   4.053  0.1390  0.0981 -0.2110
  168POPC   GL1 2380   9.281   4.685   4.574 -0.1577  0.1942  0.2323
  168POPC   GL2 2381   9.057   4.970   4.623 -0.0664  0.1467 -0.2497
  168POPC   C1A 2382   9.434   4.585   5.006  0.0530 -0.0274 -0.3275
  168POPC   D2A 2383   9.496   4.377   5.456 -0.2853  0.3366  0.0234
  168POPC   C3A 2384   9.621   4.577   5.794 -0.2202  0.1190 -0.2517
  168POPC   C4A 2385   9.632   4.587   6.228  0.2073 -0.0098 -0.2054
  168POPC   C1B 2386   8.692   5.102   4.885 -0.1439  0.2557  0.3362
  168POPC   C2B 2387   8.368   5.109   5.168  0.0447  0.4136  0.0815
  168POPC   C3B 2388   8.162   4.823   5.506  0.0410  0.2195 -0.1845
  168POPC   C4B 2389   8.138   4.510   5.838 -0.0562 -0.1201 -0.3873
  169POPC   NC3 2390   3.660   6.180   4.539 -0.0736  0.2191 -0.0477
  169POPC   PO4 2391   3.971   5.841   4.639  0.3130  0.1842 -0.2117
  169POPC   GL1 2392   3.871   5.932   4.937 -0.0287 -0.1606 -0.2347
  169POPC   GL2 2393   3.985   6.203   5.023 -0.2114 -0.1728  0.0083
  169POPC   C1A 2394   3.676   5.784   5.200 -0.2202  0.1243 -0.0390
  169POPC   D2A 2395   3.318   5.794   5.403 -0.0543 -0.1095  0.2119
  169POPC   C3A 2396   3.027   5.994   5.778  0.0850 -0.1567  0.1006
  169POPC   C4A 2397   2.739   6.334   6.027 -0.0486 -0.0464  0.1194
  169POPC   C1B 2398   4.026   6.266   5.375 -0.1833  0.2959 -0.4084
  169POPC   C2B 2399   4.170   6.485   5.651 -0.0740 -0.2484 -0.0127
  169POPC   C3B 2400   4.534   6.463   5.883 -0.0604  0.2794  0.1931
  169POPC   C4B 2401   4.780   6.498   6.224  0.0706 -0.1924  0.0538
  170POPC   NC3 2402   8.924   8.899   3.703 -0.0959 -0.0637  0.0231
  170POPC   PO4 2403   9.142   9.023   4.089  0.0669  0.0423  0.0949
  170POPC   GL1 2404   8.999   9.189   4.520  0.1979  0.0320  0.0474
  170POPC   GL2 2405   8.803   9.367   4.683 -0.2109 -0.0853 -0.2624
  170POPC   C1A 2406   9.217   9.431   4.921 -0.0794 -0.0731  0.0707
  170POPC   D2A 2407   9.236   9.400   5.368 -0.0519 -0.3746  0.1268
  170POPC   C3A 2408   9.665   9.317   5.504 -0.0696 -0.1669  0.0083
  170POPC   C4A 2409   9.791   9.110   5.979  0.1682 -0.1671 -0.5216
  170POPC   C1B 2410   8.747   9.489   5.185 -0.2694  0.1531 -0.1142
  170POPC   C2B 2411   8.876   9.918   5.310  0.0708 -0.0678  0.0988
  170POPC   C3B 2412   9.140  10.034   5.565 -0.1715 -0.0872 -0.0574
  170POPC   C4B 2413   9.531  10.028   5.759 -0.0183  0.1393 -0.0277
  171POPC   NC3 2414   5.015   5.964   4.539  0.5669  0.1501 -0.0621
  171POPC   PO4 2415   4.871   6.212   4.194 -0.1310 -0.1282  0.2686
  171POPC   GL1 2416   4.768   6.414   4.622 -0.2936  0.0557  0.1598
  171POPC   GL2 2417   4.883   6.433   4.886  0.0739 -0.1223  0.1452
  171POPC   C1A 2418   4.414   6.673   4.909  0.0413 -0.1209 -0.1939
  171POPC   D2A 2419   4.480   6.774   5.317  0.0577  0.3295  0.0675
  171POPC   C3A 2420   4.582   7.237   5.433  0.3164  0.3769 -0.2862
  171POPC   C4A 2421   4.575   7.609   5.253 -0.2830 -0.2231  0.1440
  171POPC   C1B 2422   5.176   6.185   5.146 -0.2363  0.2417  0.0182
  171POPC   C2B 2423   5.214   5.873   5.512 -0.1766  0.0094 -0.1454
  171POPC   C3B 2424   5.215   5.521   5.642  0.1211 -0.2912 -0.2595
  171POPC   C4B 2425   5.020   5.152   5.552 -0.0785 -0.0844 -0.2392
  172POPC   NC3 2426   3.705   6.879   3.914 -0.0571 -0.2315  0.1505
  172POPC   PO4 2427   3.556   6.498   4.121  0.2384  0.0777  0.2510
  172POPC   GL1 2428   3.666   6.736   4.493  0.1483  0.1406 -0.1126
  172POPC   GL2 2429   3.414   6.729   4.780 -0.0283 -0.0425  0.2681
  172POPC   C1A 2430   3.850   6.680   4.936 -0.2006  0.1931 -0.2240
  172POPC   D2A 2431   3.756   6.654   5.319  0.0746 -0.0374  0.0732
  172POPC   C3A 2432   3.424   6.823   5.659  0.1359  0.1277  0.0184
  172POPC   C4A 2433   3.021   6.705   5.893 -0.1620 -0.0461 -0.1214
  172POPC   C1B 2434   3.212   6.717   5.186  0.1662  0.2463  0.1748
  172POPC   C2B 2435   2.945   6.951   5.466 -0.0872 -0.2593  0.1959
  172POPC   C3B 2436   2.965   7.232   5.813 -0.1986 -0.0777  0.1171
  172POPC   C4B 2437   2.797   7.159   6.311 -0.0844 -0.0410  0.2216
  173POPC   NC3 2438   9.570   6.872   3.460 -0.1232  0.3337  0.1050
  173POPC   PO4 2439   9.666   6.279   3.390  0.3843  0.0264 -0.0360
  173POPC   GL1 2440   9.703   6.176   3.840 -0.3631 -0.0033  0.0450
  173POPC   GL2 2441  10.088   6.218   3.974 -0.1627  0.2160 -0.1632
  173POPC   C1A 2442   9.602   6.448   4.193  0.0192 -0.0104 -0.1093
  173POPC   D2A 2443   9.490   6.697   4.469 -0.0790 -0.1575  0.1523
  173POPC   C3A 2444   9.624   7.111   4.690 -0.1389  0.0836 -0.0939
  173POPC   C4A 2445   9.587   7.286   5.086  0.1137  0.1212  0.1076
  173POPC   C1B 2446  10.028   6.231   4.417 -0.3521  0.0494  0.0984
  173POPC   C2B 2447   9.997   5.982   4.755  0.1363  0.0133 -0.1080
  173POPC   C3B 2448   9.862   5.557   4.850 -0.3608 -0.1080 -0.0327
  173POPC   C4B 2449   9.711   5.422   5.270  0.1759 -0.2044  0.0497
  174POPC   NC3 2450   9.643   9.081   4.031 -0.1427 -0.3828 -0.1651
  174POPC   PO4 2451   9.442   9.546   4.004 -0.1671  0.1228  0.0953
  174POPC   GL1 2452   9.540   9.331   4.471 -0.0524  0.0625  0.2156
  174POPC   GL2 2453   9.869   9.236   4.665 -0.0263  0.3790  0.1556
  174POPC   C1A 2454   9.643   9.636   4.803 -0.1618 -0.1165 -0.0883
  174POPC   D2A 2455   9.954   9.686   4.938 -0.1628  0.2697 -0.2486
  174POPC   C3A 2456  10.202   9.410   5.238  0.3295 -0.0862 -0.0174
  174POPC   C4A 2457  10.636   9.419   5.483 -0.0698 -0.2749 -0.0022
  174POPC   C1B 2458   9.798   9.219   5.045  0.1185  0.0387  0.1806
  174POPC   C2B 2459  10.013   8.988   5.461 -0.3309 -0.1338 -0.0138
  174POPC   C3B 2460   9.985   8.687   5.709  0.2230 -0.0409 -0.1308
  174POPC   C4B 2461  10.041   8.280   5.954 -0.4776 -0.2662  0.4125
  175POPC   NC3 2462   4.562   4.856   4.608 -0.1413  0.0144 -0.0872
  175POPC   PO4 2463   4.369   5.069   4.897 -0.1138 -0.0324  0.1814
  175POPC   GL1 2464   4.325   5.104   5.235  0.0605 -0.2236  0.0555
  175POPC   GL2 2465   4.450   5.343   5.470  0.3875  0.1371  0.1351
  175POPC   C1A 2466   4.088   4.950   5.553  0.1604  0.2142 -0.0784
  175POPC   D2A 2467   4.138   4.725   5.879  0.0721  0.0226  0.4766
  175POPC   C3A 2468   3.929   4.317   5.871 -0.0629 -0.0052 -0.1598
  175POPC   C4A 2469   3.827   3.952   6.219  0.1144 -0.1916 -0.0974
  175POPC   C1B 2470   4.184   5.588   5.753  0.0451  0.0586 -0.2296
  175POPC   C2B 2471   3.862   5.870   5.634  0.1656  0.0601  0.0462
  175POPC   C3B 2472   3.507   5.965   5.888  0.1805 -0.2235 -0.1087
  175POPC   C4B 2473   3.485   6.042   6.328 -0.3272  0.3361 -0.1985
  176POPC   NC3 2474   6.229   0.485   4.333 -0.3623 -0.2096 -0.2060
  176POPC   PO4 2475   6.417   0.960   4.427  0.0712 -0.2284 -0.3050
  176POPC   GL1 2476   6.485   0.852   4.757 -0.2303  0.0014 -0.0649
  176POPC   GL2 2477   6.470   0.523   4.781  0.2896  0.1230  0.3167
  176POPC   C1A 2478   6.416   0.900   5.108  0.1859 -0.1259  0.0561
  176POPC   D2A 2479   6.366   0.791   5.507  0.0264  0.2060 -0.0900
  176POPC   C3A 2480   6.727   0.999   5.707  0.3549  0.1644  0.1474
  176POPC   C4A 2481   7.072   0.710   5.812  0.3123 -0.1628  0.0350
  176POPC   C1B 2482   6.574   0.394   5.170  0.0047  0.0139 -0.2132
  176POPC   C2B 2483   6.717   0.392   5.591  0.1684 -0.0215  0.4206
  176POPC   C3B 2484   6.612   0.592   5.999 -0.1332 -0.0750 -0.0450
  176POPC   C4B 2485   7.019   0.649   6.343 -0.0791  0.1417 -0.0627
  177POPC   NC3 2486   5.519   8.784   4.527 -0.0272  0.0977 -0.1280
  177POPC   PO4 2487   5.173   9.127   4.412 -0.0465 -0.0447  0.3305
  177POPC   GL1 2488   5.317   9.144   4.824 -0.3136 -0.2984  0.1570
  177POPC   GL2 2489   5.254   8.944   5.127  0.0280 -0.2412  0.0778
  177POPC   C1A 2490   5.481   9.490   5.189  0.2028 -0.0113  0.0579
  177POPC   D2A 2491   5.643   9.895   5.394  0.0086 -0.1019  0.1611
  177POPC   C3A 2492   5.342  10.211   5.444 -0.1309  0.0521 -0.1047
  177POPC   C4A 2493   5.211  10.294   5.959 -0.3845  0.2442  0.0360
  177POPC   C1B 2494   5.438   9.065   5.490 -0.4262 -0.0104  0.1996
  177POPC   C2B 2495   5.470   9.419   5.693 -0.1045 -0.2349  0.0496
  177POPC   C3B 2496   5.304   9.825   5.799 -0.2850 -0.1132  0.2772
  177POPC   C4B 2497   4.896  10.140   5.646 -0.2734  0.4219  0.0210
  178POPC   NC3 2498   0.513   5.135   3.586 -0.0417 -0.0373  0.2097
  178POPC   PO4 2499   0.909   5.154   3.781  0.1109  0.0588 -0.2093
  178POPC   GL1 2500   0.980   5.025   4.171 -0.3107  0.0983  0.2141
  178POPC   GL2 2501   0.800   5.323   4.293 -0.1310  0.1363  0.0614
  178POPC   C1A 2502   1.304   5.020   4.595  0.0224  0.0316 -0.1338
  178POPC   D2A 2503   1.430   4.867   4.955  0.2999 -0.0566  0.0855
  178POPC   C3A 2504   1.421   5.128   5.388 -0.0023  0.1290 -0.2980
  178POPC   C4A 2505   1.201   5.301   5.641  0.1842 -0.0525  0.0376
  178POPC   C1B 2506   1.128   5.507   4.447 -0.0074 -0.2773  0.0531
  178POPC   C2B 2507   1.232   5.990   4.697  0.0695  0.0514  0.1275
  178POPC   C3B 2508   1.321   6.458   4.889  0.2643  0.0167  0.0598
  178POPC   C4B 2509   1.645   6.701   5.125  0.2485 -0.3009  0.0250
  179POPC   NC3 2510   8.379   3.104   4.658 -0.2618 -0.1918 -0.4455
  179POPC   PO4 2511   8.711   3.492   4.613  0.5836  0.2337 -0.1361
  179POPC   GL1 2512   8.709   3.762   4.934  0.2871 -0.2656  0.1188
  179POPC   GL2 2513   9.089   3.761   4.869 -0.1172  0.2083 -0.4365
  179POPC   C1A 2514   8.502   3.902   5.184  0.0048 -0.0386 -0.0321
  179POPC   D2A 2515   8.126   3.897   5.305 -0.0818  0.0069  0.1090
  179POPC   C3A 2516   8.146   3.941   5.701  0.3210 -0.1953 -0.2616
  179POPC   C4A 2517   7.851   3.877   6.074 -0.2554  0.0019 -0.1667
  179POPC   C1B 2518   9.277   3.806   5.256  0.3020 -0.0344  0.3218
  179POPC   C2B 2519   9.371   3.889   5.725  0.1404 -0.3533 -0.1917
  179POPC   C3B 2520   9.483   4.048   6.104 -0.2099 -0.0193 -0.1370
  179POPC   C4B 2521   9.564   4.231   6.539 -0.2304  0.1622  0.3267
  180POPC   NC3 2522   0.892   4.732   3.535 -0.3271  0.0024 -0.1402
  180POPC   PO4 2523   0.517   4.690   3.752 -0.0764 -0.2165  0.2197
  180POPC   GL1 2524   0.788   4.561   4.035  0.0652 -0.1101  0.1977
  180POPC   GL2 2525   1.158   4.416   3.923  0.1975  0.1676  0.2818
  180POPC   C1A 2526   0.839   4.346   4.383 -0.0785 -0.0811  0.2169
  180POPC   D2A 2527   0.614   4.338   4.790 -0.1906  0.1141 -0.0831
  180POPC   C3A 2528   0.629   4.639   5.091  0.0465 -0.2087  0.1172
  180POPC   C4A 2529   0.990   4.807   5.134 -0.1597 -0.3079 -0.3148
  180POPC   C1B 2530   1.324   4.553   4.356 -0.0269 -0.1773  0.3263
  180POPC   C2B 2531   1.046   4.586   4.707 -0.2289 -0.1470 -0.0854
  180POPC   C3B 2532   0.668   4.791   4.605  0.0756 -0.3346 -0.2167
  180POPC   C4B 2533   0.374   5.169   4.569 -0.2310 -0.0998 -0.1492
  181POPC   NC3 2534   8.023   5.186   4.425  0.1715  0.0576  0.1983
  181POPC   PO4 2535   7.647   5.099   4.606  0.2335  0.0650  0.1232
  181POPC   GL1 2536   7.485   4.830   4.908  0.2670 -0.0173 -0.0113
  181POPC   GL2 2537   7.642   4.600   5.090 -0.4981 -0.3380  0.3667
  181POPC   C1A 2538   7.177   4.798   5.190  0.0621 -0.0408  0.0305
  181POPC   D2A 2539   6.887   4.805   5.440 -0.0233 -0.1477  0.3658
  181POPC   C3A 2540   6.546   4.634   5.724  0.0824  0.1335 -0.0851
  181POPC   C4A 2541   6.165   4.692   6.040  0.0192 -0.1916 -0.0431
  181POPC   C1B 2542   7.675   4.915   5.444 -0.1244  0.1336 -0.0286
  181POPC   C2B 2543   7.761   4.940   5.998  0.1661 -0.1315  0.0457
  181POPC   C3B 2544   7.869   4.812   6.314  0.3095  0.0076 -0.1702
  181POPC   C4B 2545   7.923   4.501   6.587 -0.0818  0.0861  0.0636
  182POPC   NC3 2546   8.243   8.054   4.106 -0.0179  0.0488 -0.0978
  182POPC   PO4 2547   7.771   8.153   4.112  0.2027 -0.0119 -0.2109
  182POPC   GL1 2548   8.006   8.196   4.536  0.4174 -0.3075  0.0205
  182POPC   GL2 2549   8.305   8.177   4.604 -0.1037  0.0002  0.5242
  182POPC   C1A 2550   7.891   8.291   4.977 -0.2102  0.1109 -0.0448
  182POPC   D2A 2551   7.813   8.363   5.366  0.1360  0.0160  0.1729
  182POPC   C3A 2552   7.682   8.330   5.655  0.2204 -0.0212 -0.3419
  182POPC   C4A 2553   7.620   8.207   6.052 -0.2040 -0.0955 -0.0216
  182POPC   C1B 2554   8.257   7.925   4.979 -0.0160 -0.1354 -0.3135
  182POPC   C2B 2555   8.288   8.160   5.470 -0.1915  0.0194 -0.0269
  182POPC   C3B 2556   8.316   8.128   5.890  0.0523 -0.0526  0.1241
  182POPC   C4B 2557   8.667   8.199   6.136 -0.2204  0.2918  0.0907
  183POPC   NC3 2558   4.478   6.548   4.179  0.1219  0.1322  0.0089
  183POPC   PO4 2559   4.079   6.862   4.268 -0.0872 -0.2396 -0.0507
  183POPC   GL1 2560   4.211   6.988   4.622 -0.1249  0.4283  0.1578
  183POPC   GL2 2561   3.893   7.127   4.733  0.0416  0.1478 -0.1654
  183POPC   C1A 2562   4.150   7.093   5.159  0.0712 -0.0152  0.2903
  183POPC   D2A 2563   4.099   7.286   5.604 -0.0363 -0.0764  0.2512
  183POPC   C3A 2564   4.248   7.275   6.065  0.0884  0.2963  0.0979
  183POPC   C4A 2565   4.103   7.466   6.496 -0.1017 -0.1718  0.1888
  183POPC   C1B 2566   3.628   7.127   5.083  0.1084 -0.2465 -0.1553
  183POPC   C2B 2567   3.464   7.315   5.476  0.3269  0.4225  0.0270
  183POPC   C3B 2568   3.201   7.630   5.592 -0.0477 -0.0632  0.0034
  183POPC   C4B 2569   2.963   7.730   5.991  0.0992 -0.0357  0.1424
  184POPC   NC3 2570   0.671   6.458   2.814  0.2293 -0.0794 -0.2732
  184POPC   PO4 2571   0.987   6.305   3.167 -0.0359 -0.0916  0.0685
  184POPC   GL1 2572   1.128   6.407   3.577 -0.2806 -0.2266  0.1423
  184POPC   GL2 2573   1.038   6.157   3.854 -0.1105 -0.0223  0.0990
  184POPC   C1A 2574   1.475   6.716   3.910  0.2915  0.2056  0.0621
  184POPC   D2A 2575   1.792   6.810   4.296 -0.0528 -0.3777 -0.0382
  184POPC   C3A 2576   1.473   6.848   4.656  0.2439  0.0770 -0.0847
  184POPC   C4A 2577   1.589   7.130   4.922  0.2955 -0.4222  0.0138
  184POPC   C1B 2578   1.092   5.949   4.190 -0.1148 -0.0090 -0.0109
  184POPC   C2B 2579   1.525   5.778   4.362  0.1074 -0.3471  0.1536
  184POPC   C3B 2580   1.779   5.981   4.709  0.0689  0.0710 -0.1279
  184POPC   C4B 2581   1.792   6.402   4.723  0.3407 -0.2525 -0.1513
  185POPC   NC3 2582   7.676   7.674   3.930  0.0022 -0.0841 -0.2048
  185POPC   PO4 2583   7.424   7.753   4.375 -0.1904  0.0861  0.1053
  185POPC   GL1 2584   7.717   7.561   4.656 -0.0547  0.1410 -0.2492
  185POPC   GL2 2585   7.672   7.713   4.934  0.0119 -0.0825 -0.1110
  185POPC   C1A 2586   7.733   7.161   4.987  0.1515 -0.1748 -0.3743
  185POPC   D2A 2587   7.870   6.871   5.211 -0.0568 -0.1675 -0.3943
  185POPC   C3A 2588   7.858   7.045   5.607 -0.0366 -0.0607  0.2209
  185POPC   C4A 2589   7.801   7.252   5.926 -0.1125 -0.2458  0.1879
  185POPC   C1B 2590   7.875   7.800   5.295  0.0625 -0.2445 -0.1016
  185POPC   C2B 2591   7.960   7.858   5.672 -0.1323  0.1407 -0.0389
  185POPC   C3B 2592   8.054   7.712   6.056  0.2093  0.2656 -0.0106
  185POPC   C4B 2593   8.134   7.505   6.393 -0.2700  0.0105 -0.0839
  186POPC   NC3 2594   4.248   8.862   4.559 -0.1712 -0.0283  0.1900
  186POPC   PO4 2595   4.145   9.125   4.301  0.1256  0.3460 -0.0792
  186POPC   GL1 2596   4.036   9.282   4.664  0.1633 -0.1239  0.2174
  186POPC   GL2 2597   4.089   9.084   4.977  0.0117 -0.1892  0.0651
  186POPC   C1A 2598   3.732   9.465   4.954 -0.0683  0.3158  0.1499
  186POPC   D2A 2599   3.523   9.508   5.411  0.1327  0.4265  0.1920
  186POPC   C3A 2600   3.519   9.120   5.585  0.3515  0.1169  0.1628
  186POPC   C4A 2601   3.534   8.902   5.906  0.2654 -0.0217 -0.0605
  186POPC   C1B 2602   4.084   9.091   5.468 -0.1217  0.0130  0.2290
  186POPC   C2B 2603   3.978   9.033   5.964  0.1919  0.1482  0.1900
  186POPC   C3B 2604   4.029   8.675   6.103  0.1996  0.0361  0.2939
  186POPC   C4B 2605   3.954   8.468   6.464  0.1129  0.1243 -0.2021
  187POPC   NC3 2606   3.785   3.885   4.356 -0.1344  0.0645  0.0986
  187POPC   PO4 2607   3.399   4.072   4.304  0.1880 -0.0881 -0.1375
  187POPC   GL1 2608   3.467   4.071   4.669  0.1026  0.0280 -0.1331
  187POPC   GL2 2609   3.774   4.020   4.809  0.0730 -0.3165  0.3311
  187POPC   C1A 2610   3.306   4.099   5.044  0.3128 -0.0853  0.0325
  187POPC   D2A 2611   2.904   3.996   5.339 -0.2070  0.3141 -0.1788
  187POPC   C3A 2612   3.071   3.968   5.791 -0.0709 -0.0731  0.1757
  187POPC   C4A 2613   3.296   3.832   6.172 -0.1776  0.3419  0.1673
  187POPC   C1B 2614   3.720   3.844   5.218 -0.0137  0.0794  0.0774
  187POPC   C2B 2615   3.988   3.951   5.472  0.0750  0.1774 -0.1895
  187POPC   C3B 2616   4.050   3.762   5.830  0.0210 -0.2622  0.0565
  187POPC   C4B 2617   4.282   3.366   6.023  0.1474  0.0602  0.1408
  188POPC   NC3 2618   9.287   0.291   3.983  0.2416  0.4483 -0.0707
  188POPC   PO4 2619   9.214   0.545   4.264  0.2521  0.0619  0.3152
  188POPC   GL1 2620   8.998   0.456   4.558 -0.4095 -0.0618 -0.3790
  188POPC   GL2 2621   8.923   0.092   4.692  0.2096  0.0210  0.1985
  188POPC   C1A 2622   8.681   0.512   4.956  0.5068  0.1912 -0.1739
  188POPC   D2A 2623   8.511   0.555   5.399 -0.1179  0.0586  0.3244
  188POPC   C3A 2624   8.712   0.381   5.786 -0.5875 -0.1563 -0.1013
  188POPC   C4A 2625   8.517   0.066   6.092 -0.1716 -0.0648 -0.1445
  188POPC   C1B 2626   9.264   0.162   4.882 -0.0827  0.1011 -0.1770
  188POPC   C2B 2627   9.583   0.034   5.315  0.1237 -0.2007 -0.1726
  188POPC   C3B 2628   9.945  -0.045   5.554 -0.0667 -0.2758  0.1063
  188POPC   C4B 2629  10.190  -0.368   5.779 -0.1832  0.0942 -0.0859
  189POPC   NC3 2630   3.686   8.555   4.071 -0.0961 -0.0589 -0.1329
  189POPC   PO4 2631   3.301   8.781   4.001 -0.4125  0.0820  0.4059
  189POPC   GL1 2632   3.547   9.020   4.343  0.2034  0.1402  0.2547
  189POPC   GL2 2633   3.601   9.338   4.384 -0.2773  0.1643  0.2130
  189POPC   C1A 2634   3.617   8.969   4.734 -0.0957  0.0719  0.0506
  189POPC   D2A 2635   3.718   8.884   5.123 -0.1266  0.1051  0.1756
  189POPC   C3A 2636   3.516   8.559   5.419  0.4224 -0.0035  0.1412
  189POPC   C4A 2637   3.173   8.576   5.708  0.1988  0.0307  0.2672
  189POPC   C1B 2638   3.266   9.308   4.660 -0.1662 -0.0386 -0.0441
  189POPC   C2B 2639   2.856   9.231   4.891  0.0753  0.2765 -0.1023
  189POPC   C3B 2640   2.712   9.286   5.359  0.0527  0.0162  0.1145
  189POPC   C4B 2641   2.582   8.944   5.645 -0.0810 -0.4091  0.1272
  190POPC   NC3 2642   2.483   8.566   4.100  0.2145  0.2754  0.0706
  190POPC   PO4 2643   2.879   8.457   4.195  0.0845 -0.0494 -0.4255
  190POPC   GL1 2644   2.744   8.308   4.502 -0.2186  0.1408  0.0204
  190POPC   GL2 2645   2.405   8.359   4.526 -0.0119  0.0545  0.2815
  190POPC   C1A 2646   2.634   7.969   4.865  0.0330  0.3808  0.3409
  190POPC   D2A 2647   2.487   7.931   5.291  0.4880 -0.0715  0.0457
  190POPC   C3A 2648   2.207   8.252   5.496 -0.2584  0.0165 -0.1260
  190POPC   C4A 2649   2.076   8.693   5.640 -0.0861  0.3616 -0.0024
  190POPC   C1B 2650   2.282   8.284   4.963  0.0304 -0.0688 -0.0308
  190POPC   C2B 2651   1.959   8.496   5.111 -0.1953 -0.0646  0.2880
  190POPC   C3B 2652   1.703   8.448   5.423 -0.0294 -0.0654  0.1076
  190POPC   C4B 2653   1.347   8.422   5.648  0.0158 -0.2669 -0.4457
  191POPC   NC3 2654   0.066   7.635   3.401  0.0751 -0.0100 -0.4223
  191POPC   PO4 2655   0.280   7.216   3.455 -0.4013  0.0978  0.1139
  191POPC   GL1 2656   0.289   6.990   3.810  0.1462 -0.0271  0.3447
  191POPC   GL2 2657  -0.012   6.950   3.951  0.1014  0.2276  0.1153
  191POPC   C1A 2658   0.305   6.737   4.285  0.1569 -0.0257 -0.2741
  191POPC   D2A 2659   0.215   6.810   4.736  0.2245  0.0715 -0.0502
  191POPC   C3A 2660   0.616   6.899   4.922  0.1552 -0.0720  0.0592
  191POPC   C4A 2661   1.020   6.914   4.827  0.0798 -0.1701 -0.0534
  191POPC   C1B 2662   0.163   7.207   4.283  0.0550 -0.3197 -0.0141
  191POPC   C2B 2663   0.408   7.219   4.579  0.3053 -0.1673  0.3263
  191POPC   C3B 2664   0.775   7.342   4.650 -0.0146 -0.3509  0.2307
  191POPC   C4B 2665   1.206   7.326   4.631  0.1676  0.1320  0.2564
  192POPC   NC3 2666   6.884   8.402   4.066  0.0442 -0.1840  0.2756
  192POPC   PO4 2667   6.910   8.524   4.533 -0.0218  0.0264  0.0932
  192POPC   GL1 2668   7.061   8.424   4.895 -0.1161 -0.0847  0.1971
  192POPC   GL2 2669   6.875   8.302   5.141  0.3112 -0.2101  0.0608
  192POPC   C1A 2670   7.374   8.132   5.112  0.2400  0.0422 -0.0081
  192POPC   D2A 2671   7.390   7.771   5.413  0.4380 -0.2008  0.0039
  192POPC   C3A 2672   7.498   7.614   5.827 -0.2722  0.1933 -0.0663
  192POPC   C4A 2673   7.577   7.800   6.270 -0.1421 -0.2776 -0.1911
  192POPC   C1B 2674   7.002   8.169   5.468 -0.3316  0.2430  0.1437
  192POPC   C2B 2675   6.858   8.259   5.869 -0.2762  0.2593 -0.0817
  192POPC   C3B 2676   6.710   8.378   6.297  0.2288 -0.0802 -0.0477
  192POPC   C4B 2677   6.680   8.113   6.539 -0.1797 -0.1064  0.0066
  193POPC   NC3 2678   8.244   9.653   3.642  0.3608 -0.0799  0.2714
  193POPC   PO4 2679   8.251   9.526   4.114  0.0461  0.0522 -0.0976
  193POPC   GL1 2680   8.189   9.581   4.537 -0.0962  0.1972  0.0832
  193POPC   GL2 2681   8.283   9.342   4.612  0.0987  0.0975 -0.1384
  193POPC   C1A 2682   8.443   9.790   4.888 -0.0967 -0.1524  0.0677
  193POPC   D2A 2683   8.339   9.856   5.245  0.2509  0.0267  0.1937
  193POPC   C3A 2684   8.478   9.682   5.576 -0.1644  0.0093 -0.3343
  193POPC   C4A 2685   8.860   9.587   5.725 -0.3074  0.0735 -0.3472
  193POPC   C1B 2686   8.441   9.185   5.000  0.3400 -0.2022 -0.1457
  193POPC   C2B 2687   8.556   9.076   5.390  0.2227  0.0336 -0.3750
  193POPC   C3B 2688   8.706   9.092   5.904  0.2925 -0.1203  0.0803
  193POPC   C4B 2689   8.839   8.813   6.172  0.1271 -0.0567  0.1509
  194POPC   NC3 2690   6.258   9.762   4.435 -0.1230 -0.1193  0.1590
  194POPC   PO4 2691   6.113   9.388   4.452 -0.1786  0.0828  0.0509
  194POPC   GL1 2692   6.340   9.527   4.892 -0.2239  0.0995 -0.2339
  194POPC   GL2 2693   6.320   9.815   4.964  0.0548 -0.0701 -0.2540
  194POPC   C1A 2694   6.570   9.385   5.248 -0.3264  0.1457 -0.5364
  194POPC   D2A 2695   6.722   9.708   5.420 -0.0699 -0.3792  0.1365
  194POPC   C3A 2696   6.869   9.633   5.831  0.0860 -0.0087  0.2685
  194POPC   C4A 2697   7.251   9.528   6.029 -0.2235  0.0280 -0.1433
  194POPC   C1B 2698   6.223   9.782   5.353  0.1529 -0.0648 -0.2803
  194POPC   C2B 2699   6.287   9.972   5.746 -0.3334  0.2189  0.0465
  194POPC   C3B 2700   6.535   9.915   6.027  0.0090 -0.3247 -0.1188
  194POPC   C4B 2701   6.583  10.013   6.461  0.2364 -0.2106 -0.0084
  195POPC   NC3 2702   1.278   2.122   4.110  0.2323 -0.2333 -0.1295
  195POPC   PO4 2703   0.838   2.324   4.258 -0.0226  0.2063  0.2188
  195POPC   GL1 2704   0.780   2.134   4.572 -0.4125 -0.1632  0.0085
  195POPC   GL2 2705   1.155   2.022   4.656 -0.3017 -0.4192 -0.1840
  195POPC   C1A 2706   0.581   1.842   4.878  0.1134 -0.2772 -0.0904
  195POPC   D2A 2707   0.423   1.742   5.322 -0.1437 -0.0817  0.2895
  195POPC   C3A 2708   0.197   1.947   5.738 -0.1784  0.2484  0.0524
  195POPC   C4A 2709  -0.139   1.773   5.962 -0.1034 -0.1413  0.2498
  195POPC   C1B 2710   1.058   2.002   5.164  0.1434 -0.0144  0.4444
  195POPC   C2B 2711   0.805   2.066   5.447 -0.3052  0.0830 -0.0348
  195POPC   C3B 2712   0.579   2.280   5.737  0.1239 -0.1662 -0.1949
  195POPC   C4B 2713   0.745   2.276   6.174  0.4251 -0.0524 -0.0065
  196POPC   NC3 2714   0.045   8.167   3.358  0.4451 -0.1770  0.3618
  196POPC   PO4 2715  -0.251   7.892   3.664 -0.2006  0.4224 -0.1666
  196POPC   GL1 2716  -0.260   8.142   4.030 -0.1279 -0.1569 -0.1113
  196POPC   GL2 2717  -0.603   8.191   4.240  0.4206 -0.1756 -0.1352
  196POPC   C1A 2718   0.103   8.232   4.350 -0.1419  0.1957 -0.0613
  196POPC   D2A 2719   0.385   8.517   4.470 -0.1263 -0.2750 -0.1773
  196POPC   C3A 2720   0.862   8.458   4.386  0.1856  0.0291  0.1378
  196POPC   C4A 2721   1.158   8.283   4.014 -0.2147 -0.2987  0.0660
  196POPC   C1B 2722  -0.613   8.075   4.548 -0.0779  0.1414  0.0453
  196POPC   C2B 2723  -0.591   8.103   5.057  0.2260 -0.0054  0.0078
  196POPC   C3B 2724  -0.462   8.351   5.423 -0.1380  0.0802  0.2119
  196POPC   C4B 2725  -0.684   8.609   5.763 -0.0431 -0.2443  0.0183
  197POPC   NC3 2726   3.152   3.430   4.119 -0.0627 -0.1095  0.3273
  197POPC   PO4 2727   3.153   3.164   4.425 -0.3246 -0.0248  0.0959
  197POPC   GL1 2728   3.138   3.306   4.871 -0.0154 -0.1391  0.2093
  197POPC   GL2 2729   2.985   3.595   5.001  0.0102 -0.1642 -0.2933
  197POPC   C1A 2730   3.019   3.015   5.213 -0.1409 -0.2038 -0.0731
  197POPC   D2A 2731   2.826   2.932   5.598 -0.1319  0.1432  0.0216
  197POPC   C3A 2732   2.726   2.590   5.828  0.2794  0.0767  0.3226
  197POPC   C4A 2733   2.487   2.723   6.206 -0.0626  0.1592  0.0264
  197POPC   C1B 2734   3.055   3.494   5.417 -0.0090 -0.2034  0.1258
  197POPC   C2B 2735   3.004   3.450   5.869  0.0817 -0.1199  0.1892
  197POPC   C3B 2736   3.176   3.316   6.223 -0.6332  0.2572 -0.0402
  197POPC   C4B 2737   3.362   3.287   6.528 -0.0470 -0.2845  0.0301
  198POPC   NC3 2738   7.812   9.319   4.364  0.2071  0.1161 -0.0285
  198POPC   PO4 2739   7.385   9.263   4.367  0.1992  0.0685 -0.0730
  198POPC   GL1 2740   7.394   9.230   4.757 -0.1944  0.1961 -0.0833
  198POPC   GL2 2741   7.814   9.086   4.815 -0.3038  0.0635  0.2597
  198POPC   C1A 2742   7.578   9.351   5.167 -0.0155  0.0017  0.2630
  198POPC   D2A 2743   7.602   9.355   5.598  0.0056 -0.0745 -0.0436
  198POPC   C3A 2744   7.721   9.275   5.984  0.1810 -0.1110  0.1464
  198POPC   C4A 2745   7.742   9.407   6.330  0.1909 -0.3409 -0.1532
  198POPC   C1B 2746   7.794   8.952   5.255 -0.1864 -0.1005 -0.0707
  198POPC   C2B 2747   7.626   8.808   5.577  0.1987  0.0136  0.2547
  198POPC   C3B 2748   7.302   8.934   5.908  0.2299 -0.3141  0.1032
  198POPC   C4B 2749   6.938   8.837   6.129  0.2325 -0.0678  0.2856
  199POPC   NC3 2750   5.359   6.375   4.049 -0.1534 -0.3870  0.1728
  199POPC   PO4 2751   5.490   6.006   4.338 -0.0857  0.0402  0.1112
  199POPC   GL1 2752   5.434   5.907   4.792  0.2203  0.1919 -0.0806
  199POPC   GL2 2753   5.697   6.129   4.844 -0.1098  0.5058 -0.1799
  199POPC   C1A 2754   5.656   5.745   5.174  0.0488  0.5236 -0.0434
  199POPC   D2A 2755   5.726   5.521   5.629 -0.2929 -0.2029  0.2381
  199POPC   C3A 2756   5.468   5.146   5.740 -0.2987 -0.1357 -0.1579
  199POPC   C4A 2757   5.336   4.899   6.078 -0.0370  0.2893  0.2024
  199POPC   C1B 2758   5.740   6.218   5.220  0.0039  0.2282 -0.0821
  199POPC   C2B 2759   5.632   6.117   5.582  0.0462 -0.3787 -0.1260
  199POPC   C3B 2760   5.569   6.090   6.032 -0.1663 -0.3945  0.1996
  199POPC   C4B 2761   5.775   5.836   6.296 -0.1909 -0.0144  0.2381
  200POPC   NC3 2762   0.130   3.149   3.836 -0.0004  0.1066  0.2463
  200POPC   PO4 2763  -0.092   3.298   4.268  0.1020  0.0280  0.2135
  200POPC   GL1 2764  -0.041   3.612   4.634 -0.0597 -0.0976  0.2948
  200POPC   GL2 2765   0.114   3.871   4.473 -0.1469 -0.1207 -0.1152
  200POPC   C1A 2766  -0.079   3.583   5.031  0.1202  0.0235  0.0972
  200POPC   D2A 2767   0.121   3.350   5.444 -0.1742  0.4910  0.1862
  200POPC   C3A 2768  -0.166   3.401   5.785  0.0539 -0.0989 -0.0030
  200POPC   C4A 2769  -0.376   3.519   6.093  0.0274 -0.1722  0.0991
  200POPC   C1B 2770   0.290   3.982   4.932  0.2617 -0.0237  0.3077
  200POPC   C2B 2771   0.535   4.121   5.252  0.1448 -0.2981  0.0861
  200POPC   C3B 2772   0.859   4.406   5.494 -0.3130  0.0344  0.1179
  200POPC   C4B 2773   1.172   4.730   5.590  0.1235 -0.0069 -0.2468
  201POPC   NC3 2774   3.312   2.301   4.143  0.0747  0.2626  0.2936
  201POPC   PO4 2775   3.384   2.714   4.329  0.3000 -0.0890 -0.1027
  201POPC   GL1 2776   3.166   2.720   4.691 -0.1597  0.0206 -0.0548
  201POPC   GL2 2777   3.301   2.823   4.897  0.0635 -0.0830 -0.2565
  201POPC   C1A 2778   3.031   2.446   4.997 -0.1199  0.1916  0.2204
  201POPC   D2A 2779   2.727   2.270   5.370 -0.1492 -0.0516  0.0014
  201POPC   C3A 2780   2.842   1.964   5.721  0.1792  0.1434  0.0189
  201POPC   C4A 2781   2.840   1.503   5.757  0.1828 -0.3403 -0.3614
  201POPC   C1B 2782   3.276   2.604   5.420  0.3698  0.0305 -0.1911
  201POPC   C2B 2783   3.221   2.308   5.790  0.2678 -0.0056  0.2638
  201POPC   C3B 2784   3.021   2.274   6.110 -0.3447  0.1425 -0.3797
  201POPC   C4B 2785   3.053   1.811   6.216  0.2963 -0.3610  0.2810
  202POPC   NC3 2786   5.886   5.259   4.139  0.0657  0.2963 -0.1853
  202POPC   PO4 2787   6.181   5.430   4.427 -0.3067  0.0426  0.0034
  202POPC   GL1 2788   6.096   5.519   4.874 -0.1674 -0.0399  0.0598
  202POPC   GL2 2789   6.128   5.888   5.031  0.3735  0.2963  0.0540
  202POPC   C1A 2790   6.114   5.373   5.293  0.2801 -0.1033 -0.0538
  202POPC   D2A 2791   6.310   5.081   5.706  0.2501  0.0152  0.1503
  202POPC   C3A 2792   6.434   5.161   6.103  0.0454 -0.2872  0.1421
  202POPC   C4A 2793   6.759   4.916   6.368  0.1958 -0.1924  0.2949
  202POPC   C1B 2794   6.300   5.780   5.458  0.0551  0.2592 -0.0683
  202POPC   C2B 2795   6.614   5.512   5.688 -0.2571 -0.1382  0.1222
  202POPC   C3B 2796   6.826   5.097   5.823 -0.1126  0.1050  0.0877
  202POPC   C4B 2797   7.255   4.923   5.732  0.1867  0.1650 -0.1524
  203POPC   NC3 2798   6.018   5.886   4.512 -0.3460 -0.1211 -0.3075
  203POPC   PO4 2799   6.126   6.290   4.612 -0.1474 -0.0877  0.2412
  203POPC   GL1 2800   6.234   6.406   4.975 -0.2125 -0.2935  0.1664
  203POPC   GL2 2801   6.059   6.616   5.027 -0.2331 -0.2187  0.0956
  203POPC   C1A 2802   6.217   6.286   5.380 -0.1316  0.2904  0.2691
  203POPC   D2A 2803   5.982   6.386   5.744  0.0878 -0.1888  0.0529
  203POPC   C3A 2804   6.107   6.039   5.971  0.0282  0.1164  0.0416
  203POPC   C4A 2805   6.199   5.659   5.974 -0.0111  0.2836 -0.0914
  203POPC   C1B 2806   6.226   6.771   5.471  0.0685 -0.1360 -0.1665
  203POPC   C2B 2807   6.266   6.942   5.940  0.1470 -0.0642 -0.2774
  203POPC   C3B 2808   6.327   6.856   6.411 -0.3233 -0.0590  0.0165
  203POPC   C4B 2809   6.355   6.573   6.842  0.1441  0.1182  0.0316
  204POPC   NC3 2810   4.502   4.213   4.183  0.0605  0.3440  0.0166
  204POPC   PO4 2811   4.274   3.901   4.456  0.2157  0.1203  0.1928
  204POPC   GL1 2812   4.288   3.808   4.867 -0.1708 -0.2789  0.0887
  204POPC   GL2 2813   4.439   3.487   4.911 -0.2168 -0.0748 -0.0800
  204POPC   C1A 2814   4.604   3.948   5.205 -0.3956 -0.2995 -0.0562
  204POPC   D2A 2815   4.935   4.276   5.117  0.3048  0.2521  0.2457
  204POPC   C3A 2816   5.377   4.316   5.180  0.0751 -0.0052  0.2745
  204POPC   C4A 2817   5.648   4.404   5.518  0.3756 -0.2006  0.3058
  204POPC   C1B 2818   4.281   3.490   5.356 -0.3512  0.1383  0.2809
  204POPC   C2B 2819   3.939   3.397   5.522  0.1211  0.0620  0.1313
  204POPC   C3B 2820   3.630   3.186   5.706  0.0319 -0.0584  0.2249
  204POPC   C4B 2821   3.326   3.065   5.647  0.1151 -0.1859  0.2178
  205POPC   NC3 2822   7.811   6.602   4.732 -0.0458 -0.0296 -0.3182
  205POPC   PO4 2823   8.282   6.492   4.576 -0.1621 -0.2260 -0.2518
  205POPC   GL1 2824   8.210   6.501   5.011 -0.2878  0.0625  0.0582
  205POPC   GL2 2825   7.855   6.332   5.167  0.1166 -0.0236  0.0810
  205POPC   C1A 2826   8.283   6.393   5.456 -0.0896  0.2551  0.1290
  205POPC   D2A 2827   8.227   6.226   5.957 -0.4660 -0.0312 -0.2864
  205POPC   C3A 2828   7.842   6.224   6.108 -0.1442  0.0601  0.1109
  205POPC   C4A 2829   7.612   5.865   6.155  0.4273  0.3484 -0.2320
  205POPC   C1B 2830   7.897   6.075   5.447 -0.3224  0.0473 -0.1430
  205POPC   C2B 2831   7.940   5.774   5.717 -0.4087  0.3506 -0.1072
  205POPC   C3B 2832   7.957   5.585   6.034  0.1565  0.1383  0.2213
  205POPC   C4B 2833   7.996   5.310   6.379 -0.2234  0.2973  0.0345
  206POPC   NC3 2834   2.153   3.582   4.002 -0.2710 -0.0115  0.1855
  206POPC   PO4 2835   2.541   3.826   3.993  0.0770 -0.3655  0.1186
  206POPC   GL1 2836   2.350   3.989   4.328 -0.1366  0.0686  0.0992
  206POPC   GL2 2837   2.152   3.698   4.526  0.3385  0.2638  0.0906
  206POPC   C1A 2838   2.112   4.124   4.798 -0.1379  0.3100  0.0508
  206POPC   D2A 2839   1.873   4.129   5.259  0.2272 -0.1175  0.3288
  206POPC   C3A 2840   2.147   4.559   5.399  0.2267  0.2755  0.1581
  206POPC   C4A 2841   1.920   4.937   5.434 -0.0992  0.0813  0.2549
  206POPC   C1B 2842   1.990   3.607   4.910  0.2817 -0.2206  0.1067
  206POPC   C2B 2843   2.020   3.614   5.320 -0.0846  0.4755  0.1643
  206POPC   C3B 2844   2.123   3.904   5.612 -0.1082  0.0139  0.1243
  206POPC   C4B 2845   2.335   4.223   5.743  0.0280 -0.0483 -0.1742
  207POPC   NC3 2846   1.779   2.076   4.222 -0.0493 -0.0642 -0.1020
  207POPC   PO4 2847   1.945   1.755   4.287 -0.1667 -0.1832  0.4365
  207POPC   GL1 2848   2.109   1.565   4.707  0.1705  0.2141 -0.0887
  207POPC   GL2 2849   2.317   1.827   4.815 -0.0492  0.0762 -0.0786
  207POPC   C1A 2850   1.988   1.625   5.108  0.1247 -0.0725 -0.1085
  207POPC   D2A 2851   1.843   1.481   5.592  0.3532  0.3012 -0.1521
  207POPC   C3A 2852   1.519   1.326   5.788 -0.0819  0.1971  0.1333
  207POPC   C4A 2853   1.116   1.495   5.989 -0.0087 -0.1206  0.0175
  207POPC   C1B 2854   2.400   1.887   5.271 -0.2040 -0.0430  0.0696
  207POPC   C2B 2855   2.308   2.058   5.725 -0.0778 -0.0223 -0.2012
  207POPC   C3B 2856   2.565   2.146   6.126  0.0564  0.2199 -0.1391
  207POPC   C4B 2857   2.769   2.041   6.574 -0.0373  0.2557 -0.2765
  208POPC   NC3 2858   8.618   9.232   4.192  0.1082 -0.0581 -0.2960
  208POPC   PO4 2859   8.680   8.863   4.126  0.1254  0.2632  0.1536
  208POPC   GL1 2860   8.624   8.886   4.606 -0.2109 -0.1780 -0.1268
  208POPC   GL2 2861   8.618   8.512   4.808 -0.2981 -0.3734 -0.1024
  208POPC   C1A 2862   8.947   9.001   4.954 -0.0090  0.1442  0.0475
  208POPC   D2A 2863   9.006   9.028   5.443  0.2946  0.0866 -0.1837
  208POPC   C3A 2864   9.179   9.110   5.807 -0.0323  0.0305 -0.0261
  208POPC   C4A 2865   9.388   8.873   6.164  0.0074 -0.1944 -0.1899
  208POPC   C1B 2866   9.069   8.510   4.891  0.1523  0.0797  0.3500
  208POPC   C2B 2867   9.475   8.440   4.656 -0.1556  0.3463  0.0690
  208POPC   C3B 2868   9.792   8.686   4.777  0.1339 -0.1016  0.0320
  208POPC   C4B 2869  10.121   8.569   5.077  0.0106  0.2724  0.2297
  209POPC   NC3 2870   2.330   0.569   3.993  0.0670  0.0659 -0.0840
  209POPC   PO4 2871   2.530   0.099   4.142 -0.3683 -0.2859 -0.2163
  209POPC   GL1 2872   2.527   0.190   4.572  0.2377 -0.1317 -0.2115
  209POPC   GL2 2873   2.334   0.351   4.895 -0.1102 -0.0033  0.1133
  209POPC   C1A 2874   2.676  -0.076   4.924  0.0370  0.1095 -0.2677
  209POPC   D2A 2875   2.353  -0.148   5.326 -0.0480 -0.1691 -0.1896
  209POPC   C3A 2876   2.447  -0.291   5.798  0.1320  0.0138 -0.0855
  209POPC   C4A 2877   2.786  -0.401   6.140 -0.0511 -0.2580 -0.0644
  209POPC   C1B 2878   2.224   0.365   5.263 -0.0363  0.1667 -0.1405
  209POPC   C2B 2879   2.081   0.732   5.448  0.3177  0.0142  0.1372
  209POPC   C3B 2880   2.027   1.022   5.718 -0.1942  0.3712  0.1692
  209POPC   C4B 2881   1.752   0.917   6.060 -0.1809 -0.0218  0.2067
  210POPC   NC3 2882   6.332   1.744   3.893  0.3212  0.1771 -0.4590
  210POPC   PO4 2883   6.406   2.072   4.178 -0.1547 -0.1151 -0.3519
  210POPC   GL1 2884   6.855   2.140   4.433 -0.0086  0.1445  0.1624
  210POPC   GL2 2885   6.701   2.383   4.490 -0.0524 -0.1883 -0.2632
  210POPC   C1A 2886   7.095   2.386   4.798  0.0185  0.1195  0.2008
  210POPC   D2A 2887   7.261   2.610   5.211  0.1369 -0.1026 -0.0124
  210POPC   C3A 2888   7.188   3.057   5.089 -0.0236  0.2386 -0.1945
  210POPC   C4A 2889   7.175   3.462   5.002 -0.2428  0.1643  0.2468
  210POPC   C1B 2890   6.595   2.134   4.883  0.0639  0.1145 -0.0806
  210POPC   C2B 2891   6.349   2.133   5.171 -0.0010 -0.0813  0.0959
  210POPC   C3B 2892   6.137   2.086   5.496 -0.2600 -0.3167  0.0373
  210POPC   C4B 2893   5.742   2.091   5.846 -0.0354  0.0959  0.1262
  211POPC   NC3 2894   0.187   0.151   3.943 -0.1825 -0.3934  0.3279
  211POPC   PO4 2895  -0.025   0.426   4.107  0.1045  0.3702 -0.0076
  211POPC   GL1 2896  -0.074   0.590   4.466 -0.1212 -0.2596  0.5207
  211POPC   GL2 2897  -0.324   0.554   4.685 -0.2703 -0.0422 -0.3318
  211POPC   C1A 2898  -0.024   0.974   4.770 -0.1231 -0.3371 -0.2994
  211POPC   D2A 2899  -0.343   1.373   4.739 -0.0593  0.0115  0.0770
  211POPC   C3A 2900  -0.396   1.606   5.126  0.1149  0.0088  0.0526
  211POPC   C4A 2901  -0.555   1.804   5.509  0.0499 -0.2650 -0.1443
  211POPC   C1B 2902  -0.434   0.667   5.129  0.1662  0.2379 -0.1550
  211POPC   C2B 2903  -0.318   0.673   5.591  0.0803 -0.0755 -0.0471
  211POPC   C3B 2904  -0.160   0.889   5.972  0.3007  0.1392  0.2533
  211POPC   C4B 2905   0.287   0.868   6.154 -0.1658 -0.2368  0.2618
  212POPC   NC3 2906   3.771   1.613   4.208 -0.0228  0.4167  0.1221
  212POPC   PO4 2907   3.744   2.120   4.096 -0.2090 -0.3292  0.1154
  212POPC   GL1 2908   4.022   2.035   4.506  0.2593  0.2288  0.3258
  212POPC   GL2 2909   4.301   2.271   4.554  0.2291  0.0324 -0.1733
  212POPC   C1A 2910   4.023   2.141   4.951  0.2135  0.1701 -0.2821
  212POPC   D2A 2911   4.295   2.114   5.348 -0.2060  0.1270  0.3045
  212POPC   C3A 2912   4.459   1.765   5.423  0.0277  0.1171  0.1228
  212POPC   C4A 2913   4.615   1.387   5.505  0.0511 -0.1211  0.1339
  212POPC   C1B 2914   4.537   2.400   4.911  0.1199 -0.0998 -0.0862
  212POPC   C2B 2915   4.706   2.535   5.204  0.0774 -0.0480 -0.2180
  212POPC   C3B 2916   4.478   2.566   5.632  0.0309  0.2138  0.1961
  212POPC   C4B 2917   4.201   2.532   5.993 -0.3953  0.1882  0.1478
  213POPC   NC3 2918   7.451   4.417   3.899 -0.4396  0.1819  0.1805
  213POPC   PO4 2919   7.052   4.640   4.025  0.3666 -0.0324  0.0910
  213POPC   GL1 2920   6.834   4.517   4.405  0.0121 -0.1872 -0.1631
  213POPC   GL2 2921   6.886   4.713   4.727 -0.1979 -0.0080 -0.3159
  213POPC   C1A 2922   6.736   4.217   4.581  0.1054 -0.0441 -0.0993
  213POPC   D2A 2923   6.747   3.811   4.802 -0.3531  0.0305 -0.2080
  213POPC   C3A 2924   6.651   3.689   5.273  0.1062  0.2938  0.0669
  213POPC   C4A 2925   6.356   3.327   5.451 -0.0527 -0.1209  0.0060
  213POPC   C1B 2926   6.604   4.658   5.023  0.0857 -0.0821  0.0812
  213POPC   C2B 2927   6.539   5.133   5.233  0.0911 -0.0108 -0.0022
  213POPC   C3B 2928   6.647   5.600   5.129 -0.1804  0.0913 -0.1443
  213POPC   C4B 2929   6.561   6.013   5.154  0.0227 -0.0887 -0.1855
  214POPC   NC3 2930   1.170   9.260   3.600 -0.1365  0.1455 -0.0020
  214POPC   PO4 2931   1.056   9.549   3.871  0.0743 -0.4467  0.1101
  214POPC   GL1 2932   0.964   9.415   4.259  0.1741  0.2138  0.1722
  214POPC   GL2 2933   1.007   9.674   4.479 -0.0423 -0.1596 -0.2142
  214POPC   C1A 2934   0.820   9.039   4.446 -0.0841 -0.0419  0.1952
  214POPC   D2A 2935   0.524   8.961   4.798 -0.1985  0.1253 -0.0634
  214POPC   C3A 2936   0.684   9.045   5.192 -0.0187 -0.1213  0.1311
  214POPC   C4A 2937   0.707   8.890   5.596  0.0617  0.2608 -0.1573
  214POPC   C1B 2938   1.177   9.968   4.866  0.1474  0.2034  0.2035
  214POPC   C2B 2939   1.290   9.907   5.365 -0.2725  0.1341  0.0857
  214POPC   C3B 2940   1.145   9.647   5.843 -0.0972 -0.1614 -0.2661
  214POPC   C4B 2941   1.247   9.454   6.232  0.0970 -0.0010 -0.3066
  215POPC   NC3 2942   8.730   6.118   4.092 -0.0222 -0.0523 -0.1088
  215POPC   PO4 2943   8.514   5.672   4.070 -0.1499 -0.2566 -0.1621
  215POPC   GL1 2944   8.645   5.746   4.381  0.1332 -0.1623 -0.3849
  215POPC   GL2 2945   8.330   5.666   4.593 -0.1805 -0.0076  0.0209
  215POPC   C1A 2946   8.856   5.514   4.623 -0.2121  0.1916  0.2134
  215POPC   D2A 2947   9.081   5.465   4.979  0.1242 -0.1573  0.3615
  215POPC   C3A 2948   9.364   5.092   4.998 -0.0679  0.3592  0.1072
  215POPC   C4A 2949   9.622   4.938   5.451  0.1968 -0.2149  0.0154
  215POPC   C1B 2950   8.486   5.570   5.048  0.1445 -0.3394 -0.0306
  215POPC   C2B 2951   8.665   5.444   5.386 -0.1430 -0.2719  0.3176
  215POPC   C3B 2952   8.675   5.143   5.644  0.3249 -0.0770  0.5028
  215POPC   C4B 2953   8.567   4.757   5.722  0.1546  0.1289 -0.0206
  216POPC   NC3 2954   5.016   3.151   3.869 -0.0832  0.1121 -0.0780
  216POPC   PO4 2955   4.966   2.946   4.265 -0.2600  0.3264  0.0955
  216POPC   GL1 2956   5.069   2.713   4.664 -0.2682 -0.4359 -0.1738
  216POPC   GL2 2957   4.897   2.924   4.918 -0.0298 -0.0282  0.3136
  216POPC   C1A 2958   5.077   2.367   4.812 -0.2901 -0.0906 -0.1323
  216POPC   D2A 2959   4.842   1.926   4.979 -0.0481 -0.0768 -0.1289
  216POPC   C3A 2960   5.036   1.601   5.245  0.2798  0.2306  0.1821
  216POPC   C4A 2961   5.261   1.323   5.543 -0.2441 -0.2811  0.1371
  216POPC   C1B 2962   5.115   2.868   5.326  0.2088 -0.1244 -0.2828
  216POPC   C2B 2963   4.977   2.605   5.634 -0.0185 -0.1878  0.3075
  216POPC   C3B 2964   4.915   2.558   5.988  0.1729  0.0412 -0.0651
  216POPC   C4B 2965   4.881   2.171   6.296 -0.1896  0.1958 -0.0391
  217POPC   NC3 2966   9.321   2.502   4.494  0.3332 -0.4641  0.1329
  217POPC   PO4 2967   8.908   2.383   4.405  0.0235 -0.0339 -0.0020
  217POPC   GL1 2968   8.500   2.355   4.751  0.2268  0.2893  0.0481
  217POPC   GL2 2969   8.540   2.726   4.953 -0.2214  0.2063 -0.1522
  217POPC   C1A 2970   8.154   2.359   5.053 -0.1516 -0.5248  0.0044
  217POPC   D2A 2971   7.904   2.470   5.418  0.0957 -0.0854  0.2299
  217POPC   C3A 2972   7.479   2.558   5.664  0.0362  0.2332 -0.1194
  217POPC   C4A 2973   6.944   2.736   5.681  0.0862  0.0534 -0.0157
  217POPC   C1B 2974   8.610   2.400   5.221 -0.1638  0.2246 -0.1256
  217POPC   C2B 2975   8.303   2.255   5.521 -0.2331  0.0504  0.0386
  217POPC   C3B 2976   8.199   1.828   5.624  0.0367  0.1067  0.2690
  217POPC   C4B 2977   8.259   1.353   5.765 -0.0343 -0.4035 -0.1898
  218POPC   NC3 2978   6.883   0.934   4.377  0.2175 -0.3685 -0.0171
  218POPC   PO4 2979   6.671   1.417   4.087 -0.1117  0.1000 -0.1916
  218POPC   GL1 2980   6.659   1.472   4.501 -0.0809 -0.2965 -0.2807
  218POPC   GL2 2981   6.441   1.766   4.655 -0.0184  0.2070  0.1032
  218POPC   C1A 2982   6.726   1.280   4.919 -0.0306  0.1840 -0.0814
  218POPC   D2A 2983   6.893   1.300   5.367 -0.1023  0.3447  0.2356
  218POPC   C3A 2984   6.840   1.452   5.835  0.0000 -0.1159 -0.0143
  218POPC   C4A 2985   6.535   1.526   6.069 -0.0721  0.4057  0.1538
  218POPC   C1B 2986   6.426   1.638   5.141 -0.0330  0.1350 -0.2787
  218POPC   C2B 2987   6.716   1.830   5.434 -0.1355  0.1588 -0.0284
  218POPC   C3B 2988   6.624   1.979   5.844 -0.1414 -0.0663  0.0425
  218POPC   C4B 2989   6.641   2.133   6.215  0.2289 -0.2254 -0.3473
  219POPC   NC3 2990   4.759   5.719   4.130  0.0351 -0.1598  0.1360
  219POPC   PO4 2991   4.433   6.071   4.418  0.2719  0.2938  0.0507
  219POPC   GL1 2992   4.451   5.989   4.867  0.2001  0.1329  0.0450
  219POPC   GL2 2993   4.713   5.792   4.929  0.1731 -0.1105  0.2051
  219POPC   C1A 2994   4.562   6.263   5.234  0.2745  0.1556 -0.0052
  219POPC   D2A 2995   4.867   6.344   5.504 -0.2224 -0.2071 -0.4792
  219POPC   C3A 2996   4.942   6.166   5.876  0.0485 -0.0830 -0.0994
  219POPC   C4A 2997   5.061   5.839   6.105 -0.0817  0.1496  0.2617
  219POPC   C1B 2998   4.804   5.802   5.251  0.1323 -0.1807 -0.0071
  219POPC   C2B 2999   4.754   5.591   5.744 -0.0035  0.0810 -0.3159
  219POPC   C3B 3000   4.599   5.609   6.138  0.2277 -0.0415 -0.3007
  219POPC   C4B 3001   4.584   6.014   6.253  0.0376  0.1098  0.2465
  220POPC   NC3 3002   5.842   7.128   4.352  0.3160 -0.0994  0.1485
  220POPC   PO4 3003   5.483   7.052   4.469  0.1957 -0.2144  0.4934
  220POPC   GL1 3004   5.321   6.890   4.934  0.1323  0.0655  0.0047
  220POPC   GL2 3005   5.428   6.587   5.077  0.0602 -0.1636 -0.0908
  220POPC   C1A 3006   5.019   6.762   5.272 -0.0530 -0.0864 -0.3999
  220POPC   D2A 3007   4.877   6.896   5.709 -0.0164  0.0585 -0.0412
  220POPC   C3A 3008   4.414   6.911   5.791  0.1528 -0.4223  0.3225
  220POPC   C4A 3009   3.936   6.858   5.970 -0.1179  0.0802 -0.3026
  220POPC   C1B 3010   5.383   6.539   5.485  0.2030  0.1215 -0.2837
  220POPC   C2B 3011   5.321   6.605   5.965  0.0053 -0.1948  0.1181
  220POPC   C3B 3012   5.273   6.681   6.330 -0.0605 -0.1744  0.0517
  220POPC   C4B 3013   5.160   6.515   6.859  0.0621  0.1859 -0.0513
  221POPC   NC3 3014   0.393   3.090   4.337 -0.0384 -0.1037 -0.0211
  221POPC   PO4 3015   0.803   2.932   4.289  0.1160  0.0689 -0.0778
  221POPC   GL1 3016   0.716   2.963   4.738 -0.3573 -0.1508 -0.0304
  221POPC   GL2 3017   0.555   2.732   4.688  0.0553 -0.2706  0.0175
  221POPC   C1A 3018   0.402   3.111   5.074 -0.0638 -0.0442 -0.1519
  221POPC   D2A 3019   0.260   2.880   5.459  0.0667  0.1362  0.0290
  221POPC   C3A 3020   0.366   3.212   5.847 -0.1949  0.2022  0.1210
  221POPC   C4A 3021   0.504   3.471   6.168 -0.2286  0.3634  0.0137
  221POPC   C1B 3022   0.287   2.632   5.076 -0.2861  0.0552  0.0009
  221POPC   C2B 3023   0.294   2.300   5.385  0.3549  0.0418  0.1167
  221POPC   C3B 3024   0.069   2.444   5.708  0.0631  0.0438 -0.1308
  221POPC   C4B 3025  -0.120   2.366   6.058 -0.0466 -0.4507 -0.1081
  222POPC   NC3 3026   0.960   0.535   4.418  0.2434 -0.2975 -0.2545
  222POPC   PO4 3027   1.188   0.828   4.323 -0.2252  0.0943 -0.0293
  222POPC   GL1 3028   1.272   0.738   4.777 -0.0942 -0.0210 -0.0734
  222POPC   GL2 3029   1.339   0.976   4.928 -0.2827  0.0329 -0.2201
  222POPC   C1A 3030   1.244   0.638   5.314  0.2214  0.3386 -0.1645
  222POPC   D2A 3031   0.921   0.376   5.526  0.1303 -0.4247  0.4717
  222POPC   C3A 3032   1.061   0.337   5.994  0.3826 -0.0535  0.0479
  222POPC   C4A 3033   0.912   0.066   6.309  0.3584  0.1316 -0.4405
  222POPC   C1B 3034   1.380   1.333   5.270 -0.2552 -0.1483 -0.1240
  222POPC   C2B 3035   1.021   1.557   5.481 -0.1337 -0.0343 -0.1746
  222POPC   C3B 3036   0.735   1.440   5.635 -0.2637  0.0748  0.0834
  222POPC   C4B 3037   0.675   1.176   6.010 -0.1271  0.1703  0.0443
  223POPC   NC3 3038   2.963   0.357   4.303 -0.2180 -0.1297 -0.2339
  223POPC   PO4 3039   3.346   0.178   4.379 -0.0157  0.0454  0.0420
  223POPC   GL1 3040   3.406   0.010   4.767 -0.0659  0.1827 -0.3426
  223POPC   GL2 3041   3.567   0.279   4.920  0.1518  0.0359 -0.0950
  223POPC   C1A 3042   3.169  -0.138   5.042 -0.0508  0.0009 -0.2500
  223POPC   D2A 3043   3.014  -0.076   5.442  0.0638 -0.2228 -0.0989
  223POPC   C3A 3044   3.101  -0.366   5.770  0.6107  0.3089 -0.1955
  223POPC   C4A 3045   3.083  -0.723   5.811  0.0353 -0.2741 -0.1445
  223POPC   C1B 3046   3.575   0.178   5.289 -0.0381 -0.1949  0.0656
  223POPC   C2B 3047   3.565   0.142   5.705  0.3879  0.1779  0.1758
  223POPC   C3B 3048   3.533   0.041   6.113  0.1658 -0.1169  0.1017
  223POPC   C4B 3049   3.370   0.336   6.497 -0.0802  0.1149  0.0904
  224POPC   NC3 3050   4.890   1.045   4.266 -0.0668  0.1514 -0.2727
  224POPC   PO4 3051   4.490   1.190   4.192  0.3261  0.5675 -0.2343
  224POPC   GL1 3052   4.505   1.128   4.688  0.2024  0.0675 -0.0635
  224POPC   GL2 3053   4.264   1.143   4.880 -0.2708  0.0086  0.1909
  224POPC   C1A 3054   4.819   1.189   5.042  0.2256  0.0912 -0.1237
  224POPC   D2A 3055   4.925   1.014   5.416 -0.3561 -0.0786 -0.0265
  224POPC   C3A 3056   4.991   1.027   5.954 -0.1219  0.1228  0.1737
  224POPC   C4A 3057   4.986   1.378   6.234  0.1236  0.2791 -0.0123
  224POPC   C1B 3058   4.432   0.980   5.251  0.0444  0.2322 -0.2405
  224POPC   C2B 3059   4.572   0.748   5.694  0.4074  0.0628 -0.0011
  224POPC   C3B 3060   4.624   0.553   6.046 -0.2350 -0.0889 -0.0992
  224POPC   C4B 3061   4.871   0.455   6.317 -0.1017 -0.0444  0.0440
  225POPC   NC3 3062   1.635   1.298   4.421  0.0192  0.0923  0.1292
  225POPC   PO4 3063   1.431   1.697   4.371 -0.1241 -0.1742  0.2726
  225POPC   GL1 3064   1.708   1.816   4.694  0.1380 -0.1132  0.0020
  225POPC   GL2 3065   1.533   1.513   4.841 -0.0604  0.2407 -0.2438
  225POPC   C1A 3066   1.926   2.120   5.045  0.0993  0.1723 -0.0214
  225POPC   D2A 3067   1.909   1.971   5.427  0.2114  0.2963  0.0991
  225POPC   C3A 3068   1.817   2.070   5.816  0.0846  0.0586  0.1566
  225POPC   C4A 3069   1.523   1.782   6.010 -0.1115  0.0960  0.3655
  225POPC   C1B 3070   1.498   1.837   5.121 -0.2395  0.1050  0.0295
  225POPC   C2B 3071   1.372   1.928   5.539  0.2462  0.0831  0.0529
  225POPC   C3B 3072   1.035   1.937   5.853  0.0592 -0.1502  0.1350
  225POPC   C4B 3073   0.677   1.819   5.988 -0.2702  0.3209 -0.0565
  226POPC   NC3 3074   4.695   8.734   4.212 -0.3909  0.1525  0.2679
  226POPC   PO4 3075   4.684   9.024   4.398  0.4420 -0.1249  0.2071
  226POPC   GL1 3076   4.768   9.190   4.815  0.0611  0.1914 -0.0003
  226POPC   GL2 3077   4.717   8.883   5.025 -0.2162  0.2007 -0.0718
  226POPC   C1A 3078   4.933   9.434   5.178  0.0196 -0.0424  0.1564
  226POPC   D2A 3079   4.921   9.581   5.570  0.1732  0.0899 -0.1366
  226POPC   C3A 3080   4.997   9.368   5.892  0.1729 -0.2542  0.0922
  226POPC   C4A 3081   4.813   9.072   6.205 -0.0737  0.0888  0.3014
  226POPC   C1B 3082   4.809   8.605   5.240 -0.1166 -0.0617  0.0858
  226POPC   C2B 3083   4.816   8.459   5.655  0.2116 -0.1590  0.1371
  226POPC   C3B 3084   4.488   8.824   5.859 -0.0307  0.3154 -0.2935
  226POPC   C4B 3085   4.377   9.351   5.888  0.1035 -0.0019 -0.0654
  227POPC   NC3 3086   8.928   2.849   4.125 -0.0274 -0.2643 -0.1215
  227POPC   PO4 3087   8.836   2.894   4.565  0.1069  0.0207 -0.4536
  227POPC   GL1 3088   8.936   3.205   4.952  0.0559  0.1756 -0.1651
  227POPC   GL2 3089   9.282   3.319   4.854 -0.0178  0.1946 -0.0295
  227POPC   C1A 3090   8.921   3.453   5.312 -0.1065  0.2832 -0.1056
  227POPC   D2A 3091   8.921   3.791   5.608  0.3491  0.2805 -0.1857
  227POPC   C3A 3092   8.996   3.890   6.080 -0.1858 -0.1134  0.0075
  227POPC   C4A 3093   9.216   3.808   6.436 -0.0493 -0.0612  0.0477
  227POPC   C1B 3094   9.372   3.235   5.363 -0.0379  0.2510 -0.2570
  227POPC   C2B 3095   9.120   3.312   5.749 -0.2092  0.3753  0.0150
  227POPC   C3B 3096   8.864   3.432   6.031  0.0873 -0.0411 -0.0719
  227POPC   C4B 3097   8.473   3.838   6.071  0.4599  0.2024  0.1387
  228POPC   NC3 3098   2.940   6.901   3.362  0.0273  0.2838 -0.0442
  228POPC   PO4 3099   2.889   7.078   3.820 -0.0368 -0.2699 -0.2579
  228POPC   GL1 3100   2.672   7.089   4.127 -0.0903 -0.1446 -0.2995
  228POPC   GL2 3101   2.950   7.275   4.296 -0.0509  0.0930 -0.0226
  228POPC   C1A 3102   2.415   7.053   4.450 -0.0485 -0.5749  0.1576
  228POPC   D2A 3103   2.093   6.907   4.656 -0.0157  0.2353  0.0949
  228POPC   C3A 3104   2.047   7.151   5.060 -0.2026  0.3010 -0.0866
  228POPC   C4A 3105   2.249   7.480   5.326  0.0177  0.0303 -0.0987
  228POPC   C1B 3106   2.852   6.982   4.706  0.2089  0.2572  0.3879
  228POPC   C2B 3107   2.686   6.587   4.949 -0.0809 -0.0679  0.1988
  228POPC   C3B 3108   2.268   6.617   5.071 -0.1316 -0.0828  0.2405
  228POPC   C4B 3109   2.111   6.365   5.322  0.4885 -0.1361  0.1800
  229POPC   NC3 3110   5.666   3.197   4.150 -0.3082 -0.1780  0.2114
  229POPC   PO4 3111   5.228   3.420   4.279  0.0643  0.0712 -0.0735
  229POPC   GL1 3112   5.278   3.185   4.666  0.1835 -0.0826  0.2597
  229POPC   GL2 3113   4.985   3.395   4.818  0.0848  0.0143  0.0668
  229POPC   C1A 3114   5.364   3.254   5.126  0.0550 -0.0722  0.3777
  229POPC   D2A 3115   5.310   3.489   5.486 -0.0974  0.0105 -0.1739
  229POPC   C3A 3116   5.219   3.115   5.788 -0.0605  0.1339  0.0654
  229POPC   C4A 3117   5.216   2.926   6.148 -0.0210 -0.0877 -0.0564
  229POPC   C1B 3118   4.858   3.508   5.144 -0.1334  0.0924  0.2016
  229POPC   C2B 3119   4.751   3.506   5.590  0.2063 -0.0836 -0.4567
  229POPC   C3B 3120   4.586   3.724   5.915  0.0584 -0.0856 -0.2976
  229POPC   C4B 3121   4.379   3.981   6.093 -0.0182 -0.4053  0.2787
  230POPC   NC3 3122   6.972   8.010   4.605 -0.1719 -0.1665 -0.0717
  230POPC   PO4 3123   6.722   8.044   4.483  0.1669  0.1678  0.0635
  230POPC   GL1 3124   6.688   7.851   4.937 -0.1746  0.0815 -0.1905
  230POPC   GL2 3125   6.454   7.715   5.080  0.1527  0.3505 -0.0211
  230POPC   C1A 3126   6.916   7.747   5.271 -0.0028  0.2319 -0.0600
  230POPC   D2A 3127   7.060   7.813   5.802 -0.0187 -0.2952  0.0232
  230POPC   C3A 3128   6.842   7.858   6.136  0.0761 -0.0621  0.1154
  230POPC   C4A 3129   6.682   7.623   6.466 -0.0893  0.0501  0.0868
  230POPC   C1B 3130   6.034   7.777   5.474 -0.1700 -0.1774  0.1012
  230POPC   C2B 3131   6.010   7.902   5.892 -0.1652 -0.1591  0.1585
  230POPC   C3B 3132   5.921   8.253   6.220  0.1396 -0.0195  0.1304
  230POPC   C4B 3133   6.149   8.427   6.561 -0.1994 -0.0391  0.1967
  231POPC   NC3 3134   2.925   5.961   3.277 -0.0461 -0.1459 -0.1085
  231POPC   PO4 3135   2.772   6.380   3.497 -0.2596 -0.2154 -0.1997
  231POPC   GL1 3136   2.599   6.357   3.936  0.2871  0.1966  0.1223
  231POPC   GL2 3137   2.625   6.101   4.123  0.0184  0.1138  0.3892
  231POPC   C1A 3138   2.285   6.535   4.232 -0.0156  0.1248  0.1040
  231POPC   D2A 3139   2.284   6.366   4.648 -0.0235  0.0147 -0.0487
  231POPC   C3A 3140   2.531   6.160   5.046  0.0531  0.0788  0.0895
  231POPC   C4A 3141   2.406   6.003   5.438 -0.2931 -0.0914 -0.2694
  231POPC   C1B 3142   2.729   5.988   4.505 -0.1165 -0.1899 -0.2716
  231POPC   C2B 3143   2.766   5.744   4.854 -0.0129 -0.0273  0.4025
  231POPC   C3B 3144   2.842   5.787   5.239 -0.0693 -0.2213  0.0747
  231POPC   C4B 3145   2.665   5.621   5.630  0.2004  0.1101 -0.2408
  232POPC   NC3 3146   2.041   2.682   4.292  0.0917 -0.1254  0.0845
  232POPC   PO4 3147   1.655   2.499   4.053  0.4094  0.0423  0.0984
  232POPC   GL1 3148   1.508   2.442   4.498 -0.1534  0.0601 -0.2318
  232POPC   GL2 3149   1.896   2.420   4.666  0.2156 -0.0513 -0.1232
  232POPC   C1A 3150   1.417   2.347   4.895  0.2711  0.2178  0.0357
  232POPC   D2A 3151   1.204   2.503   5.121 -0.1355  0.0747  0.2280
  232POPC   C3A 3152   1.231   2.390   5.526  0.1688  0.3911 -0.0551
  232POPC   C4A 3153   1.385   2.293   5.916  0.2958 -0.0616  0.2483
  232POPC   C1B 3154   1.766   2.621   5.159  0.5056  0.2450  0.2588
  232POPC   C2B 3155   1.733   2.519   5.615 -0.0869 -0.0873 -0.3240
  232POPC   C3B 3156   1.685   2.586   6.089  0.0298  0.0326  0.4309
  232POPC   C4B 3157   1.972   2.738   6.426  0.2086  0.2725 -0.4282
  233POPC   NC3 3158   3.114   4.975   4.273 -0.2561 -0.0206  0.0409
  233POPC   PO4 3159   3.322   4.910   4.725 -0.1060 -0.2931  0.0711
  233POPC   GL1 3160   3.334   4.952   5.159  0.0915 -0.1424  0.1314
  233POPC   GL2 3161   3.571   4.776   5.338  0.0948 -0.1201  0.2226
  233POPC   C1A 3162   3.226   4.930   5.728  0.3091  0.1795  0.1659
  233POPC   D2A 3163   3.368   4.970   6.093 -0.0326 -0.2108 -0.2731
  233POPC   C3A 3164   3.148   5.393   6.480  0.0657  0.2817  0.2057
  233POPC   C4A 3165   3.141   5.724   6.780 -0.0765 -0.0887  0.0781
  233POPC   C1B 3166   3.617   4.669   5.711 -0.0974 -0.0614 -0.2448
  233POPC   C2B 3167   3.434   4.434   5.993 -0.2780  0.0172 -0.0619
  233POPC   C3B 3168   3.024   4.485   5.885  0.0028 -0.1681 -0.0291
  233POPC   C4B 3169   2.729   4.351   5.546 -0.0113  0.0037 -0.0449
  234POPC   NC3 3170   7.139   7.077   4.503  0.0627  0.1626 -0.1961
  234POPC   PO4 3171   6.706   7.167   4.444  0.5109 -0.1867  0.0632
  234POPC   GL1 3172   6.838   7.388   4.795 -0.1929  0.3246 -0.4217
  234POPC   GL2 3173   7.173   7.543   4.783  0.0673  0.2880  0.1914
  234POPC   C1A 3174   6.676   7.303   5.155 -0.0894  0.0164  0.0490
  234POPC   D2A 3175   6.615   7.190   5.606  0.0006  0.4668  0.2021
  234POPC   C3A 3176   6.656   6.642   5.819  0.1542  0.0520 -0.0465
  234POPC   C4A 3177   6.567   6.128   5.797  0.1983 -0.1551  0.0261
  234POPC   C1B 3178   7.227   7.385   5.127  0.2050 -0.1242  0.3079
  234POPC   C2B 3179   7.058   7.377   5.527  0.2444 -0.0485  0.2782
  234POPC   C3B 3180   6.989   7.328   5.994 -0.2191 -0.0488  0.0658
  234POPC   C4B 3181   6.761   7.152   6.267  0.0661  0.2402 -0.5148
  235POPC   NC3 3182   7.707   3.519   4.416  0.1293 -0.0342  0.1912
  235POPC   PO4 3183   7.844   3.168   4.656  0.0570  0.1127 -0.1385
  235POPC   GL1 3184   7.973   2.968   4.986 -0.2911  0.2452 -0.2884
  235POPC   GL2 3185   7.745   2.738   5.019 -0.0137 -0.0830 -0.1726
  235POPC   C1A 3186   8.288   2.898   5.359 -0.2252  0.2869  0.2742
  235POPC   D2A 3187   8.073   2.860   5.706  0.1326  0.2029  0.0283
  235POPC   C3A 3188   8.155   2.505   5.912  0.1780 -0.2739  0.0883
  235POPC   C4A 3189   8.119   2.080   6.096 -0.0768  0.0929 -0.0632
  235POPC   C1B 3190   7.660   3.010   5.376  0.0216 -0.0540 -0.1180
  235POPC   C2B 3191   7.392   3.123   5.712  0.2178  0.2979  0.0337
  235POPC   C3B 3192   7.292   3.471   5.971  0.0934  0.0625 -0.0235
  235POPC   C4B 3193   7.054   3.585   6.255 -0.0223 -0.1566  0.0737
  236POPC   NC3 3194   8.492   3.970   4.541 -0.3387 -0.2829 -0.1196
  236POPC   PO4 3195   8.276   4.327   4.440  0.0593 -0.2300  0.2436
  236POPC   GL1 3196   8.469   4.349   4.868 -0.0386 -0.0694  0.1793
  236POPC   GL2 3197   8.187   4.602   4.951  0.0215  0.0014 -0.1034
  236POPC   C1A 3198   8.417   4.384   5.305  0.1312 -0.1348  0.3326
  236POPC   D2A 3199   8.571   4.198   5.642 -0.2329 -0.1450  0.1970
  236POPC   C3A 3200   8.584   4.362   6.036  0.0897  0.0226  0.1351
  236POPC   C4A 3201   8.309   4.564   6.277 -0.0569  0.0666  0.1540
  236POPC   C1B 3202   7.923   4.369   5.363 -0.0328  0.0287  0.0530
  236POPC   C2B 3203   7.689   4.402   5.699  0.2768 -0.1577 -0.0411
  236POPC   C3B 3204   7.685   4.301   6.211  0.2792 -0.1300  0.0528
  236POPC   C4B 3205   7.446   4.531   6.421  0.0694 -0.0557 -0.1389
  237POPC   NC3 3206   3.158   3.681   4.522  0.0333 -0.1182 -0.0814
  237POPC   PO4 3207   3.567   3.460   4.442  0.0927 -0.0780  0.1081
  237POPC   GL1 3208   3.559   3.584   4.809 -0.1418  0.1126  0.2229
  237POPC   GL2 3209   3.849   3.430   4.944  0.1081 -0.2639  0.0730
  237POPC   C1A 3210   3.495   3.385   5.266 -0.3287 -0.0711 -0.0374
  237POPC   D2A 3211   3.569   3.712   5.709  0.0995 -0.0689  0.1435
  237POPC   C3A 3212   3.513   4.211   5.592  0.0284 -0.1819 -0.2793
  237POPC   C4A 3213   3.187   4.429   5.412 -0.2817  0.3040  0.1327
  237POPC   C1B 3214   3.871   3.062   5.096 -0.0932 -0.1548  0.2976
  237POPC   C2B 3215   3.723   2.824   5.441  0.0064 -0.2016  0.3512
  237POPC   C3B 3216   3.667   2.641   5.809  0.0426  0.1987 -0.0012
  237POPC   C4B 3217   3.585   2.972   6.164  0.0779  0.0004 -0.0102
  238POPC   NC3 3218   5.237   4.602   3.834  0.0211 -0.0683  0.0397
  238POPC   PO4 3219   5.415   4.179   3.864 -0.0760 -0.1131 -0.3165
  238POPC   GL1 3220   5.507   3.956   4.341  0.1803  0.0736  0.0829
  238POPC   GL2 3221   5.405   4.002   4.649  0.1028  0.1379 -0.5154
  238POPC   C1A 3222   5.803   3.730   4.641  0.1364  0.1120  0.0084
  238POPC   D2A 3223   5.874   3.288   4.662  0.0978  0.1248  0.2774
  238POPC   C3A 3224   5.944   2.977   5.013 -0.2287  0.0548 -0.0298
  238POPC   C4A 3225   5.927   3.051   5.512  0.0384 -0.2923 -0.3501
  238POPC   C1B 3226   5.333   3.815   5.041  0.3746 -0.3634 -0.1918
  238POPC   C2B 3227   5.618   3.919   5.483 -0.2759  0.0802 -0.2439
  238POPC   C3B 3228   5.554   3.892   5.883  0.0456  0.0067  0.4601
  238POPC   C4B 3229   5.492   3.819   6.316 -0.2254  0.2369  0.2394
  239POPC   NC3 3230   2.195   9.496   4.001  0.5124 -0.1777  0.2273
  239POPC   PO4 3231   1.892   9.158   4.060 -0.1698 -0.1597  0.2151
  239POPC   GL1 3232   1.681   8.727   4.193 -0.0617 -0.1103  0.1204
  239POPC   GL2 3233   1.501   8.868   4.433  0.0600  0.0310 -0.2913
  239POPC   C1A 3234   1.368   8.435   4.411  0.0946  0.2215  0.0826
  239POPC   D2A 3235   1.191   8.031   4.607  0.1424 -0.2300  0.2052
  239POPC   C3A 3236   0.767   8.141   4.798  0.0192 -0.0792  0.0655
  239POPC   C4A 3237   0.572   8.063   5.102  0.1469  0.3249  0.1210
  239POPC   C1B 3238   1.447   9.149   4.728  0.3625 -0.0315 -0.0595
  239POPC   C2B 3239   1.030   9.274   4.834 -0.5674 -0.0209 -0.1588
  239POPC   C3B 3240   0.777   9.672   5.023 -0.2624  0.0933  0.2536
  239POPC   C4B 3241   0.477   9.945   5.243  0.2005  0.2212 -0.2488
  240POPC   NC3 3242   6.932   5.064   4.347 -0.3083 -0.1712  0.0371
  240POPC   PO4 3243   7.220   5.383   4.425  0.2683  0.2552 -0.0087
  240POPC   GL1 3244   7.210   5.341   4.860  0.1206 -0.0364 -0.0027
  240POPC   GL2 3245   6.913   5.136   4.964 -0.1697 -0.0175  0.1683
  240POPC   C1A 3246   7.475   5.303   5.241  0.0090 -0.2235 -0.1567
  240POPC   D2A 3247   7.532   5.382   5.664  0.1639  0.0160  0.1327
  240POPC   C3A 3248   7.410   5.312   6.039 -0.0757 -0.0973 -0.0178
  240POPC   C4A 3249   7.261   4.974   6.296 -0.0338 -0.0192 -0.3054
  240POPC   C1B 3250   7.015   5.342   5.401 -0.0586  0.0577  0.0338
  240POPC   C2B 3251   7.107   5.663   5.765  0.0412 -0.0385 -0.0855
  240POPC   C3B 3252   7.100   5.980   6.170  0.1718 -0.2276 -0.3523
  240POPC   C4B 3253   7.186   5.814   6.481  0.1747 -0.2533 -0.3627
  241POPC   NC3 3254   5.524   1.833   3.929 -0.2499  0.1063  0.1502
  241POPC   PO4 3255   5.477   2.176   4.298 -0.1538  0.2651 -0.1901
  241POPC   GL1 3256   5.828   2.211   4.573 -0.3207 -0.1816 -0.4381
  241POPC   GL2 3257   6.125   2.110   4.607  0.0983  0.0572 -0.5521
  241POPC   C1A 3258   5.845   2.324   5.088 -0.2398 -0.1444 -0.5830
  241POPC   D2A 3259   6.143   2.572   5.361  0.0477 -0.0616  0.1685
  241POPC   C3A 3260   6.034   2.663   5.790  0.1389  0.0270 -0.1593
  241POPC   C4A 3261   5.750   2.830   6.148 -0.0880  0.0166  0.0023
  241POPC   C1B 3262   5.999   1.845   4.986  0.0939  0.2419  0.1921
  241POPC   C2B 3263   5.728   1.910   5.362  0.2340 -0.1304  0.1219
  241POPC   C3B 3264   5.338   1.811   5.620 -0.3204 -0.2101  0.1725
  241POPC   C4B 3265   5.221   2.215   5.848  0.0493 -0.0638 -0.2204
  242POPC   NC3 3266   5.756   9.675   4.676 -0.2542  0.0987  0.0551
  242POPC   PO4 3267   5.868  10.064   4.641  0.0139  0.0181 -0.2230
  242POPC   GL1 3268   6.039  10.219   5.019  0.1541 -0.4892  0.1519
  242POPC   GL2 3269   5.795  10.456   5.092 -0.1145 -0.0388  0.2774
  242POPC   C1A 3270   5.962  10.265   5.484  0.1410 -0.3045 -0.0270
  242POPC   D2A 3271   5.714  10.296   5.770  0.1949 -0.1350 -0.3081
  242POPC   C3A 3272   5.628  10.199   6.178 -0.0576  0.1729 -0.2252
  242POPC   C4A 3273   5.623   9.786   6.486  0.1496  0.2323  0.2163
  242POPC   C1B 3274   5.854  10.746   5.504  0.0191  0.1432  0.2862
  242POPC   C2B 3275   6.256  10.934   5.845 -0.0219 -0.0559  0.0242
  242POPC   C3B 3276   6.242  10.950   6.370 -0.0697  0.3634 -0.2884
  242POPC   C4B 3277   6.233  11.140   6.676  0.1339 -0.0386  0.0155
  243POPC   NC3 3278   7.321   4.789   4.418  0.1040  0.1273 -0.0303
  243POPC   PO4 3279   7.488   4.341   4.424 -0.1297 -0.6497  0.1349
  243POPC   GL1 3280   7.520   4.227   4.788 -0.1876  0.3405 -0.2824
  243POPC   GL2 3281   7.273   4.305   4.869 -0.1452 -0.1326  0.0202
  243POPC   C1A 3282   7.603   4.015   5.274 -0.5341 -0.4185 -0.2407
  243POPC   D2A 3283   7.546   3.905   5.656 -0.1757 -0.0527 -0.0978
  243POPC   C3A 3284   7.310   4.049   5.949 -0.1173 -0.0497  0.1282
  243POPC   C4A 3285   7.104   4.558   6.054  0.1182 -0.1374  0.0044
  243POPC   C1B 3286   7.140   3.936   5.110 -0.2254  0.0453 -0.0188
  243POPC   C2B 3287   7.086   3.742   5.611  0.1091  0.0652  0.3609
  243POPC   C3B 3288   6.774   3.930   6.017  0.0919 -0.0707  0.0134
  243POPC   C4B 3289   6.626   3.934   6.446  0.0375 -0.1876 -0.1101
  244POPC   NC3 3290   8.092   1.403   4.065 -0.2392  0.0819  0.0173
  244POPC   PO4 3291   7.734   1.092   4.132  0.0666  0.1707 -0.0424
  244POPC   GL1 3292   7.614   1.403   4.527 -0.1865  0.0147 -0.0367
  244POPC   GL2 3293   7.775   1.675   4.614 -0.0626 -0.0757 -0.3436
  244POPC   C1A 3294   7.863   1.328   4.877 -0.0790 -0.1939 -0.0139
  244POPC   D2A 3295   8.205   1.000   4.961  0.0088  0.2101  0.2654
  244POPC   C3A 3296   8.690   1.004   5.019  0.1922 -0.1684  0.1111
  244POPC   C4A 3297   9.119   0.974   4.775  0.0007 -0.2519 -0.0817
  244POPC   C1B 3298   7.469   1.725   4.829  0.2558  0.1563  0.1135
  244POPC   C2B 3299   7.332   1.666   5.273  0.3239  0.1271  0.2505
  244POPC   C3B 3300   7.309   1.648   5.746 -0.1438  0.3194  0.2193
  244POPC   C4B 3301   7.019   1.841   6.108  0.0260  0.1740  0.1533
  245POPC   NC3 3302   1.959   8.043   3.488 -0.2278 -0.1192  0.0750
  245POPC   PO4 3303   1.663   8.407   3.498 -0.0274  0.1574 -0.1818
  245POPC   GL1 3304   1.632   8.246   3.849 -0.0409 -0.0893  0.2763
  245POPC   GL2 3305   2.015   8.195   3.987 -0.1046 -0.2484 -0.0482
  245POPC   C1A 3306   1.575   7.877   4.146  0.1825 -0.0702  0.2729
  245POPC   D2A 3307   1.717   7.802   4.544 -0.0497 -0.2935  0.1443
  245POPC   C3A 3308   1.420   7.663   4.979  0.0986  0.0183 -0.2720
  245POPC   C4A 3309   1.257   7.563   5.478 -0.1852 -0.0096 -0.0278
  245POPC   C1B 3310   1.860   8.314   4.411 -0.2353 -0.1843 -0.1172
  245POPC   C2B 3311   1.781   8.513   4.662  0.1398  0.2697 -0.2590
  245POPC   C3B 3312   1.483   8.658   4.909  0.0013  0.0264 -0.2732
  245POPC   C4B 3313   1.237   8.976   5.205 -0.1265  0.1679 -0.1834
  246POPC   NC3 3314   4.947   7.136   3.961  0.0356 -0.1204  0.0767
  246POPC   PO4 3315   4.570   7.020   4.102 -0.1147  0.1787  0.0195
  246POPC   GL1 3316   4.673   7.017   4.533 -0.1592  0.0406 -0.1778
  246POPC   GL2 3317   4.969   7.160   4.630 -0.4066 -0.0487  0.1101
  246POPC   C1A 3318   4.552   7.266   4.884 -0.0654  0.0017 -0.1579
  246POPC   D2A 3319   4.216   7.577   4.847 -0.0403  0.3745 -0.1319
  246POPC   C3A 3320   3.906   7.574   5.186 -0.0502 -0.0958  0.0147
  246POPC   C4A 3321   3.798   7.738   5.610 -0.2114 -0.0556 -0.0714
  246POPC   C1B 3322   5.040   7.221   5.157  0.0232  0.0017  0.2200
  246POPC   C2B 3323   5.257   7.144   5.504  0.0445  0.1252 -0.3353
  246POPC   C3B 3324   5.354   7.102   5.917 -0.0527 -0.0319 -0.0352
  246POPC   C4B 3325   5.204   7.220   6.374 -0.0904 -0.0648  0.0221
  247POPC   NC3 3326   6.145   7.970   4.856 -0.2131  0.1454 -0.1580
  247POPC   PO4 3327   5.758   8.008   4.638  0.1925  0.2812 -0.3512
  247POPC   GL1 3328   5.605   8.055   5.076 -0.4019 -0.4784  0.1022
  247POPC   GL2 3329   5.642   8.284   5.266  0.0358 -0.1418  0.0087
  247POPC   C1A 3330   5.533   7.778   5.486 -0.0055  0.2741  0.2197
  247POPC   D2A 3331   5.290   7.640   5.856 -0.0923 -0.2506  0.0237
  247POPC   C3A 3332   4.903   7.424   5.837  0.0563 -0.1153  0.1540
  247POPC   C4A 3333   4.733   7.192   6.106 -0.2792 -0.0950  0.4578
  247POPC   C1B 3334   5.729   8.230   5.699 -0.1387 -0.1074  0.1416
  247POPC   C2B 3335   5.733   8.617   5.885  0.2612  0.1088 -0.0700
  247POPC   C3B 3336   5.536   9.039   6.019 -0.1079  0.2154  0.1903
  247POPC   C4B 3337   5.296   9.131   6.479  0.0274 -0.0732  0.0651
  248POPC   NC3 3338   4.802   9.599   4.443 -0.0701 -0.0649  0.0056
  248POPC   PO4 3339   4.924   9.975   4.594  0.0285  0.0631 -0.0611
  248POPC   GL1 3340   4.901  10.002   4.934  0.2860 -0.1058 -0.1746
  248POPC   GL2 3341   4.886  10.363   5.164  0.2257  0.0289 -0.0122
  248POPC   C1A 3342   4.648   9.871   5.186  0.0912  0.1568 -0.4105
  248POPC   D2A 3343   4.435   9.765   5.513 -0.5461  0.0846 -0.1901
  248POPC   C3A 3344   4.637   9.783   5.967 -0.0385 -0.1816  0.0900
  248POPC   C4A 3345   4.576   9.876   6.366  0.0122 -0.3301 -0.1452
  248POPC   C1B 3346   4.396  10.263   5.312 -0.1708 -0.1037  0.0286
  248POPC   C2B 3347   4.202  10.179   5.638 -0.3465 -0.0938 -0.1218
  248POPC   C3B 3348   4.056   9.854   5.930 -0.0640 -0.2817  0.1215
  248POPC   C4B 3349   4.090   9.615   6.213  0.3044 -0.2065 -0.1767
  249POPC   NC3 3350   5.905   3.918   4.031  0.2035 -0.3463 -0.3422
  249POPC   PO4 3351   6.298   3.611   3.946 -0.0252  0.2081 -0.0945
  249POPC   GL1 3352   6.504   3.623   4.369  0.0213  0.1792  0.0908
  249POPC   GL2 3353   6.455   3.468   4.593  0.3829 -0.0647 -0.2514
  249POPC   C1A 3354   6.295   3.910   4.760  0.1142  0.2789 -0.4390
  249POPC   D2A 3355   6.448   4.165   5.079  0.2638  0.3139 -0.3566
  249POPC   C3A 3356   6.737   4.253   5.322  0.0381  0.2658 -0.1455
  249POPC   C4A 3357   7.207   4.327   5.460 -0.2384 -0.0452 -0.1980
  249POPC   C1B 3358   6.260   3.505   4.978 -0.0485 -0.0259  0.1253
  249POPC   C2B 3359   5.842   3.462   5.194 -0.3196 -0.1386  0.3466
  249POPC   C3B 3360   5.824   3.486   5.710  0.0575  0.0228  0.1609
  249POPC   C4B 3361   6.023   3.736   6.110 -0.2129  0.1161 -0.2391
  250POPC   NC3 3362   9.249   7.340   2.987 -0.5854 -0.2113  0.1342
  250POPC   PO4 3363   9.340   7.363   3.483 -0.0006 -0.0861  0.2232
  250POPC   GL1 3364   9.526   7.387   3.861 -0.0720 -0.0450 -0.1468
  250POPC   GL2 3365   9.846   7.445   3.867  0.1427  0.2409  0.2283
  250POPC   C1A 3366   9.427   7.172   4.247 -0.1599 -0.2563 -0.1252
  250POPC   D2A 3367   9.128   7.116   4.520 -0.2610 -0.1057 -0.0007
  250POPC   C3A 3368   9.065   7.190   5.054  0.1223  0.2744  0.0130
  250POPC   C4A 3369   9.235   7.045   5.432  0.1672  0.2132 -0.2820
  250POPC   C1B 3370  10.199   7.690   4.158  0.2103 -0.0446  0.0757
  250POPC   C2B 3371  10.301   7.742   4.593  0.0919 -0.2467  0.0933
  250POPC   C3B 3372  10.664   7.689   4.987 -0.0570  0.2532  0.0131
  250POPC   C4B 3373  10.780   7.292   5.183 -0.4018  0.0820 -0.1408
  251POPC   NC3 3374   3.205   1.578   4.554 -0.0704  0.0221 -0.2785
  251POPC   PO4 3375   3.337   1.838   4.198  0.1048  0.4121  0.1111
  251POPC   GL1 3376   3.530   1.982   4.534 -0.1018 -0.1281 -0.0101
  251POPC   GL2 3377   3.379   2.313   4.654 -0.2735 -0.0885 -0.0835
  251POPC   C1A 3378   3.358   1.973   4.972  0.1740  0.3144  0.0535
  251POPC   D2A 3379   3.229   2.110   5.314  0.0184  0.1296 -0.0646
  251POPC   C3A 3380   3.355   1.879   5.618  0.3145 -0.1877  0.2440
  251POPC   C4A 3381   3.327   1.461   5.818  0.1045 -0.1428  0.2293
  251POPC   C1B 3382   3.673   2.502   5.059  0.0985  0.0909 -0.1188
  251POPC   C2B 3383   3.739   2.329   5.421  0.1187 -0.2819  0.0169
  251POPC   C3B 3384   3.864   2.163   5.763  0.1846  0.0147 -0.1332
  251POPC   C4B 3385   4.231   1.925   5.831  0.0900  0.3974 -0.3772
  252POPC   NC3 3386   1.824   4.590   3.548 -0.1663 -0.0471 -0.0347
  252POPC   PO4 3387   1.965   5.070   3.582 -0.0458  0.1510  0.1077
  252POPC   GL1 3388   1.949   5.313   3.967 -0.1134 -0.3277  0.3355
  252POPC   GL2 3389   2.237   5.251   4.199  0.2432 -0.1956  0.0001
  252POPC   C1A 3390   1.719   5.211   4.317  0.3805  0.2705  0.0573
  252POPC   D2A 3391   1.803   4.826   4.582  0.0452  0.2224  0.1709
  252POPC   C3A 3392   1.933   4.755   4.996  0.1547 -0.1337 -0.1156
  252POPC   C4A 3393   2.335   4.934   5.157 -0.1157  0.1497  0.1526
  252POPC   C1B 3394   2.006   5.557   4.464  0.1159  0.0838 -0.1555
  252POPC   C2B 3395   1.615   5.474   4.740 -0.0359  0.2998 -0.4385
  252POPC   C3B 3396   1.588   5.696   5.186  0.2625 -0.3011 -0.1615
  252POPC   C4B 3397   1.611   6.230   5.219 -0.0109  0.0818 -0.1117
  253POPC   NC3 3398   8.321   2.311   3.716 -0.3284 -0.1291 -0.1078
  253POPC   PO4 3399   7.989   2.438   4.123 -0.1628 -0.0136  0.3684
  253POPC   GL1 3400   8.027   2.236   4.599  0.1346  0.1210  0.1424
  253POPC   GL2 3401   8.316   1.905   4.748 -0.2530  0.2279  0.1362
  253POPC   C1A 3402   7.702   2.172   4.898  0.2827 -0.0745  0.0598
  253POPC   D2A 3403   7.594   2.048   5.284 -0.5065  0.0562  0.0319
  253POPC   C3A 3404   7.773   2.054   5.659 -0.0380  0.0964  0.1222
  253POPC   C4A 3405   7.565   2.048   6.027 -0.0143  0.0518 -0.2532
  253POPC   C1B 3406   8.012   1.773   5.063  0.1109 -0.2201 -0.1262
  253POPC   C2B 3407   7.779   1.478   5.376 -0.0669  0.2484  0.0066
  253POPC   C3B 3408   7.791   1.438   5.850 -0.1846 -0.1880  0.1048
  253POPC   C4B 3409   7.859   1.682   6.288  0.0853 -0.2098 -0.1155
  254POPC   NC3 3410   9.161   3.547   4.367  0.0719  0.2164 -0.0056
  254POPC   PO4 3411   8.941   3.984   4.383  0.0778 -0.0413  0.2168
  254POPC   GL1 3412   8.922   4.235   4.818  0.0511 -0.0988  0.1528
  254POPC   GL2 3413   8.876   4.598   4.930  0.2897 -0.2096 -0.1471
  254POPC   C1A 3414   8.933   4.246   5.282 -0.0274 -0.1075  0.2575
  254POPC   D2A 3415   8.980   4.499   5.576 -0.0332 -0.3914  0.0990
  254POPC   C3A 3416   9.171   4.444   5.962 -0.3781 -0.0525  0.3327
  254POPC   C4A 3417   9.108   4.359   6.321 -0.1017  0.1879 -0.2688
  254POPC   C1B 3418   8.942   4.944   5.276  0.0638  0.0625  0.4921
  254POPC   C2B 3419   9.138   4.962   5.718 -0.0566  0.1615  0.2495
  254POPC   C3B 3420   9.403   5.147   5.969  0.2522  0.3607 -0.4655
  254POPC   C4B 3421   9.703   5.286   5.814  0.2359 -0.1255  0.1332
  255POPC   NC3 3422   6.453   3.092   4.159  0.1020 -0.0986 -0.0133
  255POPC   PO4 3423   6.837   2.822   4.245  0.1977 -0.2090  0.3094
  255POPC   GL1 3424   6.674   2.857   4.624 -0.0105 -0.5398  0.2623
  255POPC   GL2 3425   6.456   3.037   4.825 -0.2399  0.3978  0.1293
  255POPC   C1A 3426   6.834   2.647   5.050 -0.1980  0.2883  0.0108
  255POPC   D2A 3427   6.739   2.352   5.420 -0.3731 -0.1872 -0.0383
  255POPC   C3A 3428   6.492   2.452   5.816  0.0938  0.0195  0.0237
  255POPC   C4A 3429   6.273   2.473   6.191 -0.2561 -0.0387  0.0410
  255POPC   C1B 3430   6.700   3.243   5.014 -0.0002  0.0998 -0.2265
  255POPC   C2B 3431   6.875   3.224   5.527  0.0850  0.0132 -0.1019
  255POPC   C3B 3432   6.917   3.145   6.034  0.0575 -0.2551 -0.1538
  255POPC   C4B 3433   7.054   3.094   6.420 -0.1152 -0.0121 -0.3313
  256POPC   NC3 3434   0.069   4.694   4.020 -0.2213 -0.1346  0.1481
  256POPC   PO4 3435  -0.092   4.429   4.283  0.4119 -0.3996  0.0553
  256POPC   GL1 3436  -0.023   4.347   4.666 -0.0346  0.0353 -0.0621
  256POPC   GL2 3437  -0.172   4.103   4.932 -0.0387 -0.1048  0.1298
  256POPC   C1A 3438   0.197   4.407   5.089 -0.1016 -0.2128  0.6602
  256POPC   D2A 3439   0.312   4.601   5.557 -0.2435  0.0382  0.2226
  256POPC   C3A 3440   0.288   4.949   5.917 -0.3099 -0.1458  0.1004
  256POPC   C4A 3441   0.094   5.162   6.295 -0.1548  0.1574  0.0506
  256POPC   C1B 3442   0.010   3.958   5.332 -0.3569  0.0891 -0.1868
  256POPC   C2B 3443   0.084   4.020   5.771  0.1169  0.1270  0.1276
  256POPC   C3B 3444   0.194   3.918   6.193 -0.0900  0.2341 -0.3036
  256POPC   C4B 3445   0.321   4.168   6.514  0.5315 -0.1019 -0.0822
  257POPC   NC3 3446   3.162   5.458   3.672  0.1734 -0.1995 -0.0554
  257POPC   PO4 3447   2.894   5.297   3.947 -0.4720 -0.5828  0.3073
  257POPC   GL1 3448   2.675   5.451   4.344  0.0463  0.2618 -0.0557
  257POPC   GL2 3449   2.951   5.320   4.582  0.0666  0.0784  0.2102
  257POPC   C1A 3450   2.424   5.374   4.685 -0.3883  0.2861  0.1283
  257POPC   D2A 3451   2.033   5.200   4.775  0.0648 -0.0499  0.0617
  257POPC   C3A 3452   1.959   5.289   5.121 -0.1538  0.2159  0.0801
  257POPC   C4A 3453   1.867   5.471   5.555 -0.1153 -0.3355 -0.1228
  257POPC   C1B 3454   3.143   5.443   5.035  0.0448  0.0211 -0.3874
  257POPC   C2B 3455   3.011   5.351   5.425  0.0423  0.3304  0.2981
  257POPC   C3B 3456   2.790   5.158   5.803 -0.0669 -0.0004 -0.1605
  257POPC   C4B 3457   2.813   5.139   6.265  0.1145  0.0729  0.3947
  258POPC   NC3 3458   5.434   8.534   4.937  0.2096  0.1053 -0.1217
  258POPC   PO4 3459   5.319   8.268   4.638 -0.3972  0.0884 -0.0043
  258POPC   GL1 3460   5.016   8.180   4.894  0.2824  0.0787 -0.2317
  258POPC   GL2 3461   5.140   8.207   5.235  0.1378  0.0427 -0.0401
  258POPC   C1A 3462   4.648   8.093   5.161 -0.0345  0.0628 -0.3348
  258POPC   D2A 3463   4.132   8.041   5.308  0.1269  0.0584 -0.2557
  258POPC   C3A 3464   3.910   8.263   5.573  0.3607  0.1298 -0.0772
  258POPC   C4A 3465   3.927   8.641   5.582  0.1742 -0.0390  0.1046
  258POPC   C1B 3466   5.257   8.234   5.694 -0.0748 -0.4498  0.1338
  258POPC   C2B 3467   5.379   8.106   6.067  0.1806 -0.1425 -0.2663
  258POPC   C3B 3468   5.390   8.204   6.409  0.1708 -0.1062  0.1573
  258POPC   C4B 3469   5.316   8.242   6.833 -0.0129 -0.1638 -0.0620
  259POPC   NC3 3470   3.737   5.616   4.272 -0.0469 -0.2800 -0.0730
  259POPC   PO4 3471   3.217   5.581   4.170 -0.0504  0.0065 -0.2506
  259POPC   GL1 3472   3.223   5.907   4.515  0.0866 -0.0079 -0.0747
  259POPC   GL2 3473   3.319   5.892   4.819  0.2517 -0.0285 -0.1621
  259POPC   C1A 3474   3.105   6.336   4.799 -0.0623  0.0196 -0.0053
  259POPC   D2A 3475   2.953   6.317   5.286 -0.1418  0.3035 -0.0154
  259POPC   C3A 3476   2.634   6.540   5.554  0.1666 -0.0472 -0.0010
  259POPC   C4A 3477   2.340   6.348   5.780 -0.0146 -0.1397  0.0226
  259POPC   C1B 3478   3.466   6.265   5.125  0.0702 -0.0484  0.1328
  259POPC   C2B 3479   3.417   6.354   5.592 -0.0540 -0.2361  0.0912
  259POPC   C3B 3480   3.342   6.424   6.038  0.1933 -0.0368 -0.2443
  259POPC   C4B 3481   3.217   6.458   6.458  0.1406  0.2571 -0.0949
  260POPC   NC3 3482   6.555   6.781   4.106 -0.0916  0.1798  0.3271
  260POPC   PO4 3483   6.180   6.742   4.364  0.0990 -0.1308 -0.0741
  260POPC   GL1 3484   6.403   6.886   4.782  0.2187 -0.2777 -0.0800
  260POPC   GL2 3485   6.318   7.203   4.799 -0.0861  0.0573 -0.1707
  260POPC   C1A 3486   6.667   6.812   5.172 -0.4661  0.1256  0.0209
  260POPC   D2A 3487   7.016   6.768   5.491  0.3784 -0.3143 -0.0363
  260POPC   C3A 3488   6.963   6.362   5.580 -0.0610 -0.1130  0.0474
  260POPC   C4A 3489   6.997   6.005   5.439  0.0194 -0.0113 -0.1600
  260POPC   C1B 3490   6.171   7.163   5.171 -0.0744  0.3264  0.0545
  260POPC   C2B 3491   6.096   7.312   5.565  0.2848  0.1720 -0.0042
  260POPC   C3B 3492   5.734   7.443   5.819 -0.1836 -0.0280  0.1866
  260POPC   C4B 3493   5.582   7.516   6.188  0.0352 -0.1692 -0.0228
  261POPC   NC3 3494   6.062   9.165   4.048  0.0158  0.2817  0.2330
  261POPC   PO4 3495   6.027   8.854   4.361 -0.2537 -0.2203  0.0276
  261POPC   GL1 3496   5.872   9.075   4.815 -0.1207 -0.1875  0.0007
  261POPC   GL2 3497   5.816   8.853   5.021 -0.0821 -0.2331  0.1947
  261POPC   C1A 3498   5.975   9.344   5.228 -0.0279  0.2338  0.0114
  261POPC   D2A 3499   5.911   9.197   5.731 -0.1841 -0.0879  0.4268
  261POPC   C3A 3500   6.028   9.322   6.049 -0.4806  0.2128 -0.0145
  261POPC   C4A 3501   5.988   9.264   6.481 -0.4677 -0.1207  0.0303
  261POPC   C1B 3502   5.885   8.805   5.441  0.0872  0.5698  0.1450
  261POPC   C2B 3503   6.174   8.724   5.768  0.0338 -0.1133 -0.2019
  261POPC   C3B 3504   6.338   8.311   6.020 -0.3629  0.3127 -0.1009
  261POPC   C4B 3505   6.275   7.945   6.295  0.0889  0.2487  0.1833
  262POPC   NC3 3506   0.001   5.453   3.401  0.1085 -0.0667 -0.0231
  262POPC   PO4 3507   0.048   5.156   3.721 -0.1764 -0.1350 -0.0098
  262POPC   GL1 3508  -0.121   5.265   4.142 -0.0456  0.2726  0.3008
  262POPC   GL2 3509  -0.100   5.023   4.383  0.0930 -0.0948  0.0269
  262POPC   C1A 3510  -0.346   5.425   4.565 -0.0418 -0.0252 -0.0407
  262POPC   D2A 3511  -0.294   5.864   4.823 -0.1864  0.2618  0.0310
  262POPC   C3A 3512  -0.109   5.967   5.152 -0.1893 -0.0006  0.0379
  262POPC   C4A 3513  -0.099   6.290   5.274 -0.1848 -0.0138 -0.0772
  262POPC   C1B 3514   0.037   4.876   4.758 -0.2934 -0.1252  0.1877
  262POPC   C2B 3515   0.247   5.113   5.010 -0.1730 -0.2289 -0.1883
  262POPC   C3B 3516   0.284   5.136   5.465 -0.1498 -0.0531  0.0496
  262POPC   C4B 3517   0.398   5.465   5.768  0.1857 -0.0091  0.1916
  263POPC   NC3 3518   8.869   0.949   3.732 -0.0463 -0.0239  0.1432
  263POPC   PO4 3519   8.375   0.934   3.874  0.1699 -0.2666 -0.1113
  263POPC   GL1 3520   8.390   1.116   4.287  0.2095 -0.3998  0.0268
  263POPC   GL2 3521   8.234   1.233   4.530  0.2967 -0.0055 -0.3522
  263POPC   C1A 3522   8.750   1.359   4.523  0.2814  0.1212  0.3142
  263POPC   D2A 3523   8.895   1.474   4.959  0.2598  0.1105  0.3096
  263POPC   C3A 3524   9.118   1.176   5.217 -0.1137 -0.0047  0.0502
  263POPC   C4A 3525   9.595   1.111   5.254  0.1073  0.2431 -0.0541
  263POPC   C1B 3526   8.384   1.451   4.899  0.1479  0.2649  0.2704
  263POPC   C2B 3527   8.397   1.341   5.303 -0.2697  0.0507 -0.1124
  263POPC   C3B 3528   8.758   1.168   5.523 -0.1520  0.2202 -0.3090
  263POPC   C4B 3529   8.942   0.820   5.547 -0.2011 -0.2396 -0.1588
  264POPC   NC3 3530   3.425   7.701   3.856 -0.1950  0.0032  0.2601
  264POPC   PO4 3531   3.396   7.584   4.293  0.0640 -0.1857 -0.1123
  264POPC   GL1 3532   3.615   7.496   4.648 -0.2184 -0.0873  0.0415
  264POPC   GL2 3533   3.410   7.179   4.626 -0.0061 -0.0012  0.3928
  264POPC   C1A 3534   3.345   7.641   5.003  0.0260  0.0911 -0.2533
  264POPC   D2A 3535   3.011   7.890   5.142 -0.1147 -0.1834  0.0838
  264POPC   C3A 3536   2.803   8.072   5.600  0.1337  0.2109  0.1449
  264POPC   C4A 3537   2.584   8.022   5.826  0.1934  0.3625 -0.4449
  264POPC   C1B 3538   3.143   7.175   5.079  0.0471 -0.2684  0.2061
  264POPC   C2B 3539   2.843   7.426   5.343 -0.1009  0.1201  0.3349
  264POPC   C3B 3540   2.527   7.541   5.691 -0.2040  0.0168  0.0279
  264POPC   C4B 3541   2.531   7.579   6.176 -0.1191  0.0811 -0.1351
  265POPC   NC3 3542   4.304   9.682   4.252 -0.1083  0.0413  0.1523
  265POPC   PO4 3543   4.523   9.999   4.274 -0.0589 -0.1667  0.2095
  265POPC   GL1 3544   4.427   9.876   4.743 -0.2767 -0.0959 -0.2240
  265POPC   GL2 3545   4.454   9.542   4.774  0.0260 -0.0099 -0.1339
  265POPC   C1A 3546   4.140   9.862   5.039  0.0717 -0.1403 -0.1031
  265POPC   D2A 3547   4.008   9.592   5.354  0.0489  0.2411  0.1388
  265POPC   C3A 3548   3.843   9.480   5.743  0.0040 -0.1557  0.2493
  265POPC   C4A 3549   3.683   9.371   6.182  0.1257 -0.1388  0.0662
  265POPC   C1B 3550   4.428   9.350   5.202  0.5675  0.2227 -0.0606
  265POPC   C2B 3551   4.612   9.139   5.459 -0.1525 -0.2823  0.1017
  265POPC   C3B 3552   5.009   8.905   5.710 -0.2156  0.1059  0.0694
  265POPC   C4B 3553   5.193   8.590   6.048  0.2215  0.1852 -0.1815
  266POPC   NC3 3554   0.184   4.115   4.035  0.2107 -0.0584 -0.2104
  266POPC   PO4 3555   0.698   3.901   3.933 -0.0849  0.0463 -0.2150
  266POPC   GL1 3556   0.626   3.903   4.427  0.0963  0.1857 -0.0016
  266POPC   GL2 3557   0.505   3.522   4.693 -0.0191  0.0259 -0.1886
  266POPC   C1A 3558   0.788   3.869   4.822  0.0823 -0.1049 -0.2200
  266POPC   D2A 3559   0.998   3.830   5.325  0.1149  0.2234  0.1392
  266POPC   C3A 3560   1.215   3.488   5.311  0.3258  0.1764 -0.1528
  266POPC   C4A 3561   1.639   3.359   5.282  0.1065  0.1265  0.4850
  266POPC   C1B 3562   0.581   3.560   5.155  0.0447  0.2577 -0.1036
  266POPC   C2B 3563   0.557   3.710   5.636  0.2061 -0.0416  0.2125
  266POPC   C3B 3564   0.603   4.094   5.803 -0.1170  0.2344  0.2263
  266POPC   C4B 3565   0.355   4.428   6.029  0.2726  0.0792  0.0564
  267POPC   NC3 3566   1.637   0.900   4.025 -0.1884  0.1538 -0.2007
  267POPC   PO4 3567   1.645   0.754   4.472  0.0504 -0.2467  0.1910
  267POPC   GL1 3568   1.818   0.684   4.908  0.0383 -0.2484  0.2332
  267POPC   GL2 3569   1.874   1.113   4.818  0.2106 -0.2622 -0.2531
  267POPC   C1A 3570   1.711   0.489   5.221  0.0314  0.1934 -0.1477
  267POPC   D2A 3571   1.836   0.116   5.427 -0.1784 -0.1006 -0.3093
  267POPC   C3A 3572   2.075   0.246   5.744  0.1259 -0.0566 -0.2281
  267POPC   C4A 3573   2.230   0.581   5.885  0.0425 -0.1962  0.1994
  267POPC   C1B 3574   1.830   1.097   5.212 -0.1582  0.0255 -0.1790
  267POPC   C2B 3575   1.599   0.927   5.527 -0.0852  0.1661 -0.0974
  267POPC   C3B 3576   1.518   0.454   5.751 -0.0024 -0.1152 -0.1071
  267POPC   C4B 3577   1.515   0.086   6.021 -0.0381  0.0999 -0.0711
  268POPC   NC3 3578   0.710   3.465   4.139 -0.1258  0.0842 -0.0279
  268POPC   PO4 3579   1.090   3.370   4.134  0.0440  0.1665 -0.0392
  268POPC   GL1 3580   1.047   3.671   4.441 -0.0255 -0.1625  0.1175
  268POPC   GL2 3581   1.208   3.663   4.791  0.2365 -0.0077  0.1219
  268POPC   C1A 3582   1.177   4.090   4.622 -0.1377 -0.0713 -0.2718
  268POPC   D2A 3583   1.204   4.257   5.081 -0.2920  0.4906 -0.0760
  268POPC   C3A 3584   1.301   4.163   5.495 -0.0573 -0.1819 -0.0668
  268POPC   C4A 3585   1.116   3.981   5.856 -0.3000  0.0827  0.1070
  268POPC   C1B 3586   0.932   3.398   4.886 -0.2811 -0.0825 -0.0441
  268POPC   C2B 3587   0.895   3.064   5.197  0.0370  0.5751  0.0374
  268POPC   C3B 3588   0.837   3.256   5.663 -0.0432  0.0876  0.2166
  268POPC   C4B 3589   0.998   3.517   6.053  0.2085 -0.0775  0.1504
  269POPC   NC3 3590   5.169   0.553   4.402  0.1130 -0.0892 -0.2763
  269POPC   PO4 3591   4.907   0.739   4.675  0.0896 -0.0837  0.0737
  269POPC   GL1 3592   5.150   0.997   4.712  0.2890 -0.1248  0.0721
  269POPC   GL2 3593   5.520   0.862   4.705  0.0469  0.2097 -0.0021
  269POPC   C1A 3594   5.320   1.306   4.937  0.0116 -0.2140 -0.0112
  269POPC   D2A 3595   5.782   1.167   5.026  0.0540 -0.0617 -0.0627
  269POPC   C3A 3596   5.975   1.399   5.292 -0.0193  0.1347 -0.0476
  269POPC   C4A 3597   6.324   1.608   5.657  0.1829 -0.1750  0.2681
  269POPC   C1B 3598   5.390   0.878   5.173  0.4088  0.2412 -0.1310
  269POPC   C2B 3599   5.426   0.860   5.625  0.1145  0.1575 -0.0809
  269POPC   C3B 3600   5.495   0.908   6.111 -0.2309  0.1091  0.0425
  269POPC   C4B 3601   5.304   0.784   6.391 -0.1575 -0.0701 -0.0142
  270POPC   NC3 3602   0.352   1.503   4.070  0.0428 -0.1512  0.0332
  270POPC   PO4 3603  -0.148   1.672   4.176 -0.0569  0.2596  0.2236
  270POPC   GL1 3604   0.038   1.594   4.582  0.0102 -0.0417  0.3496
  270POPC   GL2 3605  -0.071   1.882   4.689 -0.1711  0.1298 -0.1181
  270POPC   C1A 3606   0.070   1.452   5.029  0.4725  0.0884 -0.1245
  270POPC   D2A 3607   0.002   1.524   5.483  0.0940  0.1965 -0.0032
  270POPC   C3A 3608   0.320   1.464   5.858 -0.0500  0.0387 -0.1918
  270POPC   C4A 3609   0.101   1.366   6.238  0.1668 -0.0655 -0.0287
  270POPC   C1B 3610   0.010   1.940   5.178  0.2641  0.1573  0.3234
  270POPC   C2B 3611  -0.212   2.126   5.477 -0.1862  0.5176  0.0766
  270POPC   C3B 3612  -0.557   2.198   5.794  0.1122  0.2769 -0.0047
  270POPC   C4B 3613  -1.010   2.112   5.781  0.1127 -0.2869 -0.1906
  271POPC   NC3 3614   7.424   5.793   4.284  0.2156  0.0799  0.1575
  271POPC   PO4 3615   7.810   5.643   4.377 -0.1675  0.1484 -0.2551
  271POPC   GL1 3616   7.884   5.545   4.829 -0.2630  0.1610 -0.2885
  271POPC   GL2 3617   7.543   5.696   4.790  0.0111 -0.0028  0.1018
  271POPC   C1A 3618   7.929   5.517   5.244 -0.3521  0.0115  0.1619
  271POPC   D2A 3619   8.212   5.343   5.562 -0.0734 -0.2190  0.1740
  271POPC   C3A 3620   8.256   5.095   5.956 -0.0304 -0.0773 -0.0116
  271POPC   C4A 3621   8.462   5.010   6.418 -0.3619 -0.2015  0.0756
  271POPC   C1B 3622   7.444   5.829   5.240  0.0883  0.1923  0.1712
  271POPC   C2B 3623   7.498   5.942   5.686 -0.0305  0.0576  0.1349
  271POPC   C3B 3624   7.394   6.315   5.935 -0.0198 -0.2693 -0.2539
  271POPC   C4B 3625   7.108   6.587   6.242  0.0538 -0.0708  0.1379
  272POPC   NC3 3626   8.628   3.668   4.152 -0.0823 -0.2166  0.1878
  272POPC   PO4 3627   8.228   3.516   4.323  0.0041 -0.2530 -0.1947
  272POPC   GL1 3628   8.190   3.646   4.852  0.0525  0.1911  0.1415
  272POPC   GL2 3629   7.853   3.660   4.910 -0.3462  0.0653  0.0389
  272POPC   C1A 3630   8.355   3.426   5.208 -0.0293  0.0979  0.2406
  272POPC   D2A 3631   8.532   3.566   5.590  0.2930 -0.2415 -0.2535
  272POPC   C3A 3632   8.684   3.147   5.683 -0.0368  0.1497 -0.0181
  272POPC   C4A 3633   8.791   2.891   5.324 -0.0882 -0.0527 -0.3235
  272POPC   C1B 3634   7.653   3.495   5.127  0.2065  0.0881 -0.1209
  272POPC   C2B 3635   7.878   3.472   5.511  0.2749  0.0860 -0.1176
  272POPC   C3B 3636   8.141   3.436   5.904 -0.3212  0.0620 -0.0533
  272POPC   C4B 3637   8.420   3.152   6.148  0.0481  0.2518  0.1109
  273POPC   NC3 3638   6.784   0.099   3.898  0.0858  0.0016 -0.1590
  273POPC   PO4 3639   6.676   0.219   4.416 -0.1938 -0.2170  0.0039
  273POPC   GL1 3640   6.877   0.142   4.716 -0.0103  0.1302 -0.1254
  273POPC   GL2 3641   7.193  -0.107   4.719  0.0849  0.2843 -0.1030
  273POPC   C1A 3642   7.033   0.247   5.173 -0.1343 -0.1710 -0.0834
  273POPC   D2A 3643   7.276   0.007   5.507 -0.1817  0.0943 -0.1778
  273POPC   C3A 3644   7.186   0.239   5.853 -0.0497 -0.2058 -0.1854
  273POPC   C4A 3645   6.969   0.178   6.174  0.0864  0.1256 -0.2345
  273POPC   C1B 3646   7.089  -0.268   5.173 -0.0452 -0.0716 -0.1077
  273POPC   C2B 3647   7.122  -0.510   5.496  0.0661 -0.0276  0.0708
  273POPC   C3B 3648   6.764  -0.720   5.743  0.0320  0.0587  0.4598
  273POPC   C4B 3649   6.459  -0.822   6.075  0.0584 -0.1111 -0.0339
  274POPC   NC3 3650   9.109   1.895   3.752 -0.2867  0.4384  0.1038
  274POPC   PO4 3651   8.820   1.937   4.018 -0.0457 -0.3618  0.4443
  274POPC   GL1 3652   8.906   1.910   4.454 -0.1186  0.3988  0.0252
  274POPC   GL2 3653   9.160   1.947   4.636  0.4098  0.2835 -0.0115
  274POPC   C1A 3654   8.783   2.003   4.928  0.1126  0.2103 -0.4141
  274POPC   D2A 3655   8.531   1.837   5.266  0.0009  0.1185 -0.0750
  274POPC   C3A 3656   8.776   1.629   5.653 -0.0217 -0.1263 -0.0455
  274POPC   C4A 3657   8.708   1.351   6.005 -0.0942 -0.0183 -0.1279
  274POPC   C1B 3658   9.269   2.111   5.099 -0.0718  0.1376  0.1568
  274POPC   C2B 3659   9.153   2.364   5.336 -0.0214  0.1695 -0.2058
  274POPC   C3B 3660   9.137   2.687   5.702 -0.0431  0.2278  0.1047
  274POPC   C4B 3661   9.156   2.563   6.135 -0.3908 -0.1003  0.1438
  275POPC   NC3 3662   7.158   9.757   4.251  0.3307 -0.1782  0.1942
  275POPC   PO4 3663   7.125  10.269   4.362  0.0307  0.0774  0.2050
  275POPC   GL1 3664   7.379  10.160   4.739 -0.0499 -0.0413  0.2663
  275POPC   GL2 3665   7.511  10.386   4.987 -0.0306 -0.2157  0.0179
  275POPC   C1A 3666   7.593   9.972   5.166 -0.2314 -0.3263  0.0942
  275POPC   D2A 3667   7.835   9.840   5.456  0.4803 -0.2040  0.0673
  275POPC   C3A 3668   7.635   9.819   5.846  0.1990  0.1361  0.2984
  275POPC   C4A 3669   7.529   9.951   6.243 -0.1063  0.0654  0.1162
  275POPC   C1B 3670   7.739  10.724   5.228  0.1621  0.2262  0.0403
  275POPC   C2B 3671   8.143  10.697   5.454 -0.0876 -0.1425  0.1072
  275POPC   C3B 3672   8.402  10.643   5.786 -0.0952  0.1151  0.2391
  275POPC   C4B 3673   8.768  10.666   6.043 -0.2439 -0.0415  0.3435
  276POPC   NC3 3674   6.137   2.695   3.444 -0.1884 -0.2265  0.1318
  276POPC   PO4 3675   5.892   2.762   3.918  0.1044 -0.1348  0.1431
  276POPC   GL1 3676   5.949   2.843   4.313  0.4326 -0.3159 -0.0522
  276POPC   GL2 3677   6.147   2.658   4.480 -0.0958 -0.0876 -0.1914
  276POPC   C1A 3678   5.628   2.726   4.658  0.0577  0.4042  0.1135
  276POPC   D2A 3679   5.412   2.656   4.999  0.3966  0.3559 -0.2569
  276POPC   C3A 3680   5.585   2.685   5.384  0.1704 -0.3155  0.0923
  276POPC   C4A 3681   5.414   2.654   5.807 -0.3784 -0.2264  0.0698
  276POPC   C1B 3682   6.368   2.569   4.906 -0.0908  0.0891 -0.1522
  276POPC   C2B 3683   6.503   2.872   5.322 -0.1511  0.2993 -0.2122
  276POPC   C3B 3684   6.435   3.063   5.870 -0.3509  0.1055  0.4005
  276POPC   C4B 3685   6.479   3.442   6.166 -0.2223 -0.0058  0.1474
  277POPC   NC3 3686   5.100   7.789   4.539 -0.1014 -0.2985  0.1074
  277POPC   PO4 3687   5.488   7.567   4.460 -0.0373 -0.1846  0.1734
  277POPC   GL1 3688   5.450   7.442   4.824 -0.0222 -0.1933  0.0619
  277POPC   GL2 3689   5.305   7.639   5.009  0.0958  0.4145  0.2068
  277POPC   C1A 3690   5.659   7.381   5.230 -0.2041 -0.3436  0.3348
  277POPC   D2A 3691   5.754   6.921   5.370  0.0141  0.2752  0.0194
  277POPC   C3A 3692   5.780   6.833   5.800 -0.0892 -0.2109 -0.0179
  277POPC   C4A 3693   5.816   6.988   6.250  0.1694 -0.0804 -0.0962
  277POPC   C1B 3694   5.072   7.659   5.376  0.1915 -0.0003  0.1336
  277POPC   C2B 3695   4.751   7.900   5.711 -0.2405  0.1473  0.2439
  277POPC   C3B 3696   4.258   7.885   5.725  0.0395 -0.1223 -0.4501
  277POPC   C4B 3697   3.914   8.047   6.081  0.1362  0.3025  0.2585
  278POPC   NC3 3698   2.023   4.458   4.253 -0.1266  0.1412  0.4548
  278POPC   PO4 3699   2.319   4.752   4.117  0.0021  0.0023  0.0119
  278POPC   GL1 3700   2.317   4.660   4.633  0.3242 -0.0217 -0.0743
  278POPC   GL2 3701   2.690   4.796   4.611 -0.0625 -0.3238  0.0777
  278POPC   C1A 3702   2.621   4.489   5.011  0.1088 -0.3928  0.2386
  278POPC   D2A 3703   2.793   4.812   5.407 -0.0496  0.0971  0.0063
  278POPC   C3A 3704   2.495   4.787   5.743 -0.1657  0.0975  0.0645
  278POPC   C4A 3705   2.136   4.676   5.886 -0.1826  0.5731 -0.0793
  278POPC   C1B 3706   2.748   5.088   4.939  0.2265 -0.1573  0.0894
  278POPC   C2B 3707   2.486   5.397   5.168  0.1083  0.0384  0.1733
  278POPC   C3B 3708   2.328   5.265   5.536  0.1886  0.0676 -0.2226
  278POPC   C4B 3709   2.049   5.159   5.884 -0.1406  0.0734 -0.1290
  279POPC   NC3 3710   8.959   8.527   3.939 -0.1116  0.3601 -0.0971
  279POPC   PO4 3711   8.604   8.362   3.912  0.1373  0.0591 -0.1422
  279POPC   GL1 3712   8.726   8.400   4.318 -0.1181  0.0062 -0.1961
  279POPC   GL2 3713   9.066   8.666   4.419  0.1754  0.1510 -0.1146
  279POPC   C1A 3714   8.714   8.027   4.736 -0.1065 -0.2604 -0.0738
  279POPC   D2A 3715   8.707   8.043   5.165  0.1826  0.0933  0.1198
  279POPC   C3A 3716   8.790   8.399   5.410 -0.1963  0.0169 -0.0467
  279POPC   C4A 3717   8.632   8.689   5.699  0.3961  0.1447  0.0352
  279POPC   C1B 3718   9.370   8.914   4.678 -0.3641  0.0693 -0.2906
  279POPC   C2B 3719   9.414   8.860   5.062  0.1886 -0.2414 -0.1565
  279POPC   C3B 3720   9.500   8.842   5.521  0.1010  0.1591  0.0468
  279POPC   C4B 3721   9.584   8.496   5.911 -0.0266 -0.0973 -0.2712
  280POPC   NC3 3722   3.628   4.593   4.450 -0.0368 -0.2410 -0.1689
  280POPC   PO4 3723   4.009   4.327   4.499 -0.3448  0.1549 -0.0022
  280POPC   GL1 3724   4.012   4.506   4.873  0.0105 -0.0975 -0.1766
  280POPC   GL2 3725   3.684   4.465   4.976 -0.2612  0.0551 -0.0156
  280POPC   C1A 3726   4.399   4.428   5.155 -0.2993  0.3177 -0.0405
  280POPC   D2A 3727   4.627   4.816   5.521  0.1900  0.0078  0.0542
  280POPC   C3A 3728   4.764   4.817   5.868  0.1695  0.0847 -0.0333
  280POPC   C4A 3729   4.930   4.744   6.333 -0.0087 -0.0035  0.3975
  280POPC   C1B 3730   3.990   4.474   5.387 -0.0628  0.0821  0.4994
  280POPC   C2B 3731   4.379   4.269   5.674  0.0003  0.1620  0.2109
  280POPC   C3B 3732   4.780   4.231   5.617 -0.3675 -0.0960  0.0084
  280POPC   C4B 3733   5.071   3.946   5.474 -0.3959  0.3467  0.0708
  281POPC   NC3 3734   4.478   5.532   4.572 -0.1696 -0.0092 -0.1717
  281POPC   PO4 3735   4.100   5.352   4.624  0.1356  0.0049 -0.0964
  281POPC   GL1 3736   4.179   5.566   5.033  0.1201  0.0011  0.0689
  281POPC   GL2 3737   3.919   5.383   5.281  0.0390  0.3569 -0.1961
  281POPC   C1A 3738   4.292   5.835   5.338 -0.0263  0.2477 -0.2222
  281POPC   D2A 3739   4.544   6.001   5.630 -0.1585 -0.0291  0.1485
  281POPC   C3A 3740   4.235   6.052   5.939  0.0190  0.0280  0.1498
  281POPC   C4A 3741   4.074   5.911   6.260 -0.0205  0.2063  0.3465
  281POPC   C1B 3742   3.568   5.327   5.521  0.0064  0.1007  0.0701
  281POPC   C2B 3743   3.340   5.422   5.846 -0.1695 -0.2497 -0.0715
  281POPC   C3B 3744   2.980   5.636   6.100 -0.1378  0.1055 -0.0590
  281POPC   C4B 3745   3.033   6.011   6.276  0.1074  0.0141  0.1603
  282POPC   NC3 3746   1.474   6.418   2.961  0.2811 -0.0517 -0.0414
  282POPC   PO4 3747   1.541   6.218   3.254 -0.2885 -0.1936 -0.2937
  282POPC   GL1 3748   1.756   6.343   3.696 -0.0684 -0.2634 -0.0975
  282POPC   GL2 3749   2.111   6.192   3.902 -0.1132 -0.1576 -0.0024
  282POPC   C1A 3750   1.716   6.249   4.159  0.2613 -0.3485  0.1752
  282POPC   D2A 3751   1.312   6.350   4.354  0.1026 -0.0517 -0.0595
  282POPC   C3A 3752   1.001   6.585   3.990  0.2052 -0.1420 -0.1116
  282POPC   C4A 3753   0.638   6.606   3.916 -0.3905 -0.0692 -0.0521
  282POPC   C1B 3754   2.139   5.952   4.277 -0.0329 -0.0879  0.0741
  282POPC   C2B 3755   2.285   5.868   4.737 -0.3327  0.2265  0.0599
  282POPC   C3B 3756   2.070   5.896   5.108  0.2657  0.2145 -0.1785
  282POPC   C4B 3757   1.901   5.994   5.572 -0.0119  0.0629  0.0547
  283POPC   NC3 3758   0.779   7.346   3.266  0.1850 -0.1485 -0.1686
  283POPC   PO4 3759   1.171   7.296   3.363  0.1862  0.3101  0.1029
  283POPC   GL1 3760   1.031   7.135   3.807  0.1238 -0.0875  0.2013
  283POPC   GL2 3761   0.767   7.241   4.032 -0.3838 -0.0728 -0.0280
  283POPC   C1A 3762   1.219   7.104   4.207 -0.1913  0.2541  0.0997
  283POPC   D2A 3763   1.448   7.399   4.185 -0.0031 -0.0316  0.3943
  283POPC   C3A 3764   1.761   7.317   4.374  0.0559  0.1896 -0.0304
  283POPC   C4A 3765   2.105   7.417   4.615 -0.0793 -0.2044 -0.2742
  283POPC   C1B 3766   0.795   6.866   4.379 -0.1209 -0.0181 -0.1741
  283POPC   C2B 3767   0.847   6.515   4.583  0.0548  0.1550  0.1492
  283POPC   C3B 3768   0.706   6.022   4.767 -0.1631  0.1061 -0.3793
  283POPC   C4B 3769   0.629   5.655   4.539  0.4492  0.1051 -0.2080
  284POPC   NC3 3770   2.641   1.101   4.095  0.3998 -0.0779 -0.2150
  284POPC   PO4 3771   2.876   1.153   4.552 -0.0228 -0.4367  0.1972
  284POPC   GL1 3772   2.811   1.416   4.937  0.2179  0.2253 -0.2342
  284POPC   GL2 3773   2.595   1.481   5.028 -0.0122 -0.0131  0.0422
  284POPC   C1A 3774   2.923   1.196   5.320 -0.0121  0.0673  0.5117
  284POPC   D2A 3775   3.093   1.012   5.687 -0.0336 -0.0019  0.0618
  284POPC   C3A 3776   3.553   1.042   5.830  0.0787  0.0136  0.1811
  284POPC   C4A 3777   3.891   1.108   6.120  0.1232  0.1996 -0.1963
  284POPC   C1B 3778   2.427   1.414   5.360  0.1074 -0.2109  0.3132
  284POPC   C2B 3779   2.298   1.450   5.856  0.1838 -0.0188  0.0742
  284POPC   C3B 3780   1.882   1.396   6.122 -0.3176  0.1218 -0.1140
  284POPC   C4B 3781   1.538   1.550   6.416 -0.1024  0.0251 -0.1149
  285POPC   NC3 3782   7.056   1.424   3.716 -0.1048 -0.0114  0.2005
  285POPC   PO4 3783   7.053   1.709   3.999  0.0021 -0.2416 -0.2252
  285POPC   GL1 3784   7.128   1.691   4.446  0.2663 -0.0187 -0.3272
  285POPC   GL2 3785   7.155   1.380   4.629  0.1914 -0.1061  0.2171
  285POPC   C1A 3786   6.930   1.740   4.889 -0.3858  0.0457  0.0741
  285POPC   D2A 3787   7.114   2.079   5.177 -0.0191 -0.2236 -0.0789
  285POPC   C3A 3788   7.130   2.101   5.642  0.0507 -0.0358 -0.0924
  285POPC   C4A 3789   7.111   2.366   5.979  0.0293  0.0050 -0.2033
  285POPC   C1B 3790   7.252   1.112   5.070  0.2323 -0.1071  0.0251
  285POPC   C2B 3791   7.318   1.160   5.624  0.2920 -0.0751 -0.0495
  285POPC   C3B 3792   7.283   1.254   6.052 -0.2121  0.3873 -0.1528
  285POPC   C4B 3793   7.609   1.249   6.264  0.1362  0.0717  0.1658
  286POPC   NC3 3794   0.390   2.445   4.141  0.1301 -0.3512  0.0461
  286POPC   PO4 3795  -0.030   2.780   4.269 -0.2247 -0.1692 -0.0352
  286POPC   GL1 3796  -0.005   2.473   4.632  0.1500 -0.2004 -0.1774
  286POPC   GL2 3797  -0.141   2.453   4.906 -0.0072  0.1931  0.0751
  286POPC   C1A 3798   0.295   2.275   4.708 -0.0419  0.3147 -0.3900
  286POPC   D2A 3799   0.652   2.325   4.999 -0.0114 -0.1812  0.3533
  286POPC   C3A 3800   0.764   2.599   5.388  0.2899  0.0119 -0.0897
  286POPC   C4A 3801   0.673   2.776   5.725 -0.1806 -0.0616 -0.0870
  286POPC   C1B 3802  -0.203   2.624   5.335 -0.0622  0.2493  0.1175
  286POPC   C2B 3803  -0.155   2.887   5.759 -0.1822 -0.2191  0.2332
  286POPC   C3B 3804  -0.453   3.005   6.084  0.1166 -0.1106 -0.2655
  286POPC   C4B 3805  -0.654   3.292   6.458 -0.3461 -0.1633  0.2617
  287W        W 3806   5.886   1.192   2.181 -0.1348 -0.1366 -0.1358
  288W        W 3807   4.823   2.241   2.296  0.0057  0.0294  0.1262
  289W        W 3808   5.378   1.149  11.090 -0.3429  0.0576  0.1514
  290W        W 3809   6.889   2.982  11.249  0.3039 -0.1558 -0.0542
  291W        W 3810   1.659   9.713   2.406 -0.2351 -0.1997  0.2733
  292W        W 3811   0.244   0.426   0.302 -0.1421 -0.1141 -0.2110
  293W        W 3812   3.961   5.779  12.264 -0.1870 -0.3692 -0.0925
  294W        W 3813   2.187   0.677   4.535  0.0187 -0.1508 -0.0699
  295W        W 3814   5.328   5.950   1.114  0.0607  0.1064  0.0913
  296W        W 3815   8.536   4.719  12.191  0.0039 -0.2172 -0.2326
  297W        W 3816   2.986   2.815   2.801 -0.1966  0.0291 -0.0682
  298W        W 3817   3.381   7.891   1.847 -0.0726  0.1895 -0.1353
  299W        W 3818   8.451   4.315   3.572 -0.1083 -0.0873  0.0699
  300W        W 3819   6.911   2.026  12.166 -0.0187  0.0489 -0.1839
  301W        W 3820   6.486   4.889   4.481 -0.0714 -0.2709  0.1583
  302W        W 3821   6.671   2.190   2.306  0.0313  0.3441 -0.0593
  303W        W 3822   1.103   0.406  11.086 -0.0317  0.0542 -0.2215
  304W        W 3823   0.976   5.663   3.828  0.0232  0.1302  0.2879
  305W        W 3824   4.878   4.980  11.773 -0.1616  0.1737 -0.0632
  306W        W 3825   2.224   6.650   2.268 -0.0452 -0.3248 -0.0178
  307W        W 3826   4.303   9.699   2.215 -0.2188  0.0916 -0.0897
  308W        W 3827   6.918   3.315   1.321 -0.0388 -0.1207 -0.2524
  309W        W 3828   2.518   4.163   2.513 -0.3012 -0.4336 -0.0870
  310W        W 3829   1.246   6.782   3.252  0.4381  0.1199  0.0626
  311W        W 3830   9.681   2.938   3.363 -0.1773 -0.0329 -0.0677
  312W        W 3831   5.154   8.533   2.565 -0.0618 -0.1117  0.2056
  313W        W 3832   6.028   1.715  11.371  0.0855  0.1319  0.3161
  314W        W 3833   2.464   0.600   3.095  0.3906 -0.0378  0.0625
  315W        W 3834   6.856   0.936  11.151  0.0528  0.0393 -0.0013
  316W        W 3835   3.082   7.981   4.263  0.1516 -0.1123 -0.2619
  317W        W 3836   1.859   7.157  11.777  0.3596  0.2414  0.0392
  318W        W 3837   5.795   8.855   2.563 -0.2303 -0.3217  0.0480
  319W        W 3838   0.681   1.007  11.844 -0.3052  0.1473 -0.1932
  320W        W 3839   2.428   1.830  11.056 -0.1023 -0.0501  0.0810
  321W        W 3840   6.180   2.334   8.968  0.1734 -0.0585 -0.0049
  322W        W 3841   7.167   2.347   3.629 -0.1224 -0.0034 -0.2141
  323W        W 3842   1.195   4.685   9.036  0.2950 -0.1979 -0.2586
  324W        W 3843   9.700   3.222   9.541  0.1689  0.0854 -0.0900
  325W        W 3844   3.825   7.563   8.986  0.1010  0.3497 -0.0212
  326W        W 3845   3.616   0.165   8.638  0.2579 -0.0358  0.4212
  327W        W 3846   8.519   0.033   1.450 -0.0166 -0.2500 -0.4544
  328W        W 3847   3.449   8.150  11.394 -0.3235 -0.0304  0.2319
  329W        W 3848   5.720   1.398  10.614 -0.0173  0.0553  0.1653
  330W        W 3849   6.147   5.493   9.579  0.0723 -0.0162 -0.2321
  331W        W 3850   3.677   4.868   3.481  0.0724  0.0743 -0.2243
  332W        W 3851   8.944   4.632   1.537  0.3161 -0.5308  0.0604
  333W        W 3852   7.918   8.160   0.900 -0.1118  0.1969 -0.0542
  334W        W 3853   4.762   8.822   9.828 -0.1868  0.1522 -0.0613
  335W        W 3854   6.121   0.334   3.376 -0.0654  0.0416 -0.0472
  336W        W 3855   3.797   6.723   9.250 -0.2576  0.5339  0.3461
  337W        W 3856   9.390   8.914  12.287  0.0948 -0.0136  0.1699
  338W        W 3857   5.160   3.351  12.220  0.0497  0.1574  0.1314
  339W        W 3858   0.701   4.553  11.656  0.0241 -0.0227  0.1929
  340W        W 3859   1.200   2.246   9.426 -0.1735  0.2242 -0.1791
  341W        W 3860   7.552   1.946   8.297  0.1795  0.0066  0.2014
  342W        W 3861   0.077   1.236   0.596 -0.1786  0.2764 -0.0199
  343W        W 3862   4.663   0.839   0.326  0.3057 -0.1323  0.0574
  344W        W 3863   9.577   9.284   2.125 -0.0567  0.2079  0.2014
  345W        W 3864   5.035   5.123   1.901 -0.4070 -0.0411 -0.0631
  346W        W 3865   2.111   9.592   2.679  0.1936  0.1798 -0.3685
  347W        W 3866   7.964   3.055  10.250  0.5294 -0.0175  0.0487
  348W        W 3867   3.280   7.349   0.890 -0.0828 -0.1125 -0.0042
  349W        W 3868   6.584   2.401   3.287 -0.3129  0.0974 -0.1425
  350W        W 3869   0.438   0.517   3.739  0.4168 -0.0782  0.0289
  351W        W 3870   6.010   1.547   1.067  0.1263  0.2384 -0.0419
  352W        W 3871   1.747   0.148   3.430  0.0516  0.0913  0.1712
  353W        W 3872   0.812   7.614  11.056  0.1197  0.0354  0.1781
  354W        W 3873   0.612   7.612  10.203 -0.1774 -0.3110  0.1448
  355W        W 3874   5.117   5.022   1.072 -0.1451 -0.0989 -0.0953
  356W        W 3875   5.179   6.796   0.890 -0.0579 -0.0927  0.0941
  357W        W 3876   7.367   8.998  10.081 -0.1440  0.0390  0.1844
  358W        W 3877   9.755   4.494   0.585  0.0423  0.1562 -0.2093
  359W        W 3878   2.387   0.158   9.770 -0.1375 -0.1234 -0.0708
  360W        W 3879   9.589   4.157   0.051  0.1508  0.0433  0.2514
  361W        W 3880   5.800   5.234   2.239 -0.2464 -0.1175 -0.1685
  362W        W 3881   6.877   3.925   2.238 -0.0254 -0.0913  0.0669
  363W        W 3882   5.724   7.007   0.253  0.4072  0.1703 -0.1659
  364W        W 3883   7.657   0.992   0.296  0.1015 -0.1091  0.2095
  365W        W 3884   1.966   3.344   0.397  0.2142  0.1227 -0.0857
  366W        W 3885   2.009   3.531   9.493 -0.0773  0.1093  0.1755
  367W        W 3886   0.431   2.859  11.332 -0.3519 -0.3729  0.0981
  368W        W 3887   1.568   1.415   0.361  0.3168  0.0564  0.1141
  369W        W 3888   3.738   8.371   3.087 -0.0825 -0.0110 -0.1361
  370W        W 3889   3.336   0.211   1.498 -0.2645  0.2445 -0.0209
  371W        W 3890   7.376   3.788   9.143  0.1463  0.2897 -0.3430
  372W        W 3891   1.004   3.846   1.545  0.0470  0.2758 -0.0104
  373W        W 3892   5.804   3.894  10.995  0.1325 -0.2439  0.3642
  374W        W 3893   7.002   8.157   8.453 -0.3533  0.0545 -0.2139
  375W        W 3894   0.455   4.969   2.308 -0.3086  0.4472  0.0355
  376W        W 3895   6.056   3.709   2.193 -0.0196 -0.1411  0.1642
  377W        W 3896   6.253   3.159   9.637  0.1000  0.0873 -0.1862
  378W        W 3897   2.660   1.659   3.669  0.1927 -0.0803  0.2171
  379W        W 3898   4.484   1.055   8.326  0.2258  0.2777 -0.0729
  380W        W 3899   5.906   9.453   0.269  0.1321 -0.2239  0.1601
  381W        W 3900   6.179   5.994   1.555 -0.4342  0.1021  0.0387
  382W        W 3901   9.623   4.035   9.762 -0.0170 -0.0258 -0.1255
  383W        W 3902   1.933   3.593   1.423 -0.1267 -0.0905  0.1984
  384W        W 3903   5.812   2.069  10.389  0.2252 -0.0738 -0.1391
  385W        W 3904   1.631   7.990  11.673 -0.2304  0.0503 -0.0531
  386W        W 3905   4.405   3.243   8.065  0.0452  0.0889  0.0591
  387W        W 3906   9.574   4.091  10.684  0.2559  0.0052  0.2199
  388W        W 3907   7.250   9.313   3.077  0.0264  0.0993  0.0312
  389W        W 3908   6.649   1.653  10.743 -0.0060  0.1660 -0.0941
  390W        W 3909   5.370   6.381   1.330  0.1068 -0.1024 -0.0989
  391W        W 3910   2.126   0.990   3.176 -0.0262  0.1161  0.0119
  392W        W 3911   5.822   5.727   2.305  0.1235 -0.2008 -0.0923
  393W        W 3912   8.554   6.208  12.273  0.2234 -0.0817  0.1477
  394W        W 3913   7.887   9.052   1.986 -0.2237 -0.0269 -0.2739
  395W        W 3914   7.296   6.667  11.056 -0.0306  0.2454  0.1831
  396W        W 3915   9.012   9.150   0.774 -0.3262  0.2420 -0.0556
  397W        W 3916   3.813   9.012   0.191 -0.0288 -0.0861  0.1543
  398W        W 3917   7.013   2.824   1.218  0.1027 -0.3945 -0.0262
  399W        W 3918   7.629   4.864   2.754  0.0798 -0.0238  0.2458
  400W        W 3919   0.748   9.313  11.525  0.1044 -0.1210 -0.0446
  401W        W 3920   0.657   6.726   1.669  0.2025 -0.1130  0.2641
  402W        W 3921   3.396   4.189  11.778 -0.1094  0.0764 -0.0290
  403W        W 3922   5.148   3.483   2.977 -0.1157 -0.1330  0.1440
  404W        W 3923   8.132   0.773  10.854  0.1142  0.1222 -0.1530
  405W        W 3924   5.947   9.110   9.222 -0.0528 -0.1182 -0.0192
  406W        W 3925   1.518   3.307   8.647 -0.2533 -0.0180 -0.0680
  407W        W 3926   8.845   3.659  10.518  0.3091 -0.3003 -0.1267
  408W        W 3927   7.838   9.668  10.541 -0.0461 -0.2428 -0.2907
  409W        W 3928   5.918   6.573   0.617 -0.0117 -0.0822  0.0075
  410W        W 3929   2.625   8.545   0.336 -0.1691 -0.2212  0.1950
  411W        W 3930   4.782   0.808   1.316  0.2309 -0.0973  0.0975
  412W        W 3931   4.525   4.397   8.700 -0.2171 -0.1586  0.2100
  413W        W 3932   7.161   8.556   3.705 -0.0797 -0.0109 -0.1361
  414W        W 3933   1.644   3.712   2.370  0.3410  0.0441 -0.0555
  415W        W 3934   8.688   7.538   9.065 -0.1193  0.0047 -0.0586
  416W        W 3935   7.606   8.215  10.488  0.2969  0.2406  0.0045
  417W        W 3936   6.156   7.564   3.705  0.0158  0.2556 -0.0980
  418W        W 3937   4.184   4.504   1.933  0.4912 -0.1621 -0.1582
  419W        W 3938   4.166   3.920   9.938  0.2641  0.2516  0.0293
  420W        W 3939   5.740   0.123  11.829 -0.0521 -0.2918 -0.2001
  421W        W 3940   3.638   4.838   2.130 -0.3255  0.1617 -0.5404
  422W        W 3941   3.013   5.141  11.490 -0.3746 -0.0056 -0.0667
  423W        W 3942   4.349   2.296   7.784 -0.0137  0.0538  0.2422
  424W        W 3943   1.491   2.176   2.012 -0.1612 -0.1097 -0.1338
  425W        W 3944   6.257   9.312   1.302 -0.1209 -0.1201 -0.0060
  426W        W 3945   6.395   2.603   4.017  0.0878  0.1293  0.2645
  427W        W 3946   1.689   5.499   3.498  0.2911 -0.1665 -0.0559
  428W        W 3947   5.037   9.203   9.680 -0.1195 -0.0062  0.1346
  429W        W 3948   3.327   1.000   8.495 -0.1833 -0.0550  0.0381
  430W        W 3949   6.666   2.527   1.478  0.1505  0.0705  0.1581
  431W        W 3950   4.366   4.960   1.750  0.0528 -0.0159  0.0538
  432W        W 3951   9.645   1.890   0.509  0.0353 -0.2281  0.0344
  433W        W 3952   0.486   7.195   1.533  0.0877  0.0265 -0.0399
  434W        W 3953   6.977   5.182   9.800  0.3269  0.0283 -0.1433
  435W        W 3954   2.924   2.398   9.280 -0.1451  0.0103  0.1237
  436W        W 3955   6.475   5.098   9.484  0.4012 -0.0426 -0.0111
  437W        W 3956   6.627   3.016   1.587  0.4143  0.0454  0.0327
  438W        W 3957   3.449   2.771  11.835  0.1502  0.0642  0.1850
  439W        W 3958   7.055   6.617   3.236  0.0507 -0.0594  0.1085
  440W        W 3959   7.385   8.794  11.787 -0.1740 -0.1018 -0.2358
  441W        W 3960   4.813   3.441   1.118 -0.2747 -0.2142 -0.1493
  442W        W 3961   6.486   9.720   3.487  0.3884  0.2895 -0.1039
  443W        W 3962   9.141   7.026   0.915 -0.2244 -0.0741 -0.1949
  444W        W 3963   5.301   4.837   9.007 -0.1494  0.1134 -0.1395
  445W        W 3964   2.483   2.628  10.706 -0.3025 -0.0111 -0.0165
  446W        W 3965   8.382   9.588   9.196  0.0354  0.0265 -0.0159
  447W        W 3966   8.510   0.755   4.591  0.0456 -0.1371 -0.0058
  448W        W 3967   7.667   0.560   0.508  0.2091 -0.0662 -0.2824
  449W        W 3968   1.355   4.225   9.001 -0.2436  0.4342 -0.1511
  450W        W 3969   7.490   2.106  11.325 -0.3234 -0.0206 -0.3212
  451W        W 3970   1.028   3.085  10.692 -0.0179 -0.0324  0.1458
  452W        W 3971   4.990   2.419   4.271 -0.2100 -0.2894  0.0879
  453W        W 3972   6.525   8.514   2.054  0.2535  0.1480 -0.1746
  454W        W 3973   3.047   3.847   1.785  0.3133 -0.0736 -0.1836
  455W        W 3974   1.277   4.044   1.150 -0.0853 -0.2270  0.0528
  456W        W 3975   1.927   8.837   2.074 -0.1109 -0.4439 -0.0138
  457W        W 3976   8.030   2.514   3.350 -0.3829  0.0329 -0.1790
  458W        W 3977   3.634   5.647   8.425 -0.0514  0.2222 -0.1984
  459W        W 3978   6.324   6.634  12.005 -0.1771 -0.1294 -0.2515
  460W        W 3979   9.438   2.006   2.496  0.2965 -0.2624 -0.3086
  461W        W 3980   6.794   2.662   1.960  0.1993  0.0073 -0.0052
  462W        W 3981   2.011   7.667   2.144  0.1363  0.1070 -0.0186
  463W        W 3982   0.366   1.947  12.197  0.3833  0.2167 -0.1417
  464W        W 3983   5.433   8.628   1.189 -0.1739 -0.1747 -0.2649
  465W        W 3984   1.618   1.993   3.638  0.1069  0.2298 -0.1361
  466W        W 3985   9.770   9.489  11.065 -0.0014  0.1752 -0.0387
  467W        W 3986   5.380   6.781  10.420  0.4611  0.1095  0.1275
  468W        W 3987   7.681   1.458   0.621 -0.2641 -0.0518 -0.2672
  469W        W 3988   6.143   5.389   9.073  0.1953 -0.1207 -0.1413
  470W        W 3989   3.392   6.184   0.808 -0.3400 -0.0242  0.0510
  471W        W 3990   8.776   8.547   9.957  0.0717 -0.0573 -0.1565
  472W        W 3991   0.380   1.230   4.536  0.1988  0.0566 -0.4217
  473W        W 3992   6.336   5.103   4.029  0.0113  0.1060  0.0469
  474W        W 3993   8.390   0.856  11.401  0.2075  0.0199  0.0953
  475W        W 3994   3.352   0.189   2.508  0.0455  0.1334 -0.1092
  476W        W 3995   9.747   5.633   1.983  0.3657  0.1246 -0.0613
  477W        W 3996   6.520   2.255   2.824 -0.0286  0.1212 -0.1471
  478W        W 3997   5.186   6.623   9.052 -0.1293 -0.2581 -0.0786
  479W        W 3998   9.646   5.241   0.062 -0.1281 -0.6203  0.0388
  480W        W 3999   9.434   6.077  11.982 -0.0809  0.2091  0.3157
  481W        W 4000   5.657   3.046   9.141  0.1955 -0.2006  0.2469
  482W        W 4001   6.480   6.315   4.142  0.3075 -0.1207 -0.0387
  483W        W 4002   1.174   4.270   0.081 -0.3611  0.3637  0.1065
  484W        W 4003   1.888   7.549   3.690 -0.1892 -0.1801 -0.0337
  485W        W 4004   2.279   4.313   1.902 -0.1300 -0.2190  0.3052
  486W        W 4005   5.668   1.243   2.761  0.3436 -0.2355  0.0407
  487W        W 4006   5.026   7.687  11.605  0.1336  0.3164  0.0828
  488W        W 4007   1.637   1.799   0.975 -0.0652 -0.1704  0.0436
  489W        W 4008   3.528   5.887   3.932  0.2032  0.0410 -0.0617
  490W        W 4009   6.354   0.307   2.553 -0.1363  0.0302  0.1032
  491W        W 4010   1.465   6.343   1.298  0.0756  0.1007  0.0638
  492W        W 4011   2.750   3.995   9.199 -0.0834 -0.0434  0.3623
  493W        W 4012   3.628   3.951   9.752 -0.2820  0.1092 -0.1210
  494W        W 4013   8.258   1.850   1.170  0.2558  0.0098  0.2361
  495W        W 4014   1.905   1.831   1.915 -0.0970 -0.0835  0.0434
  496W        W 4015   0.600   6.013   3.094 -0.2161 -0.1769 -0.0209
  497W        W 4016   5.041   9.426   0.797 -0.0836  0.0808  0.3013
  498W        W 4017   2.280   1.498   2.811 -0.0880  0.4076  0.1141
  499W        W 4018   3.589   1.393   8.627  0.1435 -0.2009  0.1748
  500W        W 4019   4.356   4.225   1.506 -0.2370 -0.2837 -0.4309
  501W        W 4020   0.198   6.691   2.560  0.0451 -0.1142  0.1218
  502W        W 4021   7.671   9.465  11.001 -0.1568 -0.2538 -0.0676
  503W        W 4022   7.292   0.721  11.744 -0.0456 -0.1276 -0.1246
  504W        W 4023   0.190   8.647  10.556 -0.1535 -0.0498 -0.1094
  505W        W 4024   8.372   0.443   3.664 -0.1556  0.3721 -0.0893
  506W        W 4025   2.895   1.884  10.804  0.2459  0.0198 -0.0679
  507W        W 4026   0.043   6.119   1.398 -0.0814  0.3568 -0.2057
  508W        W 4027   0.914   1.865  12.174 -0.1679  0.1615  0.1550
  509W        W 4028   9.522   7.657   9.251 -0.0379  0.2665  0.0822
  510W        W 4029   5.415   3.705   0.242  0.0112 -0.0214 -0.1430
  511W        W 4030   3.529   8.599   0.069 -0.0957 -0.1332  0.0082
  512W        W 4031   3.233   8.724   2.983 -0.0597  0.3655 -0.1831
  513W        W 4032   3.930   8.813   9.416 -0.1212 -0.2118  0.3505
  514W        W 4033   8.185   3.378   3.247 -0.0036  0.0282  0.5243
  515W        W 4034   5.191   8.562   1.675 -0.1257 -0.0046 -0.1103
  516W        W 4035   1.958   3.282   8.351  0.0243  0.1072 -0.1266
  517W        W 4036   8.281   0.909  12.207  0.1968  0.1241  0.1195
  518W        W 4037   2.247   1.139  10.741 -0.1990 -0.0353  0.0131
  519W        W 4038   0.373   5.832  10.319 -0.2213 -0.0409 -0.1384
  520W        W 4039   2.658   9.635  10.490 -0.0452 -0.3563  0.0623
  521W        W 4040   1.331   8.066   3.510  0.2103  0.2157  0.3873
  522W        W 4041   8.534   5.018   2.534 -0.4081  0.4422 -0.0781
  523W        W 4042   3.578   7.056   2.528 -0.2249 -0.0750 -0.0541
  524W        W 4043   3.891   0.597   0.716  0.0353  0.3066 -0.2670
  525W        W 4044   4.685   2.522  10.119  0.3748  0.2400 -0.0238
  526W        W 4045   8.158   3.263   2.718  0.1280  0.0386 -0.1210
  527W        W 4046   3.391   8.581  10.652  0.1680 -0.1563  0.1324
  528W        W 4047   4.958   7.053  10.416  0.2057  0.1200  0.0057
  529W        W 4048   7.603   2.844  10.525  0.0335 -0.1270 -0.2912
  530W        W 4049   7.927   6.388   3.281  0.0640 -0.1827 -0.0654
  531W        W 4050   9.698   2.229   4.203 -0.0689 -0.0471  0.3194
  532W        W 4051   1.383   5.041  12.185  0.1405 -0.0600  0.1831
  533W        W 4052   0.360   0.793   2.378  0.1237 -0.1225  0.0333
  534W        W 4053   3.878   1.083   0.802 -0.1191  0.4560  0.0219
  535W        W 4054   7.217   4.859   8.880  0.2445  0.0089 -0.1158
  536W        W 4055   4.432   5.808   8.877  0.0039  0.0137 -0.0371
  537W        W 4056   7.203   7.700   3.786  0.2884  0.0064  0.0729
  538W        W 4057   1.672   0.879   0.138  0.1150  0.1247 -0.2006
  539W        W 4058   0.580   4.223   9.597  0.0506  0.0469  0.1475
  540W        W 4059   5.667   3.211   0.832 -0.2137  0.0867 -0.1308
  541W        W 4060   1.703   6.080   0.241 -0.2267  0.3262  0.1271
  542W        W 4061   8.967   6.113   1.886  0.1270 -0.0571  0.1232
  543W        W 4062   5.747   4.917   0.032 -0.1497 -0.1085 -0.0167
  544W        W 4063   9.430   6.935  10.391 -0.0151 -0.0457  0.2223
  545W        W 4064   0.178   4.920   9.035  0.2240  0.0896 -0.0934
  546W        W 4065   7.000   7.458  10.510 -0.1036  0.1734  0.1603
  547W        W 4066   0.109   1.829  10.663 -0.2579 -0.0738 -0.0160
  548W        W 4067   7.379   1.527   8.537  0.1025  0.1065 -0.2389
  549W        W 4068   1.495   4.503   9.547  0.1248  0.1153 -0.1840
  550W        W 4069   2.144   3.125  11.433 -0.3380 -0.2560  0.0701
  551W        W 4070   3.331   8.432  10.166  0.1091  0.6218 -0.2758
  552W        W 4071   3.214   9.221   0.936 -0.0655  0.2315 -0.4215
  553W        W 4072   5.876   5.049   9.338 -0.0509  0.2815 -0.0072
  554W        W 4073   5.995   5.386   1.544  0.0467 -0.2014  0.0665
  555W        W 4074   4.309   7.845  12.274  0.0374  0.4033 -0.4221
  556W        W 4075   6.375   7.197   0.962 -0.1784 -0.0200 -0.0721
  557W        W 4076   8.698   8.694  10.860  0.1504  0.0223 -0.0628
  558W        W 4077   7.375   3.382   2.629  0.0918  0.1404 -0.0457
  559W        W 4078   0.182   4.022  11.738  0.3547  0.2680 -0.0630
  560W        W 4079   9.321   4.965   9.751 -0.0690  0.0017  0.1998
  561W        W 4080   7.335   1.707   9.942 -0.1336  0.4102  0.1360
  562W        W 4081   3.668   1.478   4.769 -0.0723 -0.1672 -0.1603
  563W        W 4082   3.153   6.860   2.837 -0.1925  0.1299  0.0270
  564W        W 4083   8.301   5.226   3.917  0.1183  0.2729  0.3249
  565W        W 4084   1.233   1.179   0.027 -0.2815  0.1274 -0.1967
  566W        W 4085   6.988   9.106  12.194  0.1753  0.1793 -0.1031
  567W        W 4086   2.490   7.628   1.892  0.2840 -0.0066 -0.0303
  568W        W 4087   6.024   2.227   0.375  0.2619  0.0931  0.1552
  569W        W 4088   3.644   3.237  12.007  0.1291  0.0382 -0.1076
  570W        W 4089   7.016   8.373   3.093 -0.1703  0.0276  0.2538
  571W        W 4090   2.038   7.817   9.709  0.1121  0.0529 -0.0054
  572W        W 4091   8.698   9.490   0.228  0.0312  0.2507 -0.2437
  573W        W 4092   1.932   3.350   3.130 -0.1752 -0.1194 -0.0609
  574W        W 4093   8.443   5.678  12.243 -0.0133  0.2303 -0.0183
  575W        W 4094   1.936   3.779   3.397  0.1498 -0.1309 -0.1591
  576W        W 4095   6.925   5.845  12.177  0.0660  0.4366 -0.1945
  577W        W 4096   6.893   5.689   8.072  0.1026 -0.0049 -0.2492
  578W        W 4097   9.083   3.880   2.335  0.2504  0.2338 -0.0063
  579W        W 4098   6.831   0.939  12.181 -0.1194 -0.1877 -0.1207
  580W        W 4099   0.819   9.511   2.274  0.1739 -0.1990 -0.0066
  581W        W 4100   6.500   2.895   1.091  0.0233  0.0750  0.1931
  582W        W 4101   2.111   2.623  11.678 -0.0707 -0.1565 -0.0771
  583W        W 4102   0.526   1.103   0.353  0.2404 -0.0285 -0.0115
  584W        W 4103   3.701   0.185  10.627 -0.0338  0.3071  0.1093
  585W        W 4104   3.410   1.868  10.203 -0.0145 -0.0700  0.0076
  586W        W 4105   7.113   7.815   0.527  0.1745  0.2047  0.5099
  587W        W 4106   5.488   0.247   9.775  0.1769  0.0675  0.1222
  588W        W 4107   3.451   3.036   0.578  0.0664 -0.0347 -0.4739
  589W        W 4108   1.540   8.481   1.105  0.0537 -0.0505 -0.1680
  590W        W 4109   6.509   8.735  10.973 -0.2978 -0.1156 -0.0242
  591W        W 4110   3.588   4.486   0.726 -0.0432 -0.2150 -0.0076
  592W        W 4111   1.778   1.421  10.497 -0.0798  0.0433  0.1190
  593W        W 4112   5.528   5.507   3.206  0.0296  0.2857  0.0931
  594W        W 4113   4.061   1.276   3.945 -0.2028 -0.2329 -0.0150
  595W        W 4114   0.904   6.299   1.632  0.1175  0.0489 -0.3399
  596W        W 4115   8.262   4.607  11.335  0.1078 -0.2294  0.1954
  597W        W 4116   4.776   1.079  10.506  0.2689  0.2606  0.1484
  598W        W 4117   4.464   4.291   4.706  0.3958  0.0538 -0.0385
  599W        W 4118   7.790   2.634  12.084  0.0180  0.0834  0.0526
  600W        W 4119   1.039   3.492  10.360 -0.1906  0.0396  0.2351
  601W        W 4120   6.781   6.396  11.959 -0.0249  0.2252 -0.1008
  602W        W 4121   3.374   7.639   0.419 -0.0574 -0.1661  0.1490
  603W        W 4122   6.098   2.739  11.415 -0.0568 -0.1126  0.0344
  604W        W 4123   4.294   7.902   0.430  0.0253 -0.0137 -0.3181
  605W        W 4124   4.630   1.779  11.946  0.2195 -0.2012 -0.2917
  606W        W 4125   3.379   7.072   1.477 -0.0202 -0.4029 -0.0966
  607W        W 4126   0.845   5.152   3.163 -0.0271  0.2857  0.2709
  608W        W 4127   0.111   8.533   3.868 -0.2123  0.1488 -0.2523
  609W        W 4128   7.341   3.928   1.680  0.3495  0.2265  0.0877
  610W        W 4129   1.439   9.151   1.276  0.0923 -0.3951 -0.1413
  611W        W 4130   0.731   4.065   0.222  0.0584  0.1562  0.0594
  612W        W 4131   6.472   8.547  10.030 -0.3995 -0.0356  0.1808
  613W        W 4132   2.961   0.473   2.647  0.0133 -0.1787 -0.0204
  614W        W 4133   1.671   8.823   9.341 -0.0943 -0.0716 -0.0726
  615W        W 4134   7.009   2.118   1.358  0.1636 -0.2096  0.2612
  616W        W 4135   3.695   2.146   9.756 -0.1178 -0.1268 -0.0568
  617W        W 4136   6.665   7.800   8.652 -0.1335  0.0410 -0.0078
  618W        W 4137   4.390   0.974  12.265 -0.2567 -0.0847  0.1783
  619W        W 4138   7.056   2.305   7.422 -0.1340 -0.1370  0.0564
  620W        W 4139   0.561   0.575  11.059 -0.1140  0.0455 -0.1826
  621W        W 4140   9.777   9.274   9.960  0.4207 -0.1973  0.0012
  622W        W 4141   3.783   7.274   4.226  0.1244 -0.0351  0.2374
  623W        W 4142   6.009   7.366   3.281 -0.1160 -0.2858  0.1670
  624W        W 4143   4.947   2.597   3.842 -0.1940  0.2197  0.4117
  625W        W 4144   2.442   0.685   8.995  0.3964  0.1624  0.2394
  626W        W 4145   5.763   4.357   0.935 -0.0661  0.2816 -0.0986
  627W        W 4146   0.330   0.520   1.291  0.2633  0.4194  0.3462
  628W        W 4147   9.286   0.935   0.225 -0.0097  0.1454 -0.0854
  629W        W 4148   4.280   8.977   1.386  0.0230  0.3911 -0.1518
  630W        W 4149   6.765   2.859  10.577  0.1827  0.3077 -0.2082
  631W        W 4150   3.766   5.370   2.102  0.1620  0.1938 -0.1233
  632W        W 4151   6.399   5.694   0.007 -0.2228 -0.0693 -0.1067
  633W        W 4152   4.826   7.647   1.931 -0.2457 -0.0818  0.0872
  634W        W 4153   9.028   7.026  10.019 -0.0916 -0.0151 -0.0954
  635W        W 4154   0.153   8.721  11.669 -0.0924 -0.1169 -0.2652
  636W        W 4155   1.262   0.946   1.994 -0.0827  0.0736 -0.0743
  637W        W 4156   3.481   9.014   3.349 -0.1427 -0.0277  0.2290
  638W        W 4157   7.523   7.529   0.370  0.0613 -0.1774  0.2373
  639W        W 4158   2.587   8.880   9.239  0.1858  0.0187  0.0744
  640W        W 4159   7.824   6.587   1.497  0.3078 -0.2028  0.2596
  641W        W 4160   0.362   3.879   8.068  0.1534 -0.3472 -0.2508
  642W        W 4161   1.504   6.822  12.052  0.1292  0.1187  0.2474
  643W        W 4162   7.402   0.280   0.087  0.4700 -0.4534 -0.0086
  644W        W 4163   2.893   8.648  11.978  0.4929 -0.1278  0.4651
  645W        W 4164   1.221   2.124  11.401  0.0694 -0.1440  0.1090
  646W        W 4165   6.766   5.634   0.821 -0.2846 -0.2070  0.0187
  647W        W 4166   0.409   5.511   9.893 -0.0769 -0.2744 -0.2277
  648W        W 4167   1.387   0.175   9.371  0.0364 -0.0821 -0.1049
  649W        W 4168   3.448   5.621   8.889 -0.3475 -0.1740 -0.3479
  650W        W 4169   6.497   7.588  10.308 -0.2307 -0.0257  0.1158
  651W        W 4170   7.120   0.500  10.995  0.1389  0.3909  0.1582
  652W        W 4171   0.787   2.976   0.166  0.1753 -0.2293  0.0370
  653W        W 4172   5.625   4.847   4.032 -0.1639  0.1540 -0.1118
  654W        W 4173   6.279   5.486  10.650 -0.0153 -0.0832 -0.2367
  655W        W 4174   1.596   1.461   3.429  0.1788 -0.1655  0.4717
  656W        W 4175   1.014   1.113   0.441 -0.1202  0.2373 -0.0760
  657W        W 4176   4.395   6.489   2.807 -0.2984 -0.0892 -0.1574
  658W        W 4177   3.821   7.627   0.147 -0.4302  0.3708  0.3245
  659W        W 4178   1.611   0.564   2.205 -0.2939  0.0400  0.3760
  660W        W 4179   9.329   5.797   2.885  0.2534  0.5852 -0.1980
  661W        W 4180   9.177   6.464   9.666 -0.2625 -0.0079 -0.0958
  662W        W 4181   9.084   6.150  11.478  0.1981 -0.1384 -0.2208
  663W        W 4182   0.584   9.704   3.718 -0.4249  0.0937  0.0622
  664W        W 4183   5.249   5.007   0.161 -0.1767  0.0182 -0.1364
  665W        W 4184   3.081   4.583   2.944 -0.2080  0.0229 -0.3221
  666W        W 4185   7.803   3.371   0.173 -0.2262 -0.0251 -0.4457
  667W        W 4186   6.659   8.619  10.512 -0.0350 -0.0451 -0.2440
  668W        W 4187   5.516   9.149  10.110  0.0567  0.1448  0.3742
  669W        W 4188   8.155   7.014   3.375 -0.3252 -0.1216 -0.0359
  670W        W 4189   2.366   3.444   8.671 -0.2730  0.0062 -0.1748
  671W        W 4190   3.001   0.648  11.386 -0.2693 -0.4303 -0.1632
  672W        W 4191   2.982   3.962  12.008 -0.0034  0.0614 -0.2059
  673W        W 4192   8.512   2.087   0.866  0.0977 -0.2053  0.2230
  674W        W 4193   2.144   2.405  10.365 -0.2980 -0.2655  0.0159
  675W        W 4194   3.860   1.393   7.557 -0.1283 -0.0421  0.3799
  676W        W 4195   0.725   1.721   1.063 -0.4364  0.1429  0.0800
  677W        W 4196   3.661   4.782  11.905 -0.0300 -0.0058  0.2157
  678W        W 4197   2.781   5.401   2.648 -0.2752 -0.1637  0.3730
  679W        W 4198   4.336   2.475   2.672  0.1144  0.2073 -0.0449
  680W        W 4199   6.458   8.437   0.105 -0.2427 -0.1607 -0.0343
  681W        W 4200   9.363   4.061  11.140 -0.1578 -0.0337 -0.0167
  682W        W 4201   0.554   2.283   8.587  0.3071 -0.0069 -0.0049
  683W        W 4202   4.842   6.590  10.266 -0.3007 -0.1098  0.2410
  684W        W 4203   7.661   8.520   3.377 -0.0334 -0.0361  0.1383
  685W        W 4204   9.074   1.768   2.808 -0.2086 -0.0787  0.1662
  686W        W 4205   0.511   9.475  11.106 -0.3984  0.0311  0.0931
  687W        W 4206   1.787   4.719  11.328 -0.2686  0.2595  0.0142
  688W        W 4207   5.612   9.373   3.349 -0.4234 -0.0540 -0.0611
  689W        W 4208   7.277   6.401   9.366  0.0446  0.3948  0.3319
  690W        W 4209   2.847   0.884   8.750 -0.0666  0.3061 -0.0352
  691W        W 4210   0.433   3.883   0.972  0.1984  0.2358  0.1291
  692W        W 4211   9.472   3.621   2.495 -0.3730  0.3371 -0.0833
  693W        W 4212   4.344   3.339   9.774 -0.3899  0.2379 -0.1427
  694W        W 4213   1.713   4.181   2.624 -0.1447  0.2448 -0.0313
  695W        W 4214   3.623   5.209   8.677  0.1524 -0.1715 -0.1133
  696W        W 4215   3.702   2.803  12.237 -0.3987  0.1130  0.1801
  697W        W 4216   6.721   5.630   2.583  0.1487 -0.2529 -0.0499
  698W        W 4217   4.628   9.729   0.762 -0.0237 -0.2658 -0.0401
  699W        W 4218   0.147   7.841   9.478 -0.3959 -0.5349  0.2554
  700W        W 4219   8.590   2.890  11.539  0.2372  0.0532 -0.0173
  701W        W 4220   5.763   7.144   2.921 -0.2732  0.0128  0.1211
  702W        W 4221   1.419   1.188   3.020  0.2307  0.1243 -0.0862
  703W        W 4222   9.458   6.369   0.573 -0.1544  0.2363  0.0061
  704W        W 4223   8.521   4.404   1.740 -0.0586  0.0672  0.1903
  705W        W 4224   1.166   4.437  11.361  0.1213  0.0930  0.2312
  706W        W 4225   5.996   2.473   2.603 -0.3580  0.0356 -0.2829
  707W        W 4226   6.795   7.051   2.230  0.0910 -0.1014  0.4774
  708W        W 4227   6.737   3.925   3.366 -0.0222  0.0630  0.3028
  709W        W 4228   9.566   1.020   1.733 -0.0058  0.0251 -0.0954
  710W        W 4229   1.263   5.628   2.452  0.1158  0.2147  0.0249
  711W        W 4230   3.413   7.474   2.273 -0.3380  0.0249 -0.0974
  712W        W 4231   0.689   7.572  12.021  0.1003  0.0570  0.1672
  713W        W 4232   9.508   6.771   1.169  0.1348 -0.0340 -0.0231
  714W        W 4233   0.481   4.036   1.405 -0.0476 -0.1687 -0.2571
  715W        W 4234   2.291   5.244   0.636  0.1948 -0.1262 -0.1328
  716W        W 4235   2.307   2.951   8.629 -0.0678 -0.3034 -0.1105
  717W        W 4236   6.340   9.442   7.916 -0.2472 -0.1960 -0.0961
  718W        W 4237   8.453   3.880  10.325 -0.0208  0.0798 -0.1698
  719W        W 4238   3.350   6.499   3.175  0.0317  0.0679 -0.2436
  720W        W 4239   5.660   1.142   3.327  0.0163 -0.0745  0.0841
  721W        W 4240   2.001   6.442   2.942 -0.1812 -0.2262 -0.0162
  722W        W 4241   6.932   2.731   0.345  0.1531  0.0744  0.1367
  723W        W 4242   5.729   0.844   0.064  0.2032  0.0125 -0.1786
  724W        W 4243   1.097   7.680   9.661 -0.4385 -0.1555 -0.4656
  725W        W 4244   5.239   3.725  10.405  0.1934  0.1816 -0.0062
  726W        W 4245   2.175   5.049  10.940 -0.1115 -0.3301 -0.1763
  727W        W 4246   1.648   8.360  11.341 -0.0149 -0.0639  0.1047
  728W        W 4247   3.188   1.073  11.085  0.0441  0.1620  0.1845
  729W        W 4248   5.373   6.906  10.935  0.4500  0.1465  0.1534
  730W        W 4249   8.654   8.323  10.452 -0.3667 -0.3891 -0.0260
  731W        W 4250   5.372   2.005  10.066  0.0169 -0.1710 -0.1914
  732W        W 4251   6.792   3.130   8.644 -0.1019  0.0270 -0.3779
  733W        W 4252   5.609   2.007   8.991  0.1442  0.3032 -0.3665
  734W        W 4253   5.726   6.140   8.613  0.0446  0.0246 -0.0321
  735W        W 4254   7.780   2.567   9.755 -0.0324  0.3783  0.1025
  736W        W 4255   1.515   9.622   1.574 -0.2274  0.1073  0.1375
  737W        W 4256   6.581   2.538  10.871  0.3201  0.0687 -0.0670
  738W        W 4257   6.209   5.459   3.711  0.2375 -0.1101 -0.1006
  739W        W 4258   3.334   7.591   9.907 -0.0492 -0.1916 -0.2415
  740W        W 4259   0.141   0.033   4.436  0.0624  0.3680 -0.0236
  741W        W 4260   3.705   3.473  11.464  0.2567 -0.5046  0.1166
  742W        W 4261   2.772   4.577   9.077 -0.3275 -0.1774  0.2677
  743W        W 4262   9.589   9.373   0.061 -0.0332  0.1422  0.0544
  744W        W 4263   9.276   8.318   0.050  0.0734 -0.2192 -0.0291
  745W        W 4264   3.101   2.752   0.364 -0.2164 -0.1273  0.1244
  746W        W 4265   4.660   2.317  11.086  0.2397 -0.0676  0.0001
  747W        W 4266   4.845   6.147   8.984  0.1756 -0.1282 -0.4018
  748W        W 4267   3.236   7.098  10.034  0.0264  0.0156  0.1027
  749W        W 4268   6.367   0.004   0.142  0.1220 -0.0355 -0.3018
  750W        W 4269   1.051   5.212   2.119 -0.1463  0.0611 -0.1014
  751W        W 4270   9.230   3.475   0.631  0.0232 -0.0067  0.2170
  752W        W 4271   7.913   2.588   8.529  0.0379 -0.0850  0.0050
  753W        W 4272   3.845   0.323   2.281  0.3961 -0.1061 -0.0005
  754W        W 4273   3.505   3.203   3.870 -0.3108 -0.0394  0.4629
  755W        W 4274   3.887   3.972  12.190  0.0731  0.3441  0.1993
  756W        W 4275   2.307   8.227   9.693  0.0033  0.0124  0.4162
  757W        W 4276   6.340   5.815   3.378  0.0529 -0.0930 -0.0434
  758W        W 4277   8.069   8.317  11.242  0.2465 -0.0377  0.0912
  759W        W 4278   8.997   8.449   1.919 -0.1931  0.3750 -0.0581
  760W        W 4279   6.647   0.872   0.634  0.2866  0.0139 -0.0255
  761W        W 4280   7.262   2.400  12.271 -0.1490  0.1134 -0.2484
  762W        W 4281   5.703   0.609   4.313 -0.3241  0.0179 -0.0720
  763W        W 4282   3.902   9.336   3.382  0.3538  0.1392  0.1431
  764W        W 4283   8.885   5.397  11.439 -0.0875 -0.1415 -0.2405
  765W        W 4284   8.056   3.549  10.484  0.2687  0.0021  0.0900
  766W        W 4285   3.233   9.563   2.248 -0.1410 -0.0386 -0.2402
  767W        W 4286   2.703   7.928   3.285  0.0023  0.0689  0.0240
  768W        W 4287   2.058   9.187   3.557  0.0888  0.1729  0.3079
  769W        W 4288   0.406   4.461   4.340 -0.1129 -0.0606 -0.2008
  770W        W 4289   4.909   1.285   2.360 -0.1827 -0.0475 -0.3632
  771W        W 4290   8.768   0.277   7.763 -0.0641 -0.0287 -0.1605
  772W        W 4291   2.871   3.394   2.727  0.2595 -0.0140  0.0905
  773W        W 4292   9.052   7.192   0.140 -0.1025  0.2043  0.0196
  774W        W 4293   3.783   7.810   0.620  0.1634 -0.1611 -0.1032
  775W        W 4294   5.224   7.138   3.014 -0.0569  0.0822 -0.3101
  776W        W 4295   0.488   7.159  10.024  0.2312 -0.3006  0.0633
  777W        W 4296   8.919   7.549   3.275  0.0462  0.4295  0.0613
  778W        W 4297   6.775   7.592   9.847  0.2312 -0.3253  0.3311
  779W        W 4298   5.806   4.181   9.795  0.4199 -0.0320  0.2225
  780W        W 4299   7.774   5.730   1.722 -0.2509  0.0788  0.1452
  781W        W 4300   5.333   2.801  10.716 -0.1845 -0.1933 -0.3498
  782W        W 4301   4.423   6.271   1.719  0.1201 -0.0267  0.0399
  783W        W 4302   9.727   3.155   0.721  0.0845  0.3084  0.4034
  784W        W 4303   4.634   9.081  10.326  0.1795 -0.4381 -0.0290
  785W        W 4304   5.277   1.850  11.496 -0.0180 -0.1403 -0.1716
  786W        W 4305   4.681   2.861  12.218 -0.0045  0.1870 -0.1757
  787W        W 4306   9.638   2.078  10.238  0.0017 -0.0706 -0.3398
  788W        W 4307   9.407   9.502  10.350  0.2222  0.0833  0.1230
  789W        W 4308   7.820   0.436   9.754  0.1452  0.1396 -0.0815
  790W        W 4309   7.966   1.903   1.639  0.0843  0.0598  0.1669
  791W        W 4310   3.043   6.846   8.436 -0.0534  0.1611  0.0265
  792W        W 4311   8.082   5.368   0.843 -0.2226  0.1560 -0.1138
  793W        W 4312   5.568   9.224   2.236 -0.2609 -0.4359 -0.1415
  794W        W 4313   8.072   2.097   8.555 -0.1811 -0.5300 -0.0199
  795W        W 4314   3.832   8.847   0.668 -0.2642 -0.1700  0.0220
  796W        W 4315   4.072   5.984   8.540  0.0618  0.3124 -0.1179
  797W        W 4316   0.593   1.847  11.330 -0.3141  0.0903  0.0109
  798W        W 4317   3.677   9.630   0.351 -0.2626  0.0746 -0.1994
  799W        W 4318   2.001   5.651   0.331  0.1544 -0.0628  0.2162
  800W        W 4319   9.292   7.937  11.202  0.1949 -0.1816  0.1841
  801W        W 4320   1.524   7.904   9.890 -0.0372  0.1976  0.2419
  802W        W 4321   6.196   0.754   3.929  0.1051  0.3579 -0.1701
  803W        W 4322   6.859   9.772  11.799  0.2512 -0.0292  0.2446
  804W        W 4323   5.989   0.056  10.571  0.1214  0.2398 -0.0091
  805W        W 4324   0.949   5.376   9.731  0.1950  0.3670  0.2193
  806W        W 4325   6.196   0.245   9.158  0.1333  0.0270 -0.3001
  807W        W 4326   4.867   6.299   3.044  0.0423 -0.1525 -0.2370
  808W        W 4327   0.690   1.198   3.299 -0.3612  0.0261 -0.2003
  809W        W 4328   0.366   5.910  11.323 -0.1268 -0.1917 -0.1505
  810W        W 4329   1.859   2.957   8.838  0.1487  0.1328 -0.0594
  811W        W 4330   1.706   3.877   9.652 -0.0132  0.3930 -0.0461
  812W        W 4331   8.275   3.977   8.862  0.1031  0.0095 -0.0433
  813W        W 4332   7.855   3.445   2.377 -0.1738  0.2407  0.0192
  814W        W 4333   2.601   5.519  10.725  0.0014 -0.1411 -0.1899
  815W        W 4334   2.694   4.336  10.450  0.1732  0.2499  0.3184
  816W        W 4335   3.899   8.045   9.051 -0.2664 -0.0127 -0.0004
  817W        W 4336   8.695   1.417   3.945 -0.2011 -0.1425  0.0668
  818W        W 4337   7.890   3.990   4.468 -0.2647  0.0248 -0.0946
  819W        W 4338   6.453   5.242   0.641 -0.0546  0.1805 -0.0190
  820W        W 4339   4.619   1.869   1.205 -0.1639 -0.0741  0.2489
  821W        W 4340   3.857   3.864  10.338  0.3722 -0.0174 -0.1748
  822W        W 4341   9.062   0.572   0.518  0.1698 -0.2573 -0.0148
  823W        W 4342   0.898   6.944   2.929  0.2911 -0.1224 -0.0219
  824W        W 4343   7.670   0.647   1.187  0.0626  0.1023  0.0919
  825W        W 4344   3.385   0.721   0.820  0.1515  0.3032 -0.4195
  826W        W 4345   1.283   5.932  10.810  0.1534 -0.2747  0.1697
  827W        W 4346   0.014   0.906  11.075 -0.1248 -0.1042  0.0425
  828W        W 4347   2.900   7.580   3.891 -0.0934  0.0013  0.0898
  829W        W 4348   7.538   9.329   3.441  0.0023  0.2206  0.0643
  830W        W 4349   4.552   0.611   1.804 -0.2293 -0.2766 -0.0097
  831W        W 4350   8.796   2.896   1.614  0.3033 -0.0313  0.1246
  832W        W 4351   7.242   8.586   9.681  0.2974  0.0929 -0.1641
  833W        W 4352   3.114   9.409  10.435  0.0755  0.0083  0.0164
  834W        W 4353   7.210   1.090   2.878  0.1440  0.2311  0.1272
  835W        W 4354   3.561   3.979   3.089 -0.0610  0.0188 -0.1610
  836W        W 4355   4.471   5.598   3.644  0.2030 -0.2210 -0.1869
  837W        W 4356   0.345   3.787  10.461 -0.2303  0.0689 -0.1338
  838W        W 4357   7.538   9.489  11.809  0.0632  0.1711  0.0507
  839W        W 4358   9.452   3.173   0.272 -0.0110  0.0523  0.1364
  840W        W 4359   2.665   9.510   9.466  0.0572  0.2354  0.0926
  841W        W 4360   0.665   8.409   0.852  0.3445  0.0075 -0.1769
  842W        W 4361   5.422   6.553   0.529  0.0026 -0.2712 -0.0119
  843W        W 4362   2.023   0.197   0.962  0.2255  0.1979 -0.0765
  844W        W 4363   7.397   4.426   1.628 -0.2148  0.0676  0.0599
  845W        W 4364   0.192   6.958  11.618 -0.0748  0.0176  0.1397
  846W        W 4365   9.085   1.319  12.265  0.3233  0.0828  0.0957
  847W        W 4366   1.809   1.123   1.462  0.2983 -0.1480 -0.1064
  848W        W 4367   1.443   5.098  11.395 -0.0119  0.2747  0.1204
  849W        W 4368   1.232   2.574   9.071  0.0161  0.0486  0.0961
  850W        W 4369   2.015   0.937   3.686  0.0142  0.1479  0.0997
  851W        W 4370   3.782   7.790   9.948  0.0581 -0.1953  0.0669
  852W        W 4371   1.535   5.691   0.590  0.1988  0.0979  0.0164
  853W        W 4372   5.089   8.346   8.076  0.0650  0.2606  0.0779
  854W        W 4373   2.946   6.393   2.931  0.0097 -0.0219 -0.1515
  855W        W 4374   5.561   3.078   0.262  0.3562 -0.2277  0.5026
  856W        W 4375   4.672   2.063   2.806 -0.0069  0.0114 -0.1849
  857W        W 4376   1.049   0.727  10.270 -0.4017  0.0422  0.2821
  858W        W 4377   5.276   1.588   9.747 -0.1856  0.1489 -0.1577
  859W        W 4378   1.590   3.200   0.810  0.2739 -0.1205  0.0982
  860W        W 4379   0.159   8.296   9.249  0.2176 -0.0058 -0.1777
  861W        W 4380   2.865   1.374   0.039  0.2956  0.0361  0.1383
  862W        W 4381   3.359   5.683  11.354 -0.1479 -0.0970 -0.1020
  863W        W 4382   4.426   8.339  11.821 -0.0219 -0.0995 -0.0347
  864W        W 4383   6.369   6.004  11.954 -0.1088  0.1422 -0.0378
  865W        W 4384   1.989   9.221   1.317  0.1376  0.2609 -0.2751
  866W        W 4385   5.966   8.351   9.741 -0.1433  0.1747  0.1648
  867W        W 4386   2.579   4.811   0.678  0.0122  0.2921  0.1013
  868W        W 4387   1.983   6.692  11.894  0.4421 -0.0604  0.0004
  869W        W 4388   7.663   8.903   9.572 -0.1205  0.4920  0.1677
  870W        W 4389   5.507   5.047   3.563 -0.0549 -0.0645  0.1581
  871W        W 4390   4.638   6.212  11.029 -0.0487  0.3942  0.0264
  872W        W 4391   4.703   9.549   3.939 -0.0373 -0.0131  0.1436
  873W        W 4392   7.424   0.422   1.698  0.0867 -0.0621  0.3377
  874W        W 4393   2.087   2.387   3.846  0.0242 -0.0151  0.2475
  875W        W 4394   1.209   0.908  11.869  0.1379 -0.0729  0.3437
  876W        W 4395   2.894   1.943   0.746  0.0643  0.2097 -0.1179
  877W        W 4396   0.655   8.756   0.446 -0.2301  0.1158 -0.0897
  878W        W 4397   2.920   0.390   0.673 -0.0716  0.1486 -0.2423
  879W        W 4398   9.511   6.855   9.882 -0.0171  0.1936 -0.1455
  880W        W 4399   2.071   0.371  10.870 -0.1347  0.1570 -0.1100
  881W        W 4400   3.379   3.558   0.567  0.1077  0.0020  0.1263
  882W        W 4401   2.440   4.299  12.276  0.1446 -0.0309  0.2711
  883W        W 4402   6.980   6.460   8.690  0.1132  0.0379 -0.2882
  884W        W 4403   5.841   2.744   0.566  0.1728  0.0690 -0.0674
  885W        W 4404   5.149   5.905   3.902 -0.0621 -0.2428  0.1910
  886W        W 4405   0.868   5.527   2.811 -0.3466  0.0977 -0.0777
  887W        W 4406   4.626   9.714   7.997  0.1429  0.2686 -0.3713
  888W        W 4407   0.546   1.497  11.761 -0.2940  0.0437  0.2863
  889W        W 4408   2.641   2.741   3.635 -0.0130  0.0972  0.1192
  890W        W 4409   4.472   7.033   9.452 -0.1166 -0.1023 -0.0481
  891W        W 4410   8.763   4.909   8.343 -0.2462 -0.3066 -0.3772
  892W        W 4411   7.529   4.857   1.874 -0.0253 -0.0388 -0.0598
  893W        W 4412   6.756   9.533  12.215  0.1680  0.1012 -0.0734
  894W        W 4413   9.043   2.346   9.504  0.0307 -0.1354  0.0741
  895W        W 4414   2.181   6.939   2.821 -0.0006  0.0275 -0.1930
  896W        W 4415   5.176   4.127   0.111  0.4774  0.1549  0.0295
  897W        W 4416   1.745   7.274   2.437 -0.0327  0.0512 -0.5014
  898W        W 4417   6.982   4.598   1.967  0.3710  0.0254 -0.2102
  899W        W 4418   4.723   4.682  11.040  0.0906 -0.1350  0.1278
  900W        W 4419   0.549   6.303   1.223 -0.2450  0.1717 -0.1361
  901W        W 4420   1.209   1.746   1.849 -0.0481 -0.0287  0.5706
  902W        W 4421   9.107   5.442   9.808  0.1846 -0.0854 -0.0008
  903W        W 4422   8.478   4.865   1.632 -0.1008  0.1197  0.0726
  904W        W 4423   0.053   9.105   9.438  0.1430 -0.0574  0.1330
  905W        W 4424   8.143   0.415  11.339 -0.1821 -0.0173 -0.2182
  906W        W 4425   4.966   8.660   3.121 -0.0321 -0.0416 -0.2681
  907W        W 4426   4.414   8.445   1.175 -0.2945 -0.3756 -0.0758
  908W        W 4427   3.035   1.331   8.716 -0.2283  0.0810  0.0638
  909W        W 4428   3.277   3.021  12.289  0.0193 -0.2405 -0.3705
  910W        W 4429   5.829   2.676   1.942  0.2524 -0.0523 -0.3337
  911W        W 4430   8.372   4.899   4.595  0.3141 -0.1067 -0.2016
  912W        W 4431   7.796   1.854   2.640 -0.0260 -0.2041 -0.0177
  913W        W 4432   2.797   8.182   9.712 -0.0871  0.1478 -0.0435
  914W        W 4433   1.962   5.328   3.100  0.0993  0.2431 -0.0985
  915W        W 4434   1.823   7.739  11.274 -0.0403  0.1082  0.1915
  916W        W 4435   0.854   9.203   0.876 -0.0425 -0.2225 -0.1055
  917W        W 4436   8.624   1.093   1.745  0.1979 -0.1815  0.1053
  918W        W 4437   4.445   0.380   9.458  0.3096 -0.1614 -0.0107
  919W        W 4438   3.855   2.373  11.997 -0.5798  0.0806 -0.0097
  920W        W 4439   7.161   6.297   0.060  0.2155  0.0847 -0.0069
  921W        W 4440   5.530   8.653   2.967  0.1414 -0.0937 -0.0258
  922W        W 4441   6.236   8.935  10.578  0.1943 -0.2857  0.2673
  923W        W 4442   8.471   8.192   1.055 -0.2838 -0.1735  0.2721
  924W        W 4443   7.228   6.885   3.659  0.1110  0.3007  0.2905
  925W        W 4444   2.100   8.691   9.591 -0.0996 -0.0118  0.0796
  926W        W 4445   6.275   8.579   2.532  0.0903  0.2755 -0.0339
  927W        W 4446   0.028   0.367   1.630  0.1575 -0.1593 -0.0755
  928W        W 4447   7.947   0.793  10.364 -0.0974  0.2170 -0.1362
  929W        W 4448   3.902   4.625   2.554 -0.1312  0.0878 -0.0023
  930W        W 4449   6.268   3.652  11.296 -0.2000  0.0243  0.0571
  931W        W 4450   2.511   7.801   9.950 -0.4305 -0.3824  0.1113
  932W        W 4451   9.357   5.726   3.607  0.1183 -0.2517  0.1163
  933W        W 4452   3.772   8.868   7.884 -0.2100 -0.2101 -0.0343
  934W        W 4453   0.587   5.810   1.542 -0.0778  0.2207  0.3514
  935W        W 4454   7.467   0.076   9.743  0.1216  0.1542 -0.0851
  936W        W 4455   5.327   8.271   2.061 -0.1548  0.0181 -0.2614
  937W        W 4456   3.881   7.959  11.106 -0.0160  0.0024  0.0880
  938W        W 4457   4.845   2.685   8.962  0.0547  0.0024  0.2543
  939W        W 4458   8.763   8.904  10.304 -0.0849 -0.2654  0.1927
  940W        W 4459   3.235   0.963   2.657  0.2131 -0.0985  0.1360
  941W        W 4460   5.842   5.790   4.045 -0.2391  0.0274  0.0579
  942W        W 4461   6.312   0.594   2.950 -0.2561  0.1852 -0.2364
  943W        W 4462   6.717   9.523   4.548  0.0464 -0.1545  0.3180
  944W        W 4463   6.484   0.531  12.184  0.2694 -0.5115 -0.1098
  945W        W 4464   8.735   6.873  11.192  0.1281  0.0741  0.1442
  946W        W 4465   5.453   2.751   4.199 -0.0296  0.0083  0.0583
  947W        W 4466   4.621   8.272  10.895  0.0475 -0.0838  0.1673
  948W        W 4467   7.959   9.139  10.755 -0.0244 -0.2128 -0.2342
  949W        W 4468   2.548   5.976   1.331 -0.1923  0.0680 -0.1576
  950W        W 4469   3.472   9.574   1.212 -0.1299 -0.1363 -0.2314
  951W        W 4470   6.953   9.396   0.936 -0.3409  0.1763  0.2477
  952W        W 4471   9.704   6.748  11.236 -0.0840 -0.0248  0.0136
  953W        W 4472   2.129   6.151   0.465 -0.2109 -0.1168  0.1045
  954W        W 4473   0.321   8.915   4.204  0.1523  0.0683  0.1164
  955W        W 4474   6.554   0.499   3.587  0.3027 -0.0377 -0.1243
  956W        W 4475   0.732   3.025   9.284 -0.0020 -0.0331 -0.2099
  957W        W 4476   6.301   9.760   9.745 -0.0971 -0.1912  0.0900
  958W        W 4477   6.336   0.994   8.454  0.0090  0.0328  0.0622
  959W        W 4478   9.101   2.972  11.669 -0.2121  0.0331  0.1218
  960W        W 4479   6.206   6.640   3.789 -0.0618 -0.2959  0.0951
  961W        W 4480   4.476   6.918   2.508  0.1899  0.1031  0.1294
  962W        W 4481   0.863   8.807   1.226 -0.2318 -0.0817  0.4363
  963W        W 4482   7.007   5.213   0.628  0.4541  0.2384 -0.1027
  964W        W 4483   4.995   1.462  11.776 -0.0579  0.0935  0.2263
  965W        W 4484   8.565   7.333   2.251 -0.4191  0.0443  0.4219
  966W        W 4485   2.985   1.304   3.627  0.0034  0.0359  0.3218
  967W        W 4486   7.490   7.936   9.249 -0.0936  0.3652  0.0591
  968W        W 4487   2.420   3.940   1.560  0.1418 -0.4759 -0.2234
  969W        W 4488   9.148   8.604  10.456 -0.2878  0.1768  0.1049
  970W        W 4489   9.368   8.297   3.537 -0.1451  0.0412  0.0520
  971W        W 4490   6.848   7.228   3.848 -0.0757  0.2982  0.1441
  972W        W 4491   3.287   4.895   3.804 -0.1671  0.0253  0.2455
  973W        W 4492   3.995   4.620   9.884  0.2836  0.0047  0.3011
  974W        W 4493   8.335   5.472  10.620 -0.3046  0.3059  0.2753
  975W        W 4494   3.735   1.645   0.245 -0.2288  0.2106 -0.1598
  976W        W 4495   8.857   8.817   9.285  0.4596  0.0422 -0.3405
  977W        W 4496   1.938   2.311   1.899 -0.0073 -0.1221 -0.0067
  978W        W 4497   3.614   7.512   2.741  0.1001  0.0411  0.0466
  979W        W 4498   9.367   4.316  11.966 -0.0985  0.0816 -0.2613
  980W        W 4499   7.001   9.445   3.525  0.3497  0.1744 -0.2553
  981W        W 4500   7.181   3.283  11.699  0.0743 -0.0212  0.0161
  982W        W 4501   8.547   8.985  11.659 -0.0807  0.3372  0.0690
  983W        W 4502   7.592   3.354   9.147  0.0623 -0.3393 -0.4520
  984W        W 4503   1.973   4.204   1.483  0.0221  0.0747  0.4549
  985W        W 4504   0.612   5.046   9.896 -0.0460  0.3521  0.0337
  986W        W 4505   7.297   6.095   0.868 -0.2403  0.1599 -0.1243
  987W        W 4506   2.792   2.993   3.206  0.0238  0.1162 -0.1122
  988W        W 4507   6.661   8.266   8.826 -0.2058 -0.1067 -0.0346
  989W        W 4508   4.484   2.640   2.216  0.4086  0.3572 -0.4411
  990W        W 4509   7.501   2.701   3.421 -0.4588 -0.1298  0.1891
  991W        W 4510   1.857   4.914  12.260 -0.0888 -0.0055 -0.1197
  992W        W 4511   5.980   8.654  12.001 -0.1908  0.4722 -0.0729
  993W        W 4512   5.127   8.786   0.495  0.0679 -0.1602 -0.1829
  994W        W 4513   4.296   4.915  10.898  0.0141 -0.0503  0.0584
  995W        W 4514   8.155   9.147   0.822  0.1494  0.1514  0.1270
  996W        W 4515   6.197   1.457   9.248  0.1718 -0.0225  0.1634
  997W        W 4516   1.387   0.487   8.922  0.1717 -0.2779 -0.1018
  998W        W 4517   7.623   4.932  10.546  0.2498 -0.2698 -0.1246
  999W        W 4518   6.069   8.560   9.016  0.2232  0.3164 -0.0736
 1000W        W 4519   1.619   8.254   9.151  0.3081  0.2266  0.4503
 1001W        W 4520   9.226   5.157  12.005  0.4111  0.2670  0.1600
 1002W        W 4521   5.491   6.433  10.851  0.2069  0.1881 -0.3007
 1003W        W 4522   0.844   9.221  10.855 -0.2705 -0.0715  0.0523
 1004W        W 4523   4.988   1.574  12.262 -0.1772 -0.0759  0.3722
 1005W        W 4524   6.467   0.464   8.466 -0.1375 -0.1524  0.2456
 1006W        W 4525   7.889   2.995   3.073 -0.1263  0.0064  0.2384
 1007W        W 4526   6.186   3.131   0.689  0.1874 -0.0454  0.0859
 1008W        W 4527   7.695   5.447  10.400 -0.1434  0.1429 -0.2014
 1009W        W 4528   0.771   2.205  10.288 -0.0817 -0.0497  0.1692
 1010W        W 4529   3.506   7.211   9.147  0.0030  0.1577  0.0762
 1011W        W 4530   4.081   9.772   8.854 -0.0366 -0.1860  0.0790
 1012W        W 4531   6.291   5.312   2.487  0.1650 -0.2108 -0.0868
 1013W        W 4532   7.519   2.147   9.713 -0.1872 -0.1684 -0.1450
 1014W        W 4533   8.645   4.097   2.645 -0.1099  0.3059 -0.0887
 1015W        W 4534   5.339   0.459  10.642  0.0878  0.2290 -0.2007
 1016W        W 4535   6.141   2.850   8.825 -0.3911  0.1777  0.0116
 1017W        W 4536   4.655   8.248   0.609  0.2709 -0.4105 -0.2550
 1018W        W 4537   6.668   4.593   9.453  0.0605  0.0151  0.1855
 1019W        W 4538   6.333   0.897  10.839  0.2762  0.2639 -0.0843
 1020W        W 4539   8.754   0.122   9.082 -0.0325  0.2446 -0.0772
 1021W        W 4540   2.707   2.052  11.454 -0.0119 -0.0715 -0.2429
 1022W        W 4541   4.483   8.750   3.007  0.0682 -0.4069 -0.2130
 1023W        W 4542   2.231   1.514   1.211 -0.3211  0.2510  0.0192
 1024W        W 4543   3.140   7.157  10.975  0.1556  0.2920 -0.0137
 1025W        W 4544   0.352   1.550   3.584  0.1650  0.2176  0.0443
 1026W        W 4545   9.089   5.376   1.315 -0.0448 -0.1703 -0.0736
 1027W        W 4546   5.710   1.656  10.029  0.3547 -0.1500 -0.1282
 1028W        W 4547   0.511   3.444   3.025 -0.0485 -0.0668  0.0205
 1029W        W 4548   2.525   5.584   0.222  0.2137 -0.0273 -0.0863
 1030W        W 4549   8.276   7.968   0.427  0.1579  0.2067  0.2950
 1031W        W 4550   7.162   4.906   2.892 -0.0568 -0.0879 -0.1407
 1032W        W 4551   0.857   1.199   0.986 -0.2195 -0.3083 -0.2331
 1033W        W 4552   2.947   2.815  11.958 -0.0626  0.0423 -0.0792
 1034W        W 4553   0.984   3.537   2.273  0.0584 -0.0854  0.0299
 1035W        W 4554   9.054   3.057   9.772 -0.3824  0.0676  0.2013
 1036W        W 4555   6.187   2.630  10.587  0.2426  0.3408  0.1311
 1037W        W 4556   2.384   1.162   0.852 -0.1745  0.0097  0.1345
 1038W        W 4557   7.300   7.984   0.128 -0.0461 -0.0305  0.0640
 1039W        W 4558   6.150   7.133   0.494 -0.3570 -0.0121 -0.0977
 1040W        W 4559   6.926   7.122  11.771  0.1390  0.3493  0.0398
 1041W        W 4560   4.222   2.680  12.163 -0.2155  0.1748 -0.3568
 1042W        W 4561   8.898   4.393   8.481 -0.1598  0.1694 -0.0289
 1043W        W 4562   9.073   7.111   3.905  0.0115  0.2774 -0.0651
 1044W        W 4563   7.515   8.445  10.932  0.0438  0.1140  0.2159
 1045W        W 4564   6.867   6.038  10.894  0.2230 -0.2012 -0.1518
 1046W        W 4565   4.564   0.006   1.352 -0.1833  0.0279 -0.1166
 1047W        W 4566   9.721   3.427   1.646 -0.1658 -0.0640  0.1730
 1048W        W 4567   3.680   5.835   9.259 -0.0199  0.0661 -0.0017
 1049W        W 4568   4.743   6.593   1.939  0.4292 -0.2208  0.1076
 1050W        W 4569   0.793   8.272   3.119  0.1845  0.0643 -0.1484
 1051W        W 4570   5.405   9.511   1.130  0.1237 -0.0557 -0.2273
 1052W        W 4571   9.322   1.563  11.933 -0.1328 -0.0782 -0.0143
 1053W        W 4572   6.877   1.021   9.143 -0.0243 -0.1426 -0.3594
 1054W        W 4573   5.609   7.698  11.600 -0.1770 -0.1350  0.0001
 1055W        W 4574   9.578   8.537  11.970  0.0848  0.1804  0.0802
 1056W        W 4575   4.948   3.005   2.980 -0.1310  0.2866  0.1353
 1057W        W 4576   1.734   5.877   3.878 -0.0358  0.3113  0.2911
 1058W        W 4577   3.160   8.791  11.115  0.2866  0.0560 -0.3779
 1059W        W 4578   3.894   8.146   0.223 -0.1905 -0.0579 -0.1964
 1060W        W 4579   3.100   1.914   9.427 -0.0667 -0.0760 -0.0205
 1061W        W 4580   7.376   9.048   1.823  0.3047 -0.0398  0.1580
 1062W        W 4581   4.685   9.354   0.476 -0.0414 -0.2966 -0.0647
 1063W        W 4582   9.620   8.198   9.690 -0.2032 -0.1906  0.0342
 1064W        W 4583   2.070   0.622   0.760 -0.1191 -0.1526 -0.1125
 1065W        W 4584   6.917   3.612   1.811  0.1612  0.0405 -0.2096
 1066W        W 4585   1.141   7.813   2.504  0.0357  0.2763  0.0409
 1067W        W 4586   0.544   9.492   4.616 -0.0881 -0.0850  0.0857
 1068W        W 4587   7.674   4.318   9.937  0.1991  0.0611  0.0807
 1069W        W 4588   3.709   8.949  11.223 -0.1286 -0.0895 -0.2079
 1070W        W 4589   5.914   7.992  10.392  0.1164  0.2839  0.1147
 1071W        W 4590   6.709   9.184  10.813 -0.1142  0.1951  0.0603
 1072W        W 4591   4.765   3.703  11.150 -0.0882 -0.3029 -0.1775
 1073W        W 4592   6.648   3.011   7.537  0.1269  0.1369 -0.0373
 1074W        W 4593   7.801   5.497   3.386 -0.0206 -0.2537  0.0431
 1075W        W 4594   9.693   7.534   2.743  0.0003 -0.1103 -0.1942
 1076W        W 4595   2.771   0.644   9.338  0.0444 -0.2317 -0.0549
 1077W        W 4596   0.637   1.515   0.618 -0.1353 -0.0551  0.0725
 1078W        W 4597   7.245   6.020   2.597 -0.2599  0.0283 -0.0431
 1079W        W 4598   3.106   6.215   4.195  0.1514 -0.3217 -0.0301
 1080W        W 4599   7.208   4.459  11.266  0.0400  0.1686 -0.1548
 1081W        W 4600   3.251   5.330   9.261 -0.0367  0.2717 -0.0780
 1082W        W 4601   1.754   1.411   3.903 -0.0200 -0.4903  0.1293
 1083W        W 4602   2.446   1.675  10.618 -0.0322 -0.0225 -0.1064
 1084W        W 4603   8.049   7.849  10.471 -0.0602 -0.2752  0.1945
 1085W        W 4604   4.216   0.315  10.797 -0.0076 -0.1611  0.1868
 1086W        W 4605   2.928   3.739   2.373 -0.0780 -0.0410 -0.2810
 1087W        W 4606   3.207   7.023   0.529 -0.1160 -0.1477 -0.0839
 1088W        W 4607   5.794   0.050   3.128  0.1957 -0.0755  0.1008
 1089W        W 4608   9.121   3.008   0.607  0.0301  0.3099  0.1626
 1090W        W 4609   4.556   2.830   4.020  0.0221 -0.0379  0.1836
 1091W        W 4610   6.479   1.767  10.282  0.1315 -0.3160  0.1829
 1092W        W 4611   2.474   2.554   1.309  0.1431  0.2528 -0.3159
 1093W        W 4612   1.776   8.891   1.000  0.1754 -0.1590 -0.0216
 1094W        W 4613   1.886   7.008  10.878  0.0052 -0.1696  0.0446
 1095W        W 4614   3.146   3.135   2.408 -0.2667  0.2204 -0.1512
 1096W        W 4615   1.370   6.541   0.277  0.1499 -0.0173  0.2207
 1097W        W 4616   9.349   0.213   1.818  0.1679 -0.2828 -0.0510
 1098W        W 4617   4.518   6.909  10.707 -0.0980 -0.0530 -0.0395
 1099W        W 4618   3.203   3.360   3.075  0.0534 -0.1345 -0.1278
 1100W        W 4619   4.360   4.705   4.014  0.1262  0.1051 -0.4054
 1101W        W 4620   3.986   0.468  10.222  0.1810  0.1374 -0.1711
 1102W        W 4621   7.129   8.858   3.255  0.0245 -0.1933 -0.3974
 1103W        W 4622   0.885   1.291   8.832  0.4226  0.3545 -0.0177
 1104W        W 4623   2.913   1.359   0.547 -0.0752 -0.0423  0.0326
 1105W        W 4624   0.914   4.175   3.467  0.0380 -0.4546 -0.0962
 1106W        W 4625   7.037   2.896  10.081 -0.2615  0.1107  0.0809
 1107W        W 4626   4.713   8.523  10.296 -0.0625  0.1091  0.0554
 1108W        W 4627   3.810   1.993   0.585  0.3109 -0.2027 -0.2226
 1109W        W 4628   1.500   9.743   0.585  0.1403  0.2560 -0.0601
 1110W        W 4629   4.861   4.562   4.133  0.0825 -0.0424  0.1105
 1111W        W 4630   0.817   8.874   9.964  0.2209 -0.0156  0.2457
 1112W        W 4631   2.864   3.806  11.060 -0.0269 -0.3589 -0.0908
 1113W        W 4632   2.925   1.539  10.427  0.1434  0.0667 -0.0195
 1114W        W 4633   4.790   8.989   0.765 -0.0051  0.0460  0.0840
 1115W        W 4634   7.514   7.015   0.053  0.0076 -0.0014 -0.5627
 1116W        W 4635   4.016   8.044   1.201 -0.2583  0.2140 -0.0612
 1117W        W 4636   2.345   2.142   2.220  0.0098 -0.0851 -0.0097
 1118W        W 4637   8.613   7.971  11.706 -0.0515  0.0600  0.1400
 1119W        W 4638   2.562   8.775   3.363  0.1931 -0.1872 -0.3718
 1120W        W 4639   4.513   9.059   3.877 -0.1333  0.2213  0.1389
 1121W        W 4640   2.551   6.474   0.416 -0.0658  0.1633  0.1363
 1122W        W 4641   0.039   4.246   3.084 -0.1003 -0.2143 -0.0312
 1123W        W 4642   1.673   6.301  12.112  0.1242 -0.3152 -0.3145
 1124W        W 4643   7.740   1.511   9.245  0.2687  0.1552  0.2989
 1125W        W 4644   0.573   0.028   0.454  0.0592 -0.0681  0.0078
 1126W        W 4645   2.802   3.823   9.724  0.0048 -0.0727 -0.3669
 1127W        W 4646   2.622   2.845   0.390 -0.1388  0.1070 -0.0996
 1128W        W 4647   6.648   8.746   3.012  0.1787 -0.2128 -0.0623
 1129W        W 4648   3.167   3.739   8.954 -0.3783 -0.1562  0.0404
 1130W        W 4649   0.122   8.382   1.693 -0.1582 -0.2944 -0.1123
 1131W        W 4650   1.323   5.897   3.563 -0.0019  0.2534  0.2325
 1132W        W 4651   9.416   1.137   7.838 -0.0515 -0.2047 -0.4576
 1133W        W 4652   2.959   1.462   4.108 -0.2144 -0.0497 -0.0171
 1134W        W 4653   7.726   1.430  11.742 -0.1823 -0.3384 -0.3701
 1135W        W 4654   0.908   5.680  12.094  0.1467  0.1583 -0.1585
 1136W        W 4655   9.523   3.203  11.758 -0.0814 -0.2711 -0.1531
 1137W        W 4656   4.126   2.339  10.159  0.0879 -0.0186 -0.0717
 1138W        W 4657   4.022   9.309   2.210 -0.3954 -0.1178  0.0210
 1139W        W 4658   5.270   2.139   8.051  0.1023 -0.1554 -0.2137
 1140W        W 4659   1.164   6.539   9.778 -0.0476  0.1072  0.1292
 1141W        W 4660   8.395   1.454  11.439 -0.0046  0.0991 -0.0983
 1142W        W 4661   9.678   7.900   0.611 -0.2459  0.0004 -0.0885
 1143W        W 4662   3.379   4.805   9.058  0.0688 -0.0501  0.3085
 1144W        W 4663   5.138   0.146  11.945  0.2991  0.2117  0.1671
 1145W        W 4664   1.103   4.262  11.870  0.2883  0.0284  0.0642
 1146W        W 4665   5.039   1.782   2.571 -0.1779 -0.0351 -0.0648
 1147W        W 4666   4.951   2.413   9.633  0.1057  0.2766  0.1167
 1148W        W 4667   1.550   5.086   2.003  0.0409 -0.1712  0.5421
 1149W        W 4668   1.025   3.599   3.700 -0.0098  0.1545 -0.0238
 1150W        W 4669   2.259   3.682   9.899  0.0365  0.3669 -0.0283
 1151W        W 4670   7.202   9.691   8.099  0.2559 -0.1164  0.3207
 1152W        W 4671   3.488   8.217   1.104 -0.0124  0.0838  0.0308
 1153W        W 4672   4.191   1.827  11.709  0.2822 -0.1172 -0.1375
 1154W        W 4673   8.019   6.163  11.388 -0.1464 -0.0826  0.0339
 1155W        W 4674   6.524   6.547   0.986  0.0286  0.0709 -0.0977
 1156W        W 4675   5.589   4.580   1.442  0.1525 -0.3479 -0.0355
 1157W        W 4676   4.671   7.314  11.448  0.0327 -0.2166 -0.1096
 1158W        W 4677   7.026   4.263  10.800 -0.4206  0.0693 -0.0074
 1159W        W 4678   9.622   8.287  10.302 -0.1151  0.0295 -0.1624
 1160W        W 4679   1.607   8.562  10.823 -0.0582 -0.5091 -0.2857
 1161W        W 4680   6.878   3.807   9.029  0.3308 -0.1371 -0.1618
 1162W        W 4681   9.202   9.674   0.183 -0.4094 -0.0684  0.0197
 1163W        W 4682   0.725   7.739   2.852 -0.1751 -0.3143  0.2154
 1164W        W 4683   3.182   8.332   2.350 -0.2311 -0.1179 -0.0336
 1165W        W 4684   0.118   0.676   9.388  0.0986  0.2047  0.2076
 1166W        W 4685   0.945   3.311   9.657 -0.1089  0.0896  0.0724
 1167W        W 4686   5.523   6.173  11.467  0.1252  0.0477 -0.2809
 1168W        W 4687   9.226   6.065  10.745 -0.0233  0.1309  0.2066
 1169W        W 4688   0.977   1.678  11.585 -0.1462 -0.3254 -0.1334
 1170W        W 4689   6.953   7.569  11.498 -0.0273 -0.0943  0.0259
 1171W        W 4690   6.558   0.143  11.343 -0.1934  0.1126 -0.2434
 1172W        W 4691   0.547   0.479  11.647 -0.1599  0.0065 -0.0679
 1173W        W 4692   9.634   0.195   8.200  0.0534  0.3956  0.1675
 1174W        W 4693   4.993   8.088   9.497  0.1172 -0.2412 -0.0407
 1175W        W 4694   3.616   4.442   8.757 -0.2558 -0.1137 -0.0300
 1176W        W 4695   6.904   1.623   1.176 -0.0956  0.2277  0.0108
 1177W        W 4696   1.050   4.443  10.276  0.0003  0.1362 -0.3056
 1178W        W 4697   3.868   3.394   1.208 -0.1096  0.0844 -0.0201
 1179W        W 4698   7.288   5.629   0.153 -0.0073  0.1360 -0.0654
 1180W        W 4699   7.111   5.347   8.348  0.0246  0.0339  0.2815
 1181W        W 4700   9.315   6.462  10.181 -0.3096  0.1796 -0.2589
 1182W        W 4701   2.915   0.446   0.141  0.0660  0.1528  0.2633
 1183W        W 4702   6.873   9.252   9.182 -0.2292  0.4736  0.0386
 1184W        W 4703   9.250   5.968   9.737  0.1078 -0.2537  0.0048
 1185W        W 4704   5.970   4.972   3.704 -0.0655 -0.3178  0.2404
 1186W        W 4705   5.703   8.401   4.305 -0.2701  0.1008  0.2641
 1187W        W 4706   0.882   5.012  11.439 -0.1476  0.1099 -0.2712
 1188W        W 4707   2.836   3.123   1.208  0.1435 -0.2301  0.2301
 1189W        W 4708   9.191   3.199   3.426  0.0336 -0.0180 -0.1080
 1190W        W 4709   5.402   5.092   0.672 -0.2317  0.0425  0.3149
 1191W        W 4710   3.848   3.900   3.641 -0.1285 -0.3263 -0.0553
 1192W        W 4711   9.661   3.782   3.126 -0.1209  0.0520  0.1962
 1193W        W 4712   3.638   5.507   0.709  0.0089 -0.1586  0.1866
 1194W        W 4713   2.249   2.122   1.544 -0.1921 -0.0716  0.2997
 1195W        W 4714   3.305   3.705  10.343  0.3545 -0.1342  0.1684
 1196W        W 4715   5.112   2.590  11.996  0.1119  0.0904 -0.4088
 1197W        W 4716   7.662   0.565  10.709  0.1789  0.1618  0.2221
 1198W        W 4717   3.316   7.309   3.111 -0.0305 -0.0036 -0.3795
 1199W        W 4718   9.141   9.545   8.891  0.0597 -0.1465  0.3494
 1200W        W 4719   3.171   7.590   9.076  0.1647  0.0749 -0.3031
 1201W        W 4720   9.298   3.362   9.338 -0.1346 -0.0153 -0.2484
 1202W        W 4721   6.201   3.990  10.221  0.1470  0.0663  0.2774
 1203W        W 4722   4.104   4.988  11.901  0.2134 -0.0856  0.0538
 1204W        W 4723   7.971   6.452   3.774  0.2673 -0.1417  0.0089
 1205W        W 4724   6.244   5.468  11.671 -0.1654 -0.1387  0.0407
 1206W        W 4725   1.761   1.668   9.907 -0.0169  0.0233  0.0360
 1207W        W 4726   5.435   7.054   9.937  0.1617  0.0300 -0.0404
 1208W        W 4727   0.917   8.446  10.168 -0.2487 -0.5069  0.0869
 1209W        W 4728   4.907   7.083  10.961  0.0111  0.0645  0.0225
 1210W        W 4729   1.384   7.928   2.921  0.0300 -0.3918 -0.0316
 1211W        W 4730   4.468   4.982  11.492 -0.0993  0.1319 -0.2436
 1212W        W 4731   8.973   2.633   2.443 -0.0719 -0.0262  0.0025
 1213W        W 4732   8.436   5.489  11.775  0.1110  0.0456  0.1380
 1214W        W 4733   7.717   9.098   1.127  0.3366  0.0127  0.1969
 1215W        W 4734   4.162   0.778   9.781  0.0336 -0.1718 -0.2799
 1216W        W 4735   9.381   8.041  11.961 -0.2229 -0.1473 -0.1757
 1217W        W 4736   4.062   7.705   4.074 -0.2517 -0.1139 -0.1189
 1218W        W 4737   2.793   3.542   3.272  0.3990  0.0969 -0.1829
 1219W        W 4738   3.254   0.140   0.950  0.0491 -0.0104 -0.2594
 1220W        W 4739   5.723   1.517   8.559 -0.1016 -0.1000 -0.3257
 1221W        W 4740   0.638   7.681   8.949  0.1369  0.1629 -0.0889
 1222W        W 4741   1.953   6.364  11.466  0.3176 -0.1345  0.1017
 1223W        W 4742   4.708   2.880   1.233  0.1709 -0.0541 -0.1314
 1224W        W 4743   6.865   8.233   0.351  0.0168 -0.2518  0.2596
 1225W        W 4744   1.564   6.923   0.561  0.1134 -0.2397 -0.2061
 1226W        W 4745   0.089   2.521   8.780 -0.0203  0.3142  0.2194
 1227W        W 4746   3.358   8.097   9.759  0.1330  0.2266 -0.1218
 1228W        W 4747   7.954   3.805  11.607 -0.1122 -0.0527 -0.0346
 1229W        W 4748   4.320   4.469   0.509 -0.1143 -0.0156 -0.0221
 1230W        W 4749   3.862   0.898   1.275 -0.2398 -0.0627  0.2780
 1231W        W 4750   6.891   0.780   8.480  0.2360  0.3523 -0.2907
 1232W        W 4751   7.134   7.258   2.510 -0.2826 -0.0832 -0.0704
 1233W        W 4752   6.053   0.052   1.675 -0.0286 -0.0180  0.0441
 1234W        W 4753   7.951   5.053   5.000 -0.1873 -0.0848  0.0516
 1235W        W 4754   5.220   3.849   2.051  0.0165 -0.0346  0.0393
 1236W        W 4755   5.203   5.933  11.139  0.2949 -0.1569  0.1338
 1237W        W 4756   8.855   8.424   3.472  0.1187 -0.1189 -0.0348
 1238W        W 4757   9.424   4.988   2.814 -0.0347  0.1773  0.0481
 1239W        W 4758   3.434   0.421   3.864 -0.1641 -0.2381  0.0631
 1240W        W 4759   9.670   0.797   7.516 -0.0999 -0.1168  0.0392
 1241W        W 4760   7.755   7.035   1.302  0.4474  0.3342  0.3107
 1242W        W 4761   1.407   0.652  11.520 -0.2381 -0.2493  0.5707
 1243W        W 4762   4.976   1.730   3.624 -0.1714 -0.4190  0.3272
 1244W        W 4763   6.918   5.982   9.479  0.5666 -0.2805  0.0782
 1245W        W 4764   7.796   9.575   2.848 -0.2328 -0.2968 -0.2885
 1246W        W 4765   1.496   0.364   0.881  0.0540  0.0303 -0.3700
 1247W        W 4766   4.211   3.688  11.362 -0.0523  0.1125 -0.2280
 1248W        W 4767   6.206   6.122   0.903  0.0037 -0.3373 -0.1815
 1249W        W 4768   4.346   1.130   1.278 -0.2973 -0.4010 -0.0579
 1250W        W 4769   3.617   3.007  11.465  0.2423  0.0551 -0.0866
 1251W        W 4770   4.079   5.435  11.733 -0.1243  0.0956 -0.1286
 1252W        W 4771   0.530   0.443   9.427 -0.2239 -0.0925  0.2881
 1253W        W 4772   5.711   2.453   1.331  0.3615  0.1059 -0.1507
 1254W        W 4773   3.509   0.046  10.142  0.2795 -0.1090 -0.1573
 1255W        W 4774   0.099   1.641  11.981 -0.1862 -0.2745  0.0830
 1256W        W 4775   7.333   6.190  10.874 -0.0838  0.1552 -0.0889
 1257W        W 4776   4.007   6.238   0.084  0.1598 -0.1322  0.0347
 1258W        W 4777   5.464   3.511   8.464  0.2704  0.0647 -0.1345
 1259W        W 4778   4.244   4.326  11.554  0.3589  0.3872  0.0427
 1260W        W 4779   9.259   4.119   2.723  0.1023  0.1031  0.0931
 1261W        W 4780   5.760   3.821   0.804 -0.2052 -0.0792  0.2419
 1262W        W 4781   9.389   5.585   9.422  0.2613 -0.0548 -0.2865
 1263W        W 4782   8.861   0.261  10.504  0.1949 -0.2123 -0.4161
 1264W        W 4783   0.520   7.880   3.333  0.0379 -0.0564 -0.0844
 1265W        W 4784   7.145   9.759   2.324  0.0595  0.3044 -0.0702
 1266W        W 4785   9.485   7.259   1.361 -0.1179  0.0578  0.0105
 1267W        W 4786   4.693   3.584   4.363 -0.0366  0.0747 -0.0112
 1268W        W 4787   5.717   5.705   8.881  0.2450  0.0484  0.1561
 1269W        W 4788   7.566   9.469   0.021  0.0045  0.0675  0.1300
 1270W        W 4789   8.714   8.351   0.438  0.0139  0.1041 -0.0447
 1271W        W 4790   4.599   2.012  11.489  0.0075  0.2474 -0.1172
 1272W        W 4791   7.416   6.227   3.487 -0.0114  0.0843  0.2871
 1273W        W 4792   0.122   3.094   2.840  0.0929 -0.0665 -0.0930
 1274W        W 4793   2.792   0.193   1.352  0.3323  0.0044 -0.1976
 1275W        W 4794   1.919   4.301   9.847 -0.0099  0.1209 -0.0233
 1276W        W 4795   7.648   2.522   2.396  0.0458 -0.1978 -0.1139
 1277W        W 4796   9.502   0.060   1.397  0.0562 -0.0147 -0.2530
 1278W        W 4797   4.818   3.120   8.840  0.0134  0.1296 -0.1800
 1279W        W 4798   1.123   7.297   2.390  0.2005  0.0068 -0.0023
 1280W        W 4799   7.134   5.893   1.796  0.1315  0.0239 -0.1987
 1281W        W 4800   3.648   5.142   2.528 -0.0559 -0.0220 -0.2682
 1282W        W 4801   1.985   4.045  11.559 -0.0028 -0.0630 -0.0403
 1283W        W 4802   6.945   8.693   0.093  0.0803  0.0125 -0.1335
 1284W        W 4803   6.757   6.461  11.116 -0.0653 -0.2110 -0.3210
 1285W        W 4804   4.194   2.444   0.582  0.0506 -0.0257  0.0286
 1286W        W 4805   3.783   6.683  12.239 -0.2266  0.0060  0.2455
 1287W        W 4806   1.628   4.852   1.365  0.2640  0.0228  0.1502
 1288W        W 4807   5.606   6.621   8.728  0.1658  0.0507 -0.0279
 1289W        W 4808   8.709   1.790   3.491 -0.0577 -0.2078 -0.2984
 1290W        W 4809   2.635   1.695   1.954  0.4156 -0.0601  0.2170
 1291W        W 4810   7.793   1.467  10.142  0.2404 -0.1527  0.2789
 1292W        W 4811   7.433   2.496  10.090  0.1325  0.1414 -0.4178
 1293W        W 4812   4.788   7.751   0.497 -0.3470 -0.0593  0.1133
 1294W        W 4813   5.324   4.976   2.271 -0.3536 -0.1100  0.1033
 1295W        W 4814   5.000   2.210   0.084 -0.2645 -0.0711  0.0602
 1296W        W 4815   2.056   8.414   0.375  0.0175  0.0884 -0.1975
 1297W        W 4816   4.189   4.750   3.588  0.2812  0.2234  0.1152
 1298W        W 4817   8.603   2.536   3.364 -0.0140  0.1045 -0.4318
 1299W        W 4818   3.633   3.336   0.204  0.0433 -0.0465  0.0727
 1300W        W 4819   0.827   0.475   1.191 -0.1156  0.0381 -0.0525
 1301W        W 4820   5.327   4.558  11.104 -0.1337  0.1832  0.0642
 1302W        W 4821   3.213   5.662   1.511 -0.0544 -0.2468 -0.2500
 1303W        W 4822   5.566   5.683  11.336 -0.0375 -0.2306  0.0111
 1304W        W 4823   1.682   9.771   2.952 -0.2238 -0.0316 -0.2652
 1305W        W 4824   2.168   5.757   1.613 -0.1409 -0.0709 -0.1329
 1306W        W 4825   1.646   7.856  10.388  0.1274 -0.1052 -0.1870
 1307W        W 4826   8.782   1.544  11.823 -0.3939 -0.1080  0.2537
 1308W        W 4827   2.181   1.506  10.154  0.1908 -0.2533  0.1568
 1309W        W 4828   5.291   9.015   2.645  0.1624 -0.0551 -0.0474
 1310W        W 4829   9.764   0.649   2.130  0.0573 -0.1351 -0.1114
 1311W        W 4830   6.320   5.414  11.148 -0.1382  0.1660 -0.1796
 1312W        W 4831   5.034   3.310  11.300  0.2546 -0.1230  0.0664
 1313W        W 4832   5.969   4.389   3.880 -0.0307 -0.1279 -0.2241
 1314W        W 4833   6.036   4.776   0.852  0.1731 -0.0568  0.0753
 1315W        W 4834   8.308   4.065   0.563  0.1013  0.0197  0.1039
 1316W        W 4835   1.231   7.444   2.866 -0.1547  0.0276 -0.1306
 1317W        W 4836   0.507   3.264   2.422 -0.0722  0.0985  0.0378
 1318W        W 4837   5.842   1.245  12.097 -0.0440  0.0502 -0.2919
 1319W        W 4838   9.463   5.761  10.171  0.1923 -0.0115 -0.1083
 1320W        W 4839   4.471   3.017   2.938 -0.2672  0.1557 -0.1761
 1321W        W 4840   8.400   6.508   4.076  0.2711 -0.0479 -0.0473
 1322W        W 4841   0.398   5.899   2.178 -0.2816  0.1752  0.0665
 1323W        W 4842   0.636   3.784   2.519 -0.0552  0.2212 -0.1843
 1324W        W 4843   2.373   1.167   4.589 -0.0644  0.0597 -0.0395
 1325W        W 4844   7.274   3.141   3.243 -0.1760 -0.0716  0.2103
 1326W        W 4845   3.547   6.838   9.781 -0.2616  0.0274 -0.0907
 1327W        W 4846   6.943   4.176   9.426 -0.1774  0.2103  0.1254
 1328W        W 4847   5.752   0.745  11.304  0.1272 -0.0814 -0.2927
 1329W        W 4848   3.386   3.596   2.588 -0.0334  0.2274  0.2218
 1330W        W 4849   1.050   4.176   0.609 -0.1634 -0.0682  0.1885
 1331W        W 4850   2.206   9.222  11.671  0.0879  0.2327  0.0271
 1332W        W 4851   5.245   3.793  11.012  0.1463 -0.0017  0.1610
 1333W        W 4852   7.627   0.023   4.408 -0.1447  0.1035  0.0291
 1334W        W 4853   2.865   6.455  11.176 -0.4231 -0.0940 -0.1202
 1335W        W 4854   4.229   3.537   2.321 -0.0292 -0.2156  0.1298
 1336W        W 4855   0.786   3.771   9.594  0.2025  0.2439 -0.1697
 1337W        W 4856   4.861   1.628   1.974  0.1104  0.2048  0.2124
 1338W        W 4857   6.954   8.536   2.621 -0.0799  0.2073 -0.0425
 1339W        W 4858   0.120   1.948   3.838  0.0853  0.1093 -0.0760
 1340W        W 4859   5.965   1.546   2.502 -0.0165  0.1265  0.2283
 1341W        W 4860   6.492   8.639   1.396 -0.1166 -0.3936 -0.0293
 1342W        W 4861   0.367   8.915   2.483 -0.1416  0.0748  0.0227
 1343W        W 4862   5.212   2.216   2.615 -0.0104  0.0409  0.1079
 1344W        W 4863   4.571   1.194   0.712 -0.3902  0.0468  0.0620
 1345W        W 4864   8.747   6.643   2.708  0.1606 -0.1903  0.0639
 1346W        W 4865   1.676   0.117  10.542 -0.0789  0.2642 -0.1658
 1347W        W 4866   0.781   1.082   9.759 -0.1257  0.1493 -0.0503
 1348W        W 4867   5.450   0.158   4.389 -0.0392 -0.1550  0.0733
 1349W        W 4868   6.179   1.457   4.318 -0.2292 -0.1475 -0.0541
 1350W        W 4869   2.656   7.082   1.868 -0.1566  0.1076 -0.0372
 1351W        W 4870   7.393   8.461   2.303  0.1497  0.0969  0.0076
 1352W        W 4871   9.590   2.380   1.844  0.4152  0.0298 -0.0499
 1353W        W 4872   0.478   5.669  10.833  0.1227 -0.3390  0.2921
 1354W        W 4873   8.188   0.281   0.381 -0.1160 -0.1559  0.1040
 1355W        W 4874   7.413   6.244  11.426  0.0325  0.0665 -0.1765
 1356W        W 4875   1.178   3.279   0.028 -0.1379  0.0296  0.2309
 1357W        W 4876   3.304   8.070   0.652 -0.1469  0.1650 -0.0365
 1358W        W 4877   8.663   3.249   0.656 -0.2640 -0.0419 -0.2298
 1359W        W 4878   6.902   5.741   4.413  0.2769 -0.0497 -0.0576
 1360W        W 4879   0.241   0.205   2.459  0.2707 -0.2376  0.1593
 1361W        W 4880   4.838   5.490   8.845  0.1517 -0.1242  0.3283
 1362W        W 4881   5.097   1.906  11.033  0.0574 -0.1275  0.0952
 1363W        W 4882   0.987   4.609   3.030  0.0125  0.0500 -0.0286
 1364W        W 4883   0.010   0.076   0.520  0.0951 -0.1216 -0.1403
 1365W        W 4884   0.759   0.246   2.351 -0.2172 -0.1477 -0.2960
 1366W        W 4885   9.480   2.813  11.380 -0.1425  0.0863  0.3282
 1367W        W 4886   8.567   6.637  10.797  0.0586 -0.0121  0.1859
 1368W        W 4887   9.007   9.594  10.636  0.1353  0.2276 -0.1625
 1369W        W 4888   3.889   5.088   1.680  0.3138  0.2129 -0.1892
 1370W        W 4889   3.033   8.369   1.093 -0.0899 -0.1696  0.0390
 1371W        W 4890   1.310   0.892  11.059 -0.0587 -0.0444 -0.0002
 1372W        W 4891   2.845   9.378  12.302 -0.2006  0.0518 -0.1702
 1373W        W 4892   5.895   5.750   0.074 -0.4303  0.2337  0.0420
 1374W        W 4893   6.510   6.164   3.667  0.0326 -0.0143 -0.0315
 1375W        W 4894   1.793   7.496  10.755 -0.1069  0.4004  0.2166
 1376W        W 4895   6.885   1.211   0.887  0.2547  0.0205 -0.1560
 1377W        W 4896   9.061   2.978   8.130  0.2108 -0.4790 -0.0628
 1378W        W 4897   0.418   7.875  11.691  0.3355  0.3356 -0.2426
 1379W        W 4898   7.678   2.103  12.234 -0.2333  0.0653 -0.5416
 1380W        W 4899   0.328   3.952   0.498 -0.0852 -0.1568 -0.2720
 1381W        W 4900   5.001   5.816  10.245 -0.0241  0.1145 -0.1797
 1382W        W 4901   6.414   1.279   2.521 -0.1037 -0.0919 -0.0511
 1383W        W 4902   9.188   5.741  11.691  0.2395  0.2634  0.0015
 1384W        W 4903   5.872   1.458   3.920 -0.2146  0.1498  0.0448
 1385W        W 4904   8.848   6.847   0.533  0.0137 -0.1793 -0.0372
 1386W        W 4905   1.555   3.673   1.037  0.1219  0.1911  0.1963
 1387W        W 4906   8.355   9.533  10.492  0.0839 -0.0141 -0.1472
 1388W        W 4907   6.469   5.096   3.354 -0.1098 -0.0372 -0.0554
 1389W        W 4908   4.303   1.551   0.955 -0.1145  0.2069 -0.0006
 1390W        W 4909   4.424   9.731  11.197  0.0495  0.1420  0.0836
 1391W        W 4910   1.961   2.178  11.980  0.0192 -0.1837 -0.2833
 1392W        W 4911   6.506   2.155   0.598 -0.0485  0.1791 -0.3362
 1393W        W 4912   4.454   1.709   9.226 -0.1209  0.2303 -0.6993
 1394W        W 4913   4.459   5.700  11.457  0.0303 -0.0577 -0.1343
 1395W        W 4914   3.481   3.149   9.325  0.0372  0.1494  0.0520
 1396W        W 4915   2.477   8.680   2.874  0.1364 -0.0513  0.0851
 1397W        W 4916   2.088   9.350   2.252  0.0918 -0.0243 -0.1414
 1398W        W 4917   6.177   5.892   8.783 -0.0044 -0.0374  0.1401
 1399W        W 4918   3.179   9.327   4.087  0.2186  0.0090  0.5655
 1400W        W 4919   9.296   2.668  10.829 -0.3131 -0.1839 -0.0280
 1401W        W 4920   2.456   3.971  11.323 -0.0473  0.1635  0.1057
 1402W        W 4921   8.236   8.050   2.722  0.1349  0.2660 -0.1311
 1403W        W 4922   9.122   1.671   2.301  0.0999 -0.0924  0.1355
 1404W        W 4923   3.983   0.328   9.743 -0.1949 -0.2055 -0.0543
 1405W        W 4924   4.018   3.781   3.208 -0.1062 -0.1525 -0.0961
 1406W        W 4925   1.297   2.268  11.947  0.0902 -0.0255 -0.0141
 1407W        W 4926   5.982   6.858   3.360 -0.0848 -0.0018 -0.1582
 1408W        W 4927   8.159   9.684   0.077  0.1956  0.0504  0.1615
 1409W        W 4928   4.179   9.775  11.650 -0.2360  0.0946 -0.3950
 1410W        W 4929   9.363   2.255   7.693  0.0064 -0.1871 -0.1433
 1411W        W 4930   1.024   0.547   1.635 -0.3233  0.1059 -0.0579
 1412W        W 4931   4.058   8.223   3.961 -0.0162 -0.0664  0.3847
 1413W        W 4932   9.699   5.683  11.061 -0.0476  0.0799  0.0148
 1414W        W 4933   7.368   5.387   1.532 -0.1640 -0.0529 -0.0623
 1415W        W 4934   8.787   1.556   8.420  0.1539  0.1602 -0.4587
 1416W        W 4935   6.305   7.275   2.129  0.2092  0.2507  0.2262
 1417W        W 4936   8.641   1.103   2.859  0.0582 -0.0676 -0.1222
 1418W        W 4937   4.178   3.157  10.750 -0.0665 -0.2591 -0.0199
 1419W        W 4938   4.994   0.862  10.902  0.0424  0.0438 -0.2029
 1420W        W 4939   7.562   4.108  11.377 -0.1072 -0.2688  0.2357
 1421W        W 4940   7.589   4.566   9.052 -0.1316  0.0728  0.1827
 1422W        W 4941   9.369   0.779   3.805 -0.2370  0.1957  0.0167
 1423W        W 4942   4.378   4.108   8.277 -0.1994  0.0626  0.2281
 1424W        W 4943   3.669   3.126   8.859  0.1266  0.0035 -0.1400
 1425W        W 4944   4.864   4.144  10.271 -0.0788 -0.1449  0.2333
 1426W        W 4945   8.210   6.891  11.144 -0.1761  0.0361 -0.1118
 1427W        W 4946   6.112   6.337   3.172  0.2875 -0.2791 -0.2184
 1428W        W 4947   8.290   6.292   9.500  0.2332 -0.0018  0.0189
 1429W        W 4948   0.654   1.920   3.872 -0.2914  0.0071  0.1135
 1430W        W 4949   0.956   2.155   9.014  0.2095 -0.1205 -0.0937
 1431W        W 4950   7.098   2.877  12.198  0.0368  0.2180  0.0827
 1432W        W 4951   6.955   2.067   0.816 -0.1607  0.0088 -0.1611
 1433W        W 4952   5.996   9.302   2.413 -0.1044 -0.0549 -0.0523
 1434W        W 4953   6.209   4.696  10.807  0.1480 -0.0967  0.0471
 1435W        W 4954   2.052   5.987   1.185  0.1170 -0.0722 -0.1772
 1436W        W 4955   8.912   3.420  11.797  0.2015 -0.0411 -0.1857
 1437W        W 4956   8.871   2.441   8.503 -0.1424  0.1549 -0.1012
 1438W        W 4957   2.114   4.068   2.304  0.1632 -0.4302 -0.0208
 1439W        W 4958   4.043   3.228   3.246  0.1982 -0.5716  0.1908
 1440W        W 4959   2.353   2.879   9.529 -0.0068 -0.0881  0.2616
 1441W        W 4960   2.051   8.148  11.126 -0.1724 -0.1723 -0.0444
 1442W        W 4961   7.951   2.429   0.268  0.1676 -0.0830  0.1600
 1443W        W 4962   7.595   2.413   9.268 -0.1170  0.0164  0.1314
 1444W        W 4963   6.711   2.165  11.506 -0.0565  0.0739 -0.0275
 1445W        W 4964   2.691   1.332  10.858  0.0090  0.1987  0.1926
 1446W        W 4965   8.289   1.116  10.106  0.0163  0.0179 -0.1377
 1447W        W 4966   8.058   9.506   2.020 -0.4032  0.0738 -0.0317
 1448W        W 4967   2.023   4.995   1.095  0.2327  0.0340  0.1618
 1449W        W 4968   1.099   1.494   3.257 -0.0937  0.2008 -0.2064
 1450W        W 4969   7.892   0.994   9.384  0.2985 -0.0257  0.0167
 1451W        W 4970   1.903   7.347   0.519  0.0989  0.1238 -0.0357
 1452W        W 4971   8.330   0.244   8.817  0.2770  0.0880  0.0970
 1453W        W 4972   9.382   1.491   0.369 -0.0771 -0.2035 -0.1078
 1454W        W 4973   0.311   9.147   0.099 -0.1938  0.3601  0.1784
 1455W        W 4974   9.208   3.865   0.935 -0.0855  0.1606  0.2045
 1456W        W 4975   3.835   4.378   3.385  0.1368  0.0436  0.2772
 1457W        W 4976   8.970   6.313   0.408  0.5085 -0.0879 -0.2391
 1458W        W 4977   3.811   0.006   4.505 -0.0571  0.1278  0.1110
 1459W        W 4978   0.384   4.163   3.579  0.0354  0.0939  0.3835
 1460W        W 4979   3.337   4.614   2.498  0.0699 -0.0687  0.1289
 1461W        W 4980   6.703   8.501   3.479 -0.0374 -0.1911 -0.1437
 1462W        W 4981   0.396   2.756   8.251 -0.2050  0.0115  0.3868
 1463W        W 4982   2.703   1.111  11.288  0.3926 -0.3262  0.0621
 1464W        W 4983   0.324   1.346   8.094 -0.3556 -0.2382  0.4576
 1465W        W 4984   0.386   9.629  10.560 -0.1219  0.3546 -0.2069
 1466W        W 4985   6.070   0.947   9.797 -0.1656 -0.0258  0.4112
 1467W        W 4986   7.448   5.191   0.387 -0.1624  0.0327  0.1795
 1468W        W 4987   3.569   7.743   1.075 -0.0429  0.1425 -0.1609
 1469W        W 4988   3.717   3.924  11.155 -0.2455  0.2374 -0.0402
 1470W        W 4989   6.362   9.574   4.010  0.0122 -0.0095  0.3965
 1471W        W 4990   8.365   0.421   1.687  0.1454 -0.5239  0.1118
 1472W        W 4991   8.426   7.724  10.110 -0.0556  0.0458 -0.2707
 1473W        W 4992   6.578   4.756   0.727 -0.2820  0.0451 -0.0089
 1474W        W 4993   6.561   7.462   1.735 -0.3271  0.2255 -0.2369
 1475W        W 4994   1.142   2.990   2.301  0.2281  0.0110  0.0350
 1476W        W 4995   7.575   2.284   3.157  0.1100 -0.1551 -0.1507
 1477W        W 4996   3.074   1.170  10.054 -0.0595 -0.0959  0.0795
 1478W        W 4997   9.646   6.913   2.227  0.3542  0.0446  0.1876
 1479W        W 4998   1.224   4.794  11.737  0.3584 -0.0739  0.2212
 1480W        W 4999   6.343   7.832   2.818  0.0463 -0.0470 -0.2577
 1481W        W 5000   7.451   2.064   3.982  0.0779 -0.1419  0.1653
 1482W        W 5001   0.947   6.614  12.246 -0.0190 -0.0325 -0.2385
 1483W        W 5002   5.885   3.251   1.915  0.1852 -0.2418  0.0709
 1484W        W 5003   3.487   0.647  10.389 -0.0134 -0.0037  0.2172
 1485W        W 5004   2.877   4.575   1.083  0.1280 -0.0881 -0.0816
 1486W        W 5005   2.322   5.132   9.415  0.0873 -0.1532 -0.0368
 1487W        W 5006   2.013   3.709   2.707 -0.2165  0.0509  0.0386
 1488W        W 5007   1.301   3.800   0.652  0.0642  0.2793 -0.3804
 1489W        W 5008   5.420   2.424   1.927  0.1874 -0.2639 -0.2252
 1490W        W 5009   4.263   8.797   9.825 -0.2516 -0.0376  0.2991
 1491W        W 5010   6.473   0.543  11.669 -0.0109  0.1652 -0.2849
 1492W        W 5011   1.846   6.556   0.462 -0.2001  0.1284  0.3649
 1493W        W 5012   0.167   0.248  12.029 -0.0757  0.1255 -0.1386
 1494W        W 5013   4.274   5.818  10.911 -0.0004  0.1953 -0.1787
 1495W        W 5014   5.032   2.038  11.892 -0.0186 -0.0631 -0.1275
 1496W        W 5015   8.784   0.461  11.921 -0.0869  0.2652  0.1007
 1497W        W 5016   0.940   7.731   4.155 -0.5481  0.0105  0.0324
 1498W        W 5017   1.242   2.475   2.412 -0.1509  0.0861 -0.0443
 1499W        W 5018   9.736   5.881   2.473  0.1223 -0.0273 -0.1247
 1500W        W 5019   9.471   8.751   0.886 -0.2561  0.0583 -0.1757
 1501W        W 5020   3.692   4.306   2.138 -0.0439 -0.2805 -0.0517
 1502W        W 5021   8.746   6.270  10.507  0.0993  0.1890  0.3744
 1503W        W 5022   3.576   7.957   2.420 -0.0201 -0.1372  0.0542
 1504W        W 5023   2.982   8.890  10.591 -0.3042  0.3008 -0.0984
 1505W        W 5024   6.899   6.130  10.062 -0.0368  0.0019  0.2586
 1506W        W 5025   4.562   0.608   2.747 -0.0009 -0.0770 -0.0396
 1507W        W 5026   3.570   1.917   9.167  0.1735 -0.1370 -0.1524
 1508W        W 5027   5.308   1.699   0.448 -0.2076 -0.0516 -0.0124
 1509W        W 5028   4.120   2.233   3.094  0.1987  0.2650 -0.2259
 1510W        W 5029   0.169   6.868   9.673 -0.1561 -0.0239 -0.2119
 1511W        W 5030   7.931   9.064   3.580 -0.1845  0.1173 -0.1916
 1512W        W 5031   9.621   1.972   1.031 -0.5488  0.2334 -0.2213
 1513W        W 5032   5.025   6.728   9.814  0.0879 -0.0353 -0.0976
 1514W        W 5033   5.451   7.320   9.470 -0.1781  0.0381 -0.2411
 1515W        W 5034   3.247   4.379   1.938 -0.1647 -0.0616  0.3795
 1516W        W 5035   1.859   1.354   0.893 -0.1492 -0.1853  0.1477
 1517W        W 5036   2.294   9.451   1.739  0.3338 -0.1301 -0.0427
 1518W        W 5037   5.028   3.052   9.280 -0.0805  0.1188 -0.0130
 1519W        W 5038   3.334   9.251   0.075  0.1564 -0.3191  0.1158
 1520W        W 5039   2.392   0.214   8.737  0.0728 -0.1918 -0.1186
 1521W        W 5040   4.372   2.738   9.799 -0.3630  0.2271  0.2562
 1522W        W 5041   9.467   6.997  10.896 -0.0104  0.1281  0.0143
 1523W        W 5042   3.916   2.818  11.060 -0.1713  0.1385 -0.2458
 1524W        W 5043   2.372   3.664  10.908  0.3361 -0.0522 -0.3235
 1525W        W 5044   7.149   2.949  10.794 -0.0056 -0.1114 -0.1010
 1526W        W 5045   3.279   1.785   7.776 -0.5215 -0.3281  0.1308
 1527W        W 5046   6.838   8.926   1.096  0.0769  0.1321 -0.0808
 1528W        W 5047   5.638   5.488   9.381  0.1916  0.1461  0.4444
 1529W        W 5048   0.103   3.315  10.475 -0.0554  0.1422 -0.0546
 1530W        W 5049   7.760   2.084  11.725 -0.2337  0.0050 -0.4363
 1531W        W 5050   6.731   7.201   8.653  0.0139 -0.0943  0.3141
 1532W        W 5051   9.358   4.271   1.445 -0.0011 -0.1737  0.0648
 1533W        W 5052   3.704   0.099   0.767  0.1395 -0.1457  0.0236
 1534W        W 5053   7.560   1.451  11.030 -0.0591  0.0907 -0.0477
 1535W        W 5054   1.723   0.765  11.887  0.2813  0.0524  0.0749
 1536W        W 5055   0.789   2.030   9.503  0.3024  0.0915  0.0622
 1537W        W 5056   0.297   9.068  11.297 -0.2328  0.0026  0.5196
 1538W        W 5057   5.798   4.033   3.547  0.1604  0.0289 -0.0166
 1539W        W 5058   4.039   1.411   1.650 -0.1476 -0.0981  0.1531
 1540W        W 5059   0.505   5.472   1.910  0.2972  0.0883  0.1816
 1541W        W 5060   7.111   6.689   4.109  0.0797 -0.5821 -0.4194
 1542W        W 5061   4.877   0.254   1.627 -0.3859 -0.0271  0.0886
 1543W        W 5062   9.130   3.772   0.191 -0.0135  0.1387 -0.1911
 1544W        W 5063   7.486   8.067   1.539  0.3450 -0.3219  0.0340
 1545W        W 5064   4.040   9.322  11.277  0.2642 -0.1372  0.0794
 1546W        W 5065   0.174   5.220  10.223  0.0822  0.1111 -0.0306
 1547W        W 5066   2.578   3.136   8.191 -0.2512  0.3403 -0.0255
 1548W        W 5067   8.731   6.231   9.611 -0.1540 -0.0959  0.0188
 1549W        W 5068   0.186   4.999   0.938 -0.0989 -0.1279  0.1851
 1550W        W 5069   7.746   6.331  11.894 -0.1815 -0.0090 -0.1111
 1551W        W 5070   7.160   6.946  10.323 -0.3143  0.0980 -0.3890
 1552W        W 5071   5.780   0.778   3.004 -0.0059 -0.1379 -0.0152
 1553W        W 5072   5.504   5.269  10.660  0.0353 -0.0287 -0.1717
 1554W        W 5073   4.238   5.446   1.677  0.1017 -0.0081 -0.2477
 1555W        W 5074   9.069   8.030   3.807  0.0615 -0.3442  0.0841
 1556W        W 5075   7.142   5.133  10.732  0.1583  0.0032 -0.0454
 1557W        W 5076   7.075   3.099   1.802  0.0701 -0.0917 -0.3177
 1558W        W 5077   0.824   4.031  11.382 -0.2424  0.1347 -0.0588
 1559W        W 5078   4.818   9.112   3.494  0.1258 -0.0824  0.1834
 1560W        W 5079   0.413   2.055   1.897  0.0845 -0.0909 -0.0377
 1561W        W 5080   5.451   4.719   9.929  0.0152  0.1336  0.0125
 1562W        W 5081   8.332   7.881   2.279  0.0817 -0.0953 -0.0859
 1563W        W 5082   3.240   5.882   0.454  0.1346  0.1410 -0.1302
 1564W        W 5083   2.584   3.477   9.475  0.0171  0.2243 -0.2451
 1565W        W 5084   3.877   0.453   1.640  0.2082  0.0981  0.1316
 1566W        W 5085   7.511   5.329   9.730 -0.0352  0.1347 -0.1912
 1567W        W 5086   9.559   5.820   0.650  0.2675 -0.2076  0.0044
 1568W        W 5087   8.753   5.082  11.914 -0.2970  0.0840 -0.2371
 1569W        W 5088   5.160   3.991   0.609 -0.0357 -0.1896  0.1460
 1570W        W 5089   9.723   1.023   8.458  0.2245  0.1472 -0.1169
 1571W        W 5090   5.103   7.265   1.740 -0.1633 -0.1126  0.1676
 1572W        W 5091   7.501   7.583  12.195  0.1424 -0.1763  0.1076
 1573W        W 5092   7.970   9.252   2.458  0.1397 -0.0173 -0.0394
 1574W        W 5093   1.815   3.208  10.982 -0.1044 -0.0673  0.1092
 1575W        W 5094   9.102   4.405   8.978 -0.0978  0.3006  0.1695
 1576W        W 5095   6.063   8.789  11.481 -0.0323  0.0905 -0.1749
 1577W        W 5096   2.673   7.909  11.324 -0.1763  0.1099 -0.0754
 1578W        W 5097   4.618   5.086  12.284  0.1154 -0.1942  0.4404
 1579W        W 5098   9.096   2.453  11.528 -0.1295 -0.2641  0.3962
 1580W        W 5099   3.187   7.668  11.287  0.1163 -0.3477  0.1968
 1581W        W 5100   8.815   0.671   1.953  0.0774 -0.0850 -0.2074
 1582W        W 5101   3.805   3.323   2.526  0.0982 -0.0025  0.3214
 1583W        W 5102   1.396   5.199   9.285  0.0491 -0.1267  0.1922
 1584W        W 5103   9.706   2.493  10.520 -0.0464 -0.1766 -0.0293
 1585W        W 5104   8.419   7.694  12.319 -0.0551  0.0217  0.3627
 1586W        W 5105   4.664   2.395   1.386  0.1149 -0.1939  0.3476
 1587W        W 5106   4.571   0.208  12.003  0.2108 -0.2220 -0.1751
 1588W        W 5107   8.659   1.398   9.928  0.1439  0.2749 -0.1286
 1589W        W 5108   1.388   0.343   4.228  0.1391  0.1738  0.4016
 1590W        W 5109   2.066   1.124   4.150 -0.1461 -0.0722 -0.1533
 1591W        W 5110   7.142   1.047   0.424  0.0944 -0.2826 -0.0447
 1592W        W 5111   4.367   3.879  11.909 -0.2339 -0.2107 -0.0893
 1593W        W 5112   7.805   6.590   9.202  0.0008 -0.0235 -0.0912
 1594W        W 5113   6.375   6.913   2.479 -0.1359 -0.1967 -0.7387
 1595W        W 5114   8.410   2.609   8.492 -0.1534  0.0584  0.0532
 1596W        W 5115   1.098   7.504   0.655  0.1618  0.1284 -0.1389
 1597W        W 5116   4.785   7.623   8.862 -0.1353 -0.5701  0.3734
 1598W        W 5117   4.751   6.649   8.827 -0.3895 -0.2042 -0.0119
 1599W        W 5118   2.052   3.109   9.840  0.1713 -0.0585  0.1662
 1600W        W 5119   6.949   1.737   1.689 -0.1138 -0.1616 -0.3159
 1601W        W 5120   9.225   3.364   8.781 -0.0863  0.2078  0.1414
 1602W        W 5121   5.125   2.876   0.060 -0.1414  0.0560 -0.0609
 1603W        W 5122   4.664   4.349   2.137  0.0528  0.1274 -0.1434
 1604W        W 5123   6.921   8.838   1.583  0.0485  0.2313 -0.2937
 1605W        W 5124   6.506   7.849   1.428 -0.0309  0.1409  0.1676
 1606W        W 5125   8.972   6.310  11.973  0.1314 -0.1006  0.0074
 1607W        W 5126   5.370   5.502  10.206 -0.1898  0.2977  0.1690
 1608W        W 5127   0.718   6.596  10.707  0.1295  0.2513 -0.1555
 1609W        W 5128   4.143   2.522   1.353 -0.0211  0.1824  0.0475
 1610W        W 5129   2.404   5.662   3.965  0.2555 -0.1026 -0.1116
 1611W        W 5130   6.571   8.149   2.473  0.0098  0.2360  0.0605
 1612W        W 5131   9.127   5.176  10.239  0.2645 -0.1744 -0.1628
 1613W        W 5132   0.029   8.795   2.133  0.1517 -0.0667  0.0808
 1614W        W 5133   0.665   5.426  11.548  0.0179 -0.0215 -0.2021
 1615W        W 5134   6.779   3.855   3.890  0.1259 -0.0407  0.1291
 1616W        W 5135   9.731   9.618   0.971  0.1695 -0.1223 -0.0662
 1617W        W 5136   4.743   7.942   3.690  0.2984  0.3169 -0.0418
 1618W        W 5137   2.259   3.051   2.023 -0.2227 -0.0730 -0.1061
 1619W        W 5138   0.952   6.963  10.934  0.4241 -0.1016  0.1232
 1620W        W 5139   1.385   0.795   1.174  0.5539 -0.2905  0.4383
 1621W        W 5140   4.063   6.409   4.494 -0.0614 -0.1234  0.0518
 1622W        W 5141   2.047   6.800   3.823  0.0290 -0.3125 -0.2097
 1623W        W 5142   7.374   1.942   8.948  0.0253  0.2745 -0.4588
 1624W        W 5143   6.008   4.676   8.487  0.1403  0.0287  0.2235
 1625W        W 5144   5.533   5.970   1.648 -0.0030  0.1906  0.4186
 1626W        W 5145   3.017   5.990   2.285 -0.0920  0.1213 -0.0784
 1627W        W 5146   5.736   8.545   2.084  0.3931 -0.2111  0.1829
 1628W        W 5147   8.057   0.484   8.407 -0.3504  0.3536 -0.2601
 1629W        W 5148   4.719   3.511  10.429 -0.2732  0.4149  0.0103
 1630W        W 5149   5.891   7.323   9.202  0.3237  0.0024  0.1228
 1631W        W 5150   1.214   0.865   2.680  0.0187  0.1753  0.1673
 1632W        W 5151   5.394   4.205  10.129  0.1738  0.3512 -0.0443
 1633W        W 5152   4.527   7.992   1.028  0.3437 -0.2716 -0.2000
 1634W        W 5153   6.693   8.603   0.727 -0.1634 -0.0950 -0.0970
 1635W        W 5154   0.444   2.222   9.156 -0.1931  0.0675  0.0354
 1636W        W 5155   9.288   4.539   0.339  0.3000  0.1551  0.3250
 1637W        W 5156   4.196   3.806   3.988 -0.5118 -0.1232  0.4173
 1638W        W 5157   6.949   9.292   2.428 -0.1142 -0.1587  0.1544
 1639W        W 5158   2.455   8.943   2.163  0.1267 -0.1162  0.0610
 1640W        W 5159   8.375   2.934   3.224 -0.0237  0.1301  0.3426
 1641W        W 5160   6.158   0.099   8.658 -0.1738  0.2029  0.1286
 1642W        W 5161   1.849   9.214   9.671 -0.2325 -0.1285 -0.0164
 1643W        W 5162   8.490   0.480   2.371 -0.2083 -0.2453 -0.1010
 1644W        W 5163   1.333   9.129   1.780 -0.3249 -0.3840 -0.2249
 1645W        W 5164   4.236   1.312  11.865  0.0792 -0.0227 -0.0995
 1646W        W 5165   6.440   6.209  11.477  0.7048  0.2622 -0.2360
 1647W        W 5166   2.927   5.973   1.758 -0.0271 -0.3304  0.2947
 1648W        W 5167   5.667   8.534  10.479  0.1708 -0.4366  0.2549
 1649W        W 5168   1.320   7.182  10.691 -0.0864  0.1810 -0.2156
 1650W        W 5169   8.043   8.540   9.435 -0.2038 -0.2253  0.2757
 1651W        W 5170   3.572   4.882   1.377 -0.2266  0.1028  0.0549
 1652W        W 5171   5.063   9.725   0.356  0.0691 -0.0837 -0.1535
 1653W        W 5172   4.692   4.823  10.509  0.2940 -0.0813 -0.1172
 1654W        W 5173   4.706   9.623   1.938  0.1877 -0.0710  0.1343
 1655W        W 5174   6.510   0.778   8.888 -0.1258 -0.0894 -0.1726
 1656W        W 5175   2.835   4.668  11.223  0.0583 -0.3797  0.0665
 1657W        W 5176   5.137   0.917   2.152  0.1266  0.1683  0.3710
 1658W        W 5177   4.329   5.282   9.198  0.0750  0.2324  0.0043
 1659W        W 5178   7.736   3.310  11.569 -0.3700  0.1901 -0.4731
 1660W        W 5179   9.463   8.748   3.693  0.1231  0.0252  0.1161
 1661W        W 5180   9.093   3.740   9.554 -0.2521 -0.1024  0.1428
 1662W        W 5181   7.474   7.158  11.901  0.2815 -0.0856 -0.1253
 1663W        W 5182   2.130   1.705   2.448  0.2158  0.2762 -0.2269
 1664W        W 5183   5.403   4.606  10.445  0.2555  0.1093  0.0422
 1665W        W 5184   7.962   0.406   2.658  0.1814  0.0692 -0.1428
 1666W        W 5185   4.597   0.060   0.249  0.0368 -0.1111 -0.2317
 1667W        W 5186   9.580   2.385   1.273 -0.3404  0.0943  0.0057
 1668W        W 5187   9.399   8.241   1.547 -0.0633  0.1015  0.0863
 1669W        W 5188   6.781   0.201   9.682  0.1188 -0.2604  0.2879
 1670W        W 5189   8.004   7.940   1.868 -0.0930 -0.1752 -0.0282
 1671W        W 5190   3.666   1.402   1.228  0.0914 -0.2441  0.2801
 1672W        W 5191   6.990   0.489   1.455 -0.1756 -0.0752  0.2787
 1673W        W 5192   2.172   9.098   3.100 -0.0858 -0.4504 -0.1225
 1674W        W 5193   3.861   8.432   4.500  0.0545  0.0381  0.0273
 1675W        W 5194   2.302   2.995   3.319  0.1792  0.0345  0.3217
 1676W        W 5195   5.925   1.939   9.590 -0.2112 -0.2954  0.3021
 1677W        W 5196   6.103   9.275   9.671 -0.0364  0.0422 -0.0568
 1678W        W 5197   2.561   4.824   9.712  0.1717  0.0019  0.2026
 1679W        W 5198   5.377   2.120   3.469 -0.1510  0.1723 -0.0196
 1680W        W 5199   0.433   4.339   1.869  0.0682 -0.2455  0.0120
 1681W        W 5200   4.297   9.493   2.677 -0.1908  0.2410 -0.1806
 1682W        W 5201   4.181   8.346   0.777  0.0210  0.2885  0.3920
 1683W        W 5202   8.784   4.547   4.406 -0.3222 -0.1571 -0.0298
 1684W        W 5203   5.814   9.258  10.451 -0.2045 -0.3226  0.3886
 1685W        W 5204   8.795   4.148   9.306 -0.3027  0.3677 -0.0917
 1686W        W 5205   4.728   5.857   0.852  0.0525  0.2799  0.0579
 1687W        W 5206   7.260   0.602   3.080  0.0122  0.1207 -0.2086
 1688W        W 5207   1.135   3.055   3.708  0.1248  0.1629 -0.0470
 1689W        W 5208   7.249   3.519   1.012 -0.2503 -0.2011  0.1853
 1690W        W 5209   2.658   5.926   9.377  0.2113  0.0331 -0.1017
 1691W        W 5210   6.611   5.440   2.141 -0.1557 -0.0276  0.1954
 1692W        W 5211   8.566   3.181   4.165  0.2257  0.0803 -0.0404
 1693W        W 5212   4.154   6.597   0.719 -0.1218 -0.1684  0.0680
 1694W        W 5213   7.510   3.020   1.125 -0.0734  0.0560 -0.0647
 1695W        W 5214   1.080   4.848   1.670 -0.0593 -0.0579  0.2738
 1696W        W 5215   4.245   3.530   1.644  0.0380  0.0733  0.0125
 1697W        W 5216   9.401   5.256  11.557 -0.0372 -0.1442 -0.0051
 1698W        W 5217   2.334   6.344   0.888 -0.0398  0.0701 -0.1351
 1699W        W 5218   1.754   1.149  10.965  0.0635  0.2250  0.1919
 1700W        W 5219   0.610   7.607   9.592  0.2519 -0.1131  0.2782
 1701W        W 5220   3.976   4.810  11.424 -0.1218 -0.2467  0.0225
 1702W        W 5221   9.576   9.018   0.418 -0.0011  0.3248 -0.1889
 1703W        W 5222   9.771   1.963   1.616 -0.2002  0.0965 -0.3112
 1704W        W 5223   9.090   5.942   0.803  0.4554  0.1287  0.1124
 1705W        W 5224   0.803   5.893  11.622  0.0007 -0.2749  0.0928
 1706W        W 5225   6.935   7.514   3.016 -0.1841 -0.1090 -0.1999
 1707W        W 5226   0.436   9.236   9.179 -0.1160 -0.1171  0.0742
 1708W        W 5227   8.254   6.479  10.176  0.1775 -0.5681 -0.1786
 1709W        W 5228   5.561   1.215  10.003  0.0988 -0.1366 -0.0098
 1710W        W 5229   8.920   0.980   9.239 -0.3932 -0.1199  0.0531
 1711W        W 5230   7.969   8.173   3.086  0.0627  0.1484 -0.0603
 1712W        W 5231   2.704   5.500   1.507 -0.0438 -0.0275 -0.0853
 1713W        W 5232   1.990   0.001   1.503  0.4171  0.1363 -0.1756
 1714W        W 5233   2.688   5.074  10.973  0.0907  0.2397  0.1091
 1715W        W 5234   1.955   4.448   9.384  0.2032  0.0974 -0.1127
 1716W        W 5235   7.128   0.584   8.901 -0.1693 -0.0793  0.0823
 1717W        W 5236   1.253   7.770   8.904  0.3049  0.0551  0.1308
 1718W        W 5237   5.594   3.461  10.815 -0.0976  0.0203  0.0989
 1719W        W 5238   3.266   9.583   8.604  0.0968  0.2052  0.0214
 1720W        W 5239   1.853   7.515   1.287 -0.2426 -0.1746 -0.1885
 1721W        W 5240   3.144   5.035   0.110  0.0358 -0.0134  0.3812
 1722W        W 5241   1.014   0.372   2.888 -0.0785  0.2091 -0.2961
 1723W        W 5242   0.445   6.438   2.178 -0.0858 -0.2864  0.0965
 1724W        W 5243   7.725   1.953  10.141 -0.0103 -0.0844 -0.3846
 1725W        W 5244   0.075   7.677  10.345 -0.0741 -0.2187 -0.0208
 1726W        W 5245   4.388   0.091   3.751  0.0505 -0.0242  0.1553
 1727W        W 5246   8.106   5.182   9.640 -0.0126  0.1067 -0.1784
 1728W        W 5247   5.818   7.339   9.775 -0.0066 -0.1654 -0.0692
 1729W        W 5248   3.445   6.734   8.870  0.1810 -0.2282 -0.0580
 1730W        W 5249   2.353   8.780  11.905 -0.1485 -0.0574  0.1055
 1731W        W 5250   1.025   7.767   3.252 -0.1674  0.1042  0.0294
 1732W        W 5251   6.192   2.735   1.550  0.1725  0.1992  0.1430
 1733W        W 5252   4.685   4.583   1.706  0.3847  0.0084  0.1400
 1734W        W 5253   2.187   7.609   8.859  0.0928  0.3786  0.2142
 1735W        W 5254   5.346   0.377   8.291 -0.0509 -0.1639  0.1323
 1736W        W 5255   1.101   3.687   0.253  0.2153 -0.3897 -0.1418
 1737W        W 5256   6.031   5.641   0.737 -0.1214  0.3848 -0.1090
 1738W        W 5257   0.538   7.370   0.170  0.1181  0.1342 -0.1642
 1739W        W 5258   4.524   5.314   3.088  0.0805 -0.2235  0.3895
 1740W        W 5259   5.620   6.580   9.824 -0.1178 -0.4289  0.2381
 1741W        W 5260   1.864   2.904   2.976  0.5325  0.1899  0.0922
 1742W        W 5261   7.617   0.048   1.923 -0.0710  0.0881 -0.0913
 1743W        W 5262   1.862   0.377  12.192 -0.2007  0.1298  0.0057
 1744W        W 5263   9.332   1.947   1.462  0.0625  0.0226 -0.0708
 1745W        W 5264   7.928   5.561  12.300  0.0886 -0.3257  0.0847
 1746W        W 5265   5.776   6.656  12.157  0.0087 -0.0415  0.4351
 1747W        W 5266   5.177   2.355  10.350 -0.4597  0.0384  0.0636
 1748W        W 5267   0.008   7.966   1.992 -0.2768  0.3538 -0.1430
 1749W        W 5268   8.461   2.319  10.229  0.0910 -0.0431 -0.1355
 1750W        W 5269   1.579   3.066   8.031  0.0674  0.0518  0.0542
 1751W        W 5270   2.136   0.860   2.214 -0.0014 -0.0455 -0.0314
 1752W        W 5271   5.210   2.441  11.101  0.2226  0.0730  0.0675
 1753W        W 5272   2.284   7.835  12.195  0.0665  0.0210  0.2739
 1754W        W 5273   1.900   0.339  11.496  0.3092  0.2029  0.0997
 1755W        W 5274   5.308   4.947  11.986 -0.1750 -0.0098  0.3192
 1756W        W 5275   8.037   4.076  10.633 -0.1033  0.2177 -0.0777
 1757W        W 5276   6.633   5.324  11.980  0.0467  0.1341  0.1026
 1758W        W 5277   4.665   3.498   3.093  0.2203 -0.0352  0.0247
 1759W        W 5278   0.651   9.705   9.275 -0.2168  0.0917 -0.0969
 1760W        W 5279   1.070   0.731   0.789 -0.0360 -0.0713  0.0474
 1761W        W 5280   7.734   2.145   1.204  0.2181 -0.1445 -0.3636
 1762W        W 5281   2.017   6.164  10.149  0.2387  0.1063 -0.2337
 1763W        W 5282   5.381   7.560   2.004 -0.0161 -0.1621 -0.0598
 1764W        W 5283   7.279   1.834   2.081 -0.2087  0.1750  0.0917
 1765W        W 5284   7.071   0.716   2.629 -0.2249 -0.5120  0.0080
 1766W        W 5285   8.128   4.214   2.032  0.1620 -0.0166  0.0576
 1767W        W 5286   1.024   7.512   0.078 -0.0547 -0.3876 -0.0906
 1768W        W 5287   0.708   2.998   2.871  0.2150  0.1868 -0.5627
 1769W        W 5288   0.235   6.664   1.411 -0.2198  0.4036  0.1538
 1770W        W 5289   2.633   5.986  10.992 -0.0649 -0.3008  0.0164
 1771W        W 5290   1.084   4.489   9.773 -0.2944 -0.3602  0.1295
 1772W        W 5291   4.768   4.037  11.569  0.1578 -0.0927 -0.1679
 1773W        W 5292   0.188   3.559  10.874 -0.0289 -0.0527  0.1137
 1774W        W 5293   5.113   3.904   9.853  0.0390 -0.0262 -0.1949
 1775W        W 5294   8.617   7.586   1.297 -0.4857 -0.0373 -0.0837
 1776W        W 5295   0.820   3.619   1.133  0.0002 -0.0746 -0.2347
 1777W        W 5296   1.918   3.323  10.447  0.4505 -0.1592  0.0451
 1778W        W 5297   2.927   9.591   2.660  0.2133  0.2034  0.3272
 1779W        W 5298   5.194   3.773  11.523  0.1088  0.0681 -0.1933
 1780W        W 5299   9.324   4.442  10.361  0.2163  0.1947  0.0909
 1781W        W 5300   6.997   1.581   8.909 -0.1025 -0.1761  0.1410
 1782W        W 5301   9.599   4.969   3.321 -0.1236 -0.0215 -0.0043
 1783W        W 5302   8.024   6.842  10.668  0.1211 -0.0502 -0.2244
 1784W        W 5303   3.225   0.497   8.464 -0.1319 -0.3959 -0.0837
 1785W        W 5304   6.212   1.731   0.446  0.0816 -0.0488  0.2767
 1786W        W 5305   7.108   0.511   0.674 -0.0878 -0.0955 -0.0220
 1787W        W 5306   5.654   1.490   7.694  0.0573 -0.0477 -0.2324
 1788W        W 5307   0.608   9.080   2.074  0.1878 -0.2199  0.1796
 1789W        W 5308   2.590   6.549  12.223 -0.1122 -0.1115  0.2000
 1790W        W 5309   1.268   8.998   2.848  0.1673  0.3384 -0.1235
 1791W        W 5310   0.606   8.351  11.655 -0.1164 -0.0310 -0.1413
 1792W        W 5311   5.453   8.754   0.053 -0.1572  0.0152 -0.1723
 1793W        W 5312   8.304   3.593   9.930 -0.1292 -0.1046  0.0849
 1794W        W 5313   2.967   9.640   4.437  0.0457  0.1763 -0.4732
 1795W        W 5314   2.840   2.008   4.069 -0.1445 -0.0794 -0.0991
 1796W        W 5315   5.605   6.495   9.298 -0.0459  0.0738 -0.0834
 1797W        W 5316   4.206   1.593  12.273 -0.3709 -0.2602 -0.4009
 1798W        W 5317   5.997   0.882   4.658 -0.0518 -0.2120 -0.0079
 1799W        W 5318   1.707   9.282   2.761  0.0114  0.0590 -0.2934
 1800W        W 5319   0.708   5.809   9.531 -0.1200 -0.1880 -0.2219
 1801W        W 5320   6.641   0.205   8.817  0.0700 -0.0941 -0.1215
 1802W        W 5321   5.154   7.974  10.070 -0.0408 -0.1080 -0.0826
 1803W        W 5322   7.238   2.911   4.669 -0.1490  0.1368  0.0715
 1804W        W 5323   0.470   9.295  11.967 -0.0516  0.1593  0.0504
 1805W        W 5324   8.755   2.042   1.304  0.2455 -0.2722 -0.2645
 1806W        W 5325   3.554   1.202   9.441 -0.0955 -0.2773 -0.1674
 1807W        W 5326   5.762   4.559   3.512 -0.0480 -0.3293  0.0440
 1808W        W 5327   5.692   3.531  12.236  0.1296 -0.1144  0.1282
 1809W        W 5328   2.977   0.362   8.918 -0.1751 -0.1157 -0.0193
 1810W        W 5329   8.359   9.522  11.479 -0.2410  0.1076  0.0083
 1811W        W 5330   7.926   4.281   0.312  0.0651 -0.0565  0.0628
 1812W        W 5331   2.200   9.039  10.681  0.3459  0.0937  0.0562
 1813W        W 5332   9.715   5.018   2.404 -0.0167  0.1259  0.0910
 1814W        W 5333   3.200   6.370   1.971 -0.2369  0.2877 -0.1185
 1815W        W 5334   1.033   6.892  10.359 -0.1087  0.0544 -0.3293
 1816W        W 5335   0.586   3.554   9.995 -0.0012  0.0827 -0.1526
 1817W        W 5336   1.083   7.240  11.887  0.4218  0.0290 -0.1756
 1818W        W 5337   7.031   8.892   4.167  0.0114  0.2224  0.4219
 1819W        W 5338   0.930   6.625   0.616 -0.1078 -0.2193  0.0308
 1820W        W 5339   9.151   2.704   1.942  0.1354 -0.0432 -0.0074
 1821W        W 5340   5.978   9.650   3.607 -0.1835  0.1971  0.0541
 1822W        W 5341   6.213   1.329   4.803  0.2443 -0.0611  0.1611
 1823W        W 5342   1.741   5.383  12.220  0.0258 -0.1812  0.0284
 1824W        W 5343   8.786   5.991   3.553 -0.0659 -0.1866 -0.2862
 1825W        W 5344   8.652   5.862   0.342 -0.1315 -0.2033  0.1818
 1826W        W 5345   2.563   8.100  10.881 -0.0266  0.0506  0.1368
 1827W        W 5346   3.215   4.466   4.124 -0.0870 -0.0404 -0.0664
 1828W        W 5347   5.661   6.714   1.026  0.0178  0.4697  0.0997
 1829W        W 5348   0.454   1.142  10.957 -0.1796 -0.3177  0.1095
 1830W        W 5349   7.456   9.347  10.518 -0.2263 -0.2067 -0.2162
 1831W        W 5350   7.830   7.469  10.702 -0.0841 -0.0534  0.2875
 1832W        W 5351   4.044   6.797   2.785  0.3407 -0.0105  0.5019
 1833W        W 5352   4.230   1.730  11.233  0.0757  0.1581 -0.3024
 1834W        W 5353   6.257   1.568   2.104  0.0898 -0.1264 -0.2037
 1835W        W 5354   4.531   2.897   9.374  0.3246  0.0109  0.2744
 1836W        W 5355   6.735   9.020   3.562 -0.1735 -0.0268  0.1027
 1837W        W 5356   1.566   6.716   9.511  0.1990  0.2924  0.2740
 1838W        W 5357   7.902   7.161  11.471  0.3172 -0.0256 -0.1209
 1839W        W 5358   4.445   7.345  11.969 -0.0879 -0.1614 -0.0767
 1840W        W 5359   0.834   9.633   2.776 -0.5068 -0.0096  0.0658
 1841W        W 5360   3.744   8.600   9.890  0.0313  0.0612 -0.2322
 1842W        W 5361   5.515   5.798   2.706  0.0749 -0.0579 -0.1686
 1843W        W 5362   0.739   2.250   3.315  0.0475 -0.3013 -0.1762
 1844W        W 5363   7.187   7.977   2.764  0.1622 -0.0478  0.2709
 1845W        W 5364   2.662   7.736  10.476  0.4474 -0.0083 -0.2239
 1846W        W 5365   5.546   9.484   9.332 -0.0825 -0.0293  0.0072
 1847W        W 5366   3.264   0.007   0.004 -0.0334 -0.2175  0.0086
 1848W        W 5367   0.219   6.240  12.221 -0.4933 -0.2146  0.1813
 1849W        W 5368   4.563   9.420   9.925  0.0903  0.0024 -0.0476
 1850W        W 5369   4.269   0.606   3.774  0.0442  0.3000  0.0487
 1851W        W 5370   2.652   2.653   8.322  0.0337  0.1128 -0.2430
 1852W        W 5371   8.687   9.243   8.975  0.2728 -0.4434  0.1571
 1853W        W 5372   1.556   5.041   3.260  0.1623 -0.0555 -0.0671
 1854W        W 5373   9.715   7.751  11.385  0.0132  0.0846  0.3715
 1855W        W 5374   8.287   8.332   1.947  0.0550 -0.1178 -0.0406
 1856W        W 5375   4.383   0.505   0.052  0.0129  0.2628 -0.0446
 1857W        W 5376   6.519   6.230   8.790 -0.2038  0.0637  0.0598
 1858W        W 5377   4.282   6.653   9.153  0.0656 -0.2480  0.0915
 1859W        W 5378   2.265   8.117   0.731 -0.2897 -0.3660 -0.0653
 1860W        W 5379   5.212   5.796   9.245  0.0488  0.1454  0.1603
 1861W        W 5380   7.566   3.942   4.097 -0.1084 -0.1888  0.1961
 1862W        W 5381   0.279   1.733   1.286  0.0332  0.1202 -0.4487
 1863W        W 5382   1.016   9.541   0.594 -0.0932 -0.3635  0.1301
 1864W        W 5383   5.332   3.030   8.736  0.2516  0.1258 -0.5065
 1865W        W 5384   6.019   3.898   9.314 -0.0579 -0.1895  0.1172
 1866W        W 5385   1.881   4.936   9.298  0.1182 -0.1280 -0.0300
 1867W        W 5386   7.711   6.990  11.040 -0.0304 -0.0083  0.0299
 1868W        W 5387   6.194   7.507   1.313  0.4046  0.4729 -0.2008
 1869W        W 5388   2.217   4.021   9.484  0.4646  0.2529  0.1323
 1870W        W 5389   7.369   7.932  10.841  0.0332  0.0044 -0.5232
 1871W        W 5390   6.477   9.657  10.947 -0.0853 -0.0210 -0.0789
 1872W        W 5391   4.180   8.693   4.024 -0.0921 -0.4405  0.1036
 1873W        W 5392   1.343   0.440  12.252 -0.1929 -0.4172 -0.1672
 1874W        W 5393   9.185   8.585   8.479  0.1228  0.0338 -0.2144
 1875W        W 5394   8.146   8.946  11.169 -0.3159  0.3207  0.0227
 1876W        W 5395   3.024   8.278  11.161 -0.1757  0.0277 -0.0337
 1877W        W 5396   8.356   7.545  11.558  0.1641  0.1172  0.4802
 1878W        W 5397   2.181   0.038   2.165 -0.1938  0.0542 -0.1499
 1879W        W 5398   3.333   2.420   2.368  0.0947  0.0066 -0.0927
 1880W        W 5399   3.325   7.277  11.623  0.0217 -0.0213 -0.1070
 1881W        W 5400   0.354   1.288  10.494 -0.4270  0.1779 -0.2370
 1882W        W 5401   7.756   6.016  10.713  0.0753  0.0699  0.0041
 1883W        W 5402   8.363   3.358   0.144  0.3190  0.1103  0.0203
 1884W        W 5403   5.754   0.397   1.751 -0.2126 -0.0141 -0.0926
 1885W        W 5404   4.994   5.346   4.495 -0.1223 -0.2249  0.0638
 1886W        W 5405   3.030   3.867   2.909  0.1528  0.6307  0.0380
 1887W        W 5406   2.515   6.075  10.181  0.2877 -0.1916  0.0232
 1888W        W 5407   6.586   9.740   9.309  0.0912  0.1856  0.2790
 1889W        W 5408   6.840   6.399   9.128  0.1629 -0.2117  0.0678
 1890W        W 5409   4.819   8.787  10.760 -0.1931 -0.3882 -0.3164
 1891W        W 5410   4.854   3.708   0.183  0.1044 -0.0518 -0.0689
 1892W        W 5411   7.923   1.677  12.199  0.2654  0.2773  0.2496
 1893W        W 5412   9.527   2.162   9.711  0.2688 -0.1100  0.3220
 1894W        W 5413   1.758   5.731  10.246  0.1384  0.1803  0.1578
 1895W        W 5414   0.046   1.068  10.199 -0.2382  0.0042  0.3440
 1896W        W 5415   4.277   3.007   1.521 -0.0009 -0.1453 -0.0447
 1897W        W 5416   5.682   2.580  11.143  0.2968 -0.0624  0.0244
 1898W        W 5417   8.298   3.824  11.275  0.2267  0.0999 -0.1380
 1899W        W 5418   4.895   2.003  10.021 -0.0753  0.0701  0.0526
 1900W        W 5419   2.906   2.801   8.826  0.2371  0.0236  0.2574
 1901W        W 5420   3.279   1.180   4.928  0.0011  0.2969 -0.1934
 1902W        W 5421   3.879   8.225   9.573 -0.0594 -0.1482  0.0400
 1903W        W 5422   3.941   8.605  12.096 -0.0398 -0.1969 -0.0291
 1904W        W 5423   5.251   1.730   9.223 -0.1806 -0.2051 -0.0899
 1905W        W 5424   4.236   3.609  10.846  0.0840  0.3061  0.0102
 1906W        W 5425   9.352   9.459  11.627 -0.1430 -0.2178  0.1389
 1907W        W 5426   1.271   2.287  10.362  0.0607  0.0185  0.0964
 1908W        W 5427   0.749   3.248  11.129 -0.0643 -0.2008  0.1471
 1909W        W 5428   6.782   7.869  10.703 -0.2299 -0.0766  0.0582
 1910W        W 5429   9.184   8.774   9.754 -0.1192  0.3312  0.0815
 1911W        W 5430   1.477   4.359   1.614 -0.1267  0.0191 -0.1695
 1912W        W 5431   7.394   0.195  11.774  0.2645 -0.0626 -0.0032
 1913W        W 5432   4.527   9.171   2.202  0.0158  0.2880  0.0989
 1914W        W 5433   2.644   7.283  10.631  0.0214  0.1977 -0.0447
 1915W        W 5434   5.561   7.521   1.542 -0.1065  0.2055 -0.0078
 1916W        W 5435   8.488   4.516   2.384 -0.0509 -0.2938 -0.0941
 1917W        W 5436   6.816   4.853   0.282  0.1073 -0.1340 -0.5209
 1918W        W 5437   0.530   0.064  11.410  0.4464 -0.3548  0.0270
 1919W        W 5438   9.772   0.530  10.195 -0.0863  0.2322 -0.1080
 1920W        W 5439   8.388   4.426  10.331 -0.1662  0.3249  0.0869
 1921W        W 5440   4.061   5.101   9.977  0.0826  0.0195  0.1059
 1922W        W 5441   6.767   8.316   1.623 -0.2359 -0.2882 -0.1457
 1923W        W 5442   4.454   1.921  10.232  0.0764  0.1697  0.3187
 1924W        W 5443   5.882   0.699  11.840 -0.0339 -0.5375 -0.1654
 1925W        W 5444   7.221   5.211   3.416 -0.1027 -0.0722 -0.1210
 1926W        W 5445   4.415   3.897   2.794  0.3710 -0.5054  0.1190
 1927W        W 5446   1.363   1.280   1.177 -0.2359  0.0226 -0.3115
 1928W        W 5447   6.753   5.441   0.248 -0.0264  0.4107  0.0655
 1929W        W 5448   4.132   2.302  11.136  0.2348  0.2534 -0.1305
 1930W        W 5449   3.139   4.576   8.691 -0.4455  0.0713  0.0229
 1931W        W 5450   9.688   1.410   0.013  0.1115 -0.1524 -0.5224
 1932W        W 5451   0.635   3.274   3.688 -0.1141  0.0013  0.0180
 1933W        W 5452   6.863   5.012   3.739 -0.3186  0.1733 -0.1307
 1934W        W 5453   4.798   4.141  12.074  0.0602  0.0562  0.1130
 1935W        W 5454   9.751   2.357   0.685  0.1778  0.3022 -0.1470
 1936W        W 5455   4.397   1.792   9.720 -0.2269 -0.1608  0.0184
 1937W        W 5456   2.746   9.790  11.166 -0.0444  0.1229 -0.1338
 1938W        W 5457   5.448   3.763   2.732  0.1016 -0.1058  0.1602
 1939W        W 5458   1.180   6.263  11.976 -0.0866 -0.0221  0.1265
 1940W        W 5459   5.141   4.198   2.405 -0.1489  0.2433  0.0193
 1941W        W 5460   7.594   3.114  12.104  0.2849  0.3634  0.0825
 1942W        W 5461   1.216   2.673   0.055 -0.0432 -0.2547 -0.1927
 1943W        W 5462   6.697   0.831   8.024 -0.0853 -0.0449 -0.0282
 1944W        W 5463   0.866   2.565   3.843  0.0401 -0.0178  0.0651
 1945W        W 5464   5.123   5.568   0.713  0.1858 -0.3159 -0.2675
 1946W        W 5465   5.161   9.009   1.456 -0.0893 -0.0821 -0.1292
 1947W        W 5466   0.282   3.633   3.907  0.2571  0.1427 -0.0036
 1948W        W 5467   2.288   7.325   9.661 -0.0372  0.0001 -0.2373
 1949W        W 5468   5.869   8.786  11.021  0.3651  0.1343  0.0400
 1950W        W 5469   4.428   8.460  12.311  0.1895  0.0219  0.2104
 1951W        W 5470   8.097   5.176   2.664  0.1977  0.0150 -0.1360
 1952W        W 5471   4.793   5.738  11.075 -0.0226  0.2079  0.6041
 1953W        W 5472   6.380   5.456   2.992 -0.0152  0.0201 -0.1850
 1954W        W 5473   9.153   1.116  11.724  0.2212  0.2253  0.3248
 1955W        W 5474   8.513   5.398   0.307 -0.2721 -0.4818 -0.1580
 1956W        W 5475   1.506   8.671   8.845 -0.0270 -0.2397  0.0008
 1957W        W 5476   0.026   2.324   2.821  0.1941 -0.0082  0.4388
 1958W        W 5477   3.692   9.350   7.749  0.1942 -0.2476  0.1270
 1959W        W 5478   6.361   7.101  11.870  0.1022  0.2733 -0.3488
 1960W        W 5479   5.901   1.991   7.624  0.1347  0.1886 -0.1267
 1961W        W 5480   2.090   0.811  11.189 -0.2122 -0.2540  0.2156
 1962W        W 5481   6.689   4.683  11.572  0.3046 -0.0881  0.0727
 1963W        W 5482   9.154   1.815   0.036  0.1590  0.0205  0.0310
 1964W        W 5483   9.210   5.128   8.273  0.0607  0.1077  0.1724
 1965W        W 5484   7.630   5.198  11.019  0.1461  0.0499 -0.0248
 1966W        W 5485   1.776   2.766   8.352 -0.0099  0.1795 -0.2827
 1967W        W 5486   0.614   8.665   3.851  0.3761  0.2733  0.0788
 1968W        W 5487   5.019   4.413   4.661 -0.1830 -0.2204 -0.2345
 1969W        W 5488   6.068   0.788   1.715  0.0707  0.4021  0.0286
 1970W        W 5489   5.717   0.282  10.907 -0.0953  0.0995  0.0438
 1971W        W 5490   7.675   2.766   8.946  0.2127  0.1395  0.1061
 1972W        W 5491   1.567   0.129  11.896  0.1513 -0.2328 -0.1884
 1973W        W 5492   8.858   8.527   2.923  0.3094 -0.2605  0.2144
 1974W        W 5493   1.768   0.859   2.552 -0.0323  0.4028 -0.0805
 1975W        W 5494   9.455   7.725   9.804 -0.0319 -0.0995  0.1563
 1976W        W 5495   0.458   8.848   9.576 -0.1787  0.1211  0.0263
 1977W        W 5496   4.740   8.600   8.793 -0.0499  0.1494  0.0429
 1978W        W 5497   7.922   9.350   9.267  0.0717  0.0996 -0.0895
 1979W        W 5498   3.358   5.636  10.464 -0.0506 -0.0588  0.0627
 1980W        W 5499   1.182   5.162   0.486  0.0639  0.0915 -0.0836
 1981W        W 5500   5.122   8.247   0.438  0.1332  0.0826  0.1094
 1982W        W 5501   5.978   6.269   8.990  0.1639  0.2153  0.0475
 1983W        W 5502   5.502   1.941   1.660  0.1524  0.2651  0.0582
 1984W        W 5503   1.056   8.712   8.725  0.0253 -0.2642  0.1707
 1985W        W 5504   0.877   4.081   9.958 -0.3631  0.0568 -0.0940
 1986W        W 5505   6.143   5.363  10.060  0.1558 -0.4044 -0.1419
 1987W        W 5506   9.130   9.375  12.104  0.2651  0.1967 -0.1003
 1988W        W 5507   8.487   4.345   1.267 -0.1074  0.2072  0.3293
 1989W        W 5508   5.862   7.540   2.256  0.2216  0.2163 -0.3403
 1990W        W 5509   3.022   4.907   8.373  0.1368  0.1495  0.2118
 1991W        W 5510   4.859   1.323   1.103  0.0547 -0.3114  0.3249
 1992W        W 5511   2.599   1.288   3.254  0.3882  0.1354  0.0064
 1993W        W 5512   7.654   5.837  11.161 -0.1240 -0.2261  0.2586
 1994W        W 5513   3.206   4.532   3.450  0.1481 -0.1134 -0.0767
 1995W        W 5514   5.363   2.706   9.874  0.2634 -0.2371 -0.0977
 1996W        W 5515   7.541   6.548   0.501 -0.1121 -0.0588  0.2202
 1997W        W 5516   0.786   4.735  10.670 -0.0522 -0.2464  0.0471
 1998W        W 5517   6.113   6.232  12.321  0.3067  0.0801  0.0995
 1999W        W 5518   7.076   4.148   4.163 -0.1778  0.2096  0.0290
 2000W        W 5519   0.981   5.287  10.712 -0.0196 -0.3123 -0.1048
 2001W        W 5520   1.119   5.306  11.782  0.1625  0.0349  0.2971
 2002W        W 5521   8.330   9.109   0.238 -0.1798 -0.5539 -0.1568
 2003W        W 5522   4.310   8.126   1.660 -0.4517 -0.0405 -0.2546
 2004W        W 5523   4.774   8.727   2.064  0.0833 -0.1149  0.0942
 2005W        W 5524   4.710   4.524   8.197 -0.0703  0.2280 -0.2112
 2006W        W 5525   7.824   0.745  11.264 -0.0289 -0.1411  0.1119
 2007W        W 5526   2.824   9.612  11.619 -0.1070 -0.1019 -0.2016
 2008W        W 5527   3.654   2.527   0.388  0.0976 -0.3060 -0.4163
 2009W        W 5528   8.632   1.229  10.970  0.3231 -0.2802 -0.0543
 2010W        W 5529   3.639   5.174  11.545  0.0647 -0.2529  0.3636
 2011W        W 5530   5.969   8.502   4.712 -0.1253  0.1771  0.0317
 2012W        W 5531   7.685   8.014  12.047  0.0693 -0.3541 -0.0187
 2013W        W 5532   6.505   4.493   1.841  0.3327 -0.0612  0.0060
 2014W        W 5533   0.095   3.127   1.245  0.3284  0.0790 -0.0104
 2015W        W 5534   8.822   2.618  10.047  0.0383 -0.3710 -0.2920
 2016W        W 5535   4.722   5.354   5.046 -0.1896  0.2894 -0.0862
 2017W        W 5536   7.004   3.905   1.339  0.3184 -0.2472  0.0662
 2018W        W 5537   0.635   9.339   0.395  0.1785 -0.2790 -0.1652
 2019W        W 5538   3.889   8.776   2.222 -0.0456 -0.0314 -0.2940
 2020W        W 5539   4.921   9.330   2.435 -0.0132 -0.0655 -0.1508
 2021W        W 5540   6.448   0.777   1.341  0.1855 -0.1021  0.0592
 2022W        W 5541   5.386   4.504   4.300 -0.4002  0.0067 -0.0634
 2023W        W 5542   1.356   3.552   1.928 -0.1473 -0.3037  0.1924
 2024W        W 5543   9.426   1.796   8.777  0.2544 -0.2299  0.1029
 2025W        W 5544   9.013   2.108   8.908  0.1231 -0.0634 -0.0439
 2026W        W 5545   3.099   5.465   3.129 -0.1620 -0.1088 -0.2696
 2027W        W 5546   8.571   4.442   8.864  0.4873  0.0250 -0.2901
 2028W        W 5547   1.785   2.889  10.254 -0.0497 -0.1781 -0.1974
 2029W        W 5548   7.871   9.238   9.996  0.0350  0.0844  0.1771
 2030W        W 5549   4.344   5.424   9.675 -0.3399  0.0781  0.3066
 2031W        W 5550   2.277   3.217   4.572  0.1245 -0.1375  0.2296
 2032W        W 5551   0.974   3.509   9.167  0.1915 -0.1654  0.2871
 2033W        W 5552   6.126   2.478   8.452  0.0504 -0.3380  0.2895
 2034W        W 5553   7.767   0.582  11.719 -0.0899 -0.0841 -0.0002
 2035W        W 5554   0.729   6.078  10.644  0.1014 -0.2862 -0.4517
 2036W        W 5555   6.499   0.413   2.080  0.0143 -0.0237  0.1491
 2037W        W 5556   7.939   9.400   0.388 -0.0760 -0.1554 -0.1308
 2038W        W 5557   5.733   0.023   8.950 -0.0122 -0.0400 -0.1299
 2039W        W 5558   8.907   4.077   3.081 -0.0025 -0.2251 -0.1320
 2040W        W 5559   6.621   0.734   2.460  0.1411 -0.0717  0.4226
 2041W        W 5560   9.662   4.701   0.005  0.1264  0.0110  0.1293
 2042W        W 5561   2.276   1.613   9.103  0.0220  0.1196  0.1526
 2043W        W 5562   9.554   3.818  11.980 -0.3472 -0.3011 -0.0565
 2044W        W 5563   2.698   2.385   0.116  0.1184 -0.0186  0.1213
 2045W        W 5564   8.851   0.540  10.044 -0.1136 -0.0063  0.1241
 2046W        W 5565   5.148   2.605   7.950 -0.0338 -0.0147 -0.3071
 2047W        W 5566   1.520   1.310   9.510 -0.3879  0.1250  0.4321
 2048W        W 5567   8.122   3.450   9.018  0.1453 -0.2941  0.0021
 2049W        W 5568   3.154   4.069   3.338 -0.0683  0.0909  0.2758
 2050W        W 5569   8.426   2.836   2.030  0.2577  0.2590 -0.0567
 2051W        W 5570   7.745   8.586   0.586 -0.0774  0.0726  0.0169
 2052W        W 5571   6.783   8.821   5.128  0.0585  0.1539 -0.2789
 2053W        W 5572   8.150   5.932   2.697  0.0002 -0.1543 -0.1221
 2054W        W 5573   1.336   8.316  12.065  0.4206  0.1055 -0.0681
 2055W        W 5574   6.024   6.082   0.477  0.1344  0.1661 -0.0026
 2056W        W 5575   8.104   4.007   1.022  0.1542 -0.0858 -0.1734
 2057W        W 5576   8.508   2.371   0.368  0.2980  0.0705  0.1906
 2058W        W 5577   2.205   8.055  11.661  0.2281 -0.3590  0.2236
 2059W        W 5578   9.126   0.392   8.142  0.2456 -0.1426 -0.2492
 2060W        W 5579   6.001   8.951   0.077 -0.3061  0.1400  0.3534
 2061W        W 5580   1.933   4.796  10.375  0.3507 -0.0625  0.1510
 2062W        W 5581   6.642   2.161   8.957 -0.1141  0.0778 -0.0513
 2063W        W 5582   2.577   8.948  12.304 -0.4778 -0.0826 -0.2004
 2064W        W 5583   0.342   7.217  12.044  0.2755  0.0939 -0.0306
 2065W        W 5584   2.426   1.671   0.754  0.0982 -0.0121  0.0883
 2066W        W 5585   8.007   6.127   2.294  0.0914 -0.2348  0.3783
 2067W        W 5586   6.306   9.033   2.731 -0.3310 -0.1239 -0.1089
 2068W        W 5587   6.600   1.507   3.569 -0.1803 -0.2147  0.0471
 2069W        W 5588   1.293   3.070   4.517  0.4089 -0.0986 -0.3700
 2070W        W 5589   2.068   1.508   3.290  0.1360  0.0465 -0.0103
 2071W        W 5590   2.593   0.865   0.412  0.0562 -0.2498 -0.0584
 2072W        W 5591   7.211   1.222   4.127  0.0266 -0.0248 -0.1569
 2073W        W 5592   7.344   6.438   2.249  0.0003  0.2047  0.0217
 2074W        W 5593   0.192   8.022   2.867 -0.0879  0.0374  0.2899
 2075W        W 5594   0.095   1.172   3.359  0.0785  0.1821  0.1361
 2076W        W 5595   4.559   4.155   9.163  0.2860 -0.1021 -0.2499
 2077W        W 5596   3.416   2.396  10.325  0.1905  0.1381  0.0028
 2078W        W 5597   0.734   0.737   2.672 -0.1408 -0.0342  0.0746
 2079W        W 5598   2.629   7.484   0.015 -0.0018  0.2469  0.0101
 2080W        W 5599   4.205   5.589  10.185 -0.2834 -0.1046  0.2639
 2081W        W 5600   4.476   0.866  11.428  0.3279 -0.1588 -0.1086
 2082W        W 5601   6.960   2.442   9.885 -0.0266 -0.1117 -0.0082
 2083W        W 5602   2.847   9.680   9.022  0.0437  0.4756  0.1609
 2084W        W 5603   4.651   5.849   3.092 -0.0067  0.0163 -0.0765
 2085W        W 5604   2.705   3.313   3.850  0.3811 -0.1171  0.1478
 2086W        W 5605   6.104   3.507  10.308  0.2727  0.0729 -0.0850
 2087W        W 5606   2.522   0.575  11.200 -0.2276 -0.1279  0.3230
 2088W        W 5607   3.243   5.089   2.821 -0.0209  0.0831 -0.2831
 2089W        W 5608   3.348   8.270   3.355 -0.0623 -0.0244 -0.5010
 2090W        W 5609   0.203   8.770   9.083  0.2440  0.2942 -0.0394
 2091W        W 5610   4.247   3.448  10.323  0.1593 -0.0451 -0.0355
 2092W        W 5611   8.163   3.859   3.971 -0.3098 -0.0932 -0.3245
 2093W        W 5612   5.994   0.428   9.777 -0.0581 -0.3478 -0.1800
 2094W        W 5613   2.017   3.930  12.097 -0.2494 -0.2682  0.1320
 2095W        W 5614   5.529   3.170   2.976  0.0406  0.2796  0.1751
 2096W        W 5615   1.630   4.788   0.722 -0.0693 -0.1183 -0.0790
 2097W        W 5616   2.349   1.062   9.356 -0.2737  0.0858  0.1484
 2098W        W 5617   1.222   3.952  10.985 -0.0490 -0.2608  0.1976
 2099W        W 5618   5.745   1.859   0.602 -0.1571  0.1500 -0.0347
 2100W        W 5619   1.810   8.266   9.569  0.2486  0.0329 -0.4670
 2101W        W 5620   3.170   7.507  10.491 -0.1398  0.0472 -0.0670
 2102W        W 5621   6.676   8.916   2.422  0.1603 -0.0853  0.2101
 2103W        W 5622   4.270   6.761  12.115 -0.0799  0.3122  0.2129
 2104W        W 5623   6.473   3.937   9.640 -0.3656 -0.0346 -0.0323
 2105W        W 5624   9.046   4.134   1.858 -0.1262 -0.2131  0.0373
 2106W        W 5625   4.002   9.498   0.052 -0.0413  0.0314 -0.0034
 2107W        W 5626   7.109   5.445   3.947 -0.0115  0.0345 -0.0597
 2108W        W 5627   4.945   7.921  10.638  0.0121 -0.1466  0.1837
 2109W        W 5628   4.819   8.274   1.866  0.0834  0.0847 -0.0351
 2110W        W 5629   2.174   8.776  11.449 -0.2579  0.4612  0.0256
 2111W        W 5630   7.261   0.072   0.571  0.0013 -0.2643 -0.1248
 2112W        W 5631   6.474   9.460   0.885  0.1599  0.0213  0.3877
 2113W        W 5632   2.709   5.207   0.975  0.1484 -0.1768  0.0522
 2114W        W 5633   6.335   4.455   4.708 -0.0901  0.4492  0.0163
 2115W        W 5634   4.840   2.523   2.724 -0.1315 -0.2189  0.2249
 2116W        W 5635   7.624   4.961   1.362  0.0883  0.5262 -0.2077
 2117W        W 5636   2.871   1.964   2.878 -0.2452  0.1755  0.0067
 2118W        W 5637   2.890   2.502   1.629  0.3098 -0.1388  0.1833
 2119W        W 5638   8.923   5.256   2.780 -0.3633  0.1545  0.1932
 2120W        W 5639   5.903   6.639   2.066 -0.1750  0.2624 -0.1159
 2121W        W 5640   6.057   3.499   3.305 -0.5478 -0.0129 -0.2166
 2122W        W 5641   3.578   9.383   2.918 -0.0413  0.1075  0.1754
 2123W        W 5642   2.337   3.183   9.110  0.1835  0.1751 -0.1779
 2124W        W 5643   3.669   9.514  10.928  0.1072  0.3512  0.2003
 2125W        W 5644   6.153   7.717   8.449  0.2262 -0.1067 -0.1476
 2126W        W 5645   2.280   4.315   3.369 -0.1859 -0.0582 -0.0777
 2127W        W 5646   2.483   2.138   3.754 -0.0128 -0.2350  0.0635
 2128W        W 5647   1.622   2.002  11.135 -0.4054 -0.1924  0.1322
 2129W        W 5648   3.790   5.329   9.203  0.0228  0.0197 -0.0253
 2130W        W 5649   1.541   3.320   2.742  0.1954  0.0120 -0.3309
 2131W        W 5650   7.856   7.708   2.991  0.1140  0.0204  0.0463
 2132W        W 5651   9.488   5.621   8.611  0.1736 -0.1142  0.2696
 2133W        W 5652   9.221   8.255  10.030  0.0335 -0.0670 -0.3857
 2134W        W 5653   6.727   1.873   3.065 -0.3949  0.1904 -0.0142
 2135W        W 5654   8.281   0.599  11.750  0.3806  0.1441 -0.2192
 2136W        W 5655   6.319   4.946   8.735  0.2513  0.0454  0.2276
 2137W        W 5656   4.763   3.956  10.737  0.1052 -0.2496  0.0616
 2138W        W 5657   2.311   3.016   1.279  0.0974 -0.1551 -0.1081
 2139W        W 5658   9.371   0.365   9.854  0.0231  0.0916  0.3679
 2140W        W 5659   1.956   3.212  11.888 -0.0227 -0.1113  0.2324
 2141W        W 5660   8.159   0.874   2.442 -0.2852 -0.0188 -0.1359
 2142W        W 5661   3.941   3.640   9.539 -0.1518  0.2405  0.1886
 2143W        W 5662   4.163   5.339  12.275  0.1869  0.1652  0.2224
 2144W        W 5663   5.034   4.125   4.250 -0.1294  0.0495 -0.0212
 2145W        W 5664   6.682   1.548   9.292  0.0984  0.1152  0.4200
 2146W        W 5665   8.542   6.916  10.292 -0.1972 -0.0655  0.0020
 2147W        W 5666   6.846   3.378  10.314 -0.0609  0.2085  0.1400
 2148W        W 5667   8.638   0.604   0.119  0.0517  0.1413 -0.2887
 2149W        W 5668   7.951   4.119   4.943 -0.0933 -0.3123 -0.0337
 2150W        W 5669   1.660   8.800   3.055 -0.2286  0.1187 -0.0231
 2151W        W 5670   9.160   1.760   0.746  0.1021  0.0554 -0.0151
 2152W        W 5671   8.991   4.755  10.069  0.2494  0.0578  0.0637
 2153W        W 5672   6.776   4.627   2.720  0.2969 -0.1754 -0.1801
 2154W        W 5673   8.445   7.750   3.107  0.1573  0.0494 -0.2863
 2155W        W 5674   4.970   8.284   1.339  0.0283 -0.0809  0.0790
 2156W        W 5675   1.962   2.737  10.718 -0.2859 -0.3154 -0.0292
 2157W        W 5676   8.533   8.809   1.903 -0.0113 -0.0209 -0.1315
 2158W        W 5677   6.063   8.907   2.094  0.3290 -0.0138  0.2762
 2159W        W 5678   5.200   0.599   1.650 -0.0636  0.1690  0.1072
 2160W        W 5679   5.015   6.319   0.808  0.3647  0.0503 -0.1232
 2161W        W 5680   6.275   3.988   1.001  0.1275  0.1601  0.1825
 2162W        W 5681   2.097   8.961   2.579 -0.4159  0.2790  0.2482
 2163W        W 5682   5.289   1.164   9.413  0.2774  0.0764 -0.2213
 2164W        W 5683   1.259   6.094   2.320 -0.1011  0.0413  0.0605
 2165W        W 5684   7.640   3.824   0.066  0.3507 -0.0206  0.1744
 2166W        W 5685   0.658   4.025  11.963 -0.3290  0.3287 -0.3255
 2167W        W 5686   0.217   0.211   9.138 -0.1120  0.0553  0.0183
 2168W        W 5687   3.146   1.800   3.738  0.0371 -0.0002 -0.0738
 2169W        W 5688   7.330   0.939   2.285 -0.0022  0.0650 -0.3346
 2170W        W 5689   9.300   9.064   1.271  0.1937  0.1477 -0.1486
 2171W        W 5690   9.262   1.865  11.392  0.1448 -0.0336  0.2230
 2172W        W 5691   2.546   2.929   4.195 -0.1629 -0.0668 -0.1994
 2173W        W 5692   2.410   3.431  10.475  0.1386  0.2284 -0.1015
 2174W        W 5693   0.190   9.624   9.533 -0.3213  0.0674  0.3173
 2175W        W 5694   1.932   3.328   3.617  0.3353  0.0588 -0.1099
 2176W        W 5695   8.026   5.162   0.388  0.0481 -0.2299  0.0934
 2177W        W 5696   1.579   6.688   8.974 -0.0646  0.0469 -0.2156
 2178W        W 5697   8.562   6.999   3.921 -0.0808  0.0138  0.3537
 2179W        W 5698   6.151   5.000  10.443  0.0220 -0.0934  0.1953
 2180W        W 5699   9.078   9.146   0.249 -0.0161  0.0274 -0.1069
 2181W        W 5700   3.698   0.628   8.292 -0.0099 -0.1245 -0.3087
 2182W        W 5701   1.397   5.492   8.912 -0.2340 -0.0085 -0.2046
 2183W        W 5702   2.386   7.727   9.371 -0.3632  0.0898 -0.2484
 2184W        W 5703   8.517   0.929   3.348  0.0787  0.1706  0.0793
 2185W        W 5704   4.086   8.924   3.614  0.0508  0.1123 -0.0086
 2186W        W 5705   3.700   4.462   9.300  0.1396  0.1005 -0.0271
 2187W        W 5706   7.123   2.250  11.036  0.1062 -0.2113 -0.1125
 2188W        W 5707   8.238   5.921  10.955 -0.2558 -0.1247 -0.0003
 2189W        W 5708   5.879   6.892   9.486  0.2852 -0.1361  0.3078
 2190W        W 5709   3.861   5.352   0.303 -0.1215  0.0553 -0.0257
 2191W        W 5710   1.034   1.831  11.021 -0.0240  0.4300  0.0125
 2192W        W 5711   4.683   8.268   3.354  0.2077 -0.3034  0.1566
 2193W        W 5712   1.011   1.853  10.071  0.2618 -0.0286  0.0600
 2194W        W 5713   6.849   1.974   3.586 -0.1815  0.0977 -0.1043
 2195W        W 5714   5.165   2.516   1.383  0.2285  0.3357 -0.1825
 2196W        W 5715   3.720   4.886   0.082  0.2328 -0.2373 -0.2530
 2197W        W 5716   6.272   4.040  11.002  0.3430  0.2163 -0.3224
 2198W        W 5717   6.837   1.710   0.471  0.2039 -0.0899 -0.0133
 2199W        W 5718   5.523   8.533  11.923  0.0398  0.3327 -0.2920
 2200W        W 5719   4.565   9.141   9.461  0.1804  0.0524  0.0886
 2201W        W 5720   6.160   9.550   9.113 -0.1811 -0.0777 -0.1603
 2202W        W 5721   8.562   1.769  10.964  0.0132 -0.2491 -0.1226
 2203W        W 5722   0.086   3.232   2.231 -0.1696  0.1178  0.3485
 2204W        W 5723   3.856   5.586   9.747  0.1532 -0.1712 -0.2270
 2205W        W 5724   0.348   8.752  10.048 -0.0397 -0.1855  0.1585
 2206W        W 5725   7.188   4.586  11.772  0.2335  0.1245  0.5951
 2207W        W 5726   6.154   9.746   2.124 -0.4128  0.1231 -0.0937
 2208W        W 5727   0.781   2.591   2.403 -0.0959  0.4755 -0.0090
 2209W        W 5728   2.001   3.834   1.894 -0.1342 -0.0154  0.0374
 2210W        W 5729   3.560   6.368   0.399  0.3532  0.0388  0.0683
 2211W        W 5730   8.521   8.796   1.194 -0.0678  0.0196 -0.0533
 2212W        W 5731   0.054   0.960   1.119  0.1998  0.0669 -0.1951
 2213W        W 5732   5.587   7.098   0.751 -0.2865 -0.1854  0.0774
 2214W        W 5733   1.820   4.257   3.126 -0.2078  0.2843 -0.1303
 2215W        W 5734   9.091   9.609   2.080  0.0313 -0.1993  0.1096
 2216W        W 5735   5.583   8.240  10.108 -0.3056  0.1156  0.4080
 2217W        W 5736   3.663   2.376  11.492 -0.1002 -0.1194 -0.1962
 2218W        W 5737   7.896   8.862   0.191  0.1493 -0.3259  0.0659
 2219W        W 5738   8.310   6.616   1.713 -0.1147  0.4560 -0.0812
 2220W        W 5739   7.742   1.738  10.610 -0.1227 -0.0339 -0.2037
 2221W        W 5740   4.155   4.114   2.358 -0.3397  0.0279  0.2014
 2222W        W 5741   5.754   1.700   2.049 -0.1184 -0.0600 -0.0388
 2223W        W 5742   8.853   0.548   9.495  0.3889 -0.1076 -0.0977
 2224W        W 5743   9.210   2.196  10.519  0.0335  0.1378  0.4625
 2225W        W 5744   0.076   3.932  11.263  0.0237 -0.1660  0.0545
 2226W        W 5745   5.320   3.324  11.759 -0.0381  0.0314 -0.1097
 2227W        W 5746   5.600   0.089  11.340 -0.3153 -0.0141 -0.3944
 2228W        W 5747   0.867   4.318   9.133  0.1344  0.1427  0.0216
 2229W        W 5748   4.401   5.904   0.226 -0.0296 -0.2309  0.1916
 2230W        W 5749   5.980   4.304  10.659  0.0026 -0.3474  0.2341
 2231W        W 5750   7.594   5.417   8.576  0.0481 -0.1515 -0.0430
 2232W        W 5751   1.962   0.560   2.936 -0.0876  0.0927 -0.4875
 2233W        W 5752   9.403   5.383   2.498  0.2770  0.0539  0.0031
 2234W        W 5753   7.872   8.679   2.684 -0.4488  0.1361  0.0536
 2235W        W 5754   3.637   8.599   3.572 -0.5492 -0.1388 -0.0393
 2236W        W 5755   0.491   8.800  12.081  0.2096  0.1655 -0.0013
 2237W        W 5756   3.227   2.303   9.829 -0.0590 -0.2021 -0.0365
 2238W        W 5757   9.463   3.027   2.490 -0.0551  0.0012 -0.0636
 2239W        W 5758   6.307   5.944   9.714  0.1531 -0.0329  0.0473
 2240W        W 5759   0.641   6.383   3.543 -0.0230  0.0912 -0.5601
 2241W        W 5760   6.763   6.474   8.227 -0.1015  0.0741 -0.0384
 2242W        W 5761   9.723   7.623   1.090 -0.1821 -0.0063 -0.1682
 2243W        W 5762   4.563   0.342   2.216  0.0394  0.3100  0.4271
 2244W        W 5763   8.012   0.511   0.839  0.1011  0.2012  0.2884
 2245W        W 5764   2.305   6.762   9.665  0.0438 -0.1569  0.1033
 2246W        W 5765   1.141   4.531   1.263 -0.1759 -0.2062  0.1952
 2247W        W 5766   4.988   7.109  12.124 -0.0604 -0.0670 -0.2274
 2248W        W 5767   8.012   2.874  11.673 -0.4605  0.0105  0.0441
 2249W        W 5768   0.879   1.367   2.821  0.0160 -0.1387 -0.0022
 2250W        W 5769   2.799   7.417  11.628 -0.1296 -0.1175  0.0050
 2251W        W 5770   2.635   2.142   8.333 -0.0083  0.2405 -0.0990
 2252W        W 5771   1.697   3.628  11.741 -0.3147  0.0436 -0.1623
 2253W        W 5772   8.848   3.780  11.080 -0.1891 -0.0719 -0.0397
 2254W        W 5773   9.226   8.926  11.777 -0.1543 -0.1138  0.0044
 2255W        W 5774   6.251   7.851  10.808 -0.0310 -0.0589  0.0605
 2256W        W 5775   9.112   1.190   2.117  0.0850  0.0723 -0.2720
 2257W        W 5776   2.626   1.461  10.003 -0.2346  0.3545  0.4426
 2258W        W 5777   0.356   2.312  10.549 -0.2511 -0.1414  0.1318
 2259W        W 5778   4.388   6.446   2.245 -0.0012 -0.0720 -0.1372
 2260W        W 5779   1.297   2.003   3.191 -0.3806  0.2625  0.0628
 2261W        W 5780   3.666   5.318  12.132  0.1271  0.0991 -0.0408
 2262W        W 5781   5.084   1.982   4.097  0.1800  0.2059 -0.0230
 2263W        W 5782   6.360   2.709   2.987 -0.1077  0.3090  0.1592
 2264W        W 5783   9.319   4.446   9.832  0.1382 -0.0181 -0.1700
 2265W        W 5784   5.859   1.277  11.113 -0.2101  0.2076  0.1395
 2266W        W 5785   0.344   2.321   3.634  0.3719  0.0498  0.2973
 2267W        W 5786   1.388   7.145   1.957  0.0507  0.3488  0.1036
 2268W        W 5787   6.182   6.530   1.654  0.0907 -0.1968 -0.2355
 2269W        W 5788   2.875   9.026   4.370 -0.1420 -0.1782 -0.2327
 2270W        W 5789   1.784   1.851  12.285  0.0107 -0.2786 -0.0657
 2271W        W 5790   2.839   5.971   9.819  0.0636 -0.0663 -0.2357
 2272W        W 5791   4.322   7.414   9.770  0.1987 -0.1838 -0.1163
 2273W        W 5792   0.469   5.380  12.101 -0.2673  0.1054  0.1439
 2274W        W 5793   7.141   7.314   1.757  0.1298 -0.0033 -0.5596
 2275W        W 5794   3.039   4.272   2.409 -0.0559 -0.1293  0.1904
 2276W        W 5795   6.435   3.381   1.893  0.1086 -0.1158  0.0426
 2277W        W 5796   7.189   5.209   9.351  0.0115  0.0090 -0.0020
 2278W        W 5797   8.617   2.261   9.755 -0.2096  0.2105  0.1856
 2279W        W 5798   7.295   2.474   7.862 -0.0390 -0.1341  0.0566
 2280W        W 5799   8.954   5.123   1.680 -0.3458 -0.0857 -0.1135
 2281W        W 5800   5.162   9.726   2.240  0.0351  0.2110 -0.1512
 2282W        W 5801   0.775   1.446   1.496 -0.0398  0.0424 -0.1446
 2283W        W 5802   7.213   2.446   8.908 -0.1885  0.0047  0.0519
 2284W        W 5803   3.394   0.220   1.997 -0.0633 -0.1778 -0.3619
 2285W        W 5804   3.815   3.407   0.728 -0.0413 -0.1003  0.3473
 2286W        W 5805   8.220   8.541   4.199 -0.2594 -0.2090 -0.0339
 2287W        W 5806   1.255   7.495  10.199 -0.2061  0.1084  0.2997
 2288W        W 5807   5.776   5.173   8.828  0.2429 -0.1803 -0.0459
 2289W        W 5808   2.444   2.512   1.862 -0.0628  0.0085 -0.0583
 2290W        W 5809   4.356   2.791  10.407  0.1868  0.0658 -0.0667
 2291W        W 5810   0.184   1.787   9.020  0.3719 -0.2808  0.0768
 2292W        W 5811   1.375   5.279   1.525 -0.0445  0.0435 -0.0764
 2293W        W 5812   6.892   4.132   1.763  0.1535 -0.1369  0.0228
 2294W        W 5813   9.279   0.976   8.878 -0.1478 -0.2119  0.2589
 2295W        W 5814   6.974   1.807  11.175  0.0187  0.0423  0.3158
 2296W        W 5815   8.151   0.832   1.161  0.0489 -0.1956  0.1726
 2297W        W 5816   8.463   0.270   0.946 -0.1054  0.0588 -0.2378
 2298W        W 5817   0.373   8.333   9.691  0.1241  0.0592 -0.0964
 2299W        W 5818   6.815   4.317  11.903 -0.0921  0.0453  0.1335
 2300W        W 5819   2.828   2.474   0.952 -0.0563 -0.0136  0.2793
 2301W        W 5820   5.496   4.518   0.013  0.3412 -0.0087  0.0018
 2302W        W 5821   5.977   4.305   4.371  0.2750 -0.1489  0.1407
 2303W        W 5822   7.698   1.508   7.880  0.1354  0.1618  0.0836
 2304W        W 5823   6.451   0.056   2.963 -0.1068  0.0295 -0.0931
 2305W        W 5824   0.682   1.959   1.525  0.1135 -0.0763 -0.0204
 2306W        W 5825   4.289   8.348   2.898  0.0884  0.3178 -0.2311
 2307W        W 5826   3.134   4.444   4.622 -0.1283  0.2755 -0.1718
 2308W        W 5827   7.142   7.846   1.795  0.3479 -0.0469 -0.0316
 2309W        W 5828   3.196   2.052   8.213  0.4393  0.0957 -0.0439
 2310W        W 5829   3.376   2.001  10.666  0.0886 -0.0086 -0.1780
 2311W        W 5830   7.627   5.956  12.217  0.0323 -0.0439 -0.2757
 2312W        W 5831   8.257   0.517  10.037 -0.0263  0.2958 -0.1192
 2313W        W 5832   7.867   7.773   1.335 -0.1710 -0.0191  0.2954
 2314W        W 5833   0.577   5.846   0.130 -0.2609 -0.0267  0.0587
 2315W        W 5834   0.666   2.620   8.921 -0.0302 -0.1536  0.3269
 2316W        W 5835   8.586   3.096   7.876  0.2122  0.1702 -0.0809
 2317W        W 5836   6.096   7.983   0.218 -0.0698 -0.0802 -0.0021
 2318W        W 5837   8.429   3.140   8.410 -0.1111  0.0180 -0.0966
 2319W        W 5838   3.826   4.864   0.961 -0.3901 -0.0835 -0.0264
 2320W        W 5839   4.476   2.573   3.575  0.2317 -0.0619 -0.1301
 2321W        W 5840   7.422   3.598   0.430  0.0835 -0.1038  0.0709
 2322W        W 5841   7.805   3.769  10.986  0.2528 -0.2241  0.0962
 2323W        W 5842   0.215   8.136  10.674 -0.0634  0.0267 -0.1429
 2324W        W 5843   2.477   8.341   9.251 -0.1527  0.1280  0.2151
 2325W        W 5844   8.775   4.520   0.811  0.2609  0.2780  0.3485
 2326W        W 5845   9.028   7.532   9.971 -0.0013  0.0110 -0.2503
 2327W        W 5846   3.131   2.398  11.534 -0.0467  0.0403  0.0926
 2328W        W 5847   8.328   6.909   0.533  0.1010  0.0507  0.1850
 2329W        W 5848   3.974   9.521   1.079  0.1524 -0.0598 -0.3047
 2330W        W 5849   5.475   7.672  10.346 -0.2063  0.0574 -0.0190
 2331W        W 5850   1.848   3.250   1.797  0.0522 -0.4474 -0.1456
 2332W        W 5851   6.290   7.187   4.174  0.1125  0.1803 -0.1284
 2333W        W 5852   4.441   3.837   8.686 -0.3589 -0.2914 -0.2243
 2334W        W 5853   5.797   2.391   9.862 -0.2186  0.0029  0.1033
 2335W        W 5854   0.663   0.531   8.476  0.2231 -0.0729  0.3717
 2336W        W 5855   7.320   9.459   3.923 -0.0965  0.0621  0.0443
 2337W        W 5856   2.003   3.967   1.048  0.0092 -0.0634 -0.0198
 2338W        W 5857   9.768   0.325   0.979 -0.2597  0.2217  0.2194
 2339W        W 5858   8.717   1.601   0.891 -0.1658  0.0285 -0.1215
 2340W        W 5859   0.727   9.317   9.616 -0.0732 -0.0384 -0.1489
 2341W        W 5860   5.558   7.626   3.050 -0.0679  0.0731 -0.1595
 2342W        W 5861   0.821   0.959  12.311  0.0303  0.0218  0.3516
 2343W        W 5862   0.964   6.456   2.137 -0.2859  0.0147 -0.1861
 2344W        W 5863   5.704   4.031  12.275  0.0083 -0.1367  0.2274
 2345W        W 5864   3.516   1.325   3.835 -0.1008 -0.2877 -0.0890
 2346W        W 5865   3.909   1.315   9.909 -0.2163  0.1081 -0.0569
 2347W        W 5866   6.462   2.070  11.933 -0.1916 -0.6408 -0.2075
 2348W        W 5867   1.442   7.409   0.315 -0.2366  0.3398  0.3173
 2349W        W 5868   3.333   3.739  10.920  0.0222  0.0072  0.2723
 2350W        W 5869   4.283   7.166   1.331  0.3591  0.1079 -0.0006
 2351W        W 5870   2.769   0.916  12.246 -0.0723  0.1757 -0.0040
 2352W        W 5871   3.770   4.359  10.294  0.1198  0.0544 -0.0777
 2353W        W 5872   9.490   3.032   9.046 -0.1061  0.1811 -0.1492
 2354W        W 5873   9.683   8.178  11.618 -0.0483  0.2727  0.2008
 2355W        W 5874   1.859   6.946   0.152 -0.2578 -0.1451  0.0412
 2356W        W 5875   9.293   9.480   1.048 -0.0289 -0.4854  0.0342
 2357W        W 5876   3.525   3.754  11.944  0.0318 -0.0947 -0.0753
 2358W        W 5877   4.581   3.353  12.155 -0.1288  0.0070  0.1440
 2359W        W 5878   0.062   8.687  11.047  0.1383 -0.0885  0.2008
 2360W        W 5879   4.669   3.050  10.632 -0.0618  0.0761  0.1927
 2361W        W 5880   4.470   6.251  12.106 -0.0344 -0.0641  0.1556
 2362W        W 5881   6.510   7.830  11.217  0.1144 -0.3031  0.2543
 2363W        W 5882   9.613   0.139   2.875  0.1512  0.2502 -0.0367
 2364W        W 5883   7.256   2.050  10.297 -0.0137 -0.1298 -0.0150
 2365W        W 5884   1.547   5.261   0.931  0.1236 -0.0616  0.1817
 2366W        W 5885   2.776   2.189   1.993  0.3830 -0.1826 -0.1871
 2367W        W 5886   1.618   3.942   0.192 -0.2430 -0.3479 -0.0841
 2368W        W 5887   8.833   4.533   3.357 -0.1389  0.2714  0.0519
 2369W        W 5888   3.532   3.743   3.951 -0.1493 -0.0103  0.1578
 2370W        W 5889   1.186   3.826   2.638  0.1981 -0.0991 -0.1954
 2371W        W 5890   0.422   8.463   3.436  0.0713 -0.0762  0.1008
 2372W        W 5891   2.834   5.626  10.173  0.0681  0.0923  0.0337
 2373W        W 5892   1.500   4.641  10.147  0.2296  0.0108 -0.0902
 2374W        W 5893   3.752   1.878  10.995 -0.0703  0.0642  0.3727
 2375W        W 5894   2.974   9.356  11.029  0.2345 -0.2304  0.0865
 2376W        W 5895   4.243   2.114   0.923 -0.1282 -0.0944 -0.3851
 2377W        W 5896   1.627   2.510  11.068 -0.0615  0.4093 -0.3371
 2378W        W 5897   7.619   6.854   2.552  0.0004 -0.2409  0.0256
 2379W        W 5898   4.147   1.513   8.443  0.0595 -0.0057 -0.1315
 2380W        W 5899   5.567   0.831   2.503 -0.4156 -0.0094 -0.1002
 2381W        W 5900   2.602   2.557  11.616  0.4771  0.0902  0.0911
 2382W        W 5901   2.298   8.344   2.287 -0.0752 -0.0878  0.3342
 2383W        W 5902   4.834   0.983   2.795  0.3101 -0.2336  0.0334
 2384W        W 5903   1.786   7.845   1.685 -0.2231  0.3872 -0.2003
 2385W        W 5904   1.996   1.649   0.385  0.2797  0.0691 -0.2163
 2386W        W 5905   6.810   5.050   2.434  0.2736 -0.2202  0.0036
 2387W        W 5906   8.369   6.755  12.172 -0.2054 -0.2156  0.1119
 2388W        W 5907   5.849   1.721   0.061 -0.0385  0.0015  0.1340
 2389W        W 5908   9.080   3.920  11.913 -0.0889  0.1851  0.1680
 2390W        W 5909   2.324   4.720   3.637 -0.1683 -0.0551  0.1472
 2391W        W 5910   7.315   6.255   4.047  0.1958  0.3768 -0.0334
 2392W        W 5911   0.461   6.515   0.783 -0.2912 -0.0318 -0.2237
 2393W        W 5912   3.838   7.946   2.857 -0.4237  0.2086 -0.0307
 2394W        W 5913   0.147   0.416  11.325 -0.1638 -0.2385 -0.2887
 2395W        W 5914   0.567   8.179   4.156  0.0063 -0.1956  0.3105
 2396W        W 5915   7.600   7.213   3.652 -0.1589  0.0715  0.1961
 2397W        W 5916   0.050   0.264   8.678 -0.0661 -0.0257 -0.1160
 2398W        W 5917   3.585   6.641   1.730  0.2410  0.1420 -0.1730
 2399W        W 5918   2.672   6.908  10.312  0.3528 -0.0151  0.1182
 2400W        W 5919   8.529   0.043   2.178  0.0303 -0.1404  0.2340
 2401W        W 5920   2.356   2.678   9.998 -0.1611  0.0251 -0.0153
 2402W        W 5921   0.018   0.681  11.791 -0.1733  0.2835 -0.4665
 2403W        W 5922   6.338   3.613   0.628  0.0534  0.1813 -0.2775
 2404W        W 5923   1.460   8.688   2.017  0.1560 -0.1742  0.1036
 2405W        W 5924   4.612   2.183   3.932 -0.0551  0.1746 -0.0516
 2406W        W 5925   4.481   6.129   3.874 -0.0511 -0.0028 -0.0361
 2407W        W 5926   0.505   9.230  10.041  0.2616  0.2546 -0.2592
 2408W        W 5927   2.748   2.303   7.825 -0.0536 -0.2422 -0.1162
 2409W        W 5928   1.933   9.643  12.170  0.0623  0.3626 -0.0888
 2410W        W 5929   8.760   6.968  11.908  0.0150 -0.0597  0.1129
 2411W        W 5930   8.875   5.325   2.237 -0.0592 -0.0930 -0.1311
 2412W        W 5931   4.569   6.968   0.161  0.0093  0.2468 -0.0360
 2413W        W 5932   0.375   8.520   2.789  0.0832 -0.0265 -0.0870
 2414W        W 5933   4.942   2.363  11.552  0.0688 -0.2509 -0.0430
 2415W        W 5934   4.076   3.497  11.925 -0.0969 -0.1788  0.0112
 2416W        W 5935   5.029   6.144  12.176 -0.1062  0.1524  0.0505
 2417W        W 5936   5.775   8.813   0.892  0.0579  0.0098 -0.1965
 2418W        W 5937   2.454   1.307   2.242 -0.1682 -0.0681  0.0842
 2419W        W 5938   0.932   2.988  11.996 -0.0307 -0.2651 -0.2219
 2420W        W 5939   1.361   3.068   1.776 -0.2706 -0.1622  0.0451
 2421W        W 5940   1.903   8.150  12.126 -0.4153  0.0020  0.1097
 2422W        W 5941   5.179   5.384  11.065  0.2212 -0.0896 -0.1418
 2423W        W 5942   1.090   4.727   0.183  0.0900  0.0035 -0.0603
 2424W        W 5943   8.244   1.702   9.289  0.2251 -0.3291 -0.0850
 2425W        W 5944   2.860   8.028   2.090  0.2081 -0.2036  0.2549
 2426W        W 5945   4.276   8.351   8.755 -0.1449 -0.3593 -0.1289
 2427W        W 5946   8.919   9.248   8.474 -0.1232  0.0272  0.1739
 2428W        W 5947   8.939   1.937   1.756 -0.1913 -0.1933 -0.1022
 2429W        W 5948   0.304   8.273   0.369  0.1282 -0.0142 -0.0125
 2430W        W 5949   6.525   8.735   9.056 -0.0835  0.2883  0.1479
 2431W        W 5950   6.430   0.330   1.520 -0.0414  0.0219  0.1332
 2432W        W 5951   7.735   0.353   3.103 -0.0230 -0.1449  0.2652
 2433W        W 5952   1.513   6.826   1.185 -0.3907 -0.0361  0.1456
 2434W        W 5953   6.515   1.295   8.895 -0.1336 -0.1492 -0.1047
 2435W        W 5954   8.635   2.220   9.253 -0.0850  0.1318  0.0403
 2436W        W 5955   5.096   3.779   1.389  0.0466 -0.0543 -0.2762
 2437W        W 5956   6.654   5.584  10.029  0.4013  0.1853  0.2463
 2438W        W 5957   5.082   5.464   0.216  0.1481  0.2412 -0.0618
 2439W        W 5958   6.113   3.833   8.824  0.4965 -0.0555  0.2654
 2440W        W 5959   8.632   5.081  10.255  0.2259  0.1736  0.3086
 2441W        W 5960   7.085   5.665  10.373  0.4023 -0.1307 -0.0085
 2442W        W 5961   8.582   0.186   9.668 -0.0615  0.1892  0.1659
 2443W        W 5962   8.873   1.296   3.240 -0.1232 -0.0930 -0.0554
 2444W        W 5963   4.119   3.165  11.393  0.0117  0.0434  0.0378
 2445W        W 5964   9.195   9.055  11.270 -0.1562  0.1631  0.0362
 2446W        W 5965   3.348   6.697  11.174  0.1269 -0.2911 -0.1420
 2447W        W 5966   4.863   9.484  11.117  0.1664 -0.2271 -0.1744
 2448W        W 5967   5.930   7.495   4.693  0.1276  0.3142 -0.0458
 2449W        W 5968   6.152   2.063   2.270 -0.2904  0.1030 -0.0005
 2450W        W 5969   5.608   8.358   2.516 -0.1400 -0.0197  0.0667
 2451W        W 5970   4.697   1.046  11.881 -0.2586  0.0243 -0.2519
 2452W        W 5971   1.909   5.338   9.614  0.0150 -0.2703 -0.0868
 2453W        W 5972   4.274   2.034   1.502 -0.2916 -0.0602  0.4451
 2454W        W 5973   7.528   8.944   2.387  0.2386 -0.4432 -0.4363
 2455W        W 5974   4.558   0.419   3.390  0.1241 -0.2672 -0.0399
 2456W        W 5975   6.252   6.261   8.394  0.0220  0.0892 -0.0634
 2457W        W 5976   3.596   2.410   3.245  0.1515 -0.2572 -0.0817
 2458W        W 5977   9.619   0.123   0.081 -0.0464  0.1327 -0.0148
 2459W        W 5978   1.987   0.326   4.301  0.0532  0.1672 -0.1095
 2460W        W 5979   1.322   2.524   0.536 -0.1456 -0.0589  0.0890
 2461W        W 5980   3.110   3.467   9.404  0.3542  0.0587  0.0110
 2462W        W 5981   6.202   3.220   1.497 -0.2897 -0.1190  0.0793
 2463W        W 5982   7.463   0.937  10.939 -0.0358  0.1478 -0.4302
 2464W        W 5983   7.400   4.238   2.113 -0.2403  0.2267  0.0843
 2465W        W 5984   0.640   4.971   0.404 -0.0048  0.2588  0.0957
 2466W        W 5985   0.682   5.322   0.682 -0.3886  0.2722 -0.0277
 2467W        W 5986   4.061   2.045   9.388 -0.1712 -0.0983 -0.1116
 2468W        W 5987   2.302   7.610  11.441 -0.1205  0.2057  0.1219
 2469W        W 5988   4.849   3.132   8.293  0.0923  0.2627 -0.0572
 2470W        W 5989   5.290   4.205   1.612  0.0249 -0.0462 -0.0392
 2471W        W 5990   9.428   4.169   3.323  0.0773 -0.1509  0.1369
 2472W        W 5991   8.460   4.963   0.593  0.5593 -0.3995 -0.1727
 2473W        W 5992   2.935   5.956  11.418  0.0186  0.0892 -0.3557
 2474W        W 5993   6.345   7.164   3.599 -0.0128  0.1091 -0.1589
 2475W        W 5994   0.371   6.311  10.410 -0.1841 -0.0688 -0.2710
 2476W        W 5995   3.436   4.150   2.673  0.0708  0.1437  0.0750
 2477W        W 5996   7.368   4.270   0.364 -0.0082 -0.2283  0.1501
 2478W        W 5997   9.231   1.266  10.175 -0.0077  0.2120 -0.2299
 2479W        W 5998   6.604   7.895   9.235 -0.0478  0.0657  0.1725
 2480W        W 5999   7.063   5.414   8.908 -0.2133 -0.0054  0.0536
 2481W        W 6000   3.019   7.060   8.948 -0.0666  0.1292  0.2624
 2482W        W 6001   0.434   0.645   1.771 -0.2716  0.0265 -0.1813
 2483W        W 6002   1.319   8.986  12.226  0.1394 -0.0982  0.3200
 2484W        W 6003   8.493   8.243   3.082  0.1464  0.2532  0.4087
 2485W        W 6004   7.833   8.901  10.337  0.0629  0.2477 -0.2412
 2486W        W 6005   0.844   8.206   3.632  0.2301 -0.0068  0.2450
 2487W        W 6006   5.683   5.101  10.246 -0.0772  0.0567  0.0095
 2488W        W 6007   9.622   3.639   0.156  0.1472  0.2278  0.0854
 2489W        W 6008   9.600   5.377   9.881  0.0909 -0.3328 -0.0493
 2490W        W 6009   7.240   8.533   0.577  0.0022 -0.5563 -0.0443
 2491W        W 6010   8.581   6.096   2.510 -0.1022  0.2687 -0.1805
 2492W        W 6011   9.052   4.917   2.465 -0.2000  0.2991 -0.1488
 2493W        W 6012   5.452   2.559   8.314  0.2272  0.1329 -0.1185
 2494W        W 6013   1.973   0.463   9.962 -0.0864 -0.5026  0.1891
 2495W        W 6014   3.245   4.699  11.605  0.1616 -0.2003 -0.2309
 2496W        W 6015   7.520   2.097   4.482  0.1172 -0.0508 -0.4124
 2497W        W 6016   5.281   6.612  12.285 -0.2563  0.0604  0.1848
 2498W        W 6017   4.662   7.179   1.972  0.2550  0.0725  0.1704
 2499W        W 6018   6.122   3.952   0.358  0.2940  0.0984 -0.2844
 2500W        W 6019   8.284   6.615   9.102 -0.0821  0.1270  0.0565
 2501W        W 6020   2.810   5.023   2.984  0.0858  0.2904  0.1163
 2502W        W 6021   5.385   8.260   0.919  0.4201  0.0408 -0.0402
 2503W        W 6022   8.558   7.284   3.521 -0.1885  0.2095  0.1036
 2504W        W 6023   8.928   4.812   3.865 -0.1200 -0.2355  0.2815
 2505W        W 6024   8.484   5.941  11.473  0.0911  0.0345 -0.1379
 2506W        W 6025   8.080   9.399   3.201  0.3678  0.0105  0.1006
 2507W        W 6026   7.643   5.620   2.558  0.0625  0.0636  0.1548
 2508W        W 6027   4.260   6.438   8.338  0.0728  0.3779  0.0415
 2509W        W 6028   7.035   8.493   1.252  0.1447 -0.2660 -0.2021
 2510W        W 6029   9.204   7.694  11.642 -0.2392 -0.3467  0.0820
 2511W        W 6030   0.636   4.519  10.009 -0.2396 -0.0362  0.2165
 2512W        W 6031   5.058   1.594   1.472 -0.1291  0.0475  0.1788
 2513W        W 6032   3.335   9.401   9.996  0.1894 -0.2399  0.1215
 2514W        W 6033   8.551   4.071  10.792 -0.0841 -0.0154  0.0373
 2515W        W 6034   3.623   5.257   7.986  0.2071 -0.1000  0.1389
 2516W        W 6035   0.459   3.440   9.294 -0.1077  0.2318 -0.0531
 2517W        W 6036   7.882   6.012   1.367 -0.0789 -0.2050  0.1545
 2518W        W 6037   3.613   2.943   1.114 -0.0619 -0.5307 -0.0201
 2519W        W 6038   7.206   0.127  10.174 -0.0183 -0.0896  0.0262
 2520W        W 6039   6.529   6.672   3.372  0.1679 -0.1461 -0.0005
 2521W        W 6040   1.374   4.620   2.007 -0.1108 -0.0042 -0.4480
 2522W        W 6041   3.504   0.205   9.587  0.0036  0.0245 -0.1670
 2523W        W 6042   8.181   0.131   3.119 -0.1676 -0.1301 -0.2262
 2524W        W 6043   4.274   2.075   3.580  0.0290 -0.0956  0.1151
 2525W        W 6044   9.775   6.335   2.256 -0.1871  0.1450  0.2286
 2526W        W 6045   9.344   6.074   2.299  0.2989  0.0683 -0.1415
 2527W        W 6046   9.085   0.991   1.616 -0.1787 -0.1138  0.0146
 2528W        W 6047   5.561   0.577   0.920 -0.1743 -0.1764  0.1223
 2529W        W 6048   3.301   4.815   1.796 -0.0202 -0.0287  0.2140
 2530W        W 6049   8.197   4.323  12.182  0.1803  0.4129 -0.1746
 2531W        W 6050   5.705   3.427   1.288  0.2757 -0.0071 -0.1266
 2532W        W 6051   1.695   2.147   9.543  0.1052 -0.1325  0.0596
 2533W        W 6052   0.581   9.753  11.897 -0.0088 -0.1407  0.1269
 2534W        W 6053   2.711   8.507   2.065  0.0570  0.0961 -0.0604
 2535W        W 6054   8.660   2.408   1.781  0.0279  0.0018 -0.0949
 2536W        W 6055   6.050   0.530  10.548  0.0030 -0.1691 -0.1815
 2537W        W 6056   8.500   3.370  10.353 -0.1005 -0.2261 -0.1278
 2538W        W 6057   6.558   0.418   1.033 -0.0541 -0.1749 -0.0686
 2539W        W 6058   6.480   8.374  11.753  0.0777 -0.2431 -0.1869
 2540W        W 6059   9.355   0.314  10.359 -0.0770  0.1881  0.1484
 2541W        W 6060   2.592   8.228  10.198  0.3426 -0.2146 -0.0713
 2542W        W 6061   0.911   8.587   2.682 -0.1231  0.3759  0.1034
 2543W        W 6062   8.603   0.167   2.733 -0.0173  0.1358  0.0537
 2544W        W 6063   8.379   2.586  12.178  0.0210  0.0451  0.1953
 2545W        W 6064   7.261   8.118   4.127  0.0963 -0.2017 -0.0120
 2546W        W 6065   5.971   4.422   0.261  0.0834  0.3169  0.1931
 2547W        W 6066   7.960   7.887  11.463 -0.1637 -0.1194  0.2216
 2548W        W 6067   0.348   6.979   0.648  0.2629  0.1697  0.3290
 2549W        W 6068   7.314   1.800  10.787  0.0857  0.3035 -0.4369
 2550W        W 6069   4.723   9.099   1.746 -0.1979 -0.1242 -0.1159
 2551W        W 6070   8.563   6.678   0.958  0.1692  0.1338  0.2002
 2552W        W 6071   5.261   0.085   9.364  0.1553  0.0098  0.0719
 2553W        W 6072   8.668   1.824  10.176 -0.2547 -0.1044  0.0998
 2554W        W 6073   1.997   7.898   0.319  0.0051 -0.1849 -0.1414
 2555W        W 6074   0.376   7.687   2.434 -0.3189  0.2240  0.1548
 2556W        W 6075   4.084   5.328  11.085  0.0462  0.0439 -0.1335
 2557W        W 6076   2.943   0.741  10.242  0.2339  0.1501 -0.1550
 2558W        W 6077   8.949   9.077   2.030  0.1508 -0.0547 -0.0317
 2559W        W 6078   4.955   1.187   8.248  0.2108  0.0780 -0.2471
 2560W        W 6079   5.184   6.982   0.367 -0.0519 -0.1855 -0.1882
 2561W        W 6080   4.689   0.833   2.300  0.0789 -0.0290  0.1670
 2562W        W 6081   6.631   3.385  10.957 -0.0548 -0.2719 -0.1145
 2563W        W 6082   6.507   3.426  11.887 -0.1573 -0.1088 -0.2206
 2564W        W 6083   5.707   6.196   0.886 -0.1080  0.0736 -0.0415
 2565W        W 6084   2.396   8.791   8.792  0.2020  0.0497 -0.0816
 2566W        W 6085   2.309   3.881   3.084 -0.2054  0.1595 -0.3897
 2567W        W 6086   4.491   7.903   4.124  0.3475  0.0288 -0.0032
 2568W        W 6087   5.297   3.998   3.212 -0.2656 -0.0902  0.1072
 2569W        W 6088   5.142   6.289   9.424 -0.0659  0.1299  0.1527
 2570W        W 6089   2.933   2.080  10.302  0.0770  0.0044  0.1150
 2571W        W 6090   9.460   2.228  11.023 -0.0979  0.0032  0.0044
 2572W        W 6091   8.126   1.380   1.635 -0.1896  0.1229 -0.0400
 2573W        W 6092   3.637   3.559   9.097 -0.2231 -0.2913  0.0664
 2574W        W 6093   8.171   8.643  11.590 -0.1146 -0.1517  0.0900
 2575W        W 6094   5.605   3.530  11.299 -0.3990 -0.0021 -0.1236
 2576W        W 6095   9.546   4.243   2.082  0.1524  0.1121 -0.3756
 2577W        W 6096   8.832   0.188   1.800 -0.1941  0.0970 -0.2418
 2578W        W 6097   9.128   4.706   9.374  0.0064  0.3307 -0.0679
 2579W        W 6098   8.731   0.115  12.296 -0.1605 -0.0747  0.2025
 2580W        W 6099   7.331   1.636  11.501 -0.0490  0.2729 -0.2526
 2581W        W 6100   0.023   7.048   1.733 -0.3414 -0.3026  0.1565
 2582W        W 6101   2.838   8.766   8.568 -0.1617  0.1012  0.2134
 2583W        W 6102   9.091   4.065  10.733  0.0575  0.0324 -0.1042
 2584W        W 6103   0.995   3.580  11.549 -0.0191  0.0786  0.0260
 2585W        W 6104   3.047   7.525  12.013  0.0865  0.1486  0.0261
 2586W        W 6105   7.167   2.814   3.838  0.1436 -0.0486 -0.1168
 2587W        W 6106   8.584   8.861   3.286  0.2268 -0.1545  0.3039
 2588W        W 6107   9.719   4.112   0.934  0.2049  0.1151  0.5200
 2589W        W 6108   7.476   5.734   3.759  0.1795  0.2112  0.1640
 2590W        W 6109   8.323   1.335   1.178  0.0425 -0.0384  0.1245
 2591W        W 6110   1.811   6.576  10.389  0.3303  0.0554 -0.0737
 2592W        W 6111   9.512   1.053   9.361  0.1199  0.0223 -0.2466
 2593W        W 6112   9.075   2.939   1.153  0.1774  0.1084  0.3146
 2594W        W 6113   8.632   3.406  11.346 -0.2620  0.1275 -0.4163
 2595W        W 6114   6.384   0.034  11.964  0.0111 -0.1838 -0.1071
 2596W        W 6115   9.696   6.376   9.853 -0.0404 -0.1184  0.2788
 2597W        W 6116   3.423   5.259  11.077  0.0160  0.2049  0.3006
 2598W        W 6117   9.708   2.755   2.125 -0.5424 -0.0612  0.1842
 2599W        W 6118   9.529   8.872  10.704 -0.1679 -0.2657  0.1545
 2600W        W 6119   3.846   0.999  10.305  0.1362 -0.2736  0.2580
 2601W        W 6120   5.529   0.486   9.291  0.0916 -0.2030  0.1042
 2602W        W 6121   5.755   5.663  11.795  0.2102  0.1134  0.0926
 2603W        W 6122   7.536   5.242   0.857  0.1410 -0.1522 -0.0633
 2604W        W 6123   5.149   2.805  11.510  0.1538 -0.1160 -0.1401
 2605W        W 6124   6.016   1.988   2.783 -0.1153 -0.1330  0.3435
 2606W        W 6125   3.515   6.185   2.454  0.1039 -0.2153  0.3484
 2607W        W 6126   2.242   1.089  11.602  0.2016  0.2024 -0.1054
 2608W        W 6127   0.277   1.818   0.791 -0.0849  0.0948  0.1791
 2609W        W 6128   4.269   6.212   3.212 -0.2120  0.1086 -0.0360
 2610W        W 6129   4.012   6.117  10.437  0.3464  0.0180  0.0590
 2611W        W 6130   0.412   9.412   2.921  0.0123 -0.1943 -0.1378
 2612W        W 6131   9.264   5.614   2.052 -0.1140  0.1240 -0.2143
 2613W        W 6132   8.750   7.350  10.402 -0.0389 -0.0619 -0.1366
 2614W        W 6133   3.464   2.716   3.679 -0.0739  0.0409 -0.0789
 2615W        W 6134   1.352   5.459   0.148  0.1666  0.0684  0.3208
 2616W        W 6135   5.896   9.779   9.507  0.1615 -0.1647  0.2361
 2617W        W 6136   9.635   8.631   3.220  0.1603 -0.1460  0.4542
 2618W        W 6137   2.512   0.933   1.874  0.2161  0.3076  0.0947
 2619W        W 6138   1.270   8.299   2.278  0.0846  0.2673  0.2709
 2620W        W 6139   0.229   8.268   2.340  0.1590  0.0285 -0.1490
 2621W        W 6140   9.185   4.841  10.662 -0.0383  0.0286  0.1488
 2622W        W 6141   9.372   3.641  11.548  0.1365 -0.4845 -0.2873
 2623W        W 6142   5.587   4.262   2.044  0.0831 -0.0947  0.2523
 2624W        W 6143   6.797   3.224   2.183  0.0308  0.1826 -0.1167
 2625W        W 6144   9.676   3.668   2.055  0.0536 -0.0788 -0.2074
 2626W        W 6145   7.715   8.725  11.283  0.2303  0.0212  0.1742
 2627W        W 6146   0.498   3.639  11.324  0.0644  0.0396  0.2123
 2628W        W 6147   1.129   2.117   3.647 -0.1465 -0.0888  0.2128
 2629W        W 6148   7.881   4.968  11.450  0.1849 -0.3158  0.2440
 2630W        W 6149   7.209   3.616   4.033 -0.2546  0.1785  0.1152
 2631W        W 6150   1.025   2.678   1.358  0.1139 -0.2268  0.0832
 2632W        W 6151   0.661   8.044   9.362  0.2446 -0.0124  0.0849
 2633W        W 6152   5.493   5.262   5.012  0.3439 -0.0484 -0.0585
 2634W        W 6153   2.534   3.858   2.030 -0.0350  0.0807 -0.2218
 2635W        W 6154   5.281   8.768   2.167 -0.0443 -0.3755  0.0882
 2636W        W 6155   6.069   1.412   3.453  0.0172 -0.3551  0.0438
 2637W        W 6156   3.312   4.866  10.663  0.0392  0.3042 -0.0998
 2638W        W 6157   8.484   9.113  10.723 -0.1703  0.1095 -0.2331
 2639W        W 6158   3.878   4.854   9.036 -0.1135  0.0663 -0.1176
 2640W        W 6159   6.597   8.275  10.863  0.0593  0.0099  0.0298
 2641W        W 6160   8.092   5.482  11.338 -0.0089  0.1134  0.0171
 2642W        W 6161   1.604   7.438   8.891  0.0156 -0.0208  0.2097
 2643W        W 6162   5.370   0.371   4.845 -0.2895  0.0247  0.1812
 2644W        W 6163   4.878   2.652   0.404  0.4341  0.1995 -0.1202
 2645W        W 6164   4.281   2.347   8.345  0.2443  0.0039 -0.0273
 2646W        W 6165   4.106   8.395   3.445 -0.0745  0.1263  0.5246
 2647W        W 6166   4.674   3.187  10.106  0.1651 -0.0340  0.0419
 2648W        W 6167   4.017   0.957   8.524  0.2398  0.1406  0.1747
 2649W        W 6168   1.225   2.711   4.142  0.1205 -0.0961 -0.2367
 2650W        W 6169   5.653   3.714   1.785 -0.2291  0.1466  0.0864
 2651W        W 6170   0.821   2.455   0.259 -0.1661  0.0939  0.0737
 2652W        W 6171   2.464   9.384   0.263 -0.1247  0.0102  0.0057
 2653W        W 6172   2.198   8.712   0.741 -0.1387 -0.1477  0.1301
 2654W        W 6173   2.790   8.166   0.619  0.4197  0.1128  0.1675
 2655W        W 6174   4.170   1.124   9.398 -0.0334  0.0874 -0.3699
 2656W        W 6175   1.744   2.092   1.447  0.1741 -0.0516 -0.2547
 2657W        W 6176   3.244   3.240  11.673 -0.1965 -0.0463  0.1578
 2658W        W 6177   8.394   6.586   3.509  0.2354  0.0528  0.0542
 2659W        W 6178   2.219   3.746   0.238  0.0605  0.1243 -0.4337
 2660W        W 6179   6.580   2.814  12.255 -0.2189  0.0159 -0.0725
 2661W        W 6180   7.356   2.674   2.048 -0.1901 -0.0798  0.2160
 2662W        W 6181   3.126   6.624  10.195  0.1436 -0.3213  0.2689
 2663W        W 6182   4.705   6.910   1.551  0.3175  0.1943 -0.3621
 2664W        W 6183   5.664   9.154   1.275  0.1024 -0.0535 -0.1253
 2665W        W 6184   3.332   6.000   2.904  0.4007 -0.4521  0.2648
 2666W        W 6185   8.313   1.831  11.801 -0.0664 -0.0840 -0.0526
 2667W        W 6186   7.351   3.038  11.318 -0.0085 -0.0836  0.0092
 2668W        W 6187   7.450   6.155   4.873  0.0807  0.2592  0.0048
 2669W        W 6188   0.212   5.485   1.034 -0.3391  0.0766 -0.1511
 2670W        W 6189   2.099   9.096   9.266  0.1960 -0.1000 -0.3346
 2671W        W 6190   1.993   9.603   0.324  0.0650  0.1496 -0.0129
 2672W        W 6191   8.651   3.932   9.855 -0.0532 -0.2888 -0.2185
 2673W        W 6192   9.615   4.628   1.063 -0.4829 -0.0945  0.0236
 2674W        W 6193   2.467   4.162   9.919  0.0776 -0.0118  0.0334
 2675W        W 6194   8.018   1.122   3.485 -0.1068 -0.0239 -0.3056
 2676W        W 6195   7.600   4.284  10.809 -0.3719  0.0742  0.1008
 2677W        W 6196   6.631   4.288   9.925  0.1617 -0.1013 -0.2110
 2678W        W 6197   4.967   9.103   3.999  0.2162 -0.0600 -0.0935
 2679W        W 6198   7.020   0.819   1.109 -0.3935  0.0742  0.0849
 2680W        W 6199   5.463   6.745   3.236 -0.2002  0.0885 -0.0883
 2681W        W 6200   4.357   3.510   3.572  0.1127 -0.0244  0.1477
 2682W        W 6201   7.180   7.101   1.225  0.1978  0.2389  0.2230
 2683W        W 6202   9.010   7.315   1.394 -0.1405  0.0343 -0.1837
 2684W        W 6203   4.669   7.442  10.533 -0.0092 -0.0083 -0.0911
 2685W        W 6204   3.604   3.470   3.465 -0.0280  0.1177 -0.0861
 2686W        W 6205   9.628   9.784   2.186  0.0421  0.0232  0.2695
 2687W        W 6206   3.728   1.862  11.506 -0.2186 -0.0766  0.0024
 2688W        W 6207   6.825   0.867   1.891 -0.2562 -0.3078 -0.1833
 2689W        W 6208   9.304   2.321   0.490 -0.1075 -0.0293 -0.0164
 2690W        W 6209   3.934   1.861  10.082  0.0363 -0.1657 -0.0837
 2691W        W 6210   7.936   9.300  11.373 -0.0243 -0.0290 -0.1253
 2692W        W 6211   4.462   0.131   9.860  0.0228  0.0876 -0.0979
 2693W        W 6212   9.641   7.179   0.831 -0.3771 -0.0674  0.0429
 2694W        W 6213   0.860   7.935   1.497  0.0359  0.4134 -0.2250
 2695W        W 6214   4.793   1.048   1.793 -0.2040 -0.0329 -0.0933
 2696W        W 6215   2.251   7.193   2.156 -0.1025 -0.2121 -0.1232
 2697W        W 6216   1.965   4.595  10.848 -0.2335 -0.0883 -0.1393
 2698W        W 6217   8.645   9.144  11.179  0.0295 -0.0257 -0.0899
 2699W        W 6218   8.971   4.979   3.229 -0.3070 -0.0879  0.1894
 2700W        W 6219   7.473   3.769   9.695 -0.1518 -0.1703  0.0045
 2701W        W 6220   4.649   5.033   9.622  0.1994  0.0865 -0.1374
 2702W        W 6221   5.889   0.428   2.711 -0.1973  0.0785 -0.1833
 2703W        W 6222   3.898   6.799   1.073 -0.0597 -0.1964 -0.0791
 2704W        W 6223   5.965   6.216   9.986  0.2424  0.2709  0.1891
 2705W        W 6224   5.834   7.077   3.819 -0.1671 -0.0231  0.0205
 2706W        W 6225   5.904   6.968  10.241 -0.2446  0.0687 -0.0458
 2707W        W 6226   1.764   8.245   0.766 -0.0208  0.2844 -0.1193
 2708W        W 6227   1.260   1.209  11.505  0.1709 -0.0463 -0.2401
 2709W        W 6228   5.694   8.022   3.389 -0.2151 -0.5530  0.3712
 2710W        W 6229   4.734   0.710   3.809  0.1999 -0.3755 -0.1891
 2711W        W 6230   5.406   7.346   4.006  0.0735 -0.3732  0.2361
 2712W        W 6231   9.214   7.270   9.080 -0.0435  0.4411 -0.1269
 2713W        W 6232   9.553   2.888   1.654 -0.0051  0.0758  0.0331
 2714W        W 6233   2.226   7.659   3.184  0.1382  0.0815  0.0151
 2715W        W 6234   8.093   5.773   9.803 -0.2534 -0.0614 -0.2531
 2716W        W 6235   8.301   7.274  10.699 -0.2538 -0.1626  0.2446
 2717W        W 6236   0.332   9.441   4.189  0.0316  0.0786  0.2516
 2718W        W 6237   6.637   5.177   1.112 -0.0986 -0.0874 -0.1240
 2719W        W 6238   6.565   6.990   1.388 -0.1070  0.0007  0.1272
 2720W        W 6239   4.536   6.225   0.621 -0.0886 -0.0850  0.4170
 2721W        W 6240   2.661   0.989   9.743  0.5229 -0.0633 -0.1242
 2722W        W 6241   2.655   8.633   0.889 -0.0710  0.1407  0.0053
 2723W        W 6242   8.235   6.871   1.312  0.3566  0.0567 -0.0077
 2724W        W 6243   1.358   2.513   8.171 -0.2373  0.1379  0.0317
 2725W        W 6244   3.887   2.227   8.889 -0.0506 -0.3045 -0.0523
 2726W        W 6245   2.486   0.400   1.016 -0.1307 -0.1743 -0.2145
 2727W        W 6246   5.126   6.464  11.786 -0.2657  0.0005 -0.2346
 2728W        W 6247   0.428   3.911   3.026  0.0861  0.3194  0.0651
 2729W        W 6248   0.896   0.786   8.857 -0.0459  0.3832  0.1382
 2730W        W 6249   8.283   1.946   2.810  0.2090 -0.2044 -0.0705
 2731W        W 6250   1.318   2.594  11.451 -0.1554  0.2717 -0.0123
 2732W        W 6251   9.300   3.832   9.066  0.1028  0.0872  0.4397
 2733W        W 6252   7.671   2.474   1.598  0.0092  0.1620  0.0841
 2734W        W 6253   2.871   1.797  12.064  0.0795  0.2239 -0.0728
 2735W        W 6254   9.527   6.477  10.707  0.2510  0.2043 -0.1084
 2736W        W 6255   1.096   1.687   9.175  0.0160 -0.0606  0.1033
 2737W        W 6256   3.277   2.202   0.448  0.0791 -0.2242  0.3322
 2738W        W 6257   9.127   1.482   9.011  0.0155  0.1109  0.0406
 2739W        W 6258   2.870   4.170  11.515 -0.0522 -0.1977 -0.0097
 2740W        W 6259   3.704   7.519  11.356 -0.0477  0.1829  0.1627
 2741W        W 6260   6.571   3.658   1.431 -0.0184 -0.1713 -0.1566
 2742W        W 6261   4.439   1.119   3.673 -0.0026 -0.1262  0.0764
 2743W        W 6262   1.986   8.512   2.743 -0.2268 -0.0406  0.1418
 2744W        W 6263   8.546   3.084   9.989  0.0176  0.2413  0.0709
 2745W        W 6264   3.822   1.803  12.028  0.3174 -0.0521 -0.0875
 2746W        W 6265   6.128   0.830   2.571  0.1800  0.0238 -0.1160
 2747W        W 6266   1.922   1.255   9.137  0.1928  0.0266 -0.3602
 2748W        W 6267   4.416   7.432   2.844  0.2156  0.1087 -0.2727
 2749W        W 6268   4.850   8.186   2.855 -0.1255 -0.3734 -0.0290
 2750W        W 6269   5.386   6.718   2.551  0.1220  0.3832  0.3942
 2751W        W 6270   4.972   8.571   0.075  0.1845  0.0584 -0.2481
 2752W        W 6271   6.453   4.118   4.218  0.1060  0.0678 -0.0757
 2753W        W 6272   8.338   8.742  10.487 -0.0430 -0.0475  0.3905
 2754W        W 6273   9.416   6.424   1.525 -0.0534  0.2994  0.2707
 2755W        W 6274   0.241   5.893   9.153 -0.0648  0.2558 -0.1821
 2756W        W 6275   1.923   6.839  11.358 -0.1452 -0.3332 -0.0078
 2757W        W 6276   0.903   4.732   2.112  0.1429  0.2809 -0.2349
 2758W        W 6277   2.542   3.060   2.482 -0.3848  0.1730  0.0114
 2759W        W 6278   5.797   7.661  10.786  0.0605  0.0814  0.0014
 2760W        W 6279   6.968   2.796   8.298  0.2003  0.1526  0.0792
 2761W        W 6280   0.734   2.989   1.078  0.5419 -0.1831 -0.2537
 2762W        W 6281   6.807   2.368   3.936  0.0950  0.1555  0.0216
 2763W        W 6282   9.589   1.653   3.613  0.2104 -0.0981  0.2448
 2764W        W 6283   3.723   6.114  11.630 -0.0270  0.1178 -0.2039
 2765W        W 6284   8.374   8.545   2.681  0.1509  0.1642 -0.0345
 2766W        W 6285   8.320   3.487   1.085 -0.2978 -0.1075  0.2219
 2767W        W 6286   3.806   6.918  11.804 -0.0157  0.0714  0.3495
 2768W        W 6287   6.540   8.834  11.593 -0.1591  0.0243  0.0961
 2769W        W 6288   5.041   1.479  11.259  0.2213 -0.1339  0.0918
 2770W        W 6289   3.867   3.822   0.413 -0.2737  0.1491  0.0597
 2771W        W 6290   2.381   2.765   2.778 -0.0461  0.2056 -0.1969
 2772W        W 6291   0.747   4.464  12.221 -0.1417  0.0244 -0.1762
 2773W        W 6292   9.173   8.084   0.490 -0.0777 -0.1987 -0.3235
 2774W        W 6293   6.623   5.835  10.533  0.0837 -0.0991  0.1480
 2775W        W 6294   8.912   7.587   1.781 -0.1349 -0.0665  0.0506
 2776W        W 6295   7.607   9.620  10.126  0.1208  0.1069  0.3735
 2777W        W 6296   8.247   7.333   2.998  0.2322  0.3270 -0.1604
 2778W        W 6297   3.630   1.990   2.267  0.0996  0.3125 -0.0664
 2779W        W 6298   5.037   5.983   0.344  0.1688  0.1256 -0.0349
 2780W        W 6299   2.193   2.224   9.515  0.1024 -0.2579 -0.0016
 2781W        W 6300   0.372   6.893   0.067  0.2859 -0.2009 -0.0417
 2782W        W 6301   4.225   4.532   8.085 -0.2006  0.1570 -0.0444
 2783W        W 6302   4.029   4.058   7.938 -0.1583  0.3077  0.1073
 2784W        W 6303   0.420   0.336   2.940 -0.0247 -0.1051 -0.0442
 2785W        W 6304   6.650   9.160  10.184 -0.0765 -0.0782  0.0233
 2786W        W 6305   3.249   6.088  10.153 -0.0857 -0.0835  0.0958
 2787W        W 6306   5.367   0.573  12.146  0.0258  0.1043  0.1401
 2788W        W 6307   2.518   0.080   1.795 -0.3325  0.2024 -0.0024
 2789W        W 6308   1.539   1.773  10.711  0.3104  0.0357  0.1154
 2790W        W 6309   0.315   5.348   0.240 -0.1328  0.1841  0.0796
 2791W        W 6310   1.371   4.556   3.338  0.0801  0.0253  0.1704
 2792W        W 6311   2.574   5.160   2.262  0.0765  0.0806  0.2094
 2793W        W 6312   6.860   3.655   8.471  0.0604  0.0774  0.4312
 2794W        W 6313   8.995   6.737  10.550  0.1333 -0.0461  0.1308
 2795W        W 6314   7.328   8.772   4.535 -0.2822  0.1042  0.0879
 2796W        W 6315   4.953   3.042  11.862 -0.2019  0.0193 -0.1217
 2797W        W 6316   2.050   0.973  10.286  0.0999 -0.1871 -0.1992
 2798W        W 6317   4.661   9.100   8.737 -0.2975 -0.3880 -0.2450
 2799W        W 6318   1.501   3.752  10.380 -0.1006  0.1716  0.3003
 2800W        W 6319   5.796   8.583   3.407 -0.1172 -0.0103 -0.0552
 2801W        W 6320   6.624   7.146  10.502  0.0122 -0.1124  0.2270
 2802W        W 6321   3.149   2.632   8.124  0.2284  0.0373 -0.2230
 2803W        W 6322   0.126   0.709   0.660 -0.0889 -0.0383  0.0249
 2804W        W 6323   8.813   1.036  10.256  0.2694  0.1625 -0.2761
 2805W        W 6324   5.422   5.787  12.319 -0.1050 -0.1554 -0.1282
 2806W        W 6325   5.582   3.845   8.868  0.0800 -0.0355 -0.2365
 2807W        W 6326   6.751   3.722   0.930 -0.1085 -0.0088  0.2536
 2808W        W 6327   1.679   5.924   1.530  0.1494  0.2046 -0.4517
 2809W        W 6328   2.128   1.350   1.844  0.2340 -0.1713 -0.2132
 2810W        W 6329   0.799   6.055   2.522 -0.1377  0.1924 -0.1375
 2811W        W 6330   5.322   2.732   0.568 -0.1648  0.0867 -0.1336
 2812W        W 6331   4.677   4.937   1.283  0.2590 -0.2590 -0.0305
 2813W        W 6332   8.759   8.920  12.199 -0.2466  0.2164 -0.1806
 2814W        W 6333   8.164   5.359  10.175 -0.1683 -0.0869  0.0413
 2815W        W 6334   8.095   3.070   0.880 -0.1790 -0.6184  0.2630
 2816W        W 6335   3.848   2.491   4.482  0.0334  0.0518 -0.0078
 2817W        W 6336   2.215   7.272   0.976  0.1642  0.1143 -0.0495
 2818W        W 6337   6.720   7.412   1.254  0.1172 -0.0565 -0.2971
 2819W        W 6338   5.357   0.631   3.934  0.1183  0.1735  0.0653
 2820W        W 6339   9.002   6.210   2.761  0.0215  0.2250 -0.0930
 2821W        W 6340   6.215   1.505   8.511  0.2044  0.2701 -0.0076
 2822W        W 6341   1.014   2.825   9.733  0.0787  0.4347  0.2876
 2823W        W 6342   4.077   1.329   3.376  0.0943  0.0524  0.1925
 2824W        W 6343   7.951   7.625   0.115  0.2773  0.0319 -0.1669
 2825W        W 6344   8.790   5.647   1.726 -0.3513 -0.1058  0.1178
 2826W        W 6345   5.893   9.046   3.608 -0.0185  0.1249 -0.0898
 2827W        W 6346   4.742   6.009   8.521 -0.0112 -0.1861 -0.0846
 2828W        W 6347   1.636   0.462  11.044  0.0475  0.0511 -0.3570
 2829W        W 6348   0.995   4.913   8.663  0.1072  0.0551 -0.1364
 2830W        W 6349   1.751   7.972   1.213  0.1105  0.0317  0.1178
 2831W        W 6350   2.726   8.659  10.952  0.0264 -0.0901 -0.1540
 2832W        W 6351   6.644   0.609   4.073  0.0823  0.1600  0.1454
 2833W        W 6352   9.399   5.613  12.145 -0.0519 -0.0421  0.2894
 2834W        W 6353   5.831   4.685   2.282  0.2207  0.3803 -0.1132
 2835W        W 6354   3.116   6.109   1.285 -0.0083 -0.0402 -0.1404
 2836W        W 6355   0.882   0.733   2.199 -0.2747  0.0341 -0.1184
 2837W        W 6356   0.668   9.248   1.381 -0.0164  0.2217 -0.0669
 2838W        W 6357   3.792   6.599  10.738 -0.0775  0.3089  0.3442
 2839W        W 6358   3.395   5.277   1.734 -0.5055 -0.2096 -0.2095
 2840W        W 6359   9.387   9.210   3.561  0.0866 -0.4451  0.3811
 2841W        W 6360   9.676   8.499   2.656  0.2003  0.0688  0.1164
 2842W        W 6361   2.546   0.458   2.089  0.0319 -0.2236  0.0077
 2843W        W 6362   8.814   5.168  10.739  0.0805  0.1253  0.0471
 2844W        W 6363   6.999   7.903   1.286  0.0879  0.2285  0.1037
 2845W        W 6364   3.626   5.660  11.798 -0.0861 -0.1151  0.1078
 2846W        W 6365   5.269   3.090   2.534 -0.0465 -0.3511  0.0617
 2847W        W 6366   3.391   9.027   0.505  0.1918 -0.1809  0.0083
 2848W        W 6367   5.001   2.522   0.913 -0.1607  0.0544 -0.1427
 2849W        W 6368   9.661   4.865   8.126  0.0743  0.1751 -0.3139
 2850W        W 6369   2.881   0.946   0.895 -0.1373 -0.1197 -0.1357
 2851W        W 6370   4.953   6.118  10.661  0.1824 -0.1589  0.1045
 2852W        W 6371   6.676   5.236  11.452  0.0638 -0.0066  0.0288
 2853W        W 6372   4.712   7.161   8.649 -0.1566  0.1194 -0.1844
 2854W        W 6373   6.928   6.864   1.702 -0.0038 -0.3190 -0.2051
 2855W        W 6374   3.609   8.356   2.110 -0.1437 -0.0233 -0.3200
 2856W        W 6375   4.785   7.503   0.003 -0.2360  0.1910 -0.1359
 2857W        W 6376   9.715   8.065   0.080  0.0198 -0.0427  0.0667
 2858W        W 6377   2.349   5.808   0.798  0.1023  0.3986 -0.2522
 2859W        W 6378   0.691   2.964   1.573  0.2280  0.1116 -0.1846
 2860W        W 6379   9.508   1.518   2.546  0.4398  0.0958 -0.0385
 2861W        W 6380   7.407   9.175  11.431 -0.1070 -0.1067  0.2807
 2862W        W 6381   2.846   8.752   2.579  0.1521 -0.0460  0.2585
 2863W        W 6382   0.929   9.196   8.472 -0.0806  0.3659  0.0322
 2864W        W 6383   3.621   3.097   9.819  0.1186  0.1368 -0.1593
 2865W        W 6384   0.054   2.053   8.610 -0.2020  0.1210  0.0375
 2866W        W 6385   5.356   1.427   1.832  0.2905  0.1376 -0.0183
 2867W        W 6386   4.800   6.083   2.082  0.0529  0.0406  0.1404
 2868W        W 6387   7.180   4.045   3.658 -0.2425 -0.1813 -0.3974
 2869W        W 6388   5.574   7.785   9.412 -0.0266 -0.0024  0.0622
 2870W        W 6389   6.499   6.333  10.651  0.0185 -0.0016 -0.2353
 2871W        W 6390   7.186   3.675  10.082  0.0027  0.2890 -0.1835
 2872W        W 6391   6.285   0.037   0.666  0.2221 -0.1381  0.0425
 2873W        W 6392   6.874   2.553   0.830  0.2721 -0.1669  0.0794
 2874W        W 6393   7.509   1.505   1.689 -0.0723 -0.1752  0.1427
 2875W        W 6394   4.528   9.009   8.246  0.1300 -0.0133  0.3236
 2876W        W 6395   6.824   5.544  10.903 -0.1572 -0.2209  0.0153
 2877W        W 6396   4.582   5.366  11.832  0.2536 -0.2555 -0.1905
 2878W        W 6397   3.687   1.582   8.068  0.1489 -0.0419  0.2834
 2879W        W 6398   9.661   1.492   1.442 -0.0475 -0.0923 -0.0743
 2880W        W 6399   1.851   0.765  10.677 -0.0610  0.0971 -0.2431
 2881W        W 6400   1.213   0.676   0.297  0.1824 -0.0710 -0.1188
 2882W        W 6401   5.165   3.426   0.636  0.0008 -0.1490  0.1012
 2883W        W 6402   7.048   8.140  11.646  0.2955  0.1596  0.0528
 2884W        W 6403   0.676   4.873   0.920  0.2543  0.0553 -0.0304
 2885W        W 6404   4.257   1.868   0.432 -0.1668  0.0578 -0.1564
 2886W        W 6405   8.264   8.660   9.954  0.1835  0.0341  0.0345
 2887W        W 6406   5.547   5.351  12.100  0.0804  0.2193 -0.2750
 2888W        W 6407   2.524   9.272   1.314  0.1550 -0.0700  0.0923
 2889W        W 6408   3.532   9.226   2.047 -0.0854 -0.0368  0.1419
 2890W        W 6409   1.409   7.287   1.455  0.5797  0.0653  0.0075
 2891W        W 6410   9.457   0.993   4.368 -0.2107 -0.1791  0.1546
 2892W        W 6411   0.270   4.972   3.172  0.0199  0.0136  0.1120
 2893W        W 6412   5.425   9.668  10.311  0.1425 -0.0803  0.2196
 2894W        W 6413   2.522   7.602   8.452 -0.0455  0.1409  0.0116
 2895W        W 6414   8.026   7.014   1.820 -0.2004 -0.1661 -0.0100
 2896W        W 6415   7.774   9.338   1.550 -0.4514  0.0374  0.0271
 2897W        W 6416   5.209   3.645   9.445 -0.1094 -0.1595 -0.0463
 2898W        W 6417   6.228   3.046   7.866 -0.0751 -0.2708 -0.2980
 2899W        W 6418   1.293   4.921  10.550  0.0354  0.2319  0.1364
 2900W        W 6419   9.249   1.939   9.332  0.2898  0.2522  0.0654
 2901W        W 6420   9.455   2.765   0.950 -0.3924 -0.1696  0.0116
 2902W        W 6421   3.309   1.121  11.557  0.1107  0.2855  0.0075
 2903W        W 6422   2.471   1.421  12.038 -0.1836 -0.2428  0.2909
 2904W        W 6423   9.525   4.819  10.157  0.2302  0.1048  0.1244
 2905W        W 6424   9.597   0.302   3.637 -0.0755  0.0857 -0.0137
 2906W        W 6425   6.617   7.871   0.136  0.0924 -0.1079  0.0214
 2907W        W 6426   8.116   6.360  10.730  0.1719 -0.0026  0.0082
 2908W        W 6427   3.645   0.756   2.441 -0.3319  0.2030  0.0392
 2909W        W 6428   4.261   9.327  11.860 -0.0850  0.1944 -0.3301
 2910W        W 6429   7.397   8.615   2.871  0.3428 -0.0303  0.0150
 2911W        W 6430   5.273   4.305  11.848  0.0759 -0.0501  0.0044
 2912W        W 6431   6.424   7.954   9.915 -0.0140 -0.2279  0.1058
 2913W        W 6432   6.501   2.372   9.722 -0.1136  0.3292  0.0258
 2914W        W 6433   7.094   3.550   3.528 -0.1069  0.0169  0.0092
 2915W        W 6434   6.955   0.733   9.572 -0.1762 -0.0070  0.0075
 2916W        W 6435   2.293   3.540   7.599  0.0595 -0.0243 -0.0249
 2917W        W 6436   5.122   9.235   1.993  0.3101  0.0447 -0.0704
 2918W        W 6437   8.484   0.149   4.407 -0.3577 -0.0455 -0.1004
 2919W        W 6438   1.710   4.132  10.569 -0.0219  0.1235 -0.0577
 2920W        W 6439   0.540   0.855   0.933  0.0169  0.0022  0.1253
 2921W        W 6440   3.096   8.718   3.494 -0.1732  0.3503  0.2532
 2922W        W 6441   5.712   4.759  10.752  0.0202 -0.2116 -0.2538
 2923W        W 6442   3.019   3.227   0.308  0.0041  0.1162 -0.4075
 2924W        W 6443   3.508   5.413   4.715  0.1589  0.0841  0.0850
 2925W        W 6444   3.101   5.557  11.777 -0.0179 -0.2510  0.3089
 2926W        W 6445   0.271   8.363  11.330 -0.5679  0.3788 -0.0614
 2927W        W 6446   2.623   1.983   9.371 -0.0117 -0.1896  0.3738
 2928W        W 6447   8.583   8.455   1.511  0.0683 -0.2679 -0.4238
 2929W        W 6448   7.978   3.509  11.994 -0.1643 -0.0655  0.1349
 2930W        W 6449   2.079   2.742   1.617  0.3915  0.2020 -0.1740
 2931W        W 6450   6.937   4.886  10.282 -0.0493 -0.1104  0.2551
 2932W        W 6451   5.485   0.473   8.792 -0.3584 -0.3073 -0.4718
 2933W        W 6452   7.830   7.791   2.451 -0.2838 -0.0534 -0.3641
 2934W        W 6453   6.852   6.016   4.025  0.0312  0.2173  0.3095
 2935W        W 6454   9.189   7.252  11.961  0.2603  0.0922 -0.4638
 2936W        W 6455   6.090   3.486  10.859 -0.0870 -0.3283  0.2865
 2937W        W 6456   9.406   7.828  10.272 -0.0041  0.4036  0.1935
 2938W        W 6457   6.900   6.006   8.503  0.1659 -0.0368  0.0620
 2939W        W 6458   0.596   5.754   1.054  0.1070 -0.1729 -0.0268
 2940W        W 6459   6.081   1.282  11.574 -0.1567  0.2313 -0.4027
 2941W        W 6460   5.420   0.985  11.832  0.0380  0.0663  0.2327
 2942W        W 6461   3.745   1.253   2.557  0.2592  0.0376 -0.2606
 2943W        W 6462   5.612   5.415   0.371 -0.2234  0.2134 -0.1042
 2944W        W 6463   7.377   0.845   9.299  0.0292  0.1125 -0.0474
 2945W        W 6464   8.432   4.714   3.113 -0.0213  0.3325 -0.3257
 2946W        W 6465   0.813   7.040   0.431 -0.1606 -0.0397 -0.4656
 2947W        W 6466   7.596   7.342   0.877  0.3413  0.0319 -0.0742
 2948W        W 6467   2.277   8.425  12.223 -0.3586 -0.1646  0.0551
 2949W        W 6468   8.664   3.102  10.763  0.1048 -0.0724  0.5515
 2950W        W 6469   7.840   3.283   1.820  0.4330  0.0556 -0.0989
 2951W        W 6470   0.934   7.280   9.897  0.1625  0.1205  0.3008
 2952W        W 6471   5.069   0.054   1.208  0.0653 -0.1998  0.2551
 2953W        W 6472   7.820   4.098  12.013 -0.4323  0.0368 -0.0857
 2954W        W 6473   4.406   3.309   4.025  0.1440 -0.2074  0.0376
 2955W        W 6474   9.658   9.066  11.509  0.6198 -0.3043 -0.3656
 2956W        W 6475   4.583   1.205  11.011  0.1256 -0.0930  0.0733
 2957W        W 6476   5.067   6.217   1.701  0.2152 -0.1688  0.1669
 2958W        W 6477   4.629   6.721  11.216  0.1806 -0.0896  0.2657
 2959W        W 6478   6.461   4.944   9.966  0.3286 -0.5215  0.0786
 2960W        W 6479   8.017   2.607  10.731 -0.2031  0.0273 -0.0918
 2961W        W 6480   5.941   1.056   4.199 -0.3381 -0.1364 -0.6176
 2962W        W 6481   9.497   2.182   3.623 -0.1447 -0.1815  0.2622
 2963W        W 6482   5.236   0.244   0.733  0.1177  0.2505  0.0826
 2964W        W 6483   9.168   4.861   1.068  0.0975  0.2510 -0.3382
 2965W        W 6484   0.277   5.419   2.362  0.2139  0.0543  0.2751
 2966W        W 6485   7.506   8.375   1.078 -0.0726  0.0854 -0.0744
 2967W        W 6486   6.161   9.007  10.090 -0.0642 -0.1465 -0.0134
 2968W        W 6487   9.542   6.038   1.833  0.1237 -0.0130 -0.1978
 2969W        W 6488   4.981   8.683   3.672 -0.0401 -0.1713 -0.1175
 2970W        W 6489   4.042   0.787   2.783 -0.1908  0.1910  0.1144
 2971W        W 6490   0.390   6.996  11.125  0.3296 -0.2687 -0.0922
 2972W        W 6491   2.896   8.386   3.179 -0.2662  0.2019 -0.1788
 2973W        W 6492   3.258   9.320   9.075 -0.0724  0.1196 -0.0529
 2974W        W 6493   2.821   6.904   9.815 -0.0375 -0.0818  0.1900
 2975W        W 6494   8.974   6.271   1.349  0.2787  0.0766 -0.2178
 2976W        W 6495   3.578   4.070   1.700  0.0225  0.2491  0.0433
 2977W        W 6496   3.304   2.778   9.693 -0.1104  0.0089 -0.0265
 2978W        W 6497   6.060   9.784  11.143  0.2031  0.0063  0.0211
 2979W        W 6498   4.929   3.292   2.087  0.2520 -0.1108 -0.1886
 2980W        W 6499   6.121   9.259  10.892 -0.1721  0.1337  0.0087
 2981W        W 6500   5.601   6.302   3.012  0.0073  0.0439 -0.3151
 2982W        W 6501   2.367   6.994  12.160 -0.0292  0.2110  0.1085
 2983W        W 6502   8.119   8.641   3.208  0.0590 -0.0729 -0.1312
 2984W        W 6503   4.165   3.036   8.872  0.1257 -0.0627  0.1098
 2985W        W 6504   8.317   9.651   0.703  0.0563  0.1279 -0.0590
 2986W        W 6505   2.088   2.005   3.300 -0.0707 -0.1196 -0.1515
 2987W        W 6506   5.710   1.312   4.555 -0.3027  0.1102 -0.0562
 2988W        W 6507   2.455   3.914  10.410 -0.2100 -0.1703  0.0204
 2989W        W 6508   8.658   4.248  12.015  0.0958 -0.0021  0.2218
 2990W        W 6509   3.555   1.434  11.270 -0.0695  0.1800  0.1425
 2991W        W 6510   2.143   2.082   0.897 -0.3778 -0.0389  0.1817
 2992W        W 6511   4.093   2.932   1.086 -0.3391  0.0071  0.3494
 2993W        W 6512   1.477   5.384  10.587 -0.1154  0.1092 -0.0048
 2994W        W 6513   6.984   5.651  11.752  0.0857  0.1210  0.1616
 2995W        W 6514   3.240   5.360   8.310  0.0322 -0.0666  0.1840
 2996W        W 6515   2.593   4.318  10.944 -0.1785 -0.1643 -0.0233
 2997W        W 6516   8.461   4.703   4.080  0.1074 -0.1097  0.2422
 2998W        W 6517   4.835   3.376   9.610  0.0397 -0.2769 -0.2882
 2999W        W 6518   6.914   9.594  10.549  0.0076  0.0803 -0.0334
 3000W        W 6519   8.865   6.455   2.267  0.1060 -0.0424 -0.3245
 3001W        W 6520   5.481   2.787   1.031  0.1294  0.3806  0.0837
 3002W        W 6521   9.197   8.650   0.426  0.1610  0.0455  0.2684
 3003W        W 6522   7.482   4.344   3.297 -0.0152  0.1412  0.2952
 3004W        W 6523   4.488   1.662   4.398 -0.2208  0.0545  0.1027
 3005W        W 6524   8.542   6.870   3.118 -0.0720 -0.0164  0.0974
 3006W        W 6525   7.318   1.146   8.923 -0.1895  0.1887 -0.2542
 3007W        W 6526   6.727   0.452  10.087 -0.0968  0.1723 -0.4589
 3008W        W 6527   1.351   0.368   3.298  0.1975  0.1869  0.1393
 3009W        W 6528   5.010   1.041  12.273 -0.1829  0.0899 -0.0829
 3010W        W 6529   8.084   9.410   8.799  0.1977  0.2379  0.1152
 3011W        W 6530   9.351   7.453  11.144  0.0879 -0.0731 -0.0806
 3012W        W 6531   2.112   5.985  11.143  0.0432 -0.2322 -0.3467
 3013W        W 6532   6.212   1.188   0.748  0.0508 -0.2258 -0.0121
 3014W        W 6533   6.974   4.654   9.811 -0.0095 -0.1235 -0.1331
 3015W        W 6534   5.229   7.452  10.775 -0.1540  0.1409  0.0845
 3016W        W 6535   8.662   2.117   3.061 -0.0095  0.0122 -0.2768
 3017W        W 6536   7.651   4.552  12.258 -0.2118  0.3494  0.2591
 3018W        W 6537   5.179   3.694   3.881 -0.3384 -0.1764  0.0264
 3019W        W 6538   0.114   3.381   9.967 -0.1320 -0.1567 -0.2013
 3020W        W 6539   8.584   7.107   1.712  0.0245 -0.2148 -0.1000
 3021W        W 6540   4.588   6.385  11.598 -0.1363  0.2268 -0.3387
 3022W        W 6541   6.338   6.778  10.384 -0.1384  0.0884 -0.2566
 3023W        W 6542   4.577   8.679   0.426 -0.2188 -0.0368  0.0165
 3024W        W 6543   8.978   4.140   3.612 -0.3112  0.0199  0.4550
 3025W        W 6544   5.415   1.374   2.321 -0.2483  0.2588 -0.1322
 3026W        W 6545   0.896   5.315   1.635  0.1091  0.5270  0.2082
 3027W        W 6546   7.077   8.986   2.784 -0.0080  0.1393  0.1025
 3028W        W 6547   6.797   3.004  11.787 -0.1070 -0.2361 -0.0462
 3029W        W 6548   4.223   8.854   8.616  0.0817  0.1813  0.0648
 3030W        W 6549   8.815   6.555   9.191  0.0904 -0.1502 -0.1771
 3031W        W 6550   7.845   1.621   3.576 -0.2690 -0.1371 -0.2359
 3032W        W 6551   5.113   7.401   8.488  0.1604  0.2533 -0.0901
 3033W        W 6552   2.832   5.188   9.896  0.0460  0.4340  0.1311
 3034W        W 6553   6.598   5.724  11.397 -0.2554 -0.0305 -0.1600
 3035W        W 6554   6.059   1.655  11.919 -0.0442  0.0584  0.0629
 3036W        W 6555   8.940   5.489   3.390  0.1137 -0.1837 -0.3885
 3037W        W 6556   0.393   4.376   9.064 -0.0860  0.5594 -0.0850
 3038W        W 6557   3.293   6.942  11.989  0.0184  0.0521 -0.1349
 3039W        W 6558   6.221   7.883   3.333  0.1208  0.0678  0.3246
 3040W        W 6559   3.446   2.008   0.916 -0.1493 -0.0631 -0.1082
 3041W        W 6560   2.382   0.538   1.486  0.0257 -0.2310 -0.1784
 3042W        W 6561   1.314   4.149   3.063 -0.0783  0.1778  0.0560
 3043W        W 6562   4.824   7.088   1.102 -0.1288  0.0823  0.1533
 3044W        W 6563   6.495   8.299   2.917  0.0189 -0.0519 -0.1975
 3045W        W 6564   9.387   2.942   3.813  0.3710  0.1068  0.3142
 3046W        W 6565   2.724   2.998   4.675  0.1596 -0.1279  0.0943
 3047W        W 6566   5.907   5.699  10.948 -0.0245 -0.0789 -0.3073
 3048W        W 6567   3.884   7.816   1.968 -0.0357  0.2891 -0.4953
 3049W        W 6568   7.265   3.470  12.239 -0.1944 -0.1149  0.2054
 3050W        W 6569   0.939   1.054  10.689 -0.2531  0.2258 -0.1148
 3051W        W 6570   6.010   0.381  12.280  0.1380 -0.0203  0.0031
 3052W        W 6571   8.511   3.022   1.155  0.2452 -0.1369  0.0078
 3053W        W 6572   2.826   6.410   1.562 -0.2015  0.4422 -0.0175
 3054W        W 6573   1.094   0.130   0.211 -0.1293 -0.2687  0.3726
 3055W        W 6574   6.369   7.645   0.518  0.4142  0.1530  0.1381
 3056W        W 6575   0.498   1.733  10.269  0.1567 -0.2937 -0.1910
 3057W        W 6576   6.372   7.540   8.977 -0.1181  0.0216 -0.2113
 3058W        W 6577   1.456   2.726   9.556  0.0821  0.0143  0.1733
 3059W        W 6578   8.429   7.607   1.862 -0.1040 -0.0770  0.1091
 3060W        W 6579   1.254   9.529   1.033 -0.1713 -0.0433  0.2181
 3061W        W 6580   9.724   0.338   7.334  0.0655 -0.1594  0.1926
 3062W        W 6581   7.536   8.717   1.418  0.1821  0.0822  0.2956
 3063W        W 6582   3.834   0.298   9.183 -0.2915 -0.1158 -0.1762
 3064W        W 6583   3.991   6.294   2.478 -0.0965 -0.0692  0.0877
 3065W        W 6584   1.146   2.303   8.580 -0.0722 -0.1152 -0.3760
 3066W        W 6585   7.401   8.666  10.483  0.2351  0.0625  0.3311
 3067W        W 6586   4.952   7.440   3.579 -0.4679  0.2962  0.0910
 3068W        W 6587   6.974   2.393   2.683 -0.1208 -0.0903  0.1246
 3069W        W 6588   3.202   1.096  12.062 -0.3816 -0.1164 -0.1017
 3070W        W 6589   8.424   1.383   3.493 -0.1676 -0.0187 -0.0166
 3071W        W 6590   2.356   1.555   4.100 -0.1711 -0.2613 -0.1102
 3072W        W 6591   2.975   0.383   3.447  0.0266  0.1970 -0.2426
 3073W        W 6592   3.494   1.381  10.258 -0.2597 -0.4211  0.2471
 3074W        W 6593   2.330   0.637  10.514 -0.0970 -0.2708  0.1364
 3075W        W 6594   7.469   1.405   3.248 -0.0347  0.1082  0.0215
 3076W        W 6595   2.609   5.591  11.560  0.0501  0.1953  0.1733
 3077W        W 6596   4.798   3.935   4.720 -0.0880 -0.1805 -0.1477
 3078W        W 6597   8.986   3.330   3.883  0.2257  0.0958 -0.2496
 3079W        W 6598   7.170   1.569   0.770  0.3466  0.1084  0.0239
 3080W        W 6599   7.911   7.265   9.175  0.2331  0.0101 -0.0437
 3081W        W 6600   7.005   6.867   9.217 -0.1287 -0.1638 -0.1491
 3082W        W 6601   5.181   6.975   2.146 -0.3734 -0.0839 -0.0705
 3083W        W 6602   6.369   9.031   4.788 -0.1190 -0.0225  0.3183
 3084W        W 6603   4.660   4.597   3.609  0.0274  0.1722  0.2479
 3085W        W 6604   2.499   6.621  11.660  0.2019 -0.1819  0.1147
 3086W        W 6605   7.486   6.603  10.565 -0.0388 -0.2250 -0.2887
 3087W        W 6606   0.384   7.906  11.109 -0.1465 -0.1014 -0.1506
 3088W        W 6607   3.942   3.893   1.307  0.0693  0.1241  0.0929
 3089W        W 6608   7.369   9.391   2.628  0.2407  0.0638  0.2755
 3090W        W 6609   5.685   2.140   2.389 -0.2625 -0.1838 -0.3141
 3091W        W 6610   5.221   5.895   3.078 -0.2290  0.0082 -0.1254
 3092W        W 6611   4.025   0.337   4.139  0.2137 -0.0721 -0.0451
 3093W        W 6612   2.215   4.817  11.766  0.2632 -0.0864  0.1859
 3094W        W 6613   3.441   4.064   7.962 -0.2342 -0.0628  0.3380
 3095W        W 6614   2.873   4.782  10.416 -0.1012  0.0497 -0.0409
 3096W        W 6615   7.755   1.386   2.827 -0.0633  0.0515 -0.1669
 3097W        W 6616   5.249   0.065   8.712  0.1040 -0.0495 -0.1344
 3098W        W 6617   2.647   1.795   2.454  0.0445 -0.1411  0.0315
 3099W        W 6618   2.330   2.523   0.782  0.2071 -0.0431  0.0523
 3100W        W 6619   4.598   8.429   2.498 -0.2888  0.2353 -0.4245
 3101W        W 6620   3.101   0.051   3.790  0.0778 -0.0234  0.2873
 3102W        W 6621   7.959   0.797   4.596 -0.0796 -0.0863 -0.1334
 3103W        W 6622   6.002   8.302  10.808 -0.1958  0.1199  0.1048
 3104W        W 6623   6.599   2.659   2.501 -0.2723  0.0568  0.3980
 3105W        W 6624   9.455   4.817   1.551 -0.1262  0.0806  0.5524
 3106W        W 6625   3.032   3.457  12.111 -0.0439  0.2412 -0.0906
 3107W        W 6626   9.464   2.537   2.465 -0.1098  0.0363 -0.2473
 3108W        W 6627   0.527   3.923   8.521  0.2239 -0.0208  0.2231
 3109W        W 6628   2.868   6.472   1.050  0.0292  0.1246  0.0526
 3110W        W 6629   8.151   9.066   9.602 -0.1967  0.2725  0.0167
 3111W        W 6630   7.182   3.149   0.377 -0.1825 -0.0471 -0.2401
 3112W        W 6631   3.734   1.599  10.575 -0.2647 -0.2229 -0.2619
 3113W        W 6632   1.513   7.519  11.616 -0.0101  0.2449 -0.1555
 3114W        W 6633   4.699   5.278   0.945 -0.1922 -0.1758 -0.1226
 3115W        W 6634   2.827   1.332   7.809 -0.0438  0.1375  0.1766
 3116W        W 6635   6.220   3.012  11.893 -0.1554  0.3390  0.2314
 3117W        W 6636   2.499   4.682   3.136  0.1092 -0.1470  0.1177
 3118W        W 6637   5.871   8.996   3.114 -0.2155 -0.0010  0.0687
 3119W        W 6638   4.348   4.603   2.400 -0.1034 -0.0532  0.2117
 3120W        W 6639   9.400   2.742   9.471 -0.0651 -0.0895 -0.0579
 3121W        W 6640   5.850   9.642   1.281 -0.0154  0.0640 -0.0246
 3122W        W 6641   5.612   1.930   1.167 -0.2070  0.0816  0.0857
 3123W        W 6642   8.955   0.280   2.267 -0.1215 -0.0901  0.2599
 3124W        W 6643   0.443   0.748   3.319  0.3187  0.0743  0.2559
 3125W        W 6644   4.842   0.886   3.345 -0.0067  0.2894  0.0078
 3126W        W 6645   7.039   5.877   3.559 -0.2464 -0.1175  0.0733
 3127W        W 6646   8.499   1.969   7.699  0.2154  0.0530 -0.2813
 3128W        W 6647   5.495   1.858   3.054  0.1329  0.1606  0.0036
 3129W        W 6648   8.689   8.421   2.339 -0.2378  0.0955  0.3265
 3130W        W 6649   7.083   2.538  11.435  0.2271  0.2917 -0.0948
 3131W        W 6650   2.575   8.242   1.117  0.0007  0.1928  0.1227
 3132W        W 6651   2.942   4.565   9.906  0.3733 -0.0418 -0.0146
 3133W        W 6652   8.779   0.909   7.425  0.2137 -0.0872 -0.3023
 3134W        W 6653   1.453   7.838   0.571 -0.4101 -0.2382  0.1018
 3135W        W 6654   5.336   7.428   0.193 -0.2516  0.1664 -0.0720
 3136W        W 6655   4.262   0.255   0.677  0.1484 -0.0715  0.4777
 3137W        W 6656   9.742   1.615   3.122  0.2080  0.4125 -0.1959
 3138W        W 6657   4.786   4.643   0.856  0.0618 -0.0471 -0.1479
 3139W        W 6658   5.078   5.722   1.703 -0.0947 -0.0507 -0.2784
 3140W        W 6659   1.969   6.717   0.926  0.1909 -0.0006  0.3473
 3141W        W 6660   5.399   4.636   4.792 -0.1674  0.0626  0.0360
 3142W        W 6661   4.204   2.389   4.120  0.0293 -0.3340 -0.0511
 3143W        W 6662   6.786   2.962   9.559  0.2242 -0.1723  0.1827
 3144W        W 6663   7.787   3.535   1.031 -0.1502 -0.5258 -0.2111
 3145W        W 6664   1.200   2.775  10.198 -0.5250 -0.2834  0.3242
 3146W        W 6665   8.614   1.601   2.997 -0.1363 -0.0617  0.1390
 3147W        W 6666   5.659   7.671   3.711  0.0997 -0.1107  0.2491
 3148W        W 6667   1.597   7.131   3.581  0.1194 -0.1682 -0.4375
 3149W        W 6668   7.595   2.905   0.235 -0.0340  0.1717 -0.0867
 3150W        W 6669   5.248   6.309  10.228  0.0146  0.1812 -0.1812
 3151W        W 6670   0.935   9.270   3.117 -0.0794  0.0618 -0.0904
 3152W        W 6671   0.971   3.996   8.752  0.2885  0.1967  0.2332
 3153W        W 6672   8.784   4.849  11.210 -0.1770 -0.0833  0.1481
 3154W        W 6673   7.470   0.388   2.422  0.1577  0.2052  0.3920
 3155W        W 6674   6.315   4.973  11.788  0.0255  0.2257  0.1220
 3156W        W 6675   5.426   4.696  11.601  0.3376  0.0820  0.0186
 3157W        W 6676   7.462   8.962   8.664  0.0810  0.2377 -0.1699
 3158W        W 6677   6.918   4.329  10.298 -0.1699  0.0278  0.1497
 3159W        W 6678   0.468   2.227   2.574  0.2920  0.0741 -0.1134
 3160W        W 6679   1.137   3.251   1.392 -0.1824 -0.1313  0.1031
 3161W        W 6680   6.563   4.118  11.455 -0.1341  0.3505  0.1438
 3162W        W 6681   5.479   2.132   0.192  0.1189 -0.0461 -0.2813
 3163W        W 6682   3.181   2.902   7.596  0.1272 -0.1640 -0.1982
 3164W        W 6683   5.869   2.926  10.259 -0.1209 -0.0790  0.1813
 3165W        W 6684   0.491   2.857   3.923  0.0159  0.0590 -0.1670
 3166W        W 6685   5.506   8.790  11.373  0.3321  0.1965  0.3887
 3167W        W 6686   4.487   6.504   0.216  0.2116  0.0050 -0.0898
 3168W        W 6687   4.429   6.149  10.130 -0.2374 -0.2033  0.1590
 3169W        W 6688   4.362   2.699  10.916 -0.0925 -0.1588 -0.1360
 3170W        W 6689   6.122   2.784   0.161  0.0943  0.0315 -0.1466
 3171W        W 6690   6.007   8.856   1.546  0.1115 -0.2245 -0.0112
 3172W        W 6691   0.111   1.753   9.933 -0.2209  0.0673 -0.0566
 3173W        W 6692   5.359   9.541   9.766  0.2867 -0.1742  0.2347
 3174W        W 6693   6.940   0.577   0.194 -0.1402 -0.1780  0.0457
 3175W        W 6694   9.227   5.018   0.171 -0.1353 -0.0562  0.1400
 3176W        W 6695   6.133   4.338   2.733 -0.0888 -0.1833 -0.2453
 3177W        W 6696   7.009   8.251   9.329  0.0425 -0.1840 -0.2528
 3178W        W 6697   9.215   6.485   3.407  0.2879  0.1433 -0.0575
 3179W        W 6698   8.977   1.019   9.727  0.2206  0.0668 -0.1448
 3180W        W 6699   1.523   2.600   1.565 -0.2076  0.2192 -0.0037
 3181W        W 6700   0.603   9.535   1.791  0.0952  0.3808  0.1027
 3182W        W 6701   4.188   8.107   9.887 -0.3448  0.0305  0.0339
 3183W        W 6702   9.066   8.434   1.292  0.0528  0.1415  0.0083
 3184W        W 6703   6.316   7.721   2.366  0.0668  0.1053  0.3575
 3185W        W 6704   1.022   3.726   3.133 -0.3409 -0.0920 -0.1139
 3186W        W 6705   4.919   0.824   0.792  0.1828  0.1172  0.0447
 3187W        W 6706   7.213   4.357   1.083  0.2174 -0.0991  0.1901
 3188W        W 6707   4.458   5.631   1.245 -0.1011 -0.0381 -0.1598
 3189W        W 6708   6.439   6.801   2.013  0.1234 -0.0674  0.0419
 3190W        W 6709   4.241   5.157   8.688 -0.2385 -0.2809 -0.0721
 3191W        W 6710   5.937   8.449   0.118  0.1581 -0.1995 -0.0612
 3192W        W 6711   7.881   6.893  11.944  0.3456  0.0800 -0.2301
 3193W        W 6712   6.521   7.367  10.956  0.0692  0.0468 -0.0212
 3194W        W 6713   7.899   4.006   9.573 -0.0261 -0.2356  0.0992
 3195W        W 6714   2.573   9.146   0.849 -0.0908  0.0905  0.0085
 3196W        W 6715   5.352   1.894  10.551  0.3141  0.4025  0.1177
 3197W        W 6716   1.630   4.303   3.980 -0.1389  0.2008 -0.2496
 3198W        W 6717   0.232   1.100   2.004  0.1705 -0.0523 -0.0106
 3199W        W 6718   5.053   0.615   2.537 -0.0464 -0.0889  0.0310
 3200W        W 6719   9.746   9.500  11.940  0.2526  0.1859  0.0573
 3201W        W 6720   7.100   4.309   2.487  0.1983 -0.0633 -0.0575
 3202W        W 6721   3.796   3.803   2.188 -0.0275 -0.0566  0.0138
 3203W        W 6722   0.746   1.633   1.985 -0.1062 -0.3010 -0.0315
 3204W        W 6723   7.085   6.724   0.282  0.1732 -0.4183 -0.2254
 3205W        W 6724   0.637   2.077  10.863 -0.0260  0.0186  0.0674
 3206W        W 6725   2.272   5.166   9.962  0.2023  0.0703 -0.2892
 3207W        W 6726   0.420   8.919   0.982 -0.4646 -0.1360  0.0108
 3208W        W 6727   5.710   4.352   3.063  0.1831  0.1986 -0.0889
 3209W        W 6728   1.049   2.363   9.880 -0.0140  0.2143 -0.4014
 3210W        W 6729   9.735   0.536   3.189  0.1553 -0.0068  0.0588
 3211W        W 6730   0.123   7.637   0.175  0.0269  0.0952  0.1012
 3212W        W 6731   6.461   5.092   0.020  0.1458  0.1623 -0.1778
 3213W        W 6732   4.199   8.093   8.149 -0.4975  0.2661 -0.0266
 3214W        W 6733   1.475   5.055   9.728  0.2520  0.0586 -0.2261
 3215W        W 6734   6.534   8.768   3.918 -0.1489  0.0294 -0.2685
 3216W        W 6735   8.896   3.065  10.340 -0.2610 -0.1324 -0.2375
 3217W        W 6736   7.205   0.501  10.493 -0.3934 -0.3811  0.2979
 3218W        W 6737   0.774   4.222   1.036 -0.2394  0.1260  0.2652
 3219W        W 6738   8.382   3.249   1.683  0.0141  0.2364  0.1453
 3220W        W 6739   4.738   5.332   1.563  0.0869 -0.0139 -0.0904
 3221W        W 6740   5.174   6.700   1.722 -0.3208 -0.0898  0.0140
 3222W        W 6741   2.256   0.065  11.865  0.0405 -0.3856  0.2106
 3223W        W 6742   3.425   8.756   0.928  0.0395 -0.0177 -0.2834
 3224W        W 6743   3.793   9.647   9.741  0.2797  0.1007 -0.0689
 3225W        W 6744   0.834   2.291   1.180 -0.0664 -0.1919 -0.1244
 3226W        W 6745   1.096   3.360   0.858  0.0186 -0.0980 -0.0809
 3227W        W 6746   1.416   3.157   9.901  0.0927 -0.2418  0.2287
 3228W        W 6747   2.191   4.373  10.459 -0.0098  0.1572 -0.0998
 3229W        W 6748   7.758   7.218   3.181  0.0969 -0.0395  0.0463
 3230W        W 6749   6.483   5.369   1.613 -0.0264 -0.0541 -0.0033
 3231W        W 6750   6.748   1.594   2.228  0.2179 -0.0554  0.3457
 3232W        W 6751   7.314   7.036   0.595 -0.1818  0.0915 -0.2101
 3233W        W 6752   6.697   9.751  10.091  0.0712  0.1459  0.0640
 3234W        W 6753   3.951   0.680  12.273 -0.0790 -0.6113  0.0171
 3235W        W 6754   2.868   2.748   2.133  0.2060 -0.2410 -0.0499
 3236W        W 6755   6.928   4.975   8.018  0.1262 -0.2604 -0.0737
 3237W        W 6756   2.783   2.457  11.156 -0.0756  0.0835 -0.0580
 3238W        W 6757   5.888   4.532  11.227  0.1768 -0.4283 -0.3282
 3239W        W 6758   9.689   4.479   8.975 -0.2360  0.1346  0.2356
 3240W        W 6759   4.363   7.408   3.362  0.0402 -0.0355 -0.0752
 3241W        W 6760   9.041   4.702  12.104 -0.2127  0.5458 -0.1394
 3242W        W 6761   4.596   0.838   9.410  0.1651 -0.1860  0.2837
 3243W        W 6762   8.151   9.002   4.062  0.0714 -0.0580 -0.0747
 3244W        W 6763   0.421   3.081   9.759  0.0330 -0.1630 -0.2395
 3245W        W 6764   7.732   7.099   8.739 -0.2729  0.1458 -0.0694
 3246W        W 6765   1.115   4.560   2.521 -0.0238  0.0624  0.0267
 3247W        W 6766   0.473   3.425   1.463 -0.0984  0.0288  0.2241
 3248W        W 6767   6.448   5.781   0.492 -0.0535 -0.0461  0.0318
 3249W        W 6768   1.380   2.766   0.993 -0.4849 -0.0592 -0.2465
 3250W        W 6769   0.069   1.285   7.655  0.1574  0.0849 -0.1010
 3251W        W 6770   3.994   4.187   0.759 -0.2776 -0.2794  0.0193
 3252W        W 6771   3.390   1.541  12.127  0.0349 -0.1674  0.2333
 3253W        W 6772   0.050   9.611   1.750 -0.2024  0.0004 -0.1270
 3254W        W 6773   7.467   0.781   8.558 -0.0150  0.2329 -0.0036
 3255W        W 6774   1.614   0.817   3.415  0.0296  0.0429 -0.1841
 3256W        W 6775   9.772   9.468   2.642 -0.0915  0.1036  0.0774
 3257W        W 6776   7.781   0.071  12.099 -0.2202  0.1017 -0.0227
 3258W        W 6777   4.904   0.524   8.696  0.3822 -0.2461  0.1092
 3259W        W 6778   3.933   9.094  10.819 -0.1767 -0.0869 -0.0317
 3260W        W 6779   3.267   7.312   3.593 -0.0405 -0.2217 -0.0056
 3261W        W 6780   7.902   3.884  10.125 -0.1430  0.0206  0.1123
 3262W        W 6781   2.949   6.135   0.083  0.0650 -0.0351 -0.1954
 3263W        W 6782   5.359   2.644   9.349  0.2743 -0.1015  0.0487
 3264W        W 6783   8.817   0.887   7.924 -0.3468  0.2957 -0.2004
 3265W        W 6784   3.802   1.063   9.046 -0.1154  0.0505  0.0072
 3266W        W 6785   5.454   3.398   7.914 -0.0760  0.1902 -0.1323
 3267W        W 6786   8.247   5.133  12.244 -0.1018  0.2214  0.3963
 3268W        W 6787   7.687   0.129   0.858  0.0075 -0.1880  0.0961
 3269W        W 6788   8.656   0.441   7.324  0.0676  0.1486  0.2473
 3270W        W 6789   0.879   7.347  10.507  0.3435 -0.3289  0.4371
 3271W        W 6790   3.982   6.427   1.422  0.1098  0.2145  0.1284
 3272W        W 6791   8.609   4.042   2.031  0.1873 -0.2742  0.0313
 3273W        W 6792   7.270   2.184  11.773 -0.0118  0.1022  0.0573
 3274W        W 6793   7.346   0.762   3.965  0.0972  0.0040  0.0061
 3275W        W 6794   9.338   9.358   1.661 -0.1197 -0.2673  0.1509
 3276W        W 6795   7.778   4.780   4.140  0.0092  0.0827 -0.3232
 3277W        W 6796   6.958   8.049   3.573  0.1904 -0.3384  0.3482
 3278W        W 6797   7.438   8.929  12.274 -0.2326 -0.1012  0.0018
 3279W        W 6798   2.505   7.218   3.055  0.0312  0.1887 -0.1296
 3280W        W 6799   9.067   0.711   1.034 -0.1622 -0.1472 -0.2091
 3281W        W 6800   4.699   5.639  12.263  0.0418  0.0874  0.2421
 3282W        W 6801   2.697   2.328   2.523  0.0469 -0.0385  0.1223
 3283W        W 6802   3.769   2.105   0.121 -0.0911 -0.0540 -0.2267
 3284W        W 6803   8.872   9.349  11.607 -0.0080 -0.0138  0.2273
 3285W        W 6804   5.096   8.638  11.610  0.2088 -0.2838 -0.0242
 3286W        W 6805   5.798   4.368  11.781  0.1530  0.1755 -0.0062
 3287W        W 6806   1.323   4.878   3.797  0.0607  0.0446  0.2126
 3288W        W 6807   6.844   1.487   2.716  0.3000 -0.1468  0.0937
 3289W        W 6808   1.729   4.968  11.777  0.1311 -0.1202  0.1538
 3290W        W 6809   4.600   3.817   1.399 -0.0095 -0.0876 -0.1661
 3291W        W 6810   4.846   5.982   1.335  0.0112  0.1882  0.0859
 3292W        W 6811   8.558   3.302   8.914 -0.0423  0.3911 -0.1082
 3293W        W 6812   5.390   8.949   3.568 -0.1830  0.1790 -0.3346
 3294W        W 6813   4.288   6.947   8.650 -0.0936  0.4740  0.1102
 3295W        W 6814   6.077   0.334  11.530  0.2012 -0.0769  0.0461
 3296W        W 6815   3.990   6.380   1.929  0.0485  0.0502  0.1981
 3297W        W 6816   4.191   0.764   0.411 -0.1584 -0.1689  0.0742
 3298W        W 6817   4.398   3.900   0.439 -0.1465 -0.0724 -0.0016
 3299W        W 6818   6.573   2.762   3.609  0.0477 -0.1316 -0.0318
 3300W        W 6819   6.451   3.718  10.602 -0.1676  0.1720  0.3480
 3301W        W 6820   7.180   9.382  11.004 -0.2446 -0.0566 -0.0051
 3302W        W 6821   2.277   2.480   3.409  0.0033 -0.0239 -0.0323
 3303W        W 6822   4.042   7.245   2.626  0.0474  0.2040 -0.0137
 3304W        W 6823   1.712   2.636  11.998 -0.2676  0.2185 -0.2484
 3305W        W 6824   0.005   5.928   3.085  0.0690  0.0335 -0.1995
 3306W        W 6825   2.154   7.726  10.465 -0.2774 -0.2270  0.1213
 3307W        W 6826   7.643   4.435   0.736 -0.1496 -0.0220 -0.1390
 3308W        W 6827   0.688   8.393  10.725  0.0024 -0.1902 -0.1234
 3309W        W 6828   2.484   6.792   1.200 -0.2316  0.0998 -0.2245
 3310W        W 6829   8.273   7.298  11.992  0.3006  0.1247  0.1458
 3311W        W 6830   6.609   1.249  10.441 -0.0386 -0.2112 -0.3444
 3312W        W 6831   9.522   1.034   2.393  0.0283 -0.3254 -0.0333
 3313W        W 6832   8.147   1.339   9.681  0.1493  0.3882  0.0856
 3314W        W 6833   4.752   5.296  10.309  0.4189 -0.1071 -0.0653
 3315W        W 6834   5.243   7.989   1.654 -0.0188 -0.0277  0.1049
 3316W        W 6835   7.710   3.658   8.759  0.2435 -0.0401 -0.4163
 3317W        W 6836   7.725   3.367   3.403  0.2278  0.0276 -0.2708
 3318W        W 6837   8.764   3.623  12.213  0.0765 -0.3599  0.0118
 3319W        W 6838   8.497   0.680  10.404 -0.3037  0.0171  0.2504
 3320W        W 6839   0.636   3.761  10.857 -0.0609 -0.0364  0.0709
 3321W        W 6840   8.602   1.277   0.022 -0.1445 -0.2926 -0.0606
 3322W        W 6841   5.824   6.321   8.148 -0.3530 -0.1087  0.3781
 3323W        W 6842   6.582   6.856   0.484 -0.0319 -0.1227 -0.0858
 3324W        W 6843   1.099   6.778  11.784  0.0826 -0.1217 -0.1887
 3325W        W 6844   0.451   2.766   0.511 -0.2468 -0.0492 -0.2022
 3326W        W 6845   0.719   6.801   2.404  0.2101  0.1646 -0.3862
 3327W        W 6846   7.628   2.258   8.711  0.2186  0.0523 -0.2375
 3328W        W 6847   0.688   1.766   8.808  0.0795  0.0667  0.0875
 3329W        W 6848   1.473   6.793  11.017 -0.0565  0.4042  0.1537
 3330W        W 6849   1.595   0.661  10.195  0.2358  0.0961 -0.1103
 3331W        W 6850   6.412   0.807  10.199 -0.2165 -0.1476  0.0624
 3332W        W 6851   5.301   0.057   1.796 -0.0036  0.1594 -0.3122
 3333W        W 6852   4.153   8.953   2.691  0.1040  0.1967  0.0459
 3334W        W 6853   9.033   2.614   0.225 -0.0848 -0.2232 -0.0981
 3335W        W 6854   8.875   6.591   0.043 -0.0997 -0.0493  0.0476
 3336W        W 6855   8.036   0.382   1.309  0.0330 -0.1777  0.0398
 3337W        W 6856   6.649   1.002   2.852 -0.0593  0.0072  0.1962
 3338W        W 6857   5.007   7.962   0.923 -0.1122  0.3087 -0.0200
 3339W        W 6858   2.252   2.510  12.280 -0.0301 -0.2784 -0.3981
 3340W        W 6859   0.533   4.453   3.185  0.0004 -0.0392  0.0219
 3341W        W 6860   4.147   1.249  11.260  0.1435  0.1420  0.1798
 3342W        W 6861   9.411   9.234   2.915  0.5097 -0.2197 -0.1733
 3343W        W 6862   6.217   5.514   7.960 -0.0999 -0.4114 -0.0152
 3344W        W 6863   8.635   1.328   9.436  0.0771  0.0983  0.1511
 3345W        W 6864   3.342   2.554   0.856 -0.0314  0.0317 -0.2248
 3346W        W 6865   4.283   7.509   1.866  0.1554  0.1217  0.1027
 3347W        W 6866   7.433   3.170   4.151 -0.0145  0.1857 -0.0667
 3348W        W 6867   4.125   9.258   9.628 -0.0581 -0.1081  0.0614
 3349W        W 6868   6.120   7.853  11.613  0.0568 -0.2219 -0.1711
 3350W        W 6869   8.857   0.697  11.467  0.2284 -0.1204 -0.0913
 3351W        W 6870   8.129   6.144   8.996  0.0511 -0.1920  0.4460
 3352W        W 6871   2.007   7.008   1.340 -0.0218  0.0204  0.1826
 3353W        W 6872   1.301   8.401   9.822  0.0360  0.0276  0.1380
 3354W        W 6873   5.387   7.342   8.916 -0.1889  0.3809 -0.2543
 3355W        W 6874   1.869   3.650   8.624  0.1292 -0.1438  0.4784
 3356W        W 6875   4.487   6.416  10.583  0.0857 -0.0735 -0.1294
 3357W        W 6876   4.585   5.198   4.231 -0.3550  0.2668  0.0006
 3358W        W 6877   6.597   2.646  11.412  0.2499 -0.3375  0.1685
 3359W        W 6878   8.819   8.042   2.700  0.1107  0.1058  0.0369
 3360W        W 6879   1.516   7.751   9.364 -0.0541 -0.1933 -0.0614
 3361W        W 6880   3.986   3.662   8.676  0.1186 -0.1401  0.0240
 3362W        W 6881   0.627   5.275  11.096 -0.0156  0.1565 -0.1919
 3363W        W 6882   2.853   9.776   8.400  0.0934  0.2022 -0.2090
 3364W        W 6883   9.613   3.119  10.984  0.0144 -0.1562 -0.3870
 3365W        W 6884   1.300   8.454   3.031  0.0005  0.0028  0.1696
 3366W        W 6885   2.237   6.442   3.483  0.2932 -0.0007  0.2302
 3367W        W 6886   9.716   3.637   0.689 -0.2279 -0.1614 -0.0953
 3368W        W 6887   6.502   8.841  12.054 -0.1366 -0.0526 -0.1415
 3369W        W 6888   7.499   2.619  10.979 -0.0771  0.0087 -0.3914
 3370W        W 6889   2.564   8.356  11.748 -0.2488  0.1068 -0.0364
 3371W        W 6890   1.025   5.482   0.949 -0.1835  0.2426 -0.1090
 3372W        W 6891   7.499   8.047  11.369  0.0440  0.0832  0.1225
 3373W        W 6892   2.025   2.085   9.951  0.1025 -0.1636 -0.2539
 3374W        W 6893   9.675   1.564   8.309 -0.1465  0.1921  0.0775
 3375W        W 6894   0.263   4.109  10.823 -0.2134 -0.3929 -0.1114
 3376W        W 6895   3.001   9.123   9.430  0.1121  0.0192 -0.3638
 3377W        W 6896   6.959   8.018  11.126 -0.0921  0.3579 -0.2120
 3378W        W 6897   5.705   3.537   3.785 -0.2662  0.0932  0.2854
 3379W        W 6898   4.727   4.712   0.230  0.1351 -0.3595 -0.3337
 3380W        W 6899   0.246   1.678   0.285 -0.2622  0.1509 -0.1335
 3381W        W 6900   3.318   6.201  11.290 -0.0288 -0.1331 -0.0034
 3382W        W 6901   1.616   0.139   8.516  0.2223  0.0209 -0.1206
 3383W        W 6902   6.251   8.360  11.245 -0.0285  0.0186 -0.0092
 3384W        W 6903   4.663   1.348   0.243 -0.2763 -0.1758 -0.0096
 3385W        W 6904   0.393   1.339   9.972  0.1906 -0.1941  0.1674
 3386W        W 6905   1.729   8.633  12.277  0.0233 -0.0612  0.3166
 3387W        W 6906   3.096   5.808   8.622 -0.0308  0.0506  0.0872
 3388W        W 6907   8.087   6.057   0.182  0.3490 -0.0857  0.1843
 3389W        W 6908   9.711   7.257   3.151  0.0609 -0.2255  0.1900
 3390W        W 6909   8.893   4.875   8.895  0.4331  0.0176  0.3960
 3391W        W 6910   9.372   7.414   2.348  0.1292  0.0926 -0.1763
 3392W        W 6911   7.783   9.762   2.389  0.1143 -0.0032 -0.0687
 3393W        W 6912   4.699   3.671   1.902 -0.1490 -0.1447 -0.0087
 3394W        W 6913   3.782   9.106   9.954 -0.2123  0.0677  0.0324
 3395W        W 6914   2.058   6.212   1.816 -0.1855 -0.1561  0.2572
 3396W        W 6915   9.779   2.601   3.758  0.0931  0.0321 -0.0008
 3397W        W 6916   6.971   4.809   1.062 -0.0116  0.1806  0.0068
 3398W        W 6917   2.305   6.561  10.179  0.0241 -0.1293  0.0281
 3399W        W 6918   0.022   2.551   9.962 -0.2179 -0.2113  0.3158
 3400W        W 6919   8.315   0.748   0.488 -0.0993 -0.0506  0.2239
 3401W        W 6920   4.129   1.387   0.404 -0.1988  0.0127  0.0332
 3402W        W 6921   7.821   1.995   9.173 -0.0537  0.0324  0.2394
 3403W        W 6922   9.569   7.317  11.658  0.1004  0.0931  0.0296
 3404W        W 6923   2.563   9.214   2.556  0.4154 -0.1986  0.0153
 3405W        W 6924   0.590   0.217   8.826 -0.0079 -0.4205 -0.0459
 3406W        W 6925   4.148   1.921   2.621 -0.2627 -0.2893 -0.0215
 3407W        W 6926   4.359   2.478   8.866  0.1224 -0.2020 -0.2405
 3408W        W 6927   4.321   1.734   3.179  0.0285 -0.0452 -0.1853
 3409W        W 6928   3.447   3.302   1.484 -0.2640  0.1033  0.2870
 3410W        W 6929   6.161   3.842  11.859  0.0047  0.1643 -0.1237
 3411W        W 6930   5.958   1.272   0.281 -0.2730 -0.0689  0.2534
 3412W        W 6931   8.702   8.060   1.868 -0.0231 -0.1836 -0.0728
 3413W        W 6932   7.912   8.285   1.488  0.2781 -0.2911  0.1769
 3414W        W 6933   3.692   9.590   2.458 -0.0658  0.2086  0.2747
 3415W        W 6934   1.239   3.623   9.936 -0.2059  0.0765  0.2344
 3416W        W 6935   3.548   5.028   0.568 -0.1058  0.0784  0.1446
 3417W        W 6936   1.330   9.517   2.065  0.2123  0.5285 -0.1432
 3418W        W 6937   4.994   4.932   3.433 -0.1717 -0.0862 -0.2620
 3419W        W 6938   3.326   6.408   8.537  0.0277 -0.1818  0.0326
 3420W        W 6939   4.989   6.912   3.430 -0.3662  0.1492 -0.2527
 3421W        W 6940   3.084   6.735  11.603  0.0740  0.2650 -0.0333
 3422W        W 6941   2.073   6.155   2.354 -0.1826 -0.3821  0.1699
 3423W        W 6942   2.158   7.019  10.112  0.4621  0.4344  0.0336
 3424W        W 6943   2.747   0.436   8.482  0.1607 -0.2078  0.0257
 3425W        W 6944   9.512   8.573  11.441  0.2958  0.0084  0.4656
 3426W        W 6945   6.068   3.750   9.816  0.1115 -0.1254  0.0047
 3427W        W 6946   0.209   5.026  11.020  0.3130 -0.3370 -0.0238
 3428W        W 6947   5.845   8.336  11.619  0.1744  0.2726  0.1352
 3429W        W 6948   2.534   2.184   0.584  0.2152 -0.1323  0.2987
 3430W        W 6949   7.836   1.566   1.141 -0.0051  0.0171 -0.2654
 3431W        W 6950   8.530   2.399   2.351 -0.1098 -0.1348 -0.0542
 3432W        W 6951   6.282   0.270  10.143 -0.1187  0.0813 -0.1272
 3433W        W 6952   4.108   8.907  11.635  0.3497  0.0905  0.1569
 3434W        W 6953   8.479   7.742  10.682  0.1628 -0.4446  0.2388
 3435W        W 6954   7.681   6.967  10.330 -0.0903  0.0681 -0.0222
 3436W        W 6955   6.809   7.057   3.305  0.0046  0.1080 -0.1723
 3437W        W 6956   9.662   7.729  10.854  0.0876 -0.1344  0.0950
 3438W        W 6957   0.199   7.505   0.700  0.1218 -0.2178  0.0411
 3439W        W 6958   2.391   1.375   0.229  0.1636  0.0933 -0.0653
 3440W        W 6959   4.881   6.171   9.835 -0.2544  0.0663 -0.2629
 3441W        W 6960   7.444   3.763   3.240 -0.2257  0.1797  0.1199
 3442W        W 6961   3.654   6.056   8.798 -0.0561  0.0648  0.1744
 3443W        W 6962   2.379   5.116   3.260  0.0703 -0.0790  0.1577
 3444W        W 6963   3.856   8.555   8.965  0.1736  0.0494  0.2407
 3445W        W 6964   4.118   4.394   9.112 -0.0370  0.1640 -0.1194
 3446W        W 6965   8.057   2.460   9.010 -0.1044  0.4559  0.1069
 3447W        W 6966   7.708   2.144   2.115  0.0392  0.0778 -0.2150
 3448W        W 6967   2.526   1.085  10.329 -0.3386 -0.0485  0.2132
 3449W        W 6968   0.739   1.600   9.695 -0.1102 -0.0160  0.3110
 3450W        W 6969   9.382   6.471   0.042 -0.4435 -0.3751 -0.1290
 3451W        W 6970   6.983   4.427   0.615 -0.1299  0.1132 -0.2526
 3452W        W 6971   6.114   9.602  11.599 -0.0442 -0.1798 -0.1624
 3453W        W 6972   8.305   5.831   1.114  0.1178  0.1796 -0.0369
 3454W        W 6973   1.341   6.826   2.283 -0.0637  0.1337  0.0439
 3455W        W 6974   0.786   9.783  10.801  0.0402  0.0324 -0.0899
 3456W        W 6975   0.634   7.370   0.806  0.1153  0.0778  0.0450
 3457W        W 6976   7.668   8.575   9.918  0.0230  0.1222  0.0013
 3458W        W 6977   7.815   6.342  10.317 -0.1377  0.0903 -0.0233
 3459W        W 6978   2.992   2.965   0.789 -0.1283  0.2883 -0.0795
 3460W        W 6979   1.421   1.246   2.442  0.0027  0.0618  0.0399
 3461W        W 6980   4.026   7.269   9.339 -0.2313  0.2053  0.0002
 3462W        W 6981   9.117   1.523   4.241  0.2546  0.1055  0.0331
 3463W        W 6982   6.998   6.422   1.828 -0.1431 -0.1285 -0.2203
 3464W        W 6983   1.556   7.591   3.271  0.1428 -0.3630 -0.3035
 3465W        W 6984   6.916   0.948  10.121  0.0629 -0.0225  0.1400
 3466W        W 6985   2.775   5.435   9.481 -0.0622  0.1930 -0.0248
 3467W        W 6986   0.813   9.005   0.021 -0.0523 -0.0133 -0.2518
 3468W        W 6987   7.538   9.386   2.122 -0.0442 -0.2490 -0.0058
 3469W        W 6988   3.395   0.310  11.172 -0.1431  0.4332 -0.1629
 3470W        W 6989   8.937   3.073   9.287  0.0876 -0.2391 -0.2123
 3471W        W 6990   9.248   9.708   3.577  0.2223 -0.0452 -0.0084
 3472W        W 6991   1.089   6.622  11.272  0.1704  0.2134  0.2437
 3473W        W 6992   6.604   2.619   8.675  0.0616 -0.1594 -0.0439
 3474W        W 6993   3.409   2.689  11.180  0.2385  0.4426  0.0090
 3475W        W 6994   5.199   2.219   0.565  0.1666  0.0393  0.2220
 3476W        W 6995   7.876   7.501  11.802 -0.2822 -0.1401 -0.0569
 3477W        W 6996   4.899   3.595   8.640  0.2244  0.0506 -0.0761
 3478W        W 6997   3.305   4.208  11.231 -0.1521 -0.1166  0.0899
 3479W        W 6998   6.286   8.855   3.286  0.1578  0.0250 -0.0024
 3480W        W 6999   5.474   2.260  12.039  0.5303  0.0396 -0.2086
 3481W        W 7000   9.542   2.737   2.926 -0.1026  0.0208  0.3248
 3482W        W 7001   1.753   8.840   1.548 -0.0009  0.1906  0.5068
 3483W        W 7002   8.567   7.898   3.573  0.2054 -0.1851  0.1977
 3484W        W 7003   9.564   8.055   2.493 -0.1909  0.0245  0.1621
 3485W        W 7004   5.266   6.405   4.543 -0.2296  0.0636 -0.3221
 3486W        W 7005   5.528   5.892  10.720 -0.2905 -0.2252 -0.0328
 3487W        W 7006   8.313   8.447   0.662  0.3959 -0.0404 -0.0139
 3488W        W 7007   7.267   2.880   8.689 -0.0626 -0.1186  0.1724
 3489W        W 7008   5.036   6.996  11.661  0.2271 -0.0597  0.2081
 3490W        W 7009   0.479   0.771   4.723 -0.0296 -0.0514  0.3511
 3491W        W 7010   9.323   2.604   3.436  0.0208 -0.0546 -0.1475
 3492W        W 7011   3.269   1.680   0.505 -0.0326 -0.2899 -0.2011
 3493W        W 7012   7.523   0.580   3.511  0.1366 -0.0769  0.1033
 3494W        W 7013   8.056   1.233  11.145 -0.1635  0.0719 -0.1486
 3495W        W 7014   2.617   0.281  10.229 -0.1858  0.1636  0.1180
 3496W        W 7015   2.138   0.601   0.187  0.2265 -0.3543 -0.1077
 3497W        W 7016   8.680   5.181   4.320  0.3730  0.0278  0.1219
 3498W        W 7017   6.813   9.780   1.275  0.0888 -0.1026 -0.3157
 3499W        W 7018   8.118   3.469   0.585  0.2740  0.0628 -0.1788
 3500W        W 7019   3.108   5.087  11.967 -0.0967 -0.0875  0.0611
 3501W        W 7020   1.850   9.401   4.516  0.0033 -0.0330 -0.0320
 3502W        W 7021   1.135   2.583   1.936  0.0272  0.0165 -0.3239
 3503W        W 7022   3.681   4.027   9.010 -0.2058 -0.0220 -0.1837
 3504W        W 7023   7.372   5.634  10.769 -0.0938 -0.0022 -0.1985
 3505W        W 7024   3.894   2.737   8.537  0.3065  0.1296 -0.0283
 3506W        W 7025   2.727   9.501   3.923  0.0030  0.3604  0.0412
 3507W        W 7026   5.775   0.939   3.767 -0.3399 -0.2632 -0.5176
 3508W        W 7027   0.639   9.776   3.230 -0.0986 -0.3268  0.2290
 3509W        W 7028   0.423   3.491   8.761  0.0831 -0.3249  0.2288
 3510W        W 7029   2.801   6.036   0.706 -0.1267  0.0009 -0.0289
 3511W        W 7030   0.410   6.220   9.878  0.0385 -0.0830  0.0037
 3512W        W 7031   8.889   2.843   3.617  0.0208  0.3529  0.0664
 3513W        W 7032   5.055   2.947   1.722 -0.3238 -0.1561 -0.0476
 3514W        W 7033   0.310   4.259   2.699 -0.3675 -0.2333 -0.3768
 3515W        W 7034   8.172   2.298   1.333  0.1715  0.1034  0.0704
 3516W        W 7035   7.488   1.104  11.438  0.2198 -0.1225  0.2417
 3517W        W 7036   6.007   7.335  11.690 -0.1979 -0.1004 -0.2205
 3518W        W 7037   7.223   0.547   9.918  0.0086 -0.1688  0.2607
 3519W        W 7038   5.607   8.362   3.820 -0.0217  0.2037 -0.0431
 3520W        W 7039   9.213   8.157  10.594 -0.0316  0.1086  0.2238
 3521W        W 7040   0.896   3.294   3.271  0.0139  0.0322  0.0794
 3522W        W 7041   4.537   0.110   2.992  0.0131 -0.1700  0.1634
 3523W        W 7042   0.459   3.060  12.076 -0.1906 -0.1093 -0.2960
 3524W        W 7043   2.455   3.309   0.406 -0.1582  0.0521 -0.0795
 3525W        W 7044   9.207   9.086  10.129  0.5135 -0.0800  0.4307
 3526W        W 7045   1.431   3.161  11.855 -0.2730 -0.1477  0.2381
 3527W        W 7046   0.038   4.561   3.518  0.1794  0.0452  0.1896
 3528W        W 7047   2.303   4.662  11.230 -0.1819  0.3954 -0.3238
 3529W        W 7048   0.578   5.276   1.272 -0.2847 -0.2159  0.3662
 3530W        W 7049   5.435   1.200   8.165 -0.0633 -0.0493 -0.1171
 3531W        W 7050   4.974   4.545  10.000 -0.0419  0.0279 -0.1245
 3532W        W 7051   2.750   9.194   8.905 -0.0858 -0.1425  0.1563
 3533W        W 7052   7.574   3.965   1.234  0.1763 -0.1924  0.2451
 3534W        W 7053   1.163   8.630  11.136 -0.0453 -0.0729 -0.1510
 3535W        W 7054   6.595   3.166   9.077 -0.0361  0.2389  0.2031
 3536W        W 7055   5.480   9.778  12.270 -0.1149 -0.0048 -0.0016
 3537W        W 7056   2.814   7.435   3.358 -0.2618  0.1428  0.0024
 3538W        W 7057   7.282   5.773   8.715  0.2035  0.3164 -0.2284
 3539W        W 7058   6.583   2.984  10.123  0.0066 -0.0992  0.0694
 3540W        W 7059   6.480   1.803   2.599  0.2330 -0.3417 -0.2007
 3541W        W 7060   0.156   7.408   9.725 -0.0062  0.2517 -0.0771
 3542W        W 7061   6.730   7.461  12.094  0.1423 -0.1224 -0.0056
 3543W        W 7062   0.584   0.867  10.303 -0.0704 -0.4281  0.0442
 3544W        W 7063   4.409   4.449  10.630 -0.0229  0.0612 -0.2674
 3545W        W 7064   5.654   2.920  11.558  0.1597  0.1399  0.0734
 3546W        W 7065   0.596   4.354  10.471 -0.0491 -0.0843  0.3338
 3547W        W 7066   6.459   6.782   8.627 -0.0335  0.0719  0.1557
 3548W        W 7067   1.898   5.374   9.013  0.1527 -0.1606  0.0759
 3549W        W 7068   7.124   5.105   2.048 -0.0510  0.3564  0.0349
 3550W        W 7069   1.317   5.301   2.873 -0.0989  0.1564  0.1746
 3551W        W 7070   3.319   4.610   0.277 -0.0265 -0.0815 -0.4118
 3552W        W 7071   4.004   7.313  10.893 -0.1177  0.1848 -0.0167
 3553W        W 7072   1.518   7.333  11.138  0.2313  0.0090 -0.1315
 3554W        W 7073   9.343   7.394  10.540 -0.2844  0.2923 -0.4103
 3555W        W 7074   9.518   4.269   3.790 -0.0485  0.0392 -0.1112
 3556W        W 7075   7.522   8.965  10.879 -0.0146  0.0174  0.0769
 3557W        W 7076   9.106   2.244   2.784  0.1860 -0.2802  0.0273
 3558W        W 7077   2.452   4.285   0.456 -0.0850 -0.0269 -0.0308
 3559W        W 7078   3.754   3.624   1.720  0.1060  0.1533 -0.0299
 3560W        W 7079   1.385   4.017   3.596  0.1548  0.0051  0.1408
 3561W        W 7080   3.107   8.007   1.426  0.0532  0.0114  0.3808
 3562W        W 7081   1.588   9.148   2.272 -0.0735  0.1318 -0.2620
 3563W        W 7082   6.414   6.799  10.873  0.0104  0.2210  0.0634
 3564W        W 7083   6.213   8.021   8.851 -0.0221  0.2246 -0.1824
 3565W        W 7084   7.826   5.558   9.462 -0.0841 -0.0371 -0.2889
 3566W        W 7085   0.441   9.325   3.404  0.0078 -0.0253  0.3082
 3567W        W 7086   4.281   5.934   2.174  0.0368  0.2423 -0.1491
 3568W        W 7087   5.191   6.335   8.638 -0.0191  0.0292  0.2309
 3569W        W 7088   8.028   7.047   2.326  0.1132  0.0338 -0.1224
 3570W        W 7089   2.725   6.440   9.951 -0.1039 -0.2233  0.0918
 3571W        W 7090   6.235   2.267   1.416  0.0112  0.2466 -0.1645
 3572W        W 7091   2.485   2.162  10.615 -0.1033 -0.2373 -0.0887
 3573W        W 7092   0.469   0.307  10.354 -0.1370 -0.1434  0.1575
 3574W        W 7093   2.891   4.708   2.122 -0.1055 -0.1278  0.0148
 3575W        W 7094   5.364   4.608   0.918 -0.3715 -0.1857  0.1611
 3576W        W 7095   7.892   0.049   8.967 -0.0946  0.1259 -0.0401
 3577W        W 7096   7.265   8.443   1.825 -0.0366  0.0673 -0.0901
 3578W        W 7097   2.755   0.324  11.648 -0.0934  0.4642 -0.1230
 3579W        W 7098   4.178   3.813   9.146  0.1008 -0.2972  0.5583
 3580W        W 7099   7.073   0.420   2.115  0.0302 -0.1826  0.0416
 3581W        W 7100   6.513   3.694   0.040  0.1845 -0.0245  0.2678
 3582W        W 7101   4.445   3.196   1.976 -0.0431  0.0508  0.0127
 3583W        W 7102   2.004   8.643  10.342  0.3191 -0.2304  0.0795
 3584W        W 7103   1.718   5.937   2.061  0.1904 -0.1536  0.0513
 3585W        W 7104   6.056   6.387   9.582 -0.1730  0.4214  0.0498
 3586W        W 7105   4.147   5.689   3.191 -0.1118 -0.1226 -0.1068
 3587W        W 7106   2.886   7.407   9.918  0.0320  0.0558 -0.0912
 3588W        W 7107   9.541   9.790  10.708 -0.0276  0.2047 -0.0554
 3589W        W 7108   1.652   3.025   1.334 -0.0756  0.4316 -0.2537
 3590W        W 7109   7.540   2.999   9.952 -0.0226 -0.2877 -0.2117
 3591W        W 7110   0.795   6.020   9.071 -0.3491  0.2487  0.0474
 3592W        W 7111   9.307   7.950   2.031  0.0474 -0.1676 -0.1903
 3593W        W 7112   0.444   2.576   2.999 -0.1045  0.0354  0.1585
 3594W        W 7113   9.789   6.641   0.316 -0.2544 -0.0487  0.0744
 3595W        W 7114   8.034   0.083  10.022  0.0101  0.1404 -0.0757
 3596W        W 7115   0.327   0.102   8.330  0.0463  0.0398 -0.1170
 3597W        W 7116   1.551   4.573   2.894  0.3482  0.1400  0.3043
 3598W        W 7117   6.196   2.122  10.059  0.4273  0.5617  0.2639
 3599W        W 7118   1.588   8.384  10.272 -0.0294  0.0980  0.1735
 3600W        W 7119   6.540   1.113   9.590  0.0368  0.2227  0.2059
 3601W        W 7120   4.354   0.784   0.853  0.1284  0.1312  0.0466
 3602W        W 7121   0.150   2.959  11.736 -0.3194 -0.0396 -0.1977
 3603W        W 7122   1.497   1.886  10.224 -0.0497 -0.0724 -0.2659
 3604W        W 7123   0.981   2.763  11.055  0.1500  0.1472  0.0851
 3605W        W 7124   5.482   1.713  12.078  0.0973 -0.1815 -0.3019
 3606W        W 7125   7.567   8.092   0.528 -0.3126  0.1989 -0.1346
 3607W        W 7126   5.915   7.604   4.166  0.1852 -0.0358 -0.0526
 3608W        W 7127   5.852   6.234  11.108 -0.2199  0.2090  0.0700
 3609W        W 7128   3.003   2.894  11.414  0.1529  0.0896  0.1214
 3610W        W 7129   4.860   7.645  11.018 -0.0915 -0.0442 -0.5194
 3611W        W 7130   0.169   8.733   0.573  0.1210  0.2065  0.0663
 3612W        W 7131   2.830   0.925   1.376 -0.3331 -0.1159 -0.0458
 3613W        W 7132   7.079   0.726   7.596 -0.0344  0.3372 -0.0028
 3614W        W 7133   7.688   1.843   3.119  0.3174  0.0831 -0.0814
 3615W        W 7134   9.263   4.369   0.881  0.1234  0.1772 -0.0902
 3616W        W 7135   2.056   0.469   1.920 -0.1064  0.2094 -0.0106
 3617W        W 7136   3.909   9.780   3.028 -0.0924 -0.0471 -0.1790
 3618W        W 7137   6.877   3.132   3.534 -0.0523  0.1344  0.2006
 3619W        W 7138   9.101   9.440   9.764  0.0105  0.2073 -0.1473
 3620W        W 7139   7.137   4.932   1.516 -0.0831 -0.0438 -0.0907
 3621W        W 7140   7.632   3.198   0.660  0.0161  0.2326  0.2316
 3622W        W 7141   4.829   4.131   1.731 -0.1112  0.0918 -0.1093
 3623W        W 7142   8.119   4.529  10.773  0.2296 -0.2849 -0.4245
 3624W        W 7143   9.110   9.662   3.020 -0.0939  0.1382 -0.0441
 3625W        W 7144   6.414   3.994   8.356 -0.2518  0.4355  0.1045
 3626W        W 7145   4.263   9.054   0.468  0.1566 -0.0091 -0.0031
 3627W        W 7146   6.232   8.371   3.516  0.0721 -0.1172 -0.1535
 3628W        W 7147   0.789   3.701   0.612  0.0616 -0.1156 -0.0843
 3629W        W 7148   0.797   3.112  10.092 -0.1734 -0.0323 -0.3297
 3630W        W 7149   2.317   9.669   0.654 -0.0340  0.0859 -0.4638
 3631W        W 7150   6.940   2.253   0.319  0.0214 -0.2222 -0.0185
 3632W        W 7151   7.848   3.515   9.560 -0.1364  0.1188 -0.2909
 3633W        W 7152   8.018   9.764   8.409 -0.1620 -0.0666  0.1246
 3634W        W 7153   6.678   5.282  10.405 -0.1271  0.0591  0.2196
 3635W        W 7154   8.667   3.092  12.102  0.1106  0.3798  0.1995
 3636W        W 7155   3.513   4.099  10.667  0.2696 -0.0187 -0.0311
 3637W        W 7156   1.170   3.966   9.410  0.0567 -0.1258  0.2281
 3638W        W 7157   3.989   5.723   1.178  0.1184 -0.1833 -0.1895
 3639W        W 7158   3.131   9.112   2.678 -0.0403  0.1275 -0.2221
 3640W        W 7159   2.388   0.295   8.182 -0.0389 -0.0117  0.1414
 3641W        W 7160   3.743   7.270   0.714  0.0369  0.0188 -0.0894
 3642W        W 7161   9.327   5.196   3.692 -0.1744  0.1736  0.0559
 3643W        W 7162   4.842   6.490   1.296  0.0520  0.1171 -0.0521
 3644W        W 7163   8.835   7.765   2.252  0.1303  0.0552 -0.1699
 3645W        W 7164   6.904   9.047   4.618  0.1482 -0.0427 -0.1647
 3646W        W 7165   9.409   7.651  12.290  0.0835  0.1523 -0.2396
 3647W        W 7166   8.274   4.279   9.239  0.3164 -0.1776  0.0333
 3648W        W 7167   8.922   0.441   3.652  0.0055  0.3251 -0.4178
 3649W        W 7168   0.617   6.874   1.113 -0.1034 -0.0384  0.0413
 3650W        W 7169   3.823   7.524   3.609 -0.3024 -0.1499 -0.2016
 3651W        W 7170   0.223   4.083   2.201 -0.2855  0.0467  0.0365
 3652W        W 7171   9.410   1.895   1.995 -0.0165  0.3782  0.0547
 3653W        W 7172   5.536   1.733   2.600 -0.0908  0.0395 -0.3778
 3654W        W 7173   0.493   1.048   8.599 -0.2112  0.0438 -0.0464
 3655W        W 7174   5.368   8.075   2.866  0.2300 -0.0425 -0.3433
 3656W        W 7175   3.519   6.005   9.697  0.2731  0.0796  0.3153
 3657W        W 7176   1.433   0.493   9.734  0.1857 -0.1510  0.1482
 3658W        W 7177   9.538   2.606  11.817  0.0474  0.0215  0.2672
 3659W        W 7178   5.344   1.033   0.977 -0.1762 -0.3011 -0.0199
 3660W        W 7179   6.896   5.674   1.311  0.3240  0.0374  0.1024
 3661W        W 7180   4.977   6.510   0.353  0.1187 -0.0721  0.2340
 3662W        W 7181   6.617   6.325   9.667  0.0742 -0.3444  0.0689
 3663W        W 7182   6.350   2.004   9.344  0.3258  0.4851  0.1612
 3664W        W 7183   7.745   8.366  11.664 -0.0477  0.1201 -0.2126
 3665W        W 7184   6.002   2.178  12.196  0.0322  0.2994 -0.1067
 3666W        W 7185   4.044   0.500   4.644 -0.0263  0.2349 -0.0417
 3667W        W 7186   4.493   7.510   2.344 -0.1771  0.0933  0.2906
 3668W        W 7187   3.483   9.199   8.222 -0.1912  0.0615 -0.3608
 3669W        W 7188   7.181   0.968   3.364 -0.1839  0.3514 -0.1659
 3670W        W 7189   5.655   9.680   8.463  0.1838 -0.0668 -0.0194
 3671W        W 7190   9.111   0.194  11.583  0.0027  0.0574  0.0798
 3672W        W 7191   3.749   0.720   9.484  0.2132 -0.0566  0.1193
 3673W        W 7192   4.725   6.142   2.613  0.0837 -0.1973  0.3165
 3674W        W 7193   7.821   1.210   8.836 -0.0362 -0.3899 -0.3869
 3675W        W 7194   3.453   2.800  10.688 -0.0502 -0.1030 -0.1067
 3676W        W 7195   9.072   7.738   9.509 -0.1688 -0.0491 -0.4640
 3677W        W 7196   6.494   7.236   0.183 -0.0735  0.3516  0.1080
 3678W        W 7197   1.358   8.572   8.325 -0.0853 -0.1126 -0.0146
 3679W        W 7198   4.156   9.635  10.761 -0.0987 -0.1406 -0.1206
 3680W        W 7199   9.328   2.868  12.226  0.0725 -0.2851  0.1287
 3681W        W 7200   2.262   3.366  12.236  0.1886 -0.0024  0.0075
 3682W        W 7201   2.715   0.946   2.810 -0.1925  0.1736 -0.1143
 3683W        W 7202   6.207   1.451   7.748  0.2277 -0.0405 -0.0348
 3684W        W 7203   6.769   3.871  11.007 -0.1840 -0.0659  0.0100
 3685W        W 7204   5.906   1.992   3.673 -0.0851  0.0848 -0.4191
 3686W        W 7205   0.261   8.917   3.645  0.1898  0.0822 -0.0293
 3687W        W 7206   5.112   9.762  11.469  0.0491  0.1181 -0.0061
 3688W        W 7207   7.337   0.898   1.558 -0.2426 -0.1522  0.0037
 3689W        W 7208   7.176   2.292   2.254 -0.1973  0.1238 -0.0401
 3690W        W 7209   2.833   7.038  11.928  0.2599 -0.0102 -0.4557
 3691W        W 7210   5.143   8.629   9.565 -0.0498 -0.0639  0.0886
 3692W        W 7211   8.699   4.467   9.748  0.0267  0.1305 -0.2262
 3693W        W 7212   4.874   1.559   4.102  0.0291 -0.0407  0.3347
 3694W        W 7213   4.736   7.472   4.309 -0.2973 -0.0197 -0.1059
 3695W        W 7214   3.164   4.236   9.039 -0.0159 -0.2390  0.0951
 3696W        W 7215   3.972   0.737  10.696  0.1289 -0.0753 -0.0313
 3697W        W 7216   1.225   6.100   0.635 -0.0291 -0.4247  0.2072
 3698W        W 7217   1.642   7.933   2.488 -0.1153  0.2118  0.1275
 3699W        W 7218   8.791   6.614   1.780  0.0600  0.3151 -0.0729
 3700W        W 7219   5.412   5.980   2.178 -0.0904 -0.1754  0.2749
 3701W        W 7220   4.926   8.503   0.894  0.1339  0.2274  0.0833
 3702W        W 7221   3.179   5.837   9.386  0.1546 -0.2763 -0.1279
 3703W        W 7222   3.391   3.443   2.023 -0.2868 -0.1180  0.0917
 3704W        W 7223   8.036   5.056   3.261  0.0244 -0.2402  0.3279
 3705W        W 7224   7.172   2.893   9.196  0.0158  0.0177 -0.1185
 3706W        W 7225   5.184   4.369   2.892  0.2784  0.2079  0.2346
 3707W        W 7226   2.966   3.953  10.599  0.4421 -0.0305 -0.2538
 3708W        W 7227   0.010   9.147   0.847 -0.3835  0.0945  0.3263
 3709W        W 7228   0.245   0.718  10.585 -0.1215  0.1465  0.1801
 3710W        W 7229   2.222   2.602   2.354  0.1394 -0.4010 -0.0038
 3711W        W 7230   2.204   9.648   3.435  0.1338  0.0510  0.0802
 3712W        W 7231   7.588   0.001   1.391 -0.0283  0.1047  0.1991
 3713W        W 7232   1.201   9.507   9.414 -0.0957  0.1579 -0.0870
 3714W        W 7233   2.781   0.867  10.810 -0.0128  0.0184  0.2449
 3715W        W 7234   6.433   2.351   0.064 -0.0081 -0.0919  0.0222
 3716W        W 7235   1.385   3.510  10.833 -0.0870 -0.0261  0.0176
 3717W        W 7236   5.201   1.547  10.226  0.0940 -0.1171 -0.0243
 3718W        W 7237   1.661   1.107   8.055  0.1484 -0.1402 -0.1215
 3719W        W 7238   8.924   7.262  11.529 -0.1307  0.0683 -0.1369
 3720W        W 7239   4.947   4.429  10.653 -0.1801 -0.2012 -0.1275
 3721W        W 7240   0.258   4.356   0.151  0.1460  0.0885  0.2574
 3722W        W 7241   8.546   0.270   8.311  0.0856 -0.0718  0.0476
 3723W        W 7242   0.055   9.054   3.139 -0.1363 -0.2694  0.0518
 3724W        W 7243   3.448   4.209   3.745 -0.2559  0.2665 -0.1565
 3725W        W 7244   3.723   3.121  10.497  0.0270 -0.3432  0.0464
 3726W        W 7245   3.369   0.043   9.137 -0.2928 -0.1912 -0.0717
 3727W        W 7246   3.759   7.316   9.794  0.0685 -0.2934 -0.2805
 3728W        W 7247   4.149   8.667   8.191 -0.0576 -0.0239  0.1102
 3729W        W 7248   3.150   6.354   7.941 -0.1671  0.5123 -0.0585
 3730W        W 7249   1.727   4.712   2.386  0.1577 -0.0304 -0.1637
 3731W        W 7250   3.634   9.066   2.534  0.2469 -0.5365 -0.2229
 3732W        W 7251   5.371   4.024   8.475 -0.0453 -0.2704  0.1262
 3733W        W 7252   2.698   2.322   9.749  0.1047 -0.0757  0.3121
 3734W        W 7253   5.544   5.028  11.134 -0.2281 -0.4302 -0.2780
 3735W        W 7254   4.552   1.496   1.558  0.0095  0.1627 -0.1083
 3736W        W 7255   8.549   4.056   0.108 -0.1379  0.1605 -0.4574
 3737W        W 7256   3.432   7.084   1.960 -0.1200  0.1313  0.0642
 3738W        W 7257   2.639   5.168  12.149 -0.0650  0.0534  0.1299
 3739W        W 7258   2.122   5.281  11.900  0.2157  0.3509  0.1666
 3740W        W 7259   1.059   5.687   1.431 -0.2551 -0.1859  0.1317
 3741W        W 7260   6.108   0.011   7.617  0.1030 -0.1975 -0.1203
 3742W        W 7261   4.707   3.552   0.666  0.0629  0.0568 -0.0903
 3743W        W 7262   8.331   1.561   8.679 -0.0699 -0.0783 -0.4232
 3744W        W 7263   7.062   9.611   9.530  0.0145  0.0630 -0.1003
 3745W        W 7264   8.486   2.654   4.185  0.0717  0.4636  0.1008
 3746W        W 7265   8.154   2.400  11.765 -0.4472 -0.2498 -0.0438
 3747W        W 7266   2.387   8.030   8.790  0.1514 -0.1203 -0.3279
 3748W        W 7267   5.475   1.287   0.124  0.2084 -0.1409  0.0846
 3749W        W 7268   0.785   7.061  12.218 -0.1331  0.1584  0.1131
 3750W        W 7269   7.795   1.708   8.764  0.0208 -0.0289 -0.0515
 3751W        W 7270   6.276   3.073   8.399 -0.0748  0.1010  0.2558
 3752W        W 7271   7.335   1.721  12.064 -0.2428 -0.0593 -0.0406
 3753W        W 7272   2.515   1.945  10.104  0.0580  0.1690  0.1812
 3754W        W 7273   6.179   3.386  12.237 -0.0655  0.2594 -0.1716
 3755W        W 7274   2.799   2.831   9.818  0.3950  0.1033  0.0316
 3756W        W 7275   0.969   6.042   1.078 -0.2519 -0.1388  0.0433
 3757W        W 7276   7.097   0.023   9.067  0.2102  0.1073 -0.1611
 3758W        W 7277   1.799   1.815   2.820  0.1253  0.1466 -0.1600
 3759W        W 7278   3.976   4.062  10.790  0.1112  0.0585 -0.2494
 3760W        W 7279   6.131   7.104   1.604 -0.4783 -0.1220 -0.0134
 3761W        W 7280   6.385   6.552   2.830  0.0085 -0.2304 -0.1031
 3762W        W 7281   7.397   4.157  10.378 -0.1154 -0.2327 -0.2385
 3763W        W 7282   0.042   5.895   9.880  0.5614  0.1448  0.1018
 3764W        W 7283   0.652   4.794   9.049  0.3979 -0.2354  0.0356
 3765W        W 7284   7.827   8.583  12.107  0.1113 -0.0653  0.1902
 3766W        W 7285   8.256   1.400   2.143  0.1428  0.1272  0.0170
 3767W        W 7286   5.570   7.184  10.553 -0.1105 -0.4441  0.0311
 3768W        W 7287   3.950   2.885   0.605 -0.0430  0.0680 -0.0395
 3769W        W 7288   8.112   8.802   1.587 -0.1279 -0.1590  0.0010
 3770W        W 7289   6.520   9.071   4.302  0.2122  0.0064 -0.2333
 3771W        W 7290   8.963   9.383   3.811 -0.1513  0.2099  0.0298
 3772W        W 7291   0.631   6.337   0.224 -0.2773 -0.0303  0.3253
 3773W        W 7292   9.432   0.123   4.404  0.0844  0.3103  0.0930
 3774W        W 7293   5.583   2.645   2.437 -0.1410 -0.1597  0.1261
 3775W        W 7294   8.172   2.795   2.491 -0.0161 -0.1106  0.2148
 3776W        W 7295   8.417   2.812  11.051 -0.0301 -0.0378  0.0192
 3777W        W 7296   8.082   8.362  10.259  0.1940  0.2087 -0.3457
 3778W        W 7297   5.845   4.694   8.920  0.1105 -0.0375 -0.1949
 3779W        W 7298   2.536   9.517   2.993  0.0336  0.3014  0.0201
 3780W        W 7299   6.017   0.435   0.475  0.1278 -0.0325 -0.2299
 3781W        W 7300   3.276   0.968   9.024 -0.3334  0.1645 -0.1455
 3782W        W 7301   4.462   2.936  11.773 -0.2218 -0.1997 -0.0591
 3783W        W 7302   7.745   5.031  10.023 -0.2619 -0.0581 -0.1166
 3784W        W 7303   1.160   5.918   2.871  0.0587  0.0516  0.0666
 3785W        W 7304   5.927   1.787  10.883  0.0252  0.0213  0.0035
 3786W        W 7305   2.783   4.940   3.483  0.0743  0.1719 -0.0305
 3787W        W 7306   8.250   0.108  11.790  0.1356 -0.0429  0.1332
 3788W        W 7307   2.826   6.419   9.467 -0.0298 -0.1153 -0.1371
 3789W        W 7308   1.554   1.522  11.263  0.1857  0.1398 -0.2342
 3790W        W 7309   7.790   8.556   1.927  0.2701  0.1480 -0.1124
 3791W        W 7310   4.464   0.610   4.860 -0.0850  0.2658  0.0817
 3792W        W 7311   9.480   0.900   0.751  0.3089 -0.0230 -0.1663
 3793W        W 7312   3.053   5.312  10.710 -0.0718 -0.0544  0.0970
 3794W        W 7313   2.311   7.332   1.524  0.0708 -0.0933 -0.1390
 3795W        W 7314   1.987   4.808   3.062  0.0186 -0.4341 -0.1167
 3796W        W 7315   7.141   5.625   9.827 -0.4156 -0.0790  0.2122
 3797W        W 7316   0.027   0.762   3.593 -0.1963  0.1271 -0.1297
 3798W        W 7317   6.612   7.765   0.947 -0.0614  0.1887  0.2278
 3799W        W 7318   3.410   2.144  11.906 -0.0074 -0.0471 -0.1198
 3800W        W 7319   9.021   0.751   2.427  0.2031  0.2019  0.1198
 3801W        W 7320   3.578   6.187   1.592 -0.1312  0.0313  0.2274
 3802W        W 7321   1.363   7.598   3.730  0.0420  0.1667 -0.0181
 3803W        W 7322   5.323   9.408  11.138  0.2306  0.0982 -0.0527
 3804W        W 7323   4.172   8.194  10.716  0.1958 -0.5393 -0.2221
 3805W        W 7324   3.688   4.402  11.473  0.3487 -0.1331  0.0316
 3806W        W 7325   1.058   7.267  11.343 -0.0628  0.4901 -0.1337
 3807W        W 7326   8.162   5.544   3.025 -0.0344  0.1765  0.0394
 3808W        W 7327   5.245   4.700   9.477 -0.3427 -0.1178  0.1400
 3809W        W 7328   1.204   0.127   1.363 -0.0179  0.1005 -0.0384
 3810W        W 7329   2.805   8.553   1.468 -0.2559  0.0134  0.0629
 3811W        W 7330   1.930   1.303  12.271 -0.2066 -0.1343 -0.0722
 3812W        W 7331   9.445   1.244  11.270  0.0360  0.1103  0.0080
 3813W        W 7332   1.878   3.671  10.749  0.2297 -0.1172 -0.1190
 3814W        W 7333   3.098   5.109   1.347  0.3439  0.0442  0.0877
 3815W        W 7334   7.687   6.337   1.036 -0.2000 -0.2352 -0.0674
 3816W        W 7335   4.537   3.214  11.074 -0.0641  0.1109  0.2171
 3817W        W 7336   6.500   0.110  10.530 -0.0877  0.2325  0.1495
 3818W        W 7337   5.124   4.762   1.503 -0.3502 -0.2300 -0.0681
 3819W        W 7338   5.056   4.920  11.289  0.0151  0.0283  0.0862
 3820W        W 7339   0.049   7.473   2.106 -0.2853  0.0691  0.0700
 3821W        W 7340   5.731   1.993  11.754 -0.0726  0.0530  0.1090
 3822W        W 7341   4.718   3.271   1.578 -0.0988 -0.0635  0.1672
 3823W        W 7342   9.770   1.377  10.877 -0.4668  0.3619  0.2006
 3824W        W 7343   6.757   9.404  11.357 -0.0626 -0.1721  0.1272
 3825W        W 7344   5.827   3.235   9.894 -0.0872 -0.4498 -0.1639
 3826W        W 7345   2.896   1.365  11.770 -0.0553  0.0574  0.2926
 3827W        W 7346   9.473   6.488  11.587  0.0771  0.2952  0.2267
 3828W        W 7347   5.573   4.918   3.135  0.1097  0.1056  0.0022
 3829W        W 7348   8.923   9.212   2.780 -0.0149 -0.0106  0.1074
 3830W        W 7349   4.531   9.453  12.280 -0.0666  0.1435 -0.0109
 3831W        W 7350   7.246   0.242   1.134  0.2890  0.1345 -0.1922
 3832W        W 7351   5.903   5.485   2.837 -0.1490  0.1858  0.1443
 3833W        W 7352   6.604   9.429   0.394  0.1466 -0.2430 -0.1167
 3834W        W 7353   2.821   9.143   9.964 -0.4378  0.2510 -0.0733
 3835W        W 7354   4.219   3.768   0.933  0.0013  0.2481 -0.2016
 3836W        W 7355   9.091   2.630   9.008 -0.2267 -0.1166 -0.1973
 3837W        W 7356   2.639   7.829  11.819 -0.1349 -0.1022 -0.1547
 3838W        W 7357   7.150   4.643   9.349 -0.1190  0.1717 -0.0250
 3839W        W 7358   6.900   9.321   1.911 -0.0968  0.0798  0.1976
 3840W        W 7359   4.985   6.575  10.830  0.0472  0.1130  0.0218
 3841W        W 7360   8.089   4.993  10.995  0.2440 -0.1458  0.0655
 3842W        W 7361   7.876   5.453   1.289 -0.0759 -0.1078  0.1944
 3843W        W 7362   7.094   6.713   9.712 -0.2243 -0.2139  0.0246
 3844W        W 7363   8.961   0.228   1.125 -0.1475 -0.0788  0.3026
 3845W        W 7364   4.181   1.837   4.051 -0.0364 -0.0155  0.3559
 3846W        W 7365   1.556   1.292  11.930  0.1917  0.0268 -0.3653
 3847W        W 7366   9.368   2.841   8.610  0.0435  0.0268 -0.2012
 3848W        W 7367   4.110   5.300   0.786  0.0654  0.0844  0.2004
 3849W        W 7368   8.839   6.830   1.365 -0.4500  0.0993  0.1727
 3850W        W 7369   5.574   8.943   1.783  0.3073 -0.0365 -0.1388
 3851W        W 7370   6.620   4.379   2.344  0.1950 -0.0735 -0.0213
 3852W        W 7371   4.779   9.055   0.108 -0.0977  0.1359 -0.0822
 3853W        W 7372   9.638   1.650   9.436  0.2594 -0.2297  0.2717
 3854W        W 7373   1.316   0.132   8.053  0.1848 -0.1561 -0.2346
 3855W        W 7374   4.306   5.479   2.318 -0.2434 -0.0586  0.2895
 3856W        W 7375   3.585   4.694   3.002  0.0291 -0.0304  0.2369
 3857W        W 7376   7.128   4.626   3.556  0.0502 -0.1729 -0.1362
 3858W        W 7377   8.792   3.560   1.604  0.2266  0.3151 -0.0372
 3859W        W 7378   8.605   2.409  11.344 -0.1176 -0.0427 -0.0549
 3860W        W 7379   2.979   1.633   3.262 -0.1015  0.0016 -0.0161
 3861W        W 7380   8.113   0.356  10.522 -0.1775  0.1126  0.0002
 3862W        W 7381   4.600   7.787   4.651 -0.6722  0.3772  0.0573
 3863W        W 7382   1.655   9.394   9.213 -0.0743 -0.2982  0.0404
 3864W        W 7383   1.166   9.049  11.473  0.2760 -0.0863 -0.2803
 3865W        W 7384   7.773   5.883   2.984 -0.0138  0.1077 -0.1393
 3866W        W 7385   3.686   4.980   9.665 -0.0889  0.1451 -0.0101
 3867W        W 7386   4.729   3.968   0.913 -0.0101  0.0872 -0.1329
 3868W        W 7387   0.140   5.539   9.478 -0.3781  0.2868  0.0907
 3869W        W 7388   4.704   9.314   2.959 -0.2108  0.1149 -0.0919
 3870W        W 7389   4.421   2.865   0.320 -0.1876 -0.4662 -0.1779
 3871W        W 7390   0.321   9.488   2.296 -0.1250  0.0528 -0.0051
 3872W        W 7391   5.137   7.914   0.035  0.2722 -0.1393 -0.0393
 3873W        W 7392   2.094   9.601   9.421  0.0357 -0.0917  0.3009
 3874W        W 7393   0.962   0.593   8.075 -0.2051  0.2600  0.1055
 3875W        W 7394   2.412   0.671  10.064 -0.1067 -0.1648 -0.0948
 3876W        W 7395   5.951   2.263   4.128 -0.0349  0.2235 -0.2488
 3877W        W 7396   9.532   3.413   3.783  0.1411 -0.1083 -0.2413
 3878W        W 7397   0.091   5.712   0.024 -0.0345  0.0498 -0.0958
 3879W        W 7398   4.921   0.613  11.899  0.1079  0.0589  0.1482
 3880W        W 7399   1.694   5.498  11.723 -0.0794  0.3046 -0.1606
 3881W        W 7400   5.514   4.531   8.555  0.3631  0.1165 -0.3217
 3882W        W 7401   5.343   6.852   3.809  0.1240  0.0517  0.1827
 3883W        W 7402   7.038   8.762   2.141 -0.2352  0.0748  0.1257
 3884W        W 7403   3.887   4.250   4.014  0.0512  0.0013 -0.1560
 3885W        W 7404   7.843   6.597   2.154  0.0382  0.1912 -0.2372
 3886W        W 7405   1.633   2.957   3.909 -0.0088 -0.3758  0.0920
 3887W        W 7406   7.067   9.423  10.018  0.1619  0.0233  0.2566
 3888W        W 7407   0.318   6.821   9.155  0.2012 -0.1406 -0.1713
 3889W        W 7408   0.684   7.297   2.629  0.1346 -0.1628 -0.1825
 3890W        W 7409   5.642   7.163   1.845  0.1904  0.3887 -0.3452
 3891W        W 7410   9.281   6.775  11.936  0.2337 -0.0518  0.1527
 3892W        W 7411   5.137   4.548   1.932 -0.1923  0.2247  0.3219
 3893W        W 7412   4.497   1.604   3.729 -0.0661  0.2507 -0.1706
 3894W        W 7413   0.851   8.985   9.209  0.1708 -0.0633  0.0529
 3895W        W 7414   3.372   9.560   1.743 -0.0700 -0.3996  0.1973
 3896W        W 7415   4.632   1.559  10.517 -0.1223 -0.0269 -0.3403
 3897W        W 7416   7.321   8.851   0.934 -0.0974 -0.0347 -0.2171
 3898W        W 7417   2.387   2.021   4.287 -0.1247 -0.1203  0.2333
 3899W        W 7418   7.377   1.300   1.178 -0.2081 -0.0731  0.4099
 3900W        W 7419   3.739   9.443   8.672  0.1179  0.3293 -0.2823
 3901W        W 7420   2.069   2.211  10.913 -0.0772  0.0002  0.2704
 3902W        W 7421   3.286   2.054   1.913 -0.1714  0.2064 -0.1541
 3903W        W 7422   9.254   3.261   1.525  0.2901 -0.0620  0.0869
 3904W        W 7423   5.053   5.412  11.994  0.0927  0.0654  0.0138
 3905W        W 7424   4.523   8.700   3.518 -0.0987 -0.4653 -0.0024
 3906W        W 7425   4.525   0.185   8.762  0.3652 -0.3944  0.0185
 3907W        W 7426   2.861   7.402   0.616  0.1716  0.1442 -0.0406
 3908W        W 7427   5.833   0.924   8.497  0.1888 -0.0272 -0.0637
 3909W        W 7428   2.238   7.620  10.966 -0.0723  0.0242 -0.2459
 3910W        W 7429   3.199   3.939   9.419  0.3335 -0.1667 -0.0199
 3911W        W 7430   5.904   7.509   0.814  0.1836 -0.0059 -0.1643
 3912W        W 7431   3.053   6.473   0.586 -0.2443 -0.1088  0.1348
 3913W        W 7432   6.963   8.108   2.172  0.2470 -0.0124 -0.0213
 3914W        W 7433   5.411   5.260   2.721  0.0837  0.0991 -0.4916
 3915W        W 7434   1.793   9.475   8.702 -0.0790  0.0521 -0.0317
 3916W        W 7435   6.648   0.618  10.616 -0.4553 -0.2426 -0.0572
 3917W        W 7436   5.699   7.537  12.207 -0.4515 -0.1131  0.1838
 3918W        W 7437   5.608   9.000   0.505 -0.0939  0.0488 -0.1580
 3919W        W 7438   3.530   7.685   9.482  0.1734 -0.0353 -0.2070
 3920W        W 7439   5.661   9.756   2.121  0.2390  0.0378 -0.0336
 3921W        W 7440   7.460   5.690   1.136  0.1162 -0.0130 -0.1955
 3922W        W 7441   2.904   5.157   1.856 -0.0971  0.1349  0.4999
 3923W        W 7442   0.280   1.551   1.772  0.2578  0.0661 -0.2023
 3924W        W 7443   3.615   0.755   1.947 -0.1350  0.0615 -0.0617
 3925W        W 7444   3.258   6.023  11.822  0.0820  0.0746  0.2151
 3926W        W 7445   7.120   6.536   2.726 -0.1008 -0.1724 -0.0252
 3927W        W 7446   3.503   1.725   9.652 -0.2272  0.0469 -0.0942
 3928W        W 7447   0.185   1.308   2.498 -0.0335 -0.1680  0.2372
 3929W        W 7448   6.449   9.081   1.747  0.1414  0.1153 -0.2210
 3930W        W 7449   3.675   2.971   7.688 -0.0762  0.0663  0.0623
 3931W        W 7450   9.776   3.888   3.618  0.0684 -0.0757  0.2082
 3932W        W 7451   6.194   0.681   0.862  0.1695  0.1620  0.1626
 3933W        W 7452   9.387   5.340   3.123  0.1430  0.0835 -0.0681
 3934W        W 7453   6.183   4.416   9.630  0.0685  0.1451 -0.1046
 3935W        W 7454   9.754   5.719  10.551 -0.3943  0.3019  0.0169
 3936W        W 7455   4.633   1.864   0.108 -0.1673 -0.2710 -0.1427
 3937W        W 7456   3.936   2.943   3.652  0.0642 -0.0351  0.2643
 3938W        W 7457   6.451   7.090   9.019 -0.0691  0.0286  0.0426
 3939W        W 7458   3.880   1.763   3.657 -0.1249  0.0681  0.2887
 3940W        W 7459   8.238   3.800   2.827 -0.0969  0.1663 -0.3406
 3941W        W 7460   5.810   2.826   9.588  0.0513 -0.1989  0.1283
 3942W        W 7461   5.025   5.427   3.104 -0.0593 -0.2649 -0.0824
 3943W        W 7462   1.147   2.980   0.500 -0.0503  0.1300  0.1163
 3944W        W 7463   4.526   6.977   3.626  0.0426  0.0150  0.0029
 3945W        W 7464   0.324   5.699   0.645  0.1334 -0.2923  0.1986
 3946W        W 7465   6.479   2.644   0.490 -0.2062 -0.0261 -0.1617
 3947W        W 7466   4.271   6.013   2.768 -0.0771  0.0982 -0.0291
 3948W        W 7467   5.168   0.079  10.963  0.1535  0.5751  0.1152
 3949W        W 7468   5.119   9.321  10.686 -0.0110  0.0994  0.1271
 3950W        W 7469   8.964   7.075   2.077 -0.1470 -0.0050  0.0542
 3951W        W 7470   3.279   1.478  10.814 -0.0768 -0.1616  0.0199
 3952W        W 7471   5.095   9.445   9.090 -0.0019  0.2575 -0.0593
 3953W        W 7472   3.643   3.842   0.866  0.0373  0.0294  0.4662
 3954W        W 7473   5.178   6.437   3.455  0.0715  0.0551 -0.0541
 3955W        W 7474   0.248   7.979   3.783  0.2665  0.2031  0.0155
 3956W        W 7475   5.042   1.267   0.562  0.1070  0.0841  0.0692
 3957W        W 7476   8.709   7.499  11.948 -0.2237 -0.3221 -0.0572
 3958W        W 7477   7.398   4.644  10.234 -0.2810  0.0170 -0.2109
 3959W        W 7478   8.757   5.771  10.687  0.0087 -0.0050 -0.2971
 3960W        W 7479   1.375   5.798  11.975 -0.0540 -0.1969  0.1165
 3961W        W 7480   6.022   6.060  10.631 -0.2028 -0.5607 -0.2181
 3962W        W 7481   6.025   6.333  11.757 -0.0706  0.1028 -0.1952
 3963W        W 7482   1.736   8.326   1.590  0.0216 -0.0418  0.0762
 3964W        W 7483   3.965   0.427  11.650  0.3317  0.5558  0.0937
 3965W        W 7484   7.561   7.089   1.803  0.3898 -0.0235 -0.3732
 3966W        W 7485   8.766   9.425  10.187  0.1390  0.1001 -0.2159
 3967W        W 7486   8.631   2.521   1.178  0.1088  0.0153 -0.0615
 3968W        W 7487   3.222   3.261  10.256  0.3304  0.5110  0.1213
 3969W        W 7488   7.595   5.303   4.096 -0.0288  0.0103  0.2288
 3970W        W 7489   7.031   7.913   8.943 -0.2162  0.1475  0.1670
 3971W        W 7490   8.253   3.893   2.374 -0.0834  0.0269 -0.3869
 3972W        W 7491   3.853   7.329   2.161 -0.0397 -0.2960  0.2699
 3973W        W 7492   9.232   3.424  12.169  0.1446 -0.5010  0.1288
 3974W        W 7493   6.349   7.698   4.516 -0.0452 -0.2490 -0.1445
 3975W        W 7494   1.761   5.229  10.199 -0.2509 -0.0080 -0.0640
 3976W        W 7495   2.092   7.071   3.390  0.0850 -0.0040 -0.1296
 3977W        W 7496   2.058   5.855   2.839  0.2708  0.0402 -0.0485
 3978W        W 7497   3.103   7.748   2.978  0.2428 -0.1877  0.0545
 3979W        W 7498   4.976   5.428   9.885  0.0873 -0.1055  0.2048
 3980W        W 7499   1.411   2.714  10.674 -0.2120  0.2213  0.0512
 3981W        W 7500   1.216   6.177  11.421 -0.0036  0.3600  0.3666
 3982W        W 7501   7.652   2.961   2.602  0.1525  0.1407 -0.2414
 3983W        W 7502   4.083   0.254   1.141 -0.3921  0.3158  0.0047
 3984W        W 7503   4.169   9.300  10.338 -0.2583 -0.2076  0.0247
 3985W        W 7504   4.342   4.231   0.013  0.0500 -0.1484  0.2332
 3986W        W 7505   8.528   5.488  11.112  0.1013  0.2042  0.2510
 3987W        W 7506   9.729   1.763  11.457  0.4236  0.0839 -0.0748
 3988W        W 7507   3.638   9.331  11.582  0.3483 -0.0351 -0.0624
 3989W        W 7508   8.024   6.012   4.770  0.2183 -0.2595 -0.2441
 3990W        W 7509   3.314   8.925  10.157 -0.2760  0.0556  0.0496
 3991W        W 7510   4.074   4.882   4.442 -0.0716  0.1403  0.0965
 3992W        W 7511   0.171   2.718   7.759  0.2395  0.1870  0.0623
 3993W        W 7512   6.484   8.866   0.303  0.1557  0.1304  0.3285
 3994W        W 7513   8.831   0.954   4.216 -0.0739  0.0131 -0.1696
 3995W        W 7514   2.512   4.121   1.059 -0.1630 -0.1781 -0.0221
 3996W        W 7515   4.210   8.311  11.237 -0.0019  0.1952  0.2250
 3997W        W 7516   7.612   7.605   1.791 -0.1113 -0.1224  0.0722
 3998W        W 7517   2.494   5.630  12.027  0.2957 -0.2119 -0.0151
 3999W        W 7518   6.511   1.441   1.728 -0.1238  0.0512  0.1084
 4000W        W 7519   9.551   9.547   9.238  0.0478 -0.2073 -0.3388
 4001W        W 7520   9.722   4.008   2.577  0.0327 -0.1128 -0.1854
 4002W        W 7521   9.069   1.192   0.761 -0.1459  0.0795  0.0060
 4003W        W 7522   1.793   9.272   1.826  0.0105 -0.0632 -0.2027
 4004W        W 7523   6.241   4.361   0.687 -0.3040 -0.1463 -0.1978
 4005W        W 7524   7.416   0.016  10.728  0.0819  0.1512 -0.0798
 4006W        W 7525   8.236   4.903  10.461  0.0734  0.1108 -0.2009
 4007W        W 7526   8.611   8.440   9.471 -0.2323 -0.3323  0.2182
 4008W        W 7527   3.637   5.092   4.350 -0.0838 -0.0499  0.3401
 4009W        W 7528   3.788   2.382   1.039 -0.1377  0.1140  0.0070
 4010W        W 7529   0.109   0.943   4.197 -0.2812 -0.0232 -0.0252
 4011W        W 7530   7.793   3.847   0.587  0.0977 -0.2349  0.0128
 4012W        W 7531   3.760   9.651   8.213  0.1617 -0.0311 -0.0243
 4013W        W 7532   5.108   0.401   3.531 -0.2346 -0.2078  0.0044
 4014W        W 7533   8.939   8.610   0.871 -0.0900 -0.2517  0.3967
 4015W        W 7534   6.343   4.583  10.249 -0.1132  0.3071  0.1350
 4016W        W 7535   7.918   2.663   1.149  0.2436 -0.3327  0.0605
 4017W        W 7536   4.820   9.591   8.718  0.2199 -0.3226  0.1302
 4018W        W 7537   1.216   5.351   3.448 -0.0173  0.2418  0.1041
 4019W        W 7538   6.863   1.192   1.474  0.1164  0.0419  0.1451
 4020W        W 7539   8.809   1.852   9.578  0.2914 -0.1882 -0.1253
 4021W        W 7540   2.993   0.002   9.990 -0.0475 -0.0716  0.3297
 4022W        W 7541   6.321   2.446   1.941 -0.0159 -0.0880 -0.1292
 4023W        W 7542   3.472   1.504   2.881 -0.0321  0.1619 -0.1842
 4024W        W 7543   8.003   8.670   1.036 -0.4325 -0.0468  0.0615
 4025W        W 7544   2.052   1.041   0.438  0.2438 -0.0357 -0.0904
 4026W        W 7545   0.021   6.651  10.296 -0.1020 -0.1649 -0.0404
 4027W        W 7546   1.245   0.244   2.351  0.0749  0.0441  0.1156
 4028W        W 7547   1.152   7.013   0.852 -0.4202  0.1918 -0.1508
 4029W        W 7548   4.113   6.624  10.331  0.0724 -0.2019  0.2780
 4030W        W 7549   6.794   7.127  10.026  0.0118 -0.3526 -0.0683
 4031W        W 7550   3.831   8.133  12.020 -0.4295 -0.0616 -0.0474
 4032W        W 7551   6.950   7.948  10.224 -0.0484 -0.1027  0.2324
 4033W        W 7552   7.516   1.241   9.675  0.0120  0.4417  0.0701
 4034W        W 7553   8.995   6.971   3.468  0.3700 -0.2057  0.1169
 4035W        W 7554   9.616   0.241   9.393  0.0284 -0.2062  0.5688
 4036W        W 7555   8.028   3.658   1.477 -0.1787  0.1697  0.2794
 4037W        W 7556   7.545   4.998  11.795  0.1299 -0.0298  0.0101
 4038W        W 7557   7.265   2.404   8.368 -0.0819 -0.0267  0.1618
 4039W        W 7558   2.694   1.689   4.521 -0.0250  0.0452 -0.0339
 4040W        W 7559   4.880   1.401   9.081  0.0025  0.0620 -0.2807
 4041W        W 7560   2.723   7.265   1.065  0.0968  0.3384  0.1157
 4042W        W 7561   2.884   0.614   3.875 -0.1395  0.3077 -0.3842
 4043W        W 7562   3.269   6.194   3.614 -0.2285  0.2808 -0.2132
 4044W        W 7563   5.570   9.406   3.847 -0.0631  0.1132  0.1152
 4045W        W 7564   0.346   9.149  10.768 -0.0386 -0.0348  0.0235
 4046W        W 7565   9.068   3.617   2.829 -0.3321  0.3007 -0.0826
 4047W        W 7566   9.182   1.171   2.732 -0.1109  0.1437 -0.4357
 4048W        W 7567   5.428   9.030   9.218 -0.0448 -0.1066  0.0049
 4049W        W 7568   9.549   0.485   0.445  0.2917  0.1039 -0.0168
 4050W        W 7569   8.035   7.043   0.082  0.0965 -0.2452  0.0221
 4051W        W 7570   3.266   7.245   9.562 -0.0538  0.0702 -0.0288
 4052W        W 7571   8.999   9.118  10.818 -0.1838 -0.1039  0.3136
 4053W        W 7572   8.110   3.022  12.177 -0.1130  0.1126  0.0033
 4054W        W 7573   1.814   6.935   2.053 -0.1030 -0.1529 -0.0356
 4055W        W 7574   4.658   3.425   2.566 -0.0188  0.2556  0.4426
 4056W        W 7575   9.267   9.493  11.037 -0.0453  0.0885 -0.3990
 4057W        W 7576   0.328   5.812  11.905 -0.0290  0.1262 -0.2092
 4058W        W 7577   2.349   7.431  11.902  0.0427 -0.3404 -0.1320
 4059W        W 7578   5.862   2.931  10.787  0.4833 -0.4048  0.1252
 4060W        W 7579   5.140   8.205   3.837  0.3714  0.3073  0.1391
 4061W        W 7580   9.100   1.982   8.408 -0.2094  0.0347 -0.1478
 4062W        W 7581   4.895   0.181   8.347 -0.1221  0.3820  0.1937
 4063W        W 7582   5.084   3.352  10.779 -0.0573  0.0004  0.0762
 4064W        W 7583   6.961   7.662   4.248  0.0934  0.1032 -0.0989
 4065W        W 7584   6.840   2.111  10.629  0.1922  0.0312 -0.2465
 4066W        W 7585   3.563   2.454   1.920 -0.0168 -0.0432 -0.0825
 4067W        W 7586   2.102   8.922   0.296 -0.2123  0.0312  0.1703
 4068W        W 7587   0.831   8.541   9.592 -0.2053 -0.0951 -0.1680
 4069W        W 7588   6.480   4.414   3.082  0.0196  0.1128 -0.1443
 4070W        W 7589   5.760   3.983   1.310  0.0615 -0.0636 -0.1683
 4071W        W 7590   9.528   8.610   4.225 -0.0064  0.0781 -0.0094
 4072W        W 7591   2.869   5.848   2.817 -0.1148 -0.0304 -0.1578
 4073W        W 7592   2.140   1.253   9.744  0.0092  0.1214  0.2552
 4074W        W 7593   0.735   6.869  11.485  0.2549 -0.2611  0.1276
 4075W        W 7594   8.365   0.637   2.872  0.1202  0.1718  0.3654
 4076W        W 7595   3.961   6.230   9.189  0.0157 -0.1365  0.0330
 4077W        W 7596   3.030   7.001   2.297  0.1111 -0.0435  0.1068
 4078W        W 7597   4.321   8.838   0.872  0.0930  0.0637 -0.1916
 4079W        W 7598   0.195   9.169   1.828  0.1861  0.2972  0.2515
 4080W        W 7599   5.224   1.454   8.678 -0.0593 -0.1148  0.0973
 4081W        W 7600   1.310   7.865   1.017 -0.1434  0.2046  0.0240
 4082W        W 7601   1.123   2.304  10.864  0.0026  0.1236 -0.0051
 4083W        W 7602   0.285   6.354   9.399 -0.1778 -0.1904  0.1740
 4084W        W 7603   8.748   7.957   4.159 -0.2981  0.2317 -0.0231
 4085W        W 7604   2.926   5.532  11.160 -0.1327 -0.2004  0.0190
 4086W        W 7605   0.866   2.142  11.760 -0.1996  0.1308  0.0088
 4087W        W 7606   4.410   0.235  10.338  0.1424 -0.0573 -0.2398
 4088W        W 7607   0.013   4.110   9.291 -0.4009  0.0869 -0.4502
 4089W        W 7608   0.231   2.882  10.305  0.5886 -0.1547 -0.0142
 4090W        W 7609   3.126   6.661   3.786  0.4773 -0.1644 -0.2908
 4091W        W 7610   6.970   6.503  10.677  0.1750 -0.1443 -0.0811
 4092W        W 7611   2.462   0.082   2.568 -0.4666  0.0523 -0.0869
 4093W        W 7612   9.763   7.145   0.292 -0.0281 -0.0231 -0.3072
 4094W        W 7613   8.470   0.818   9.696 -0.2135 -0.2909  0.2798
 4095W        W 7614   9.274   6.517   1.984  0.1507 -0.1028 -0.0342
 4096W        W 7615   5.601   6.074   9.541 -0.0718 -0.1000  0.2379
 4097W        W 7616   9.158   6.816   3.019  0.2344  0.0845 -0.3144
 4098W        W 7617   7.751   5.871  11.743  0.3759  0.1557 -0.2988
 4099W        W 7618   7.746   4.917   8.769 -0.0063  0.1915 -0.2574
 4100W        W 7619   3.823   8.811  10.374  0.3675  0.3417  0.1504
 4101W        W 7620   0.146   4.744  11.429  0.0994 -0.1898  0.0082
 4102W        W 7621   9.540   0.992  10.603  0.0773  0.1894 -0.1223
 4103W        W 7622   9.147   0.092   9.464  0.2417 -0.0308  0.3439
 4104W        W 7623   7.735   7.432  10.180 -0.3154  0.1556 -0.2078
 4105W        W 7624   8.442   5.553   3.553 -0.0482  0.0294 -0.1734
 4106W        W 7625   1.909   4.047   9.017  0.2580  0.2984  0.1700
 4107W        W 7626   2.932   0.160   2.257  0.0019  0.0990 -0.1416
 4108W        W 7627   8.351   9.159  10.177 -0.2219  0.0298 -0.0631
 4109W        W 7628   1.451   1.044   8.843 -0.2983  0.3900  0.0173
 4110W        W 7629   4.979   4.246  11.160 -0.3087 -0.3683  0.4762
 4111W        W 7630   8.198   3.337   7.672  0.3076  0.0643 -0.2495
 4112W        W 7631   4.701   7.788   9.881 -0.0956  0.0120  0.0087
 4113W        W 7632   3.559   2.024   2.777 -0.2068  0.0973  0.1986
 4114W        W 7633   1.091   8.826   3.897  0.1028 -0.0376 -0.3014
 4115W        W 7634   2.708   3.017  10.476 -0.1504  0.1150  0.3247
 4116W        W 7635   4.841   1.038   8.678 -0.4024  0.0329 -0.3485
 4117W        W 7636   1.347   5.609   1.898 -0.0497  0.3455 -0.1657
 4118W        W 7637   5.240   7.798   3.449  0.0110  0.1810 -0.2992
 4119W        W 7638   3.558   1.193   1.675  0.4955 -0.0621 -0.2100
 4120W        W 7639   4.221   0.954   1.734 -0.0082 -0.0692 -0.0523
 4121W        W 7640   2.984   4.189   0.123 -0.2558  0.3477 -0.0438
 4122W        W 7641   7.469   8.124   3.697  0.3019 -0.0531  0.4267
 4123W        W 7642   5.660   5.473   4.548  0.1076 -0.0901  0.0808
 4124W        W 7643   2.921   7.854   0.269 -0.1725  0.1043  0.2271
 4125W        W 7644   7.933   8.137   9.000  0.0182 -0.2392 -0.3988
 4126W        W 7645   3.859   7.058   8.872  0.2315  0.1730 -0.0177
 4127W        W 7646   5.055   5.573   1.187 -0.0127  0.1368 -0.0151
 4128W        W 7647   8.414   5.079  11.461 -0.1449  0.2176 -0.0207
 4129W        W 7648   9.548   7.040   2.713 -0.1253 -0.2003  0.0331
 4130W        W 7649   9.106   0.902  11.041 -0.1079 -0.0905  0.0188
 4131W        W 7650   1.843   9.781  11.040  0.0448 -0.2207 -0.1562
 4132W        W 7651   5.259   1.843   2.121  0.1368  0.0392  0.0024
 4133W        W 7652   6.804   0.889  11.693  0.0487  0.0447  0.4855
 4134W        W 7653   2.378   7.057  11.016 -0.0488 -0.0262  0.1130
 4135W        W 7654   9.636   0.638   9.014 -0.1956  0.0578 -0.0253
 4136W        W 7655   9.664   4.623   9.491 -0.0571  0.0956 -0.0651
 4137W        W 7656   9.273   8.793   2.737 -0.2625  0.0627  0.0361
 4138W        W 7657   0.500   0.622   4.198 -0.1846  0.0640  0.1655
 4139W        W 7658   5.453   7.919   2.372 -0.2350  0.1810  0.0811
 4140W        W 7659   7.413   1.800   1.234 -0.1544  0.2095 -0.1274
 4141W        W 7660   9.242   4.526   3.039  0.0779  0.0912  0.1719
 4142W        W 7661   3.113   4.453   9.487 -0.0187  0.0048 -0.0349
 4143W        W 7662   6.405   6.398   0.536 -0.0843  0.3680 -0.4181
 4144W        W 7663   1.176   8.242  11.584 -0.3219  0.2236 -0.0044
 4145W        W 7664   3.414   3.444   8.552  0.0657  0.0495  0.1896
 4146W        W 7665   9.040   4.225   0.033  0.1084 -0.1370  0.1248
 4147W        W 7666   2.883   3.469   0.750 -0.0544  0.2053 -0.3305
 4148W        W 7667   4.331   7.782  11.291  0.0407  0.1319  0.0964
 4149W        W 7668   3.624   9.011   9.027  0.2018 -0.1335  0.0036
 4150W        W 7669   5.598   1.433   1.386 -0.1386 -0.2798  0.2210
 4151W        W 7670   1.913   0.713   1.254 -0.0318  0.2207 -0.0432
 4152W        W 7671   7.654   0.399  10.226  0.1797  0.1154 -0.1262
 4153W        W 7672   1.939   0.143   8.946 -0.4890  0.1005 -0.1305
 4154W        W 7673   3.469   4.226  12.257 -0.0892  0.0244 -0.3299
 4155W        W 7674   6.286   4.714   9.177  0.2349 -0.0347 -0.1263
 4156W        W 7675   4.352   7.608  10.202  0.3034 -0.1506 -0.0458
 4157W        W 7676   5.022   6.397  11.325 -0.0498 -0.1193 -0.1628
 4158W        W 7677   2.245   7.183   9.205  0.4363 -0.0909  0.0333
 4159W        W 7678   0.009   5.425  11.911 -0.0088  0.1045  0.0857
 4160W        W 7679   5.946   9.726   2.661  0.1522 -0.0729  0.0238
 4161W        W 7680   5.338   9.770   3.302 -0.0909 -0.0927 -0.0110
 4162W        W 7681   2.008   2.409   2.997 -0.0482  0.0704 -0.2431
 4163W        W 7682   1.484   2.271   1.079  0.0403  0.0255 -0.0016
 4164W        W 7683   1.459   5.191   8.388  0.1058  0.0728  0.0822
 4165W        W 7684   1.724   4.547   8.989  0.3057  0.1667  0.3246
 4166W        W 7685   3.088   1.182   3.189 -0.0114  0.1311  0.1184
 4167W        W 7686   6.465   4.964   2.875  0.0169  0.0762  0.1997
 4168W        W 7687   9.568   0.157  11.705 -0.0282  0.2403 -0.0334
 4169W        W 7688   5.601   4.998   8.392 -0.4707  0.2271 -0.0047
 4170W        W 7689   8.122   2.376   1.904 -0.0518 -0.2789 -0.1257
 4171W        W 7690   1.064   8.877   2.278 -0.2737  0.1822 -0.1333
 4172W        W 7691   2.236   6.735  10.633 -0.0412  0.0017  0.3013
 4173W        W 7692   4.942   7.060   9.204  0.0922  0.0259 -0.0590
 4174W        W 7693   5.643   2.281  10.783  0.3258  0.1945  0.3644
 4175W        W 7694   1.102   1.222   9.270 -0.1323  0.0699 -0.0739
 4176W        W 7695   4.929   1.830   8.864  0.0029 -0.0241  0.1697
 4177W        W 7696   3.880   9.678   1.958  0.2028  0.0722  0.4850
 4178W        W 7697   1.532   7.421   9.730 -0.2013  0.2891 -0.2263
 4179W        W 7698   1.988   0.331   2.511 -0.1655 -0.0313 -0.0178
 4180W        W 7699   2.753   9.671   3.430 -0.1819 -0.0010 -0.1342
 4181W        W 7700   5.669   1.505   9.094  0.3907 -0.3208 -0.1325
 4182W        W 7701   9.656   9.526   3.256  0.1563  0.1462 -0.0660
 4183W        W 7702   1.371   6.175   1.795 -0.1233 -0.1626 -0.0382
 4184W        W 7703   1.267   9.336  10.515  0.0350  0.0873  0.1041
 4185W        W 7704   2.444   4.836   1.898  0.2742 -0.2619  0.1727
 4186W        W 7705   4.549   0.738   8.954  0.0668 -0.0249  0.0019
 4187W        W 7706   1.100   3.749  12.013  0.0090  0.0044 -0.0193
 4188W        W 7707   2.242   1.351  11.187  0.5514 -0.1639  0.2386
 4189W        W 7708   5.380   3.261   9.683 -0.1293  0.1588  0.4005
 4190W        W 7709   3.300   1.964   0.046  0.1348 -0.2473 -0.1187
 4191W        W 7710   7.398   7.321   4.128 -0.0221 -0.0266 -0.0985
 4192W        W 7711   3.421   7.832  11.754 -0.0532 -0.0186  0.0182
 4193W        W 7712   7.886   2.117   3.675 -0.1918 -0.1055  0.0642
 4194W        W 7713   0.575   7.800   0.461 -0.4050  0.3005 -0.3492
 4195W        W 7714   9.065   6.526   0.930  0.0924 -0.1464  0.1323
 4196W        W 7715   3.400   9.760   3.410  0.1565 -0.1468 -0.0635
 4197W        W 7716   7.730   3.805   1.956 -0.1467  0.1831 -0.1502
 4198W        W 7717   8.236   5.740   0.571  0.0993  0.1779 -0.0985
 4199W        W 7718   9.186   0.309   3.248  0.0107 -0.0193 -0.0652
 4200W        W 7719   3.164   7.521   1.346 -0.0080  0.2127 -0.0546
 4201W        W 7720   9.671   5.122   9.433  0.0781  0.2397  0.0837
 4202W        W 7721   7.315   3.212   8.333 -0.3251 -0.0527  0.2392
 4203W        W 7722   1.778   5.200   0.444 -0.2290 -0.1592  0.0045
 4204W        W 7723   0.021   7.548   1.617  0.0779  0.0050  0.1970
 4205W        W 7724   5.255   0.845   2.985 -0.1064  0.1037 -0.0491
 4206W        W 7725   3.660   0.404   2.860  0.2243  0.3687  0.3994
 4207W        W 7726   6.315   1.338  12.253  0.0254 -0.0588  0.2840
 4208W        W 7727   8.861   6.606  11.583  0.0014  0.0241 -0.2511
 4209W        W 7728   7.310   2.782   0.762 -0.0359 -0.3316  0.1614
 4210W        W 7729   7.348   0.095   2.852 -0.1175  0.1973  0.2594
 4211W        W 7730   6.206   6.341   2.370  0.0735  0.0828 -0.2751
 4212W        W 7731   1.671   4.179   2.046 -0.1672  0.2581  0.2278
 4213W        W 7732   1.408   3.174  10.463 -0.1423  0.2599  0.2711
 4214W        W 7733   4.654   1.694  11.044  0.1544  0.3174 -0.3763
 4215W        W 7734   7.396   7.098   9.922  0.0623  0.1758  0.0133
 4216W        W 7735   3.682   9.339   0.755  0.1407 -0.0112 -0.1161
 4217W        W 7736   7.359   2.016   1.653 -0.3262 -0.1777 -0.0086
 4218W        W 7737   9.219   1.472   1.710  0.0850 -0.4255  0.2088
 4219W        W 7738   9.336   0.772  10.162 -0.0336 -0.0789 -0.1571
 4220W        W 7739   0.721   1.045   1.824 -0.3677 -0.1121 -0.3434
 4221W        W 7740   3.333   0.680   1.601  0.1102  0.0441  0.1829
 4222W        W 7741   5.222   5.812   8.637 -0.2003  0.0228  0.0074
 4223W        W 7742   9.145   8.296   9.541 -0.2046 -0.2385 -0.1514
 4224W        W 7743   1.549   9.226   3.238 -0.0507  0.1009  0.0331
 4225W        W 7744   4.849   0.520   7.552  0.0057 -0.0207  0.0044
 4226W        W 7745   8.678   5.020   9.648  0.0053  0.0683 -0.0576
 4227W        W 7746   8.324   3.812   9.395 -0.1904 -0.3139  0.3456
 4228W        W 7747   0.836   5.307   0.086  0.0679 -0.0459  0.1117
 4229W        W 7748   0.892   1.911   2.822  0.0477  0.0384 -0.3044
 4230W        W 7749   8.038   6.634  11.569 -0.0884  0.2447 -0.1473
 4231W        W 7750   2.354   3.496   1.690 -0.2815  0.0165  0.2748
 4232W        W 7751   7.175   6.127   3.069 -0.0337 -0.2039 -0.0770
 4233W        W 7752   2.698   5.503   3.456 -0.2086 -0.1849 -0.1057
 4234W        W 7753   0.910   3.535   8.594 -0.4058  0.4476  0.1709
 4235W        W 7754   8.634   3.665   3.113 -0.0105  0.1226  0.0784
 4236W        W 7755   0.539   5.145   8.666 -0.1697 -0.0154 -0.1166
 4237W        W 7756   5.509   1.628  11.053 -0.0616  0.4667  0.2711
 4238W        W 7757   9.468   3.326   3.023  0.3484  0.3483  0.1041
 4239W        W 7758   0.219   3.512  11.872 -0.0833 -0.1536  0.3299
 4240W        W 7759   2.477   0.497  12.110  0.0577 -0.1964 -0.0813
 4241W        W 7760   3.856   6.558   8.602 -0.0079  0.1706 -0.2512
 4242W        W 7761   2.636   3.951   3.512  0.1948  0.3354  0.2421
 4243W        W 7762   3.537   2.993   2.113  0.0763  0.1713  0.3331
 4244W        W 7763   8.845   8.974   1.541 -0.0639 -0.0822  0.0259
 4245W        W 7764   1.230   8.885   0.892 -0.4219  0.0746 -0.0349
 4246W        W 7765   7.721   4.755   0.389  0.0654  0.1691 -0.1738
 4247W        W 7766   5.287   0.870   3.524 -0.2557 -0.2604  0.0727
 4248W        W 7767   4.297   7.411   4.406  0.2156 -0.1327  0.2565
 4249W        W 7768   2.894   4.153   1.429  0.0679  0.0183 -0.1491
 4250W        W 7769   5.880   3.362   8.681 -0.1322  0.1589 -0.0168
 4251W        W 7770   8.140   3.096  10.747 -0.0037  0.1914 -0.1488
 4252W        W 7771   7.128   5.663   2.303 -0.1254  0.0508  0.1463
 4253W        W 7772   6.041   4.610   1.853  0.1844 -0.1686  0.1788
 4254W        W 7773   6.682   4.026   0.464 -0.0695  0.1609  0.1370
 4255W        W 7774   0.502   0.280   0.877  0.5764 -0.0171 -0.0047
 4256W        W 7775   7.816   1.191  12.165  0.3122 -0.1785 -0.3497
 4257W        W 7776   3.969   4.784   0.494 -0.1493 -0.1251  0.0712
 4258W        W 7777   4.391   6.908   3.097  0.0456  0.0767 -0.1996
 4259W        W 7778   2.171   5.525   3.531 -0.1227  0.1172 -0.0668
 4260W        W 7779   8.741   0.473   4.128  0.0915  0.0285 -0.3318
 4261W        W 7780   8.038   5.644   2.255  0.0393  0.0749  0.1299
 4262W        W 7781   2.376   8.627  10.056  0.4150 -0.0039 -0.1923
 4263W        W 7782   5.423   0.122   3.728  0.0453 -0.2219 -0.2626
 4264W        W 7783   0.238   3.384   0.383 -0.0557  0.0723  0.0258
 4265W        W 7784   7.923   8.227   0.202 -0.0707 -0.0528  0.0477
 4266W        W 7785   5.523   5.472   0.940 -0.0014  0.3042 -0.4171
 4267W        W 7786   0.846   4.167   2.871  0.3137 -0.1166 -0.4404
 4268W        W 7787   2.455   5.854   2.562 -0.1943  0.3215 -0.1320
 4269W        W 7788   8.759   5.025   0.121  0.0921 -0.1069 -0.0388
 4270W        W 7789   9.310   7.263   9.629 -0.1132 -0.0891 -0.0327
 4271W        W 7790   5.087   2.820  10.305 -0.2008 -0.1037 -0.3632
 4272W        W 7791   0.376   4.608  10.796 -0.1281 -0.0116  0.1335
 4273W        W 7792   0.324   2.525   2.046  0.1002 -0.0693  0.3538
 4274W        W 7793   9.201   9.699   2.520 -0.3218  0.1121 -0.4235
 4275W        W 7794   8.820   2.389   3.869 -0.0803 -0.4584 -0.0669
 4276W        W 7795   0.992   4.922   9.475  0.3211 -0.4102 -0.4559
 4277W        W 7796   7.006   1.326  10.919 -0.1017 -0.0762  0.3451
 4278W        W 7797   0.988   7.062   1.452  0.0207  0.1181  0.4252
 4279W        W 7798   3.557   1.110   7.291  0.0471  0.1296  0.1635
 4280W        W 7799   7.383   1.381   0.117  0.1181 -0.1407  0.2069
 4281W        W 7800   1.846   7.356   1.774 -0.1405 -0.5182 -0.0418
 4282W        W 7801   2.042   9.680  10.002 -0.1955 -0.3341  0.1469
 4283W        W 7802   1.380   5.806   1.067 -0.0989  0.3946  0.1088
 4284W        W 7803   5.757   0.086   0.874 -0.1876  0.1656  0.0645
 4285W        W 7804   8.449   3.923   1.559  0.1401 -0.3184 -0.2331
 4286W        W 7805   3.512   0.652  10.876 -0.0154 -0.3578 -0.1393
 4287W        W 7806   3.359   0.518   9.225 -0.0628  0.2520 -0.0856
 4288W        W 7807   4.747   7.874   1.457 -0.2367  0.0126 -0.2709
 4289W        W 7808   8.638   0.776   0.847 -0.2568  0.4926  0.1877
 4290W        W 7809   3.987   2.783  11.690  0.3312 -0.1102 -0.1370
 4291W        W 7810   5.158   5.561   4.924  0.2210 -0.1127  0.0458
 4292W        W 7811   3.226   1.584   1.012  0.0783 -0.3072  0.1315
 4293W        W 7812   4.207   7.575   0.850  0.0224 -0.0658  0.1295
 4294W        W 7813   0.033   3.438  11.406 -0.3119  0.0875  0.2576
 4295W        W 7814   2.318   0.586  11.640  0.1880  0.1941 -0.1164
 4296W        W 7815   3.314   3.953   2.179 -0.2311 -0.4268  0.0256
 4297W        W 7816   2.970   4.129   3.856 -0.1647 -0.1945  0.2539
 4298W        W 7817   4.648   2.777  11.347 -0.2474  0.3107 -0.3411
 4299W        W 7818   0.337   0.859   9.845  0.0078 -0.1995 -0.1265
 4300W        W 7819   3.117   3.590   3.631  0.1270  0.1290 -0.0167
 4301W        W 7820   4.964   4.576  12.079 -0.1286 -0.0315 -0.0602
 4302W        W 7821   4.338   3.954  10.443  0.1098 -0.1469  0.0475
 4303W        W 7822   7.548   6.867   8.334  0.0490  0.3480 -0.0609
 4304W        W 7823   7.347   3.262  10.328 -0.1533 -0.1313  0.2120
 4305W        W 7824   8.619   3.622   2.586 -0.2455 -0.0386 -0.0301
 4306W        W 7825   2.122   0.163   3.850  0.1953 -0.2584  0.2235
 4307W        W 7826   6.316   9.323  12.286 -0.0051 -0.0458 -0.0090
 4308W        W 7827   8.350   7.926  11.148 -0.1256 -0.0368 -0.2520
 4309W        W 7828   4.253   6.476  11.006  0.0590 -0.2073 -0.2167
 4310W        W 7829   5.340   7.777   0.509 -0.1397  0.0078  0.0148
 4311W        W 7830   4.646   7.405   1.521  0.0435  0.1917  0.2832
 4312W        W 7831   8.778   1.865  11.459  0.0955  0.2107 -0.1162
 4313W        W 7832   6.488   4.457   0.272 -0.1898  0.2637  0.2263
 4314W        W 7833   3.853   6.213   0.976  0.3139 -0.3708  0.4465
 4315W        W 7834   2.679   3.347   2.096 -0.3608 -0.0130  0.2211
 4316W        W 7835   4.961   2.060   1.668 -0.3257 -0.1881  0.1410
 4317W        W 7836   0.691   7.877  10.601 -0.3272  0.1045 -0.1462
 4318W        W 7837   0.376   0.893  11.421 -0.2117  0.0419  0.1024
 4319W        W 7838   3.273   0.169   2.997 -0.0052 -0.2344  0.2279
 4320W        W 7839   7.822   9.012  11.784  0.0485  0.2117 -0.0101
 4321W        W 7840   5.519   1.715   8.155  0.4524  0.0521 -0.1861
 4322W        W 7841   2.400   6.062   0.052 -0.2992 -0.0664 -0.3222
 4323W        W 7842   0.440   3.331   0.953  0.1844 -0.3889 -0.3376
 4324W        W 7843   3.897   3.788   2.706 -0.0228 -0.0657  0.2619
 4325W        W 7844   0.124   5.194   1.979  0.1256 -0.0727 -0.0482
 4326W        W 7845   4.146   5.191   1.266 -0.0823  0.0131 -0.1204
 4327W        W 7846   0.115   2.765   0.072 -0.0192 -0.3499 -0.1897
 4328W        W 7847   2.891   1.777   8.551  0.3235  0.0623 -0.1887
 4329W        W 7848   3.768   1.555   0.783 -0.1959 -0.0732 -0.0990
 4330W        W 7849   8.938   0.203   8.633 -0.0276 -0.0521 -0.1040
 4331W        W 7850   6.262   2.675   9.371 -0.0083  0.2414  0.0836
 4332W        W 7851   9.112   4.822  11.578  0.0613 -0.0733  0.1458
 4333W        W 7852   5.376   3.639   1.009 -0.0522  0.2330  0.0605
 4334W        W 7853   7.941   5.110   1.821 -0.0464 -0.0410 -0.1705
 4335W        W 7854   6.195   1.463  10.628 -0.1545 -0.1937 -0.2628
 4336W        W 7855   9.206   5.244  11.046 -0.2134  0.2705 -0.0267
 4337W        W 7856   1.247   0.903   9.845  0.0034 -0.2842 -0.1371
 4338W        W 7857   4.159   0.124   8.311  0.2702  0.2914  0.1321
 4339W        W 7858   7.225   1.750   2.940 -0.0690  0.0445 -0.0199
 4340W        W 7859   4.505   2.232   1.877 -0.1544  0.0153  0.1498
 4341W        W 7860   2.348   4.988   2.716  0.0489 -0.0807  0.1884
 4342W        W 7861   5.972   4.957   7.974 -0.2797 -0.1229  0.2400
 4343W        W 7862   4.784   2.017   4.517 -0.0122  0.1344 -0.0852
 4344W        W 7863   7.244   1.232  11.951  0.1739 -0.0480  0.0620
 4345W        W 7864   4.252   7.917   3.182 -0.1245  0.1393 -0.0576
 4346W        W 7865   9.348   2.515  10.130 -0.0953  0.1021  0.2315
 4347W        W 7866   8.326   9.484   9.831 -0.3165 -0.0154  0.1041
 4348W        W 7867   3.875   7.082   1.713  0.2008  0.0557  0.1040
 4349W        W 7868   5.505   0.821   9.736  0.0290 -0.2092 -0.0404
 4350W        W 7869   8.283   1.430   2.633 -0.0060  0.0920 -0.1915
 4351W        W 7870   8.230   6.349   1.226  0.1698 -0.0445 -0.0417
 4352W        W 7871   7.686   6.193   4.471  0.1726 -0.3893 -0.2505
 4353W        W 7872   5.530   5.845   0.560  0.1314 -0.1608 -0.0734
 4354W        W 7873   8.819   7.778  11.256  0.0243 -0.1948  0.2421
 4355W        W 7874   0.809   0.923   1.370 -0.0393  0.0375  0.1639
 4356W        W 7875   1.961   4.347   0.374 -0.1233  0.1861  0.1253
 4357W        W 7876   8.890   8.093   9.124  0.0845  0.1709 -0.0050
 4358W        W 7877   2.723   0.893   2.294  0.2425  0.1382 -0.2203
 4359W        W 7878   8.036   8.286   2.345 -0.1518 -0.1597  0.1253
 4360W        W 7879   5.047   5.777   2.514 -0.1943  0.0111  0.1032
 4361W        W 7880   5.676   8.652   9.390 -0.0029  0.2571  0.0747
 4362W        W 7881   6.696   8.722   9.599 -0.2368  0.0823  0.1531
 4363W        W 7882   5.068   5.541  10.622  0.1210 -0.1498 -0.2407
 4364W        W 7883   9.406   3.187   2.008  0.1112  0.2812 -0.1245
 4365W        W 7884   5.262   7.543  11.998  0.1544  0.0233  0.0410
 4366W        W 7885   7.533   7.529   9.574 -0.0683  0.1843 -0.1362
 4367W        W 7886   4.540   8.048  10.383  0.2913  0.0252  0.1545
 4368W        W 7887   3.230   0.869   3.562 -0.1271  0.1792  0.1845
 4369W        W 7888   3.691   0.832   3.798  0.0797  0.0876 -0.0769
 4370W        W 7889   0.941   5.221   9.061  0.1662 -0.0914  0.0985
 4371W        W 7890   7.576   7.559  11.144 -0.0504  0.2336 -0.0185
 4372W        W 7891   6.021   1.844   1.502 -0.0995 -0.0770 -0.0344
 4373W        W 7892   1.317   0.560  10.663 -0.0337 -0.0353  0.2182
 4374W        W 7893   6.284   4.442  11.780 -0.0380 -0.3743 -0.1163
 4375W        W 7894   8.957   7.086   2.615 -0.3372 -0.2579  0.0217
 4376W        W 7895   5.717   8.001   1.876  0.0027 -0.0631 -0.2299
 4377W        W 7896   6.766   6.108   0.995  0.2921 -0.0731 -0.2477
 4378W        W 7897   2.476   2.582   9.070  0.4968 -0.0608 -0.0812
 4379W        W 7898   4.667   2.374  12.045 -0.1003  0.1968 -0.0071
 4380W        W 7899   4.375   7.743  10.783 -0.1078  0.2438 -0.0579
 4381W        W 7900   6.912   3.161   0.799  0.0422 -0.0071 -0.1108
 4382W        W 7901   9.227   7.617   1.010  0.0438  0.0145  0.0503
 4383W        W 7902   1.255   1.394  10.859 -0.1579  0.1674 -0.1991
 4384W        W 7903   4.621   1.501   2.762 -0.2513  0.0829 -0.2470
 4385W        W 7904   1.771   9.561   0.992 -0.1569 -0.1050 -0.1440
 4386W        W 7905   3.781   7.528   8.075  0.1911 -0.0113  0.3397
 4387W        W 7906   6.097   2.551   1.022 -0.1003  0.3242  0.2285
 4388W        W 7907   1.805   6.222   9.400 -0.2480  0.0992 -0.2184
 4389W        W 7908   8.461   1.198   0.624 -0.0989  0.0883 -0.0860
 4390W        W 7909   5.183   8.910  10.370 -0.0272  0.0437  0.2711
 4391W        W 7910   2.728   5.592   2.165  0.4171 -0.0175  0.3556
 4392W        W 7911   0.357   4.042  10.049 -0.3230 -0.0131 -0.2774
 4393W        W 7912   2.033   3.405   0.921 -0.1125  0.4041  0.1415
 4394W        W 7913   8.927   5.469  12.265  0.0969  0.1825  0.1175
 4395W        W 7914   7.110   3.418  11.121 -0.0914 -0.3650 -0.1792
 4396W        W 7915   7.158   2.561   1.590 -0.1200  0.0618 -0.1236
 4397W        W 7916   7.302   6.217  10.415  0.1335 -0.0076  0.1552
 4398W        W 7917   8.241   3.416   3.799  0.0772 -0.2586  0.1937
 4399W        W 7918   8.538   4.918   3.563 -0.0042  0.1057 -0.0166
 4400W        W 7919   8.806   2.570   2.974  0.0591  0.0258 -0.1346
 4401W        W 7920   8.455   6.379  11.818  0.1572  0.2122  0.1661
 4402W        W 7921   0.016   7.659  11.968  0.2426 -0.1995 -0.2461
 4403W        W 7922   6.560   7.325   2.695 -0.2757  0.0507 -0.1593
 4404W        W 7923   1.130   9.041   0.394  0.2992  0.1600 -0.0877
 4405W        W 7924   1.144   0.264   7.581  0.4240 -0.1992  0.2283
 4406W        W 7925   6.124   8.487  10.362 -0.0388  0.1448 -0.0228
 4407W        W 7926   0.698   5.556   2.352 -0.3676 -0.0840 -0.2199
 4408W        W 7927   3.323   3.739   0.105 -0.0612  0.2235  0.0601
 4409W        W 7928   1.555   3.872   1.581  0.1010 -0.0120  0.1389
 4410W        W 7929   6.938   8.680  11.844  0.0346  0.1702 -0.1541
 4411W        W 7930   0.351   2.007   3.062  0.0941 -0.3560 -0.1884
 4412W        W 7931   3.885   3.939  11.615 -0.0447  0.0107 -0.4906
 4413W        W 7932   8.746   9.751  11.823 -0.3046  0.1884 -0.1443
 4414W        W 7933   2.891   5.858   3.797  0.5102 -0.1233  0.0810
 4415W        W 7934   0.505   7.416  11.441  0.1495  0.1146  0.0142
 4416W        W 7935   6.938   0.019  11.037 -0.1178 -0.0687  0.3768
 4417W        W 7936   3.174   4.591  12.085 -0.2410 -0.0546  0.0657
 4418W        W 7937   2.129   4.127  10.907 -0.0020 -0.1528 -0.2312
 4419W        W 7938   4.442   3.342   8.588  0.1286 -0.0309  0.0578
 4420W        W 7939   2.608   6.974   8.671  0.2023 -0.0188  0.0743
 4421W        W 7940   8.327   7.148   9.451  0.0418 -0.1687  0.0097
 4422W        W 7941   9.215   3.767   3.399  0.0897  0.1125 -0.0520
 4423W        W 7942   5.627   3.060  12.057  0.1375 -0.0123 -0.0835
 4424W        W 7943   1.748   2.310  11.561  0.0394  0.0091  0.1064
 4425W        W 7944   6.480   7.961   1.905  0.1546 -0.0761 -0.3183
 4426W        W 7945   6.521   6.339   1.927 -0.0258 -0.1253 -0.1200
 4427W        W 7946   2.722   6.825   0.719 -0.1849 -0.2076  0.1134
 4428W        W 7947   6.463   8.089  10.413  0.0739 -0.0802  0.2704
 4429W        W 7948   5.597   2.557  10.349  0.2050 -0.0297 -0.1709
 4430W        W 7949   4.182   9.745   9.424 -0.2127 -0.0914  0.0179
 4431W        W 7950   4.768   6.639  12.129 -0.0372  0.0336 -0.0216
 4432W        W 7951   7.100   2.261   3.130  0.1412  0.2828  0.2857
 4433W        W 7952   6.836   0.074   0.814 -0.3590 -0.3025  0.1236
 4434W        W 7953   3.853   1.905   1.201  0.1792 -0.2692 -0.0953
 4435W        W 7954   9.411   0.551   8.552  0.0440  0.0762  0.0242
 4436W        W 7955   2.128   7.197   4.038 -0.0045  0.2384 -0.2962
 4437W        W 7956   4.438   7.924   2.681 -0.2173  0.1702 -0.0216
 4438W        W 7957   4.552   6.898  11.728 -0.0149  0.2606  0.1838
 4439W        W 7958   6.788   5.033   9.140 -0.2298  0.1466 -0.0747
 4440W        W 7959   7.867   2.838   2.046 -0.2399 -0.1185  0.0113
 4441W        W 7960   1.843   6.599   9.885 -0.0121 -0.0547 -0.4454
 4442W        W 7961   2.026   8.237  10.589 -0.2209 -0.0783 -0.2572
 4443W        W 7962   4.605   5.768   9.898  0.1510  0.0195 -0.1959
 4444W        W 7963   5.486   6.005   3.532 -0.0430  0.1783  0.1092
 4445W        W 7964   6.098   9.133  11.853 -0.3048  0.4117  0.1155
 4446W        W 7965   0.810   9.519  10.343 -0.3336  0.3310  0.1094
 4447W        W 7966   7.047   0.928  10.569 -0.3220 -0.1799  0.0221
 4448W        W 7967   6.962   5.911   4.899  0.3889  0.1071 -0.2321
 4449W        W 7968   7.486   0.945  10.261 -0.0269 -0.0010  0.0586
 4450W        W 7969   4.314   3.686   0.033 -0.1396 -0.1193  0.2117
 4451W        W 7970   2.967   3.012   9.318  0.0635 -0.0820 -0.0062
 4452W        W 7971   4.109   5.929  11.872 -0.1338  0.1837 -0.1805
 4453W        W 7972   6.211   7.577   9.593 -0.1873 -0.1457 -0.2434
 4454W        W 7973   6.838   7.369   0.581 -0.2229  0.0296  0.0220
 4455W        W 7974   0.318   2.004  11.673  0.0345 -0.3354 -0.1281
 4456W        W 7975   1.749   2.381   0.710 -0.1097  0.3116 -0.1148
 4457W        W 7976   0.534   4.941   1.743  0.2496  0.1051 -0.2633
 4458W        W 7977   4.716   7.772   3.163  0.2598  0.1509  0.1203
 4459W        W 7978   0.280   3.816   9.566 -0.0806 -0.1251 -0.0376
 4460W        W 7979   3.317   6.661   0.088  0.1905 -0.0846  0.1651
 4461W        W 7980   9.239   4.628   1.944 -0.1677 -0.1500 -0.0008
 4462W        W 7981   9.172   2.749   4.928  0.1720 -0.1246 -0.0803
 4463W        W 7982   9.557   8.808   8.119  0.0189  0.2082  0.1865
 4464W        W 7983   6.059   9.406   8.447  0.3163  0.0423  0.1540
 4465W        W 7984   1.850   2.761   3.453 -0.0511 -0.0036 -0.1801
 4466W        W 7985   3.633   1.914   8.535 -0.2944 -0.0258  0.0440
 4467W        W 7986   4.171   6.751  11.499  0.0977 -0.0961  0.1708
 4468W        W 7987   4.509   9.135  11.444 -0.1898 -0.1253 -0.2683
 4469W        W 7988   1.356   2.826   8.648  0.0735 -0.0451 -0.1167
 4470W        W 7989   0.355   1.344   1.011  0.0507 -0.0230  0.0633
 4471W        W 7990   9.789   9.243  10.457 -0.0026 -0.2089 -0.0291
 4472W        W 7991   0.012   6.634   0.838  0.0743 -0.1886  0.1766
 4473W        W 7992   5.307   0.838   8.493  0.3911 -0.1023  0.0651
 4474W        W 7993   7.311   7.062   3.028  0.1708  0.1711  0.0740
 4475W        W 7994   3.202   9.604   0.522  0.1414  0.3047 -0.1886
 4476W        W 7995   1.464   0.823   9.333 -0.0979  0.0694  0.1637
 4477W        W 7996   6.601   5.499   8.714  0.0814  0.3287  0.0969
 4478W        W 7997   4.904   2.878   9.803 -0.0308 -0.1694 -0.1007
 4479W        W 7998   6.034   4.702   3.058  0.1954 -0.3333 -0.0021
 4480W        W 7999   1.934   1.696  10.951 -0.2306  0.0878  0.4217
 4481W        W 8000   9.324   2.497   4.003 -0.0627  0.1184 -0.2516
 4482W        W 8001   0.394   6.237   1.721 -0.1497  0.2164  0.1729
 4483W        W 8002   2.429   7.627   0.462  0.2589 -0.2062  0.1124
 4484W        W 8003   3.248   6.410   9.753 -0.3013 -0.1362  0.1576
 4485W        W 8004   4.979   1.025   9.968  0.2653 -0.2183  0.1075
 4486W        W 8005   9.722   3.645   9.293  0.0925 -0.1126 -0.2086
 4487W        W 8006   5.503   0.071   2.584 -0.0073  0.4810 -0.0587
 4488W        W 8007   1.922   9.084   7.932  0.0264 -0.0275 -0.0136
 4489W        W 8008   2.887   5.530   0.603 -0.0913 -0.1607 -0.2212
 4490W        W 8009   5.762   1.007   9.330 -0.2088 -0.1946  0.1595
 4491W        W 8010   0.815   7.910   0.991 -0.0439 -0.0028  0.3043
 4492W        W 8011   0.529   7.057  10.626  0.0284  0.0522  0.2487
 4493W        W 8012   5.486   4.642   2.663 -0.0189  0.4489  0.1281
 4494W        W 8013   6.846   1.727  11.761  0.1165  0.3004  0.0330
 4495W        W 8014   0.178   4.385   9.764  0.4364 -0.1065 -0.2435
 4496W        W 8015   5.643   2.328   2.898  0.2894 -0.1120  0.3688
 4497W        W 8016   9.654   6.069   9.420 -0.0370  0.2195 -0.0759
 4498W        W 8017   1.083   4.900  10.035  0.1005  0.1263 -0.3184
 4499W        W 8018   8.008   2.234   0.825  0.1313 -0.0210 -0.0617
 4500W        W 8019   8.393   3.824  11.994 -0.2332  0.0609  0.0900
 4501W        W 8020   5.859   5.285  11.424 -0.2353  0.3696 -0.0720
 4502W        W 8021   8.432   7.068  11.570 -0.0638 -0.4824 -0.1329
 4503W        W 8022   0.365   3.043  10.844 -0.0018 -0.0475 -0.3207
 4504W        W 8023   3.621   4.827  10.197  0.0021 -0.0024 -0.2341
 4505W        W 8024   6.452   1.972   1.869  0.1272 -0.2321  0.0929
 4506W        W 8025   8.378   6.792   9.807 -0.1084 -0.0128 -0.0890
 4507W        W 8026   0.139   4.959   1.464 -0.1955  0.4482 -0.0467
 4508W        W 8027   5.184   9.566   2.799  0.0831 -0.2158 -0.0127
 4509W        W 8028   2.085   8.625   3.298  0.1235 -0.1942 -0.1023
 4510W        W 8029   5.249   5.774   9.750  0.4003 -0.0387 -0.1144
 4511W        W 8030   3.965   7.522   3.080  0.1173  0.2518 -0.1048
 4512W        W 8031   0.680   0.461   9.920 -0.0359 -0.0779  0.2905
 4513W        W 8032   7.597   1.171   8.286 -0.0159 -0.2593  0.4039
 4514W        W 8033   0.680   6.157  12.079  0.0949 -0.2329  0.1624
 4515W        W 8034   2.879   2.161   3.403 -0.1869  0.0236 -0.0228
 4516W        W 8035   4.712   4.361   2.710 -0.1970  0.4670  0.3199
 4517W        W 8036   2.252   4.589   2.302 -0.1976 -0.2156 -0.0723
 4518W        W 8037   8.270   9.017   2.811 -0.1149  0.0350  0.0069
 4519W        W 8038   1.546   0.951   0.690 -0.1597  0.1237 -0.0271
 4520W        W 8039   6.790   2.036  10.071  0.1729 -0.2898 -0.1833
 4521W        W 8040   9.173   2.213   0.946 -0.1078 -0.0695 -0.2175
 4522W        W 8041   6.881   3.568   0.428  0.2331  0.2386 -0.3371
 4523W        W 8042   9.165   0.059  12.047  0.3853  0.0422 -0.0491
 4524W        W 8043   9.098   4.482  10.994  0.0053 -0.0542  0.0031
 4525W        W 8044   1.205   4.171   2.188  0.0622 -0.0195  0.2444
 4526W        W 8045   1.294   9.096  10.977  0.1569  0.1624  0.0162
 4527W        W 8046   6.244   4.663  12.229 -0.1701 -0.2213  0.1122
 4528W        W 8047   7.063   9.083   9.638  0.0623 -0.1402 -0.1404
 4529W        W 8048   0.111   2.347  12.107  0.0220  0.1060  0.0197
 4530W        W 8049   2.768   3.709   0.252  0.0907  0.0536  0.0306
 4531W        W 8050   7.470   0.943   0.827  0.3616 -0.1992 -0.1509
 4532W        W 8051   3.924   3.403   4.004  0.1887  0.1141 -0.2417
 4533W        W 8052   6.760   4.319   3.738  0.2884  0.0896 -0.3337
 4534W        W 8053   7.339   6.675   1.519 -0.1286 -0.3199 -0.1377
 4535W        W 8054   7.574   5.432   2.046 -0.1472 -0.2527 -0.1263
 4536W        W 8055   6.943   1.368  11.414  0.2379  0.0939  0.1813
 4537W        W 8056   1.814   4.792   3.986  0.3511 -0.2781 -0.0525
 4538W        W 8057   6.107   3.207   2.922  0.1222  0.2856 -0.1472
 4539W        W 8058   9.267   4.607   3.567 -0.2313 -0.0791  0.0892
 4540W        W 8059   1.685   2.722   2.025 -0.0547  0.0338  0.0470
 4541W        W 8060   0.022   7.994   1.331  0.1226 -0.0114  0.0993
 4542W        W 8061   8.128   7.504  11.115  0.3580 -0.3913  0.1263
 4543W        W 8062   4.216   8.460  10.227  0.1217  0.1416 -0.0624
 4544W        W 8063   8.536   5.266   3.125  0.1786  0.1683  0.0400
 4545W        W 8064   1.000   9.276  11.984 -0.0570 -0.0832  0.1521
 4546W        W 8065   2.607   2.070   1.165 -0.0295  0.0481 -0.2761
 4547W        W 8066   6.061   0.574   8.847  0.6446  0.2911 -0.0654
 4548W        W 8067   7.034   0.393  12.062  0.2198 -0.1069  0.3447
 4549W        W 8068   2.672   2.454  10.253 -0.0982  0.2660  0.5501
 4550W        W 8069   6.062   0.834   3.432  0.0617  0.0995 -0.3590
 4551W        W 8070   3.110   9.449   3.109 -0.1163 -0.2419  0.1046
 4552W        W 8071   5.353   5.279   1.496 -0.1386 -0.1307 -0.0419
 4553W        W 8072   3.206   2.116  11.122 -0.0594 -0.0015 -0.0037
 4554W        W 8073   8.879   7.679   0.196  0.1133 -0.2145 -0.0730
 4555W        W 8074   6.452   3.493   8.666 -0.1137  0.0443  0.2151
 4556W        W 8075   0.643   8.802  11.011 -0.0714  0.0518  0.0212
 4557W        W 8076   5.749   4.584   9.434  0.2145 -0.0486  0.1557
 4558W        W 8077   0.224   9.500  11.533 -0.2419  0.0293 -0.2544
 4559W        W 8078   3.736   5.765   2.604  0.0195  0.0107 -0.3631
 4560W        W 8079   1.577   4.414  11.676 -0.2269  0.3575 -0.0171
 4561W        W 8080   1.157   1.817   8.602 -0.2566  0.2608  0.0459
 4562W        W 8081   1.468   4.586  12.092 -0.0968 -0.2659 -0.2715
 4563W        W 8082   4.278   2.375  11.650  0.2813  0.4165  0.0427
 4564W        W 8083   4.321   0.807  10.278 -0.1414  0.0127 -0.0183
 4565W        W 8084   5.132   9.449   3.666 -0.2547 -0.2457 -0.3628
 4566W        W 8085   7.386   9.004   3.762 -0.1048 -0.1645 -0.0853
 4567W        W 8086   4.453   6.629   9.916 -0.3705 -0.1435 -0.0848
 4568W        W 8087   4.050   1.329   4.526  0.1173 -0.0970  0.0222
 4569W        W 8088   9.257   9.169   9.344  0.2190 -0.3952  0.0659
 4570W        W 8089   6.549   3.510   3.526 -0.1189  0.2181  0.2273
 4571W        W 8090   1.522   9.248   0.694  0.3601  0.1359  0.0588
 4572W        W 8091   9.313   0.758   2.008 -0.0313  0.1664  0.1182
 4573W        W 8092   3.412   9.124  10.752 -0.3912  0.1162 -0.2866
 4574W        W 8093   3.239   0.155  11.765  0.0586  0.1833  0.4332
 4575W        W 8094   6.573   7.875  11.750 -0.2374 -0.2433 -0.0632
 4576W        W 8095   8.647   6.193   0.754  0.2155  0.1491 -0.1708
 4577W        W 8096   9.137   6.577  11.111  0.4625 -0.0742  0.1749
 4578W        W 8097   0.389   2.576   9.602 -0.1037  0.1083  0.0445
 4579W        W 8098   5.537   0.248   1.330  0.2703  0.0325 -0.3332
 4580W        W 8099   3.780   2.657   4.047 -0.1278 -0.4037 -0.0718
 4581W        W 8100   6.889   9.625   2.787  0.0508  0.1999  0.0161
 4582W        W 8101   6.501   2.697   8.144  0.0423 -0.0710 -0.3384
 4583W        W 8102   3.849   6.169   3.592  0.4191  0.1464 -0.3001
 4584W        W 8103   2.027   8.580   9.142 -0.3175  0.0537  0.0815
 4585W        W 8104   1.889   0.746   9.071  0.0984 -0.0900  0.3288
 4586W        W 8105   0.359   0.703  12.189  0.2954  0.1245  0.3348
 4587W        W 8106   5.456   8.841  10.803  0.1211 -0.0935 -0.0367
 4588W        W 8107   8.354   1.768   9.800  0.0489  0.0349 -0.0819
 4589W        W 8108   4.336   0.646   1.336  0.1721  0.1945 -0.0355
 4590W        W 8109   2.121   5.730  11.567 -0.2084  0.1864  0.0882
 4591W        W 8110   3.344   7.182   4.044  0.0540  0.1244  0.0140
 4592W        W 8111   5.496   7.185   3.436 -0.1330 -0.2016  0.1010
 4593W        W 8112   8.497   5.494   2.659  0.2190 -0.0024  0.2788
 4594W        W 8113   3.252   5.510   9.801  0.0296 -0.1849 -0.3046
 4595W        W 8114   6.487   7.452   3.185 -0.0482 -0.0883  0.0606
 4596W        W 8115   6.126   2.063   0.878  0.3451 -0.0895 -0.2100
 4597W        W 8116   1.528   7.797   0.039  0.2361 -0.1728 -0.4227
 4598W        W 8117   4.535   3.066   3.417  0.1270  0.3519 -0.0401
 4599W        W 8118   0.914   5.759  11.128 -0.0401  0.1690 -0.0014
 4600W        W 8119   9.179   3.594   1.886 -0.1853  0.1678 -0.2648
 4601W        W 8120   0.322   1.415  11.341  0.1686 -0.1822 -0.0480
 4602W        W 8121   5.179   8.913   8.765  0.0834  0.1107 -0.2237
 4603W        W 8122   3.412   4.080   0.462 -0.1669  0.2186 -0.0350
 4604W        W 8123   4.648   2.213   9.160  0.0197  0.0578 -0.0258
 4605W        W 8124   9.141   6.049   3.220 -0.3179 -0.2172  0.1361
 4606W        W 8125   6.326   9.213   3.647 -0.0743 -0.0677 -0.0021
 4607W        W 8126   6.045   8.186   2.225 -0.0889  0.0417  0.2928
 4608W        W 8127   1.203   1.721   1.285 -0.2424 -0.0226 -0.0197
 4609W        W 8128   3.124   7.807   3.491 -0.2179  0.1610 -0.0752
 4610W        W 8129   8.013   7.481   2.096 -0.0061  0.0331 -0.0889
 4611W        W 8130   8.748   9.457   2.416 -0.0629 -0.2717 -0.2380
 4612W        W 8131   4.407   4.091  11.110 -0.1035  0.4620 -0.2021
 4613W        W 8132   3.991   4.437  12.014 -0.3081  0.2568  0.1350
 4614W        W 8133   4.577   5.813   1.703  0.0328  0.3997  0.1854
 4615W        W 8134   7.101   5.189  12.252 -0.0526  0.4286 -0.0455
 4616W        W 8135   8.610   0.279  11.383 -0.0590 -0.1247 -0.0472
 4617W        W 8136   3.321   1.963   3.212  0.1228  0.0056  0.1603
 4618W        W 8137   6.771   6.186   2.733 -0.0682 -0.2616 -0.3737
 4619W        W 8138   6.108   8.579   0.566  0.3363 -0.0166  0.0216
 4620W        W 8139   3.423   3.796   1.344  0.2003  0.0872  0.0412
 4621W        W 8140   1.421   3.449   9.455 -0.1395 -0.1468 -0.0487
 4622W        W 8141   9.597   2.757   0.473 -0.0846 -0.0064  0.3630
 4623W        W 8142   0.080   1.810   2.721  0.2006  0.0587  0.2174
 4624W        W 8143   6.411   3.899   2.475 -0.1027  0.1324  0.0610
 4625W        W 8144   7.109   3.568   7.970 -0.1682 -0.3516  0.1947
 4626W        W 8145   9.152   3.227  10.736  0.4086 -0.1989  0.0645
 4627W        W 8146   3.011   0.264   4.790 -0.2676 -0.1761 -0.1866
 4628W        W 8147   7.883   2.946   3.691 -0.1564 -0.0098 -0.0228
 4629W        W 8148   1.917   8.970   8.814 -0.0819  0.2466 -0.1035
 4630W        W 8149   5.974   6.034   2.683  0.3552  0.2040 -0.0700
 4631W        W 8150   7.100   2.175   9.362 -0.0114 -0.2925  0.1885
 4632W        W 8151   4.150   4.819  10.429  0.0053 -0.1273 -0.2621
 4633W        W 8152   2.395   6.982   0.387  0.0510  0.0487 -0.4464
 4634W        W 8153   6.215   9.525  10.194 -0.2921 -0.1371  0.0237
 4635W        W 8154   7.947   4.121   1.536 -0.1624  0.0840 -0.1335
 4636W        W 8155   6.524   9.462   8.746  0.0682  0.1979  0.0337
 4637W        W 8156   5.064   2.052   1.065  0.0971 -0.1237  0.1327
 4638W        W 8157   2.910   3.457  10.697  0.0347 -0.5358  0.0532
 4639W        W 8158   0.241   9.642   0.005  0.0858  0.1227 -0.1484
 4640W        W 8159   4.159   5.232   3.861  0.3764 -0.0761 -0.4618
 4641W        W 8160   8.541   9.502   3.008 -0.2531  0.0960  0.2460
 4642W        W 8161   6.783   9.298   1.434  0.1580 -0.4973  0.3129
 4643W        W 8162   5.549   6.417   1.802 -0.2514 -0.1306  0.0718
 4644W        W 8163   2.735   5.130   0.317  0.1225 -0.1550  0.3728
 4645W        W 8164   9.627   1.937  12.318 -0.2730  0.1191 -0.0490
 4646W        W 8165   4.585   2.535   3.116 -0.0649  0.1995  0.2143
 4647W        W 8166   6.243   1.331  10.127  0.1821 -0.1042  0.1527
 4648W        W 8167   5.560   3.270  10.332  0.0628 -0.0291 -0.0578
 4649W        W 8168   2.302   5.469   1.225 -0.0191 -0.4654  0.0725
 4650W        W 8169   8.570   5.453   0.835 -0.3217 -0.0873  0.0550
 4651W        W 8170   3.243   4.997   3.310  0.1062 -0.0670  0.1683
 4652W        W 8171   7.422   1.343  10.581 -0.4281 -0.0286 -0.2006
 4653W        W 8172   0.205   8.319  12.016 -0.0889 -0.0653  0.3650
 4654W        W 8173   1.286   1.683   3.776  0.0975  0.0554  0.0908
 4655W        W 8174   3.126   8.823   1.793  0.2947  0.1028  0.2329
 4656W        W 8175   8.694   1.894   2.511  0.1119  0.0672  0.2139
 4657W        W 8176   7.483   4.276   9.446 -0.1171  0.2511 -0.1318
 4658W        W 8177   3.121   4.436  10.878  0.0055  0.1888 -0.0456
 4659W        W 8178   0.639   8.567   2.230 -0.0795  0.0696 -0.1737
 4660W        W 8179   0.786   8.015   9.868  0.0336 -0.2205  0.1499
 4661W        W 8180   9.654   7.083  12.114 -0.1308  0.2125  0.1879
 4662W        W 8181   1.547   5.693   3.062 -0.1024  0.0322  0.0543
 4663W        W 8182   7.939   6.797   0.879 -0.2498 -0.3023 -0.0992
 4664W        W 8183   8.838   0.968   0.337 -0.1790 -0.2239 -0.2169
 4665W        W 8184   5.587   4.152   0.427  0.2532 -0.1272 -0.1143
 4666W        W 8185   6.696   4.926   1.694  0.0902  0.1271  0.1901
 4667W        W 8186   9.226   6.138   3.843  0.0755  0.3008 -0.2827
 4668W        W 8187   2.896   1.940   1.562  0.3988  0.0853  0.0304
 4669W        W 8188   5.835   2.378   9.299 -0.2428  0.0476 -0.3427
 4670W        W 8189   6.195   4.928   1.423 -0.0776  0.2273 -0.0805
 4671W        W 8190   7.201   9.687  12.151  0.0531  0.4176  0.1982
 4672W        W 8191   2.845   3.636  10.179  0.0151 -0.2213 -0.4784
 4673W        W 8192   1.213   1.437   9.873  0.2004 -0.0784 -0.3549
 4674W        W 8193   7.528   7.356   2.229  0.1183 -0.0933 -0.1061
 4675W        W 8194   1.252   5.974  10.217 -0.2798  0.3407 -0.1633
 4676W        W 8195   1.613   4.101   8.583 -0.2068 -0.0014 -0.0809
 4677W        W 8196   6.740   4.766  12.089 -0.2031 -0.2714 -0.1105
 4678W        W 8197   0.243   4.524  11.908 -0.1018  0.0766 -0.0120
 4679W        W 8198   1.631   7.988  10.862 -0.0711  0.0275  0.0668
 4680W        W 8199   9.393   0.747   2.851  0.3278  0.1043  0.3654
 4681W        W 8200   1.338   6.280   9.250 -0.0979  0.2682  0.1921
 4682W        W 8201   8.651   2.218  11.852  0.1564  0.0624  0.2641
 4683W        W 8202   3.979   5.568   8.833  0.1878  0.1666 -0.0699
 4684W        W 8203   5.845   6.499  10.368  0.1964 -0.0808  0.0955
 4685W        W 8204   5.789   2.900   8.537  0.0188  0.0192  0.0378
 4686W        W 8205   4.066   7.233  12.254  0.3115 -0.0179 -0.0210
 4687W        W 8206   7.600   4.372   2.819  0.0937 -0.0124  0.0192
 4688W        W 8207   2.310   8.575   1.770  0.0763  0.1997  0.1114
 4689W        W 8208   5.314   5.321   9.037 -0.0405  0.1259  0.2924
 4690W        W 8209   0.957   5.031   2.555  0.0400 -0.0186 -0.0955
 4691W        W 8210   4.825   0.126   2.575 -0.1242 -0.0226 -0.2530
 4692W        W 8211   4.597   6.083   9.403  0.2162 -0.2331 -0.1882
 4693W        W 8212   3.352   8.500   4.428  0.1366  0.2494  0.1002
 4694W        W 8213   8.936   6.090  10.092  0.0969  0.1519  0.0232
 4695W        W 8214   0.220   7.169   1.167  0.1496 -0.0998 -0.0430
 4696W        W 8215   9.392   4.004   4.534  0.0129 -0.2469  0.0442
 4697W        W 8216   1.568   7.328   0.900 -0.1702  0.1074  0.0239
 4698W        W 8217   1.976   2.663   0.360 -0.2645  0.0898  0.0289
 4699W        W 8218   7.141   5.347  11.287 -0.2116  0.1845  0.1299
 4700W        W 8219   6.739   7.929   3.106 -0.2237 -0.0832  0.0120
 4701W        W 8220   0.179   6.097   0.910  0.1449 -0.1551  0.2416
 4702W        W 8221   4.891   8.145   4.322 -0.0456  0.2312  0.2497
 4703W        W 8222   0.319   6.924   2.981  0.0248 -0.3394  0.1235
 4704W        W 8223   7.526   5.315   2.949 -0.0003 -0.0438  0.2652
 4705W        W 8224   3.825   1.749   3.173  0.3978  0.4623  0.1266
 4706W        W 8225   7.485   1.998   0.721 -0.1199  0.0465  0.0418
 4707W        W 8226   1.905   5.886  12.113  0.1074 -0.0552  0.0392
 4708W        W 8227   4.084   5.966   1.583  0.2647  0.4406 -0.0028
 4709W        W 8228   6.988   5.979   0.488  0.4235 -0.3281 -0.0325
 4710W        W 8229   4.062   6.858   0.312 -0.1881  0.3406  0.3027
 4711W        W 8230   4.213   7.403   0.355 -0.0814 -0.0423  0.4267
 4712W        W 8231   6.473   9.571   1.696 -0.1926 -0.0079 -0.0384
 4713W        W 8232   6.660   5.408   4.682  0.1144 -0.0003  0.2000
 4714W        W 8233   6.498   1.721  11.422  0.1123 -0.1843 -0.0444
 4715W        W 8234   8.404   8.595   0.098  0.1953  0.1903 -0.0101
 4716W        W 8235   8.058   4.405   2.611 -0.3938 -0.1193  0.0393
 4717W        W 8236   7.243   6.914   2.125 -0.4870  0.0799 -0.3581
 4718W        W 8237   1.248   9.544  11.637 -0.1983  0.2644  0.1702
 4719W        W 8238   7.852   4.445   1.211 -0.0326 -0.0433  0.2167
 4720W        W 8239   2.513   1.784   3.186  0.0663 -0.0932  0.1368
 4721W        W 8240   7.588   5.453  11.486  0.3540 -0.3840  0.2546
 4722W        W 8241   5.658   4.661   0.500  0.0139 -0.0535  0.0816
 4723W        W 8242   8.681   5.021   1.084  0.0636  0.0869  0.1364
 4724W        W 8243   4.773   5.613   9.437 -0.2509 -0.1372  0.0295
 4725W        W 8244   0.688   1.954   0.345  0.1631  0.0130 -0.0791
 4726W        W 8245   8.665   3.750   3.625  0.1189 -0.0696 -0.0617
 4727W        W 8246   2.260   6.266  11.910 -0.4003 -0.0765 -0.1505
 4728W        W 8247   7.258   6.117  11.912 -0.2680  0.0893  0.0689
 4729W        W 8248   7.640   2.944   9.444  0.0422 -0.0581 -0.0268
 4730W        W 8249   8.194   9.492  11.009  0.1762  0.3884 -0.0351
 4731W        W 8250   8.385   3.384  11.784  0.0612  0.0427  0.0672
 4732W        W 8251   1.682   7.113  10.385  0.1926  0.3934 -0.2038
 4733W        W 8252   0.898   8.961   1.731 -0.1879  0.4298  0.0586
 4734W        W 8253   6.825   7.535   2.160  0.0468 -0.2968 -0.0615
 4735W        W 8254   4.456   5.010   2.674 -0.2385 -0.1376 -0.3125
 4736W        W 8255   4.714   7.194   0.592  0.0960  0.2051  0.2838
 4737W        W 8256   5.844   9.737   4.148  0.3497 -0.0354  0.0504
 4738W        W 8257   7.371   5.764   9.405  0.1556 -0.0589 -0.0318
 4739W        W 8258   5.124   7.357   0.803  0.0008 -0.1957  0.1197
 4740W        W 8259   1.523   4.280   0.619 -0.0779  0.1995 -0.0935
 4741W        W 8260   6.747   2.416   7.803  0.1518 -0.3896 -0.1608
 4742W        W 8261   5.785   0.770  10.177 -0.0199 -0.2189  0.1606
 4743W        W 8262   5.451   0.411   2.252  0.0732  0.1009  0.1235
 4744W        W 8263   3.998   7.829   8.577 -0.1689 -0.1250 -0.0755
 4745W        W 8264   2.523   3.396  11.334  0.0271  0.0696  0.0599
 4746W        W 8265   0.062   7.178  10.565  0.4616 -0.4424  0.1277
 4747W        W 8266   3.379   8.832  11.987 -0.3662 -0.0940 -0.1518
 4748W        W 8267   7.088   7.283   9.509  0.0580 -0.2056 -0.1548
 4749W        W 8268   5.589   8.067   0.174  0.1184  0.1256  0.3310
 4750W        W 8269   5.244   8.682   4.128  0.0315 -0.1534  0.1895
 4751W        W 8270   6.125   1.839   8.894 -0.0179 -0.1667  0.0309
 4752W        W 8271   8.039   6.291   0.712 -0.1285 -0.0152  0.1924
 4753W        W 8272   9.121   1.824   7.564 -0.0467 -0.1626 -0.3174
 4754W        W 8273   8.457   7.036   2.650 -0.1869  0.1558 -0.0237
 4755W        W 8274   3.212   0.968   4.083  0.0530  0.0106  0.0752
 4756W        W 8275   1.983   1.788  11.437 -0.1121 -0.0389  0.0803
 4757W        W 8276   4.228   2.085  12.218  0.0834  0.0524  0.1642
 4758W        W 8277   6.009   1.752   8.144  0.1767 -0.0193  0.1513
 4759W        W 8278   6.256   2.944   2.066 -0.2450  0.0703 -0.2773
 4760W        W 8279   8.562   7.658   9.611  0.0453  0.3081 -0.1986
 4761W        W 8280   6.484   1.849   0.063 -0.0395  0.3089 -0.1001
 4762W        W 8281   3.124   0.814   0.425  0.3109 -0.0573 -0.0766
 4763W        W 8282   0.739   9.595   0.011  0.1853  0.3049  0.4137
 4764W        W 8283   8.054   9.448  11.911 -0.1227  0.3760  0.0899
 4765W        W 8284   1.104   0.239   8.577 -0.0093  0.1126  0.1372
 4766W        W 8285   7.951   2.548  10.238 -0.0497  0.3830  0.1545
 4767W        W 8286   0.365   0.171   1.993  0.0842  0.0513  0.0260
 4768W        W 8287   8.479   6.011  10.122  0.1024  0.1810 -0.1098
 4769W        W 8288   3.777   7.303   1.217  0.0359  0.1114  0.2095
 4770W        W 8289   5.257   3.809  12.047 -0.2662 -0.1325 -0.3209
 4771W        W 8290   2.459   1.565  11.559  0.3146  0.0629 -0.0513
 4772W        W 8291   1.077   9.450   1.547 -0.2604 -0.3831 -0.0772
 4773W        W 8292   1.066   0.011  12.057  0.0129 -0.0726 -0.1972
 4774W        W 8293   5.015   9.427  10.188  0.0107  0.1644  0.1519
 4775W        W 8294   7.555   5.974   2.138  0.3722  0.3877 -0.0168
 4776W        W 8295   6.084   5.354  12.118  0.0034 -0.2224  0.0159
 4777W        W 8296   4.111   6.598   3.858  0.0578  0.0359  0.0547
 4778W        W 8297   0.339   7.510  10.814  0.2986 -0.0042  0.0013
 4779W        W 8298   8.971   3.295   0.211 -0.2920  0.1464 -0.1621
 4780W        W 8299   5.954   2.984   1.150  0.3643  0.0555 -0.3008
 4781W        W 8300   5.038   7.586   2.375 -0.0875 -0.0005  0.0640
 4782W        W 8301   3.085   0.722   3.093  0.1006 -0.0103  0.2173
 4783W        W 8302   1.651   2.471   8.777 -0.2127  0.2991  0.0212
 4784W        W 8303   1.744   0.459   3.900  0.0698  0.2478 -0.1967
 4785W        W 8304   4.367   6.154   1.107 -0.0734 -0.1371 -0.0242
 4786W        W 8305   8.299   3.275   2.245 -0.2627  0.1487  0.0811
 4787W        W 8306   6.596   2.469  10.313  0.2730 -0.0306 -0.4587
 4788W        W 8307   6.309   0.932   2.132 -0.0220 -0.0661  0.1630
 4789W        W 8308   1.919   7.689  11.913  0.2132 -0.3123  0.2543
 4790W        W 8309   3.149   0.647   2.239 -0.5055  0.1980 -0.0769
 4791W        W 8310   4.012   8.585   1.606 -0.0244  0.2290  0.0957
 4792W        W 8311   7.408   7.705  10.426  0.2124 -0.1531  0.0777
 4793W        W 8312   7.472   6.146   9.814  0.2121 -0.2368 -0.2674
 4794W        W 8313   9.706   6.678   3.017 -0.0076 -0.1576 -0.1191
 4795W        W 8314   4.302   8.837   9.107 -0.1080 -0.6013 -0.0056
 4796W        W 8315   5.051   7.714   3.992 -0.0645 -0.0846 -0.0456
 4797W        W 8316   8.522   0.735   9.123 -0.4179  0.0845  0.3601
 4798W        W 8317   8.700   1.543   1.485 -0.1200 -0.1073 -0.0809
 4799W        W 8318   2.458   4.135  11.805  0.1757 -0.2596 -0.0507
 4800W        W 8319   0.844   1.288  11.256  0.1824  0.0835 -0.0740
 4801W        W 8320   2.476   5.623   3.026 -0.0128  0.1605 -0.0250
 4802W        W 8321   8.835   9.503   9.356  0.0135 -0.0650 -0.0593
 4803W        W 8322   7.386   1.770   9.455  0.1215  0.3086  0.4050
 4804W        W 8323   1.837   9.630  11.536  0.2362  0.4005 -0.0521
 4805W        W 8324   0.139   9.397   0.452 -0.0968 -0.2057 -0.2576
 4806W        W 8325   0.358   6.993   2.088 -0.2719  0.1125 -0.1253
 4807W        W 8326   2.255   5.500  11.096  0.1783  0.1804 -0.3111
 4808W        W 8327   3.826   9.095  12.000  0.0836  0.1193 -0.1892
 4809W        W 8328   1.639   6.157  10.530 -0.1836 -0.6329 -0.0951
 4810W        W 8329   4.370   0.896   3.164  0.0913  0.2488 -0.1409
 4811W        W 8330   2.535   2.973  12.275 -0.1412 -0.0981 -0.0988
 4812W        W 8331   6.746   4.565   8.325 -0.0649  0.1889  0.2418
 4813W        W 8332   8.123   7.248   0.946  0.0183 -0.0780 -0.0487
 4814W        W 8333   3.736   1.292  11.794  0.2357 -0.0726 -0.1805
 4815W        W 8334   0.631   9.146   3.900 -0.1467 -0.1284 -0.0735
 4816W        W 8335   4.142   2.236   2.236  0.2490  0.1045  0.2042
 4817W        W 8336   8.472   9.187   3.643  0.4094  0.3510 -0.1028
 4818W        W 8337   0.666   0.201   1.577  0.1150  0.1697  0.0743
 4819W        W 8338   5.688   9.105   9.651  0.2138 -0.1760 -0.1131
 4820W        W 8339   6.284   0.794   9.311  0.1811 -0.1393 -0.2577
 4821W        W 8340   4.121   4.991   2.175 -0.2661 -0.0100 -0.0748
 4822W        W 8341   7.347   3.909   8.490  0.3422 -0.0538 -0.1089
 4823W        W 8342   0.914   7.713  11.563 -0.0672 -0.0181  0.1835
 4824W        W 8343   0.834   8.485   1.687 -0.2614  0.2676 -0.1689
 4825W        W 8344   6.067   4.101   1.752  0.1282 -0.0367  0.0721
 4826W        W 8345   1.783   5.795  10.804 -0.2783  0.3460 -0.0314
 4827W        W 8346   9.064   2.021  11.858  0.2699  0.1762 -0.0795
 4828W        W 8347   5.758   7.928   1.319  0.0139 -0.1289  0.0231
 4829W        W 8348   0.315   1.100   1.524  0.1127 -0.2014  0.2772
 4830W        W 8349   5.684   0.302  10.262 -0.5055 -0.3716 -0.0369
 4831W        W 8350   7.001   3.353   4.439 -0.2078  0.2197  0.0645
 4832W        W 8351   8.280   9.296   1.482  0.0922  0.0575 -0.2754
 4833W        W 8352   7.317   8.050   9.714  0.2222  0.1862 -0.2642
 4834W        W 8353   5.213   9.588   4.179  0.0473  0.0652  0.0451
 4835W        W 8354   4.910   4.751   2.479  0.2582 -0.2881  0.0346
 4836W        W 8355   6.402   9.527   2.633  0.2054  0.3908 -0.1059
 4837W        W 8356   0.941   0.316   9.169  0.1336 -0.0992  0.0401
 4838W        W 8357   6.726   6.774  12.321  0.1555  0.0109 -0.0523
 4839W        W 8358   4.580   2.651   4.498 -0.4436 -0.1911  0.1090
 4840W        W 8359   6.681   5.427   4.158  0.2575  0.3074  0.6428
 4841W        W 8360   1.450   5.407   3.911  0.1198  0.1809  0.3652
 4842W        W 8361   2.463   4.698  10.697  0.0665 -0.4644  0.0411
 4843W        W 8362   8.977   5.010   0.598 -0.0761 -0.0829 -0.1405
 4844W        W 8363   6.184   6.544  11.259  0.2965 -0.2719 -0.0166
 4845W        W 8364   3.033   2.909   4.009 -0.0840 -0.2263 -0.3100
 4846W        W 8365   6.835   9.388   4.049 -0.1569 -0.1185  0.0422
 4847W        W 8366   4.598   5.592   2.659 -0.2451 -0.1174  0.0682
 4848W        W 8367   3.174   2.834   1.272  0.0444  0.0088 -0.0001
 4849W        W 8368   2.516   0.221  10.791 -0.0825  0.1617  0.3633
 4850W        W 8369   6.095   5.243   1.043  0.1499  0.0271  0.1399
 4851W        W 8370   1.438   8.690  11.615 -0.0093 -0.1663 -0.2895
 4852W        W 8371   4.902   1.916   9.484  0.1361 -0.1273 -0.0152
 4853W        W 8372   1.577   5.750   9.354  0.1504  0.0616  0.1015
 4854W        W 8373   3.187   5.204  10.240  0.0265 -0.0758 -0.3638
 4855W        W 8374   8.357   5.775   9.386  0.0837  0.1205  0.2413
 4856W        W 8375   4.558   7.583   9.312  0.1539 -0.0319  0.2358
 4857W        W 8376   9.761   5.695   3.875  0.0818 -0.1431 -0.2034
 4858W        W 8377   0.882   2.637  10.485 -0.0693  0.1620 -0.1056
 4859W        W 8378   7.518   3.619  11.321 -0.1291 -0.1170 -0.1332
 4860W        W 8379   8.016   4.495   8.765  0.2152  0.0359 -0.0920
 4861W        W 8380   7.380   4.834   9.714 -0.0526  0.1644  0.0829
 4862W        W 8381   8.611   1.021   2.247  0.0696 -0.1223 -0.0202
 4863W        W 8382   4.718   2.185   0.700  0.2478  0.0163  0.0994
 4864W        W 8383   7.206   8.438   8.870 -0.0480  0.0600  0.0298
 4865W        W 8384   7.202   2.445   4.267 -0.1202  0.4462  0.1535
 4866W        W 8385   3.610   2.756  10.145 -0.0266 -0.0857  0.0776
 4867W        W 8386   4.552   7.478   3.825  0.1905 -0.1343  0.3158
 4868W        W 8387   3.687   0.952  11.286  0.3123 -0.1467 -0.0039
 4869W        W 8388   0.756   9.155   2.656 -0.1970 -0.1158 -0.1917
 4870W        W 8389   6.957   4.377   0.043  0.1332  0.1204 -0.0002
 4871W        W 8390   1.856   0.402   9.419 -0.1331 -0.0591  0.0969
 4872W        W 8391   1.455   1.038  10.523  0.0694 -0.0854 -0.0657
 4873W        W 8392   4.825   2.191   3.505  0.1450 -0.0144  0.1978
 4874W        W 8393   7.956   4.506   3.196 -0.2245  0.1061  0.0894
 4875W        W 8394   7.780   3.517   2.916 -0.0356  0.0516 -0.0774
 4876W        W 8395   2.492   8.379  11.253  0.2065  0.2941 -0.2245
 4877W        W 8396   0.691   7.424   2.161 -0.2495  0.2345 -0.1176
 4878W        W 8397   7.836   7.133   0.505 -0.0039  0.1936  0.3368
 4879W        W 8398   6.904   1.240   8.553 -0.0891 -0.1445  0.1876
 4880W        W 8399   4.813   1.989  10.595  0.0355  0.1071 -0.0749
 4881W        W 8400   0.044   3.700   1.226 -0.0718 -0.2715  0.3281
 4882W        W 8401   6.733   4.222   1.003 -0.2602 -0.1440  0.1153
 4883W        W 8402   5.617   2.584   3.428 -0.2048  0.0185  0.0790
 4884W        W 8403   8.575   8.513  11.869  0.0594 -0.0929 -0.3476
 4885W        W 8404   3.093   1.371   9.607  0.0878 -0.0434 -0.0709
 4886W        W 8405   3.005   0.442  10.939  0.0463 -0.2479  0.0044
 4887W        W 8406   7.930   5.344  11.840  0.1099 -0.1543  0.1870
 4888W        W 8407   2.906   3.371   8.460  0.1379  0.1319 -0.0714
 4889W        W 8408   8.247   8.135   9.762 -0.2315 -0.2880 -0.1715
 4890W        W 8409   3.053   0.611  11.904  0.0508  0.1468 -0.1460
 4891W        W 8410   5.276   4.121   1.104  0.2612  0.2072 -0.1556
 4892W        W 8411   0.950   5.866   1.976  0.3323 -0.4077  0.1822
 4893W        W 8412   5.710   3.571   9.488 -0.2765 -0.1084  0.0212
 4894W        W 8413   5.538   6.155  12.039 -0.0271  0.2954 -0.1802
 4895W        W 8414   6.937   3.658   9.611  0.1647 -0.0587  0.0843
 4896W        W 8415   5.847   1.026   1.075  0.4642  0.1248  0.4074
 4897W        W 8416   6.137   0.765   8.039  0.0536 -0.0897  0.3050
 4898W        W 8417   3.753   4.571  10.724 -0.2179 -0.0120  0.2733
 4899W        W 8418   9.737   9.217   8.919  0.0646 -0.1991 -0.2388
 4900W        W 8419   2.092   6.458   0.034 -0.0566  0.0230 -0.1945
 4901W        W 8420   5.698   5.001   1.771 -0.2024  0.0236 -0.3351
 4902W        W 8421   8.163   1.715   0.674  0.1200  0.3064  0.3891
 4903W        W 8422   5.158   4.593   0.449  0.0172 -0.4351  0.2194
 4904W        W 8423   2.073   0.497   3.435  0.1940 -0.1118 -0.1800
 4905W        W 8424   0.330   0.660   8.852 -0.2030  0.0420 -0.4290
 4906W        W 8425   7.367   9.200   9.205  0.0260 -0.1582  0.0043
 4907W        W 8426   6.552   8.236   1.108  0.1406  0.0458  0.0983
 4908W        W 8427   3.084   2.003   2.429 -0.0212  0.0686 -0.0543
 4909W        W 8428   8.856   7.868  10.319  0.1335 -0.0835  0.2306
 4910W        W 8429   9.498   8.160   9.158  0.1059  0.0175  0.4955
 4911W        W 8430   0.531   2.556  10.932  0.3697 -0.1460 -0.0333
 4912W        W 8431   3.280   2.953   8.497  0.1714 -0.1795 -0.0847
 4913W        W 8432   9.618   8.377   0.516 -0.0897  0.1589  0.2756
 4914W        W 8433   3.911   1.205  12.316  0.0530  0.0635  0.0962
 4915W        W 8434   5.983   1.246   8.159 -0.3962  0.1150  0.1446
 4916W        W 8435   2.900   8.297   3.666  0.0888  0.0568 -0.1823
 4917W        W 8436   4.374   4.389   3.220  0.1350 -0.0048  0.0981
 4918W        W 8437   3.202   6.906   1.050 -0.1524  0.0678 -0.2181
 4919W        W 8438   0.832   0.838   3.661  0.2766 -0.1036  0.1451
 4920W        W 8439   1.559   8.688   2.556  0.0241  0.1296 -0.1687
 4921W        W 8440   5.310   9.583   8.109 -0.0593 -0.1598  0.0404
 4922W        W 8441   0.696   1.737   3.351  0.2239 -0.2352 -0.2686
 4923W        W 8442   4.544   4.811  10.016  0.0470 -0.1656 -0.1137
 4924W        W 8443   0.962   0.070   1.926 -0.2603  0.4802  0.0744
 4925W        W 8444   9.440   4.631   2.500 -0.0630 -0.0533  0.1299
 4926W        W 8445   4.873   5.379  11.461 -0.2916  0.1463 -0.1835
 4927W        W 8446   2.217   6.046  10.644 -0.0503 -0.2445  0.0352
 4928W        W 8447   0.417   3.546   2.001 -0.0110  0.2268  0.3184
 4929W        W 8448   8.967   2.121  11.029 -0.0592 -0.1496  0.4586
 4930W        W 8449   1.331   7.832  11.304  0.1434 -0.1778  0.1022
 4931W        W 8450   1.154   5.029   1.141  0.0177  0.1443 -0.0278
 4932W        W 8451   4.719   5.890  11.846  0.2267 -0.2277  0.1603
 4933W        W 8452   4.189   1.481   2.389  0.0662  0.1330  0.1626
 4934W        W 8453   0.396   1.510   3.013 -0.1538  0.4546  0.1440
 4935W        W 8454   7.819   0.637  12.283  0.0556 -0.3526 -0.0745
 4936W        W 8455   3.917   2.648  10.574 -0.0483 -0.4954  0.1891
 4937W        W 8456   1.988   0.484   8.542 -0.0099 -0.0706 -0.2284
 4938W        W 8457   8.622   6.167   4.596 -0.0289  0.0280  0.1728
 4939W        W 8458   5.893   1.585   3.030 -0.1017 -0.6838  0.0330
 4940W        W 8459   5.860   2.173   1.887  0.2368  0.3944  0.0260
 4941W        W 8460   4.138   9.430   3.809  0.1837  0.2502 -0.1561
 4942W        W 8461   9.391   8.223   0.975  0.0444  0.1247  0.2554
 4943W        W 8462   6.843   0.146   1.771  0.0146 -0.2225  0.2064
 4944W        W 8463   0.160   5.582   1.527 -0.1164  0.0114 -0.0955
 4945W        W 8464   1.421   2.968   3.223  0.2737  0.0444 -0.4450
 4946W        W 8465   1.848   0.896   9.624  0.1902  0.0088  0.2331
 4947W        W 8466   5.294   5.187   8.038  0.2266  0.1993 -0.0601
 4948W        W 8467   7.418   6.562  10.074 -0.1403 -0.0028  0.0697
 4949W        W 8468   8.036   0.300   2.161 -0.2230 -0.1047  0.0401
 4950W        W 8469   6.366   6.619   9.160 -0.0873  0.1333 -0.0688
 4951W        W 8470   3.439   7.878  10.358  0.2127 -0.0025  0.1386
 4952W        W 8471   9.591   8.743  10.211  0.1049  0.1758  0.0735
 4953W        W 8472   1.622   5.031  10.925  0.2897 -0.3175 -0.1782
 4954W        W 8473   6.914   9.003   0.517  0.1912 -0.0020 -0.0786
 4955W        W 8474   4.648   8.052   8.528 -0.2163 -0.1440  0.1013
 4956W        W 8475   2.373   3.315   2.952 -0.0114 -0.1740 -0.2835
 4957W        W 8476   4.502   4.567  11.873 -0.0153 -0.2515 -0.3388
 4958W        W 8477   7.970   4.315   4.014 -0.1183  0.1490 -0.3888
 4959W        W 8478   3.746   4.361   1.158 -0.1270  0.1394  0.0547
 4960W        W 8479   4.625   8.634  11.432  0.0461  0.0899  0.0401
 4961W        W 8480   9.680   8.974   2.574 -0.0191 -0.2355 -0.1244
 4962W        W 8481   6.380   5.805   4.153  0.2361  0.1914 -0.0665
 4963W        W 8482   3.338   8.258  12.064 -0.0198  0.0245 -0.1560
 4964W        W 8483   8.666   1.020  11.845 -0.3006 -0.0730 -0.2862
 4965W        W 8484   2.320   1.888   0.048  0.0536  0.2374 -0.0148
 4966W        W 8485   1.331   9.757   8.969  0.2995 -0.0476  0.0810
 4967W        W 8486   5.010   0.233   4.053 -0.0747  0.0219 -0.0186
 4968W        W 8487   9.582   3.830   4.090 -0.1821 -0.1456 -0.1399
 4969W        W 8488   0.154   4.584   2.366  0.3565  0.1342  0.0701
 4970W        W 8489   6.166   9.120   0.555 -0.2126 -0.0855  0.3332
 4971W        W 8490   2.924   1.453   2.732 -0.0949 -0.2594 -0.0788
 4972W        W 8491   1.574   1.450   1.925 -0.0673 -0.2020 -0.0529
 4973W        W 8492   7.170   2.510  10.525 -0.1648 -0.2298 -0.0191
 4974W        W 8493   6.429   9.085   8.430  0.0480 -0.0800 -0.1653
 4975W        W 8494   3.791   2.464   2.783 -0.0417 -0.3135 -0.1177
 4976W        W 8495   7.840   6.514   0.050  0.4155 -0.1079  0.0549
 4977W        W 8496   1.603   3.771   2.986 -0.0400 -0.0208  0.0624
 4978W        W 8497   6.810   8.285  12.143 -0.0049  0.1522  0.1488
 4979W        W 8498   0.551   9.515   7.904 -0.0455 -0.0179  0.0433
 4980W        W 8499   5.896   9.379   0.853  0.0532  0.2566 -0.2808
 4981W        W 8500   8.615   9.412   1.075  0.1930 -0.0276  0.0122
 4982W        W 8501   4.221   8.962   1.868 -0.0608 -0.0378  0.0995
 4983W        W 8502   1.076   7.428   9.234  0.0188  0.0677 -0.1203
 4984W        W 8503   5.005   0.082   9.923 -0.0247  0.1128 -0.0359
 4985W        W 8504   3.601   0.933   2.989 -0.1195  0.0656  0.0309
 4986W        W 8505   4.952   3.047   7.776  0.1189  0.1373 -0.1394
 4987W        W 8506   9.139   3.286  11.235 -0.2340  0.0598  0.2567
 4988W        W 8507   7.553   6.739  11.527  0.0545  0.0603 -0.0235
 4989W        W 8508   2.203   5.437   2.591  0.1719 -0.2402  0.2272
 4990W        W 8509   9.697   8.821   1.398  0.0369 -0.0026 -0.0825
 4991W        W 8510   1.419   3.723   8.970 -0.0357  0.1611 -0.2300
 4992W        W 8511   5.731   6.536   3.623 -0.1998 -0.0551  0.1889
 4993W        W 8512   0.671   0.646   0.506 -0.0617 -0.0935  0.1864
 4994W        W 8513   8.282   7.709   4.457 -0.0929 -0.0081  0.0814
 4995W        W 8514   2.863   1.141   9.226  0.0578  0.1761  0.2185
 4996W        W 8515   8.131   7.186  10.129  0.1184  0.0663 -0.0738
 4997W        W 8516   9.613   1.551  10.373 -0.3832 -0.0693  0.0518
 4998W        W 8517   0.723   2.442   1.734  0.0787  0.3532  0.0659
 4999W        W 8518   3.395   0.573   0.047 -0.2415  0.1005  0.0101
 5000W        W 8519   9.104   1.392   9.482 -0.0599  0.0916 -0.0967
 5001W        W 8520   6.626   6.878   9.539  0.0937 -0.0936  0.1580
 5002W        W 8521   4.477   1.277   2.112  0.1335  0.1422  0.2152
 5003W        W 8522   6.099   7.415   2.746 -0.2181 -0.1185 -0.0311
 5004W        W 8523   5.225   7.341  11.310  0.1289 -0.2019  0.0140
 5005W        W 8524   2.329   4.780  12.283  0.3372  0.2723  0.2989
 5006W        W 8525   5.442   3.078   2.056  0.2688  0.1935 -0.0062
 5007W        W 8526   6.370   5.972   2.938  0.0990  0.0423  0.0416
 5008W        W 8527   3.852   3.506  10.009  0.1226  0.1966  0.2546
 5009W        W 8528   8.676   8.825   0.489 -0.0056  0.0043 -0.1885
 5010W        W 8529   6.087   3.514   1.029 -0.1694  0.2488 -0.1492
 5011W        W 8530   7.762   5.599   0.481 -0.2098 -0.0645  0.2943
 5012W        W 8531   3.305   3.589   9.854  0.1486 -0.2347 -0.0341
 5013W        W 8532   3.771   5.105  10.709 -0.0752  0.0665  0.0269
 5014W        W 8533   6.572   2.255   1.089  0.0498  0.1145  0.2684
 5015W        W 8534   8.166   1.733  10.257 -0.1462  0.0403 -0.2203
 5016W        W 8535   7.589   2.557   3.905  0.0440 -0.1650 -0.0996
 5017W        W 8536   4.164   7.323  11.570 -0.1587 -0.0769  0.0080
 5018W        W 8537   9.461   3.380   1.047  0.1564 -0.0297 -0.0907
 5019W        W 8538   3.819   4.784   4.003  0.0412  0.0729 -0.0932
 5020W        W 8539   8.962   0.820   8.457 -0.1797 -0.0916 -0.0869
 5021W        W 8540   1.577   8.982   3.727 -0.1797  0.2957 -0.0811
 5022W        W 8541   9.474   4.076   0.527  0.0544  0.1519 -0.0517
 5023W        W 8542   7.178   7.366   3.429 -0.1745 -0.1167 -0.0275
 5024W        W 8543   7.901   2.957  11.205 -0.0912 -0.0347  0.2076
 5025W        W 8544   3.091   3.338  11.211  0.0741  0.0977 -0.1263
 5026W        W 8545   3.655   5.308   1.152  0.0319  0.1619 -0.3588
 5027W        W 8546   2.146   3.994   8.428  0.0714  0.3141  0.0969
 5028W        W 8547   2.690   0.920  11.727  0.1589 -0.1206 -0.1121
 5029W        W 8548   3.468   0.590  11.555 -0.0606 -0.0600 -0.3007
 5030W        W 8549   4.119   4.697   1.393 -0.0852 -0.0455 -0.0393
 5031W        W 8550   0.050   4.674   2.846 -0.0856 -0.1771  0.0556
 5032W        W 8551   5.824   0.367   8.423  0.0940  0.0262  0.0826
 5033W        W 8552   2.385   3.511   3.480 -0.1293  0.1009 -0.0283
 5034W        W 8553   6.467   8.339   9.367  0.1025 -0.1405  0.0262
 5035W        W 8554   0.751   1.468   8.384  0.1818  0.0553  0.2532
 5036W        W 8555   7.647   0.773   2.700  0.2342 -0.0920 -0.1078
 5037W        W 8556   2.764   4.735   3.952  0.0561  0.1189 -0.0829
 5038W        W 8557   3.038   8.801   0.087  0.1749 -0.0720  0.1019
 5039W        W 8558   0.524   9.741   9.982 -0.1698 -0.0068 -0.0514
 5040W        W 8559   5.689   6.302   2.417  0.3119 -0.0062 -0.1422
 5041W        W 8560   4.960   0.148  10.473 -0.0585 -0.1082 -0.2169
 5042W        W 8561   2.031   2.919  12.249 -0.1066  0.2157 -0.1436
 5043W        W 8562   0.711   1.205   2.283 -0.0361 -0.0253 -0.1176
 5044W        W 8563   2.393   4.137   8.859 -0.2550  0.0520 -0.3841
 5045W        W 8564   9.474   3.606  10.903 -0.1538 -0.3538 -0.0862
 5046W        W 8565   5.481   2.415  11.564  0.0247  0.1197  0.0164
 5047W        W 8566   6.135   8.171  12.062 -0.1685 -0.2332 -0.0391
 5048W        W 8567   7.045   3.332   9.210 -0.1437 -0.2373  0.0651
 5049W        W 8568   2.091   7.960   8.390  0.0354  0.0862  0.1415
 5050W        W 8569   5.004   9.545   1.557 -0.0902  0.3553 -0.4493
 5051W        W 8570   3.923   0.468  11.152  0.0410  0.0334  0.0868
 5052W        W 8571   8.984   5.747   2.535 -0.0018  0.0076  0.0198
 5053W        W 8572   2.866   3.951   0.693  0.0342  0.2255  0.2095
 5054W        W 8573   2.601   3.154  11.774 -0.3767  0.0873 -0.1304
 5055W        W 8574   7.742   1.135   1.881  0.0349  0.1194  0.1369
 5056W        W 8575   3.827   2.031   1.720 -0.1940 -0.1033 -0.2583
 5057W        W 8576   5.862   4.458  10.177  0.1766 -0.2244  0.0026
 5058W        W 8577   8.971   0.835  12.179 -0.1352  0.1430  0.0011
 5059W        W 8578   4.667   6.696   0.713  0.2109 -0.0341 -0.1302
 5060W        W 8579   6.221   0.839   0.174  0.4423 -0.2336 -0.0957
 5061W        W 8580   6.982   6.488   0.679  0.0141 -0.0237  0.2313
 5062W        W 8581   3.300   3.774  11.478 -0.1642 -0.1170 -0.0815
 5063W        W 8582   7.130   9.476   0.308 -0.0351 -0.0923 -0.0954
 5064W        W 8583   6.776   6.637  10.151 -0.0612  0.0079  0.1277
 5065W        W 8584   6.462   4.097   9.082 -0.0762  0.1047 -0.0545
 5066W        W 8585   1.788   6.073   0.776  0.1305 -0.2027  0.1280
 5067W        W 8586   1.690   2.915  11.440  0.3563 -0.4349 -0.1160
 5068W        W 8587   2.771   4.272   1.967 -0.0178 -0.0080  0.1590
 5069W        W 8588   2.918   0.441   1.779  0.1027  0.1867 -0.0503
 5070W        W 8589   3.631   0.316  12.001 -0.1055 -0.1364 -0.1260
 5071W        W 8590   0.408   8.739   1.485 -0.2040 -0.0425 -0.0480
 5072W        W 8591   5.555   3.523   2.214  0.0087  0.0011 -0.0778
 5073W        W 8592   6.327   1.260   1.291  0.2899  0.0590 -0.0493
 5074W        W 8593   0.435   2.153   9.909  0.0895  0.1401 -0.1692
 5075W        W 8594   1.911   4.773   9.827 -0.1096 -0.0291  0.1206
 5076W        W 8595   4.166   0.446   3.148  0.4460 -0.1242 -0.1260
 5077W        W 8596   6.822   5.887   8.969  0.2339 -0.3012 -0.1640
 5078W        W 8597   5.059   4.960   2.906  0.0550  0.0648  0.3381
 5079W        W 8598   2.504   5.104  11.466  0.3118 -0.1229 -0.0131
 5080W        W 8599   4.620   9.545  10.571 -0.2703  0.0280  0.1957
 5081W        W 8600   4.496   3.023   0.793  0.3628 -0.0459 -0.6415
 5082W        W 8601   1.146   4.894  11.032  0.0130 -0.2719 -0.2205
 5083W        W 8602   3.278   5.584   2.602  0.0587 -0.1478 -0.1470
 5084W        W 8603   7.894   4.568   9.462 -0.0044 -0.5007 -0.0755
 5085W        W 8604   0.216   6.248  11.727  0.1623  0.1937  0.2620
 5086W        W 8605   7.071   1.903   8.487  0.1359  0.2617 -0.1670
 5087W        W 8606   7.010   0.684   4.827 -0.4156 -0.0460 -0.1510
 5088W        W 8607   7.331   2.634   2.894  0.3432  0.1619 -0.3452
 5089W        W 8608   1.256   2.787   2.767 -0.2135 -0.2310 -0.0912
 5090W        W 8609   7.307   4.667  10.785  0.0483 -0.2805 -0.1732
 5091W        W 8610   2.414   5.926   8.887 -0.1270 -0.1465  0.1871
 5092W        W 8611   1.508   0.607   8.412  0.0047  0.0066  0.1522
 5093W        W 8612   4.156   2.759   3.241 -0.0039  0.0417  0.4923
 5094W        W 8613   4.178   9.279   8.890 -0.0143 -0.3486 -0.1778
 5095W        W 8614   6.061   8.560   3.944  0.1100 -0.1021  0.3078
 5096W        W 8615   2.658   2.997   1.688  0.0551 -0.4113  0.1666
 5097W        W 8616   5.337   5.476   4.120  0.0931 -0.1590  0.0442
 5098W        W 8617   9.249   2.465   8.205  0.1413 -0.8290  0.1458
 5099W        W 8618   5.552   0.365   0.292 -0.0009  0.1278 -0.1521
 5100W        W 8619   7.022   7.206   0.089 -0.0946 -0.0875  0.0585
 5101W        W 8620   6.478   4.179  12.200  0.0396 -0.0229  0.0611
 5102W        W 8621   8.895   3.981   1.326 -0.0664  0.1357  0.3139
 5103W        W 8622   2.105   2.631  11.164 -0.2384  0.0685 -0.5160
 5104W        W 8623   5.913   4.135   8.447  0.1002 -0.2060  0.1107
 5105W        W 8624   5.961   0.430   2.251 -0.1239 -0.2666  0.4455
 5106W        W 8625   4.324   2.307  10.605  0.0220 -0.0993  0.1949
 5107W        W 8626   9.496   0.169  11.217  0.2096 -0.0834 -0.0416
 5108W        W 8627   5.906   2.745   3.024  0.1181  0.2754 -0.0309
 5109W        W 8628   0.393   4.287  11.334 -0.3502 -0.3135  0.1111
 5110W        W 8629   5.190   1.097   1.450  0.0167  0.1950  0.1101
 5111W        W 8630   7.435   2.425   0.425  0.3905 -0.0582 -0.1370
 5112W        W 8631   6.815   3.563  11.516  0.1471 -0.0023  0.3354
 5113W        W 8632   1.691   6.008  11.692  0.2519 -0.3297  0.0882
 5114W        W 8633   7.081   0.168   8.573 -0.2154 -0.2655  0.0773
 5115W        W 8634   0.051   2.681  11.053  0.1685  0.1484  0.0343
 5116W        W 8635   7.787   8.090   9.591  0.0117 -0.4749 -0.1143
 5117W        W 8636   9.578   9.664   8.753 -0.1281 -0.1933 -0.2161
 5118W        W 8637   4.879   7.199   2.640  0.3616  0.3172  0.2555
 5119W        W 8638   1.892   4.634   1.925 -0.4362  0.2354  0.2193
 5120W        W 8639   6.931   7.369   7.951  0.1021  0.0222  0.2465
 5121W        W 8640   4.245   7.838   3.638 -0.2049 -0.1561 -0.2038
 5122W        W 8641   4.388   0.594  11.850 -0.2320 -0.1471  0.2049
 5123W        W 8642   7.313   4.742   2.315  0.2215  0.1118 -0.0385
 5124W        W 8643   3.603   7.484   1.714 -0.0885 -0.0428  0.4462
 5125W        W 8644   5.307   1.614   0.938  0.4386 -0.0842 -0.1042
 5126W        W 8645   4.286   3.960   1.896 -0.0406  0.1367  0.1009
 5127W        W 8646   0.182   3.595   2.691 -0.0648  0.0819  0.0950
 5128W        W 8647   7.919   0.705   3.772  0.1088 -0.2807 -0.3230
 5129W        W 8648   6.790   5.038   8.649 -0.1708 -0.1446  0.1270
 5130W        W 8649   4.790   3.717   9.227  0.0795  0.1175 -0.0574
 5131W        W 8650   6.549   9.366  11.797 -0.2543 -0.2147 -0.2268
 5132W        W 8651   2.868   5.960  10.502 -0.0308 -0.0046  0.0192
 5133W        W 8652   2.921   8.271  10.548 -0.0912  0.0107  0.4452
 5134W        W 8653   8.078   6.929   3.844  0.0799  0.1211 -0.0082
 5135W        W 8654   9.522   5.222  10.471  0.0213  0.1393  0.0299
 5136W        W 8655   7.909   7.700   0.629  0.1244  0.0619 -0.1114
 5137W        W 8656   4.742   2.981   2.447  0.0138  0.0505  0.3564
 5138W        W 8657   5.675   4.987   1.138 -0.3047  0.1880  0.0455
 5139W        W 8658   4.236   7.091   0.776  0.4829 -0.1025  0.2297
 5140W        W 8659   6.569   7.501   8.238 -0.0850  0.1822  0.1111
 5141W        W 8660   8.830   2.032   0.468 -0.0595 -0.0223  0.0597
 5142W        W 8661   6.588   5.825   1.802  0.0222 -0.0899 -0.1063
 5143W        W 8662   8.700   1.711   8.995 -0.0006 -0.0734 -0.0248
 5144W        W 8663   8.108   2.142  10.548  0.0388  0.2644  0.0968
 5145W        W 8664   3.917   7.766  10.612 -0.0260 -0.0786 -0.1248
 5146W        W 8665   8.354   7.997   1.442  0.0889 -0.0101  0.1490
 5147W        W 8666   1.341   1.616   2.742 -0.0801 -0.0448 -0.1520
 5148W        W 8667   4.804   1.289   9.533  0.0458  0.2884  0.0211
 5149W        W 8668   6.302   0.947  11.885  0.1456 -0.2553  0.5052
 5150W        W 8669   4.463   4.506   9.486 -0.3044  0.2507 -0.1197
 5151W        W 8670   2.227   6.849   1.776  0.1340 -0.2739 -0.3008
 5152W        W 8671   8.556   3.887   0.955 -0.2529 -0.2559  0.3806
 5153W        W 8672   8.706   9.638   3.437 -0.1413  0.1314  0.2028
 5154W        W 8673   8.509   6.267   2.025  0.1046  0.0349  0.0986
 5155W        W 8674   9.351   3.764   1.445 -0.1086  0.0125 -0.1797
 5156W        W 8675   5.999   8.416   1.034  0.0819 -0.1677 -0.0291
 5157W        W 8676   1.309   9.560   8.465 -0.1510  0.1978 -0.0218
 5158W        W 8677   7.506   8.409   9.298  0.3267  0.1355 -0.2322
 5159W        W 8678   9.312   6.907   1.691 -0.0030  0.0516  0.0177
 5160W        W 8679   2.507   7.691   0.906 -0.1725 -0.1569  0.0583
 5161W        W 8680   9.293   0.294   8.991  0.1231  0.1530  0.0248
 5162W        W 8681   1.214   8.244  10.660 -0.2022 -0.1297 -0.0725
 5163W        W 8682   7.376   5.699   3.254 -0.4591 -0.2041 -0.0788
 5164W        W 8683   8.346   6.044   3.275  0.1159  0.0739 -0.0762
 5165W        W 8684   6.934   0.915   3.770 -0.0932 -0.1560  0.1255
 5166W        W 8685   3.969   5.718   3.676 -0.1051  0.2314  0.1309
 5167W        W 8686   6.656   9.765   2.209  0.3668  0.3659 -0.3180
 5168W        W 8687   5.002   0.383   2.066  0.1574 -0.1531 -0.0023
 5169W        W 8688   1.420   0.128  11.336 -0.3138  0.1813  0.1242
 5170W        W 8689   4.522   0.697   4.316  0.1897 -0.1157  0.3882
 5171W        W 8690   3.226   2.472   0.004 -0.2540 -0.0200 -0.1883
 5172W        W 8691   5.335   3.481   8.989 -0.1100  0.2694 -0.4986
 5173W        W 8692   1.308   6.448  10.318  0.3700 -0.2085  0.2633
 5174W        W 8693   3.903   0.132   3.526  0.0433  0.1127  0.2781
 5175W        W 8694   7.397   3.348   2.095  0.2401  0.0641  0.1364
 5176W        W 8695   8.345   7.461   0.472 -0.0634  0.2653  0.1268
 5177W        W 8696   8.950   7.990   1.382 -0.4037  0.3361 -0.0570
 5178W        W 8697   9.155   8.773   3.272 -0.0241 -0.2029 -0.0161
 5179W        W 8698   4.013   6.860   2.232 -0.2005  0.1458  0.1028
 5180W        W 8699   2.410   8.336   3.602  0.0829  0.2678  0.1590
 5181W        W 8700   5.641   9.385   2.861 -0.1291  0.3280  0.3896
 5182W        W 8701   7.371   0.130   3.385  0.0907 -0.0377  0.2420
 5183W        W 8702   3.629   8.444   0.606  0.1451  0.3194  0.0450
 5184W        W 8703   0.004   8.680   0.114 -0.1009  0.2593  0.1611
 5185W        W 8704   8.960   8.026   3.254  0.1488 -0.0919  0.1146
 5186W        W 8705   4.993   2.659   8.448 -0.1379 -0.2738  0.2387
 5187W        W 8706   2.271   2.055   2.767 -0.0935  0.0901 -0.1343
 5188W        W 8707   3.267   5.626   2.077 -0.0980 -0.0403  0.0839
 5189W        W 8708   1.150   8.567   3.489  0.0077 -0.2353  0.1813
 5190W        W 8709   4.118   4.652   8.597  0.0135  0.1727 -0.3355
 5191W        W 8710   3.192   2.335   2.872 -0.0341  0.0532  0.1602
 5192W        W 8711   3.304   4.487  10.370  0.5037  0.0593  0.0292
 5193W        W 8712   2.783   7.937   9.174  0.1848 -0.0446  0.0086
 5194W        W 8713   0.214   2.185  11.088  0.0223  0.0581  0.0423
 5195W        W 8714   4.819   4.569   9.133 -0.0330  0.0803  0.0790
 5196W        W 8715   1.137   8.105   9.319  0.1139 -0.0449  0.2356
 5197W        W 8716   8.148   8.144  11.909  0.1760 -0.2973  0.3913
 5198W        W 8717   5.610   5.230   9.798  0.0341 -0.0116  0.1146
 5199W        W 8718   1.864   8.521  11.754 -0.1682  0.2706 -0.0859
 5200W        W 8719   2.617   6.349   2.543 -0.3967  0.0290  0.0042
 5201W        W 8720   2.469   7.374  10.192 -0.2384 -0.0593  0.0663
 5202W        W 8721   5.597   6.948   9.081  0.3648 -0.0892  0.3092
 5203W        W 8722   1.934   7.464  10.103  0.0407  0.0293 -0.2724
 5204W        W 8723   8.717   3.550   2.106  0.2950  0.0233  0.0626
 5205W        W 8724   3.040   7.802   2.476 -0.2665 -0.1433  0.0569
 5206W        W 8725   9.492   2.028   3.064 -0.0218 -0.0709  0.3092
 5207W        W 8726   8.334   2.467   2.873 -0.2192 -0.1013  0.1174
 5208W        W 8727   6.470   3.098   3.303  0.0225  0.1415 -0.1502
 5209W        W 8728   9.485   0.691  11.360 -0.0500 -0.2368 -0.2447
 5210W        W 8729   8.290   8.271   3.521 -0.1191  0.0359  0.0756
 5211W        W 8730   4.903   8.986  11.207 -0.2897 -0.0911  0.0383
 5212W        W 8731   9.580   2.983  10.002  0.1163 -0.0245  0.0278
 5213W        W 8732   6.120   1.144   3.023 -0.0698  0.1036 -0.0603
 5214W        W 8733   8.478   3.576   8.112  0.0451 -0.1679  0.2539
 5215W        W 8734   9.059   5.747  11.085 -0.2534 -0.1023 -0.2196
 5216W        W 8735   6.063   8.019   3.863 -0.2287  0.1865 -0.1223
 5217W        W 8736   0.984   7.491   1.144 -0.1288 -0.0455  0.2432
 5218W        W 8737   8.609   8.367  11.359 -0.3017 -0.0012  0.0360
 5219W        W 8738   5.332   0.520  11.122  0.1772  0.0368 -0.2554
 5220W        W 8739   4.911   8.957   9.168  0.1132  0.2861 -0.1012
 5221W        W 8740   4.994   2.900  11.039  0.0693  0.0909 -0.0509
 5222W        W 8741   8.012   0.670   8.898 -0.2375 -0.0865  0.2095
 5223W        W 8742   6.902   3.413   3.023 -0.2414  0.0247  0.2432
 5224W        W 8743   7.249   4.762   0.096 -0.2064 -0.1514 -0.1692
 5225W        W 8744   8.543   0.084  10.156 -0.0541 -0.0052 -0.0999
 5226W        W 8745   4.709   3.939   2.398 -0.1223  0.1678  0.2087
 5227W        W 8746   0.281   3.877  12.285 -0.0473 -0.0455  0.1660
 5228W        W 8747   5.567   0.790   1.404 -0.1442 -0.0619 -0.2330
 5229W        W 8748   8.286   8.208  10.781  0.4202 -0.1106  0.0538
 5230W        W 8749   7.060   9.054  10.501  0.3718  0.0172  0.1361
 5231W        W 8750   3.859   5.707  11.274 -0.3484 -0.1584 -0.0156
 5232W        W 8751   4.787   0.389   0.567 -0.3226 -0.1189 -0.0896
 5233W        W 8752   8.555   6.091   1.548  0.1205  0.0941 -0.0740
 5234W        W 8753   1.291   4.410  10.708 -0.0054  0.2110  0.3387
 5235W        W 8754   8.018   9.638   1.155 -0.0016  0.1853  0.2650
 5236W        W 8755   0.304   2.214   1.242  0.0807  0.0148 -0.0813
 5237W        W 8756   0.256   9.583   8.837  0.0198 -0.4093 -0.3644
 5238W        W 8757   0.315   3.066   8.900 -0.1503 -0.0396 -0.3805
 5239W        W 8758   8.091   1.395   0.288 -0.0964  0.3311  0.4018
 5240W        W 8759   7.681   8.198   2.710  0.0166  0.3534 -0.1005
 5241W        W 8760   8.059   3.111   9.728  0.0293  0.1661  0.1638
 5242W        W 8761   8.727   5.843   3.007  0.1162  0.0747 -0.1284
 5243W        W 8762   4.131   9.538   0.609 -0.1279 -0.2311  0.1550
 5244W        W 8763   3.758   8.438  11.022 -0.1866  0.3205 -0.0096
 5245W        W 8764   0.589   2.654  10.056 -0.2098 -0.2732 -0.0394
 5246W        W 8765   4.184   5.754   9.321  0.3416 -0.3587 -0.2196
 5247W        W 8766   1.421   5.600   9.815  0.2532 -0.1274 -0.0148
 5248W        W 8767   3.442   5.764   1.108  0.1271  0.1074  0.1003
 5249W        W 8768   1.060   8.304   1.198 -0.0966 -0.0421  0.0297
 5250W        W 8769   1.327   9.775  10.879 -0.0542 -0.2394  0.1609
 5251W        W 8770   4.969   1.800   3.112  0.3936 -0.0262 -0.2225
 5252W        W 8771   1.314   5.440  11.063  0.3148 -0.1670 -0.1041
 5253W        W 8772   2.963   1.874   9.869 -0.0891 -0.1233 -0.0632
 5254W        W 8773   5.643   9.249   4.346 -0.0409  0.2193  0.0511
 5255W        W 8774   8.053   7.626   9.778  0.0658  0.4031 -0.0343
 5256W        W 8775   5.183   5.815  11.582 -0.0027 -0.2927 -0.6261
 5257W        W 8776   6.308   0.874  11.355  0.1437  0.0618 -0.1215
 5258W        W 8777   6.545   6.744  11.551  0.0069 -0.4368  0.3684
 5259W        W 8778   8.535   2.698   9.038 -0.1192  0.1850  0.1089
 5260W        W 8779   6.045   2.281   3.197 -0.2463 -0.0905 -0.1018
 5261W        W 8780   1.355   0.116   3.724 -0.1344 -0.1768 -0.0257
 5262W        W 8781   2.151   0.203  10.416  0.3165 -0.0485  0.1201
 5263W        W 8782   1.190   6.655   1.713 -0.1097 -0.1850 -0.3903
 5264W        W 8783   5.726   6.668   4.109  0.2119 -0.0917  0.3235
 5265W        W 8784   1.965   2.908   0.848 -0.5404  0.0088 -0.0482
 5266W        W 8785   5.837   1.418   9.623 -0.0683 -0.0584 -0.0314
 5267W        W 8786   2.225   3.574  11.730  0.0858  0.0426 -0.0969
 5268W        W 8787   1.079   2.614   4.602  0.0809 -0.2251 -0.1174
 5269W        W 8788   5.115   4.980  10.237  0.0080  0.0226 -0.0301
 5270W        W 8789   5.608   8.373  11.072  0.2581  0.0426  0.2837
 5271W        W 8790   5.954   6.376   1.270 -0.2030  0.0626 -0.0851
 5272W        W 8791   8.806   1.381   2.485  0.2865  0.2104  0.1798
 5273W        W 8792   2.302   0.637   9.591 -0.3707  0.1393  0.0603
 5274W        W 8793   2.618   9.223   3.472  0.3843 -0.0258  0.0144
 5275W        W 8794   6.130   5.341   0.276  0.1310 -0.1803 -0.2269
 5276W        W 8795   7.095   7.537   0.973 -0.1024 -0.2380  0.0511
 5277W        W 8796   4.338   5.068   0.434 -0.0387  0.1304  0.0426
 5278W        W 8797   2.086   9.503  10.436  0.1812  0.0723 -0.0382
 5279W        W 8798   7.309   2.693   9.641  0.3423  0.1027 -0.2270
 5280W        W 8799   2.338   7.136  11.515  0.0921 -0.0617 -0.1246
 5281W        W 8800   0.129   4.391   1.381  0.0533 -0.1449  0.0091
 5282W        W 8801   7.515   5.859  10.194  0.1002 -0.0280 -0.0809
 5283W        W 8802   6.009   8.433   2.930  0.2268 -0.1588 -0.0633
 5284W        W 8803   4.436   7.330  11.047 -0.0823 -0.1588  0.0943
 5285W        W 8804   5.109   9.216  11.631 -0.1852 -0.2346  0.0584
 5286W        W 8805   1.454   2.192   2.765  0.0884  0.2080  0.1266
 5287W        W 8806   9.096   0.771  10.585  0.1016  0.1155 -0.0868
 5288W        W 8807   9.311   0.624   9.411  0.0273 -0.2448 -0.1322
 5289W        W 8808   7.125   1.769   7.557 -0.1920 -0.3112  0.0735
 5290W        W 8809   5.857   4.221   8.975  0.2371 -0.0285 -0.3538
 5291W        W 8810   0.475   5.202   2.746 -0.0847  0.0053 -0.0822
 5292W        W 8811   2.737   4.414   3.508  0.1023 -0.2071  0.2314
 5293W        W 8812   8.251   3.673   1.921  0.0380 -0.0038  0.1221
 5294W        W 8813   6.333   5.957  11.031 -0.2312  0.0700  0.0560
 5295W        W 8814   9.742   4.796  10.594 -0.1502  0.1030  0.1516
 5296W        W 8815   3.174   9.121  11.523 -0.0981  0.0336  0.0288
 5297W        W 8816   7.361   2.775  11.786 -0.3209 -0.2120  0.1388
 5298W        W 8817   3.029   8.108  11.671  0.1862 -0.2811 -0.1615
 5299W        W 8818   5.116   4.870  10.795  0.0236 -0.0946  0.0179
 5300W        W 8819   1.213   8.958   9.596  0.0705 -0.2473  0.0244
 5301W        W 8820   2.656   1.516   9.532  0.0606 -0.4146  0.0472
 5302W        W 8821   9.596   0.821   9.787  0.1197  0.1803  0.1060
 5303W        W 8822   8.131   2.704   4.557 -0.0662 -0.5308 -0.5249
 5304W        W 8823   2.836   4.645   1.634 -0.2051 -0.0720 -0.0734
 5305W        W 8824   8.295   5.618   1.707 -0.0188  0.0006 -0.1486
 5306W        W 8825   3.803   2.092  10.531 -0.0223  0.0402 -0.0529
 5307W        W 8826   5.229   3.140   1.283  0.1337  0.0368 -0.2671
 5308W        W 8827   4.911   6.266   7.617  0.0156  0.1088  0.0932
 5309W        W 8828   0.672   6.083   0.649 -0.0832 -0.1947 -0.1227
 5310W        W 8829   4.469   2.564   0.943  0.2155  0.0139  0.1261
 5311W        W 8830   3.718   9.602  11.981  0.1922 -0.1079 -0.1811
 5312W        W 8831   4.640   4.157   9.773  0.2491 -0.4304 -0.2797
 5313W        W 8832   2.619   8.112   1.635  0.0196  0.0305  0.0266
 5314W        W 8833   2.871   8.624  10.172 -0.0367 -0.3956 -0.1241
 5315W        W 8834   4.162   1.761  10.713 -0.0365 -0.0717 -0.3438
 5316W        W 8835   9.655   8.224  11.028 -0.0861 -0.2326  0.1871
 5317W        W 8836   6.134   2.231  11.512 -0.0448  0.2026 -0.0630
 5318W        W 8837   0.360   6.501  11.331 -0.0651  0.1272  0.0409
 5319W        W 8838   2.562   2.117   8.857  0.0490 -0.0727  0.0364
 5320W        W 8839   5.834   7.884   2.664 -0.0886 -0.3049 -0.2234
 5321W        W 8840   2.333   0.075   0.074  0.1890  0.2794  0.0344
 5322W        W 8841   6.793   6.539   2.345 -0.0138  0.0050  0.0486
 5323W        W 8842   5.969   6.852  11.736  0.1389 -0.0094  0.1834
 5324W        W 8843   1.232   1.322   4.102  0.0642  0.3318  0.1788
 5325W        W 8844   9.549   8.681   9.244  0.3969  0.3618  0.2664
 5326W        W 8845   6.574   8.106   3.867 -0.0766  0.1236 -0.0462
 5327W        W 8846   5.189   9.619   4.775 -0.3741 -0.0171 -0.0934
 5328W        W 8847   2.046   9.312  11.205  0.0336 -0.1586  0.0206
 5329W        W 8848   4.337   1.274   8.921  0.0497 -0.1820  0.6085
 5330W        W 8849   5.617   8.691   8.918  0.2399  0.0363 -0.0238
 5331W        W 8850   8.900   3.447   1.113 -0.0740 -0.0108  0.0588
 5332W        W 8851   1.030   3.380   2.753 -0.2852 -0.0613  0.0218
 5333W        W 8852   1.222   8.596   0.164  0.5166  0.0684 -0.1197
 5334W        W 8853   1.298   8.326   0.660  0.0073  0.1614 -0.1300
 5335W        W 8854   9.008   0.826   3.194  0.0649  0.2414  0.2229
 5336W        W 8855   1.285   5.702  11.479 -0.0080  0.3308 -0.0679
 5337W        W 8856   6.496   8.150   8.270 -0.2043  0.0294 -0.0382
 5338W        W 8857   6.005   6.029   3.638  0.1084 -0.0755  0.4237
 5339W        W 8858   3.073   2.754  10.254  0.0722 -0.1723 -0.3245
 5340W        W 8859   1.748   6.677   3.288 -0.0657  0.1290 -0.1105
 5341W        W 8860   1.319   6.954   2.748  0.1592  0.0994 -0.0427
 5342W        W 8861   9.626   1.422   2.044  0.4306 -0.0100 -0.0910
 5343W        W 8862   8.573   9.343  12.107  0.2721  0.3131 -0.1815
 5344W        W 8863   4.245   8.480   2.074 -0.0345 -0.0769 -0.0191
 5345W        W 8864   3.472   8.083  10.794 -0.1368 -0.0975 -0.0894
 5346W        W 8865   9.071   0.324   2.760 -0.0910 -0.0376 -0.0244
 5347W        W 8866   9.523   9.698   9.785  0.0536 -0.0807  0.1822
 5348W        W 8867   4.864   4.282   3.237 -0.0233  0.0255  0.0412
 5349W        W 8868   8.705   7.506   2.765  0.1860 -0.2568 -0.2669
 5350W        W 8869   2.450   6.156   3.027 -0.0962 -0.1255 -0.1084
 5351W        W 8870   1.031   0.675   9.475  0.4136 -0.0109 -0.3614
 5352W        W 8871   6.725   4.070   2.789  0.0843  0.3121  0.1338
 5353W        W 8872   0.212   1.167   8.977 -0.1382  0.1709 -0.2781
 5354W        W 8873   2.827   0.494   9.801  0.0147  0.2120 -0.1324
 5355W        W 8874   7.232   3.462   8.761  0.3072 -0.2263 -0.0246
 5356W        W 8875   7.858   7.259   2.739  0.1157  0.0258 -0.0639
 5357W        W 8876   2.749   7.461  11.111  0.0887 -0.1257 -0.1576
 5358W        W 8877   9.243   5.793   1.557 -0.0534 -0.4589 -0.1188
 5359W        W 8878   5.423   2.906   3.736 -0.0832 -0.0082 -0.0547
 5360W        W 8879   2.258   7.881   1.272  0.1255  0.0095 -0.4418
 5361W        W 8880   5.584   0.704   7.422  0.0327 -0.0703 -0.2129
 5362W        W 8881   5.881   6.632   2.728 -0.2350 -0.2388 -0.3673
 5363W        W 8882   0.202   0.130   3.407  0.1795  0.0166  0.1752
 5364W        W 8883   7.770   1.091   1.363 -0.1869 -0.5203  0.0052
 5365W        W 8884   6.242   6.696   0.191  0.1742  0.0246 -0.1871
 5366W        W 8885   2.433   8.118   0.263  0.0242 -0.0260 -0.2194
 5367W        W 8886   7.790   1.172   2.359 -0.1832  0.1026 -0.3206
 5368W        W 8887   4.838   8.108   9.032 -0.3150  0.1045 -0.0079
 5369W        W 8888   8.821   1.199  11.416  0.3287 -0.0458  0.2437
 5370W        W 8889   1.720   6.732   2.625  0.2572 -0.2308  0.0961
 5371W        W 8890   3.172   3.228   8.920  0.0940  0.0388  0.1347
 5372W        W 8891   7.788   1.869   0.349 -0.1532 -0.0641  0.2743
 5373W        W 8892   7.917   0.697   1.661 -0.0785 -0.1019 -0.2385
 5374W        W 8893   2.320   3.681   9.072 -0.0675  0.4732  0.1585
 5375W        W 8894   0.098   2.794   9.292 -0.0055 -0.0199  0.1078
 5376W        W 8895   4.292   5.288  10.570 -0.1586 -0.1606 -0.0795
 5377W        W 8896   2.736   1.513   1.110  0.1441  0.1223 -0.4389
 5378W        W 8897   4.329   4.348  10.122 -0.0466 -0.2637 -0.0284
 5379W        W 8898   2.640   8.030   4.058  0.3148 -0.0951  0.1266
 5380W        W 8899   5.923   3.699   2.672 -0.0762  0.0866 -0.2831
 5381W        W 8900   1.351   1.662  12.189  0.2547  0.2170 -0.1723
 5382W        W 8901   9.538   6.163  11.181  0.0749 -0.1893 -0.0499
 5383W        W 8902   5.217   6.227   2.714 -0.1660 -0.0897 -0.3727
 5384W        W 8903   4.394   7.999   2.127  0.1829  0.0418  0.3804
 5385W        W 8904   2.951   8.473   9.393 -0.0627 -0.1062  0.1066
 5386W        W 8905   7.872   0.942   9.872 -0.2205 -0.0569 -0.0396
 5387W        W 8906   6.860   0.264   2.589  0.0640 -0.1894  0.1394
 5388W        W 8907   6.209   7.024  11.276  0.4561 -0.2650  0.0898
 5389W        W 8908   7.712   4.522  11.678 -0.0795  0.1738 -0.3300
 5390W        W 8909   6.740   4.563   8.911 -0.0446  0.2166 -0.0529
 5391W        W 8910   7.493   2.911   1.614 -0.3566 -0.2054 -0.1209
 5392W        W 8911   5.160   5.122   8.605  0.2011 -0.2667  0.1560
 5393W        W 8912   7.963   1.014   0.725 -0.2476  0.1315 -0.0305
 5394W        W 8913   2.875   9.397   1.742 -0.2013  0.0843 -0.5567
 5395W        W 8914   0.907   0.400   3.424 -0.1535  0.0679  0.1252
 5396W        W 8915   2.190   2.963   3.827 -0.0321  0.3471 -0.4343
 5397W        W 8916   0.313   7.965   0.862  0.0979 -0.0930 -0.0806
 5398W        W 8917   3.581   6.804  10.299  0.1089  0.0912 -0.1813
 5399W        W 8918   5.538   7.092  11.588 -0.1603  0.0373 -0.0362
 5400W        W 8919   6.295   0.008   1.148 -0.4329  0.0389  0.1546
 5401W        W 8920   2.062   8.696   3.846 -0.2240  0.1201 -0.0810
 5402W        W 8921   7.593   3.676  10.458  0.3681  0.0634  0.0555
 5403W        W 8922   6.454   3.203  11.467  0.2819  0.1292  0.0732
 5404W        W 8923   4.240   4.726   0.088  0.0733 -0.1690 -0.1232
 5405W        W 8924   4.475   2.263   9.692  0.0805  0.2389  0.2198
 5406W        W 8925   3.484   7.611  10.863 -0.1489  0.1170  0.1563
 5407W        W 8926   2.121   5.714   2.165 -0.4551 -0.1878 -0.2078
 5408W        W 8927   2.567   9.108  10.418  0.1720  0.0166  0.0216
 5409W        W 8928   8.270   0.369  12.202 -0.0004 -0.2021 -0.0160
 5410W        W 8929   6.479   1.601   0.899 -0.2143  0.1415  0.2732
 5411W        W 8930   4.500   2.406   0.209  0.2242  0.2182  0.2835
 5412W        W 8931   0.438   5.033   4.109  0.4664 -0.2403  0.1392
 5413W        W 8932   2.098   4.798   0.469 -0.0713 -0.1575  0.3303
 5414W        W 8933   3.570   7.786   3.274 -0.3346  0.1634  0.2006
 5415W        W 8934   5.321   5.475   2.170  0.3348 -0.3769  0.1197
 5416W        W 8935   6.920   6.162  11.469  0.2968  0.0950 -0.0013
 5417W        W 8936   1.391   2.603   3.600 -0.1713  0.1339 -0.1726
 5418W        W 8937   8.370   4.191   3.113  0.0246 -0.0199 -0.1570
 5419W        W 8938   3.939   2.417   3.672 -0.1577  0.2755 -0.1260
 5420W        W 8939   6.514   7.607   4.072  0.1010 -0.4500 -0.0095
 5421W        W 8940   1.184   6.035   9.692  0.0471  0.0112 -0.2245
 5422W        W 8941   2.216   1.728   9.676 -0.2076  0.1540  0.0281
 5423W        W 8942   4.678   1.485   8.581 -0.1197 -0.2461 -0.2659
 5424W        W 8943   3.523   1.329   3.321 -0.2207 -0.1596 -0.0758
 5425W        W 8944   1.800   8.317   2.238  0.4244 -0.2173  0.2708
 5426W        W 8945   3.842   9.774   1.476 -0.0923 -0.0366 -0.4491
 5427W        W 8946   9.442   9.449   0.578  0.5038 -0.1389  0.0873
 5428W        W 8947   7.554   5.995   0.398  0.1434 -0.3157  0.1223
 5429W        W 8948   2.123   4.456   0.849  0.1911  0.2125 -0.0912
 5430W        W 8949   6.136   5.346   8.508  0.0132  0.1399 -0.3190
 5431W        W 8950   6.560   0.403   0.461 -0.3926  0.0449  0.0918
 5432W        W 8951   4.103   4.511  11.076 -0.1084  0.1968 -0.0418
 5433W        W 8952   8.703   3.215   2.977 -0.2049  0.1148 -0.1475
 5434W        W 8953   6.856   2.217   1.839 -0.2030 -0.2043 -0.2956
 5435W        W 8954   5.141   1.426   7.821  0.2687  0.2155 -0.1458
 5436W        W 8955   2.393   5.376   1.867  0.0575  0.0369  0.2211
 5437W        W 8956   4.861   4.338   1.254  0.0269  0.3732  0.2354
 5438W        W 8957   6.008   5.250   3.262 -0.5085  0.1427  0.1275
 5439W        W 8958   1.544   3.994  12.046  0.3368  0.1750  0.0429
 5440W        W 8959   9.688   5.866  11.546 -0.1928  0.3121  0.0808
 5441W        W 8960   1.582   0.612   1.655 -0.0542  0.0345  0.0468
 5442W        W 8961   6.413   6.078   9.277  0.1408 -0.0415  0.2693
 5443W        W 8962   9.535   5.730   1.153 -0.2524  0.0572 -0.0888
 5444W        W 8963   3.070   6.774   1.763  0.1465 -0.0596  0.1710
 5445W        W 8964   4.421   6.690   1.218  0.1927 -0.1492  0.3196
 5446W        W 8965   1.294   8.655   1.520  0.2491  0.0088 -0.0022
 5447W        W 8966   6.366   2.952  11.001 -0.2786 -0.0148 -0.4716
 5448W        W 8967   4.772   8.823   1.246 -0.2905  0.0581 -0.1885
 5449W        W 8968   1.033   8.044   0.256 -0.1984  0.0255  0.1712
 5450W        W 8969   2.980   9.482   1.262  0.1941  0.0320 -0.1731
 5451W        W 8970   2.343   6.591  11.180  0.1325 -0.3082 -0.0027
 5452W        W 8971   4.945   5.247   2.526  0.1001 -0.0872  0.4892
 5453W        W 8972   3.713   2.948   1.637  0.2377  0.1920 -0.0654
 5454W        W 8973   0.054   2.419   3.278 -0.1431  0.0523 -0.2137
 5455W        W 8974   7.500   9.729   9.288 -0.0454 -0.2165  0.0722
 5456W        W 8975   9.190   1.737   3.295  0.1255  0.1529  0.1492
 5457W        W 8976   7.985   1.895   4.207 -0.1721 -0.1789  0.3651
 5458W        W 8977   7.118   1.153   8.089 -0.0153  0.2312 -0.1915
 5459W        W 8978   9.135   1.564   1.187 -0.0037 -0.2494 -0.1407
 5460W        W 8979   7.529   6.333   1.825 -0.4270  0.1345 -0.0298
 5461W        W 8980   8.307   6.516   2.460 -0.2301 -0.0565  0.1088
 5462W        W 8981   6.670   6.223   0.127  0.3531  0.4076  0.3305
 5463W        W 8982   5.158   2.212   9.128 -0.0208 -0.1445  0.0273
 5464W        W 8983   7.892   6.638   9.826 -0.0517  0.2675  0.1361
 5465W        W 8984   3.688   1.614   1.977  0.1939  0.0895 -0.3299
 5466W        W 8985   3.844   6.101  10.939 -0.4023  0.0959  0.0974
 5467W        W 8986   1.725   3.487  12.285  0.0903 -0.3801  0.2527
 5468W        W 8987   7.139   4.160   9.876 -0.0858  0.2434 -0.0539
 5469W        W 8988   2.228   0.133   3.015 -0.0513 -0.0494 -0.1608
 5470W        W 8989   8.252   1.988   3.321  0.0340  0.2400 -0.0226
 5471W        W 8990   2.462   8.553  10.560  0.0944  0.2996 -0.2297
 5472W        W 8991   3.517   6.697   2.244  0.1025 -0.0130  0.3888
 5473W        W 8992   3.163   2.958   1.765 -0.0334 -0.1861  0.0611
 5474W        W 8993   4.015   6.915   9.963 -0.1388  0.1911 -0.1502
 5475W        W 8994   5.902   7.544   0.329 -0.1071 -0.0993 -0.0483
 5476W        W 8995   7.346   3.842   2.400 -0.1562  0.2464 -0.0486
 5477W        W 8996   6.313   4.421   8.736 -0.2506  0.0753  0.3494
 5478W        W 8997   1.839   2.995   9.389  0.0388 -0.2264 -0.2462
 5479W        W 8998   6.293   2.086  10.591  0.1322 -0.0458 -0.2862
 5480W        W 8999   6.327   3.397   2.483 -0.0726  0.3745  0.2913
 5481W        W 9000   0.525   8.152   1.908 -0.0833 -0.1749  0.1676
 5482W        W 9001   5.339   6.857   9.479 -0.1744 -0.3734 -0.1130
 5483W        W 9002   7.303   1.492   2.505  0.2097 -0.1289  0.3038
 5484W        W 9003   4.840   3.190   0.314 -0.1456  0.1212 -0.1073
 5485W        W 9004   2.744   4.637   0.202 -0.0302 -0.1475 -0.0009
 5486W        W 9005   7.377   2.428   1.110  0.1271  0.2315 -0.3100
 5487W        W 9006   0.246   0.160  10.888  0.0155  0.0023  0.0370
 5488W        W 9007   6.211   8.258   1.507 -0.0178 -0.0293  0.0458
 5489W        W 9008   0.332   6.432   3.139  0.2889  0.0323 -0.4594
 5490W        W 9009   3.951   8.788   3.166  0.1641  0.1091  0.2542
 5491W        W 9010   3.706   8.236   1.659 -0.0075  0.1410 -0.0091
 5492W        W 9011   4.013   3.090   9.504 -0.1694  0.1773  0.2050
 5493W        W 9012   6.456   8.613   8.573 -0.0472  0.0973 -0.0839
 5494W        W 9013   1.142   9.401   9.940 -0.0196 -0.2279  0.1459
 5495W        W 9014   1.414   4.113  10.069 -0.1230 -0.1665 -0.0301
 5496W        W 9015   3.476   6.867   3.467 -0.2105  0.0468  0.1968
 5497W        W 9016   2.164   7.209  10.562 -0.0436  0.0811 -0.0925
 5498W        W 9017   3.171   1.520   8.265  0.1648 -0.0660  0.1170
 5499W        W 9018   5.721   4.179   2.532  0.0316  0.0666  0.2151
 5500W        W 9019   0.010   9.043  12.030 -0.1111 -0.0568 -0.1669
 5501W        W 9020   8.857   2.561   0.744 -0.0992  0.1667 -0.1475
 5502W        W 9021   2.872   8.329   8.851  0.2025 -0.0370  0.3755
 5503W        W 9022   5.316   4.532   3.346  0.3047 -0.1970 -0.2110
 5504W        W 9023   0.756   8.107   2.493  0.1075  0.1318  0.0460
 5505W        W 9024   3.395   2.564   8.887  0.1864  0.3053 -0.1083
 5506W        W 9025   2.933   8.926   1.204  0.0103 -0.0147  0.2151
 5507W        W 9026   9.116   1.290  10.694  0.0524 -0.1037 -0.0960
 5508W        W 9027   7.717   0.030   0.379 -0.1776  0.0771  0.4762
 5509W        W 9028   6.863   3.563   2.583  0.1419  0.3049  0.0778
 5510W        W 9029   1.269   0.654   3.800 -0.2614  0.3391 -0.1047
 5511W        W 9030   5.005   8.237  11.977  0.0295  0.0686  0.0533
 5512W        W 9031   9.237   1.325   8.514  0.3109  0.0330  0.0909
 5513W        W 9032   1.085   1.652   0.292  0.4372 -0.0032  0.0027
 5514W        W 9033   2.582   9.286  11.328 -0.2533 -0.3006 -0.0011
 5515W        W 9034   4.011   8.009  11.594 -0.0621 -0.0541  0.1248
 5516W        W 9035   5.464   9.518  11.846  0.0214  0.4189  0.1625
 5517W        W 9036   3.966   2.700   2.332 -0.1223 -0.1185  0.1899
 5518W        W 9037   5.146   1.346   2.820  0.1761  0.0180 -0.3804
 5519W        W 9038   2.171   8.077   1.874 -0.1719 -0.0244  0.2213
 5520W        W 9039   4.291   8.962  12.279  0.1065 -0.0323  0.0414
 5521W        W 9040   4.663   0.980   7.360 -0.1153  0.2019 -0.4875
 5522W        W 9041   4.052   6.142   9.720  0.0013 -0.0969 -0.0969
 5523W        W 9042   6.922   8.758  10.063  0.1761  0.1148 -0.2974
 5524W        W 9043   8.568   7.317  11.119  0.1724 -0.1384 -0.0108
 5525W        W 9044   4.747   4.858   8.698 -0.1833 -0.0403 -0.2870
 5526W        W 9045   5.228   3.429   1.734  0.1164  0.0010 -0.0561
 5527W        W 9046   1.734   5.613   2.510 -0.2871 -0.1682 -0.2162
 5528W        W 9047   2.038   2.024   8.993 -0.1781 -0.0914  0.1592
 5529W        W 9048   3.157   3.639   8.125  0.1147  0.1200  0.1491
 5530W        W 9049   5.351   4.313   9.009  0.2266  0.1368  0.2250
 5531W        W 9050   7.002   4.348   3.083 -0.1212  0.0368  0.2602
 5532W        W 9051   0.069   0.942   0.201  0.0482 -0.3654  0.3029
 5533W        W 9052   3.335   1.491   9.076  0.1235  0.0622 -0.0624
 5534W        W 9053   2.229   0.893  12.084  0.1115 -0.0563  0.3212
 5535W        W 9054   1.148   1.522   8.073 -0.0076  0.0668  0.2443
 5536W        W 9055   7.606   6.975   4.552  0.2636  0.1056 -0.0039
 5537W        W 9056   4.653   8.556   9.389 -0.5266  0.1152  0.1492
 5538W        W 9057   1.568   1.559   8.900  0.2211  0.0204  0.2901
 5539W        W 9058   4.011   6.979   3.418 -0.0697 -0.0823 -0.4189
 5540W        W 9059   0.673   3.230   0.554 -0.1123  0.3922  0.0966
 5541W        W 9060   5.710   1.351   0.705  0.0296 -0.2508 -0.1032
 5542W        W 9061   6.454   3.626   2.902  0.3222 -0.0792  0.2230
 5543W        W 9062   9.324   6.644   3.876 -0.1578  0.3925  0.1880
 5544W        W 9063   7.835   2.545   2.855 -0.1249 -0.1900 -0.0226
 5545W        W 9064   3.374   1.593   2.403  0.2044  0.1993  0.0166
 5546W        W 9065   2.082   9.086  10.121 -0.0232 -0.0559 -0.0911
 5547W        W 9066   3.469   2.851   2.650  0.1112 -0.2998 -0.3030
 5548W        W 9067   4.518   5.773  10.529 -0.0307 -0.0492 -0.0143
 5549W        W 9068   8.424   2.287  10.919  0.0208 -0.0229 -0.2060
 5550W        W 9069   7.406   7.589   1.372 -0.1755 -0.0260 -0.0559
 5551W        W 9070   5.996   1.268   1.692 -0.1752  0.0909  0.2206
 5552W        W 9071   1.861   3.759   0.642  0.1448 -0.1320  0.0711
 5553W        W 9072   2.890   4.108   8.648  0.1937  0.1439 -0.2063
 5554W        W 9073   1.044   0.293  11.613  0.1239 -0.1454  0.0066
 5555W        W 9074   7.997   1.047  11.675 -0.1122  0.1057  0.1297
 5556W        W 9075   7.048   4.015  11.598  0.1357 -0.1412 -0.0220
 5557W        W 9076   9.370   8.890   1.824 -0.3274 -0.1560 -0.1490
 5558W        W 9077   6.768   8.464  11.285 -0.0889  0.0379 -0.0715
 5559W        W 9078   7.693   4.008   3.548 -0.3085  0.0017  0.1116
 5560W        W 9079   2.896   7.834   8.694  0.1012  0.2098  0.0249
 5561W        W 9080   2.752   7.347   9.426 -0.0541  0.1214  0.0089
 5562W        W 9081   3.337   0.282   0.428 -0.1264  0.0087  0.1364
 5563W        W 9082   1.574   8.226   0.237  0.0761 -0.2635 -0.2015
 5564W        W 9083   7.116   7.495  11.011  0.2699  0.1666  0.3036
 5565W        W 9084   0.799   2.726  11.617  0.0382 -0.0489  0.1733
 5566W        W 9085   4.701   0.195  10.899  0.0119  0.2290  0.0547
 5567W        W 9086   7.396   7.228  10.691  0.1922 -0.1945  0.1790
 5568W        W 9087   4.338   4.835   0.930  0.0807 -0.1331  0.3933
 5569W        W 9088   1.010   0.144   9.683 -0.0822  0.0931  0.1987
 5570W        W 9089   6.487   3.634   9.263 -0.0825 -0.2693 -0.0009
 5571W        W 9090   3.003   1.008   1.855  0.0521  0.1161  0.0591
 5572W        W 9091   3.755   5.935   2.051 -0.1185 -0.1721  0.0083
 5573W        W 9092   2.430   6.009   3.565 -0.1329  0.1684 -0.1653
 5574W        W 9093   3.666   5.312   2.967  0.1740 -0.0036  0.3468
 5575W        W 9094   9.488   4.872   0.656  0.0484 -0.1341 -0.0473
 5576W        W 9095   5.123   8.961  12.082  0.1043  0.0022  0.3922
 5577W        W 9096   8.252   4.538   0.806 -0.2747  0.0145  0.3193
 5578W        W 9097   0.800   3.028   7.948 -0.2488  0.0003  0.0718
 5579W        W 9098   3.496   6.226  12.203 -0.1063  0.0622 -0.0008
 5580W        W 9099   4.769   2.232   8.658  0.0358 -0.1669 -0.0082
 5581W        W 9100   4.025   7.260   8.412 -0.2904  0.1488  0.0867
 5582W        W 9101   2.037   4.041   3.798 -0.1281  0.4870 -0.1370
 5583W        W 9102   2.325   1.303   3.654 -0.2917 -0.3370  0.0792
 5584W        W 9103   9.564   1.448   0.971  0.0376 -0.0949  0.1115
 5585W        W 9104   1.614   8.744   0.480 -0.2539  0.0748 -0.1105
 5586W        W 9105   1.482   3.426   0.390 -0.2028  0.3700 -0.1746
 5587W        W 9106   2.040   5.367  10.561  0.2433  0.1483 -0.0063
 5588W        W 9107   8.505   0.757   8.585 -0.1601  0.2714 -0.1956
 5589W        W 9108   3.851   8.275   7.752  0.0547 -0.0863  0.2625
 5590W        W 9109   0.672   3.577  12.300 -0.1711 -0.1133 -0.0756
 5591W        W 9110   5.506   7.055  12.136  0.1166 -0.2526  0.1212
 5592W        W 9111   4.372   9.149   3.292  0.3488 -0.2313  0.0379
 5593W        W 9112   5.828   2.603  11.908 -0.5660 -0.1306  0.3738
 5594W        W 9113   6.347   4.603   3.516  0.0280 -0.0498  0.1558
 5595W        W 9114   6.791   7.062  11.270 -0.2586 -0.3909 -0.0331
 5596W        W 9115   4.769   9.547  11.809  0.2134  0.0744 -0.0191
 5597W        W 9116   4.694   8.291   9.831  0.1063 -0.0541  0.0499
 5598W        W 9117   1.688   6.696   1.625 -0.0003  0.1816  0.1058
 5599W        W 9118   3.475   7.839  12.243  0.1267  0.2816  0.1951
 5600W        W 9119   8.091   2.467  11.243  0.1971  0.0110  0.3029
 5601W        W 9120   5.938   6.157   1.962  0.1120 -0.2685 -0.3318
 5602W        W 9121   0.140   5.377  11.405 -0.0503 -0.2007 -0.1448
 5603W        W 9122   6.681   5.517   9.279 -0.0202  0.1240  0.0963
 5604W        W 9123   2.442   4.318   3.933 -0.1290  0.0923 -0.1017
 5605W        W 9124   5.060   9.440  12.214  0.1079  0.1135  0.3074
 5606W        W 9125   5.696   8.197   8.970 -0.0469 -0.3514  0.5753
 5607W        W 9126   6.156   5.521   1.984 -0.0084  0.0647 -0.2000
 5608W        W 9127   6.718   1.461   9.988 -0.1712  0.3100 -0.1595
 5609W        W 9128   6.789   4.780   3.221 -0.0981  0.2039 -0.0753
 5610W        W 9129   9.276   2.038   4.180 -0.0244 -0.3501 -0.3361
 5611W        W 9130   4.062   8.591   0.317  0.2001  0.0523  0.0159
 5612W        W 9131   8.034   0.053   1.691 -0.2820 -0.0377  0.0578
 5613W        W 9132   0.802   2.350  11.288  0.2736  0.2376 -0.0714
 5614W        W 9133   5.176   6.429   2.173 -0.3366  0.0465 -0.0408
 5615W        W 9134   1.497   9.427  11.238 -0.1564  0.1981  0.2878
 5616W        W 9135   1.832   1.271   2.795 -0.1526 -0.0554  0.0163
 5617W        W 9136   5.310   2.674   2.907  0.5116  0.0272 -0.3357
 5618W        W 9137   5.466   7.683   0.974 -0.0139  0.1460 -0.0829
 5619W        W 9138   4.230   8.782  11.166  0.5077  0.0573  0.1497
 5620W        W 9139   2.965   1.306   2.233  0.1032  0.0003 -0.1547
 5621W        W 9140   3.923   6.564   3.200 -0.1620  0.2438  0.3661
 5622W        W 9141   7.810   5.866   0.858  0.0056  0.0474 -0.0695
 5623W        W 9142   2.489   0.161   9.234  0.0369 -0.0333 -0.0812
 5624W        W 9143   6.896   1.785   9.616 -0.1986 -0.0048  0.0076
 5625W        W 9144   6.392   5.653   1.179  0.0237  0.2815 -0.0703
 5626W        W 9145   1.230   7.758  11.972 -0.2776 -0.0053 -0.2120
 5627W        W 9146   2.863   3.444   1.630  0.2049 -0.2811 -0.0122
 5628W        W 9147   9.364   2.376  12.201 -0.0825 -0.5817 -0.1180
 5629W        W 9148   8.810   3.611   9.180 -0.0265 -0.0732 -0.0564
 5630W        W 9149   4.209   2.523   9.317 -0.0802  0.1435 -0.3681
 5631W        W 9150   7.026   6.524   1.177  0.0307 -0.0112 -0.0108
 5632W        W 9151   4.360   3.371   1.180 -0.1499 -0.1662  0.0764
 5633W        W 9152   7.123   1.299   1.938  0.2727  0.2574  0.1338
 5634W        W 9153   3.161   4.083  10.039 -0.1002  0.0082 -0.0026
 5635W        W 9154   3.173   3.077   3.535  0.1656 -0.0903  0.0286
 5636W        W 9155   5.597   8.980  11.812  0.2585 -0.0000  0.1734
 5637W        W 9156   3.836   6.099   2.980 -0.0448 -0.2413  0.0092
 5638W        W 9157   9.340   6.851   0.401 -0.1674 -0.0181  0.1441
 5639W        W 9158   8.650   0.276   0.495  0.0768 -0.0774  0.0877
 5640W        W 9159   9.029   0.034  10.044  0.1643 -0.1236 -0.0896
 5641W        W 9160   3.212   5.315   0.900 -0.0219 -0.0202  0.1029
 5642W        W 9161   2.494   3.286   9.951  0.0874 -0.3054 -0.0132
 5643W        W 9162   9.023   9.612   4.262  0.2048 -0.0885 -0.0533
 5644W        W 9163   2.543   9.522   2.167  0.0819 -0.0031  0.1498
 5645W        W 9164   6.242   5.022   1.932  0.0422  0.0857 -0.0547
 5646W        W 9165   2.412   0.569   2.610  0.1793 -0.2040  0.3113
 5647W        W 9166   4.111   0.774   8.077 -0.0772  0.1761 -0.2632
 5648W        W 9167   8.301   1.822   3.847 -0.1287  0.3223 -0.0727
 5649W        W 9168   0.606   3.336  10.526  0.1136  0.1055 -0.1626
 5650W        W 9169   8.191   4.191   9.883 -0.2407  0.0364  0.1254
 5651W        W 9170   9.311   0.632  11.857  0.0183  0.0534  0.0650
 5652W        W 9171   4.083   2.575   1.813 -0.0341  0.1820 -0.0299
 5653W        W 9172   9.642   1.322   9.847  0.0941 -0.0869 -0.0941
 5654W        W 9173   9.026   5.937  12.314  0.0849 -0.1718 -0.3294
 5655W        W 9174   9.430   9.164   8.497  0.1303 -0.1452 -0.0328
 5656W        W 9175   3.022   0.246  10.474 -0.2160 -0.0479  0.0054
 5657W        W 9176   6.191   2.666   9.989  0.2227  0.3052  0.1116
 5658W        W 9177   0.621   4.610   1.362  0.0753 -0.0413 -0.1150
 5659W        W 9178   3.669   9.403  10.330  0.1062 -0.0805 -0.2562
 5660W        W 9179   4.368   1.065   2.560  0.2592 -0.4811  0.5001
 5661W        W 9180   3.494   8.645   9.320 -0.0355 -0.1979 -0.1790
 5662W        W 9181   6.374   6.334  10.170 -0.0260 -0.1973  0.0484
 5663W        W 9182   4.435   5.469   7.887  0.0581  0.0113  0.1592
 5664W        W 9183   4.815   2.512  10.671  0.2368  0.0042  0.1170
 5665W        W 9184   0.827   9.649   8.289 -0.1484 -0.0948  0.2166
 5666W        W 9185   5.443   0.478  11.613  0.2859  0.5345  0.0217
 5667W        W 9186   6.699   6.250   3.216 -0.1590 -0.0054 -0.0117
 5668W        W 9187   7.121   2.934   2.485  0.0441 -0.1280 -0.2258
 5669W        W 9188   4.238   0.200   2.627  0.6405  0.2371 -0.1658
 5670W        W 9189   9.198   7.741   2.656  0.1802  0.0640 -0.1180
 5671W        W 9190   9.270   5.554   0.302  0.0230 -0.1796 -0.3241
 5672W        W 9191   9.185   1.349   3.707  0.1888 -0.0153  0.1418
 5673W        W 9192   0.636   7.621   3.721 -0.0972  0.3858 -0.3062
 5674W        W 9193   2.709   6.455  10.465 -0.1998 -0.4666  0.1465
 5675W        W 9194   6.337   4.095   3.639  0.0444 -0.0030 -0.1233
 5676W        W 9195   4.808   5.526   2.130  0.1648 -0.0322 -0.1109
 5677W        W 9196   6.006   5.891  11.444  0.1371 -0.2548  0.0987
 5678W        W 9197   7.580   6.840   4.005 -0.4785  0.1059 -0.0143
 5679W        W 9198   5.065   6.745   4.291 -0.0132 -0.1627  0.0829
 5680W        W 9199   0.845   8.071  11.985  0.0323 -0.2137  0.1962
 5681W        W 9200   3.710   5.593   1.575 -0.0954  0.0859  0.1855
 5682W        W 9201   3.048   8.836   9.039 -0.0397  0.0215  0.0644
 5683W        W 9202   7.865   4.884   0.852  0.0922 -0.0781 -0.1456
 5684W        W 9203   0.801   2.526   9.376  0.1633  0.0747 -0.4664
 5685W        W 9204   0.924   0.586  12.026  0.1436  0.1118  0.1777
 5686W        W 9205   7.315   1.869   3.489  0.0190  0.0147  0.4488
 5687W        W 9206   7.663   6.269   2.655  0.3363 -0.0499 -0.2531
 5688W        W 9207   2.733   8.212   2.666  0.5170  0.0412  0.0808
 5689W        W 9208   6.100   3.672   1.564 -0.2158 -0.2766 -0.0426
 5690W        W 9209   3.820   9.495   9.192 -0.0110  0.2570 -0.3767
 5691W        W 9210   8.456   0.198  10.887 -0.0121 -0.3922  0.0418
 5692W        W 9211   8.384   5.315   1.316  0.0698  0.0595 -0.1597
 5693W        W 9212   0.696   8.817  11.546  0.2452  0.2265 -0.0278
 5694W        W 9213   8.056   2.324   2.462 -0.0326  0.1313  0.0981
 5695W        W 9214   4.608   3.404  11.578 -0.3947  0.0502 -0.0758
 5696W        W 9215   0.825   5.778   9.979 -0.1057  0.0313  0.0020
 5697W        W 9216   5.804   3.086   3.421 -0.0210  0.1072  0.0487
 5698W        W 9217   5.964   0.457   1.196 -0.1425  0.0383 -0.0118
 5699W        W 9218   2.432   0.832   8.426  0.0291  0.3529 -0.1500
 5700W        W 9219   8.613   0.637  10.945 -0.0258 -0.1658  0.0191
 5701W        W 9220   5.708   6.757  11.247  0.1379  0.4089 -0.1004
 5702W        W 9221   3.119   2.197   1.234  0.1755  0.0365 -0.1438
 5703W        W 9222   9.685   2.312  11.441  0.0680  0.0784 -0.0706
 5704W        W 9223   1.884   2.491   9.206 -0.1266 -0.0218  0.0425
 5705W        W 9224   6.085   2.358  10.965  0.2832  0.2638 -0.2935
 5706W        W 9225   2.948   3.299   9.792  0.0774  0.4212 -0.0161
 5707W        W 9226   8.434   1.952   1.701  0.0139  0.0057 -0.0326
 5708W        W 9227   8.066   0.979   8.481 -0.2148  0.0500 -0.0745
 5709W        W 9228   5.702   3.825  10.424  0.2080 -0.0732  0.0490
 5710W        W 9229   5.020   0.570   9.609 -0.5713 -0.3127 -0.0503
 5711W        W 9230   6.607   6.336   1.422 -0.0907  0.0552 -0.4548
 5712W        W 9231   5.564   8.667   9.893  0.0096  0.1245  0.4079
 5713W        W 9232   7.261   7.751   2.330  0.0582 -0.2469 -0.1909
 5714W        W 9233   1.032   6.062   0.118 -0.0935 -0.0888  0.1821
 5715W        W 9234   3.686   1.196  10.846 -0.2151  0.0027 -0.1400
 5716W        W 9235   9.043   4.289  11.522 -0.1861 -0.1910 -0.2525
 5717W        W 9236   2.673   2.378   3.022  0.0469 -0.1568 -0.2924
 5718W        W 9237   2.760   7.405   2.300  0.1649 -0.0496  0.0919
 5719W        W 9238   4.168   5.870   0.702 -0.1928 -0.2573 -0.3348
 5720W        W 9239   8.045   4.236  11.150  0.0848 -0.4077  0.1524
 5721W        W 9240   4.833   8.873   2.688 -0.0959  0.0690 -0.1821
 5722W        W 9241   9.452   0.447   2.465  0.2507 -0.1659 -0.1652
 5723W        W 9242   2.639   8.937   1.656  0.2284 -0.0296  0.1799
 5724W        W 9243   7.704   3.451  10.006 -0.0517  0.3645  0.0424
 5725W        W 9244   1.497   0.408   2.724  0.3635 -0.1229  0.1502
 5726W        W 9245   8.152   2.964   8.863 -0.1773  0.0873 -0.1880
 5727W        W 9246   7.115   7.813  12.038 -0.1954 -0.0458 -0.1749
 5728W        W 9247   5.374   7.839  11.149  0.3439  0.0246  0.1986
 5729W        W 9248   3.611   0.463   1.170 -0.3344  0.0254 -0.0391
 5730W        W 9249   2.782   9.732   0.283  0.1787 -0.2985 -0.0103
 5731W        W 9250   9.759   8.680   9.733  0.4649  0.3380  0.1418
 5732W        W 9251   2.266   9.786  11.259  0.1113 -0.1176  0.1309
 5733W        W 9252   4.467   9.195  10.933 -0.2852 -0.1869  0.0023
 5734W        W 9253   3.198   1.574   1.935  0.1146 -0.2390  0.1791
 5735W        W 9254   0.888   7.502   1.698 -0.2988  0.0467  0.4064
 5736W        W 9255   5.419   4.202  10.725  0.0547 -0.0165  0.2115
 5737W        W 9256   5.582   8.053  11.983 -0.2775  0.0212 -0.0883
 5738W        W 9257   1.183   3.971   4.083 -0.0930  0.0569 -0.1814
 5739W        W 9258   0.711   1.463   0.099 -0.0931  0.2146  0.0569
 5740W        W 9259   5.681   8.865   4.011 -0.3116 -0.2951 -0.5020
 5741W        W 9260   6.676   0.496   9.242  0.1862  0.0169  0.0919
 5742W        W 9261   7.202   4.230   8.964  0.0122 -0.0182 -0.1205
 5743W        W 9262   6.022   1.192   8.859 -0.1390 -0.0341  0.0181
 5744W        W 9263   2.866   3.726   1.163  0.1559  0.0444 -0.2541
 5745W        W 9264   1.788   7.624   2.854  0.0841 -0.2064  0.2850
 5746W        W 9265   4.305   8.808  10.637  0.2236 -0.2174  0.0347
 5747W        W 9266   5.829   7.022   4.841  0.1224 -0.3411  0.1140
 5748W        W 9267   7.859   7.147   9.659 -0.1559 -0.0536 -0.2024
 5749W        W 9268   4.442   3.328   9.137  0.1086 -0.3462  0.0018
 5750W        W 9269   1.665   0.293   1.307  0.3034 -0.0888 -0.3115
 5751W        W 9270   1.627   3.174   2.217 -0.1685 -0.2405 -0.0465
 5752W        W 9271   3.055   6.564   2.476  0.3843 -0.0743  0.1860
 5753W        W 9272   0.199   9.248   1.345 -0.0477 -0.3003  0.3501
 5754W        W 9273   9.455   3.309   8.225 -0.1137 -0.0392 -0.1335
 5755W        W 9274   9.757   4.445  11.069  0.2438  0.0749 -0.0141
 5756W        W 9275   6.882   3.719  12.011 -0.0330 -0.1343  0.1522
 5757W        W 9276   2.512   6.120   2.121 -0.0551  0.1912 -0.1235
 5758W        W 9277   3.146   0.854   9.613  0.0806  0.0662  0.1650
 5759W        W 9278   8.460   1.672   4.301 -0.1986 -0.0515 -0.0441
 5760W        W 9279   3.971   3.243   2.007  0.1036 -0.1341  0.3190
 5761W        W 9280   0.017   6.638  11.940  0.1481  0.1318 -0.0999
 5762W        W 9281   9.610   2.253   9.146 -0.1000  0.0920  0.0390
 5763W        W 9282   5.465   4.364   7.654  0.3595 -0.3452  0.1027
 5764W        W 9283   8.775   1.164   8.794  0.2162 -0.2754  0.0362
 5765W        W 9284   4.544   8.047   9.410  0.1818 -0.0229  0.0518
 5766W        W 9285   9.752   3.228  12.171  0.2602  0.1316  0.0284
 5767W        W 9286   8.433   6.468  11.324 -0.2607 -0.3751  0.1890
 5768W        W 9287   3.090   1.346   1.472  0.1337 -0.0962  0.2762
 5769W        W 9288   8.642   4.647   9.325 -0.3463  0.2122  0.2339
 5770W        W 9289   8.497   6.465   0.359 -0.1199  0.0509  0.3383
 5771W        W 9290   7.471   8.138   3.153 -0.2824 -0.0779  0.0058
 5772W        W 9291   8.629   3.266   3.486 -0.4002  0.0527  0.3985
 5773W        W 9292   2.921   7.292   2.754  0.0301 -0.2869  0.0846
 5774W        W 9293   5.158   8.432  10.531  0.2330  0.3721 -0.0772
 5775W        W 9294   5.707   7.258  11.149  0.0286  0.0150 -0.2013
 5776W        W 9295   9.563   0.664   8.007  0.0410 -0.0158 -0.0588
 5777W        W 9296   9.409   7.530   0.435  0.2055  0.3132 -0.1970
 5778W        W 9297   3.314   5.894   8.089 -0.1100 -0.2275  0.1470
 5779W        W 9298   1.640   4.407   1.101  0.3303  0.0143  0.0835
 5780W        W 9299   9.190   5.583  10.584 -0.1026  0.1000  0.1487
 5781W        W 9300   9.014   5.206   9.196 -0.2539  0.1075 -0.0409
 5782W        W 9301   3.428   1.179   2.168  0.2208  0.2024 -0.0147
 5783W        W 9302   9.091   2.470   1.518  0.0758 -0.1704 -0.2763
 5784W        W 9303   0.943   4.300   1.706  0.0433  0.0666  0.1643
 5785W        W 9304   6.999   1.900   2.536  0.3766  0.2505 -0.3535
 5786W        W 9305   5.477   1.003   8.935  0.1274  0.0065  0.0213
 5787W        W 9306   6.346   2.206   3.718 -0.0478  0.0887  0.0520
 5788W        W 9307   5.443   7.269   2.535  0.1922 -0.1667 -0.2541
 5789W        W 9308   8.302   8.898   9.024 -0.3741 -0.1742  0.0673
 5790W        W 9309   5.153   8.484  10.039 -0.3435  0.0711  0.0045
 5791W        W 9310   3.177   6.762   9.317 -0.0467  0.4334 -0.1867
 5792W        W 9311   9.480   6.246   1.054 -0.1212 -0.3062 -0.2420
 5793W        W 9312   1.227   7.669  10.694  0.0883 -0.1253  0.2373
 5794W        W 9313   6.551   5.073  10.874  0.1255 -0.3634  0.2473
 5795W        W 9314   3.775   6.482  11.286 -0.2322  0.0389 -0.1801
 5796W        W 9315   2.377   9.716   1.213 -0.0719  0.0748 -0.1698
 5797W        W 9316   6.239   7.224   8.607  0.0526  0.0000 -0.0463
 5798W        W 9317   4.273   7.701   1.336 -0.0094  0.0300 -0.0980
 5799W        W 9318   5.809   5.596  10.398  0.3932  0.0971 -0.1183
 5800W        W 9319   1.957   2.632   9.736 -0.1657 -0.1007 -0.3942
 5801W        W 9320   4.438   0.703  10.947  0.1045 -0.1584 -0.2247
 5802W        W 9321   7.422   9.016   0.460 -0.1087 -0.1870 -0.1877
 5803W        W 9322   3.671   5.869  10.161 -0.0559 -0.0416  0.1844
 5804W        W 9323   7.285   3.298   9.644 -0.0192  0.4070 -0.0124
 5805W        W 9324   8.590   2.114   8.655 -0.0982 -0.1157 -0.0237
 5806W        W 9325   9.740   5.344   0.610  0.1391 -0.0254  0.2049
 5807W        W 9326   5.081   0.197   7.904  0.0239  0.1607 -0.1848
 5808W        W 9327   1.656   0.119   1.979 -0.0014  0.2677  0.2968
 5809W        W 9328   7.716   4.565  11.161 -0.1398 -0.2714 -0.3072
 5810W        W 9329   8.581   4.606  11.642 -0.1001  0.0309  0.0241
 5811W        W 9330   0.322   4.747  10.279 -0.2329 -0.0385  0.2586
 5812W        W 9331   6.788   5.725   3.174  0.1885 -0.1160 -0.1510
 5813W        W 9332   1.689   0.417   0.392 -0.1140  0.1691  0.0075
 5814W        W 9333   3.528   0.976   9.913  0.0263  0.4483 -0.4060
 5815W        W 9334   7.352   0.326   7.862  0.1699  0.2950 -0.2139
 5816W        W 9335   8.322   8.714   3.693  0.1595  0.0281 -0.1611
 5817W        W 9336   1.902   7.754   0.811  0.0406 -0.2060  0.2808
 5818W        W 9337   6.145   9.462   3.148 -0.0794 -0.2848 -0.3612
 5819W        W 9338   2.066   3.463   2.222  0.4628 -0.0627  0.0712
 5820W        W 9339   9.362   7.739   1.508 -0.1193 -0.0869 -0.2815
 5821W        W 9340   7.099   3.928   0.187 -0.2801  0.1050  0.0356
 5822W        W 9341   1.768   5.525  11.211  0.0978 -0.0230 -0.2864
 5823W        W 9342   4.959   3.612   3.458  0.0198 -0.0207 -0.2523
 5824W        W 9343   1.409   3.510   3.360  0.1251 -0.0784  0.3026
 5825W        W 9344   0.733   4.320   2.405 -0.0028  0.3700  0.1710
 5826W        W 9345   8.108   1.012   2.969  0.0998  0.0175  0.5606
 5827W        W 9346   2.778   1.618   9.061 -0.1916 -0.1625 -0.0201
 5828W        W 9347   0.573   1.524   9.183  0.0171  0.1063  0.0906
 5829W        W 9348   6.221   3.143   3.714 -0.2048  0.2089 -0.5085
 5830W        W 9349   6.178   4.866   0.382  0.2731  0.2043 -0.1624
 5831W        W 9350   2.770   6.023  11.933 -0.1634  0.0014 -0.2260
 5832W        W 9351   8.757   8.134  12.220  0.1320 -0.0247  0.1250
 5833W        W 9352   3.466   0.510   3.317  0.2317  0.1432  0.1700
 5834W        W 9353   9.157   5.199   4.193  0.0502 -0.2698  0.1240
 5835W        W 9354   5.115   3.447  10.037  0.0560  0.0252  0.2879
 5836W        W 9355   0.934   2.423   2.871 -0.0208 -0.0326 -0.1283
 5837W        W 9356   3.477   6.539  11.739  0.0237  0.0620 -0.5071
 5838W        W 9357   7.254   6.699  12.064  0.2257  0.0717  0.1542
 5839W        W 9358   4.598   2.752   1.757  0.0448  0.1241 -0.0320
 5840W        W 9359   4.908   3.933   2.882 -0.1601  0.1725  0.2672
 5841W        W 9360   8.863   4.186  10.298 -0.3283 -0.0774  0.0366
 5842W        W 9361   0.063   8.917   8.482  0.1394 -0.1907 -0.1135
 5843W        W 9362   2.972   2.416   3.815  0.3121 -0.2814  0.0221
 5844W        W 9363   5.129   0.549   1.130  0.0609 -0.3113 -0.1742
 5845W        W 9364   3.819   2.783   9.160  0.0387  0.0403 -0.2219
 5846W        W 9365   9.102   2.925   2.861 -0.0943  0.0983 -0.1333
 5847W        W 9366   1.631   9.407  10.133 -0.0575  0.1935 -0.2873
 5848W        W 9367   8.232   4.829   2.114  0.0804  0.1723  0.1243
 5849W        W 9368   8.022   5.631   3.868  0.2218 -0.0405  0.1152
 5850W        W 9369   0.781   9.701   1.116 -0.1499  0.0051  0.0785
 5851W        W 9370   9.041   3.354   2.445 -0.2186 -0.1312  0.2291
 5852W        W 9371   4.844   9.617   9.492  0.4454  0.4710  0.3182
 5853W        W 9372   7.363   4.959   3.818 -0.4947  0.2582  0.0075
 5854W        W 9373   7.791   3.987   2.546 -0.0573  0.2931  0.0141
 5855W        W 9374   8.321   0.756   8.030 -0.1616 -0.1959 -0.0685
 5856W        W 9375   2.496   6.850   3.639  0.1120 -0.0546 -0.2010
 5857W        W 9376   6.554   0.999   3.356  0.1394 -0.1819  0.2542
 5858W        W 9377   3.999   8.271   2.514  0.1085 -0.1446 -0.0645
 5859W        W 9378   8.807   4.570   2.803  0.1756 -0.1487  0.2856
 5860W        W 9379   3.208   4.084   0.941 -0.4862  0.0115  0.0041
 5861W        W 9380   5.683   2.096  11.260  0.2273  0.1510 -0.3211
 5862W        W 9381   9.500   0.533  10.853 -0.1989  0.0500 -0.0257
 5863W        W 9382   8.070   3.412  11.178  0.2095 -0.0339  0.0890
 5864W        W 9383   0.064   9.786  10.174 -0.1635 -0.1425  0.2447
 5865W        W 9384   5.660   0.499   3.398  0.2131 -0.0588 -0.0778
 5866W        W 9385   5.877   7.968  11.195 -0.2015  0.0300 -0.1547
 5867W        W 9386   4.994   3.028   0.839 -0.3408  0.0770 -0.0028
 5868W        W 9387   7.816   6.085   9.396  0.0308  0.0446  0.1453
 5869W        W 9388   4.143   6.140  11.342 -0.1404 -0.0222 -0.2278
 5870W        W 9389   8.972   8.895   8.159 -0.0460 -0.1009  0.2158
 5871W        W 9390   7.913   4.494  10.334  0.2971  0.0706 -0.2133
 5872W        W 9391   9.284   8.268   3.003  0.2360 -0.0137  0.0936
 5873W        W 9392   3.568   9.779   7.636 -0.2328 -0.2015  0.1287
 5874W        W 9393   4.007   6.442  11.844  0.0920 -0.3137 -0.0713
 5875W        W 9394   7.016   6.679  11.498 -0.2420  0.1381  0.1430
 5876W        W 9395   1.612   6.125  11.131 -0.0852 -0.2163  0.1709
 5877W        W 9396   3.731   8.310  10.376  0.0426  0.4897 -0.2553
 5878W        W 9397   4.639   5.229  11.001 -0.2839 -0.1356  0.1274
 5879W        W 9398   9.287   1.701   9.811 -0.2182 -0.0025 -0.1793
 5880W        W 9399   3.465   5.725   0.007  0.0687  0.2282  0.1444
 5881W        W 9400   7.774   6.460  11.108 -0.1786 -0.5158 -0.1088
 5882W        W 9401   3.630   8.809   1.826 -0.0672 -0.1402 -0.1501
 5883W        W 9402   2.856   6.882   0.158 -0.1546  0.1689 -0.0052
 5884W        W 9403   8.986   9.609   1.471 -0.2251  0.2325 -0.1252
 5885W        W 9404   1.989   5.160  11.432  0.1743 -0.1105  0.0804
 5886W        W 9405   9.509   8.411   2.046 -0.0602 -0.1243 -0.0437
 5887W        W 9406   6.649   1.669   8.576  0.3718 -0.1647 -0.1530
 5888W        W 9407   5.253   2.149   8.612  0.1809 -0.0483 -0.1892
 5889W        W 9408   9.055   8.202  11.578  0.1895  0.1242 -0.4388
 5890W        W 9409   1.704   7.169   3.063  0.2142 -0.3893 -0.0508
 5891W        W 9410   1.515   3.546  11.306  0.1430 -0.0073  0.3271
 5892W        W 9411   9.125   5.448   0.851 -0.4823  0.1261 -0.1948
 5893W        W 9412   9.004   2.175   2.206  0.0163 -0.0308  0.0451
 5894W        W 9413   4.329   7.400   8.890  0.1253 -0.1884  0.1663
 5895W        W 9414   9.686   4.938  11.887  0.1428  0.0815 -0.2478
 5896W        W 9415   2.888   3.604  11.653  0.2768  0.0227 -0.1163
 5897W        W 9416   6.307   1.870   3.349  0.1572 -0.0495  0.2456
 5898W        W 9417   4.515   7.076  10.203  0.1004  0.0706  0.2402
 5899W        W 9418   0.517   4.719   9.539  0.0714  0.1394  0.1623
 5900W        W 9419   4.757   4.283   0.486 -0.0357 -0.1175 -0.1256
 5901W        W 9420   4.579   4.856   3.149 -0.0957  0.0642 -0.1260
 5902W        W 9421   5.067   0.810   9.132  0.4100  0.0683 -0.1364
 5903W        W 9422   0.459   7.689   1.794  0.0495  0.1034 -0.1199
 5904W        W 9423   6.981   6.978  10.809  0.0108  0.2956  0.1600
 5905W        W 9424   0.596   4.719   2.731 -0.0653 -0.3567  0.2227
 5906W        W 9425   1.818   8.205   3.022  0.0704 -0.1816  0.0787
 5907W        W 9426   1.136   4.678   0.771  0.0029 -0.0314  0.0325
 5908W        W 9427   2.664   7.670   1.407 -0.1550 -0.3863  0.1658
 5909W        W 9428   0.682   6.803   9.650 -0.3219  0.1891  0.0382
 5910W        W 9429   8.775   5.763   1.247 -0.0060  0.0837 -0.0130
 5911W        W 9430   8.258   9.646   2.547 -0.1436  0.1370 -0.3109
 5912W        W 9431   4.227   1.154  10.632 -0.0086 -0.1142 -0.1118
 5913W        W 9432   3.423   1.715   1.548 -0.2891  0.0006  0.1772
 5914W        W 9433   1.703   6.463   2.181  0.2042  0.1048  0.1236
 5915W        W 9434   6.881   1.131   2.325 -0.0938  0.0198  0.2830
 5916W        W 9435   2.442   6.183  11.439  0.1898  0.1566 -0.0539
 5917W        W 9436   1.525   9.426  12.011 -0.2689  0.0251 -0.0040
 5918W        W 9437   7.529   6.974   9.282 -0.0572 -0.0277 -0.4683
 5919W        W 9438   9.785   4.312  10.295  0.2370  0.0471 -0.3544
 5920W        W 9439   3.936   1.737   8.906 -0.5409  0.1283  0.0906
 5921W        W 9440   6.031   6.866   8.888 -0.0290 -0.0136  0.0218
 5922W        W 9441   8.293   2.615   0.780  0.0405  0.1850 -0.3383
 5923W        W 9442   3.898   3.238   8.458 -0.2824  0.0951 -0.0360
 5924W        W 9443   5.101   2.261   3.099 -0.0587  0.0653  0.1101
 5925W        W 9444   4.078   3.154   0.060  0.0264 -0.1317 -0.0375
 5926W        W 9445   1.693   8.897  11.216 -0.0086  0.0685 -0.2107
 5927W        W 9446   7.066   5.104  11.760 -0.0818 -0.1947 -0.0173
 5928W        W 9447   5.640   3.811  11.793 -0.1797 -0.0199 -0.1206
 5929W        W 9448   2.020   9.228   8.356  0.2001 -0.5527 -0.0593
 5930W        W 9449   9.531   0.595   1.314  0.0473  0.3250  0.1270
 5931W        W 9450   4.056   7.704   2.460 -0.0410 -0.1733 -0.0028
 5932W        W 9451   7.824   5.060   3.709 -0.1808 -0.2535  0.0748
 5933W        W 9452   5.520   3.566   3.322 -0.1210  0.0079 -0.1725
 5934W        W 9453   1.575   9.780   0.078  0.0554 -0.1614  0.1890
 5935W        W 9454   5.547   8.492   0.466  0.0518 -0.1302  0.2485
 5936W        W 9455   6.080   4.459   1.305  0.1864 -0.1939 -0.0627
 5937W        W 9456   2.965   4.431   0.593  0.0314  0.1145 -0.0992
 5938W        W 9457   9.251   4.748   8.585 -0.1559  0.0437  0.0649
 5939W        W 9458   8.220   4.696   9.894  0.1071  0.0097 -0.1934
 5940W        W 9459   3.758   5.595  10.746  0.3398 -0.0666 -0.2581
 5941W        W 9460   1.225   6.417  10.826  0.0719  0.1773  0.1949
 5942W        W 9461   3.857   9.275   1.619 -0.1517 -0.0237 -0.1376
 5943W        W 9462   3.601   0.827  11.982 -0.0783  0.0604 -0.0533
 5944W        W 9463   8.429   3.077   9.379 -0.1140  0.3070 -0.0545
 5945W        W 9464   2.239   5.651  10.193 -0.1075  0.0253  0.2835
 5946W        W 9465   2.809   1.893   0.213 -0.1253  0.1975 -0.0715
 5947W        W 9466   1.348   3.960  11.523 -0.0220 -0.2872 -0.1273
 5948W        W 9467   0.641   1.575  10.864  0.0141  0.0162  0.2338
 5949W        W 9468   8.183   2.180   9.474 -0.1395  0.2914 -0.4517
 5950W        W 9469   7.059   7.755   9.421  0.0326 -0.1357  0.0928
 5951W        W 9470   3.437   2.471   1.448  0.0131  0.5313 -0.1919
 5952W        W 9471   0.033   2.221   2.315 -0.0397  0.0564 -0.0416
 5953W        W 9472   6.770   4.665  10.663  0.0208 -0.0452 -0.0732
 5954W        W 9473   9.192   8.721   2.270 -0.0397 -0.0630 -0.2060
 5955W        W 9474   3.253   9.078   8.625  0.1154 -0.1228  0.1881
 5956W        W 9475   6.481   0.627   9.716  0.1003  0.2963  0.0524
 5957W        W 9476   7.540   0.285  11.215  0.0608 -0.3114 -0.0007
 5958W        W 9477   7.325   4.806   0.718  0.2781  0.2602  0.1418
 5959W        W 9478   4.085   0.136  12.112  0.4473  0.0790 -0.4436
 5960W        W 9479   1.976   7.447   0.031  0.0732 -0.0953  0.1503
 5961W        W 9480   6.377   2.532  11.873 -0.2132  0.0242  0.2702
 5962W        W 9481   0.906   2.766   3.307  0.1347  0.2221  0.1114
 5963W        W 9482   0.657   8.883  10.448  0.3401  0.2800 -0.0850
 5964W        W 9483   8.752   4.815   2.021 -0.0720 -0.0047  0.0231
 5965W        W 9484   1.311   7.785   1.538  0.0025  0.0417 -0.3028
 5966W        W 9485   2.794   6.971  11.259 -0.2017  0.0565 -0.1876
 5967W        W 9486   8.104   5.867  10.394  0.3740  0.0823  0.0196
 5968W        W 9487   0.360   1.974   4.294 -0.0410  0.2859  0.3003
 5969W        W 9488   6.268   6.554   7.987 -0.3160 -0.0720  0.0650
 5970W        W 9489   2.764   3.500   9.016  0.0724 -0.0856 -0.1933
 5971W        W 9490   2.395   9.119   9.683 -0.2268  0.2594 -0.0740
 5972W        W 9491   2.076   5.091   1.595 -0.0453 -0.1437  0.2703
 5973W        W 9492   4.110   3.431   4.461 -0.0592  0.0218 -0.0191
 5974W        W 9493   5.218   3.164   3.372 -0.2343 -0.0921 -0.4370
 5975W        W 9494   5.183   0.551  10.159  0.1700  0.2374  0.0731
 5976W        W 9495   2.008   1.886  10.414 -0.0099  0.3354 -0.0030
 5977W        W 9496   5.074   5.437   3.647  0.0336  0.0878 -0.0125
 5978W        W 9497   0.861   1.628   4.290 -0.2433 -0.1602 -0.3042
 5979W        W 9498   8.301   2.718   1.554 -0.2768  0.0297 -0.1569
 5980W        W 9499   3.063   0.562   1.182  0.1685  0.4155  0.0398
 5981W        W 9500   8.206   4.667   0.228 -0.0691 -0.2605 -0.2492
 5982W        W 9501   4.442   3.747   9.570  0.1532 -0.0577 -0.0194
 5983W        W 9502   0.504   5.614   3.675 -0.1513  0.1430 -0.1887
 5984W        W 9503   4.836   5.090   9.162  0.2230  0.1357 -0.0486
 5985W        W 9504   1.993   8.141  10.044  0.0876 -0.1817 -0.0937
 5986W        W 9505   8.918   7.409   0.640 -0.3266  0.1185  0.3501
 5987W        W 9506   2.703   3.444   4.386 -0.2118  0.2504  0.2346
 5988W        W 9507   0.258   6.120  10.917  0.1668  0.2402 -0.2119
 5989W        W 9508   5.374   8.206  11.556 -0.0257  0.0099  0.0355
 5990W        W 9509   8.917   2.690  12.029 -0.2191 -0.0476  0.5372
 5991W        W 9510   1.355   1.795   9.559  0.0608 -0.0214  0.0439
 5992W        W 9511   5.489   8.093  10.661  0.0989 -0.1881  0.1010
 5993W        W 9512   3.064   7.430   1.856  0.0291  0.0655  0.1717
 5994W        W 9513   0.300   2.730   2.542 -0.1463 -0.0964  0.0338
 5995W        W 9514   7.833   7.971  10.943 -0.2482 -0.1837  0.2089
 5996W        W 9515   0.100   2.922   4.767  0.1045 -0.0708  0.1236
 5997W        W 9516   3.681   7.426  10.323  0.1850  0.1493 -0.2237
 5998W        W 9517   4.702   8.131  11.417  0.3687 -0.0103 -0.2749
 5999W        W 9518   4.277   8.983   7.768  0.1651  0.0483 -0.0464
 6000W        W 9519   5.255   8.363   9.113  0.0738 -0.1314 -0.1845
 6001W        W 9520   1.710   9.123  11.666 -0.0574 -0.1763  0.1067
 6002W        W 9521   1.987   3.930  10.222 -0.1429  0.1559 -0.1645
 6003W        W 9522   0.015   6.585   1.853 -0.0987 -0.1624 -0.0515
 6004W        W 9523   5.301   8.384   3.367 -0.0105 -0.0892  0.0724
 6005W        W 9524   3.736   8.844   8.511  0.0321 -0.0868 -0.0677
 6006W        W 9525   8.025   4.649   1.694 -0.3856  0.2678 -0.2288
 6007W        W 9526   7.124   5.626   2.830  0.1300 -0.0825 -0.0419
 6008W        W 9527   3.001   7.859  10.841  0.0771 -0.0287 -0.0287
 6009W        W 9528   8.483   6.801   2.120 -0.2148 -0.0700 -0.1479
 6010W        W 9529   3.049   7.758   0.909  0.2931 -0.0234 -0.4230
 6011W        W 9530   6.883   6.975   0.889  0.2973 -0.0387  0.3746
 6012W        W 9531   5.337   9.024   0.903 -0.0556 -0.0817 -0.2070
 6013W        W 9532   2.902   9.175   0.453  0.4403  0.0118 -0.1499
 6014W        W 9533   6.107   7.496  11.177 -0.2104 -0.3977  0.2296
 6015W        W 9534   8.198   0.935   1.978 -0.1634  0.2705  0.2666
 6016W        W 9535   7.588   3.292  10.806  0.0544  0.1327  0.0255
 6017W        W 9536   6.755   2.602   9.170 -0.1141 -0.1473  0.2939
 6018W        W 9537   6.747   2.290   8.314 -0.0692  0.1032 -0.2559
 6019W        W 9538   2.802   0.076  12.124  0.3370  0.1020 -0.0765
 6020W        W 9539   7.795   4.540   2.217 -0.2936 -0.1678  0.2274
 6021W        W 9540   7.304   8.345  11.977  0.0359 -0.2878 -0.0643
 6022W        W 9541   2.459   3.009   0.832 -0.2269  0.1196  0.0107
 6023W        W 9542   5.540   1.372  11.528 -0.2504  0.1925 -0.2192
 6024W        W 9543   8.588   2.894   0.264 -0.1538 -0.0915  0.0908
 6025W        W 9544   4.563   9.504   9.088  0.0854  0.1577  0.1057
 6026W        W 9545   3.670   8.568   2.664 -0.1206 -0.4313 -0.0949
 6027W        W 9546   0.843   1.359  10.250 -0.1608  0.1058  0.0259
 6028W        W 9547   0.968   5.687   0.444 -0.1919 -0.0555  0.0063
 6029W        W 9548   4.014   5.239   3.399 -0.0624 -0.1514 -0.0624
 6030W        W 9549   0.475   7.939  12.287  0.2334  0.2075 -0.0766
 6031W        W 9550   6.774   6.878   2.837  0.1280 -0.3113  0.0875
 6032W        W 9551   9.090   8.498  11.985 -0.1548  0.2141 -0.1694
 6033W        W 9552   8.223   2.109  12.222  0.1972  0.0245 -0.0488
 6034W        W 9553   5.766   0.373   3.943  0.1496 -0.0839 -0.0308
 6035W        W 9554   4.516   8.608   1.652 -0.0853  0.3176  0.1072
 6036W        W 9555   8.756   6.190  11.039  0.2108  0.0601 -0.3439
 6037W        W 9556   7.761   3.198   8.626  0.2129 -0.0160 -0.0468
 6038W        W 9557   1.628   6.063   2.636  0.0038 -0.0664  0.0533
 6039W        W 9558   0.322   7.509   3.000  0.0820  0.1280  0.2343
 6040W        W 9559   7.649   6.751   3.495  0.0148  0.2330 -0.1008
 6041W        W 9560   9.535   1.030  12.076 -0.1288 -0.3689 -0.0641
 6042W        W 9561   5.103   5.049   3.983  0.0449 -0.0846 -0.0447
 6043W        W 9562   1.162   7.025   9.490 -0.1540 -0.2086 -0.0871
 6044W        W 9563   7.769   5.039   2.310 -0.0777 -0.3243  0.1062
 6045W        W 9564   5.967   6.252   4.143 -0.1188  0.0855  0.0644
 6046W        W 9565   4.838   6.618   2.502 -0.1089  0.1451  0.3677
 6047W        W 9566   4.671   3.703  10.000 -0.1932 -0.0149 -0.1214
 6048W        W 9567   5.682   5.538   1.837  0.0256  0.1204 -0.3460
 6049W        W 9568   7.318   6.151   1.393 -0.0629  0.0247 -0.0250
 6050W        W 9569   2.782   8.535   8.107  0.0858  0.0386 -0.2491
 6051W        W 9570   3.881   0.826   3.364 -0.0349 -0.3285  0.0786
 6052W        W 9571   0.485   8.237   1.289  0.2796 -0.0357 -0.3581
 6053W        W 9572   0.050   0.606   2.709  0.0160  0.1083  0.0756
 6054W        W 9573   5.671   7.574   8.326  0.4027 -0.2582  0.0935
 6055W        W 9574   3.540   6.162  10.556  0.0955 -0.1057  0.0307
 6056W        W 9575   7.894   6.553   4.229  0.0672  0.1506 -0.3029
 6057W        W 9576   4.857   5.087   0.500 -0.2179  0.1977  0.1000
 6058W        W 9577   5.812   7.741   8.903 -0.4534  0.0427  0.3230
 6059W        W 9578   2.517   0.793   3.533 -0.2319 -0.2129  0.3648
 6060W        W 9579   4.617   6.512   3.437  0.0647  0.0781 -0.2889
 6061W        W 9580   1.189   2.189   1.595  0.0201  0.0878  0.1695
 6062W        W 9581   7.434   0.219   3.918 -0.0484  0.4567 -0.0526
 6063W        W 9582   4.388   6.324   8.771 -0.2321  0.2304 -0.2000
 6064W        W 9583   7.238   7.073   8.798  0.1818 -0.1289  0.1121
 6065W        W 9584   1.389   6.511   0.804 -0.0459 -0.1620 -0.0318
 6066W        W 9585   7.310   7.147  11.286 -0.0875  0.0214  0.1505
 6067W        W 9586   0.005   1.160  11.638 -0.3077 -0.2654 -0.1668
 6068W        W 9587   0.659   4.701  11.151 -0.0599 -0.1286 -0.3336
 6069W        W 9588   2.429   5.426   9.036  0.0209  0.1901 -0.1319
 6070W        W 9589   6.334   2.052   8.506 -0.1345  0.0543 -0.1856
 6071W        W 9590   6.913   4.485   1.438 -0.1974  0.2260 -0.2006
 6072W        W 9591   3.745   9.046   1.206 -0.0428 -0.1854 -0.1665
 6073W        W 9592   4.553   1.474  11.492 -0.0135  0.3205 -0.0521
 6074W        W 9593   4.839   0.353   9.193 -0.3112  0.1133  0.2770
 6075W        W 9594   6.447   1.791   1.368  0.2842 -0.0817 -0.0994
 6076W        W 9595   4.637   0.591   9.925  0.1602  0.1564  0.2646
 6077W        W 9596   4.273   1.448  10.219 -0.4371  0.0696  0.1165
 6078W        W 9597   3.273   0.470   9.949 -0.0710 -0.0867  0.2914
 6079W        W 9598   9.707   1.162   3.818 -0.2394 -0.0299  0.2946
 6080W        W 9599   5.502   9.252  12.289  0.0665  0.1054  0.0018
 6081W        W 9600   6.026   7.508  10.214  0.1516 -0.1383  0.3051
 6082W        W 9601   9.233   7.647   4.138 -0.1642  0.1443  0.0205
 6083W        W 9602   4.306   1.758   1.925  0.1613  0.2279 -0.0147
 6084W        W 9603   7.475   3.444   1.455 -0.3304  0.0584  0.6050
 6085W        W 9604   0.786   3.943   2.019 -0.0451 -0.0392 -0.0492
 6086W        W 9605   7.873   0.236   3.586  0.0976  0.0737 -0.2208
 6087W        W 9606   2.090   8.585  10.961  0.1210 -0.0491  0.3538
 6088W        W 9607   0.181   0.595   8.342  0.2439  0.1728  0.0571
 6089W        W 9608   5.062   8.444  11.130 -0.1099  0.2031  0.1846
 6090W        W 9609   6.826   8.239   9.780  0.0627 -0.1899  0.0368
 6091W        W 9610   0.720   5.394  10.276  0.4026 -0.1369  0.0300
 6092W        W 9611   5.637   6.786   1.523  0.1355  0.1351  0.1359
 6093W        W 9612   8.116   3.840   0.135  0.0898  0.0969  0.2788
 6094W        W 9613   3.864   4.385   0.278 -0.1155  0.3419  0.1484
 6095W        W 9614   3.355   1.031   1.223 -0.0640  0.1353 -0.0094
 6096W        W 9615   1.950   2.459   1.146  0.1957 -0.2743 -0.1895
 6097W        W 9616   4.674   8.094   0.159 -0.2304 -0.2476 -0.0585
 6098W        W 9617   4.739   1.682   0.685  0.0024 -0.0842 -0.1207
 6099W        W 9618   2.468   3.558   2.527 -0.1636 -0.0374 -0.1800
 6100W        W 9619   7.390   4.898  11.353  0.0079 -0.0703 -0.1669
 6101W        W 9620   7.971   6.552   8.699  0.3667 -0.0475  0.1982
 6102W        W 9621   3.655   2.360  10.909  0.2430  0.1713  0.2294
 6103W        W 9622   4.475   0.396  11.417  0.0457 -0.0203  0.0290
 6104W        W 9623   0.775   8.916   3.440 -0.0867 -0.1445 -0.1161
 6105W        W 9624   1.942   6.453  10.884  0.0763  0.0456 -0.0176
 6106W        W 9625   0.397   5.739   2.743 -0.1746 -0.2343  0.0773
 6107W        W 9626   2.077   2.141   0.400 -0.1411 -0.0257 -0.2657
 6108W        W 9627   5.871   3.377  11.770 -0.3797  0.0004 -0.0614
 6109W        W 9628   7.580   9.452   8.832 -0.0349 -0.2097  0.3378
 6110W        W 9629   8.166   6.024  11.983  0.0239  0.1899 -0.0811
 6111W        W 9630   8.570   5.732   2.174  0.0556 -0.0289 -0.0886
 6112W        W 9631   6.490   2.111  11.076 -0.2306 -0.1562  0.2021
 6113W        W 9632   4.672   7.530   1.006  0.1863 -0.0863 -0.1788
 6114W        W 9633   7.713   2.540  11.516 -0.0029 -0.0065  0.2492
 6115W        W 9634   3.462   6.526   1.225 -0.0039  0.1771  0.2247
 6116W        W 9635   6.840   3.314   3.961  0.0009  0.0613 -0.2561
 6117W        W 9636   3.699   5.339  10.212 -0.0340  0.0688 -0.0411
 6118W        W 9637   2.217   2.226  11.461  0.2790  0.1175  0.0806
 6119W        W 9638   2.134   6.439   1.375 -0.2366  0.1046  0.3182
 6120W        W 9639   0.852   2.629   0.776  0.0034  0.1951  0.0894
 6121W        W 9640   9.709   3.452   8.865  0.1357  0.2277  0.0358
 6122W        W 9641   7.858   8.537   3.832  0.0278  0.0539 -0.3906
 6123W        W 9642   4.147   0.680   9.172 -0.0950  0.0079  0.1771
 6124W        W 9643   0.444   8.245  10.180  0.0016  0.2428 -0.0313
 6125W        W 9644   5.476   2.173   9.584 -0.1207  0.3295  0.1059
 6126W        W 9645   6.994   1.589  10.340 -0.2281 -0.2100 -0.0838
 6127W        W 9646   3.713   4.546   1.726 -0.1537  0.2454 -0.0551
 6128W        W 9647   5.050   4.191   9.391 -0.1534  0.0620 -0.2750
 6129W        W 9648   0.232   7.188   2.539 -0.1050  0.0251 -0.0329
 6130W        W 9649   8.679   4.345  11.220 -0.1520 -0.0836 -0.2660
 6131W        W 9650   3.699   7.074   3.017 -0.1753 -0.0503 -0.1662
 6132W        W 9651   0.042   3.935   1.690 -0.2988  0.3986  0.0393
 6133W        W 9652   6.905   6.478   3.730 -0.3349 -0.1190 -0.0155
 6134W        W 9653   9.019   2.238   3.391 -0.1201 -0.2706  0.0946
 6135W        W 9654   5.941   9.555  12.119  0.1295  0.1107  0.3235
 6136W        W 9655   7.702   0.434   9.212 -0.1773  0.1823 -0.0540
 6137W        W 9656   4.222   5.678   4.151 -0.0575  0.2312 -0.1477
 6138W        W 9657   3.059   8.642   0.621 -0.1608 -0.1375 -0.0490
 6139W        W 9658   2.491   7.871   2.375 -0.1727  0.0391 -0.3252
 6140W        W 9659   6.299   7.012   3.025 -0.1054 -0.0832  0.0986
 6141W        W 9660   1.573   2.368   9.987 -0.0533  0.1136 -0.1408
 6142W        W 9661   0.158   4.893   0.374  0.1097  0.0199  0.0175
 6143W        W 9662   5.855   4.928  11.881 -0.0837  0.0486 -0.0955
 6144W        W 9663   2.250   2.944  10.374 -0.0850 -0.0127 -0.1822
 6145W        W 9664   7.181   3.948   0.778  0.0536  0.1415 -0.1789
 6146W        W 9665   4.855   6.800   2.926 -0.0965 -0.4002  0.1430
 6147W        W 9666   6.191   6.709   9.898  0.0825  0.1833 -0.2254
 6148W        W 9667   2.492   6.711   3.125 -0.1823  0.0211  0.1727
 6149W        W 9668   2.040   1.638  11.869  0.0571  0.2025 -0.0210
 6150W        W 9669   6.837   4.174   8.647 -0.2894 -0.0860 -0.0719
 6151W        W 9670   3.491   4.416   9.765  0.3333  0.0512  0.2820
 6152W        W 9671   3.740   7.011  11.251  0.0236 -0.2454  0.1616
 6153W        W 9672   8.232   8.895  12.054 -0.0986  0.1378  0.2509
 6154W        W 9673   8.181   1.201  10.603 -0.1714 -0.1711 -0.3175
 6155W        W 9674   6.536   4.193  10.608  0.0008 -0.6081  0.2072
 6156W        W 9675   4.162   4.881   9.444 -0.0319  0.1257 -0.0398
 6157W        W 9676   6.860   2.796   3.093 -0.3030 -0.1469  0.2481
 6158W        W 9677   1.185   5.351  10.193 -0.3192 -0.2241 -0.1916
 6159W        W 9678   6.321   4.779   2.452  0.1201 -0.2741 -0.1530
 6160W        W 9679   6.807   7.758   2.629  0.4205  0.3230  0.0020
 6161W        W 9680   4.675   3.764   3.850  0.3284  0.1580 -0.1785
 6162W        W 9681   7.700   5.104  12.293 -0.1372 -0.2835 -0.2263
 6163W        W 9682   3.341   9.128   1.469 -0.0300  0.2549 -0.2313
 6164W        W 9683   6.210   0.449  10.996  0.1556  0.1297 -0.0992
 6165W        W 9684   0.571   3.878   9.104 -0.0499 -0.0449  0.1867
 6166W        W 9685   6.872   1.503  12.198 -0.0489  0.1158 -0.2783
 6167W        W 9686   0.877   6.278  10.070 -0.2899  0.0298  0.2626
 6168W        W 9687   4.654   8.434   4.698 -0.2028  0.2244 -0.0946
 6169W        W 9688   9.344   6.581   2.525 -0.0040 -0.1448 -0.0226
 6170W        W 9689   5.043   5.620   8.213 -0.3146 -0.0505  0.1113
 6171W        W 9690   7.248   0.388   9.387  0.0942  0.2102  0.1078
 6172W        W 9691   3.178   9.610   9.535 -0.0978 -0.0814  0.0033
 6173W        W 9692   2.942   1.541  11.300 -0.0326 -0.1694  0.0181
 6174W        W 9693   1.036   7.966  10.231 -0.2159  0.2373 -0.1146
 6175W        W 9694   0.303   6.034   3.513  0.3350 -0.2183  0.0712
 6176W        W 9695   6.321   1.216   3.844  0.1165  0.3710  0.1169
 6177W        W 9696   4.455   1.128   9.941  0.2111 -0.2067  0.0058
 6178W        W 9697   8.598   1.825  12.288 -0.0795  0.0212 -0.0867
 6179W        W 9698   3.588   5.299   3.864 -0.0025  0.3546  0.0342
 6180W        W 9699   5.519   4.171  11.391 -0.0132 -0.1874  0.2378
 6181W        W 9700   2.839   5.656   1.064 -0.0546 -0.0337  0.1172
 6182W        W 9701   0.616   1.639   2.458 -0.0645  0.2385 -0.0927
 6183W        W 9702   0.331   4.456   0.913 -0.3443 -0.1348 -0.4050
 6184W        W 9703   3.719   3.566  10.695  0.1656 -0.3245 -0.0801
 6185W        W 9704   4.378   4.320   1.019  0.2348  0.1061 -0.2282
 6186W        W 9705   8.939   2.822  11.150  0.1372 -0.1760 -0.0160
 6187W        W 9706   6.580   1.322  11.789  0.0271 -0.0661 -0.1833
 6188W        W 9707   3.352   8.753   2.277  0.1314 -0.2915  0.1112
 6189W        W 9708   1.792   3.438   9.062 -0.4983 -0.0895 -0.0857
 6190W        W 9709   4.628   0.362   1.027  0.3141  0.0588  0.0555
 6191W        W 9710   7.659   0.942   3.170 -0.1506  0.1232  0.2900
 6192W        W 9711   2.299   1.034   1.372  0.1724 -0.0214  0.0370
 6193W        W 9712   7.041   8.170   0.854 -0.2131  0.1960 -0.0548
 6194W        W 9713   6.815   3.264  12.314 -0.0303  0.2231 -0.2536
 6195W        W 9714   8.895   3.098   2.086 -0.1114  0.2786 -0.1722
 6196W        W 9715   9.543   2.966  10.489  0.1543 -0.2217 -0.1852
 6197W        W 9716   9.409   7.802   3.155  0.0015 -0.0296  0.0204
 6198W        W 9717   3.524   3.184  10.994  0.1882 -0.0974  0.0400
 6199W        W 9718   6.764   0.609   3.150  0.1054  0.4380  0.0610
 6200W        W 9719   5.369   7.628   9.822  0.1209  0.2528 -0.1551
 6201W        W 9720   2.808   6.811  10.821 -0.1207  0.2090  0.3402
 6202W        W 9721   9.390   5.118   2.037 -0.0839  0.2741  0.0064
 6203W        W 9722   3.827   8.361   8.531 -0.1751  0.0368  0.0342
 6204W        W 9723   4.111   1.342   2.886  0.2464  0.1487 -0.0297
 6205W        W 9724   5.092   3.575   2.460  0.0195  0.0514 -0.2689
 6206W        W 9725   8.413   4.215   8.440 -0.3145 -0.0626  0.1837
 6207W        W 9726   5.306   7.034   1.299  0.0507  0.4402  0.1842
 6208W        W 9727   0.499   5.125  10.600  0.1273  0.0446 -0.3775
 6209W        W 9728   7.538   4.859   3.245 -0.0735 -0.0987 -0.2631
 6210W        W 9729   7.809   1.626   2.040  0.0091  0.1184  0.0326
 6211W        W 9730   3.575   7.143  10.703  0.3677  0.0421  0.1708
 6212W        W 9731   3.285   5.881  10.901  0.4949 -0.1999  0.1105
 6213W        W 9732   9.303   3.022   4.367 -0.3953 -0.2303  0.0930
 6214W        W 9733   8.387   8.379   8.939  0.0510 -0.1597 -0.2343
 6215W        W 9734   7.297   9.326   1.315  0.0509  0.3469 -0.2883
 6216W        W 9735   7.057   0.401   3.657  0.3906  0.4996  0.0877
 6217W        W 9736   5.508   4.013   9.400  0.1931  0.1547  0.1839
 6218W        W 9737   7.137   5.301   1.087 -0.1677 -0.1512 -0.0945
 6219W        W 9738   5.683   9.570  10.880 -0.4684  0.0471 -0.0217
 6220W        W 9739   9.620   4.370  11.576 -0.0656  0.2018 -0.0647
 6221W        W 9740   2.028   4.447  11.992  0.0684 -0.0423 -0.0354
 6222W        W 9741   6.711   5.467   3.627  0.1337 -0.1989  0.2653
 6223W        W 9742   2.448   3.479   1.180 -0.1836 -0.2643 -0.0639
 6224W        W 9743   4.629   8.794  11.927  0.1121  0.0653  0.2533
 6225W        W 9744   2.698   6.628   2.071 -0.2287  0.3280 -0.1723
 6226W        W 9745   6.655   1.241   0.328 -0.0870  0.1366 -0.1180
 6227W        W 9746   2.534   2.880  11.199 -0.1175 -0.1242 -0.0731
 6228W        W 9747   2.714   4.645   2.600 -0.0518 -0.1502 -0.1202
 6229W        W 9748   1.486   7.689   2.123  0.0025 -0.1883 -0.2024
 6230W        W 9749   2.491   9.486   8.424  0.1797 -0.0518  0.0607
 6231W        W 9750   0.777   4.268  10.931 -0.0367  0.1325  0.0044
 6232W        W 9751   4.388   1.894   8.761  0.0379  0.2518 -0.2527
 6233W        W 9752   2.216   4.424   2.842 -0.0680 -0.0990 -0.0507
 6234W        W 9753   7.736   8.969   3.117  0.2312  0.3353  0.2850
 6235W        W 9754   5.605   2.952   1.542 -0.4687 -0.3280 -0.1176
 6236W        W 9755   5.002   7.463  10.155  0.2840 -0.2822 -0.1834
 6237W        W 9756   6.608   4.420  11.057 -0.2153 -0.0903  0.2107
 6238W        W 9757   8.665   3.465   9.642  0.0058 -0.0477  0.3127
 6239W        W 9758   8.101   1.637  10.903  0.0514 -0.1925  0.4953
 6240W        W 9759   8.112   2.712   9.403 -0.2766  0.0857 -0.3447
 6241W        W 9760   5.841   5.740   9.851  0.0375 -0.0307  0.0093
 6242W        W 9761   1.740   3.532  10.019 -0.3421  0.1098 -0.1051
 6243W        W 9762   8.497   7.166   0.088 -0.1785  0.1466 -0.1459
 6244W        W 9763   7.295   5.658   0.680 -0.0973 -0.1545  0.1251
 6245W        W 9764   6.130   7.306  10.666  0.0655 -0.2721  0.3331
 6246W        W 9765   0.898   7.032   1.967  0.0995  0.1538  0.1588
 6247W        W 9766   0.384   5.070  11.727 -0.0200  0.0776 -0.2283
 6248W        W 9767   9.180   6.771   8.905  0.1229  0.3552  0.0981
 6249W        W 9768   7.353   0.792  12.222 -0.2219  0.0382 -0.0768
 6250W        W 9769   5.681   0.853   0.533 -0.1302 -0.1448 -0.1261
 6251W        W 9770   0.324   1.882   9.476 -0.0473  0.1429 -0.1190
 6252W        W 9771   6.367   1.341  11.072  0.0656  0.1149 -0.0424
 6253W        W 9772   7.195   5.810  11.300  0.2664  0.1175 -0.0342
 6254W        W 9773   5.873   5.923   3.164 -0.2054  0.0814  0.2744
 6255W        W 9774   4.285   4.219   3.700 -0.0203 -0.3515  0.2272
 6256W        W 9775   7.209   9.673  11.434  0.0902  0.0014 -0.0897
 6257W        W 9776   3.122   8.340   1.832 -0.0048 -0.3486 -0.0366
 6258W        W 9777   0.958   0.847  11.442  0.0922 -0.3859 -0.2530
 6259W        W 9778   8.648   0.023   3.908 -0.2880 -0.1193 -0.0693
 6260W        W 9779   9.515   5.428   1.657 -0.1622 -0.0245  0.4868
 6261W        W 9780   6.915   6.435   4.943 -0.1893  0.0104 -0.2413
 6262W        W 9781   2.250   4.619   1.458 -0.1890 -0.2547  0.3966
 6263W        W 9782   2.130   7.931   2.685 -0.1991 -0.0317 -0.1538
 6264W        W 9783   2.083   9.235   0.753 -0.1760 -0.1901 -0.0249
 6265W        W 9784   4.776   6.543   8.347 -0.1439 -0.0613  0.2006
 6266W        W 9785   7.057   9.297  11.771  0.0977 -0.2983  0.0292
 6267W        W 9786   0.962   0.245   0.753  0.1181  0.0159  0.0599
 6268W        W 9787   7.912   5.970   3.506 -0.2058  0.2676 -0.0297
 6269W        W 9788   4.886   6.571   3.855  0.1736 -0.3577 -0.0155
 6270W        W 9789   1.503   1.865  11.744  0.0296  0.1065 -0.0766
 6271W        W 9790   8.650   3.016   2.543  0.1445  0.0674 -0.0198
 6272W        W 9791   8.663   0.651   1.328  0.0073  0.3262 -0.0170
 6273W        W 9792   8.814   8.034   9.847 -0.0677  0.1613  0.2686
 6274W        W 9793   9.259   6.940  11.463 -0.1757  0.0338 -0.3171
 6275W        W 9794   3.499   9.204   9.542 -0.3311 -0.0403 -0.1313
 6276W        W 9795   3.087   6.440  12.030  0.2217 -0.0336  0.3796
 6277W        W 9796   0.431   2.947   3.327  0.0118 -0.2530 -0.1520
 6278W        W 9797   2.377   9.372  12.117 -0.0645  0.0228 -0.0467
 6279W        W 9798   4.119   7.168   3.888 -0.0744 -0.0190 -0.0970
 6280W        W 9799   8.178   1.914   2.221  0.0948  0.1536  0.1354
 6281W        W 9800   7.310   3.844   4.570 -0.1452  0.1077 -0.2538
 6282W        W 9801   0.002   5.446   2.839 -0.2188 -0.0923  0.0564
 6283W        W 9802   2.775   9.731   0.829  0.2088 -0.1882  0.2984
 6284W        W 9803   9.646   8.488   8.764 -0.0499 -0.0946 -0.3779
 6285W        W 9804   8.420   3.579  10.868  0.0244 -0.1537 -0.0023
 6286W        W 9805   9.055   0.493   1.518 -0.0619  0.0443 -0.0356
 6287W        W 9806   9.685   3.755  10.315  0.1837 -0.3146  0.1949
 6288W        W 9807   3.162   6.985  10.531  0.2174 -0.0649 -0.1068
 6289W        W 9808   8.987   7.150  10.850  0.1934  0.2698  0.0707
 6290W        W 9809   0.500   6.676  11.954 -0.2189 -0.3563 -0.1948
 6291W        W 9810   5.068   2.708   2.202 -0.3974 -0.0119  0.0479
 6292W        W 9811   0.197   6.543   3.618 -0.2428 -0.5977 -0.1299
 6293W        W 9812   5.556   3.667   9.965  0.1164  0.0972  0.0293
 6294W        W 9813   7.432   0.922   4.512  0.1863 -0.3249  0.1805
 6295W        W 9814   3.003   9.132   2.167 -0.1379  0.2106  0.0332
 6296W        W 9815   8.025   9.790   9.497 -0.0163 -0.0258 -0.0531
 6297W        W 9816   0.937   7.927   2.062 -0.1262 -0.0250 -0.5437
 6298W        W 9817   7.203   8.338  10.107 -0.1746 -0.0116  0.0613
 6299W        W 9818   2.732   6.534   4.457 -0.0218  0.0660  0.0309
 6300W        W 9819   2.261   1.032   2.622 -0.4217 -0.0293 -0.1363
 6301W        W 9820   4.039   4.951   2.948 -0.1690  0.3232  0.0593
 6302W        W 9821   7.243   0.674   8.145 -0.3102 -0.2898  0.0209
 6303W        W 9822   1.260   8.975  10.195 -0.3016  0.0120  0.3398
 6304W        W 9823   7.568   7.990   2.084  0.0520 -0.2971  0.0865
 6305W        W 9824   0.995   3.116   8.851  0.2962 -0.1287 -0.1717
 6306W        W 9825   4.118   5.384   2.738  0.1481  0.0027  0.0125
 6307W        W 9826   1.770   5.165   2.647 -0.2906  0.1631  0.0912
 6308W        W 9827   2.382   3.784   0.704  0.2294 -0.1953 -0.0437
 6309W        W 9828   1.230   9.648   3.223 -0.0253  0.2424  0.1599
 6310W        W 9829   7.824   4.080   8.997  0.0292  0.0394  0.2492
 6311W        W 9830   8.994   8.671  11.473 -0.2631  0.3811 -0.0678
 6312W        W 9831   8.061   4.655   3.673 -0.2692  0.1550 -0.1207
 6313W        W 9832   6.572   6.046   4.601  0.2477 -0.1478 -0.1709
 6314W        W 9833   5.212   1.371   3.298 -0.0208 -0.2404 -0.2700
 6315W        W 9834   2.236   7.446   2.600  0.1451  0.5018 -0.1921
 6316W        W 9835   3.715   0.037  11.464  0.0784  0.1463  0.1638
 6317W        W 9836   1.952   9.103  12.178 -0.1301 -0.0752 -0.0583
 6318W        W 9837   0.796   4.921  11.978  0.0347 -0.0273  0.1977
 6319W        W 9838   3.143   1.940   8.896  0.0277 -0.1346  0.0864
 6320W        W 9839   0.609   0.931   9.272  0.0318 -0.1201 -0.2400
 6321W        W 9840   2.783   0.133   3.012  0.2739 -0.2263 -0.1697
 6322W        W 9841   2.274   9.474   8.951  0.0323 -0.1487 -0.0663
 6323W        W 9842   1.986   7.311  11.230 -0.1023  0.0961  0.0818
 6324W        W 9843   3.285   1.762  11.624 -0.0070  0.1917  0.0072
 6325W        W 9844   1.350   6.992   9.981 -0.0493 -0.0447  0.0586
 6326W        W 9845   1.207   8.581   9.318 -0.0032 -0.0349  0.1016
 6327W        W 9846   6.736   7.614   3.564  0.1816 -0.0692  0.0745
 6328W        W 9847   1.940   7.534   9.316  0.0075 -0.1004 -0.1522
 6329W        W 9848   0.301   2.303   0.306  0.2035  0.1913 -0.0888
 6330W        W 9849   2.525   4.262   8.095  0.3450  0.2995 -0.1114
 6331W        W 9850   3.914   1.145   2.062  0.1582  0.0347  0.0194
 6332W        W 9851   8.262   2.037  11.323 -0.1454 -0.2278  0.1653
 6333W        W 9852   0.687   2.920   2.092  0.2860 -0.0140 -0.2762
 6334W        W 9853   1.086   2.061   0.696  0.2438  0.4900 -0.2932
 6335W        W 9854   3.479   2.155   3.646  0.2179 -0.0485  0.0142
 6336W        W 9855   1.389   3.041  11.084  0.1199  0.0556  0.0181
 6337W        W 9856   9.011   4.398   2.312 -0.3774  0.0608  0.1051
 6338W        W 9857   1.516   2.089   9.076  0.1555  0.1476 -0.0385
 6339W        W 9858   3.502   2.443   9.341 -0.4169  0.0643 -0.2417
 6340W        W 9859   1.814   5.452   1.842  0.1447  0.1309 -0.0685
 6341W        W 9860   4.152   3.630   8.232 -0.0150  0.1189  0.1426
 6342W        W 9861   3.536   7.928   8.663 -0.0962 -0.0555 -0.0941
 6343W        W 9862   6.426   9.320   2.208 -0.1716 -0.0772 -0.0618
 6344W        W 9863   7.931   4.480   8.190 -0.2873 -0.3190  0.0417
 6345W        W 9864   7.549   1.141   3.698  0.0590  0.2150 -0.1330
 6346W        W 9865   5.745   8.010   0.707 -0.3636  0.0120  0.0379
 6347W        W 9866   3.109   9.324   3.591 -0.3016 -0.0863 -0.0733
 6348W        W 9867   5.775   7.184   1.230 -0.0113 -0.0179  0.4212
 6349W        W 9868   5.918   4.955   2.661 -0.0485 -0.2515 -0.0548
 6350W        W 9869   1.959   5.515   0.869  0.2077  0.2438  0.0831
 6351W        W 9870   2.660   8.687   9.679  0.1355 -0.2278  0.0030
 6352W        W 9871   5.703   0.839  10.823  0.2002 -0.0616  0.1937
 6353W        W 9872   9.729   6.191  10.338  0.0626  0.1234  0.0727
 6354W        W 9873   8.192   4.855   1.237 -0.2200 -0.1554 -0.0385
 6355W        W 9874   9.341   3.374  10.308 -0.2279 -0.1528  0.3510
 6356W        W 9875   8.715   7.844   0.648 -0.0211  0.1098  0.3240
 6357W        W 9876   0.317   2.509  11.669  0.1277  0.0040  0.3842
 6358W        W 9877   7.809   9.775  11.534  0.3532 -0.1777  0.0490
 6359W        W 9878   4.541   8.338   3.880  0.0520 -0.0316 -0.0902
 6360W        W 9879   3.306   4.757   0.992 -0.4140 -0.2191  0.0755
 6361W        W 9880   8.636   4.632  10.747 -0.2757 -0.0031  0.0694
 6362W        W 9881   0.480   8.906   3.020 -0.4761 -0.1319 -0.0280
 6363W        W 9882   2.837   5.084   9.144  0.0745 -0.0850  0.1143
 6364W        W 9883   8.210   7.338   1.447  0.2173 -0.1927 -0.1013
 6365W        W 9884   0.989   9.712  11.256  0.5308 -0.1218  0.2941
 6366W        W 9885   2.316   8.799   1.235  0.1741 -0.1062  0.2314
 6367W        W 9886   1.595   6.164   9.910 -0.0884 -0.2027  0.0706
 6368W        W 9887   0.795   0.540  10.633 -0.2240 -0.2235  0.1401
 6369W        W 9888   0.029   4.703   1.903  0.1089 -0.0517 -0.0647
 6370W        W 9889   5.866   7.882   9.858 -0.0090 -0.0273  0.0620
 6371W        W 9890   3.242   4.932   7.921  0.3049  0.1178  0.0712
 6372W        W 9891   0.995   1.381  11.935  0.2655  0.0121  0.0611
 6373W        W 9892   8.755   3.850  11.560  0.1271 -0.0200  0.1474
 6374W        W 9893   5.471   8.229   9.589  0.0195  0.1269 -0.0313
 6375W        W 9894   6.554   3.146   0.345 -0.3057 -0.0804 -0.0669
 6376W        W 9895   5.724   8.437   1.562  0.0916 -0.1377 -0.0057
 6377W        W 9896   1.814   1.686   9.385 -0.1296 -0.0110  0.2318
 6378W        W 9897   2.089   1.845   3.805  0.1122  0.2021  0.1259
 6379W        W 9898   2.776   9.054   3.026  0.0235 -0.2630  0.1562
 6380W        W 9899   3.333   8.085   9.148 -0.0624 -0.2760 -0.2985
 6381W        W 9900   4.020   4.205   9.569  0.2811  0.0787  0.0923
 6382W        W 9901   8.263   1.229   9.059 -0.4602  0.3113  0.4930
 6383W        W 9902   3.351   8.509   8.826 -0.1679  0.0538 -0.0592
 6384W        W 9903   5.524   0.925   1.884 -0.0904  0.0056 -0.0275
 6385W        W 9904   7.711   5.025   9.342 -0.0249 -0.3796 -0.1173
 6386W        W 9905   4.764   6.567   9.361 -0.0992  0.0369  0.2717
 6387W        W 9906   5.964   5.869   9.313  0.0130  0.2609  0.1855
 6388W        W 9907   3.659   9.134   3.895 -0.1476  0.2648 -0.0289
 6389W        W 9908   8.409   5.288   2.078  0.0462 -0.4341  0.2915
 6390W        W 9909   3.156   6.408  10.710 -0.2004  0.2854 -0.1513
 6391W        W 9910   9.530   2.030   8.114 -0.3174 -0.2348  0.0077
 6392W        W 9911   8.814   6.503   3.783 -0.0005 -0.2653  0.0289
 6393W        W 9912   6.144   7.958   1.007  0.0266 -0.0618 -0.2839
 6394W        W 9913   0.383   1.032   2.871 -0.0647 -0.0480 -0.2760
 6395W        W 9914   0.624   4.464   0.498 -0.0612 -0.0831 -0.1185
 6396W        W 9915   1.845   5.512   1.353  0.3216  0.0842  0.3749
 6397W        W 9916   5.828   3.494   0.461 -0.0711  0.3324 -0.0956
 6398W        W 9917   9.277   0.197   0.767  0.1827  0.6454  0.2402
 6399W        W 9918   1.003   8.737  11.919  0.1889  0.0706  0.0216
 6400W        W 9919   5.349   3.038   8.248  0.2885  0.0526  0.0189
 6401W        W 9920   8.314   6.092   3.796 -0.1172  0.0790 -0.1292
 6402W        W 9921   8.753   1.519   1.948  0.2748  0.1091 -0.2788
 6403W        W 9922   6.353   1.669   9.740 -0.0589  0.0178  0.1033
 6404W        W 9923   8.019   7.900   3.667  0.0573  0.1987 -0.1634
 6405W        W 9924   7.045   0.376  11.481  0.2057  0.3090 -0.1342
 6406W        W 9925   5.219   0.774   0.332  0.2854 -0.1228  0.3751
 6407W        W 9926   5.626   6.215   0.228  0.1582  0.0056 -0.2264
 6408W        W 9927   6.078   1.028  10.497  0.0695 -0.0832  0.1199
 6409W        W 9928   8.671   8.984   9.693  0.1203 -0.0395 -0.2662
 6410W        W 9929   8.222   4.239  11.688 -0.0467  0.1386  0.3809
 6411W        W 9930   0.679   0.313   0.058  0.0211  0.0196 -0.0230
 6412W        W 9931   2.413   9.427  10.834  0.0457  0.2955  0.3456
 6413W        W 9932   0.401   1.045   3.764 -0.3331 -0.2314 -0.2192
 6414W        W 9933   8.547   9.617   8.650  0.0892  0.3253  0.0360
 6415W        W 9934   1.485   0.593   7.838  0.1382 -0.3280 -0.2831
 6416W        W 9935   5.753   3.142   2.441 -0.2866 -0.2619 -0.1585
 6417W        W 9936   9.431   1.754  10.844  0.0292  0.0929  0.1491
 6418W        W 9937   5.685   2.613   0.083  0.0684  0.2515  0.1686
 6419W        W 9938   4.037   9.790  10.168 -0.1501  0.0541 -0.0186
 6420W        W 9939   1.083   0.866   3.217 -0.0595  0.2905  0.1452
 6421W        W 9940   5.455   0.388   2.960  0.0274  0.0561 -0.1171
 6422W        W 9941   2.025   3.579  11.262 -0.0671  0.1556 -0.0498
 6423W        W 9942   6.819   5.245   2.985 -0.0042 -0.1785  0.1990
 6424W        W 9943   6.519   7.413  11.510  0.0590  0.1309 -0.2221
 6425W        W 9944   5.939   4.869   9.859  0.0034  0.1093  0.0673
 6426W        W 9945   7.835   4.008   3.057 -0.0711  0.0138  0.1802
 6427W        W 9946   4.937   4.527  11.570  0.2182 -0.0991 -0.3392
 6428W        W 9947   5.834   1.790   4.308  0.0797  0.0384 -0.3322
 6429W        W 9948   6.129   6.819   1.175  0.0228 -0.0284 -0.2060
 6430W        W 9949   8.550   4.190   4.028 -0.1885  0.1939 -0.0852
 6431W        W 9950   2.458   5.667   9.752  0.1001  0.0222  0.0375
 6432W        W 9951   3.071   4.921   0.611  0.1551  0.0254 -0.1136
 6433W        W 9952   2.741   9.139  11.830 -0.3374 -0.1444 -0.0991
 6434W        W 9953   8.835   1.146   1.208  0.2779 -0.1057 -0.1416
 6435W        W 9954   5.187   4.293   8.031  0.1361 -0.1557 -0.1242
 6436W        W 9955   6.257   5.832  10.234 -0.0089  0.1120 -0.0862
 6437W        W 9956   3.087   8.289   0.237  0.0880 -0.0861  0.1482
 6438W        W 9957   0.778   6.406  11.634 -0.0456 -0.0176  0.0577
 6439W        W 9958   3.046   0.018   7.635 -0.6034 -0.2968 -0.2252
 6440W        W 9959   5.119   7.522   1.297 -0.0579  0.1457 -0.1343
 6441W        W 9960   9.365   1.129   1.235 -0.0838 -0.1914  0.0855
 6442W        W 9961   9.442   4.957   9.034 -0.3728  0.1191 -0.0919
 6443W        W 9962   2.762   8.166  12.145 -0.0885  0.1354  0.2071
 6444W        W 9963   4.281   9.673   3.304  0.0318  0.1235  0.0458
 6445W        W 9964   7.602   7.659   3.394  0.0588  0.1524 -0.1459
 6446W        W 9965   5.184   9.227   0.341 -0.1509 -0.0017  0.1105
 6447W        W 9966   1.695   2.257  10.583  0.3117 -0.1701  0.1289
 6448W        W 9967   1.844   1.014   8.517  0.0217  0.0420 -0.0299
 6449W        W 9968   8.535   5.490   9.756  0.0990  0.0818  0.0261
 6450W        W 9969   1.599   1.923   0.485  0.1071 -0.5899 -0.3042
 6451W        W 9970   2.740   8.762  11.502 -0.0909 -0.1006  0.0621
 6452W        W 9971   2.209   4.002   7.769  0.0155 -0.2386 -0.0977
 6453W        W 9972   4.267   6.807   1.829 -0.0498  0.3319  0.0577
 6454W        W 9973   8.666   7.156   1.020 -0.1993 -0.0328 -0.2566
 6455W        W 9974   6.090   4.007   3.100 -0.1597  0.1499  0.2788
 6456W        W 9975   9.413   2.315   8.638  0.2436  0.3497  0.0250
 6457W        W 9976   7.447   6.740   0.989  0.0424  0.2345 -0.0826
 6458W        W 9977   5.538   5.965  10.120 -0.2621  0.4509 -0.1074
 6459W        W 9978   3.391   1.200   0.732 -0.0207 -0.0972 -0.0571
 6460W        W 9979   2.986   2.089   4.519  0.0488 -0.1472  0.1838
 6461W        W 9980   7.968   4.810  12.019 -0.1100 -0.0123 -0.0215
 6462W        W 9981   4.728   0.594  10.494 -0.0232  0.1416  0.1562
 6463W        W 9982   8.963   3.486  10.046  0.2509 -0.1781  0.0532
 6464W        W 9983   1.756   1.081  11.486 -0.1082 -0.0399 -0.2620
 6465W        W 9984   0.165   2.540   1.585 -0.0284  0.1455  0.0580
 6466W        W 9985   5.068   1.004  11.543  0.1261  0.0141 -0.2069
 6467W        W 9986   7.246   3.963   2.837 -0.0804  0.1603 -0.2317
 6468W        W 9987   0.362   4.836  12.229 -0.2154 -0.2030  0.1278
 6469W        W 9988   1.792   2.607   7.827 -0.1332 -0.1180 -0.1501
 6470W        W 9989   1.776   2.300   8.204 -0.0650 -0.1900 -0.1153
 6471W        W 9990   9.029   7.668  10.775 -0.2572 -0.0441 -0.0963
 6472W        W 9991   1.214   1.279   1.657 -0.0787  0.2758  0.0342
 6473W        W 9992   1.640   9.647   9.636 -0.0045  0.0268  0.1209
 6474W        W 9993   2.905   0.208   9.420 -0.2624  0.5467 -0.1460
 6475W        W 9994   3.005   5.607  12.288  0.0792  0.2284 -0.0068
 6476W        W 9995   9.594   7.340  10.061 -0.2345 -0.0061  0.1058
 6477W        W 9996   4.243   3.433   2.868 -0.0107  0.0041  0.1698
 6478W        W 9997   3.868   2.616   9.682  0.2417 -0.0386  0.0827
 6479W        W 9998   8.763   4.487   0.324  0.2593 -0.2375 -0.2096
 6480W        W 9999   8.987   1.533  11.108 -0.0549 -0.2895  0.1203
 6481W        W10000   6.952   1.414   3.251  0.3045  0.1165  0.1132
 6482W        W10001   3.328   5.390   0.338  0.0651 -0.1577  0.1105
 6483W        W10002   1.512   2.463   3.151 -0.1774 -0.1573  0.1588
 6484W        W10003   6.908   0.101   3.230 -0.0876 -0.1954 -0.1694
 6485W        W10004   1.196   8.754  10.634 -0.1732  0.0679  0.2149
 6486W        W10005   6.034   4.091  11.436  0.2127 -0.0782 -0.0806
 6487W        W10006   8.113   2.136   9.948 -0.1089 -0.1418  0.1019
 6488W        W10007   3.915   1.517   9.330 -0.2640  0.2414 -0.1769
 6489W        W10008   3.114   2.592   3.338  0.0426 -0.0756 -0.0870
 6490W        W10009   2.423   8.265   3.116  0.3361  0.0057  0.0544
 6491W        W10010   8.655   2.697   9.533 -0.5124  0.0434  0.2730
 6492W        W10011   1.662   9.446   3.655 -0.0415 -0.0823 -0.3118
 6493W        W10012   4.083   7.769   9.453  0.0879  0.2265  0.3804
 6494W        W10013   0.023   7.305  11.147 -0.2070  0.0985 -0.4193
 6495W        W10014   7.845   1.740   9.673  0.1092  0.0792  0.1933
 6496W        W10015   4.766   7.264   3.154 -0.2509  0.4301  0.1084
 6497W        W10016   6.940   5.448   1.759  0.0374 -0.0649 -0.2209
 6498W        W10017   3.210   8.728   9.734  0.0149  0.1695  0.1358
 6499W        W10018   1.426   3.120   9.093  0.0990 -0.0814 -0.0880
 6500W        W10019   3.221   4.914   9.672 -0.1736 -0.0817  0.1118
 6501W        W10020   0.057   4.897   9.826 -0.3411  0.0166  0.0155
 6502W        W10021   8.076   3.051   4.149  0.0588  0.0062 -0.0366
 6503W        W10022   5.995   7.986   9.315  0.0170 -0.0762  0.1033
 6504W        W10023   1.652   4.227  11.074  0.2301  0.1700 -0.1667
 6505W        W10024   6.329   7.164   9.862 -0.1181 -0.0869 -0.0046
 6506W        W10025   1.156   0.131  10.434  0.1339 -0.0535  0.0644
 6507W        W10026   3.497   5.814   3.311  0.0550 -0.0638 -0.3307
 6508W        W10027   9.051   2.105  10.023  0.1122  0.1580  0.2577
 6509W        W10028   6.134   3.378   9.148  0.4094  0.1635 -0.0358
 6510W        W10029   6.471   1.463   3.041  0.0481  0.1472  0.2321
 6511W        W10030   4.941   1.231   3.751  0.0340  0.0688  0.2757
 6512W        W10031   1.508   0.116  10.046  0.2742 -0.2297 -0.1081
 6513W        W10032   4.548   3.931   3.366  0.3081  0.1629  0.2721
 6514W        W10033   6.122   8.779   9.567 -0.3324  0.0559  0.1819
 6515W        W10034   2.258   3.149  10.856 -0.0400  0.1359  0.3216
 6516W        W10035   7.947   0.161  10.972 -0.4355  0.2305 -0.1239
 6517W        W10036   2.609   1.331   1.611 -0.0825 -0.1814 -0.0013
 6518W        W10037   7.270   1.850   0.274  0.2736  0.1684 -0.2777
 6519W        W10038   0.352   1.236  12.166  0.0125  0.1857 -0.2480
 6520W        W10039   0.886   8.150  11.123 -0.2530 -0.3444  0.2333
 6521W        W10040   1.715   1.562   1.406  0.0210 -0.2877  0.1797
 6522W        W10041   3.401   6.326   9.251 -0.2395  0.5080  0.0099
 6523W        W10042   1.295   4.279   8.064  0.0792  0.1523 -0.2345
 6524W        W10043   6.659   9.427   9.693 -0.0959 -0.0995  0.0933
 6525W        W10044   3.296   3.369   1.033  0.2853 -0.1768 -0.0010
 6526W        W10045   8.960   0.600   8.910  0.0713 -0.0783 -0.1716
 6527W        W10046   4.950   7.302   9.660 -0.0932  0.1509 -0.1627
 6528W        W10047   0.567   6.706  10.128  0.2485 -0.0257 -0.0518
 6529W        W10048   9.507   6.007   0.163  0.1325 -0.1423 -0.2997
 6530W        W10049   8.192   0.503   9.393 -0.1002 -0.2137 -0.1896
 6531W        W10050   3.728   8.550  11.540  0.1596 -0.0790  0.0091
 6532W        W10051   0.582   3.685   3.449  0.0779  0.1003 -0.5539
 6533W        W10052   6.907   4.886  11.125 -0.1605 -0.4806 -0.1431
 6534W        W10053   8.294   2.608   9.874 -0.5275  0.0464  0.1834
 6535W        W10054   0.852   3.355   1.802 -0.1711 -0.2124  0.0257
 6536W        W10055   5.831   5.842   1.199 -0.1326 -0.2151 -0.1401
 6537W        W10056   4.049   3.005  10.121  0.1047 -0.3180  0.2499
 6538W        W10057   1.606   4.654   0.253 -0.5726  0.1892 -0.3668
 6539W        W10058   0.394   9.451   0.949 -0.0248  0.1165 -0.1420
 6540W        W10059   0.845   9.529   8.881 -0.0264  0.0138  0.2545
 6541W        W10060   7.432   5.476  12.010  0.1802 -0.1844  0.0043
 6542W        W10061   2.051   3.180   2.633  0.0178  0.0784  0.0206
 6543W        W10062   4.678   1.361   3.261  0.0993 -0.0357  0.1774
 6544W        W10063   1.003   6.536   1.163 -0.1021 -0.1095 -0.2182
 6545W        W10064   3.185   9.493  11.925  0.1801  0.1776  0.1946
 6546W        W10065   4.653   5.566   0.424 -0.0119 -0.2042 -0.3261
 6547W        W10066   6.586   3.117   2.779 -0.3427 -0.1038 -0.0988
 6548W        W10067   0.304   9.774   1.304 -0.1249 -0.1578  0.0452
 6549W        W10068   7.823   9.504   3.879  0.0939  0.1328 -0.1444
 6550W        W10069   7.431   9.354   0.799 -0.1132 -0.2630  0.0900
 6551W        W10070   9.565   5.220   1.195  0.0101 -0.1101  0.0761
 6552W        W10071   8.708   5.408   8.624  0.0799  0.1645 -0.0287
 6553W        W10072   8.270   1.351  11.977 -0.2264  0.0899  0.3503
 6554W        W10073   8.768   5.582  10.240 -0.2616 -0.3047 -0.1554
 6555W        W10074   2.726   4.213   3.018  0.0297 -0.1008 -0.4880
 6556W        W10075   3.689   3.466   2.985  0.0764 -0.1272 -0.0277
 6557W        W10076   7.215   9.634   1.739 -0.0799 -0.4113  0.2558
 6558W        W10077   4.000   0.910  11.662 -0.0649  0.0303  0.3120
 6559W        W10078   7.228   7.595   9.990 -0.1732 -0.2308 -0.0967
 6560W        W10079   7.062   8.789   9.192 -0.0895  0.0111 -0.2722
 6561W        W10080   5.453   9.577   0.600 -0.2741 -0.0184  0.1830
 6562W        W10081   4.480   6.546   7.700  0.1895 -0.0714  0.1444
 6563W        W10082   7.425   8.463   0.125  0.0225 -0.0009 -0.1953
 6564W        W10083   7.267   5.242  10.237  0.1196 -0.1548 -0.0783
 6565W        W10084   7.031   8.299  10.619  0.1392  0.1183 -0.0257
 6566W        W10085   3.338   8.203   2.843 -0.2876  0.3818  0.0832
 6567W        W10086   3.397   4.760  11.157 -0.1659  0.1075  0.4140
 6568W        W10087   3.988   4.245   2.914  0.1378 -0.1654 -0.0106
 6569W        W10088   5.341   6.556   8.189  0.1655  0.2296 -0.1484
 6570W        W10089   5.094   8.336   8.613  0.3250  0.0600 -0.4901
 6571W        W10090   6.498   4.705   1.188 -0.0816  0.0945  0.0515
 6572W        W10091   5.162   9.166   3.172  0.0279  0.1610  0.3260
 6573W        W10092   8.192   8.745   2.234 -0.0900  0.0504 -0.0089
 6574W        W10093   1.734   9.368  10.796 -0.0012 -0.1676 -0.3957
 6575W        W10094   3.305   4.417   1.401  0.1244 -0.3126  0.1357
 6576W        W10095   4.938   4.154   3.766 -0.2133  0.1984  0.1886
 6577W        W10096   3.971   6.071   4.115 -0.0313 -0.1384  0.2796
 6578W        W10097   6.803   6.688   4.542 -0.4198 -0.0712 -0.0680
 6579W        W10098   9.418   3.534   9.875  0.3203 -0.3006 -0.2552
 6580W        W10099   7.336   5.247   2.507  0.2907  0.0357 -0.2254
 6581W        W10100   6.239   8.945   0.979 -0.0790  0.1265 -0.1239
 6582W        W10101   5.578   6.593  11.702 -0.1808  0.0424 -0.0291
 6583W        W10102   8.246   7.785   0.984  0.0503  0.3175  0.1253
 6584W        W10103   9.562   2.023  11.858  0.2156 -0.1038 -0.1424
 6585W        W10104   0.073   8.412   1.062  0.1578  0.1214 -0.2260
 6586W        W10105   3.005   2.438  10.664 -0.2755 -0.3790 -0.0015
 6587W        W10106   7.452   7.871   0.982 -0.0894  0.2040  0.0091
 6588W        W10107   8.814   2.492  10.623  0.2420 -0.2639 -0.1728
 6589W        W10108   5.789   9.285  11.432 -0.0687 -0.0858 -0.1256
 6590W        W10109   5.656   2.349   0.760 -0.0825  0.2609  0.0380
 6591W        W10110   4.207   0.740   2.193  0.0158  0.1573 -0.1863
 6592W        W10111   2.620   7.459   8.967  0.0774  0.0665 -0.0221
 6593W        W10112   7.495   6.546   3.043 -0.2140 -0.2617 -0.2144
 6594W        W10113   1.888   7.059   9.688  0.2775  0.0462 -0.0138
 6595W        W10114   1.667   9.583   8.135 -0.1247 -0.3098  0.0066
 6596W        W10115   6.798   6.046   2.239  0.2086 -0.1181 -0.0175
 6597W        W10116   0.753   8.458   0.034 -0.3670 -0.1163  0.1534
 6598W        W10117   8.869   2.241  12.289  0.0422 -0.0918 -0.0718
 6599W        W10118   6.459   3.902   1.961  0.0540 -0.0562  0.2281
 6600W        W10119   0.646   6.849   3.396  0.3356  0.2723 -0.0455
 6601W        W10120   1.097   5.632   9.341  0.2994 -0.0981 -0.0679
 6602W        W10121   2.084   8.363   1.162  0.3194 -0.0937  0.0831
 6603W        W10122   7.983   8.598  10.837 -0.0839 -0.1775 -0.1528
 6604W        W10123   4.212   8.388   9.261 -0.1819 -0.0553 -0.1820
 6605W        W10124   7.715   3.515   3.881 -0.0296 -0.2181 -0.1285
 6606W        W10125   4.584   1.768   2.359  0.4112 -0.0596  0.3174
 6607W        W10126   8.918   9.616   0.651 -0.1968  0.1634 -0.0046
 6608W        W10127   1.268   8.237   1.776 -0.3188  0.1733  0.0050
 6609W        W10128   1.294   1.104   3.628 -0.1829 -0.0194 -0.3000
 6610W        W10129   7.939   3.149   1.373  0.1514  0.0129  0.2902
 6611W        W10130   9.305   4.211   9.415  0.0290 -0.0221 -0.1214
 6612W        W10131   5.081   7.595   2.863  0.1016  0.1248  0.1319
 6613W        W10132   6.983   2.032   7.965  0.1502  0.1541  0.0427
 6614W        W10133   4.939   8.052   2.351  0.1637  0.0843 -0.2010
 6615W        W10134   7.663   0.496   4.341  0.2660  0.0521 -0.0645
 6616W        W10135   3.278   9.626  11.358 -0.0218 -0.0492  0.0074
 6617W        W10136   1.629   1.726   2.357  0.1150 -0.2546 -0.2442
 6618W        W10137   0.049   9.473   3.742  0.0856  0.0590  0.0162
 6619W        W10138   0.470   7.705   1.259  0.2002 -0.0018  0.1485
 6620W        W10139   4.466   9.361   1.039  0.1346 -0.0574  0.0544
 6621W        W10140   5.823   9.629   9.936  0.3954 -0.0491 -0.1285
 6622W        W10141   8.178   3.833   3.426 -0.1305 -0.0353 -0.0622
 6623W        W10142   0.288   3.054   1.838 -0.0033 -0.2610  0.1612
 6624W        W10143   3.597   6.602   2.786 -0.0094  0.2792 -0.0760
 6625W        W10144   6.232   8.141   4.303 -0.0949 -0.0606 -0.0308
 6626W        W10145   2.733   4.707  11.938  0.0549 -0.3070 -0.0520
 6627W        W10146   6.045   7.639   1.818 -0.4537 -0.3161 -0.3007
 6628W        W10147   6.423   9.170   9.340 -0.3156  0.1523 -0.0986
 6629W        W10148   1.079   3.973  10.502 -0.1942  0.2456 -0.0321
 6630W        W10149   3.711   6.341  10.099  0.1517 -0.2643  0.0536
 6631W        W10150   5.378   5.263  11.550  0.2685 -0.0519  0.1231
 6632W        W10151   9.485   4.860  11.120 -0.3716 -0.0171  0.1869
 6633W        W10152   7.782   0.696   2.146  0.2669 -0.1559 -0.1011
 6634W        W10153   8.846   1.533   0.371  0.0564 -0.0481 -0.1065
 6635W        W10154   8.397   2.796  10.404  0.0804 -0.2449  0.3226
 6636W        W10155   3.698   7.991   8.125 -0.4005  0.2542  0.3122
 6637W        W10156   5.697   5.526   3.658 -0.0452 -0.2765  0.3411
 6638W        W10157   2.458   4.714  10.165  0.4879  0.0765  0.0468
 6639W        W10158   4.070   7.086  10.470  0.1518  0.0150 -0.1773
 6640W        W10159   2.950   2.906  10.937  0.1563  0.0134  0.1057
 6641W        W10160   3.717   5.921   0.457  0.0568  0.1641 -0.1399
 6642W        W10161   7.629   7.922  10.077  0.1412  0.0390 -0.2798
 6643W        W10162   4.885   6.073   3.521 -0.3154  0.1410  0.2197
 6644W        W10163   9.375   7.375   1.865 -0.6642  0.1244 -0.1168
 6645W        W10164   5.053   8.726   4.621 -0.1511 -0.1011  0.2343
 6646W        W10165   4.911   0.554  11.353 -0.1291 -0.1682 -0.3577
 6647W        W10166   7.455   7.552   2.762  0.4891  0.0451  0.3860
 6648W        W10167   8.487   5.271   9.210 -0.3303 -0.0510 -0.0217
 6649W        W10168   3.191   8.573  11.595  0.2842  0.0245 -0.0545
 6650W        W10169   6.638   9.343   3.141 -0.0390 -0.0084  0.0168
 6651W        W10170   5.866   7.036   2.445  0.2312 -0.0175  0.0464
 6652W        W10171   0.180   3.434   3.439 -0.0620 -0.4342  0.1398
 6653W        W10172   9.162   1.729  10.429  0.0893  0.0767 -0.0543
 6654W        W10173   0.130   1.749   2.207 -0.0880 -0.0091  0.0603
 6655W        W10174   4.593   7.878  11.855  0.0483 -0.0535  0.2374
 6656W        W10175   1.721   1.955   8.556 -0.0215 -0.1654 -0.1147
 6657W        W10176   4.348   9.422   1.661  0.1105  0.2406  0.3797
 6658W        W10177   3.710   9.613   4.011  0.0053 -0.2820 -0.2226
 6659W        W10178   0.584   2.215   0.734 -0.0218 -0.1868  0.1349
 6660W        W10179   7.475   9.354   9.691 -0.2898  0.1795 -0.0775
 6661W        W10180   3.597   0.581   4.271 -0.0876  0.1026 -0.2158
 6662W        W10181   1.611   2.996   0.165 -0.3556 -0.0029 -0.1531
 6663W        W10182   4.780   1.514   9.961  0.3902 -0.2145 -0.0340
 6664W        W10183   2.619   7.705   2.823 -0.1035  0.0021  0.0188
 6665W        W10184   4.974   0.379   0.101 -0.2773 -0.0090  0.0952
 6666W        W10185   0.233   1.341   9.490 -0.0386  0.3038  0.0802
 6667W        W10186   9.175   8.285   2.432  0.0532 -0.3041 -0.1163
 6668W        W10187   8.473   1.230   8.208  0.2143  0.1089 -0.3403
 6669W        W10188   4.570   5.068   3.705  0.0222 -0.1325 -0.1402
 6670W        W10189   0.205   6.682  10.794  0.0296  0.0692  0.2162
 6671W        W10190   7.486   8.230   4.643 -0.0270 -0.0541  0.1377
 6672W        W10191   9.680   1.105   2.892  0.0788  0.1505 -0.0021
 6673W        W10192   2.555   3.705  12.071  0.0979 -0.4096 -0.1717
 6674W        W10193   4.329   0.161   1.777 -0.1718  0.2590 -0.2644
 6675W        W10194   1.242   9.404   2.564  0.0763  0.3740  0.1632
 6676W        W10195   2.223   5.248   0.110  0.0851  0.3412 -0.1190
 6677W        W10196   8.589   9.228   8.038 -0.2279  0.3450 -0.0423
 6678W        W10197   1.128   6.491   2.606  0.3815 -0.1890 -0.2826
 6679W        W10198   6.888   0.104   0.185  0.3979 -0.2475  0.0833
 6680W        W10199   2.109   5.069   2.231  0.0579 -0.3088 -0.3716
 6681W        W10200   3.282   9.756  10.779  0.1183  0.0737 -0.1558
 6682W        W10201   3.119   1.106  10.543 -0.3932  0.3406  0.0085
 6683W        W10202   8.076   6.181   1.783  0.3029  0.0565  0.1389
 6684W        W10203   9.286   3.979  10.131  0.2484 -0.0438  0.1699
 6685W        W10204   8.094   0.679   3.319  0.1082 -0.1556  0.0742
 6686W        W10205   2.729   9.611   7.954  0.1866 -0.2371 -0.1843
 6687W        W10206   0.643   2.527  12.118  0.1452  0.0214  0.0293
 6688W        W10207   0.280   2.720   1.058  0.3766  0.5633 -0.0178
 6689W        W10208   1.212   7.007   0.117 -0.2765  0.2176 -0.3692
 6690W        W10209   2.604   5.020   1.446 -0.0123 -0.1229 -0.2173
 6691W        W10210   9.592   1.364   8.959  0.0736  0.1514  0.0282
 6692W        W10211   2.524   0.253   3.610  0.0979 -0.1715 -0.1141
 6693W        W10212   6.418   8.154   0.626  0.2736 -0.3032  0.1057
 6694W        W10213   1.109   3.093  11.490 -0.0540  0.0719 -0.2697
 6695W        W10214   5.453   6.127   8.999  0.4342 -0.3179 -0.2537
 6696W        W10215   8.611   1.511  10.555  0.1350  0.0487 -0.2616
 6697W        W10216   2.300   6.227   9.695 -0.2554  0.1855 -0.1052
 6698W        W10217   3.951   7.653  11.919 -0.1231  0.0337  0.0294
 6699W        W10218   2.639   5.195  10.320  0.1158  0.1677  0.1180
 6700W        W10219   4.960   4.012   8.849 -0.3163  0.0294 -0.1286
 6701W        W10220   7.019   1.234   9.628  0.2257  0.1666  0.1770
 6702W        W10221   6.277   4.831  11.262  0.0838 -0.1813 -0.0764
 6703W        W10222   5.932   6.858  10.778  0.4638 -0.0355  0.0499
 6704W        W10223   7.417   2.179   2.684 -0.2308  0.0732  0.2857
 6705ION    NA+10224   5.955   3.170  11.272 -0.2704 -0.0444  0.1045
 6706ION    NA+10225   6.303   9.192  11.359 -0.1260 -0.2116 -0.1137
 6707ION    NA+10226   2.415   6.400   9.184  0.1941 -0.0083 -0.1812
 6708ION    NA+10227   7.910   5.561  10.845 -0.0609  0.0947  0.0655
 6709ION    NA+10228   6.495   3.476   9.902 -0.1460 -0.0307 -0.2931
 6710ION    NA+10229   9.476   6.247   2.866  0.0955  0.2363  0.0160
 6711ION    NA+10230   8.816   9.661  11.179 -0.1991 -0.0246 -0.0706
 6712ION    NA+10231   8.646   9.470   1.843 -0.1726  0.3930 -0.1338
 6713ION    NA+10232   6.003   5.141  10.895 -0.0077  0.1662 -0.2647
 6714ION    NA+10233   1.180   2.145   0.155 -0.2018  0.3198 -0.0556
 6715ION    NA+10234   4.256   3.087   2.459 -0.1922 -0.4519  0.1332
 6716ION    NA+10235   6.459   4.133   1.450 -0.0747 -0.0353  0.0818
 6717ION    NA+10236   2.437   5.171   3.739 -0.0032  0.0293 -0.2531
 6718ION    NA+10237   3.627   0.871   0.378 -0.1606 -0.3563  0.2362
 6719ION    NA+10238   6.899   0.311   8.168  0.1959 -0.0822 -0.1239
 6720ION    NA+10239   3.817   4.976   4.861  0.0728 -0.1497  0.2833
 6721ION    NA+10240   9.631   0.579  12.236 -0.2285 -0.3260 -0.0445
 6722ION    NA+10241   0.069   4.007   8.803 -0.0801  0.0636  0.1049
 6723ION    NA+10242   0.171   6.179   0.435  0.2479  0.3352 -0.1457
 6724ION    NA+10243   5.120   1.480  10.744  0.1653  0.0679  0.0262
 6725ION    NA+10244   7.486   3.763  11.807  0.0840  0.2019  0.0423
 6726ION    NA+10245   7.240   8.528  11.371 -0.3236 -0.3159 -0.1287
 6727ION    NA+10246   1.672   1.154  10.071 -0.1289 -0.0281  0.0387
 6728ION    NA+10247   8.203   6.086   4.316 -0.2115 -0.2044 -0.0307
 6729ION    NA+10248   7.954   1.088   7.927  0.1156  0.0667 -0.1174
 6730ION    NA+10249   2.503   9.510  10.035 -0.1064  0.2592  0.3208
 6731ION    NA+10250   1.700   8.766   9.911 -0.1362 -0.0786  0.0121
 6732ION    NA+10251   7.895   4.606   4.567 -0.0716  0.1981  0.1327
 6733ION    NA+10252   7.624   2.345  10.559 -0.0393  0.0560  0.1284
 6734ION    NA+10253   2.603   6.879   2.522  0.3921 -0.1773 -0.2894
 6735ION    NA+10254   3.638   7.132   0.258 -0.3517  0.0532 -0.0345
 6736ION    NA+10255   4.462   2.789   8.483  0.0227 -0.1023  0.4739
 6737ION    NA+10256   9.173   8.606  10.986  0.0375 -0.0014  0.0838
 6738ION    NA+10257   1.782   0.972   1.928  0.1261 -0.2249  0.1437
 6739ION    NA+10258   0.787   6.238  11.139 -0.2361 -0.1577 -0.1262
 6740ION    NA+10259   5.482   8.002   4.190 -0.2577 -0.2501 -0.0046
 6741ION    NA+10260   3.579   3.009   3.201 -0.0572  0.2140  0.1917
 6742ION    NA+10261   8.331   6.391   2.963 -0.1670 -0.0291  0.2108
 6743ION    NA+10262   9.181   6.218   9.196  0.0362 -0.2750 -0.0202
 6744ION    NA+10263   2.985   7.916  10.093 -0.2168  0.1216  0.5679
 6745ION    NA+10264   8.673   3.665   0.454  0.0944 -0.2375 -0.4314
 6746ION    NA+10265   0.618   3.262  11.623  0.1661  0.5919  0.1125
 6747ION    NA+10266   1.677   2.747   2.497 -0.1007 -0.0418 -0.0534
 6748ION    NA+10267   8.607   7.222   9.893 -0.0791 -0.4258 -0.0218
 6749ION    NA+10268   1.191   9.427   0.113 -0.1372  0.0630 -0.5762
 6750ION    NA+10269   3.365   8.605   1.418 -0.0346 -0.0049 -0.7025
 6751ION    NA+10270   7.910   1.738  11.400  0.2021  0.0446  0.1681
 6752ION    NA+10271   2.984   9.282   8.327 -0.0750 -0.0912  0.1181
 6753ION    NA+10272   5.728   6.590   4.586  0.0153  0.1015  0.0316
 6754ION    NA+10273   8.472   2.189   4.254  0.0344  0.0638  0.3479
 6755ION    NA+10274   8.214   7.490   2.566  0.0728  0.2329 -0.0255
 6756ION    NA+10275   1.933   5.951   3.378 -0.2282 -0.2839  0.0489
 6757ION    NA+10276   7.587   1.565   3.979  0.1996 -0.1159 -0.0661
 6758ION    NA+10277   4.948   0.437   3.044  0.0063  0.0064  0.1696
 6759ION    NA+10278   6.286   5.829   2.362 -0.3701  0.2578  0.3321
 6760ION    NA+10279   8.171   3.601   8.467 -0.0696 -0.2746 -0.1494
 6761ION    NA+10280   7.043   3.696  10.617  0.1268  0.0099 -0.0795
 6762ION    NA+10281   0.886   5.644   3.324 -0.0141 -0.1100 -0.0606
 6763ION    NA+10282   7.029   8.719  10.899 -0.1762  0.2795 -0.0221
 6764ION    NA+10283   3.205   7.293   0.087 -0.0542  0.0448 -0.4047
 6765ION    NA+10284   6.044   7.110  12.252 -0.3138 -0.3017 -0.0234
 6766ION    NA+10285   7.634   2.745   4.376 -0.0469 -0.2430  0.1109
 6767ION    NA+10286   5.449   2.408   3.859  0.1252  0.3130 -0.1383
 6768ION    NA+10287   5.522   9.406   1.696  0.2319 -0.1155  0.0753
 6769ION    NA+10288   7.788   2.710   0.679  0.2165 -0.0102  0.0393
 6770ION    NA+10289   2.409   2.000  11.892 -0.1894 -0.0635  0.0111
 6771ION    NA+10290   1.520   6.546  11.679 -0.0750  0.2755  0.1270
 6772ION    NA+10291   1.106   1.726   2.321 -0.4818  0.0815  0.1089
 6773ION    NA+10292   3.750   3.047   4.334 -0.0244  0.2931  0.1040
 6774ION    NA+10293   8.675   8.900   2.475 -0.1019  0.0608  0.0536
 6775ION    NA+10294   9.702   5.492   9.015  0.0699  0.1629  0.2269
 6776ION    CL-10295   3.967   2.985   2.816  0.1349 -0.0228 -0.0516
 6777ION    CL-10296   5.281   0.987  10.386  0.1469  0.1211  0.0597
 6778ION    CL-10297   2.828   2.271  11.932 -0.0077  0.1181 -0.3617
 6779ION    CL-10298   7.973   1.504   8.320  0.2449 -0.2475  0.4982
 6780ION    CL-10299   0.226   6.195   2.738  0.0747 -0.1947  0.3020
 6781ION    CL-10300   1.336   1.448  10.336 -0.0104  0.0249 -0.1931
 6782ION    CL-10301   9.097   3.790   3.923  0.1197  0.1986 -0.3199
 6783ION    CL-10302   4.352   7.903   8.965  0.3640 -0.0687 -0.1893
 6784ION    CL-10303   5.183   5.173   9.529 -0.0040  0.1678  0.0381
 6785ION    CL-10304   8.915   4.084   0.528 -0.1742 -0.2708  0.0793
 6786ION    CL-10305   6.266   0.234   3.878 -0.0788 -0.1343  0.1514
 6787ION    CL-10306   8.761   6.543   9.992  0.0593 -0.0788 -0.0698
 6788ION    CL-10307   0.455   5.444   3.164 -0.0230 -0.0239  0.0913
 6789ION    CL-10308   1.500   7.343  12.141  0.1563  0.2568  0.0879
 6790ION    CL-10309   2.648   6.824   9.277 -0.0390  0.2728 -0.0220
 6791ION    CL-10310   7.283   3.883  11.002  0.2659  0.2132 -0.2442
 6792ION    CL-10311   5.070   7.640   9.283 -0.3296 -0.1447 -0.0632
 6793ION    CL-10312   9.202   0.416   0.030 -0.2621 -0.0504  0.0024
 6794ION    CL-10313   8.868   8.193  10.940  0.0380 -0.0300 -0.0403
 6795ION    CL-10314   0.144   0.334   9.766 -0.3156  0.0220  0.4368
 6796ION    CL-10315   3.822   0.315   0.241  0.0096  0.3145  0.1841
 6797ION    CL-10316   7.992   6.793   2.945  0.0961  0.0465  0.0305
 6798ION    CL-10317   4.839   9.772   3.390  0.0721 -0.1752  0.2285
 6799ION    CL-10318   6.697   3.860  10.153  0.3120 -0.1962  0.1466
 6800ION    CL-10319   8.111   1.539   3.110  0.0560 -0.3087  0.0836
 6801ION    CL-10320   5.645   2.491   8.840 -0.0522 -0.1092 -0.1642
 6802ION    CL-10321   6.034   9.340   1.860  0.2426  0.0441  0.0432
 6803ION    CL-10322   6.165   4.261   2.217  0.0951  0.1816 -0.2213
 6804ION    CL-10323   7.841   2.105  10.995  0.0747 -0.0436 -0.2483
 6805ION    CL-10324   7.271   4.066  12.078 -0.1288 -0.3334 -0.1853
 6806ION    CL-10325   5.594   1.641   3.476 -0.0943 -0.2245  0.3052
 6807ION    CL-10326   9.015   0.372  11.060 -0.0774 -0.4286  0.3277
 6808ION    CL-10327   1.647   8.992  10.530  0.1632 -0.1288  0.1039
 6809ION    CL-10328   3.370   1.273   0.214  0.1417  0.0906 -0.0866
 6810ION    CL-10329   4.361   4.767   8.998 -0.0469 -0.0185  0.0476
 6811ION    CL-10330   3.644   0.625   8.818  0.3632 -0.2202  0.0511
 6812ION    CL-10331   1.461   7.000  11.497 -0.1078 -0.0106 -0.2304
 6813ION    CL-10332   2.471   0.341   0.504 -0.2843 -0.3353  0.1849
 6814ION    CL-10333   4.949   2.728   3.374  0.0119 -0.2042 -0.0015
 6815ION    CL-10334   6.385   3.198  10.510 -0.1373  0.5004  0.2810
 6816ION    CL-10335   8.659   0.379   3.198 -0.1331 -0.0534  0.0612
 6817ION    CL-10336   0.900   2.176   2.133  0.1256  0.0111  0.1465
 6818ION    CL-10337   9.356   1.152   3.307  0.0624 -0.0275 -0.0216
 6819ION    CL-10338   7.796   6.055   4.007 -0.2455  0.2853 -0.2578
 6820ION    CL-10339   4.270   3.361   0.506 -0.2521  0.0469  0.0858
 6821ION    CL-10340   8.087   2.971   0.409 -0.1605 -0.0381  0.0474
 6822ION    CL-10341   4.635   5.000   2.170  0.1668 -0.2388  0.1712
 6823ION    CL-10342   1.824   2.239   2.413  0.1137 -0.3061  0.0726
 6824ION    CL-10343   8.703   5.906  11.898 -0.1430 -0.0575 -0.0062
 6825ION    CL-10344   3.714   8.070   3.636 -0.3885 -0.0541  0.0306
 6826ION    CL-10345   3.620   7.306  12.064  0.5030 -0.2173  0.4641
 6827ION    CL-10346   5.708   9.314   8.814 -0.3154  0.1804 -0.1397
 6828ION    CL-10347   3.016   7.770   9.554  0.0797  0.1634 -0.2588
 6829ION    CL-10348   8.929   9.213   3.309  0.1970  0.0846  0.1741
 6830ION    CL-10349   5.443   3.073  11.104 -0.1812 -0.3896 -0.2030
 6831ION    CL-10350   1.670   2.383   0.123 -0.3054  0.0132 -0.0727
 6832ION    CL-10351   3.599   6.751   0.680 -0.0591 -0.2938 -0.0618
 6833ION    CL-10352   3.169   5.135   2.302  0.1454 -0.1348  0.2272
 6834ION    CL-10353   7.431   7.705  11.702  0.1444  0.0058 -0.0911
 6835ION    CL-10354   8.758   6.374   3.165 -0.1787  0.2016  0.0255
 6836ION    CL-10355   9.686   5.164   8.656  0.1827  0.0175 -0.0171
 6837ION    CL-10356   1.030   1.813  10.538 -0.1519 -0.3315  0.2385
 6838ION    CL-10357   1.642   9.209   0.203  0.0656  0.2812 -0.0792
 6839ION    CL-10358   6.853   2.506  11.903 -0.2336 -0.1149  0.0552
 6840ION    CL-10359   3.870   8.586   1.150 -0.3208 -0.2125 -0.0595
 6841ION    CL-10360   8.344   2.839   3.730 -0.5478 -0.1665 -0.1454
 6842ION    CL-10361   6.203   7.604  12.192  0.0386  0.2721  0.0468
 6843ION    CL-10362   6.961   8.961  11.396 -0.1427  0.3993 -0.0795
 6844ION    CL-10363   1.922   1.294   2.286 -0.4737  0.1344  0.2788
 6845ION    CL-10364   8.375   9.185   2.190 -0.2198 -0.0356  0.1591
 6846ION    CL-10365   1.243   1.527   0.736  0.2487  0.3747 -0.0950
   9.79041   9.79041  12.32604
