Protein in INSANE! Membrane UpperLeaflet>POPC=1.0 LowerLeaflet>POPC=1.0
11125
    1AU     AUC    1   5.248   5.306   6.007
    1AU     AUC    2   5.531   5.316   5.834
    1AU     AUC    3   5.523   5.296   6.180
    1AU     AUC    4   4.963   5.297   5.840
    1AU     AUC    5   4.977   5.336   6.193
    1AU     AUC    6   5.071   5.584   6.004
    1AU     AUC    7   5.439   5.580   6.001
    1AU     AUC    8   5.062   5.039   6.010
    1AU     AUC    9   5.413   5.016   6.002
    1AU     AUC   10   5.251   5.132   6.283
    1AU     AUC   11   5.241   5.480   6.275
    1AU     AUC   12   5.247   5.141   5.727
    1AU     AUC   13   5.266   5.462   5.729
    1AU     AUC   14   5.845   5.323   5.664
    1AU     AUC   15   5.859   5.272   6.023
    1AU     AUC   16   5.800   5.269   6.357
    1AU     AUC   17   4.658   5.289   5.671
    1AU     AUC   18   4.638   5.323   6.038
    1AU     AUC   19   4.686   5.361   6.380
    1AU     AUC   20   4.899   5.891   5.975
    1AU     AUC   21   5.254   5.903   5.958
    1AU     AUC   22   5.629   5.862   5.994
    1AU     AUC   23   4.862   4.762   6.013
    1AU     AUC   24   5.212   4.706   5.995
    1AU     AUC   25   5.574   4.711   5.981
    1AU     AUC   26   5.234   4.956   6.574
    1AU     AUC   27   5.267   5.335   6.618
    1AU     AUC   28   5.258   5.671   6.560
    1AU     AUC   29   5.272   4.972   5.447
    1AU     AUC   30   5.268   5.302   5.393
    1AU     AUC   31   5.249   5.616   5.437
    1AU     AUC   32   5.521   5.108   6.497
    1AU     AUC   33   5.558   5.478   6.493
    1AU     AUC   34   5.584   5.166   5.500
    1AU     AUC   35   5.582   5.493   5.545
    1AU     AUC   36   4.946   5.174   6.523
    1AU     AUC   37   4.962   5.543   6.490
    1AU     AUC   38   4.949   5.120   5.542
    1AU     AUC   39   4.924   5.431   5.501
    1AU     AUC   40   5.785   5.590   5.864
    1AU     AUC   41   5.748   5.588   6.201
    1AU     AUC   42   4.749   5.596   5.833
    1AU     AUC   43   4.768   5.651   6.188
    1AU     AUC   44   5.720   4.999   5.820
    1AU     AUC   45   5.695   4.952   6.181
    1AU     AUC   46   4.725   5.001   5.862
    1AU     AUC   47   4.781   5.050   6.223
    1AU     AUC   48   5.074   5.843   6.267
    1AU     AUC   49   5.435   5.786   6.258
    1AU     AUC   50   5.054   4.830   6.308
    1AU     AUC   51   5.377   4.785   6.278
    1AU     AUC   52   5.063   5.737   5.691
    1AU     AUC   53   5.452   5.781   5.702
    1AU     AUC   54   5.050   4.836   5.709
    1AU     AUC   55   5.443   4.849   5.700
    1AU    AUSL   56   5.787   5.234   6.697
    1AU    AUSL   57   5.509   4.804   6.656
    1AU     AUL   58   5.827   4.824   6.838
    1AU       S   59   5.887   4.433   6.614
    1AU     LIG   60   5.783   4.281   6.986
    1AU     LIG   61   6.004   3.964   7.223
    1AU     LIG   62   6.264   3.636   7.433
    1AU     LIG   63   6.459   3.484   7.832
    1AU       S   64   6.059   5.210   6.771
    1AU     LIG   65   6.070   5.145   7.215
    1AU     LIG   66   6.211   5.082   7.668
    1AU     LIG   67   6.518   5.076   8.042
    1AU     LIG   68   6.879   5.164   8.349
    1AU    AUSL   69   5.395   5.143   6.892
    1AU    AUSL   70   5.112   5.501   6.903
    1AU     AUL   71   5.302   5.440   7.232
    1AU       S   72   5.549   5.093   7.068
    1AU     LIG   73   5.409   4.971   7.436
    1AU     LIG   74   5.626   4.813   7.816
    1AU     LIG   75   5.745   4.617   8.234
    1AU     LIG   76   5.911   4.642   8.674
    1AU       S   77   4.907   5.229   7.137
    1AU     LIG   78   4.972   5.214   7.607
    1AU     LIG   79   4.705   5.196   7.985
    1AU     LIG   80   4.533   5.225   8.419
    1AU     LIG   81   4.542   5.466   8.829
    1AU    AUSL   82   5.522   5.564   6.846
    1AU    AUSL   83   5.882   5.642   6.591
    1AU     AUL   84   5.799   5.509   6.991
    1AU       S   85   5.396   5.868   6.987
    1AU     LIG   86   5.641   5.816   7.372
    1AU     LIG   87   5.728   5.895   7.847
    1AU     LIG   88   5.771   5.938   8.334
    1AU     LIG   89   5.810   5.893   8.812
    1AU       S   90   5.955   5.891   6.783
    1AU     LIG   91   6.324   5.681   6.865
    1AU     LIG   92   6.656   5.858   7.172
    1AU     LIG   93   6.943   6.150   7.440
    1AU     LIG   94   7.363   6.358   7.551
    1AU    AUSL   95   5.807   5.453   5.279
    1AU    AUSL   96   5.592   5.785   5.479
    1AU     AUL   97   5.711   5.826   5.143
    1AU       S   98   5.776   5.505   4.825
    1AU     LIG   99   6.146   5.347   4.640
    1AU     LIG  100   6.237   5.051   4.313
    1AU     LIG  101   6.281   4.968   3.859
    1AU     LIG  102   6.494   5.056   3.449
    1AU       S  103   6.041   6.020   5.395
    1AU     LIG  104   6.047   6.210   4.989
    1AU     LIG  105   6.214   6.370   4.569
    1AU     LIG  106   6.471   6.651   4.295
    1AU     LIG  107   6.709   6.947   4.035
    1AU    AUSL  108   5.573   5.130   5.111
    1AU    AUSL  109   5.917   5.064   5.417
    1AU     AUL  110   5.995   5.208   5.124
    1AU       S  111   6.035   4.745   5.171
    1AU     LIG  112   6.211   4.418   4.859
    1AU     LIG  113   6.470   4.034   4.729
    1AU     LIG  114   6.742   3.751   4.455
    1AU     LIG  115   7.139   3.727   4.184
    1AU       S  116   5.669   5.360   4.822
    1AU     LIG  117   5.778   4.978   4.621
    1AU     LIG  118   5.832   4.755   4.194
    1AU     LIG  119   5.830   4.773   3.714
    1AU     LIG  120   6.054   4.827   3.297
    1AU    AUSL  121   5.382   5.498   5.236
    1AU    AUSL  122   5.156   5.105   5.220
    1AU     AUL  123   5.303   5.123   4.944
    1AU       S  124   4.851   5.137   4.803
    1AU     LIG  125   4.909   4.814   4.527
    1AU     LIG  126   4.719   4.645   4.131
    1AU     LIG  127   4.507   4.679   3.706
    1AU     LIG  128   4.568   4.758   3.250
    1AU       S  129   5.442   5.565   4.860
    1AU     LIG  130   5.517   5.387   4.368
    1AU     LIG  131   5.834   5.240   4.026
    1AU     LIG  132   5.963   5.262   3.566
    1AU     LIG  133   5.921   5.480   3.150
    1AU    AUSL  134   4.718   5.431   6.746
    1AU    AUSL  135   5.006   5.791   6.616
    1AU     AUL  136   4.873   5.734   6.959
    1AU       S  137   4.731   5.349   7.193
    1AU     LIG  138   4.504   5.030   7.409
    1AU     LIG  139   4.272   4.963   7.823
    1AU     LIG  140   4.103   4.972   8.268
    1AU     LIG  141   3.766   5.078   8.584
    1AU       S  142   4.581   6.032   6.714
    1AU     LIG  143   4.679   6.205   7.109
    1AU     LIG  144   4.530   6.468   7.468
    1AU     LIG  145   4.210   6.721   7.707
    1AU     LIG  146   4.033   6.887   8.122
    1AU    AUSL  147   5.030   5.148   6.673
    1AU    AUSL  148   4.609   5.015   6.642
    1AU     AUL  149   4.526   5.235   6.798
    1AU       S  150   4.500   4.780   6.901
    1AU     LIG  151   4.068   4.663   6.707
    1AU     LIG  152   3.838   4.269   6.814
    1AU     LIG  153   3.649   3.942   7.083
    1AU     LIG  154   3.373   3.734   7.389
    1AU       S  155   4.933   5.093   7.055
    1AU     LIG  156   4.946   4.764   7.381
    1AU     LIG  157   4.734   4.718   7.775
    1AU     LIG  158   4.563   4.736   8.203
    1AU     LIG  159   4.449   4.550   8.612
    1AU    AUSL  160   4.745   5.206   5.275
    1AU    AUSL  161   4.927   4.835   5.450
    1AU     AUL  162   4.969   4.821   5.116
    1AU       S  163   4.644   5.113   4.946
    1AU     LIG  164   4.410   4.889   4.627
    1AU     LIG  165   4.289   4.922   4.165
    1AU     LIG  166   4.032   4.915   3.764
    1AU     LIG  167   3.595   5.041   3.613
    1AU       S  168   4.546   4.728   5.262
    1AU     LIG  169   4.568   4.374   5.023
    1AU     LIG  170   4.219   4.095   4.895
    1AU     LIG  171   3.873   3.929   4.620
    1AU     LIG  172   3.666   3.716   4.248
    1AU    AUSL  173   5.001   5.502   5.071
    1AU    AUSL  174   4.532   5.547   5.426
    1AU     AUL  175   4.648   5.547   5.097
    1AU       S  176   4.238   5.726   5.250
    1AU     LIG  177   4.035   5.979   4.904
    1AU     LIG  178   3.968   6.234   4.521
    1AU     LIG  179   3.655   6.429   4.235
    1AU     LIG  180   3.181   6.492   4.176
    1AU       S  181   4.930   5.368   4.766
    1AU     LIG  182   4.680   5.255   4.355
    1AU     LIG  183   4.691   5.126   3.906
    1AU     LIG  184   4.639   5.223   3.452
    1AU     LIG  185   4.771   5.476   3.068
    1AU    AUSL  186   6.011   5.750   6.048
    1AU    AUSL  187   5.960   5.616   5.637
    1AU     AUL  188   6.269   5.895   5.864
    1AU       S  189   6.090   5.782   5.458
    1AU     LIG  190   6.206   5.701   5.035
    1AU     LIG  191   6.475   5.973   4.769
    1AU     LIG  192   6.749   6.279   4.529
    1AU     LIG  193   7.006   6.573   4.255
    1AU       S  194   6.473   5.610   6.190
    1AU     LIG  195   6.835   5.858   6.061
    1AU     LIG  196   7.271   6.059   6.069
    1AU     LIG  197   7.471   6.507   6.067
    1AU     LIG  198   7.737   6.773   6.347
    1AU    AUSL  199   6.212   5.379   5.883
    1AU    AUSL  200   6.166   5.031   6.179
    1AU     AUL  201   6.531   5.115   6.133
    1AU       S  202   6.348   5.448   5.907
    1AU     LIG  203   6.811   5.400   5.840
    1AU     LIG  204   7.246   5.570   5.867
    1AU     LIG  205   7.658   5.742   5.780
    1AU     LIG  206   8.055   5.543   5.582
    1AU       S  207   6.386   4.675   6.105
    1AU     LIG  208   6.857   4.656   6.161
    1AU     LIG  209   7.280   4.469   6.232
    1AU     LIG  210   7.700   4.348   6.313
    1AU     LIG  211   8.096   4.509   6.451
    1AU    AUSL  212   5.981   5.395   6.271
    1AU    AUSL  213   5.814   5.997   6.330
    1AU     AUL  214   6.106   5.835   6.350
    1AU       S  215   6.004   6.178   6.659
    1AU     LIG  216   6.395   6.211   6.899
    1AU     LIG  217   6.709   6.499   7.127
    1AU     LIG  218   6.861   6.951   7.236
    1AU     LIG  219   6.897   7.451   7.227
    1AU       S  220   6.292   5.427   6.382
    1AU     LIG  221   6.722   5.433   6.571
    1AU     LIG  222   7.138   5.556   6.368
    1AU     LIG  223   7.580   5.736   6.367
    1AU     LIG  224   8.011   5.896   6.548
    1AU    AUSL  225   4.573   5.868   6.020
    1AU    AUSL  226   4.646   5.671   6.411
    1AU     AUL  227   4.333   5.968   6.254
    1AU       S  228   4.497   5.824   6.661
    1AU     LIG  229   4.372   5.782   7.098
    1AU     LIG  230   4.158   6.135   7.345
    1AU     LIG  231   3.850   6.360   7.637
    1AU     LIG  232   3.520   6.444   7.976
    1AU       S  233   4.567   6.251   5.942
    1AU     LIG  234   4.103   6.198   5.839
    1AU     LIG  235   3.627   6.300   5.829
    1AU     LIG  236   3.195   6.517   5.878
    1AU     LIG  237   2.785   6.671   6.068
    1AU    AUSL  238   4.541   5.477   5.833
    1AU    AUSL  239   4.658   5.921   5.611
    1AU     AUL  240   4.354   5.791   5.705
    1AU       S  241   4.158   5.289   5.493
    1AU     LIG  242   3.843   5.656   5.596
    1AU     LIG  243   3.402   5.848   5.694
    1AU     LIG  244   3.087   6.156   5.509
    1AU     LIG  245   2.610   6.190   5.490
    1AU       S  246   4.485   6.174   5.445
    1AU     LIG  247   4.238   6.413   5.129
    1AU     LIG  248   4.210   6.638   4.729
    1AU     LIG  249   3.983   6.997   4.548
    1AU     LIG  250   3.673   7.297   4.721
    1AU    AUSL  251   4.321   5.512   6.210
    1AU    AUSL  252   4.298   5.146   5.915
    1AU     AUL  253   4.144   5.461   5.936
    1AU       S  254   4.095   5.060   6.191
    1AU     LIG  255   3.776   5.130   5.866
    1AU     LIG  256   3.389   4.911   5.734
    1AU     LIG  257   2.974   4.696   5.742
    1AU     LIG  258   2.564   4.826   5.629
    1AU       S  259   4.174   5.534   6.434
    1AU     LIG  260   3.748   5.503   6.249
    1AU     LIG  261   3.313   5.693   6.343
    1AU     LIG  262   2.896   5.925   6.414
    1AU     LIG  263   2.494   6.215   6.352
    1AU    AUSL  264   5.917   4.713   6.024
    1AU    AUSL  265   5.794   4.966   6.376
    1AU     AUL  266   6.102   4.864   6.423
    1AU       S  267   6.119   4.553   6.004
    1AU     LIG  268   6.482   4.212   6.124
    1AU     LIG  269   6.944   4.127   6.041
    1AU     LIG  270   7.407   3.966   6.077
    1AU     LIG  271   7.784   3.847   6.345
    1AU       S  272   6.012   4.423   6.464
    1AU     LIG  273   6.286   4.243   6.847
    1AU     LIG  274   6.527   4.021   7.197
    1AU     LIG  275   6.757   3.809   7.549
    1AU     LIG  276   7.068   3.866   7.911
    1AU    AUSL  277   5.913   5.096   5.832
    1AU    AUSL  278   5.848   4.678   5.609
    1AU     AUL  279   6.127   4.903   5.647
    1AU       S  280   6.400   4.694   5.924
    1AU     LIG  281   6.709   4.476   5.705
    1AU     LIG  282   7.169   4.471   5.726
    1AU     LIG  283   7.603   4.350   5.795
    1AU     LIG  284   8.009   4.314   5.585
    1AU       S  285   6.041   4.540   5.337
    1AU     LIG  286   6.098   4.071   5.229
    1AU     LIG  287   6.263   3.664   5.018
    1AU     LIG  288   6.548   3.366   4.775
    1AU     LIG  289   6.723   2.918   4.744
    1AU    AUSL  290   4.503   4.788   6.061
    1AU    AUSL  291   4.592   5.039   5.635
    1AU     AUL  292   4.247   4.857   5.779
    1AU       S  293   4.421   4.873   5.349
    1AU     LIG  294   4.086   4.575   5.119
    1AU     LIG  295   3.732   4.257   5.007
    1AU     LIG  296   3.373   4.053   4.763
    1AU     LIG  297   3.025   4.107   4.449
    1AU       S  298   4.079   4.827   6.220
    1AU     LIG  299   3.749   4.637   6.001
    1AU     LIG  300   3.306   4.520   6.093
    1AU     LIG  301   2.923   4.404   6.354
    1AU     LIG  302   2.569   4.051   6.328
    1AU    AUSL  303   4.561   5.171   6.259
    1AU    AUSL  304   4.824   4.803   6.339
    1AU     AUL  305   4.494   4.755   6.405
    1AU       S  306   4.531   4.565   6.821
    1AU     LIG  307   4.337   4.154   6.697
    1AU     LIG  308   4.009   3.766   6.744
    1AU     LIG  309   3.698   3.431   6.952
    1AU     LIG  310   3.256   3.308   7.120
    1AU       S  311   4.153   5.066   6.373
    1AU     LIG  312   3.631   5.008   6.357
    1AU     LIG  313   3.193   5.006   6.199
    1AU     LIG  314   2.755   4.895   6.169
    1AU     LIG  315   2.434   4.666   6.428
    1AU    AUSL  316   5.238   6.117   6.471
    1AU    AUSL  317   4.829   6.044   6.313
    1AU     AUL  318   5.034   6.130   6.711
    1AU       S  319   4.679   6.251   6.431
    1AU     LIG  320   4.378   6.476   6.778
    1AU     LIG  321   4.142   6.649   7.175
    1AU     LIG  322   3.933   7.045   7.381
    1AU     LIG  323   3.696   7.485   7.371
    1AU       S  324   5.280   6.453   6.431
    1AU     LIG  325   5.382   6.503   6.840
    1AU     LIG  326   5.482   6.922   7.004
    1AU     LIG  327   5.615   7.356   7.128
    1AU     LIG  328   5.671   7.704   7.446
    1AU    AUSL  329   5.089   6.251   6.054
    1AU    AUSL  330   5.408   6.166   5.713
    1AU     AUL  331   5.319   6.514   5.829
    1AU       S  332   5.113   6.516   6.250
    1AU     LIG  333   5.291   6.935   6.506
    1AU     LIG  334   5.323   7.378   6.689
    1AU     LIG  335   5.106   7.816   6.687
    1AU     LIG  336   4.848   8.161   6.890
    1AU       S  337   5.149   6.406   5.418
    1AU     LIG  338   5.478   6.773   5.417
    1AU     LIG  339   5.710   7.216   5.330
    1AU     LIG  340   5.993   7.648   5.310
    1AU     LIG  341   6.181   8.108   5.268
    1AU    AUSL  342   5.461   6.034   6.115
    1AU    AUSL  343   5.480   5.776   6.498
    1AU     AUL  344   5.553   6.102   6.557
    1AU       S  345   5.839   6.006   6.900
    1AU     LIG  346   6.125   5.961   7.259
    1AU     LIG  347   6.430   6.229   7.469
    1AU     LIG  348   6.686   6.527   7.728
    1AU     LIG  349   6.679   6.800   8.123
    1AU       S  350   5.542   6.390   6.203
    1AU     LIG  351   5.744   6.667   6.517
    1AU     LIG  352   5.788   7.134   6.648
    1AU     LIG  353   5.864   7.594   6.743
    1AU     LIG  354   5.823   8.043   6.809
    1AU    AUSL  355   5.199   4.595   6.442
    1AU    AUSL  356   5.607   4.591   6.284
    1AU     AUL  357   5.427   4.482   6.669
    1AU       S  358   5.191   4.120   6.489
    1AU     LIG  359   4.906   3.988   6.812
    1AU     LIG  360   4.852   3.526   6.910
    1AU     LIG  361   4.888   3.050   6.935
    1AU     LIG  362   4.714   2.655   7.162
    1AU       S  363   5.761   4.365   6.335
    1AU     LIG  364   5.940   3.940   6.599
    1AU     LIG  365   6.284   3.699   6.878
    1AU     LIG  366   6.653   3.478   7.130
    1AU     LIG  367   6.885   3.027   7.136
    1AU    AUSL  368   4.875   4.434   6.160
    1AU    AUSL  369   4.972   4.747   6.755
    1AU     AUL  370   4.867   4.466   6.520
    1AU       S  371   4.979   4.059   6.314
    1AU     LIG  372   4.770   3.671   6.414
    1AU     LIG  373   4.615   3.232   6.525
    1AU     LIG  374   4.500   2.798   6.691
    1AU     LIG  375   4.611   2.350   6.750
    1AU       S  376   4.767   4.643   6.949
    1AU     LIG  377   4.590   4.229   7.163
    1AU     LIG  378   4.174   3.994   7.172
    1AU     LIG  379   3.945   3.639   7.385
    1AU     LIG  380   4.029   3.412   7.799
    1AU    AUSL  381   5.304   4.363   6.100
    1AU    AUSL  382   5.068   4.607   5.820
    1AU     AUL  383   4.952   4.263   5.896
    1AU       S  384   5.334   4.152   5.677
    1AU     LIG  385   5.019   3.766   5.774
    1AU     LIG  386   4.792   3.308   5.679
    1AU     LIG  387   4.732   2.844   5.493
    1AU     LIG  388   4.612   2.474   5.222
    1AU       S  389   5.309   4.152   6.221
    1AU     LIG  390   5.276   3.674   6.217
    1AU     LIG  391   5.145   3.312   6.506
    1AU     LIG  392   5.346   2.911   6.671
    1AU     LIG  393   5.752   2.643   6.689
    1AU    AUSL  394   5.229   5.951   5.355
    1AU    AUSL  395   5.787   6.002   5.794
    1AU     AUL  396   5.572   6.155   5.446
    1AU       S  397   5.169   6.279   5.231
    1AU     LIG  398   5.538   6.447   5.027
    1AU     LIG  399   5.579   6.907   4.916
    1AU     LIG  400   5.503   7.292   4.647
    1AU     LIG  401   5.577   7.602   4.286
    1AU       S  402   5.997   6.162   5.615
    1AU     LIG  403   6.386   6.359   5.379
    1AU     LIG  404   6.545   6.483   4.955
    1AU     LIG  405   6.809   6.788   4.687
    1AU     LIG  406   7.129   7.162   4.675
    1AU    AUSL  407   5.040   5.962   5.757
    1AU    AUSL  408   4.957   5.640   5.460
    1AU     AUL  409   4.882   5.932   5.325
    1AU       S  410   4.954   6.314   5.589
    1AU     LIG  411   4.982   6.829   5.583
    1AU     LIG  412   5.169   7.213   5.351
    1AU     LIG  413   5.040   7.682   5.281
    1AU     LIG  414   4.776   8.032   5.082
    1AU       S  415   4.442   5.959   5.199
    1AU     LIG  416   4.523   6.134   4.790
    1AU     LIG  417   4.447   6.346   4.378
    1AU     LIG  418   4.156   6.665   4.190
    1AU     LIG  419   4.158   7.127   4.042
    1AU    AUSL  420   5.251   4.559   5.429
    1AU    AUSL  421   4.664   4.610   5.713
    1AU     AUL  422   4.917   4.456   5.467
    1AU       S  423   4.466   4.583   5.473
    1AU     LIG  424   4.268   4.194   5.423
    1AU     LIG  425   3.947   3.883   5.286
    1AU     LIG  426   3.640   3.665   5.006
    1AU     LIG  427   3.448   3.236   4.884
    1AU       S  428   5.295   4.162   5.504
    1AU     LIG  429   5.203   3.732   5.299
    1AU     LIG  430   4.976   3.293   5.192
    1AU     LIG  431   4.817   2.888   4.968
    1AU     LIG  432   4.752   2.601   4.575
    1AU    AUSL  433   5.496   4.584   5.803
    1AU    AUSL  434   5.509   4.889   5.445
    1AU     AUL  435   5.582   4.518   5.417
    1AU       S  436   5.598   4.213   5.768
    1AU     LIG  437   5.536   3.714   5.743
    1AU     LIG  438   5.303   3.320   5.603
    1AU     LIG  439   5.238   2.877   5.410
    1AU     LIG  440   5.384   2.409   5.434
    1AU       S  441   5.807   4.727   5.081
    1AU     LIG  442   5.719   4.301   4.966
    1AU     LIG  443   5.949   3.957   4.728
    1AU     LIG  444   6.216   3.656   4.468
    1AU     LIG  445   6.440   3.568   4.057
    2POPC   NC3  446  10.036   5.943   8.080
    2POPC   PO4  447  10.434   5.413   7.991
    2POPC   GL1  448  10.243   5.545   7.665
    2POPC   GL2  449  10.269   5.855   7.648
    2POPC   C1A  450  10.149   5.361   7.280
    2POPC   D2A  451  10.324   5.390   6.889
    2POPC   C3A  452  10.111   5.414   6.474
    2POPC   C4A  453  10.117   5.390   5.981
    2POPC   C1B  454  10.183   5.915   7.272
    2POPC   C2B  455  10.277   5.949   6.904
    2POPC   C3B  456  10.022   5.909   6.596
    2POPC   C4B  457  10.197   5.834   6.216
    3POPC   NC3  458   0.451   9.285   8.326
    3POPC   PO4  459   0.659   9.644   7.877
    3POPC   GL1  460   0.484   9.523   7.517
    3POPC   GL2  461   0.382   9.238   7.595
    3POPC   C1A  462   0.220   9.585   7.202
    3POPC   D2A  463   0.377   9.665   6.823
    3POPC   C3A  464   0.078   9.660   6.530
    3POPC   C4A  465   0.253   9.732   6.166
    3POPC   C1B  466   0.279   9.061   7.210
    3POPC   C2B  467   0.526   9.128   6.826
    3POPC   C3B  468   0.430   9.309   6.421
    3POPC   C4B  469   0.488   9.323   5.936
    4POPC   NC3  470   9.453   7.342   8.224
    4POPC   PO4  471   9.056   6.820   8.159
    4POPC   GL1  472   9.190   7.110   7.843
    4POPC   GL2  473   9.535   7.078   7.773
    4POPC   C1A  474   9.168   7.107   7.398
    4POPC   D2A  475   9.227   6.969   6.982
    4POPC   C3A  476   9.209   7.188   6.579
    4POPC   C4A  477   9.207   7.110   6.150
    4POPC   C1B  478   9.703   7.202   7.379
    4POPC   C2B  479   9.779   7.050   6.993
    4POPC   C3B  480   9.850   7.195   6.605
    4POPC   C4B  481   9.626   7.399   6.289
    5POPC   NC3  482   5.945   8.545   7.897
    5POPC   PO4  483   5.840   9.213   7.947
    5POPC   GL1  484   6.030   8.975   7.621
    5POPC   GL2  485   5.675   8.918   7.536
    5POPC   C1A  486   6.006   9.026   7.149
    5POPC   D2A  487   5.706   9.268   6.903
    5POPC   C3A  488   5.693   9.103   6.485
    5POPC   C4A  489   5.689   8.712   6.288
    5POPC   C1B  490   5.755   8.589   7.222
    5POPC   C2B  491   5.577   8.549   6.792
    5POPC   C3B  492   5.544   8.246   6.434
    5POPC   C4B  493   5.693   8.260   5.998
    6POPC   NC3  494   6.487   1.912   8.115
    6POPC   PO4  495   6.100   2.376   8.004
    6POPC   GL1  496   6.454   2.164   7.662
    6POPC   GL2  497   6.433   1.788   7.610
    6POPC   C1A  498   6.487   2.058   7.165
    6POPC   D2A  499   6.262   2.262   6.784
    6POPC   C3A  500   6.501   2.345   6.381
    6POPC   C4A  501   6.373   2.249   5.933
    6POPC   C1B  502   6.639   1.504   7.299
    6POPC   C2B  503   6.733   1.629   6.885
    6POPC   C3B  504   6.576   1.899   6.631
    6POPC   C4B  505   6.383   1.859   6.259
    7POPC   NC3  506   8.979   5.912   8.020
    7POPC   PO4  507   8.849   5.294   8.168
    7POPC   GL1  508   8.878   5.384   7.738
    7POPC   GL2  509   8.588   5.539   7.628
    7POPC   C1A  510   8.977   5.509   7.301
    7POPC   D2A  511   9.053   5.629   6.849
    7POPC   C3A  512   8.942   5.487   6.425
    7POPC   C4A  513   8.909   5.648   6.021
    7POPC   C1B  514   8.506   5.645   7.161
    7POPC   C2B  515   8.534   5.459   6.737
    7POPC   C3B  516   8.443   5.612   6.306
    7POPC   C4B  517   8.065   5.669   6.075
    8POPC   NC3  518   3.696   9.699   8.059
    8POPC   PO4  519   3.039   9.723   8.168
    8POPC   GL1  520   3.264   9.706   7.770
    8POPC   GL2  521   3.378   9.351   7.790
    8POPC   C1A  522   3.335   9.809   7.330
    8POPC   D2A  523   3.155   9.733   6.895
    8POPC   C3A  524   3.453   9.597   6.581
    8POPC   C4A  525   3.435   9.441   6.147
    8POPC   C1B  526   3.436   9.184   7.387
    8POPC   C2B  527   3.433   9.264   6.968
    8POPC   C3B  528   3.548   9.067   6.557
    8POPC   C4B  529   3.774   8.947   6.189
    9POPC   NC3  530   2.594   7.856   8.411
    9POPC   PO4  531   3.039   8.226   8.088
    9POPC   GL1  532   2.673   7.985   7.877
    9POPC   GL2  533   2.442   8.179   7.689
    9POPC   C1A  534   2.594   7.762   7.435
    9POPC   D2A  535   2.845   7.631   7.053
    9POPC   C3A  536   2.675   7.712   6.634
    9POPC   C4A  537   2.514   7.536   6.256
    9POPC   C1B  538   2.875   8.197   7.442
    9POPC   C2B  539   2.992   8.120   7.017
    9POPC   C3B  540   3.004   8.092   6.549
    9POPC   C4B  541   2.790   7.976   6.158
   10POPC   NC3  542   8.635   6.783   8.371
   10POPC   PO4  543   8.530   7.500   8.326
   10POPC   GL1  544   8.729   7.393   7.857
   10POPC   GL2  545   8.713   7.064   7.668
   10POPC   C1A  546   8.758   7.495   7.358
   10POPC   D2A  547   8.549   7.634   6.936
   10POPC   C3A  548   8.428   7.472   6.494
   10POPC   C4A  549   8.422   7.503   6.023
   10POPC   C1B  550   8.711   7.018   7.199
   10POPC   C2B  551   8.745   7.145   6.778
   10POPC   C3B  552   8.725   7.024   6.337
   10POPC   C4B  553   8.778   7.163   5.890
   11POPC   NC3  554   6.051   8.972   8.270
   11POPC   PO4  555   6.263   8.331   8.153
   11POPC   GL1  556   6.437   8.504   7.765
   11POPC   GL2  557   6.631   8.778   7.751
   11POPC   C1A  558   6.379   8.632   7.307
   11POPC   D2A  559   6.663   8.473   6.957
   11POPC   C3A  560   6.514   8.509   6.527
   11POPC   C4A  561   6.413   8.515   6.085
   11POPC   C1B  562   6.702   9.000   7.363
   11POPC   C2B  563   6.509   9.039   6.960
   11POPC   C3B  564   6.591   9.009   6.516
   11POPC   C4B  565   6.172   8.947   6.262
   12POPC   NC3  566   4.975   1.112   8.025
   12POPC   PO4  567   5.377   1.688   8.064
   12POPC   GL1  568   4.949   1.558   7.767
   12POPC   GL2  569   4.929   1.254   7.556
   12POPC   C1A  570   4.694   1.612   7.320
   12POPC   D2A  571   4.932   1.515   6.921
   12POPC   C3A  572   4.770   1.501   6.493
   12POPC   C4A  573   4.827   1.438   6.019
   12POPC   C1B  574   4.943   1.032   7.183
   12POPC   C2B  575   4.858   1.052   6.754
   12POPC   C3B  576   5.017   1.071   6.342
   12POPC   C4B  577   4.613   0.996   6.160
   13POPC   NC3  578   0.177   9.553   7.914
   13POPC   PO4  579   9.936   9.455   8.066
   13POPC   GL1  580  10.178   9.591   7.740
   13POPC   GL2  581  10.309   9.251   7.683
   13POPC   C1A  582  10.133   9.848   7.364
   13POPC   D2A  583  10.295   9.765   6.950
   13POPC   C3A  584  10.097   9.876   6.564
   13POPC   C4A  585  10.215   9.683   6.170
   13POPC   C1B  586  10.276   9.331   7.270
   13POPC   C2B  587  10.431   9.258   6.859
   13POPC   C3B  588  10.116   9.353   6.565
   13POPC   C4B  589   9.993   9.232   6.164
   14POPC   NC3  590   1.418   5.569   7.928
   14POPC   PO4  591   0.898   5.561   8.208
   14POPC   GL1  592   1.010   5.667   7.696
   14POPC   GL2  593   1.278   5.409   7.482
   14POPC   C1A  594   1.111   5.852   7.306
   14POPC   D2A  595   1.242   5.641   6.893
   14POPC   C3A  596   1.096   5.840   6.491
   14POPC   C4A  597   1.145   5.646   6.099
   14POPC   C1B  598   0.884   5.391   7.252
   14POPC   C2B  599   0.800   5.352   6.813
   14POPC   C3B  600   0.838   5.361   6.361
   14POPC   C4B  601   0.823   5.281   5.874
   15POPC   NC3  602   8.544   3.412   8.004
   15POPC   PO4  603   8.607   4.028   7.846
   15POPC   GL1  604   8.718   3.652   7.540
   15POPC   GL2  605   8.702   3.260   7.530
   15POPC   C1A  606   8.862   3.528   7.098
   15POPC   D2A  607   8.596   3.472   6.728
   15POPC   C3A  608   8.741   3.382   6.348
   15POPC   C4A  609   8.736   3.592   5.971
   15POPC   C1B  610   8.379   3.407   7.216
   15POPC   C2B  611   8.170   3.669   6.920
   15POPC   C3B  612   8.123   3.505   6.514
   15POPC   C4B  613   8.295   3.669   6.176
   16POPC   NC3  614   0.496   2.753   8.064
   16POPC   PO4  615   0.330   2.084   8.147
   16POPC   GL1  616   0.357   2.387   7.727
   16POPC   GL2  617   0.121   2.682   7.708
   16POPC   C1A  618   0.085   2.404   7.310
   16POPC   D2A  619   0.111   2.647   6.918
   16POPC   C3A  620   0.401   2.540   6.568
   16POPC   C4A  621   0.106   2.440   6.245
   16POPC   C1B  622   0.413   2.793   7.336
   16POPC   C2B  623   0.437   3.052   6.954
   16POPC   C3B  624   0.313   3.042   6.520
   16POPC   C4B  625   0.450   2.848   6.142
   17POPC   NC3  626   8.922   7.726   8.203
   17POPC   PO4  627   8.556   8.143   7.916
   17POPC   GL1  628   8.667   7.994   7.567
   17POPC   GL2  629   8.964   7.816   7.677
   17POPC   C1A  630   8.626   8.253   7.212
   17POPC   D2A  631   8.354   8.249   6.895
   17POPC   C3A  632   8.489   8.026   6.590
   17POPC   C4A  633   8.597   8.172   6.180
   17POPC   C1B  634   9.059   7.937   7.242
   17POPC   C2B  635   8.957   8.124   6.827
   17POPC   C3B  636   8.958   7.922   6.425
   17POPC   C4B  637   8.904   7.501   6.278
   18POPC   NC3  638   2.802  10.074   8.380
   18POPC   PO4  639   3.298  10.259   7.943
   18POPC   GL1  640   3.573  10.184   7.633
   18POPC   GL2  641   3.906  10.078   7.758
   18POPC   C1A  642   3.546  10.282   7.200
   18POPC   D2A  643   3.425  10.185   6.773
   18POPC   C3A  644   3.604  10.415   6.395
   18POPC   C4A  645   3.397  10.341   5.965
   18POPC   C1B  646   3.864   9.866   7.364
   18POPC   C2B  647   3.711   9.812   6.981
   18POPC   C3B  648   3.828   9.940   6.587
   18POPC   C4B  649   3.567   9.941   6.230
   19POPC   NC3  650   9.645   8.289   8.017
   19POPC   PO4  651   9.341   7.749   8.395
   19POPC   GL1  652   9.449   7.718   7.886
   19POPC   GL2  653   9.451   8.007   7.648
   19POPC   C1A  654   9.355   7.567   7.446
   19POPC   D2A  655   9.160   7.486   7.011
   19POPC   C3A  656   9.351   7.665   6.615
   19POPC   C4A  657   9.333   7.758   6.127
   19POPC   C1B  658   9.581   8.189   7.301
   19POPC   C2B  659   9.459   8.060   6.913
   19POPC   C3B  660   9.441   8.144   6.468
   19POPC   C4B  661   9.708   8.099   6.105
   20POPC   NC3  662   8.388   9.191   8.242
   20POPC   PO4  663   9.005   8.944   8.119
   20POPC   GL1  664   8.735   9.050   7.707
   20POPC   GL2  665   8.544   9.364   7.715
   20POPC   C1A  666   8.596   9.163   7.241
   20POPC   D2A  667   8.753   9.119   6.832
   20POPC   C3A  668   8.569   9.116   6.461
   20POPC   C4A  669   8.791   9.116   6.094
   20POPC   C1B  670   8.893   9.515   7.430
   20POPC   C2B  671   8.929   9.575   6.983
   20POPC   C3B  672   8.609   9.607   6.677
   20POPC   C4B  673   8.672   9.575   6.259
   21POPC   NC3  674   9.352   4.630   8.468
   21POPC   PO4  675   9.348   4.491   7.842
   21POPC   GL1  676   9.501   4.749   7.608
   21POPC   GL2  677   9.512   5.041   7.789
   21POPC   C1A  678   9.491   4.754   7.168
   21POPC   D2A  679   9.188   4.733   6.889
   21POPC   C3A  680   9.304   4.685   6.474
   21POPC   C4A  681   8.966   4.664   6.202
   21POPC   C1B  682   9.646   5.195   7.390
   21POPC   C2B  683   9.391   5.287   7.057
   21POPC   C3B  684   9.272   5.184   6.666
   21POPC   C4B  685   9.464   5.144   6.299
   22POPC   NC3  686   0.834   0.904   8.137
   22POPC   PO4  687   1.386   0.771   7.961
   22POPC   GL1  688   1.112   0.951   7.670
   22POPC   GL2  689   1.045   1.274   7.823
   22POPC   C1A  690   1.143   1.087   7.240
   22POPC   D2A  691   1.402   1.101   6.900
   22POPC   C3A  692   1.216   0.895   6.574
   22POPC   C4A  693   1.210   1.028   6.183
   22POPC   C1B  694   1.306   1.469   7.517
   22POPC   C2B  695   1.245   1.572   7.088
   22POPC   C3B  696   1.062   1.451   6.691
   22POPC   C4B  697   1.360   1.488   6.369
   23POPC   NC3  698   6.884   8.727   8.191
   23POPC   PO4  699   7.317   9.217   8.137
   23POPC   GL1  700   7.066   9.062   7.808
   23POPC   GL2  701   7.155   8.705   7.754
   23POPC   C1A  702   7.202   9.034   7.367
   23POPC   D2A  703   7.137   8.775   7.006
   23POPC   C3A  704   7.258   8.878   6.575
   23POPC   C4A  705   7.042   8.819   6.178
   23POPC   C1B  706   6.937   8.490   7.420
   23POPC   C2B  707   7.135   8.265   7.080
   23POPC   C3B  708   7.102   8.389   6.652
   23POPC   C4B  709   6.911   8.337   6.242
   24POPC   NC3  710   0.079   6.407   8.312
   24POPC   PO4  711   9.959   6.392   8.202
   24POPC   GL1  712   9.849   6.484   7.771
   24POPC   GL2  713  10.143   6.333   7.698
   24POPC   C1A  714   9.825   6.308   7.296
   24POPC   D2A  715  10.000   6.384   6.872
   24POPC   C3A  716   9.767   6.361   6.504
   24POPC   C4A  717   9.765   6.080   6.193
   24POPC   C1B  718  10.319   6.411   7.289
   24POPC   C2B  719  10.490   6.421   6.854
   24POPC   C3B  720  10.303   6.345   6.426
   24POPC   C4B  721  10.419   6.562   6.035
   25POPC   NC3  722   5.331   0.384   8.225
   25POPC   PO4  723   4.618   0.161   8.222
   25POPC   GL1  724   4.728   0.405   7.802
   25POPC   GL2  725   4.920   0.709   7.707
   25POPC   C1A  726   4.945   0.287   7.376
   25POPC   D2A  727   5.102   0.417   6.980
   25POPC   C3A  728   4.978   0.117   6.663
   25POPC   C4A  729   5.107   0.156   6.236
   25POPC   C1B  730   4.632   0.675   7.368
   25POPC   C2B  731   4.621   0.627   6.925
   25POPC   C3B  732   4.846   0.595   6.529
   25POPC   C4B  733   4.946   0.617   6.104
   26POPC   NC3  734   5.761   1.336   8.085
   26POPC   PO4  735   5.347   0.799   7.973
   26POPC   GL1  736   5.376   1.002   7.565
   26POPC   GL2  737   5.441   1.357   7.651
   26POPC   C1A  738   5.446   1.100   7.098
   26POPC   D2A  739   5.761   1.243   6.760
   26POPC   C3A  740   5.591   1.037   6.372
   26POPC   C4A  741   5.391   0.838   6.024
   26POPC   C1B  742   5.661   1.509   7.269
   26POPC   C2B  743   5.473   1.688   6.888
   26POPC   C3B  744   5.407   1.531   6.480
   26POPC   C4B  745   5.806   1.475   6.254
   27POPC   NC3  746   9.400   5.189   8.269
   27POPC   PO4  747   9.561   5.865   8.175
   27POPC   GL1  748   9.381   5.828   7.729
   27POPC   GL2  749   9.626   6.049   7.677
   27POPC   C1A  750   9.374   5.807   7.237
   27POPC   D2A  751   9.511   6.045   6.863
   27POPC   C3A  752   9.325   5.878   6.481
   27POPC   C4A  753   9.305   5.970   6.074
   27POPC   C1B  754   9.793   5.681   7.475
   27POPC   C2B  755   9.823   5.633   7.019
   27POPC   C3B  756   9.647   5.524   6.651
   27POPC   C4B  757   9.698   5.583   6.216
   28POPC   NC3  758   5.376   9.146   7.919
   28POPC   PO4  759   5.716   9.706   8.204
   28POPC   GL1  760   5.550   9.592   7.737
   28POPC   GL2  761   5.824   9.447   7.523
   28POPC   C1A  762   5.365   9.335   7.321
   28POPC   D2A  763   5.229   9.515   6.943
   28POPC   C3A  764   5.272   9.385   6.520
   28POPC   C4A  765   5.422   9.557   6.140
   28POPC   C1B  766   5.736   9.677   7.240
   28POPC   C2B  767   5.634   9.820   6.883
   28POPC   C3B  768   5.738   9.626   6.530
   28POPC   C4B  769   5.943   9.454   6.193
   29POPC   NC3  770   9.597   2.602   8.122
   29POPC   PO4  771   9.724   3.229   8.135
   29POPC   GL1  772   9.622   2.959   7.756
   29POPC   GL2  773   9.263   2.797   7.720
   29POPC   C1A  774   9.623   2.721   7.369
   29POPC   D2A  775   9.292   2.806   7.049
   29POPC   C3A  776   9.420   2.855   6.621
   29POPC   C4A  777   9.662   2.592   6.325
   29POPC   C1B  778   9.206   2.428   7.420
   29POPC   C2B  779   9.107   2.327   7.011
   29POPC   C3B  780   9.269   2.364   6.636
   29POPC   C4B  781   9.267   2.294   6.237
   30POPC   NC3  782   2.698   3.430   8.503
   30POPC   PO4  783   2.280   3.324   8.163
   30POPC   GL1  784   2.335   3.468   7.753
   30POPC   GL2  785   2.353   3.151   7.595
   30POPC   C1A  786   2.577   3.540   7.347
   30POPC   D2A  787   2.717   3.343   6.957
   30POPC   C3A  788   2.562   3.484   6.533
   30POPC   C4A  789   2.430   3.439   6.095
   30POPC   C1B  790   2.810   3.080   7.454
   30POPC   C2B  791   2.953   2.896   7.053
   30POPC   C3B  792   2.974   3.033   6.620
   30POPC   C4B  793   3.152   3.246   6.260
   31POPC   NC3  794   4.638  10.171   8.334
   31POPC   PO4  795   4.158   9.780   8.113
   31POPC   GL1  796   4.435   9.945   7.808
   31POPC   GL2  797   4.386  10.273   7.704
   31POPC   C1A  798   4.413   9.874   7.355
   31POPC   D2A  799   4.198   9.975   6.966
   31POPC   C3A  800   4.339   9.831   6.582
   31POPC   C4A  801   4.474   9.951   6.172
   31POPC   C1B  802   4.106  10.318   7.334
   31POPC   C2B  803   3.932  10.393   6.904
   31POPC   C3B  804   4.168  10.315   6.538
   31POPC   C4B  805   4.176   0.032   6.196
   32POPC   NC3  806   2.830   5.305   8.602
   32POPC   PO4  807   2.393   5.200   8.156
   32POPC   GL1  808   2.394   5.379   7.686
   32POPC   GL2  809   2.397   5.748   7.646
   32POPC   C1A  810   2.572   5.456   7.232
   32POPC   D2A  811   2.691   5.595   6.788
   32POPC   C3A  812   2.874   5.393   6.381
   32POPC   C4A  813   3.113   5.439   5.951
   32POPC   C1B  814   2.412   5.949   7.193
   32POPC   C2B  815   2.307   5.929   6.736
   32POPC   C3B  816   2.448   5.708   6.352
   32POPC   C4B  817   2.391   5.875   5.910
   33POPC   NC3  818   5.651  10.205   8.183
   33POPC   PO4  819   6.219  10.132   7.842
   33POPC   GL1  820   5.887   9.980   7.631
   33POPC   GL2  821   5.569  10.143   7.690
   33POPC   C1A  822   5.782  10.168   7.243
   33POPC   D2A  823   5.945  10.322   6.886
   33POPC   C3A  824   5.840  10.123   6.526
   33POPC   C4A  825   6.006  10.155   6.133
   33POPC   C1B  826   5.288  10.344   7.355
   33POPC   C2B  827   5.404  10.285   6.921
   33POPC   C3B  828   5.396  10.358   6.501
   33POPC   C4B  829   5.502  10.164   6.119
   34POPC   NC3  830   6.213   9.671   7.954
   34POPC   PO4  831   6.505   9.055   8.203
   34POPC   GL1  832   6.505   9.277   7.783
   34POPC   GL2  833   6.780   9.432   7.595
   34POPC   C1A  834   6.299   9.352   7.383
   34POPC   D2A  835   6.143   9.541   6.980
   34POPC   C3A  836   6.166   9.304   6.622
   34POPC   C4A  837   6.439   9.387   6.233
   34POPC   C1B  838   6.649   9.612   7.165
   34POPC   C2B  839   6.601   9.519   6.746
   34POPC   C3B  840   6.743   9.732   6.443
   34POPC   C4B  841   6.951   9.835   6.123
   35POPC   NC3  842   0.579   1.774   7.876
   35POPC   PO4  843  10.423   1.700   8.048
   35POPC   GL1  844   0.102   1.667   7.702
   35POPC   GL2  845   0.169   1.945   7.578
   35POPC   C1A  846   0.272   1.541   7.306
   35POPC   D2A  847   0.412   1.675   6.929
   35POPC   C3A  848   0.540   1.505   6.578
   35POPC   C4A  849   0.433   1.675   6.215
   35POPC   C1B  850   0.470   2.058   7.302
   35POPC   C2B  851   0.355   2.179   6.923
   35POPC   C3B  852   0.265   2.043   6.532
   35POPC   C4B  853   0.564   2.165   6.194
   36POPC   NC3  854   3.428   0.969   8.230
   36POPC   PO4  855   3.109   1.412   7.934
   36POPC   GL1  856   3.386   1.198   7.683
   36POPC   GL2  857   3.517   0.854   7.664
   36POPC   C1A  858   3.255   1.124   7.281
   36POPC   D2A  859   3.008   1.069   6.941
   36POPC   C3A  860   3.272   1.200   6.601
   36POPC   C4A  861   3.153   1.342   6.194
   36POPC   C1B  862   3.759   1.036   7.314
   36POPC   C2B  863   3.825   1.254   6.964
   36POPC   C3B  864   3.827   1.097   6.602
   36POPC   C4B  865   3.649   1.224   6.240
   37POPC   NC3  866   9.750   4.383   8.044
   37POPC   PO4  867  10.490   4.416   8.020
   37POPC   GL1  868  10.298   4.426   7.674
   37POPC   GL2  869  10.006   4.206   7.644
   37POPC   C1A  870  10.388   4.450   7.290
   37POPC   D2A  871  10.116   4.460   6.973
   37POPC   C3A  872  10.356   4.478   6.643
   37POPC   C4A  873  10.244   4.603   6.241
   37POPC   C1B  874  10.197   3.965   7.315
   37POPC   C2B  875  10.118   3.945   6.906
   37POPC   C3B  876   9.977   4.171   6.575
   37POPC   C4B  877  10.142   4.109   6.166
   38POPC   NC3  878   8.367   0.339   8.002
   38POPC   PO4  879   7.790   0.743   8.033
   38POPC   GL1  880   8.030   0.595   7.689
   38POPC   GL2  881   7.959   0.226   7.699
   38POPC   C1A  882   7.858   0.643   7.296
   38POPC   D2A  883   7.822   0.856   6.943
   38POPC   C3A  884   7.760   0.642   6.595
   38POPC   C4A  885   7.973   0.764   6.265
   38POPC   C1B  886   8.024   0.164   7.263
   38POPC   C2B  887   7.733   0.243   6.939
   38POPC   C3B  888   7.901   0.157   6.537
   38POPC   C4B  889   7.891   0.292   6.100
   39POPC   NC3  890   8.076   1.994   8.106
   39POPC   PO4  891   7.532   1.572   8.225
   39POPC   GL1  892   7.655   1.576   7.763
   39POPC   GL2  893   7.842   1.859   7.689
   39POPC   C1A  894   7.671   1.605   7.288
   39POPC   D2A  895   7.882   1.717   6.895
   39POPC   C3A  896   7.595   1.791   6.598
   39POPC   C4A  897   7.537   1.803   6.194
   39POPC   C1B  898   7.982   2.008   7.320
   39POPC   C2B  899   8.204   2.124   6.927
   39POPC   C3B  900   8.025   2.053   6.496
   39POPC   C4B  901   7.813   2.229   6.172
   40POPC   NC3  902  10.316   7.853   7.971
   40POPC   PO4  903   9.870   7.370   8.012
   40POPC   GL1  904   9.892   7.605   7.621
   40POPC   GL2  905   9.953   7.957   7.617
   40POPC   C1A  906   9.784   7.697   7.177
   40POPC   D2A  907   9.957   7.955   6.840
   40POPC   C3A  908  10.019   7.813   6.409
   40POPC   C4A  909  10.387   7.786   6.110
   40POPC   C1B  910  10.278   7.827   7.305
   40POPC   C2B  911  10.474   7.936   6.904
   40POPC   C3B  912  10.396   8.165   6.524
   40POPC   C4B  913  10.205   8.272   6.127
   41POPC   NC3  914   2.189   4.762   8.060
   41POPC   PO4  915   1.687   5.240   8.061
   41POPC   GL1  916   1.898   5.247   7.652
   41POPC   GL2  917   1.856   4.918   7.572
   41POPC   C1A  918   2.211   5.101   7.275
   41POPC   D2A  919   2.189   4.974   6.810
   41POPC   C3A  920   2.388   5.169   6.422
   41POPC   C4A  921   2.267   4.966   6.008
   41POPC   C1B  922   1.736   5.220   7.165
   41POPC   C2B  923   1.689   5.150   6.712
   41POPC   C3B  924   1.908   4.921   6.365
   41POPC   C4B  925   1.793   4.660   5.978
   42POPC   NC3  926   7.709   8.438   8.208
   42POPC   PO4  927   8.334   8.375   8.413
   42POPC   GL1  928   8.113   8.375   7.906
   42POPC   GL2  929   7.809   8.569   7.736
   42POPC   C1A  930   8.114   8.351   7.402
   42POPC   D2A  931   7.920   8.493   6.980
   42POPC   C3A  932   7.953   8.276   6.552
   42POPC   C4A  933   8.142   8.374   6.152
   42POPC   C1B  934   7.650   8.793   7.355
   42POPC   C2B  935   7.681   8.925   6.909
   42POPC   C3B  936   7.763   8.811   6.477
   42POPC   C4B  937   7.539   8.942   6.098
   43POPC   NC3  938   1.130   5.958   8.164
   43POPC   PO4  939   1.233   6.627   8.165
   43POPC   GL1  940   1.310   6.325   7.800
   43POPC   GL2  941   1.052   6.226   7.647
   43POPC   C1A  942   1.429   6.266   7.318
   43POPC   D2A  943   1.243   6.165   6.927
   43POPC   C3A  944   1.442   6.264   6.574
   43POPC   C4A  945   1.531   6.121   6.188
   43POPC   C1B  946   1.128   6.652   7.440
   43POPC   C2B  947   1.153   6.830   7.025
   43POPC   C3B  948   1.279   6.917   6.580
   43POPC   C4B  949   1.154   6.590   6.288
   44POPC   NC3  950   1.466   3.185   8.369
   44POPC   PO4  951   0.882   3.011   8.028
   44POPC   GL1  952   1.139   3.191   7.682
   44POPC   GL2  953   1.253   3.551   7.744
   44POPC   C1A  954   1.214   3.325   7.256
   44POPC   D2A  955   1.166   3.600   6.917
   44POPC   C3A  956   1.253   3.321   6.621
   44POPC   C4A  957   1.064   3.276   6.253
   44POPC   C1B  958   1.459   3.761   7.370
   44POPC   C2B  959   1.669   3.559   7.021
   44POPC   C3B  960   1.605   3.693   6.619
   44POPC   C4B  961   1.419   3.618   6.235
   45POPC   NC3  962   1.174   9.538   7.980
   45POPC   PO4  963   0.746   8.968   8.162
   45POPC   GL1  964   0.873   9.158   7.737
   45POPC   GL2  965   0.984   9.485   7.529
   45POPC   C1A  966   0.802   9.108   7.283
   45POPC   D2A  967   1.055   9.363   6.995
   45POPC   C3A  968   0.900   9.445   6.613
   45POPC   C4A  969   0.885   9.177   6.267
   45POPC   C1B  970   1.334   9.599   7.355
   45POPC   C2B  971   1.444   9.719   6.951
   45POPC   C3B  972   1.417   9.516   6.585
   45POPC   C4B  973   1.239   9.505   6.209
   46POPC   NC3  974   8.853   2.548   8.403
   46POPC   PO4  975   8.441   3.030   8.245
   46POPC   GL1  976   8.498   2.830   7.768
   46POPC   GL2  977   8.765   2.567   7.749
   46POPC   C1A  978   8.349   2.872   7.301
   46POPC   D2A  979   8.555   3.007   6.931
   46POPC   C3A  980   8.376   3.018   6.522
   46POPC   C4A  981   8.546   2.952   6.128
   46POPC   C1B  982   8.811   2.698   7.293
   46POPC   C2B  983   8.616   2.494   6.917
   46POPC   C3B  984   8.611   2.557   6.466
   46POPC   C4B  985   9.003   2.756   6.289
   47POPC   NC3  986   0.453   8.605   8.068
   47POPC   PO4  987   0.060   9.145   8.111
   47POPC   GL1  988   0.138   8.827   7.733
   47POPC   GL2  989   0.523   8.755   7.580
   47POPC   C1A  990   0.091   8.556   7.369
   47POPC   D2A  991   0.159   8.437   6.949
   47POPC   C3A  992   0.305   8.702   6.620
   47POPC   C4A  993   0.130   8.557   6.212
   47POPC   C1B  994   0.606   8.668   7.115
   47POPC   C2B  995   0.799   8.433   6.768
   47POPC   C3B  996   0.873   8.685   6.412
   47POPC   C4B  997   0.514   8.865   6.167
   48POPC   NC3  998   2.750   0.535   8.103
   48POPC   PO4  999   2.629  10.415   8.103
   48POPC   GL1 1000   2.504   0.254   7.730
   48POPC   GL2 1001   2.657   0.606   7.612
   48POPC   C1A 1002   2.588   0.244   7.270
   48POPC   D2A 1003   2.591   0.512   6.931
   48POPC   C3A 1004   2.735   0.333   6.556
   48POPC   C4A 1005   2.544   0.380   6.171
   48POPC   C1B 1006   2.954   0.677   7.278
   48POPC   C2B 1007   3.089   0.576   6.857
   48POPC   C3B 1008   3.030   0.767   6.525
   48POPC   C4B 1009   2.931   0.690   6.174
   49POPC   NC3 1010   9.869   0.373   8.295
   49POPC   PO4 1011   9.661   0.859   7.864
   49POPC   GL1 1012   9.550   0.543   7.590
   49POPC   GL2 1013   9.202   0.505   7.603
   49POPC   C1A 1014   9.484   0.327   7.180
   49POPC   D2A 1015   9.131   0.144   6.903
   49POPC   C3A 1016   9.282   0.222   6.481
   49POPC   C4A 1017   9.646   0.204   6.196
   49POPC   C1B 1018   9.245   0.772   7.220
   49POPC   C2B 1019   9.256   0.629   6.794
   49POPC   C3B 1020   9.387   0.709   6.379
   49POPC   C4B 1021   9.492   0.613   5.938
   50POPC   NC3 1022   3.900   1.052   7.921
   50POPC   PO4 1023   4.529   1.170   8.179
   50POPC   GL1 1024   4.501   1.015   7.770
   50POPC   GL2 1025   4.313   0.725   7.811
   50POPC   C1A 1026   4.456   1.139   7.341
   50POPC   D2A 1027   4.411   1.368   6.962
   50POPC   C3A 1028   4.359   1.214   6.571
   50POPC   C4A 1029   4.338   1.454   6.178
   50POPC   C1B 1030   4.130   0.702   7.388
   50POPC   C2B 1031   4.179   0.885   6.985
   50POPC   C3B 1032   4.210   0.725   6.583
   50POPC   C4B 1033   4.105   0.955   6.211
   51POPC   NC3 1034   3.197   2.703   8.025
   51POPC   PO4 1035   3.777   2.704   8.087
   51POPC   GL1 1036   3.633   2.729   7.646
   51POPC   GL2 1037   3.409   2.435   7.626
   51POPC   C1A 1038   3.646   2.936   7.199
   51POPC   D2A 1039   3.446   2.981   6.778
   51POPC   C3A 1040   3.640   3.026   6.355
   51POPC   C4A 1041   3.532   3.153   5.907
   51POPC   C1B 1042   3.296   2.531   7.196
   51POPC   C2B 1043   3.155   2.529   6.770
   51POPC   C3B 1044   3.316   2.637   6.387
   51POPC   C4B 1045   3.223   2.343   6.042
   52POPC   NC3 1046   2.501   1.180   7.953
   52POPC   PO4 1047   2.848   1.609   8.365
   52POPC   GL1 1048   2.691   1.609   7.774
   52POPC   GL2 1049   2.825   1.254   7.566
   52POPC   C1A 1050   2.646   1.589   7.249
   52POPC   D2A 1051   2.885   1.536   6.821
   52POPC   C3A 1052   2.749   1.217   6.489
   52POPC   C4A 1053   2.567   1.348   6.079
   52POPC   C1B 1054   2.587   1.019   7.272
   52POPC   C2B 1055   2.380   0.995   6.874
   52POPC   C3B 1056   2.485   0.782   6.505
   52POPC   C4B 1057   2.447   0.866   6.094
   53POPC   NC3 1058   3.466   7.967   8.108
   53POPC   PO4 1059   3.919   8.485   8.023
   53POPC   GL1 1060   3.657   8.333   7.643
   53POPC   GL2 1061   3.338   8.126   7.658
   53POPC   C1A 1062   3.532   8.204   7.195
   53POPC   D2A 1063   3.406   8.295   6.785
   53POPC   C3A 1064   3.486   8.013   6.426
   53POPC   C4A 1065   3.295   8.094   6.023
   53POPC   C1B 1066   3.249   7.808   7.355
   53POPC   C2B 1067   3.361   7.774   6.909
   53POPC   C3B 1068   3.171   7.604   6.529
   53POPC   C4B 1069   3.162   7.618   6.086
   54POPC   NC3 1070   3.606   8.827   7.923
   54POPC   PO4 1071   3.036   9.004   7.986
   54POPC   GL1 1072   3.048   8.910   7.580
   54POPC   GL2 1073   3.220   8.618   7.608
   54POPC   C1A 1074   2.974   8.682   7.174
   54POPC   D2A 1075   3.242   8.791   6.869
   54POPC   C3A 1076   3.218   8.675   6.481
   54POPC   C4A 1077   3.218   8.953   6.139
   54POPC   C1B 1078   3.557   8.702   7.263
   54POPC   C2B 1079   3.765   8.653   6.823
   54POPC   C3B 1080   3.690   8.479   6.387
   54POPC   C4B 1081   3.523   8.566   5.946
   55POPC   NC3 1082   1.400   4.151   8.122
   55POPC   PO4 1083   0.968   4.565   8.162
   55POPC   GL1 1084   0.937   4.358   7.755
   55POPC   GL2 1085   1.066   4.034   7.738
   55POPC   C1A 1086   1.179   4.412   7.359
   55POPC   D2A 1087   1.255   4.607   6.936
   55POPC   C3A 1088   1.023   4.514   6.569
   55POPC   C4A 1089   1.092   4.415   6.147
   55POPC   C1B 1090   0.995   3.938   7.298
   55POPC   C2B 1091   1.324   4.087   6.956
   55POPC   C3B 1092   1.255   4.050   6.503
   55POPC   C4B 1093   0.932   3.748   6.387
   56POPC   NC3 1094   9.121   8.512   8.234
   56POPC   PO4 1095   9.627   8.794   8.032
   56POPC   GL1 1096   9.470   8.617   7.660
   56POPC   GL2 1097   9.202   8.825   7.651
   56POPC   C1A 1098   9.515   8.713   7.218
   56POPC   D2A 1099   9.290   8.534   6.840
   56POPC   C3A 1100   9.482   8.645   6.508
   56POPC   C4A 1101   9.475   8.556   6.086
   56POPC   C1B 1102   9.163   9.096   7.296
   56POPC   C2B 1103   9.247   9.032   6.868
   56POPC   C3B 1104   9.087   8.946   6.463
   56POPC   C4B 1105   9.293   9.027   6.064
   57POPC   NC3 1106   1.073   7.866   8.132
   57POPC   PO4 1107   1.400   8.321   7.814
   57POPC   GL1 1108   1.253   7.960   7.643
   57POPC   GL2 1109   0.876   7.946   7.668
   57POPC   C1A 1110   1.395   7.999   7.232
   57POPC   D2A 1111   1.513   7.744   6.928
   57POPC   C3A 1112   1.348   7.875   6.568
   57POPC   C4A 1113   1.540   7.819   6.218
   57POPC   C1B 1114   0.853   7.763   7.281
   57POPC   C2B 1115   0.975   7.939   6.920
   57POPC   C3B 1116   0.802   7.891   6.534
   57POPC   C4B 1117   0.977   7.952   6.190
   58POPC   NC3 1118   2.070   7.322   7.999
   58POPC   PO4 1119   1.439   7.594   8.017
   58POPC   GL1 1120   1.601   7.287   7.687
   58POPC   GL2 1121   1.911   7.261   7.531
   58POPC   C1A 1122   1.526   7.079   7.279
   58POPC   D2A 1123   1.767   7.277   6.923
   58POPC   C3A 1124   1.633   7.299   6.476
   58POPC   C4A 1125   1.665   6.948   6.153
   58POPC   C1B 1126   2.319   7.316   7.362
   58POPC   C2B 1127   2.394   7.405   6.939
   58POPC   C3B 1128   2.133   7.484   6.607
   58POPC   C4B 1129   2.094   7.226   6.229
   59POPC   NC3 1130   6.919   9.463   8.190
   59POPC   PO4 1131   7.535   9.847   8.052
   59POPC   GL1 1132   7.238   9.628   7.763
   59POPC   GL2 1133   7.446   9.373   7.651
   59POPC   C1A 1134   7.150   9.561   7.283
   59POPC   D2A 1135   6.960   9.259   6.987
   59POPC   C3A 1136   7.044   9.333   6.564
   59POPC   C4A 1137   6.951   9.313   6.166
   59POPC   C1B 1138   7.625   9.330   7.272
   59POPC   C2B 1139   7.434   9.354   6.896
   59POPC   C3B 1140   7.570   9.312   6.514
   59POPC   C4B 1141   7.444   9.432   6.147
   60POPC   NC3 1142   0.537   7.567   7.857
   60POPC   PO4 1143   0.628   8.179   8.061
   60POPC   GL1 1144   0.434   8.246   7.675
   60POPC   GL2 1145   0.203   7.971   7.624
   60POPC   C1A 1146   0.572   8.197   7.267
   60POPC   D2A 1147   0.471   8.049   6.883
   60POPC   C3A 1148   0.401   8.220   6.504
   60POPC   C4A 1149   0.606   8.343   6.165
   60POPC   C1B 1150   0.314   7.729   7.254
   60POPC   C2B 1151   0.468   7.562   6.851
   60POPC   C3B 1152   0.270   7.726   6.474
   60POPC   C4B 1153   0.462   7.876   6.085
   61POPC   NC3 1154   2.648   1.955   8.157
   61POPC   PO4 1155   2.043   2.195   8.275
   61POPC   GL1 1156   2.310   2.167   7.783
   61POPC   GL2 1157   2.655   2.116   7.673
   61POPC   C1A 1158   2.385   2.051   7.267
   61POPC   D2A 1159   2.580   1.930   6.824
   61POPC   C3A 1160   2.460   2.167   6.409
   61POPC   C4A 1161   2.330   2.193   5.918
   61POPC   C1B 1162   2.981   1.958   7.398
   61POPC   C2B 1163   3.106   2.050   6.967
   61POPC   C3B 1164   2.994   2.058   6.537
   61POPC   C4B 1165   2.757   1.718   6.355
   62POPC   NC3 1166   4.200   2.531   8.086
   62POPC   PO4 1167   4.602   3.050   7.927
   62POPC   GL1 1168   4.365   2.783   7.577
   62POPC   GL2 1169   4.118   2.495   7.580
   62POPC   C1A 1170   4.197   2.741   7.123
   62POPC   D2A 1171   3.980   2.974   6.783
   62POPC   C3A 1172   4.163   3.010   6.369
   62POPC   C4A 1173   4.002   2.958   5.965
   62POPC   C1B 1174   3.793   2.449   7.248
   62POPC   C2B 1175   3.692   2.544   6.810
   62POPC   C3B 1176   3.901   2.567   6.402
   62POPC   C4B 1177   4.349   2.492   6.296
   63POPC   NC3 1178   2.803   8.616   7.984
   63POPC   PO4 1179   2.295   9.078   8.102
   63POPC   GL1 1180   2.549   8.988   7.732
   63POPC   GL2 1181   2.609   8.641   7.539
   63POPC   C1A 1182   2.643   9.077   7.318
   63POPC   D2A 1183   2.541   8.873   6.971
   63POPC   C3A 1184   2.752   8.882   6.597
   63POPC   C4A 1185   2.589   8.882   6.209
   63POPC   C1B 1186   2.490   8.400   7.197
   63POPC   C2B 1187   2.647   8.406   6.790
   63POPC   C3B 1188   2.674   8.420   6.376
   63POPC   C4B 1189   2.995   8.494   6.079
   64POPC   NC3 1190   5.756   0.539   7.935
   64POPC   PO4 1191   5.275  10.456   8.039
   64POPC   GL1 1192   5.512   0.153   7.716
   64POPC   GL2 1193   5.388   0.469   7.575
   64POPC   C1A 1194   5.684   0.160   7.285
   64POPC   D2A 1195   5.574   0.238   6.850
   64POPC   C3A 1196   5.818   0.138   6.478
   64POPC   C4A 1197   5.692   0.130   6.019
   64POPC   C1B 1198   5.699   0.666   7.260
   64POPC   C2B 1199   5.664   0.729   6.806
   64POPC   C3B 1200   5.451   0.531   6.442
   64POPC   C4B 1201   5.820   0.586   6.207
   65POPC   NC3 1202   8.905   4.393   7.921
   65POPC   PO4 1203   9.460   4.138   8.308
   65POPC   GL1 1204   9.498   4.024   7.788
   65POPC   GL2 1205   9.665   3.776   7.633
   65POPC   C1A 1206   9.536   4.198   7.319
   65POPC   D2A 1207   9.527   4.316   6.861
   65POPC   C3A 1208   9.117   4.236   6.637
   65POPC   C4A 1209   9.212   4.212   6.218
   65POPC   C1B 1210   9.721   3.752   7.172
   65POPC   C2B 1211   9.640   3.799   6.724
   65POPC   C3B 1212   9.642   3.916   6.300
   65POPC   C4B 1213   9.687   4.389   6.225
   66POPC   NC3 1214   1.425  10.226   8.239
   66POPC   PO4 1215   0.862   0.037   8.113
   66POPC   GL1 1216   1.150  10.382   7.770
   66POPC   GL2 1217   1.206  10.026   7.758
   66POPC   C1A 1218   1.353  10.451   7.370
   66POPC   D2A 1219   1.349  10.210   6.964
   66POPC   C3A 1220   1.424  10.385   6.590
   66POPC   C4A 1221   1.380  10.317   6.172
   66POPC   C1B 1222   1.062  10.021   7.340
   66POPC   C2B 1223   0.948   9.887   6.896
   66POPC   C3B 1224   1.115   9.951   6.457
   66POPC   C4B 1225   1.117   9.933   5.973
   67POPC   NC3 1226  10.280   1.287   8.204
   67POPC   PO4 1227   0.511   1.232   8.112
   67POPC   GL1 1228   0.288   1.202   7.724
   67POPC   GL2 1229   0.589   1.232   7.606
   67POPC   C1A 1230   0.231   1.041   7.294
   67POPC   D2A 1231   0.082   1.238   6.946
   67POPC   C3A 1232   0.215   1.082   6.591
   67POPC   C4A 1233   0.335   1.048   6.187
   67POPC   C1B 1234   0.781   1.446   7.297
   67POPC   C2B 1235   0.691   1.193   6.964
   67POPC   C3B 1236   0.729   1.034   6.554
   67POPC   C4B 1237   0.796   1.301   6.180
   68POPC   NC3 1238   8.750   6.603   7.885
   68POPC   PO4 1239   8.726   6.022   7.655
   68POPC   GL1 1240   8.835   6.255   7.408
   68POPC   GL2 1241   8.941   6.619   7.424
   68POPC   C1A 1242   8.832   6.059   7.016
   68POPC   D2A 1243   8.548   5.990   6.698
   68POPC   C3A 1244   8.785   6.019   6.344
   68POPC   C4A 1245   8.888   6.189   5.962
   68POPC   C1B 1246   8.580   6.541   7.115
   68POPC   C2B 1247   8.617   6.550   6.687
   68POPC   C3B 1248   8.582   6.524   6.271
   68POPC   C4B 1249   8.411   6.841   5.960
   69POPC   NC3 1250   7.732   9.423   8.048
   69POPC   PO4 1251   8.132   8.848   8.080
   69POPC   GL1 1252   7.972   9.060   7.693
   69POPC   GL2 1253   8.019   9.401   7.635
   69POPC   C1A 1254   8.066   9.068   7.238
   69POPC   D2A 1255   8.248   9.242   6.856
   69POPC   C3A 1256   8.070   9.251   6.439
   69POPC   C4A 1257   8.283   9.333   6.048
   69POPC   C1B 1258   8.094   9.590   7.258
   69POPC   C2B 1259   7.877   9.588   6.876
   69POPC   C3B 1260   7.814   9.830   6.522
   69POPC   C4B 1261   7.897   9.663   6.124
   70POPC   NC3 1262   1.283   4.914   8.209
   70POPC   PO4 1263   1.766   4.422   8.160
   70POPC   GL1 1264   1.453   4.610   7.777
   70POPC   GL2 1265   1.138   4.830   7.738
   70POPC   C1A 1266   1.424   4.865   7.342
   70POPC   D2A 1267   1.246   5.134   7.022
   70POPC   C3A 1268   1.190   5.026   6.606
   70POPC   C4A 1269   1.417   4.779   6.304
   70POPC   C1B 1270   0.910   4.872   7.351
   70POPC   C2B 1271   0.781   4.814   6.961
   70POPC   C3B 1272   0.693   4.901   6.556
   70POPC   C4B 1273   0.925   4.890   6.180
   71POPC   NC3 1274  10.435   2.203   7.926
   71POPC   PO4 1275   9.854   2.250   8.288
   71POPC   GL1 1276   9.918   2.159   7.824
   71POPC   GL2 1277  10.075   1.870   7.729
   71POPC   C1A 1278  10.060   2.204   7.353
   71POPC   D2A 1279  10.292   2.217   6.939
   71POPC   C3A 1280  10.213   1.984   6.544
   71POPC   C4A 1281  10.434   1.925   6.155
   71POPC   C1B 1282  10.261   1.728   7.332
   71POPC   C2B 1283  10.392   1.713   6.936
   71POPC   C3B 1284   0.037   1.585   6.555
   71POPC   C4B 1285  10.497   1.423   6.170
   72POPC   NC3 1286   7.324   1.367   8.579
   72POPC   PO4 1287   7.109   0.962   8.124
   72POPC   GL1 1288   7.209   0.939   7.698
   72POPC   GL2 1289   7.228   1.296   7.683
   72POPC   C1A 1290   6.950   0.999   7.323
   72POPC   D2A 1291   6.694   1.013   6.955
   72POPC   C3A 1292   6.867   1.089   6.564
   72POPC   C4A 1293   7.022   0.968   6.170
   72POPC   C1B 1294   7.170   1.480   7.320
   72POPC   C2B 1295   7.118   1.329   6.956
   72POPC   C3B 1296   7.211   1.454   6.571
   72POPC   C4B 1297   7.276   1.389   6.159
   73POPC   NC3 1298  10.457   3.971   7.912
   73POPC   PO4 1299   0.614   3.943   8.012
   73POPC   GL1 1300   0.538   4.037   7.626
   73POPC   GL2 1301   0.327   4.325   7.615
   73POPC   C1A 1302   0.393   3.932   7.220
   73POPC   D2A 1303   0.088   4.121   6.962
   73POPC   C3A 1304   0.006   4.010   6.546
   73POPC   C4A 1305   0.124   4.276   6.230
   73POPC   C1B 1306   0.679   4.378   7.288
   73POPC   C2B 1307   0.792   4.185   6.899
   73POPC   C3B 1308   0.607   4.160   6.501
   73POPC   C4B 1309   0.597   4.485   6.218
   74POPC   NC3 1310   1.655   6.427   8.161
   74POPC   PO4 1311   1.824   6.945   8.014
   74POPC   GL1 1312   1.639   6.711   7.688
   74POPC   GL2 1313   1.810   6.356   7.684
   74POPC   C1A 1314   1.765   6.637   7.258
   74POPC   D2A 1315   1.631   6.669   6.844
   74POPC   C3A 1316   1.942   6.852   6.573
   74POPC   C4A 1317   2.296   6.729   6.303
   74POPC   C1B 1318   1.941   6.144   7.304
   74POPC   C2B 1319   2.042   6.347   6.915
   74POPC   C3B 1320   1.966   6.305   6.496
   74POPC   C4B 1321   2.007   5.948   6.251
   75POPC   NC3 1322   9.944   0.273   7.819
   75POPC   PO4 1323  10.123   0.819   8.287
   75POPC   GL1 1324  10.141   0.749   7.790
   75POPC   GL2 1325  10.424   0.820   7.664
   75POPC   C1A 1326   9.985   0.637   7.310
   75POPC   D2A 1327   9.987   0.302   6.986
   75POPC   C3A 1328   9.774   0.446   6.623
   75POPC   C4A 1329   9.920   0.627   6.219
   75POPC   C1B 1330  10.491   0.588   7.283
   75POPC   C2B 1331  10.495   0.530   6.861
   75POPC   C3B 1332  10.370   0.656   6.467
   75POPC   C4B 1333  10.324   0.261   6.223
   76POPC   NC3 1334   6.441   7.916   8.228
   76POPC   PO4 1335   6.867   7.545   8.015
   76POPC   GL1 1336   6.540   7.812   7.738
   76POPC   GL2 1337   6.190   7.988   7.779
   76POPC   C1A 1338   6.490   8.154   7.418
   76POPC   D2A 1339   6.220   8.205   7.080
   76POPC   C3A 1340   6.344   8.059   6.695
   76POPC   C4A 1341   6.483   8.046   6.271
   76POPC   C1B 1342   6.179   7.756   7.357
   76POPC   C2B 1343   6.358   7.603   6.958
   76POPC   C3B 1344   6.315   7.599   6.494
   76POPC   C4B 1345   6.001   7.880   6.269
   77POPC   NC3 1346   1.862   8.931   8.101
   77POPC   PO4 1347   1.570   8.418   8.298
   77POPC   GL1 1348   1.846   8.514   7.814
   77POPC   GL2 1349   2.212   8.605   7.876
   77POPC   C1A 1350   1.677   8.589   7.309
   77POPC   D2A 1351   1.626   8.820   6.887
   77POPC   C3A 1352   1.737   8.659   6.462
   77POPC   C4A 1353   1.798   8.745   5.999
   77POPC   C1B 1354   2.144   8.758   7.423
   77POPC   C2B 1355   2.090   8.609   6.983
   77POPC   C3B 1356   2.251   8.669   6.589
   77POPC   C4B 1357   2.211   8.544   6.207
   78POPC   NC3 1358   1.965   9.938   8.251
   78POPC   PO4 1359   1.650   0.084   8.044
   78POPC   GL1 1360   1.712  10.213   7.769
   78POPC   GL2 1361   1.975  10.316   7.535
   78POPC   C1A 1362   1.636  10.016   7.344
   78POPC   D2A 1363   1.868  10.121   6.946
   78POPC   C3A 1364   1.677   9.961   6.568
   78POPC   C4A 1365   1.606   9.831   6.152
   78POPC   C1B 1366   2.134   0.046   7.204
   78POPC   C2B 1367   2.300   0.078   6.782
   78POPC   C3B 1368   2.133  10.328   6.453
   78POPC   C4B 1369   2.099   9.934   6.306
   79POPC   NC3 1370   0.510   7.157   8.358
   79POPC   PO4 1371   0.075   7.461   7.897
   79POPC   GL1 1372   0.292   7.140   7.686
   79POPC   GL2 1373   0.629   7.037   7.779
   79POPC   C1A 1374   0.375   7.226   7.265
   79POPC   D2A 1375   0.126   7.192   6.918
   79POPC   C3A 1376   0.329   7.190   6.521
   79POPC   C4A 1377   0.654   7.440   6.311
   79POPC   C1B 1378   0.617   6.780   7.361
   79POPC   C2B 1379   0.406   6.728   6.947
   79POPC   C3B 1380   0.338   6.639   6.522
   79POPC   C4B 1381   0.460   6.848   6.172
   80POPC   NC3 1382   1.836   0.840   8.000
   80POPC   PO4 1383   2.111   1.460   7.969
   80POPC   GL1 1384   2.016   1.172   7.635
   80POPC   GL2 1385   1.643   1.052   7.571
   80POPC   C1A 1386   2.171   1.297   7.255
   80POPC   D2A 1387   2.188   1.638   6.999
   80POPC   C3A 1388   2.350   1.497   6.635
   80POPC   C4A 1389   2.178   1.186   6.370
   80POPC   C1B 1390   1.822   0.938   7.169
   80POPC   C2B 1391   1.900   1.215   6.811
   80POPC   C3B 1392   1.683   1.105   6.428
   80POPC   C4B 1393   1.588   0.701   6.266
   81POPC   NC3 1394   2.882  10.070   7.875
   81POPC   PO4 1395   2.216  10.024   7.873
   81POPC   GL1 1396   2.501  10.254   7.570
   81POPC   GL2 1397   2.866  10.432   7.551
   81POPC   C1A 1398   2.515  10.217   7.117
   81POPC   D2A 1399   2.367   9.958   6.771
   81POPC   C3A 1400   2.599  10.019   6.400
   81POPC   C4A 1401   2.633  10.412   6.272
   81POPC   C1B 1402   3.020  10.201   7.177
   81POPC   C2B 1403   2.951  10.394   6.751
   81POPC   C3B 1404   3.101  10.212   6.371
   81POPC   C4B 1405   3.046   9.762   6.317
   82POPC   NC3 1406   8.195  10.183   8.214
   82POPC   PO4 1407   8.242   9.588   8.062
   82POPC   GL1 1408   8.086   9.913   7.727
   82POPC   GL2 1409   7.857  10.197   7.766
   82POPC   C1A 1410   8.147  10.109   7.298
   82POPC   D2A 1411   8.233   9.945   6.888
   82POPC   C3A 1412   8.220  10.242   6.576
   82POPC   C4A 1413   7.950  10.264   6.221
   82POPC   C1B 1414   7.679  10.324   7.341
   82POPC   C2B 1415   7.782  10.238   6.886
   82POPC   C3B 1416   7.523  10.296   6.496
   82POPC   C4B 1417   7.523  10.422   6.003
   83POPC   NC3 1418   1.379   7.076   8.082
   83POPC   PO4 1419   0.828   7.466   8.200
   83POPC   GL1 1420   1.035   7.450   7.755
   83POPC   GL2 1421   1.127   7.114   7.644
   83POPC   C1A 1422   1.290   7.522   7.356
   83POPC   D2A 1423   1.239   7.318   6.935
   83POPC   C3A 1424   1.093   7.436   6.561
   83POPC   C4A 1425   1.242   7.425   6.147
   83POPC   C1B 1426   0.880   7.227   7.306
   83POPC   C2B 1427   0.733   7.129   6.909
   83POPC   C3B 1428   0.773   6.907   6.571
   83POPC   C4B 1429   0.933   7.041   6.213
   84POPC   NC3 1430   7.086  10.003   8.105
   84POPC   PO4 1431   6.970   0.171   8.013
   84POPC   GL1 1432   7.073  10.402   7.639
   84POPC   GL2 1433   7.337  10.138   7.677
   84POPC   C1A 1434   7.187  10.242   7.199
   84POPC   D2A 1435   6.942   9.955   6.927
   84POPC   C3A 1436   6.838  10.203   6.585
   84POPC   C4A 1437   7.083  10.314   6.230
   84POPC   C1B 1438   7.570   9.838   7.387
   84POPC   C2B 1439   7.450   9.854   6.951
   84POPC   C3B 1440   7.283   9.797   6.535
   84POPC   C4B 1441   7.457   9.933   6.140
   85POPC   NC3 1442   4.349   0.539   8.337
   85POPC   PO4 1443   3.749   0.639   8.089
   85POPC   GL1 1444   3.910   0.387   7.745
   85POPC   GL2 1445   4.213   0.226   7.888
   85POPC   C1A 1446   3.869   0.262   7.309
   85POPC   D2A 1447   3.858   0.491   6.948
   85POPC   C3A 1448   3.923   0.289   6.580
   85POPC   C4A 1449   3.945   0.478   6.195
   85POPC   C1B 1450   4.375   0.242   7.461
   85POPC   C2B 1451   4.300   0.242   7.016
   85POPC   C3B 1452   4.454   0.247   6.588
   85POPC   C4B 1453   4.462   0.481   6.201
   86POPC   NC3 1454   1.616   2.369   8.391
   86POPC   PO4 1455   1.517   2.985   7.963
   86POPC   GL1 1456   1.645   2.811   7.575
   86POPC   GL2 1457   1.997   2.787   7.626
   86POPC   C1A 1458   1.616   2.540   7.214
   86POPC   D2A 1459   1.646   2.345   6.795
   86POPC   C3A 1460   1.507   2.529   6.467
   86POPC   C4A 1461   1.780   2.672   6.187
   86POPC   C1B 1462   2.133   2.495   7.350
   86POPC   C2B 1463   2.061   2.585   6.961
   86POPC   C3B 1464   2.117   2.567   6.555
   86POPC   C4B 1465   2.322   2.616   6.178
   87POPC   NC3 1466   8.425   5.082   8.075
   87POPC   PO4 1467   8.881   4.616   8.347
   87POPC   GL1 1468   9.022   4.884   7.920
   87POPC   GL2 1469   8.724   4.872   7.729
   87POPC   C1A 1470   9.094   5.006   7.415
   87POPC   D2A 1471   8.859   5.135   6.994
   87POPC   C3A 1472   8.824   4.966   6.582
   87POPC   C4A 1473   8.625   5.106   6.214
   87POPC   C1B 1474   8.618   4.812   7.299
   87POPC   C2B 1475   8.727   4.524   6.959
   87POPC   C3B 1476   8.626   4.455   6.531
   87POPC   C4B 1477   8.458   4.614   6.121
   88POPC   NC3 1478  10.118   9.883   8.180
   88POPC   PO4 1479   9.722  10.429   8.143
   88POPC   GL1 1480   9.922  10.268   7.730
   88POPC   GL2 1481  10.287  10.166   7.778
   88POPC   C1A 1482   9.803  10.401   7.275
   88POPC   D2A 1483   9.582  10.402   6.868
   88POPC   C3A 1484   9.856  10.347   6.525
   88POPC   C4A 1485  10.015  10.376   6.110
   88POPC   C1B 1486  10.300  10.353   7.364
   88POPC   C2B 1487  10.191  10.273   6.940
   88POPC   C3B 1488   0.019  10.167   6.649
   88POPC   C4B 1489  10.442  10.128   6.230
   89POPC   NC3 1490   0.729   1.909   8.348
   89POPC   PO4 1491   1.355   1.991   8.353
   89POPC   GL1 1492   1.372   2.078   7.909
   89POPC   GL2 1493   1.116   1.816   7.824
   89POPC   C1A 1494   1.456   1.958   7.474
   89POPC   D2A 1495   1.352   2.078   7.087
   89POPC   C3A 1496   1.282   1.927   6.665
   89POPC   C4A 1497   1.416   1.996   6.249
   89POPC   C1B 1498   0.969   1.924   7.391
   89POPC   C2B 1499   0.861   1.901   6.995
   89POPC   C3B 1500   0.762   1.975   6.626
   89POPC   C4B 1501   0.932   1.783   6.295
   90POPC   NC3 1502   8.653   5.128   8.551
   90POPC   PO4 1503   8.263   5.502   8.040
   90POPC   GL1 1504   8.187   5.242   7.632
   90POPC   GL2 1505   8.203   4.895   7.635
   90POPC   C1A 1506   8.298   5.173   7.163
   90POPC   D2A 1507   8.376   4.878   6.793
   90POPC   C3A 1508   8.160   5.009   6.386
   90POPC   C4A 1509   8.099   5.146   5.938
   90POPC   C1B 1510   8.124   4.685   7.213
   90POPC   C2B 1511   7.872   4.782   6.808
   90POPC   C3B 1512   7.660   4.859   6.376
   90POPC   C4B 1513   7.466   4.850   5.942
   91POPC   NC3 1514   5.679   2.136   7.984
   91POPC   PO4 1515   6.143   1.605   8.040
   91POPC   GL1 1516   5.816   1.738   7.696
   91POPC   GL2 1517   5.976   2.039   7.599
   91POPC   C1A 1518   5.592   2.006   7.293
   91POPC   D2A 1519   5.752   2.165   6.888
   91POPC   C3A 1520   5.510   2.196   6.489
   91POPC   C4A 1521   5.505   1.906   6.140
   91POPC   C1B 1522   6.061   1.822   7.226
   91POPC   C2B 1523   6.015   1.729   6.815
   91POPC   C3B 1524   5.931   1.922   6.455
   91POPC   C4B 1525   5.971   1.977   6.001
   92POPC   NC3 1526   1.679   8.029   8.040
   92POPC   PO4 1527   2.259   7.709   8.151
   92POPC   GL1 1528   2.118   7.730   7.673
   92POPC   GL2 1529   1.755   7.771   7.603
   92POPC   C1A 1530   2.088   7.741   7.178
   92POPC   D2A 1531   2.331   8.014   6.879
   92POPC   C3A 1532   2.324   8.018   6.405
   92POPC   C4A 1533   2.046   7.729   6.178
   92POPC   C1B 1534   1.941   8.159   7.419
   92POPC   C2B 1535   1.827   8.175   6.991
   92POPC   C3B 1536   1.862   7.962   6.614
   92POPC   C4B 1537   1.857   8.201   6.234
   93POPC   NC3 1538   9.568   3.687   8.172
   93POPC   PO4 1539   8.856   3.715   8.238
   93POPC   GL1 1540   9.119   3.688   7.862
   93POPC   GL2 1541   9.331   3.393   7.792
   93POPC   C1A 1542   9.214   3.747   7.413
   93POPC   D2A 1543   9.236   3.898   7.002
   93POPC   C3A 1544   9.104   3.672   6.648
   93POPC   C4A 1545   9.170   3.700   6.221
   93POPC   C1B 1546   9.228   3.228   7.370
   93POPC   C2B 1547   9.393   3.387   6.961
   93POPC   C3B 1548   9.520   3.364   6.495
   93POPC   C4B 1549   9.526   3.056   6.152
   94POPC   NC3 1550   0.513   4.415   8.104
   94POPC   PO4 1551   0.280   5.049   8.267
   94POPC   GL1 1552   0.264   4.820   7.810
   94POPC   GL2 1553   0.610   4.770   7.742
   94POPC   C1A 1554   0.330   4.732   7.306
   94POPC   D2A 1555   0.360   4.541   6.856
   94POPC   C3A 1556   0.230   4.748   6.455
   94POPC   C4A 1557   0.195   4.731   5.994
   94POPC   C1B 1558   0.481   5.176   7.497
   94POPC   C2B 1559   0.373   5.179   7.039
   94POPC   C3B 1560   0.321   5.260   6.590
   94POPC   C4B 1561   0.442   5.134   6.153
   95POPC   NC3 1562   1.201   8.645   8.095
   95POPC   PO4 1563   1.577   9.263   7.984
   95POPC   GL1 1564   1.412   8.902   7.696
   95POPC   GL2 1565   1.061   8.692   7.607
   95POPC   C1A 1566   1.301   8.963   7.261
   95POPC   D2A 1567   1.065   8.856   6.897
   95POPC   C3A 1568   1.273   9.019   6.552
   95POPC   C4A 1569   1.325   8.811   6.180
   95POPC   C1B 1570   1.087   8.430   7.215
   95POPC   C2B 1571   1.335   8.356   6.825
   95POPC   C3B 1572   1.300   8.338   6.360
   95POPC   C4B 1573   1.063   8.408   5.965
   96POPC   NC3 1574   6.671   0.943   7.951
   96POPC   PO4 1575   6.015   0.860   8.146
   96POPC   GL1 1576   6.184   0.973   7.752
   96POPC   GL2 1577   6.383   1.286   7.725
   96POPC   C1A 1578   6.385   0.907   7.351
   96POPC   D2A 1579   6.190   0.796   6.975
   96POPC   C3A 1580   6.340   0.917   6.590
   96POPC   C4A 1581   6.103   1.036   6.246
   96POPC   C1B 1582   6.139   1.350   7.375
   96POPC   C2B 1583   6.273   1.317   6.952
   96POPC   C3B 1584   6.318   1.431   6.523
   96POPC   C4B 1585   6.551   1.257   6.197
   97POPC   NC3 1586   3.265   1.726   8.222
   97POPC   PO4 1587   3.813   1.386   8.226
   97POPC   GL1 1588   3.718   1.575   7.798
   97POPC   GL2 1589   3.397   1.791   7.715
   97POPC   C1A 1590   3.632   1.538   7.341
   97POPC   D2A 1591   3.377   1.569   6.967
   97POPC   C3A 1592   3.477   1.669   6.521
   97POPC   C4A 1593   3.263   1.850   6.157
   97POPC   C1B 1594   3.498   2.029   7.319
   97POPC   C2B 1595   3.624   2.045   6.892
   97POPC   C3B 1596   3.516   2.182   6.485
   97POPC   C4B 1597   3.726   2.175   6.108
   98POPC   NC3 1598   6.312   0.541   8.336
   98POPC   PO4 1599   5.761   0.189   8.240
   98POPC   GL1 1600   6.031   0.122   7.788
   98POPC   GL2 1601   6.128   0.452   7.586
   98POPC   C1A 1602   6.171   0.017   7.315
   98POPC   D2A 1603   6.067   0.313   6.957
   98POPC   C3A 1604   6.269   0.391   6.545
   98POPC   C4A 1605   6.185   0.200   6.125
   98POPC   C1B 1606   6.487   0.412   7.270
   98POPC   C2B 1607   6.697   0.493   6.883
   98POPC   C3B 1608   6.749   0.606   6.477
   98POPC   C4B 1609   6.563   0.757   6.155
   99POPC   NC3 1610   1.282   2.603   7.890
   99POPC   PO4 1611   0.796   2.179   7.967
   99POPC   GL1 1612   0.854   2.403   7.580
   99POPC   GL2 1613   0.828   2.756   7.604
   99POPC   C1A 1614   0.793   2.434   7.125
   99POPC   D2A 1615   1.098   2.392   6.790
   99POPC   C3A 1616   1.025   2.334   6.357
   99POPC   C4A 1617   0.873   2.568   5.992
   99POPC   C1B 1618   1.163   2.804   7.296
   99POPC   C2B 1619   1.313   2.858   6.890
   99POPC   C3B 1620   1.079   2.834   6.512
   99POPC   C4B 1621   1.268   2.852   6.133
  100POPC   NC3 1622   1.968   3.994   8.119
  100POPC   PO4 1623   2.312   4.353   7.884
  100POPC   GL1 1624   1.911   4.396   7.672
  100POPC   GL2 1625   1.655   4.130   7.696
  100POPC   C1A 1626   1.687   4.434   7.270
  100POPC   D2A 1627   1.758   4.674   6.892
  100POPC   C3A 1628   1.771   4.433   6.508
  100POPC   C4A 1629   2.113   4.350   6.207
  100POPC   C1B 1630   1.921   3.986   7.362
  100POPC   C2B 1631   1.888   4.023   6.925
  100POPC   C3B 1632   2.056   3.942   6.523
  100POPC   C4B 1633   1.734   4.006   6.232
  101POPC   NC3 1634   8.165   2.680   8.122
  101POPC   PO4 1635   8.162   3.220   7.790
  101POPC   GL1 1636   7.971   2.817   7.653
  101POPC   GL2 1637   8.119   2.436   7.681
  101POPC   C1A 1638   7.836   2.966   7.243
  101POPC   D2A 1639   8.028   3.147   6.881
  101POPC   C3A 1640   7.875   3.048   6.445
  101POPC   C4A 1641   8.108   3.214   6.072
  101POPC   C1B 1642   8.007   2.494   7.256
  101POPC   C2B 1643   8.138   2.648   6.882
  101POPC   C3B 1644   8.037   2.563   6.495
  101POPC   C4B 1645   8.091   2.700   6.097
  102POPC   NC3 1646   1.213   0.330   7.991
  102POPC   PO4 1647   0.557   0.543   8.060
  102POPC   GL1 1648   0.751   0.281   7.685
  102POPC   GL2 1649   1.046   0.429   7.516
  102POPC   C1A 1650   0.834   0.002   7.314
  102POPC   D2A 1651   1.082   0.140   6.936
  102POPC   C3A 1652   0.918  10.463   6.533
  102POPC   C4A 1653   0.731   0.171   6.191
  102POPC   C1B 1654   1.388   0.643   7.283
  102POPC   C2B 1655   1.519   0.590   6.852
  102POPC   C3B 1656   1.321   0.363   6.511
  102POPC   C4B 1657   1.213   0.318   6.080
  103POPC   NC3 1658  10.363   4.971   8.110
  103POPC   PO4 1659   9.721   4.826   8.235
  103POPC   GL1 1660   9.966   4.783   7.835
  103POPC   GL2 1661  10.036   5.090   7.719
  103POPC   C1A 1662   9.951   4.708   7.389
  103POPC   D2A 1663   9.934   4.964   7.003
  103POPC   C3A 1664   9.830   4.744   6.609
  103POPC   C4A 1665   9.927   4.978   6.233
  103POPC   C1B 1666  10.395   4.954   7.448
  103POPC   C2B 1667  10.449   4.875   6.999
  103POPC   C3B 1668  10.299   4.970   6.611
  103POPC   C4B 1669  10.451   5.119   6.243
  104POPC   NC3 1670  10.240   7.114   7.923
  104POPC   PO4 1671   0.296   6.796   8.143
  104POPC   GL1 1672   0.007   6.709   7.739
  104POPC   GL2 1673  10.131   6.837   7.525
  104POPC   C1A 1674   0.076   6.834   7.316
  104POPC   D2A 1675  10.253   6.849   7.008
  104POPC   C3A 1676  10.389   6.874   6.608
  104POPC   C4A 1677  10.103   6.819   6.364
  104POPC   C1B 1678  10.213   7.271   7.299
  104POPC   C2B 1679  10.198   7.486   6.911
  104POPC   C3B 1680  10.356   7.412   6.516
  104POPC   C4B 1681  10.112   7.352   6.193
  105POPC   NC3 1682   8.379   5.923   7.938
  105POPC   PO4 1683   8.341   6.545   8.095
  105POPC   GL1 1684   8.339   6.361   7.648
  105POPC   GL2 1685   8.015   6.184   7.655
  105POPC   C1A 1686   8.288   6.133   7.219
  105POPC   D2A 1687   8.170   6.319   6.857
  105POPC   C3A 1688   8.124   6.420   6.456
  105POPC   C4A 1689   8.285   6.131   6.186
  105POPC   C1B 1690   7.893   6.474   7.300
  105POPC   C2B 1691   7.728   6.555   6.856
  105POPC   C3B 1692   7.636   6.272   6.504
  105POPC   C4B 1693   7.785   6.116   6.121
  106POPC   NC3 1694   1.764   1.825   8.154
  106POPC   PO4 1695   1.742   2.504   7.964
  106POPC   GL1 1696   1.827   2.231   7.636
  106POPC   GL2 1697   1.922   1.851   7.656
  106POPC   C1A 1698   1.876   2.083   7.180
  106POPC   D2A 1699   2.098   2.087   6.778
  106POPC   C3A 1700   1.895   2.139   6.379
  106POPC   C4A 1701   1.835   2.222   5.954
  106POPC   C1B 1702   1.755   1.589   7.291
  106POPC   C2B 1703   1.691   1.696   6.856
  106POPC   C3B 1704   1.869   1.617   6.462
  106POPC   C4B 1705   2.226   1.758   6.214
  107POPC   NC3 1706   9.516   6.335   8.268
  107POPC   PO4 1707   8.845   6.295   8.220
  107POPC   GL1 1708   9.176   6.315   7.810
  107POPC   GL2 1709   9.338   6.599   7.778
  107POPC   C1A 1710   9.310   6.292   7.324
  107POPC   D2A 1711   9.073   6.485   6.937
  107POPC   C3A 1712   9.167   6.368   6.495
  107POPC   C4A 1713   9.393   6.478   6.109
  107POPC   C1B 1714   9.534   6.730   7.385
  107POPC   C2B 1715   9.558   6.587   6.952
  107POPC   C3B 1716   9.497   6.779   6.560
  107POPC   C4B 1717   9.653   6.909   6.182
  108POPC   NC3 1718   2.204   2.586   8.060
  108POPC   PO4 1719   2.864   2.373   8.057
  108POPC   GL1 1720   2.883   2.570   7.640
  108POPC   GL2 1721   2.529   2.649   7.624
  108POPC   C1A 1722   2.797   2.416   7.232
  108POPC   D2A 1723   2.523   2.413   6.916
  108POPC   C3A 1724   2.609   2.685   6.641
  108POPC   C4A 1725   2.835   2.511   6.333
  108POPC   C1B 1726   2.458   2.842   7.193
  108POPC   C2B 1727   2.287   3.058   6.857
  108POPC   C3B 1728   2.301   3.052   6.415
  108POPC   C4B 1729   2.695   2.987   6.204
  109POPC   NC3 1730   6.564  10.453   7.883
  109POPC   PO4 1731   6.679   9.778   7.947
  109POPC   GL1 1732   6.558   9.900   7.564
  109POPC   GL2 1733   6.883   9.950   7.475
  109POPC   C1A 1734   6.271   9.980   7.212
  109POPC   D2A 1735   6.418   9.988   6.806
  109POPC   C3A 1736   6.231   9.801   6.436
  109POPC   C4A 1737   6.268   9.757   5.929
  109POPC   C1B 1738   6.675  10.310   7.236
  109POPC   C2B 1739   6.481   0.011   6.874
  109POPC   C3B 1740   6.292  10.363   6.500
  109POPC   C4B 1741   6.531  10.133   6.180
  110POPC   NC3 1742   2.068   5.519   8.078
  110POPC   PO4 1743   1.601   5.972   8.074
  110POPC   GL1 1744   1.566   5.913   7.627
  110POPC   GL2 1745   1.873   5.767   7.660
  110POPC   C1A 1746   1.603   5.760   7.221
  110POPC   D2A 1747   1.806   5.883   6.853
  110POPC   C3A 1748   1.588   5.746   6.518
  110POPC   C4A 1749   1.631   5.580   6.108
  110POPC   C1B 1750   2.068   5.595   7.302
  110POPC   C2B 1751   2.154   5.473   6.895
  110POPC   C3B 1752   2.004   5.479   6.492
  110POPC   C4B 1753   2.120   5.466   6.079
  111POPC   NC3 1754   0.768   3.457   7.973
  111POPC   PO4 1755   0.161   3.062   8.030
  111POPC   GL1 1756   0.437   3.157   7.697
  111POPC   GL2 1757   0.389   3.537   7.649
  111POPC   C1A 1758   0.709   3.253   7.346
  111POPC   D2A 1759   0.657   3.546   6.993
  111POPC   C3A 1760   0.724   3.334   6.614
  111POPC   C4A 1761   0.565   3.364   6.171
  111POPC   C1B 1762   0.213   3.423   7.261
  111POPC   C2B 1763   0.050   3.610   6.891
  111POPC   C3B 1764   0.288   3.591   6.533
  111POPC   C4B 1765   0.371   3.844   6.163
  112POPC   NC3 1766   6.490   2.609   8.057
  112POPC   PO4 1767   6.936   3.015   7.993
  112POPC   GL1 1768   6.694   2.899   7.627
  112POPC   GL2 1769   6.762   2.564   7.646
  112POPC   C1A 1770   6.399   3.042   7.264
  112POPC   D2A 1771   6.409   3.170   6.802
  112POPC   C3A 1772   6.705   3.000   6.463
  112POPC   C4A 1773   6.727   3.035   5.995
  112POPC   C1B 1774   6.543   2.549   7.260
  112POPC   C2B 1775   6.572   2.680   6.840
  112POPC   C3B 1776   6.244   2.744   6.526
  112POPC   C4B 1777   5.999   2.407   6.299
  113POPC   NC3 1778  10.050   8.984   8.066
  113POPC   PO4 1779  10.135   8.285   8.002
  113POPC   GL1 1780   9.981   8.473   7.624
  113POPC   GL2 1781   9.930   8.841   7.592
  113POPC   C1A 1782  10.077   8.320   7.211
  113POPC   D2A 1783   9.801   8.444   6.898
  113POPC   C3A 1784   9.907   8.363   6.520
  113POPC   C4A 1785   9.938   8.729   6.305
  113POPC   C1B 1786  10.145   8.829   7.195
  113POPC   C2B 1787  10.243   8.707   6.766
  113POPC   C3B 1788  10.390   8.946   6.419
  113POPC   C4B 1789   0.005   9.261   6.155
  114POPC   NC3 1790  10.166   3.060   8.053
  114POPC   PO4 1791  10.030   3.798   7.997
  114POPC   GL1 1792  10.024   3.443   7.738
  114POPC   GL2 1793  10.390   3.371   7.678
  114POPC   C1A 1794   9.736   3.295   7.385
  114POPC   D2A 1795   9.758   3.032   6.999
  114POPC   C3A 1796   9.908   3.013   6.569
  114POPC   C4A 1797   9.963   3.282   6.198
  114POPC   C1B 1798  10.198   3.447   7.252
  114POPC   C2B 1799  10.002   3.451   6.845
  114POPC   C3B 1800  10.082   3.683   6.470
  114POPC   C4B 1801  10.410   3.651   6.188
  115POPC   NC3 1802   7.273   0.514   8.060
  115POPC   PO4 1803   6.536   0.508   7.937
  115POPC   GL1 1804   6.918   0.500   7.621
  115POPC   GL2 1805   7.314   0.362   7.595
  115POPC   C1A 1806   6.984   0.248   7.242
  115POPC   D2A 1807   7.229   0.320   6.882
  115POPC   C3A 1808   7.004   0.182   6.566
  115POPC   C4A 1809   6.659   0.127   6.300
  115POPC   C1B 1810   7.332   0.658   7.268
  115POPC   C2B 1811   7.280   0.855   6.863
  115POPC   C3B 1812   7.259   0.657   6.480
  115POPC   C4B 1813   7.447   0.290   6.344
  116POPC   NC3 1814   9.177  10.258   8.204
  116POPC   PO4 1815   9.416   0.422   8.094
  116POPC   GL1 1816   9.386   0.055   7.766
  116POPC   GL2 1817   9.418  10.172   7.781
  116POPC   C1A 1818   9.292  10.385   7.344
  116POPC   D2A 1819   9.186  10.056   7.046
  116POPC   C3A 1820   9.145  10.217   6.616
  116POPC   C4A 1821   9.386  10.277   6.277
  116POPC   C1B 1822   9.617   9.966   7.437
  116POPC   C2B 1823   9.739   9.919   6.996
  116POPC   C3B 1824   9.571   9.898   6.568
  116POPC   C4B 1825   9.771   9.944   6.162
  117POPC   NC3 1826   7.557   1.143   8.033
  117POPC   PO4 1827   8.182   1.531   7.962
  117POPC   GL1 1828   8.078   1.357   7.551
  117POPC   GL2 1829   7.806   1.087   7.590
  117POPC   C1A 1830   8.233   1.035   7.272
  117POPC   D2A 1831   8.351   0.945   6.848
  117POPC   C3A 1832   8.069   1.162   6.579
  117POPC   C4A 1833   7.935   1.508   6.337
  117POPC   C1B 1834   7.527   1.124   7.262
  117POPC   C2B 1835   7.607   1.295   6.845
  117POPC   C3B 1836   7.562   1.091   6.457
  117POPC   C4B 1837   7.706   1.133   6.049
  118POPC   NC3 1838   9.362   9.248   8.022
  118POPC   PO4 1839   9.021   9.858   8.025
  118POPC   GL1 1840   9.306   9.652   7.692
  118POPC   GL2 1841   9.653   9.476   7.642
  118POPC   C1A 1842   9.370   9.578   7.233
  118POPC   D2A 1843   9.494   9.464   6.830
  118POPC   C3A 1844   9.143   9.466   6.514
  118POPC   C4A 1845   9.115   9.842   6.251
  118POPC   C1B 1846   9.728   9.189   7.268
  118POPC   C2B 1847   9.774   8.982   6.842
  118POPC   C3B 1848   9.598   9.131   6.458
  118POPC   C4B 1849   9.539   9.490   6.185
  119POPC   NC3 1850   0.409   5.481   8.127
  119POPC   PO4 1851   0.726   6.022   7.951
  119POPC   GL1 1852   0.526   5.760   7.679
  119POPC   GL2 1853   0.240   5.711   7.709
  119POPC   C1A 1854   0.594   5.801   7.268
  119POPC   D2A 1855   0.799   5.872   6.903
  119POPC   C3A 1856   0.582   5.755   6.555
  119POPC   C4A 1857   0.635   5.833   6.152
  119POPC   C1B 1858   0.133   5.548   7.322
  119POPC   C2B 1859   0.245   5.672   6.920
  119POPC   C3B 1860   0.048   5.701   6.557
  119POPC   C4B 1861   0.165   5.579   6.206
  120POPC   NC3 1862   4.244   1.532   8.298
  120POPC   PO4 1863   4.484   2.124   8.154
  120POPC   GL1 1864   4.358   1.913   7.732
  120POPC   GL2 1865   4.424   1.535   7.767
  120POPC   C1A 1866   4.055   2.031   7.364
  120POPC   D2A 1867   4.126   2.246   6.925
  120POPC   C3A 1868   4.062   2.079   6.505
  120POPC   C4A 1869   4.223   2.039   6.061
  120POPC   C1B 1870   4.142   1.531   7.389
  120POPC   C2B 1871   4.015   1.717   6.974
  120POPC   C3B 1872   3.992   1.578   6.558
  120POPC   C4B 1873   3.871   1.686   6.146
  121POPC   NC3 1874   2.127   9.517   8.007
  121POPC   PO4 1875   1.551   9.815   8.059
  121POPC   GL1 1876   1.756   9.649   7.667
  121POPC   GL2 1877   2.091   9.726   7.510
  121POPC   C1A 1878   1.788   9.469   7.212
  121POPC   D2A 1879   2.002   9.611   6.833
  121POPC   C3A 1880   1.899   9.481   6.420
  121POPC   C4A 1881   1.641   9.215   6.170
  121POPC   C1B 1882   2.203   9.287   7.416
  121POPC   C2B 1883   2.104   9.115   7.008
  121POPC   C3B 1884   2.295   9.175   6.603
  121POPC   C4B 1885   2.137   9.095   6.187
  122POPC   NC3 1886   8.709   1.645   7.998
  122POPC   PO4 1887   8.424   2.280   8.199
  122POPC   GL1 1888   8.513   2.083   7.789
  122POPC   GL2 1889   8.896   2.063   7.747
  122POPC   C1A 1890   8.425   1.800   7.396
  122POPC   D2A 1891   8.314   1.508   7.038
  122POPC   C3A 1892   8.366   1.723   6.644
  122POPC   C4A 1893   8.386   1.721   6.195
  122POPC   C1B 1894   8.748   2.182   7.337
  122POPC   C2B 1895   8.715   1.991   6.918
  122POPC   C3B 1896   8.805   2.080   6.457
  122POPC   C4B 1897   8.813   2.318   6.020
  123POPC   NC3 1898   8.592   9.896   7.855
  123POPC   PO4 1899   8.726  10.447   8.231
  123POPC   GL1 1900   8.886  10.350   7.755
  123POPC   GL2 1901   8.975  10.031   7.547
  123POPC   C1A 1902   8.791  10.419   7.283
  123POPC   D2A 1903   8.467   0.050   6.999
  123POPC   C3A 1904   8.673   0.061   6.614
  123POPC   C4A 1905   8.878   0.039   6.237
  123POPC   C1B 1906   8.657   9.938   7.214
  123POPC   C2B 1907   8.705  10.099   6.819
  123POPC   C3B 1908   8.671  10.086   6.370
  123POPC   C4B 1909   8.320   9.935   6.139
  124POPC   NC3 1910   1.913   3.204   7.927
  124POPC   PO4 1911   1.574   3.728   8.139
  124POPC   GL1 1912   1.794   3.630   7.714
  124POPC   GL2 1913   1.651   3.314   7.518
  124POPC   C1A 1914   2.067   3.503   7.332
  124POPC   D2A 1915   2.233   3.600   6.941
  124POPC   C3A 1916   2.024   3.423   6.610
  124POPC   C4A 1917   1.942   3.546   6.201
  124POPC   C1B 1918   1.859   3.048   7.173
  124POPC   C2B 1919   1.789   2.950   6.723
  124POPC   C3B 1920   1.656   3.141   6.344
  124POPC   C4B 1921   1.912   3.106   5.963
  125POPC   NC3 1922   4.958   1.968   8.082
  125POPC   PO4 1923   5.339   2.384   7.809
  125POPC   GL1 1924   5.249   1.970   7.663
  125POPC   GL2 1925   4.869   2.031   7.570
  125POPC   C1A 1926   5.189   1.699   7.332
  125POPC   D2A 1927   5.010   1.995   7.042
  125POPC   C3A 1928   5.072   1.933   6.621
  125POPC   C4A 1929   5.033   1.836   6.215
  125POPC   C1B 1930   4.542   2.088   7.226
  125POPC   C2B 1931   4.493   1.854   6.824
  125POPC   C3B 1932   4.577   1.968   6.405
  125POPC   C4B 1933   4.830   2.310   6.244
  126POPC   NC3 1934   2.778   9.322   8.186
  126POPC   PO4 1935   2.424   9.799   8.303
  126POPC   GL1 1936   2.586   9.664   7.839
  126POPC   GL2 1937   2.840   9.418   7.705
  126POPC   C1A 1938   2.586   9.728   7.370
  126POPC   D2A 1939   2.491   9.467   7.015
  126POPC   C3A 1940   2.661   9.549   6.622
  126POPC   C4A 1941   2.404   9.547   6.260
  126POPC   C1B 1942   3.002   9.427   7.306
  126POPC   C2B 1943   2.940   9.220   6.932
  126POPC   C3B 1944   3.081   9.261   6.534
  126POPC   C4B 1945   2.847   9.310   6.180
  127POPC   NC3 1946   7.464   1.982   8.020
  127POPC   PO4 1947   6.844   2.285   8.088
  127POPC   GL1 1948   7.117   2.195   7.711
  127POPC   GL2 1949   7.099   1.825   7.699
  127POPC   C1A 1950   7.449   2.088   7.352
  127POPC   D2A 1951   7.690   2.189   6.938
  127POPC   C3A 1952   7.486   2.301   6.565
  127POPC   C4A 1953   7.312   2.245   6.152
  127POPC   C1B 1954   6.960   1.928   7.290
  127POPC   C2B 1955   7.214   1.883   6.922
  127POPC   C3B 1956   7.092   1.932   6.493
  127POPC   C4B 1957   6.842   1.648   6.274
  128POPC   NC3 1958   3.497   0.176   7.988
  128POPC   PO4 1959   3.134   0.731   7.956
  128POPC   GL1 1960   3.126   0.367   7.640
  128POPC   GL2 1961   3.424   0.176   7.510
  128POPC   C1A 1962   3.093   0.196   7.167
  128POPC   D2A 1963   3.430   0.197   6.832
  128POPC   C3A 1964   3.235   0.281   6.409
  128POPC   C4A 1965   3.014   0.198   6.008
  128POPC   C1B 1966   3.453   0.571   7.264
  128POPC   C2B 1967   3.498   0.849   6.922
  128POPC   C3B 1968   3.560   0.664   6.558
  128POPC   C4B 1969   3.439   0.750   6.194
  129POPC   NC3 1970   8.138   1.057   7.978
  129POPC   PO4 1971   8.708   0.681   7.972
  129POPC   GL1 1972   8.592   1.012   7.680
  129POPC   GL2 1973   8.904   0.937   7.551
  129POPC   C1A 1974   8.676   1.368   7.374
  129POPC   D2A 1975   8.813   1.485   6.917
  129POPC   C3A 1976   8.580   1.290   6.554
  129POPC   C4A 1977   8.472   0.899   6.332
  129POPC   C1B 1978   8.747   0.919   7.166
  129POPC   C2B 1979   8.918   0.994   6.784
  129POPC   C3B 1980   8.966   1.014   6.347
  129POPC   C4B 1981   9.172   1.023   5.977
  130POPC   NC3 1982   8.312   7.931   8.244
  130POPC   PO4 1983   7.662   7.968   8.160
  130POPC   GL1 1984   7.770   8.043   7.729
  130POPC   GL2 1985   8.129   7.904   7.716
  130POPC   C1A 1986   7.608   8.283   7.337
  130POPC   D2A 1987   7.602   8.088   6.899
  130POPC   C3A 1988   7.463   8.086   6.458
  130POPC   C4A 1989   7.430   8.471   6.256
  130POPC   C1B 1990   8.227   7.882   7.260
  130POPC   C2B 1991   8.031   7.810   6.848
  130POPC   C3B 1992   7.846   7.702   6.455
  130POPC   C4B 1993   8.160   7.866   6.258
  131POPC   NC3 1994   7.271   7.764   8.053
  131POPC   PO4 1995   7.236   8.416   8.188
  131POPC   GL1 1996   7.265   8.189   7.765
  131POPC   GL2 1997   6.887   8.187   7.838
  131POPC   C1A 1998   7.408   7.838   7.390
  131POPC   D2A 1999   7.213   7.765   6.950
  131POPC   C3A 2000   7.333   7.596   6.522
  131POPC   C4A 2001   7.443   7.679   6.077
  131POPC   C1B 2002   6.932   7.946   7.440
  131POPC   C2B 2003   6.736   7.943   7.029
  131POPC   C3B 2004   6.856   7.947   6.611
  131POPC   C4B 2005   6.976   7.824   6.213
  132POPC   NC3 2006   0.217   0.854   8.071
  132POPC   PO4 2007  10.394   0.206   7.927
  132POPC   GL1 2008   0.249   0.355   7.650
  132POPC   GL2 2009   0.411   0.698   7.613
  132POPC   C1A 2010   0.474   0.384   7.224
  132POPC   D2A 2011   0.457   0.737   6.927
  132POPC   C3A 2012   0.381   0.609   6.523
  132POPC   C4A 2013   0.345   0.549   6.136
  132POPC   C1B 2014   0.735   0.813   7.354
  132POPC   C2B 2015   0.967   0.668   6.992
  132POPC   C3B 2016   0.854   0.495   6.614
  132POPC   C4B 2017   0.839   0.674   6.215
  133POPC   NC3 2018   4.223   8.107   8.070
  133POPC   PO4 2019   3.815   7.676   8.107
  133POPC   GL1 2020   3.892   7.879   7.692
  133POPC   GL2 2021   4.250   7.851   7.638
  133POPC   C1A 2022   3.947   7.920   7.212
  133POPC   D2A 2023   3.895   8.137   6.784
  133POPC   C3A 2024   3.983   7.904   6.364
  133POPC   C4A 2025   3.679   7.660   6.067
  133POPC   C1B 2026   4.416   8.127   7.317
  133POPC   C2B 2027   4.371   7.965   6.905
  133POPC   C3B 2028   4.555   7.939   6.522
  133POPC   C4B 2029   4.469   8.033   6.135
  134POPC   NC3 2030   8.549   8.581   8.058
  134POPC   PO4 2031   9.163   8.108   8.043
  134POPC   GL1 2032   9.048   8.323   7.709
  134POPC   GL2 2033   8.778   8.523   7.633
  134POPC   C1A 2034   9.119   8.426   7.301
  134POPC   D2A 2035   8.873   8.710   7.102
  134POPC   C3A 2036   8.765   8.592   6.687
  134POPC   C4A 2037   9.022   8.430   6.361
  134POPC   C1B 2038   8.448   8.719   7.415
  134POPC   C2B 2039   8.368   8.755   6.981
  134POPC   C3B 2040   8.266   8.705   6.557
  134POPC   C4B 2041   8.552   8.675   6.208
  135POPC   NC3 2042   0.385   0.016   8.037
  135POPC   PO4 2043   0.080   9.916   8.177
  135POPC   GL1 2044   0.305  10.053   7.748
  135POPC   GL2 2045   0.673  10.157   7.718
  135POPC   C1A 2046   0.320  10.396   7.394
  135POPC   D2A 2047   0.138   0.053   6.996
  135POPC   C3A 2048   0.374   0.081   6.587
  135POPC   C4A 2049   0.265   0.003   6.146
  135POPC   C1B 2050   0.568   9.973   7.288
  135POPC   C2B 2051   0.509  10.180   6.904
  135POPC   C3B 2052   0.513  10.061   6.480
  135POPC   C4B 2053   0.657  10.156   6.082
  136POPC   NC3 2054   9.741   1.088   8.243
  136POPC   PO4 2055   9.954   1.637   8.326
  136POPC   GL1 2056   9.870   1.438   7.880
  136POPC   GL2 2057  10.192   1.341   7.699
  136POPC   C1A 2058   9.794   1.548   7.403
  136POPC   D2A 2059   9.969   1.400   6.981
  136POPC   C3A 2060   9.810   1.553   6.582
  136POPC   C4A 2061  10.012   1.601   6.203
  136POPC   C1B 2062  10.200   1.100   7.321
  136POPC   C2B 2063  10.184   0.928   6.910
  136POPC   C3B 2064  10.222   1.187   6.555
  136POPC   C4B 2065  10.143   1.080   6.153
  137POPC   NC3 2066   0.593   6.451   7.969
  137POPC   PO4 2067   0.025   6.030   8.076
  137POPC   GL1 2068   0.158   6.212   7.668
  137POPC   GL2 2069   0.508   6.249   7.528
  137POPC   C1A 2070   0.166   6.063   7.233
  137POPC   D2A 2071   0.421   6.183   6.894
  137POPC   C3A 2072   0.266   6.142   6.495
  137POPC   C4A 2073   0.133   6.091   6.085
  137POPC   C1B 2074   0.811   6.302   7.217
  137POPC   C2B 2075   0.847   6.472   6.832
  137POPC   C3B 2076   0.781   6.256   6.492
  137POPC   C4B 2077   0.572   6.345   6.136
  138POPC   NC3 2078   9.210   0.872   7.947
  138POPC   PO4 2079   9.162   1.549   8.116
  138POPC   GL1 2080   9.096   1.387   7.704
  138POPC   GL2 2081   9.426   1.255   7.653
  138POPC   C1A 2082   9.159   1.285   7.239
  138POPC   D2A 2083   9.458   1.371   6.933
  138POPC   C3A 2084   9.350   1.285   6.531
  138POPC   C4A 2085   9.440   1.498   6.163
  138POPC   C1B 2086   9.665   1.074   7.288
  138POPC   C2B 2087   9.683   0.854   6.943
  138POPC   C3B 2088   9.769   0.990   6.558
  138POPC   C4B 2089   9.657   1.060   6.134
  139POPC   NC3 2090   2.146  10.471   7.997
  139POPC   PO4 2091   2.336   0.738   8.016
  139POPC   GL1 2092   2.151   0.664   7.652
  139POPC   GL2 2093   1.984   0.382   7.742
  139POPC   C1A 2094   2.235   0.630   7.275
  139POPC   D2A 2095   2.025   0.492   6.964
  139POPC   C3A 2096   1.978   0.734   6.632
  139POPC   C4A 2097   2.079   0.542   6.272
  139POPC   C1B 2098   1.744   0.308   7.391
  139POPC   C2B 2099   1.667   0.118   6.988
  139POPC   C3B 2100   1.816   0.220   6.579
  139POPC   C4B 2101   1.707   0.209   6.154
  140POPC   NC3 2102   5.273   9.594   8.236
  140POPC   PO4 2103   4.879   9.089   8.053
  140POPC   GL1 2104   4.884   9.228   7.674
  140POPC   GL2 2105   5.034   9.502   7.698
  140POPC   C1A 2106   4.897   9.073   7.283
  140POPC   D2A 2107   4.652   9.111   6.957
  140POPC   C3A 2108   4.833   9.145   6.595
  140POPC   C4A 2109   4.775   8.908   6.270
  140POPC   C1B 2110   4.846   9.585   7.281
  140POPC   C2B 2111   4.752   9.616   6.829
  140POPC   C3B 2112   4.811   9.631   6.422
  140POPC   C4B 2113   4.938   9.534   6.006
  141POPC   NC3 2114   9.572   1.883   8.202
  141POPC   PO4 2115   9.188   2.387   8.077
  141POPC   GL1 2116   9.417   2.127   7.752
  141POPC   GL2 2117   9.459   1.771   7.724
  141POPC   C1A 2118   9.569   2.065   7.301
  141POPC   D2A 2119   9.850   1.919   6.964
  141POPC   C3A 2120   9.723   2.111   6.571
  141POPC   C4A 2121   9.662   1.991   6.168
  141POPC   C1B 2122   9.139   1.797   7.385
  141POPC   C2B 2123   9.220   1.832   6.946
  141POPC   C3B 2124   9.280   1.837   6.508
  141POPC   C4B 2125   9.093   1.863   6.081
  142POPC   NC3 2126  10.233   1.998   8.355
  142POPC   PO4 2127  10.163   2.584   7.981
  142POPC   GL1 2128  10.102   2.652   7.588
  142POPC   GL2 2129  10.088   2.970   7.553
  142POPC   C1A 2130  10.093   2.667   7.140
  142POPC   D2A 2131   9.793   2.538   6.859
  142POPC   C3A 2132  10.102   2.504   6.557
  142POPC   C4A 2133  10.086   2.324   6.178
  142POPC   C1B 2134  10.446   2.984   7.322
  142POPC   C2B 2135  10.424   3.123   6.915
  142POPC   C3B 2136  10.364   3.259   6.522
  142POPC   C4B 2137  10.332   2.895   6.298
  143POPC   NC3 2138   4.508   9.493   8.030
  143POPC   PO4 2139   3.887   9.191   7.998
  143POPC   GL1 2140   4.199   9.214   7.709
  143POPC   GL2 2141   4.108   9.555   7.662
  143POPC   C1A 2142   4.436   9.313   7.372
  143POPC   D2A 2143   4.314   9.496   7.013
  143POPC   C3A 2144   4.364   9.335   6.591
  143POPC   C4A 2145   4.443   9.424   6.162
  143POPC   C1B 2146   3.907   9.354   7.277
  143POPC   C2B 2147   3.885   9.372   6.803
  143POPC   C3B 2148   3.900   9.400   6.392
  143POPC   C4B 2149   4.025   9.691   6.199
  144POPC   NC3 2150   4.976   8.616   8.130
  144POPC   PO4 2151   5.553   8.734   8.034
  144POPC   GL1 2152   5.188   8.749   7.670
  144POPC   GL2 2153   4.795   8.723   7.666
  144POPC   C1A 2154   5.258   8.726   7.226
  144POPC   D2A 2155   5.255   9.009   6.898
  144POPC   C3A 2156   5.240   8.843   6.514
  144POPC   C4A 2157   5.167   8.528   6.242
  144POPC   C1B 2158   4.781   8.539   7.246
  144POPC   C2B 2159   4.833   8.662   6.809
  144POPC   C3B 2160   4.704   8.435   6.449
  144POPC   C4B 2161   4.540   8.522   6.041
  145POPC   NC3 2162   8.706   4.147   8.295
  145POPC   PO4 2163   8.380   4.632   8.053
  145POPC   GL1 2164   8.435   4.445   7.631
  145POPC   GL2 2165   8.759   4.376   7.460
  145POPC   C1A 2166   8.320   4.191   7.268
  145POPC   D2A 2167   8.271   4.306   6.872
  145POPC   C3A 2168   8.246   4.034   6.519
  145POPC   C4A 2169   8.122   4.146   6.073
  145POPC   C1B 2170   8.807   4.046   7.208
  145POPC   C2B 2171   8.681   3.966   6.821
  145POPC   C3B 2172   8.725   3.904   6.405
  145POPC   C4B 2173   8.736   4.178   6.119
  146POPC   NC3 2174   7.167   2.641   8.076
  146POPC   PO4 2175   7.751   2.344   8.044
  146POPC   GL1 2176   7.545   2.499   7.650
  146POPC   GL2 2177   7.234   2.726   7.583
  146POPC   C1A 2178   7.508   2.581   7.194
  146POPC   D2A 2179   7.650   2.741   6.823
  146POPC   C3A 2180   7.383   2.826   6.514
  146POPC   C4A 2181   7.580   2.674   6.198
  146POPC   C1B 2182   7.038   2.429   7.260
  146POPC   C2B 2183   6.864   2.257   6.888
  146POPC   C3B 2184   6.982   2.425   6.533
  146POPC   C4B 2185   7.008   2.659   6.212
  147POPC   NC3 2186   4.841  10.423   7.882
  147POPC   PO4 2187   4.867   9.798   8.152
  147POPC   GL1 2188   5.116   9.975   7.820
  147POPC   GL2 2189   4.869  10.034   7.557
  147POPC   C1A 2190   5.281   9.846   7.373
  147POPC   D2A 2191   5.020   9.993   7.016
  147POPC   C3A 2192   5.203   9.902   6.593
  147POPC   C4A 2193   5.024  10.024   6.190
  147POPC   C1B 2194   4.664  10.330   7.274
  147POPC   C2B 2195   4.560  10.320   6.893
  147POPC   C3B 2196   4.727  10.164   6.573
  147POPC   C4B 2197   4.669  10.415   6.228
  148POPC   NC3 2198   8.968   0.293   8.038
  148POPC   PO4 2199   8.362  10.400   7.851
  148POPC   GL1 2200   8.450   0.185   7.529
  148POPC   GL2 2201   8.718   0.333   7.606
  148POPC   C1A 2202   8.374   0.540   7.265
  148POPC   D2A 2203   8.167   0.483   6.876
  148POPC   C3A 2204   8.330   0.436   6.484
  148POPC   C4A 2205   8.351   0.100   6.216
  148POPC   C1B 2206   8.869   0.423   7.231
  148POPC   C2B 2207   8.700   0.517   6.855
  148POPC   C3B 2208   8.845   0.531   6.474
  148POPC   C4B 2209   8.995   0.560   6.099
  149POPC   NC3 2210   4.208   8.850   8.067
  149POPC   PO4 2211   4.622   8.326   8.081
  149POPC   GL1 2212   4.323   8.502   7.685
  149POPC   GL2 2213   3.988   8.736   7.598
  149POPC   C1A 2214   4.377   8.816   7.315
  149POPC   D2A 2215   4.160   8.971   6.950
  149POPC   C3A 2216   4.334   8.842   6.532
  149POPC   C4A 2217   4.282   8.958   6.091
  149POPC   C1B 2218   4.019   8.448   7.240
  149POPC   C2B 2219   4.306   8.463   6.876
  149POPC   C3B 2220   4.199   8.366   6.426
  149POPC   C4B 2221   4.041   8.532   6.022
  150POPC   NC3 2222   9.766  10.261   4.108
  150POPC   PO4 2223   9.151  10.281   3.717
  150POPC   GL1 2224   9.309   9.949   4.196
  150POPC   GL2 2225   9.522  10.064   4.484
  150POPC   C1A 2226   9.070  10.113   4.669
  150POPC   D2A 2227   9.038  10.376   5.079
  150POPC   C3A 2228   9.222  10.227   5.468
  150POPC   C4A 2229   9.076  10.210   5.880
  150POPC   C1B 2230   9.797  10.199   4.806
  150POPC   C2B 2231   9.875  10.065   5.210
  150POPC   C3B 2232   9.899  10.360   5.556
  150POPC   C4B 2233   9.598  10.314   5.833
  151POPC   NC3 2234   6.371   9.863   3.924
  151POPC   PO4 2235   6.865  10.070   3.730
  151POPC   GL1 2236   6.784   9.974   4.172
  151POPC   GL2 2237   6.573  10.275   4.218
  151POPC   C1A 2238   6.500   9.888   4.570
  151POPC   D2A 2239   6.287   9.999   4.954
  151POPC   C3A 2240   6.557   9.940   5.289
  151POPC   C4A 2241   6.683   9.951   5.707
  151POPC   C1B 2242   6.273  10.367   4.567
  151POPC   C2B 2243   6.241   0.028   4.976
  151POPC   C3B 2244   6.317  10.383   5.347
  151POPC   C4B 2245   6.312  10.314   5.767
  152POPC   NC3 2246   0.757   9.573   4.124
  152POPC   PO4 2247   1.241   9.132   3.898
  152POPC   GL1 2248   1.178   9.316   4.279
  152POPC   GL2 2249   1.435   9.517   4.273
  152POPC   C1A 2250   0.994   9.198   4.683
  152POPC   D2A 2251   1.045   8.995   5.091
  152POPC   C3A 2252   0.804   9.117   5.462
  152POPC   C4A 2253   0.985   9.382   5.795
  152POPC   C1B 2254   1.449   9.643   4.665
  152POPC   C2B 2255   1.390   9.364   4.979
  152POPC   C3B 2256   1.281   9.365   5.383
  152POPC   C4B 2257   1.499   9.518   5.757
  153POPC   NC3 2258   1.302  10.364   3.849
  153POPC   PO4 2259   0.784   9.958   3.853
  153POPC   GL1 2260   0.971  10.206   4.203
  153POPC   GL2 2261   1.228   9.974   4.230
  153POPC   C1A 2262   1.196  10.321   4.599
  153POPC   D2A 2263   0.927  10.308   4.937
  153POPC   C3A 2264   0.937  10.333   5.389
  153POPC   C4A 2265   1.018  10.417   5.829
  153POPC   C1B 2266   0.986   9.865   4.629
  153POPC   C2B 2267   1.088   9.804   5.043
  153POPC   C3B 2268   1.137   9.849   5.472
  153POPC   C4B 2269   1.507  10.032   5.659
  154POPC   NC3 2270   1.173   1.471   4.059
  154POPC   PO4 2271   1.628   0.952   3.822
  154POPC   GL1 2272   1.524   1.117   4.252
  154POPC   GL2 2273   1.181   1.042   4.378
  154POPC   C1A 2274   1.485   1.366   4.692
  154POPC   D2A 2275   1.324   1.443   5.112
  154POPC   C3A 2276   1.564   1.489   5.517
  154POPC   C4A 2277   1.582   1.265   5.934
  154POPC   C1B 2278   0.960   1.342   4.673
  154POPC   C2B 2279   0.809   1.414   5.080
  154POPC   C3B 2280   0.867   1.177   5.395
  154POPC   C4B 2281   1.108   1.223   5.723
  155POPC   NC3 2282   8.783   7.809   3.910
  155POPC   PO4 2283   8.276   8.287   3.865
  155POPC   GL1 2284   8.330   8.073   4.255
  155POPC   GL2 2285   8.671   7.986   4.362
  155POPC   C1A 2286   8.296   8.023   4.701
  155POPC   D2A 2287   8.559   8.134   5.022
  155POPC   C3A 2288   8.529   8.010   5.446
  155POPC   C4A 2289   8.259   7.998   5.794
  155POPC   C1B 2290   8.865   7.842   4.705
  155POPC   C2B 2291   8.821   7.706   5.113
  155POPC   C3B 2292   9.026   7.857   5.492
  155POPC   C4B 2293   8.827   7.837   5.903
  156POPC   NC3 2294   2.762   1.092   3.955
  156POPC   PO4 2295   3.165   1.570   3.640
  156POPC   GL1 2296   3.099   1.391   4.154
  156POPC   GL2 2297   2.746   1.427   4.316
  156POPC   C1A 2298   3.090   1.380   4.663
  156POPC   D2A 2299   3.016   1.060   5.006
  156POPC   C3A 2300   3.080   1.190   5.439
  156POPC   C4A 2301   2.892   1.058   5.838
  156POPC   C1B 2302   2.559   1.214   4.673
  156POPC   C2B 2303   2.575   1.390   5.095
  156POPC   C3B 2304   2.581   1.301   5.515
  156POPC   C4B 2305   2.326   0.986   5.629
  157POPC   NC3 2306   0.577   3.207   3.977
  157POPC   PO4 2307  10.426   3.310   3.853
  157POPC   GL1 2308   0.145   3.449   4.251
  157POPC   GL2 2309   0.307   3.137   4.383
  157POPC   C1A 2310   0.096   3.612   4.695
  157POPC   D2A 2311   0.265   3.458   5.075
  157POPC   C3A 2312   0.152   3.462   5.481
  157POPC   C4A 2313   0.342   3.139   5.729
  157POPC   C1B 2314   0.582   3.368   4.660
  157POPC   C2B 2315   0.791   3.427   5.039
  157POPC   C3B 2316   0.736   3.337   5.453
  157POPC   C4B 2317   0.553   3.641   5.739
  158POPC   NC3 2318   8.762   5.407   3.858
  158POPC   PO4 2319   8.910   6.082   3.928
  158POPC   GL1 2320   8.857   5.781   4.321
  158POPC   GL2 2321   8.536   5.735   4.250
  158POPC   C1A 2322   8.964   5.528   4.742
  158POPC   D2A 2323   8.742   5.517   5.124
  158POPC   C3A 2324   8.846   5.546   5.527
  158POPC   C4A 2325   8.530   5.371   5.800
  158POPC   C1B 2326   8.488   5.698   4.695
  158POPC   C2B 2327   8.258   5.691   5.070
  158POPC   C3B 2328   8.421   5.852   5.420
  158POPC   C4B 2329   8.503   5.869   5.833
  159POPC   NC3 2330   7.888   4.927   3.821
  159POPC   PO4 2331   8.420   4.876   3.913
  159POPC   GL1 2332   8.236   4.819   4.315
  159POPC   GL2 2333   7.867   4.786   4.335
  159POPC   C1A 2334   8.205   4.888   4.778
  159POPC   D2A 2335   8.082   4.675   5.180
  159POPC   C3A 2336   7.819   4.786   5.561
  159POPC   C4A 2337   7.945   4.664   5.996
  159POPC   C1B 2338   7.734   5.044   4.734
  159POPC   C2B 2339   7.844   5.171   5.201
  159POPC   C3B 2340   7.633   5.251   5.634
  159POPC   C4B 2341   7.645   5.313   6.094
  160POPC   NC3 2342   1.986  10.254   3.841
  160POPC   PO4 2343   1.559   0.261   3.872
  160POPC   GL1 2344   1.822   0.080   4.215
  160POPC   GL2 2345   1.609  10.321   4.286
  160POPC   C1A 2346   2.078   0.028   4.665
  160POPC   D2A 2347   2.212  10.409   5.136
  160POPC   C3A 2348   2.027   0.089   5.551
  160POPC   C4A 2349   2.176   0.088   6.017
  160POPC   C1B 2350   1.679  10.174   4.727
  160POPC   C2B 2351   1.840  10.029   5.141
  160POPC   C3B 2352   2.017  10.080   5.566
  160POPC   C4B 2353   1.850  10.230   5.972
  161POPC   NC3 2354   1.875   4.502   4.044
  161POPC   PO4 2355   1.832   3.829   3.892
  161POPC   GL1 2356   2.038   4.015   4.252
  161POPC   GL2 2357   1.780   4.112   4.447
  161POPC   C1A 2358   2.198   4.008   4.712
  161POPC   D2A 2359   1.956   4.106   5.090
  161POPC   C3A 2360   2.172   4.000   5.499
  161POPC   C4A 2361   2.212   3.924   5.961
  161POPC   C1B 2362   1.778   4.496   4.686
  161POPC   C2B 2363   1.780   4.669   5.093
  161POPC   C3B 2364   1.770   4.428   5.444
  161POPC   C4B 2365   1.786   4.183   5.781
  162POPC   NC3 2366   7.050   0.608   4.027
  162POPC   PO4 2367   7.586   0.285   3.797
  162POPC   GL1 2368   7.571   0.504   4.192
  162POPC   GL2 2369   7.356   0.278   4.329
  162POPC   C1A 2370   7.581   0.601   4.657
  162POPC   D2A 2371   7.485   0.443   5.100
  162POPC   C3A 2372   7.376   0.692   5.481
  162POPC   C4A 2373   7.425   0.677   5.976
  162POPC   C1B 2374   7.114   0.377   4.719
  162POPC   C2B 2375   7.005   0.245   5.137
  162POPC   C3B 2376   7.092   0.282   5.610
  162POPC   C4B 2377   7.025   0.379   6.068
  163POPC   NC3 2378   7.931   0.057   3.981
  163POPC   PO4 2379   8.527   0.278   3.846
  163POPC   GL1 2380   8.290   0.344   4.241
  163POPC   GL2 2381   8.078   0.600   4.145
  163POPC   C1A 2382   7.941   0.225   4.574
  163POPC   D2A 2383   7.804  10.445   4.928
  163POPC   C3A 2384   7.862   0.122   5.333
  163POPC   C4A 2385   7.625   0.293   5.665
  163POPC   C1B 2386   8.089   0.716   4.586
  163POPC   C2B 2387   7.991   0.500   4.990
  163POPC   C3B 2388   7.870   0.684   5.355
  163POPC   C4B 2389   7.883   0.735   5.767
  164POPC   NC3 2390   8.798  10.273   4.041
  164POPC   PO4 2391   8.742   9.654   3.898
  164POPC   GL1 2392   8.855   9.806   4.316
  164POPC   GL2 2393   8.618  10.064   4.452
  164POPC   C1A 2394   8.751   9.688   4.760
  164POPC   D2A 2395   8.879   9.913   5.109
  164POPC   C3A 2396   8.984   9.783   5.512
  164POPC   C4A 2397   8.745   9.849   5.860
  164POPC   C1B 2398   8.643  10.418   4.745
  164POPC   C2B 2399   8.543  10.494   5.168
  164POPC   C3B 2400   8.688  10.237   5.491
  164POPC   C4B 2401   8.571  10.303   5.893
  165POPC   NC3 2402   2.232   2.663   3.932
  165POPC   PO4 2403   1.606   2.725   3.793
  165POPC   GL1 2404   1.629   2.710   4.245
  165POPC   GL2 2405   1.971   2.771   4.344
  165POPC   C1A 2406   1.557   2.777   4.710
  165POPC   D2A 2407   1.786   2.753   5.126
  165POPC   C3A 2408   1.524   2.851   5.373
  165POPC   C4A 2409   1.565   2.795   5.736
  165POPC   C1B 2410   2.070   2.655   4.744
  165POPC   C2B 2411   2.325   2.475   5.043
  165POPC   C3B 2412   2.174   2.355   5.437
  165POPC   C4B 2413   2.037   2.625   5.751
  166POPC   NC3 2414   6.615   8.359   3.725
  166POPC   PO4 2415   6.142   8.841   3.852
  166POPC   GL1 2416   6.155   8.770   4.368
  166POPC   GL2 2417   6.519   8.786   4.533
  166POPC   C1A 2418   6.256   8.435   4.736
  166POPC   D2A 2419   6.504   8.549   5.112
  166POPC   C3A 2420   6.330   8.517   5.541
  166POPC   C4A 2421   6.175   8.165   5.809
  166POPC   C1B 2422   6.232   8.944   4.852
  166POPC   C2B 2423   6.201   9.027   5.278
  166POPC   C3B 2424   6.540   8.981   5.540
  166POPC   C4B 2425   6.596   8.977   5.983
  167POPC   NC3 2426  10.201   7.248   3.959
  167POPC   PO4 2427   9.796   6.781   3.814
  167POPC   GL1 2428   9.807   7.035   4.252
  167POPC   GL2 2429  10.129   7.139   4.434
  167POPC   C1A 2430   9.764   7.023   4.742
  167POPC   D2A 2431   9.964   6.878   5.114
  167POPC   C3A 2432  10.001   7.083   5.487
  167POPC   C4A 2433  10.057   6.979   5.882
  167POPC   C1B 2434  10.211   7.348   4.834
  167POPC   C2B 2435  10.411   7.190   5.218
  167POPC   C3B 2436   0.003   6.948   5.637
  167POPC   C4B 2437   0.003   7.045   6.120
  168POPC   NC3 2438   8.195   1.646   4.171
  168POPC   PO4 2439   8.118   1.021   3.861
  168POPC   GL1 2440   8.213   1.123   4.256
  168POPC   GL2 2441   7.843   1.083   4.299
  168POPC   C1A 2442   8.410   1.131   4.681
  168POPC   D2A 2443   8.217   0.938   5.048
  168POPC   C3A 2444   8.301   0.945   5.503
  168POPC   C4A 2445   8.216   1.121   5.936
  168POPC   C1B 2446   7.914   1.268   4.714
  168POPC   C2B 2447   7.930   1.324   5.172
  168POPC   C3B 2448   7.836   1.210   5.563
  168POPC   C4B 2449   7.581   1.531   5.749
  169POPC   NC3 2450   4.900   8.430   4.045
  169POPC   PO4 2451   4.808   9.126   3.924
  169POPC   GL1 2452   4.862   8.912   4.296
  169POPC   GL2 2453   4.578   8.704   4.332
  169POPC   C1A 2454   4.797   9.004   4.725
  169POPC   D2A 2455   4.610   8.934   5.095
  169POPC   C3A 2456   4.784   8.831   5.451
  169POPC   C4A 2457   4.948   8.703   5.826
  169POPC   C1B 2458   4.789   8.479   4.683
  169POPC   C2B 2459   4.927   8.517   5.097
  169POPC   C3B 2460   4.843   8.322   5.507
  169POPC   C4B 2461   4.920   8.188   5.940
  170POPC   NC3 2462   7.813   6.503   3.909
  170POPC   PO4 2463   7.555   7.024   4.076
  170POPC   GL1 2464   7.803   6.706   4.395
  170POPC   GL2 2465   8.057   6.460   4.350
  170POPC   C1A 2466   7.940   6.530   4.840
  170POPC   D2A 2467   7.696   6.399   5.208
  170POPC   C3A 2468   7.758   6.580   5.619
  170POPC   C4A 2469   8.008   6.548   5.972
  170POPC   C1B 2470   8.230   6.149   4.612
  170POPC   C2B 2471   8.347   6.210   5.023
  170POPC   C3B 2472   8.183   6.374   5.374
  170POPC   C4B 2473   8.045   6.090   5.699
  171POPC   NC3 2474   5.602   2.212   3.968
  171POPC   PO4 2475   5.330   1.645   3.831
  171POPC   GL1 2476   5.522   1.727   4.238
  171POPC   GL2 2477   5.848   1.879   4.273
  171POPC   C1A 2478   5.666   1.643   4.685
  171POPC   D2A 2479   5.837   1.728   5.084
  171POPC   C3A 2480   5.585   1.839   5.420
  171POPC   C4A 2481   5.708   1.622   5.774
  171POPC   C1B 2482   5.648   2.139   4.640
  171POPC   C2B 2483   5.753   2.237   5.090
  171POPC   C3B 2484   5.875   2.254   5.552
  171POPC   C4B 2485   5.627   2.361   5.937
  172POPC   NC3 2486   1.442   3.813   4.154
  172POPC   PO4 2487   0.914   3.447   3.785
  172POPC   GL1 2488   0.900   3.528   4.238
  172POPC   GL2 2489   0.953   3.181   4.353
  172POPC   C1A 2490   1.015   3.705   4.662
  172POPC   D2A 2491   1.253   3.722   5.074
  172POPC   C3A 2492   0.984   3.775   5.449
  172POPC   C4A 2493   1.039   3.587   5.860
  172POPC   C1B 2494   1.253   3.224   4.709
  172POPC   C2B 2495   1.210   3.178   5.131
  172POPC   C3B 2496   1.356   3.377   5.480
  172POPC   C4B 2497   1.426   3.253   5.881
  173POPC   NC3 2498   0.609   2.170   3.914
  173POPC   PO4 2499   0.688   2.781   4.099
  173POPC   GL1 2500   0.654   2.453   4.349
  173POPC   GL2 2501   0.310   2.519   4.408
  173POPC   C1A 2502   0.687   2.337   4.765
  173POPC   D2A 2503   0.505   2.468   5.138
  173POPC   C3A 2504   0.642   2.656   5.546
  173POPC   C4A 2505   0.400   2.458   5.827
  173POPC   C1B 2506   0.422   2.821   4.753
  173POPC   C2B 2507   0.463   2.976   5.180
  173POPC   C3B 2508   0.162   2.717   5.442
  173POPC   C4B 2509   0.006   2.778   5.855
  174POPC   NC3 2510   1.790   7.172   4.022
  174POPC   PO4 2511   2.505   7.211   3.942
  174POPC   GL1 2512   2.217   7.105   4.311
  174POPC   GL2 2513   1.927   7.307   4.472
  174POPC   C1A 2514   2.162   6.998   4.769
  174POPC   D2A 2515   2.131   7.291   5.112
  174POPC   C3A 2516   2.144   7.002   5.447
  174POPC   C4A 2517   2.098   6.889   5.858
  174POPC   C1B 2518   1.675   7.164   4.793
  174POPC   C2B 2519   1.697   7.001   5.193
  174POPC   C3B 2520   1.685   7.155   5.604
  174POPC   C4B 2521   1.704   7.430   5.929
  175POPC   NC3 2522   7.225   7.344   4.030
  175POPC   PO4 2523   6.759   7.928   3.884
  175POPC   GL1 2524   7.034   7.935   4.334
  175POPC   GL2 2525   7.403   8.006   4.398
  175POPC   C1A 2526   7.096   7.761   4.771
  175POPC   D2A 2527   7.257   7.749   5.222
  175POPC   C3A 2528   7.079   7.716   5.657
  175POPC   C4A 2529   7.049   7.373   5.971
  175POPC   C1B 2530   7.337   8.230   4.758
  175POPC   C2B 2531   7.377   8.399   5.154
  175POPC   C3B 2532   7.221   8.199   5.505
  175POPC   C4B 2533   7.258   8.134   5.923
  176POPC   NC3 2534   1.593   2.259   3.763
  176POPC   PO4 2535   1.612   1.624   4.121
  176POPC   GL1 2536   1.440   1.911   4.364
  176POPC   GL2 2537   1.096   1.806   4.451
  176POPC   C1A 2538   1.481   1.882   4.798
  176POPC   D2A 2539   1.401   1.966   5.194
  176POPC   C3A 2540   1.103   1.746   5.459
  176POPC   C4A 2541   1.246   1.649   5.911
  176POPC   C1B 2542   0.987   1.857   4.890
  176POPC   C2B 2543   0.927   2.175   5.185
  176POPC   C3B 2544   0.748   2.164   5.570
  176POPC   C4B 2545   0.994   2.091   5.902
  177POPC   NC3 2546   5.035   0.559   3.837
  177POPC   PO4 2547   4.424   0.602   4.099
  177POPC   GL1 2548   4.640   0.611   4.454
  177POPC   GL2 2549   4.888   0.375   4.291
  177POPC   C1A 2550   4.681   0.672   4.916
  177POPC   D2A 2551   4.668   0.396   5.240
  177POPC   C3A 2552   4.749   0.576   5.614
  177POPC   C4A 2553   4.749   0.229   5.845
  177POPC   C1B 2554   4.949   0.298   4.703
  177POPC   C2B 2555   5.131   0.481   5.055
  177POPC   C3B 2556   5.148   0.316   5.440
  177POPC   C4B 2557   5.289   0.369   5.822
  178POPC   NC3 2558   3.516   1.835   3.862
  178POPC   PO4 2559   2.965   1.846   4.068
  178POPC   GL1 2560   3.260   1.846   4.378
  178POPC   GL2 2561   3.551   2.014   4.359
  178POPC   C1A 2562   3.195   1.868   4.837
  178POPC   D2A 2563   3.414   1.940   5.203
  178POPC   C3A 2564   3.205   1.678   5.452
  178POPC   C4A 2565   2.950   1.593   5.805
  178POPC   C1B 2566   3.452   2.278   4.740
  178POPC   C2B 2567   3.610   2.426   5.115
  178POPC   C3B 2568   3.739   2.286   5.506
  178POPC   C4B 2569   3.465   2.029   5.714
  179POPC   NC3 2570   6.503   2.292   3.978
  179POPC   PO4 2571   6.842   1.737   4.021
  179POPC   GL1 2572   6.712   1.997   4.362
  179POPC   GL2 2573   6.363   1.921   4.330
  179POPC   C1A 2574   6.613   1.971   4.801
  179POPC   D2A 2575   6.770   1.846   5.183
  179POPC   C3A 2576   6.592   2.057   5.514
  179POPC   C4A 2577   6.599   1.779   5.822
  179POPC   C1B 2578   6.119   1.965   4.724
  179POPC   C2B 2579   6.222   2.055   5.176
  179POPC   C3B 2580   6.134   1.807   5.551
  179POPC   C4B 2581   6.185   1.486   5.915
  180POPC   NC3 2582   8.982   0.267   3.747
  180POPC   PO4 2583   9.329  10.416   4.171
  180POPC   GL1 2584   8.979   0.075   4.405
  180POPC   GL2 2585   8.829   0.387   4.278
  180POPC   C1A 2586   8.983   0.332   4.783
  180POPC   D2A 2587   9.190   0.364   5.163
  180POPC   C3A 2588   8.954   0.187   5.481
  180POPC   C4A 2589   8.701   0.279   5.805
  180POPC   C1B 2590   8.599   0.629   4.627
  180POPC   C2B 2591   8.517   0.514   5.076
  180POPC   C3B 2592   8.306   0.422   5.493
  180POPC   C4B 2593   8.312   0.552   5.955
  181POPC   NC3 2594  10.353   0.515   3.897
  181POPC   PO4 2595   9.702   0.701   3.858
  181POPC   GL1 2596   9.864   0.524   4.281
  181POPC   GL2 2597  10.192   0.445   4.371
  181POPC   C1A 2598   9.837   0.191   4.624
  181POPC   D2A 2599   9.671   0.416   4.983
  181POPC   C3A 2600   9.881   0.441   5.387
  181POPC   C4A 2601   9.988   0.318   5.809
  181POPC   C1B 2602  10.168   0.498   4.808
  181POPC   C2B 2603  10.282   0.641   5.162
  181POPC   C3B 2604  10.345   0.670   5.539
  181POPC   C4B 2605  10.372   0.675   5.955
  182POPC   NC3 2606   8.500   2.491   3.903
  182POPC   PO4 2607   8.987   3.002   3.935
  182POPC   GL1 2608   8.874   2.884   4.338
  182POPC   GL2 2609   8.522   2.931   4.285
  182POPC   C1A 2610   9.040   2.723   4.734
  182POPC   D2A 2611   8.973   2.904   5.119
  182POPC   C3A 2612   9.031   2.626   5.455
  182POPC   C4A 2613   8.887   2.827   5.783
  182POPC   C1B 2614   8.537   2.587   4.597
  182POPC   C2B 2615   8.632   2.529   5.036
  182POPC   C3B 2616   8.532   2.786   5.379
  182POPC   C4B 2617   8.448   2.589   5.759
  183POPC   NC3 2618   4.631  10.193   3.891
  183POPC   PO4 2619   5.219   0.067   3.845
  183POPC   GL1 2620   5.204  10.437   4.243
  183POPC   GL2 2621   5.055  10.128   4.161
  183POPC   C1A 2622   5.327  10.467   4.666
  183POPC   D2A 2623   5.074  10.454   5.054
  183POPC   C3A 2624   5.260  10.327   5.429
  183POPC   C4A 2625   5.090  10.363   5.818
  183POPC   C1B 2626   4.816  10.262   4.562
  183POPC   C2B 2627   4.802  10.039   4.971
  183POPC   C3B 2628   4.973   9.880   5.341
  183POPC   C4B 2629   4.771   9.934   5.745
  184POPC   NC3 2630   9.371   1.038   3.886
  184POPC   PO4 2631   9.795   1.523   4.099
  184POPC   GL1 2632   9.670   1.122   4.322
  184POPC   GL2 2633   9.307   1.141   4.369
  184POPC   C1A 2634   9.883   0.901   4.645
  184POPC   D2A 2635   9.847   0.875   5.085
  184POPC   C3A 2636   9.732   1.190   5.327
  184POPC   C4A 2637   9.519   1.248   5.687
  184POPC   C1B 2638   9.393   1.351   4.746
  184POPC   C2B 2639   9.277   1.359   5.173
  184POPC   C3B 2640   9.069   1.163   5.489
  184POPC   C4B 2641   9.069   1.478   5.775
  185POPC   NC3 2642   2.493   8.756   4.001
  185POPC   PO4 2643   2.901   8.262   3.756
  185POPC   GL1 2644   2.794   8.419   4.244
  185POPC   GL2 2645   2.440   8.508   4.432
  185POPC   C1A 2646   2.846   8.632   4.688
  185POPC   D2A 2647   2.975   8.730   5.111
  185POPC   C3A 2648   2.763   9.065   5.365
  185POPC   C4A 2649   2.840   8.931   5.789
  185POPC   C1B 2650   2.227   8.367   4.793
  185POPC   C2B 2651   2.449   8.560   5.098
  185POPC   C3B 2652   2.643   8.578   5.482
  185POPC   C4B 2653   2.557   8.407   5.876
  186POPC   NC3 2654   7.275  10.268   3.790
  186POPC   PO4 2655   6.873   0.191   4.122
  186POPC   GL1 2656   7.127  10.322   4.285
  186POPC   GL2 2657   7.322   9.974   4.199
  186POPC   C1A 2658   6.936  10.142   4.638
  186POPC   D2A 2659   6.703  10.324   4.974
  186POPC   C3A 2660   6.845  10.349   5.410
  186POPC   C4A 2661   6.797  10.434   5.841
  186POPC   C1B 2662   7.341   9.832   4.629
  186POPC   C2B 2663   7.268  10.048   5.013
  186POPC   C3B 2664   7.086   9.906   5.384
  186POPC   C4B 2665   7.183  10.112   5.755
  187POPC   NC3 2666   7.124   9.217   3.797
  187POPC   PO4 2667   7.587   9.469   4.074
  187POPC   GL1 2668   7.430   9.225   4.405
  187POPC   GL2 2669   7.096   9.231   4.304
  187POPC   C1A 2670   7.207   9.317   4.797
  187POPC   D2A 2671   7.318   9.557   5.111
  187POPC   C3A 2672   7.330   9.354   5.468
  187POPC   C4A 2673   7.168   9.575   5.762
  187POPC   C1B 2674   6.915   9.603   4.495
  187POPC   C2B 2675   6.849   9.689   4.947
  187POPC   C3B 2676   6.866   9.324   5.280
  187POPC   C4B 2677   7.013   9.055   5.691
  188POPC   NC3 2678   9.224   8.881   3.902
  188POPC   PO4 2679   9.771   8.534   3.843
  188POPC   GL1 2680   9.721   8.797   4.192
  188POPC   GL2 2681   9.433   8.624   4.315
  188POPC   C1A 2682   9.744   8.806   4.660
  188POPC   D2A 2683   9.621   8.852   5.094
  188POPC   C3A 2684   9.880   8.845   5.452
  188POPC   C4A 2685   9.762   8.914   5.865
  188POPC   C1B 2686   9.224   8.789   4.728
  188POPC   C2B 2687   9.149   8.701   5.159
  188POPC   C3B 2688   9.275   8.756   5.597
  188POPC   C4B 2689   8.966   8.667   5.913
  189POPC   NC3 2690   3.634  10.137   3.849
  189POPC   PO4 2691   2.967   9.743   3.868
  189POPC   GL1 2692   3.152   9.724   4.258
  189POPC   GL2 2693   3.399   9.944   4.252
  189POPC   C1A 2694   2.975   9.858   4.668
  189POPC   D2A 2695   3.083  10.072   5.065
  189POPC   C3A 2696   3.042   9.883   5.469
  189POPC   C4A 2697   3.241   9.850   5.858
  189POPC   C1B 2698   3.421  10.120   4.660
  189POPC   C2B 2699   3.612  10.135   5.073
  189POPC   C3B 2700   3.537  10.173   5.505
  189POPC   C4B 2701   3.833  10.498   5.726
  190POPC   NC3 2702   8.363   9.388   3.876
  190POPC   PO4 2703   8.350  10.104   3.955
  190POPC   GL1 2704   8.397   9.639   4.289
  190POPC   GL2 2705   8.726   9.313   4.252
  190POPC   C1A 2706   8.432   9.289   4.630
  190POPC   D2A 2707   8.624   9.220   5.048
  190POPC   C3A 2708   8.600   9.539   5.298
  190POPC   C4A 2709   8.639   9.403   5.699
  190POPC   C1B 2710   8.952   9.233   4.643
  190POPC   C2B 2711   9.108   9.422   5.053
  190POPC   C3B 2712   9.068   9.275   5.472
  190POPC   C4B 2713   9.089   9.468   5.914
  191POPC   NC3 2714   2.409   0.486   3.830
  191POPC   PO4 2715   3.008   0.763   3.718
  191POPC   GL1 2716   2.783   0.560   4.149
  191POPC   GL2 2717   2.877   0.202   4.167
  191POPC   C1A 2718   2.708   0.707   4.643
  191POPC   D2A 2719   2.548   0.857   5.074
  191POPC   C3A 2720   2.753   0.808   5.404
  191POPC   C4A 2721   2.676   0.596   5.747
  191POPC   C1B 2722   2.554   0.247   4.515
  191POPC   C2B 2723   2.421   0.352   4.938
  191POPC   C3B 2724   2.471   0.316   5.373
  191POPC   C4B 2725   2.591   0.087   5.733
  192POPC   NC3 2726   8.810   6.562   3.867
  192POPC   PO4 2727   8.178   6.784   3.971
  192POPC   GL1 2728   8.515   6.643   4.279
  192POPC   GL2 2729   8.549   6.280   4.238
  192POPC   C1A 2730   8.474   6.618   4.733
  192POPC   D2A 2731   8.761   6.543   5.095
  192POPC   C3A 2732   8.747   6.732   5.538
  192POPC   C4A 2733   8.934   6.685   5.976
  192POPC   C1B 2734   8.752   6.168   4.641
  192POPC   C2B 2735   8.805   6.011   5.056
  192POPC   C3B 2736   8.775   6.195   5.472
  192POPC   C4B 2737   8.470   6.378   5.779
  193POPC   NC3 2738   9.754   8.043   3.855
  193POPC   PO4 2739   9.061   8.171   3.985
  193POPC   GL1 2740   9.211   8.174   4.366
  193POPC   GL2 2741   9.547   8.075   4.332
  193POPC   C1A 2742   9.464   8.347   4.756
  193POPC   D2A 2743   9.586   8.108   5.117
  193POPC   C3A 2744   9.430   8.239   5.530
  193POPC   C4A 2745   9.179   8.192   5.917
  193POPC   C1B 2746   9.373   7.855   4.712
  193POPC   C2B 2747   9.331   7.662   5.114
  193POPC   C3B 2748   9.557   7.708   5.523
  193POPC   C4B 2749   9.862   7.667   5.884
  194POPC   NC3 2750   1.207   2.926   3.956
  194POPC   PO4 2751   1.111   2.278   3.750
  194POPC   GL1 2752   1.190   2.359   4.213
  194POPC   GL2 2753   1.128   2.683   4.384
  194POPC   C1A 2754   1.195   2.292   4.688
  194POPC   D2A 2755   1.363   2.458   5.072
  194POPC   C3A 2756   1.191   2.442   5.537
  194POPC   C4A 2757   1.369   2.408   5.972
  194POPC   C1B 2758   0.940   2.813   4.756
  194POPC   C2B 2759   0.959   2.740   5.175
  194POPC   C3B 2760   1.074   2.938   5.576
  194POPC   C4B 2761   0.837   3.063   5.872
  195POPC   NC3 2762   6.539   1.008   3.464
  195POPC   PO4 2763   7.124   1.123   3.863
  195POPC   GL1 2764   7.055   1.089   4.249
  195POPC   GL2 2765   7.108   1.407   4.377
  195POPC   C1A 2766   6.950   0.865   4.626
  195POPC   D2A 2767   7.117   0.825   5.029
  195POPC   C3A 2768   6.877   0.684   5.347
  195POPC   C4A 2769   6.885   0.757   5.744
  195POPC   C1B 2770   7.423   1.096   4.595
  195POPC   C2B 2771   7.603   0.973   5.003
  195POPC   C3B 2772   7.396   1.182   5.326
  195POPC   C4B 2773   7.296   1.109   5.741
  196POPC   NC3 2774   1.920   1.331   3.939
  196POPC   PO4 2775   2.464   1.574   3.930
  196POPC   GL1 2776   2.217   1.455   4.335
  196POPC   GL2 2777   2.062   1.101   4.358
  196POPC   C1A 2778   2.067   1.369   4.775
  196POPC   D2A 2779   2.108   1.111   5.124
  196POPC   C3A 2780   2.085   1.397   5.449
  196POPC   C4A 2781   2.100   1.382   5.882
  196POPC   C1B 2782   1.770   0.959   4.670
  196POPC   C2B 2783   1.614   0.970   5.092
  196POPC   C3B 2784   1.766   0.995   5.535
  196POPC   C4B 2785   1.941   0.920   5.973
  197POPC   NC3 2786   3.371   9.230   4.072
  197POPC   PO4 2787   4.097   9.181   4.041
  197POPC   GL1 2788   3.775   9.164   4.374
  197POPC   GL2 2789   3.652   9.512   4.384
  197POPC   C1A 2790   3.721   9.221   4.838
  197POPC   D2A 2791   3.704   9.203   5.282
  197POPC   C3A 2792   3.889   9.576   5.426
  197POPC   C4A 2793   3.732   9.754   5.782
  197POPC   C1B 2794   3.363   9.551   4.707
  197POPC   C2B 2795   3.419   9.667   5.122
  197POPC   C3B 2796   3.374   9.513   5.503
  197POPC   C4B 2797   3.032   9.395   5.726
  198POPC   NC3 2798   8.318  10.315   3.504
  198POPC   PO4 2799   7.734  10.169   3.836
  198POPC   GL1 2800   7.870  10.168   4.272
  198POPC   GL2 2801   7.626  10.324   4.449
  198POPC   C1A 2802   8.182  10.270   4.600
  198POPC   D2A 2803   8.347  10.025   4.982
  198POPC   C3A 2804   8.161  10.161   5.401
  198POPC   C4A 2805   8.108  10.476   5.758
  198POPC   C1B 2806   7.813   9.961   4.712
  198POPC   C2B 2807   7.763   9.861   5.104
  198POPC   C3B 2808   7.605  10.082   5.435
  198POPC   C4B 2809   7.823  10.036   5.792
  199POPC   NC3 2810   4.919   1.874   3.751
  199POPC   PO4 2811   4.535   2.280   3.931
  199POPC   GL1 2812   4.734   1.933   4.238
  199POPC   GL2 2813   5.000   1.644   4.253
  199POPC   C1A 2814   4.662   1.707   4.653
  199POPC   D2A 2815   4.887   1.688   5.065
  199POPC   C3A 2816   4.668   1.679   5.466
  199POPC   C4A 2817   4.672   1.906   5.865
  199POPC   C1B 2818   5.186   1.820   4.632
  199POPC   C2B 2819   5.255   2.044   5.039
  199POPC   C3B 2820   4.962   2.109   5.414
  199POPC   C4B 2821   5.128   2.177   5.839
  200POPC   NC3 2822   2.578   2.059   4.134
  200POPC   PO4 2823   2.110   2.257   3.735
  200POPC   GL1 2824   1.935   2.274   4.155
  200POPC   GL2 2825   2.023   1.936   4.215
  200POPC   C1A 2826   1.720   2.306   4.575
  200POPC   D2A 2827   1.851   2.238   5.028
  200POPC   C3A 2828   1.678   2.333   5.453
  200POPC   C4A 2829   1.466   2.022   5.681
  200POPC   C1B 2830   1.964   1.858   4.665
  200POPC   C2B 2831   1.852   1.717   5.116
  200POPC   C3B 2832   1.950   1.874   5.561
  200POPC   C4B 2833   1.761   1.733   5.977
  201POPC   NC3 2834   3.013   3.538   4.067
  201POPC   PO4 2835   2.455   3.186   3.874
  201POPC   GL1 2836   2.341   3.317   4.284
  201POPC   GL2 2837   2.705   3.342   4.435
  201POPC   C1A 2838   2.294   3.485   4.699
  201POPC   D2A 2839   2.605   3.365   5.021
  201POPC   C3A 2840   2.532   3.324   5.438
  201POPC   C4A 2841   2.828   3.261   5.793
  201POPC   C1B 2842   2.725   3.752   4.721
  201POPC   C2B 2843   2.559   3.861   5.184
  201POPC   C3B 2844   2.626   3.773   5.683
  201POPC   C4B 2845   2.873   3.677   6.100
  202POPC   NC3 2846   5.218   9.359   3.875
  202POPC   PO4 2847   4.676   9.741   3.994
  202POPC   GL1 2848   4.874   9.689   4.384
  202POPC   GL2 2849   5.058   9.388   4.356
  202POPC   C1A 2850   4.976   9.586   4.823
  202POPC   D2A 2851   4.691   9.436   5.102
  202POPC   C3A 2852   4.759   9.434   5.529
  202POPC   C4A 2853   4.677   9.133   5.831
  202POPC   C1B 2854   5.276   9.188   4.703
  202POPC   C2B 2855   5.116   9.060   5.139
  202POPC   C3B 2856   5.164   9.111   5.614
  202POPC   C4B 2857   5.196   9.093   6.073
  203POPC   NC3 2858   9.225   2.614   4.084
  203POPC   PO4 2859   9.747   2.284   3.812
  203POPC   GL1 2860   9.621   2.303   4.327
  203POPC   GL2 2861   9.504   2.625   4.532
  203POPC   C1A 2862   9.354   2.222   4.743
  203POPC   D2A 2863   9.335   2.259   5.176
  203POPC   C3A 2864   9.738   2.379   5.362
  203POPC   C4A 2865   9.752   2.360   5.808
  203POPC   C1B 2866   9.656   2.595   4.906
  203POPC   C2B 2867   9.444   2.768   5.198
  203POPC   C3B 2868   9.533   2.772   5.604
  203POPC   C4B 2869   9.339   2.660   5.918
  204POPC   NC3 2870   2.229   5.128   4.052
  204POPC   PO4 2871   1.595   4.943   3.978
  204POPC   GL1 2872   1.728   5.182   4.313
  204POPC   GL2 2873   1.937   4.889   4.390
  204POPC   C1A 2874   1.719   5.443   4.728
  204POPC   D2A 2875   1.885   5.390   5.168
  204POPC   C3A 2876   1.632   5.422   5.552
  204POPC   C4A 2877   1.791   5.149   5.896
  204POPC   C1B 2878   2.077   5.057   4.779
  204POPC   C2B 2879   2.202   4.959   5.196
  204POPC   C3B 2880   2.056   4.842   5.554
  204POPC   C4B 2881   2.187   4.477   5.714
  205POPC   NC3 2882   2.201   5.772   3.656
  205POPC   PO4 2883   1.625   5.730   3.934
  205POPC   GL1 2884   1.990   5.594   4.150
  205POPC   GL2 2885   2.158   5.904   4.170
  205POPC   C1A 2886   2.189   5.561   4.577
  205POPC   D2A 2887   2.086   5.782   4.947
  205POPC   C3A 2888   2.252   5.747   5.391
  205POPC   C4A 2889   2.164   5.349   5.599
  205POPC   C1B 2890   1.809   5.921   4.522
  205POPC   C2B 2891   1.683   6.073   4.930
  205POPC   C3B 2892   1.769   5.956   5.350
  205POPC   C4B 2893   1.903   5.821   5.760
  206POPC   NC3 2894   5.828   0.698   4.028
  206POPC   PO4 2895   6.030   0.064   3.979
  206POPC   GL1 2896   5.802   0.015   4.346
  206POPC   GL2 2897   5.581   0.283   4.283
  206POPC   C1A 2898   5.801   0.103   4.764
  206POPC   D2A 2899   5.528   0.176   5.091
  206POPC   C3A 2900   5.662   0.179   5.472
  206POPC   C4A 2901   6.068   0.238   5.631
  206POPC   C1B 2902   5.512   0.513   4.674
  206POPC   C2B 2903   5.556   0.751   5.057
  206POPC   C3B 2904   5.392   0.772   5.467
  206POPC   C4B 2905   5.715   0.623   5.703
  207POPC   NC3 2906   6.690   1.318   3.913
  207POPC   PO4 2907   6.633   0.729   3.856
  207POPC   GL1 2908   6.557   1.052   4.297
  207POPC   GL2 2909   6.231   1.152   4.405
  207POPC   C1A 2910   6.596   1.217   4.745
  207POPC   D2A 2911   6.555   1.030   5.156
  207POPC   C3A 2912   6.889   1.182   5.423
  207POPC   C4A 2913   6.873   1.354   5.828
  207POPC   C1B 2914   6.107   1.407   4.746
  207POPC   C2B 2915   6.332   1.564   5.086
  207POPC   C3B 2916   6.454   1.428   5.477
  207POPC   C4B 2917   6.464   1.064   5.725
  208POPC   NC3 2918   7.040   3.022   3.562
  208POPC   PO4 2919   6.651   2.738   3.992
  208POPC   GL1 2920   7.005   2.722   4.308
  208POPC   GL2 2921   7.083   2.354   4.274
  208POPC   C1A 2922   7.239   2.971   4.672
  208POPC   D2A 2923   7.102   3.088   5.099
  208POPC   C3A 2924   7.256   3.008   5.520
  208POPC   C4A 2925   7.247   3.060   6.002
  208POPC   C1B 2926   7.323   2.479   4.633
  208POPC   C2B 2927   7.236   2.585   5.030
  208POPC   C3B 2928   7.415   2.520   5.412
  208POPC   C4B 2929   7.294   2.593   5.797
  209POPC   NC3 2930   9.890   3.728   3.621
  209POPC   PO4 2931  10.412   4.059   3.836
  209POPC   GL1 2932  10.221   4.144   4.238
  209POPC   GL2 2933  10.291   4.425   4.368
  209POPC   C1A 2934   9.964   4.106   4.624
  209POPC   D2A 2935   9.740   4.281   4.987
  209POPC   C3A 2936   9.942   4.082   5.314
  209POPC   C4A 2937   9.984   4.136   5.694
  209POPC   C1B 2938  10.479   4.122   4.674
  209POPC   C2B 2939  10.405   3.947   5.083
  209POPC   C3B 2940  10.421   4.256   5.405
  209POPC   C4B 2941  10.378   4.422   5.784
  210POPC   NC3 2942   7.888   3.235   4.047
  210POPC   PO4 2943   8.257   3.681   3.998
  210POPC   GL1 2944   8.104   3.534   4.411
  210POPC   GL2 2945   8.106   3.155   4.511
  210POPC   C1A 2946   8.163   3.520   4.866
  210POPC   D2A 2947   8.089   3.177   5.167
  210POPC   C3A 2948   8.000   3.350   5.585
  210POPC   C4A 2949   7.881   3.721   5.859
  210POPC   C1B 2950   7.723   3.284   4.776
  210POPC   C2B 2951   7.575   3.343   5.234
  210POPC   C3B 2952   7.497   3.421   5.700
  210POPC   C4B 2953   7.619   3.390   6.157
  211POPC   NC3 2954   0.303   8.928   4.012
  211POPC   PO4 2955   0.452   8.345   4.023
  211POPC   GL1 2956   0.521   8.519   4.376
  211POPC   GL2 2957   0.210   8.672   4.433
  211POPC   C1A 2958   0.443   8.385   4.779
  211POPC   D2A 2959   0.444   8.081   5.083
  211POPC   C3A 2960   0.422   8.301   5.435
  211POPC   C4A 2961   0.545   8.584   5.734
  211POPC   C1B 2962   0.490   8.965   4.650
  211POPC   C2B 2963   0.484   9.094   5.051
  211POPC   C3B 2964   0.329   8.881   5.386
  211POPC   C4B 2965   0.177   8.959   5.783
  212POPC   NC3 2966   2.335   6.785   3.881
  212POPC   PO4 2967   1.694   6.720   3.955
  212POPC   GL1 2968   1.789   6.796   4.373
  212POPC   GL2 2969   2.097   6.595   4.359
  212POPC   C1A 2970   1.769   6.651   4.787
  212POPC   D2A 2971   1.803   6.489   5.187
  212POPC   C3A 2972   1.752   6.648   5.589
  212POPC   C4A 2973   1.858   6.470   6.017
  212POPC   C1B 2974   2.130   6.273   4.710
  212POPC   C2B 2975   2.215   6.212   5.156
  212POPC   C3B 2976   2.107   6.262   5.587
  212POPC   C4B 2977   2.364   6.413   5.904
  213POPC   NC3 2978  10.163   4.470   3.852
  213POPC   PO4 2979  10.029   5.144   3.716
  213POPC   GL1 2980  10.007   4.870   4.137
  213POPC   GL2 2981  10.292   4.981   4.272
  213POPC   C1A 2982   9.993   4.712   4.626
  213POPC   D2A 2983  10.206   4.470   4.985
  213POPC   C3A 2984  10.016   4.576   5.392
  213POPC   C4A 2985   9.877   4.614   5.828
  213POPC   C1B 2986  10.279   5.131   4.685
  213POPC   C2B 2987  10.180   4.978   5.070
  213POPC   C3B 2988  10.074   5.064   5.484
  213POPC   C4B 2989  10.248   4.926   5.835
  214POPC   NC3 2990   3.381   2.565   3.818
  214POPC   PO4 2991   3.214   3.143   4.133
  214POPC   GL1 2992   3.523   2.805   4.266
  214POPC   GL2 2993   3.346   2.506   4.317
  214POPC   C1A 2994   3.782   2.716   4.667
  214POPC   D2A 2995   3.827   2.895   5.097
  214POPC   C3A 2996   3.698   2.795   5.533
  214POPC   C4A 2997   3.606   2.647   5.959
  214POPC   C1B 2998   3.293   2.765   4.719
  214POPC   C2B 2999   3.262   2.790   5.166
  214POPC   C3B 3000   3.221   2.597   5.584
  214POPC   C4B 3001   3.121   2.838   5.955
  215POPC   NC3 3002   1.539   8.804   3.786
  215POPC   PO4 3003   2.148   9.194   3.858
  215POPC   GL1 3004   2.041   8.917   4.198
  215POPC   GL2 3005   1.771   8.670   4.243
  215POPC   C1A 3006   2.074   8.828   4.641
  215POPC   D2A 3007   1.909   8.693   5.047
  215POPC   C3A 3008   2.109   8.756   5.419
  215POPC   C4A 3009   2.300   8.829   5.783
  215POPC   C1B 3010   1.699   8.438   4.648
  215POPC   C2B 3011   1.685   8.152   5.002
  215POPC   C3B 3012   1.892   8.222   5.371
  215POPC   C4B 3013   2.050   8.369   5.758
  216POPC   NC3 3014   0.465   9.438   3.691
  216POPC   PO4 3015  10.395   9.023   3.786
  216POPC   GL1 3016  10.454   9.161   4.276
  216POPC   GL2 3017   0.315   9.341   4.340
  216POPC   C1A 3018   0.022   9.221   4.750
  216POPC   D2A 3019   0.179   9.531   5.058
  216POPC   C3A 3020   0.276   9.381   5.467
  216POPC   C4A 3021   0.022   9.576   5.761
  216POPC   C1B 3022   0.576   9.497   4.746
  216POPC   C2B 3023   0.701   9.540   5.230
  216POPC   C3B 3024   0.670   9.758   5.698
  216POPC   C4B 3025   0.749   9.672   6.184
  217POPC   NC3 3026   4.183   7.910   3.893
  217POPC   PO4 3027   3.678   8.290   3.876
  217POPC   GL1 3028   3.773   8.000   4.254
  217POPC   GL2 3029   4.141   7.928   4.398
  217POPC   C1A 3030   3.759   7.817   4.699
  217POPC   D2A 3031   3.790   8.036   5.109
  217POPC   C3A 3032   3.885   7.811   5.510
  217POPC   C4A 3033   4.166   7.738   5.861
  217POPC   C1B 3034   4.294   8.087   4.834
  217POPC   C2B 3035   4.310   7.972   5.275
  217POPC   C3B 3036   4.635   7.857   5.603
  217POPC   C4B 3037   4.814   7.678   5.996
  218POPC   NC3 3038   0.574   7.011   4.075
  218POPC   PO4 3039   0.036   7.090   3.669
  218POPC   GL1 3040   0.115   7.129   4.216
  218POPC   GL2 3041   0.399   7.412   4.339
  218POPC   C1A 3042   0.164   7.146   4.702
  218POPC   D2A 3043   0.405   7.279   5.087
  218POPC   C3A 3044   0.290   7.353   5.521
  218POPC   C4A 3045   0.267   7.436   5.980
  218POPC   C1B 3046   0.694   7.187   4.669
  218POPC   C2B 3047   0.872   7.028   5.051
  218POPC   C3B 3048   0.812   7.260   5.423
  218POPC   C4B 3049   0.644   7.135   5.809
  219POPC   NC3 3050   0.827   0.614   4.140
  219POPC   PO4 3051   0.260   0.232   3.831
  219POPC   GL1 3052   0.420   0.354   4.214
  219POPC   GL2 3053   0.199   0.598   4.263
  219POPC   C1A 3054   0.506   0.502   4.685
  219POPC   D2A 3055   0.725   0.396   5.059
  219POPC   C3A 3056   0.757   0.664   5.393
  219POPC   C4A 3057   0.698   0.449   5.769
  219POPC   C1B 3058   0.094   0.244   4.569
  219POPC   C2B 3059   0.094   0.293   4.998
  219POPC   C3B 3060   0.312   0.381   5.361
  219POPC   C4B 3061   0.185   0.332   5.737
  220POPC   NC3 3062   6.281   2.908   4.199
  220POPC   PO4 3063   6.034   2.327   4.033
  220POPC   GL1 3064   6.222   2.403   4.422
  220POPC   GL2 3065   6.555   2.503   4.425
  220POPC   C1A 3066   6.327   2.433   4.856
  220POPC   D2A 3067   6.454   2.720   5.155
  220POPC   C3A 3068   6.314   2.568   5.546
  220POPC   C4A 3069   6.290   2.738   6.002
  220POPC   C1B 3070   6.830   2.418   4.720
  220POPC   C2B 3071   6.801   2.350   5.129
  220POPC   C3B 3072   6.895   2.638   5.426
  220POPC   C4B 3073   6.751   2.565   5.804
  221POPC   NC3 3074   1.762   8.171   4.062
  221POPC   PO4 3075   1.571   7.567   3.970
  221POPC   GL1 3076   1.997   7.733   4.220
  221POPC   GL2 3077   1.989   8.037   4.479
  221POPC   C1A 3078   2.259   7.645   4.647
  221POPC   D2A 3079   2.220   7.903   5.022
  221POPC   C3A 3080   2.118   7.715   5.417
  221POPC   C4A 3081   2.197   7.444   5.760
  221POPC   C1B 3082   1.742   7.734   4.683
  221POPC   C2B 3083   1.726   7.591   5.077
  221POPC   C3B 3084   1.604   7.727   5.451
  221POPC   C4B 3085   1.811   7.917   5.782
  222POPC   NC3 3086   1.122   7.768   3.915
  222POPC   PO4 3087   1.390   8.427   3.994
  222POPC   GL1 3088   1.306   8.232   4.348
  222POPC   GL2 3089   1.432   7.908   4.311
  222POPC   C1A 3090   1.223   8.264   4.770
  222POPC   D2A 3091   1.014   8.233   5.160
  222POPC   C3A 3092   1.357   8.235   5.460
  222POPC   C4A 3093   1.539   8.330   5.872
  222POPC   C1B 3094   1.232   7.764   4.604
  222POPC   C2B 3095   1.265   7.804   5.022
  222POPC   C3B 3096   1.091   7.801   5.410
  222POPC   C4B 3097   1.275   7.882   5.806
  223POPC   NC3 3098   0.241   7.931   3.968
  223POPC   PO4 3099   0.803   8.014   3.685
  223POPC   GL1 3100   0.759   7.992   4.225
  223POPC   GL2 3101   0.404   7.997   4.430
  223POPC   C1A 3102   0.797   7.977   4.721
  223POPC   D2A 3103   0.768   7.633   5.032
  223POPC   C3A 3104   0.594   7.758   5.443
  223POPC   C4A 3105   0.772   8.080   5.722
  223POPC   C1B 3106   0.260   7.703   4.768
  223POPC   C2B 3107   0.077   7.702   5.194
  223POPC   C3B 3108   0.132   7.820   5.642
  223POPC   C4B 3109   0.145   8.208   5.857
  224POPC   NC3 3110  10.202   3.688   4.031
  224POPC   PO4 3111   9.820   3.269   3.667
  224POPC   GL1 3112   9.851   3.235   4.161
  224POPC   GL2 3113  10.159   3.258   4.273
  224POPC   C1A 3114   9.889   3.415   4.651
  224POPC   D2A 3115  10.198   3.438   5.035
  224POPC   C3A 3116  10.132   3.602   5.462
  224POPC   C4A 3117  10.003   3.684   5.893
  224POPC   C1B 3118  10.391   3.153   4.639
  224POPC   C2B 3119  10.472   3.001   5.053
  224POPC   C3B 3120  10.328   3.088   5.468
  224POPC   C4B 3121  10.344   3.266   5.869
  225POPC   NC3 3122   1.799   0.605   4.062
  225POPC   PO4 3123   2.304   0.924   3.945
  225POPC   GL1 3124   2.253   0.623   4.314
  225POPC   GL2 3125   1.897   0.480   4.512
  225POPC   C1A 3126   2.221   0.772   4.720
  225POPC   D2A 3127   1.943   0.570   4.998
  225POPC   C3A 3128   2.083   0.630   5.373
  225POPC   C4A 3129   2.178   0.520   5.777
  225POPC   C1B 3130   1.588   0.186   4.674
  225POPC   C2B 3131   1.704   0.076   5.096
  225POPC   C3B 3132   1.618   0.425   5.368
  225POPC   C4B 3133   1.621   0.561   5.779
  226POPC   NC3 3134   7.240   1.580   3.882
  226POPC   PO4 3135   7.866   1.792   3.843
  226POPC   GL1 3136   7.604   1.616   4.234
  226POPC   GL2 3137   7.334   1.881   4.315
  226POPC   C1A 3138   7.494   1.599   4.718
  226POPC   D2A 3139   7.530   1.662   5.190
  226POPC   C3A 3140   7.161   1.652   5.472
  226POPC   C4A 3141   7.131   1.782   5.890
  226POPC   C1B 3142   7.138   1.998   4.738
  226POPC   C2B 3143   7.247   2.092   5.187
  226POPC   C3B 3144   7.057   2.187   5.612
  226POPC   C4B 3145   6.842   2.145   6.071
  227POPC   NC3 3146   7.906   8.006   3.970
  227POPC   PO4 3147   8.397   7.561   4.011
  227POPC   GL1 3148   8.155   7.618   4.359
  227POPC   GL2 3149   7.889   7.861   4.440
  227POPC   C1A 3150   8.069   7.553   4.788
  227POPC   D2A 3151   8.168   7.796   5.156
  227POPC   C3A 3152   8.121   7.577   5.552
  227POPC   C4A 3153   7.912   7.563   5.932
  227POPC   C1B 3154   7.628   7.801   4.805
  227POPC   C2B 3155   7.692   7.982   5.194
  227POPC   C3B 3156   7.637   7.892   5.625
  227POPC   C4B 3157   7.760   8.062   6.028
  228POPC   NC3 3158   4.369   2.696   3.900
  228POPC   PO4 3159   3.823   2.284   3.879
  228POPC   GL1 3160   3.894   2.386   4.290
  228POPC   GL2 3161   4.230   2.502   4.356
  228POPC   C1A 3162   3.959   2.248   4.718
  228POPC   D2A 3163   4.118   2.399   5.124
  228POPC   C3A 3164   4.175   2.610   5.497
  228POPC   C4A 3165   4.071   2.472   5.872
  228POPC   C1B 3166   4.294   2.699   4.769
  228POPC   C2B 3167   4.336   2.946   5.151
  228POPC   C3B 3168   4.310   3.095   5.590
  228POPC   C4B 3169   4.512   2.901   5.980
  229POPC   NC3 3170   9.693   5.343   3.983
  229POPC   PO4 3171   9.175   5.078   3.655
  229POPC   GL1 3172   9.257   4.933   4.170
  229POPC   GL2 3173   9.548   5.015   4.316
  229POPC   C1A 3174   9.186   5.058   4.658
  229POPC   D2A 3175   9.346   5.291   5.065
  229POPC   C3A 3176   9.192   5.149   5.523
  229POPC   C4A 3177   9.078   5.167   5.989
  229POPC   C1B 3178   9.704   5.130   4.713
  229POPC   C2B 3179   9.684   4.888   5.102
  229POPC   C3B 3180   9.524   4.756   5.498
  229POPC   C4B 3181   9.401   4.749   5.956
  230POPC   NC3 3182   7.951   7.206   3.934
  230POPC   PO4 3183   7.500   7.715   4.000
  230POPC   GL1 3184   7.633   7.432   4.376
  230POPC   GL2 3185   7.928   7.188   4.427
  230POPC   C1A 3186   7.626   7.282   4.823
  230POPC   D2A 3187   7.756   7.463   5.223
  230POPC   C3A 3188   7.525   7.389   5.629
  230POPC   C4A 3189   7.558   7.179   6.051
  230POPC   C1B 3190   8.102   7.008   4.797
  230POPC   C2B 3191   8.011   6.900   5.268
  230POPC   C3B 3192   7.963   7.063   5.730
  230POPC   C4B 3193   8.073   7.152   6.191
  231POPC   NC3 3194  10.418   6.346   3.949
  231POPC   PO4 3195   9.924   6.027   4.026
  231POPC   GL1 3196  10.123   6.259   4.350
  231POPC   GL2 3197  10.165   6.634   4.301
  231POPC   C1A 3198  10.271   6.277   4.765
  231POPC   D2A 3199  10.050   6.333   5.127
  231POPC   C3A 3200  10.200   6.077   5.457
  231POPC   C4A 3201  10.186   6.154   5.846
  231POPC   C1B 3202  10.310   6.778   4.739
  231POPC   C2B 3203  10.425   6.672   5.184
  231POPC   C3B 3204  10.130   6.584   5.572
  231POPC   C4B 3205   9.915   6.516   6.018
  232POPC   NC3 3206   5.622  10.326   3.903
  232POPC   PO4 3207   5.925   9.739   3.916
  232POPC   GL1 3208   5.887  10.003   4.262
  232POPC   GL2 3209   5.538  10.055   4.312
  232POPC   C1A 3210   5.820  10.091   4.719
  232POPC   D2A 3211   5.850  10.233   5.136
  232POPC   C3A 3212   6.048   9.974   5.457
  232POPC   C4A 3213   5.790  10.248   5.694
  232POPC   C1B 3214   5.230   9.985   4.613
  232POPC   C2B 3215   5.368  10.019   5.011
  232POPC   C3B 3216   5.533   9.912   5.393
  232POPC   C4B 3217   5.275   9.891   5.764
  233POPC   NC3 3218   0.610  10.389   3.860
  233POPC   PO4 3219   0.306   9.747   3.995
  233POPC   GL1 3220   0.467  10.042   4.275
  233POPC   GL2 3221   0.287  10.362   4.267
  233POPC   C1A 3222   0.500  10.015   4.722
  233POPC   D2A 3223   0.584  10.011   5.168
  233POPC   C3A 3224   0.268   9.883   5.434
  233POPC   C4A 3225   0.214  10.074   5.804
  233POPC   C1B 3226   0.593  10.497   4.560
  233POPC   C2B 3227   0.451  10.463   4.979
  233POPC   C3B 3228   0.283  10.389   5.376
  233POPC   C4B 3229   0.531  10.469   5.707
  234POPC   NC3 3230  10.481  10.097   3.970
  234POPC   PO4 3231  10.044   0.119   4.015
  234POPC   GL1 3232  10.249  10.399   4.328
  234POPC   GL2 3233  10.111  10.075   4.422
  234POPC   C1A 3234  10.274  10.408   4.770
  234POPC   D2A 3235  10.060   0.064   5.094
  234POPC   C3A 3236  10.317   0.166   5.420
  234POPC   C4A 3237  10.387  10.458   5.796
  234POPC   C1B 3238  10.476   9.922   4.615
  234POPC   C2B 3239   0.071  10.064   5.012
  234POPC   C3B 3240  10.339  10.152   5.383
  234POPC   C4B 3241  10.190  10.004   5.785
  235POPC   NC3 3242   3.371   0.593   3.979
  235POPC   PO4 3243   3.342  10.435   4.031
  235POPC   GL1 3244   3.562   0.194   4.330
  235POPC   GL2 3245   3.430   0.511   4.466
  235POPC   C1A 3246   3.635   0.089   4.762
  235POPC   D2A 3247   3.296   0.051   5.103
  235POPC   C3A 3248   3.410   0.173   5.541
  235POPC   C4A 3249   3.532   0.320   5.964
  235POPC   C1B 3250   3.088   0.307   4.657
  235POPC   C2B 3251   2.920   0.459   5.034
  235POPC   C3B 3252   2.977   0.365   5.429
  235POPC   C4B 3253   3.181   0.607   5.742
  236POPC   NC3 3254   9.652   6.350   3.844
  236POPC   PO4 3255   9.171   6.677   4.128
  236POPC   GL1 3256   9.619   6.541   4.301
  236POPC   GL2 3257   9.611   6.171   4.432
  236POPC   C1A 3258   9.838   6.539   4.682
  236POPC   D2A 3259   9.535   6.639   4.964
  236POPC   C3A 3260   9.644   6.543   5.342
  236POPC   C4A 3261   9.638   6.747   5.685
  236POPC   C1B 3262   9.612   6.149   4.928
  236POPC   C2B 3263   9.220   6.296   5.188
  236POPC   C3B 3264   9.223   6.410   5.617
  236POPC   C4B 3265   9.621   6.214   5.728
  237POPC   NC3 3266   1.190   4.642   3.946
  237POPC   PO4 3267   0.861   5.231   3.924
  237POPC   GL1 3268   1.147   5.002   4.312
  237POPC   GL2 3269   1.432   4.727   4.390
  237POPC   C1A 3270   1.093   4.823   4.769
  237POPC   D2A 3271   0.966   5.058   5.130
  237POPC   C3A 3272   1.059   4.931   5.560
  237POPC   C4A 3273   1.297   5.133   5.918
  237POPC   C1B 3274   1.562   4.970   4.735
  237POPC   C2B 3275   1.469   5.110   5.141
  237POPC   C3B 3276   1.554   4.892   5.520
  237POPC   C4B 3277   1.360   4.539   5.738
  238POPC   NC3 3278   8.670   8.390   4.067
  238POPC   PO4 3279   8.444   8.958   4.009
  238POPC   GL1 3280   8.568   8.807   4.370
  238POPC   GL2 3281   8.928   8.730   4.337
  238POPC   C1A 3282   8.677   8.812   4.776
  238POPC   D2A 3283   8.650   8.606   5.141
  238POPC   C3A 3284   8.745   8.867   5.465
  238POPC   C4A 3285   8.474   8.942   5.768
  238POPC   C1B 3286   8.908   8.374   4.698
  238POPC   C2B 3287   9.066   8.190   5.090
  238POPC   C3B 3288   8.916   8.355   5.500
  238POPC   C4B 3289   8.519   8.442   5.734
  239POPC   NC3 3290   7.254   8.141   3.934
  239POPC   PO4 3291   6.953   8.751   3.790
  239POPC   GL1 3292   7.021   8.733   4.239
  239POPC   GL2 3293   7.217   8.485   4.335
  239POPC   C1A 3294   7.010   8.867   4.674
  239POPC   D2A 3295   7.199   8.903   5.098
  239POPC   C3A 3296   6.955   8.638   5.364
  239POPC   C4A 3297   6.799   8.564   5.767
  239POPC   C1B 3298   7.505   8.707   4.651
  239POPC   C2B 3299   7.730   8.748   5.056
  239POPC   C3B 3300   7.550   8.859   5.480
  239POPC   C4B 3301   7.290   8.632   5.764
  240POPC   NC3 3302   4.261   0.962   3.838
  240POPC   PO4 3303   3.874   1.534   3.848
  240POPC   GL1 3304   3.978   1.196   4.181
  240POPC   GL2 3305   4.281   1.096   4.316
  240POPC   C1A 3306   3.925   1.210   4.653
  240POPC   D2A 3307   4.162   1.279   5.060
  240POPC   C3A 3308   4.065   1.097   5.460
  240POPC   C4A 3309   3.954   1.262   5.843
  240POPC   C1B 3310   4.317   0.918   4.697
  240POPC   C2B 3311   4.186   0.745   5.059
  240POPC   C3B 3312   4.265   0.624   5.419
  240POPC   C4B 3313   4.324   0.782   5.802
  241POPC   NC3 3314   9.978   9.280   3.909
  241POPC   PO4 3315  10.049   9.949   3.939
  241POPC   GL1 3316   9.801   9.708   4.204
  241POPC   GL2 3317  10.142   9.571   4.311
  241POPC   C1A 3318   9.813   9.707   4.666
  241POPC   D2A 3319  10.174   9.596   4.947
  241POPC   C3A 3320  10.173   9.661   5.398
  241POPC   C4A 3321   9.893   9.608   5.787
  241POPC   C1B 3322   9.999   9.239   4.584
  241POPC   C2B 3323  10.074   9.065   4.985
  241POPC   C3B 3324  10.338   9.171   5.300
  241POPC   C4B 3325  10.201   9.195   5.706
  242POPC   NC3 3326   6.332   7.782   3.999
  242POPC   PO4 3327   6.301   8.402   4.064
  242POPC   GL1 3328   6.681   8.338   4.263
  242POPC   GL2 3329   6.544   8.056   4.393
  242POPC   C1A 3330   6.833   8.380   4.690
  242POPC   D2A 3331   6.933   8.154   5.074
  242POPC   C3A 3332   6.692   8.176   5.430
  242POPC   C4A 3333   6.734   8.071   5.838
  242POPC   C1B 3334   6.505   8.001   4.839
  242POPC   C2B 3335   6.554   7.746   5.195
  242POPC   C3B 3336   6.414   7.745   5.616
  242POPC   C4B 3337   6.554   7.602   6.024
  243POPC   NC3 3338   8.573   0.744   3.963
  243POPC   PO4 3339   8.580   1.440   4.008
  243POPC   GL1 3340   8.762   1.133   4.289
  243POPC   GL2 3341   8.890   1.421   4.418
  243POPC   C1A 3342   8.926   1.033   4.727
  243POPC   D2A 3343   8.718   1.012   5.128
  243POPC   C3A 3344   8.808   0.713   5.459
  243POPC   C4A 3345   8.690   0.870   5.854
  243POPC   C1B 3346   8.703   1.576   4.791
  243POPC   C2B 3347   8.777   1.519   5.243
  243POPC   C3B 3348   8.610   1.332   5.610
  243POPC   C4B 3349   8.680   1.333   6.059
  244POPC   NC3 3350   2.579   9.448   3.822
  244POPC   PO4 3351   2.949   8.950   4.060
  244POPC   GL1 3352   2.573   9.178   4.262
  244POPC   GL2 3353   2.712   9.480   4.315
  244POPC   C1A 3354   2.311   9.302   4.619
  244POPC   D2A 3355   2.361   9.063   5.015
  244POPC   C3A 3356   2.281   9.239   5.407
  244POPC   C4A 3357   2.464   9.297   5.824
  244POPC   C1B 3358   2.830   9.359   4.720
  244POPC   C2B 3359   2.854   9.570   5.104
  244POPC   C3B 3360   2.610   9.627   5.466
  244POPC   C4B 3361   2.711   9.744   5.905
  245POPC   NC3 3362   5.784   8.618   4.027
  245POPC   PO4 3363   5.314   8.242   4.087
  245POPC   GL1 3364   5.310   8.655   4.303
  245POPC   GL2 3365   5.595   8.849   4.438
  245POPC   C1A 3366   5.252   8.694   4.752
  245POPC   D2A 3367   5.448   8.497   5.089
  245POPC   C3A 3368   5.304   8.656   5.442
  245POPC   C4A 3369   5.448   8.690   5.842
  245POPC   C1B 3370   5.800   8.657   4.737
  245POPC   C2B 3371   5.962   8.586   5.142
  245POPC   C3B 3372   5.814   8.478   5.526
  245POPC   C4B 3373   5.977   8.695   5.868
  246POPC   NC3 3374   9.447   3.072   3.859
  246POPC   PO4 3375   9.725   3.718   4.054
  246POPC   GL1 3376   9.444   3.487   4.347
  246POPC   GL2 3377   9.374   3.103   4.355
  246POPC   C1A 3378   9.411   3.600   4.765
  246POPC   D2A 3379   9.726   3.728   5.046
  246POPC   C3A 3380   9.615   3.695   5.501
  246POPC   C4A 3381   9.536   3.519   5.929
  246POPC   C1B 3382   9.504   3.086   4.787
  246POPC   C2B 3383   9.586   3.262   5.203
  246POPC   C3B 3384   9.315   3.215   5.581
  246POPC   C4B 3385   9.088   3.235   5.989
  247POPC   NC3 3386   0.316   1.437   3.892
  247POPC   PO4 3387   0.833   1.777   4.001
  247POPC   GL1 3388   0.600   1.548   4.314
  247POPC   GL2 3389   0.222   1.671   4.342
  247POPC   C1A 3390   0.547   1.661   4.727
  247POPC   D2A 3391   0.492   1.920   5.071
  247POPC   C3A 3392   0.576   1.712   5.426
  247POPC   C4A 3393   0.760   1.661   5.817
  247POPC   C1B 3394   0.258   2.059   4.617
  247POPC   C2B 3395   0.048   2.171   5.005
  247POPC   C3B 3396   0.214   2.180   5.427
  247POPC   C4B 3397   0.320   1.948   5.800
  248POPC   NC3 3398   9.594   0.243   3.962
  248POPC   PO4 3399   9.059   0.688   3.934
  248POPC   GL1 3400   9.355   0.644   4.261
  248POPC   GL2 3401   9.397   0.348   4.437
  248POPC   C1A 3402   9.388   0.765   4.713
  248POPC   D2A 3403   9.229   0.861   5.109
  248POPC   C3A 3404   9.478   0.761   5.461
  248POPC   C4A 3405   9.895   0.858   5.711
  248POPC   C1B 3406   9.398   0.024   4.780
  248POPC   C2B 3407   9.554  10.475   5.189
  248POPC   C3B 3408   9.475   0.217   5.564
  248POPC   C4B 3409   9.236   0.174   5.913
  249POPC   NC3 3410   8.568   3.342   3.887
  249POPC   PO4 3411   8.849   3.981   3.789
  249POPC   GL1 3412   8.760   3.697   4.186
  249POPC   GL2 3413   8.953   3.400   4.249
  249POPC   C1A 3414   8.572   3.427   4.567
  249POPC   D2A 3415   8.604   3.266   5.015
  249POPC   C3A 3416   8.409   3.550   5.308
  249POPC   C4A 3417   8.354   3.732   5.682
  249POPC   C1B 3418   9.029   3.257   4.694
  249POPC   C2B 3419   9.111   3.388   5.124
  249POPC   C3B 3420   8.863   3.435   5.503
  249POPC   C4B 3421   8.499   3.213   5.695
  250POPC   NC3 3422  10.219   5.710   3.769
  250POPC   PO4 3423   0.352   5.657   3.957
  250POPC   GL1 3424   0.095   5.550   4.312
  250POPC   GL2 3425  10.297   5.735   4.265
  250POPC   C1A 3426   0.033   5.554   4.761
  250POPC   D2A 3427   0.028   5.350   5.177
  250POPC   C3A 3428  10.251   5.542   5.464
  250POPC   C4A 3429  10.437   5.730   5.783
  250POPC   C1B 3430  10.108   5.814   4.622
  250POPC   C2B 3431  10.113   5.834   5.033
  250POPC   C3B 3432   9.759   5.862   5.340
  250POPC   C4B 3433   9.851   5.764   5.766
  251POPC   NC3 3434   9.147   9.813   3.752
  251POPC   PO4 3435   9.511   9.235   3.857
  251POPC   GL1 3436   9.256   9.427   4.181
  251POPC   GL2 3437   9.338   9.131   4.349
  251POPC   C1A 3438   9.262   9.646   4.605
  251POPC   D2A 3439   9.406   9.898   4.984
  251POPC   C3A 3440   9.483   9.735   5.391
  251POPC   C4A 3441   9.417   9.836   5.814
  251POPC   C1B 3442   9.487   9.227   4.742
  251POPC   C2B 3443   9.684   9.409   5.037
  251POPC   C3B 3444   9.802   9.322   5.383
  251POPC   C4B 3445   9.512   9.302   5.695
  252POPC   NC3 3446   3.094   5.523   4.030
  252POPC   PO4 3447   2.449   5.512   3.931
  252POPC   GL1 3448   2.626   5.573   4.297
  252POPC   GL2 3449   2.600   5.910   4.421
  252POPC   C1A 3450   2.670   5.450   4.721
  252POPC   D2A 3451   2.417   5.395   5.077
  252POPC   C3A 3452   2.649   5.318   5.488
  252POPC   C4A 3453   2.598   5.363   5.946
  252POPC   C1B 3454   2.557   5.929   4.875
  252POPC   C2B 3455   2.755   5.757   5.242
  252POPC   C3B 3456   2.827   5.767   5.690
  252POPC   C4B 3457   2.832   6.146   5.961
  253POPC   NC3 3458   2.046   3.429   3.838
  253POPC   PO4 3459   1.373   3.362   4.092
  253POPC   GL1 3460   1.753   3.231   4.231
  253POPC   GL2 3461   1.869   3.543   4.326
  253POPC   C1A 3462   1.896   3.157   4.660
  253POPC   D2A 3463   1.695   3.258   5.061
  253POPC   C3A 3464   1.887   3.206   5.462
  253POPC   C4A 3465   2.132   3.497   5.692
  253POPC   C1B 3466   1.820   3.668   4.755
  253POPC   C2B 3467   2.074   3.603   5.141
  253POPC   C3B 3468   1.752   3.713   5.398
  253POPC   C4B 3469   1.665   3.689   5.799
  254POPC   NC3 3470   0.276   4.314   3.794
  254POPC   PO4 3471   0.926   4.241   3.797
  254POPC   GL1 3472   0.608   4.243   4.186
  254POPC   GL2 3473   0.245   4.135   4.252
  254POPC   C1A 3474   0.477   4.380   4.633
  254POPC   D2A 3475   0.262   4.338   5.031
  254POPC   C3A 3476   0.406   4.439   5.427
  254POPC   C4A 3477   0.386   4.252   5.804
  254POPC   C1B 3478   0.509   3.874   4.534
  254POPC   C2B 3479   0.541   3.882   4.979
  254POPC   C3B 3480   0.331   3.934   5.387
  254POPC   C4B 3481  10.499   3.895   5.749
  255POPC   NC3 3482   5.041   1.275   3.896
  255POPC   PO4 3483   4.650   0.778   3.637
  255POPC   GL1 3484   4.715   0.984   4.086
  255POPC   GL2 3485   4.997   0.884   4.236
  255POPC   C1A 3486   4.741   1.194   4.519
  255POPC   D2A 3487   4.663   1.249   4.949
  255POPC   C3A 3488   4.569   1.005   5.309
  255POPC   C4A 3489   4.502   1.233   5.700
  255POPC   C1B 3490   5.097   0.819   4.658
  255POPC   C2B 3491   5.106   1.017   5.075
  255POPC   C3B 3492   4.978   1.263   5.429
  255POPC   C4B 3493   4.975   1.012   5.786
  256POPC   NC3 3494   8.028   8.791   3.860
  256POPC   PO4 3495   7.638   8.356   4.064
  256POPC   GL1 3496   7.846   8.371   4.384
  256POPC   GL2 3497   7.930   8.702   4.355
  256POPC   C1A 3498   7.848   8.275   4.800
  256POPC   D2A 3499   8.087   8.342   5.170
  256POPC   C3A 3500   7.776   8.379   5.494
  256POPC   C4A 3501   7.758   8.538   5.876
  256POPC   C1B 3502   8.203   8.630   4.722
  256POPC   C2B 3503   8.221   8.878   5.124
  256POPC   C3B 3504   8.051   8.810   5.558
  256POPC   C4B 3505   8.074   8.874   6.065
  257POPC   NC3 3506   2.781   4.408   3.631
  257POPC   PO4 3507   2.335   4.679   4.029
  257POPC   GL1 3508   2.244   4.461   4.423
  257POPC   GL2 3509   2.507   4.216   4.355
  257POPC   C1A 3510   2.236   4.510   4.893
  257POPC   D2A 3511   2.557   4.531   5.208
  257POPC   C3A 3512   2.625   4.279   5.561
  257POPC   C4A 3513   2.587   4.436   5.989
  257POPC   C1B 3514   2.655   4.250   4.783
  257POPC   C2B 3515   2.968   4.178   5.094
  257POPC   C3B 3516   3.138   4.255   5.509
  257POPC   C4B 3517   2.990   4.139   5.917
  258POPC   NC3 3518   5.736   1.343   3.849
  258POPC   PO4 3519   5.390   0.852   3.948
  258POPC   GL1 3520   5.403   1.209   4.243
  258POPC   GL2 3521   5.735   1.265   4.346
  258POPC   C1A 3522   5.314   1.286   4.681
  258POPC   D2A 3523   5.614   1.263   5.055
  258POPC   C3A 3524   5.472   1.276   5.501
  258POPC   C4A 3525   5.336   1.349   5.981
  258POPC   C1B 3526   5.812   0.961   4.656
  258POPC   C2B 3527   6.053   0.959   5.035
  258POPC   C3B 3528   5.994   1.134   5.460
  258POPC   C4B 3529   5.795   1.111   5.865
  259POPC   NC3 3530   9.279   5.855   4.076
  259POPC   PO4 3531   9.776   5.663   3.671
  259POPC   GL1 3532   9.707   5.689   4.311
  259POPC   GL2 3533   9.404   5.543   4.471
  259POPC   C1A 3534   9.683   5.651   4.836
  259POPC   D2A 3535   9.882   5.391   5.118
  259POPC   C3A 3536   9.666   5.365   5.465
  259POPC   C4A 3537   9.686   5.146   5.828
  259POPC   C1B 3538   9.237   5.922   4.713
  259POPC   C2B 3539   9.252   5.793   5.144
  259POPC   C3B 3540   9.235   5.884   5.568
  259POPC   C4B 3541   9.368   5.546   5.830
  260POPC   NC3 3542   6.115   9.302   3.900
  260POPC   PO4 3543   5.525   9.027   3.984
  260POPC   GL1 3544   5.745   9.301   4.270
  260POPC   GL2 3545   5.541   9.562   4.236
  260POPC   C1A 3546   5.815   9.203   4.734
  260POPC   D2A 3547   5.615   8.989   5.081
  260POPC   C3A 3548   5.724   8.995   5.512
  260POPC   C4A 3549   5.680   9.120   5.947
  260POPC   C1B 3550   5.539   9.618   4.693
  260POPC   C2B 3551   5.406   9.483   5.138
  260POPC   C3B 3552   5.490   9.469   5.614
  260POPC   C4B 3553   5.768   9.765   5.842
  261POPC   NC3 3554   9.397   7.019   3.891
  261POPC   PO4 3555   9.812   7.536   3.804
  261POPC   GL1 3556   9.626   7.567   4.201
  261POPC   GL2 3557   9.382   7.343   4.298
  261POPC   C1A 3558   9.704   7.492   4.640
  261POPC   D2A 3559   9.778   7.429   5.078
  261POPC   C3A 3560   9.535   7.205   5.367
  261POPC   C4A 3561   9.608   7.241   5.803
  261POPC   C1B 3562   9.167   7.389   4.681
  261POPC   C2B 3563   9.271   7.085   4.949
  261POPC   C3B 3564   9.189   6.815   5.284
  261POPC   C4B 3565   9.196   6.956   5.671
  262POPC   NC3 3566   2.738   1.841   3.671
  262POPC   PO4 3567   2.946   2.450   3.962
  262POPC   GL1 3568   2.918   2.249   4.447
  262POPC   GL2 3569   2.794   1.874   4.539
  262POPC   C1A 3570   2.762   2.192   4.906
  262POPC   D2A 3571   3.058   2.307   5.195
  262POPC   C3A 3572   2.982   2.122   5.609
  262POPC   C4A 3573   2.804   2.067   6.009
  262POPC   C1B 3574   2.452   1.731   4.720
  262POPC   C2B 3575   2.301   1.952   5.067
  262POPC   C3B 3576   2.512   1.982   5.439
  262POPC   C4B 3577   2.459   1.730   5.767
  263POPC   NC3 3578   4.171   1.957   3.893
  263POPC   PO4 3579   4.658   1.531   3.892
  263POPC   GL1 3580   4.313   1.621   4.274
  263POPC   GL2 3581   4.250   1.992   4.376
  263POPC   C1A 3582   4.106   1.694   4.743
  263POPC   D2A 3583   3.905   1.938   5.105
  263POPC   C3A 3584   3.880   1.783   5.515
  263POPC   C4A 3585   4.229   1.660   5.727
  263POPC   C1B 3586   4.463   2.180   4.721
  263POPC   C2B 3587   4.431   1.982   5.114
  263POPC   C3B 3588   4.334   2.123   5.529
  263POPC   C4B 3589   4.581   2.413   5.790
  264POPC   NC3 3590   2.969  10.178   4.009
  264POPC   PO4 3591   2.354   0.032   3.914
  264POPC   GL1 3592   2.544  10.289   4.275
  264POPC   GL2 3593   2.537   9.931   4.159
  264POPC   C1A 3594   2.816  10.340   4.682
  264POPC   D2A 3595   2.763  10.480   5.125
  264POPC   C3A 3596   3.008  10.372   5.504
  264POPC   C4A 3597   2.898  10.208   5.896
  264POPC   C1B 3598   2.471   9.829   4.621
  264POPC   C2B 3599   2.564   9.997   5.048
  264POPC   C3B 3600   2.545  10.136   5.488
  264POPC   C4B 3601   2.377  10.126   5.925
  265POPC   NC3 3602   4.313   0.361   3.731
  265POPC   PO4 3603   3.786   0.808   3.826
  265POPC   GL1 3604   3.914   0.664   4.252
  265POPC   GL2 3605   4.061   0.301   4.280
  265POPC   C1A 3606   3.839   0.640   4.708
  265POPC   D2A 3607   3.591   0.479   5.081
  265POPC   C3A 3608   3.806   0.467   5.483
  265POPC   C4A 3609   3.813   0.768   5.810
  265POPC   C1B 3610   4.266   0.364   4.694
  265POPC   C2B 3611   4.074   0.234   5.051
  265POPC   C3B 3612   4.229   0.095   5.404
  265POPC   C4B 3613   4.239   0.291   5.786
  266POPC   NC3 3614   1.242   6.776   3.871
  266POPC   PO4 3615   0.924   7.351   4.047
  266POPC   GL1 3616   1.103   7.052   4.285
  266POPC   GL2 3617   1.399   7.271   4.357
  266POPC   C1A 3618   1.314   6.838   4.601
  266POPC   D2A 3619   1.320   6.700   5.032
  266POPC   C3A 3620   1.211   6.868   5.435
  266POPC   C4A 3621   1.272   6.956   5.858
  266POPC   C1B 3622   1.190   7.304   4.774
  266POPC   C2B 3623   1.300   7.324   5.210
  266POPC   C3B 3624   1.241   7.397   5.643
  266POPC   C4B 3625   0.857   7.584   5.853
  267POPC   NC3 3626   7.888   2.254   3.855
  267POPC   PO4 3627   8.148   2.865   3.922
  267POPC   GL1 3628   8.082   2.544   4.244
  267POPC   GL2 3629   7.704   2.491   4.284
  267POPC   C1A 3630   8.070   2.402   4.662
  267POPC   D2A 3631   8.139   2.691   5.001
  267POPC   C3A 3632   8.072   2.545   5.413
  267POPC   C4A 3633   7.804   2.477   5.742
  267POPC   C1B 3634   7.742   2.788   4.621
  267POPC   C2B 3635   7.646   2.864   5.046
  267POPC   C3B 3636   7.748   2.913   5.447
  267POPC   C4B 3637   7.724   2.983   5.844
  268POPC   NC3 3638   1.667   9.307   3.883
  268POPC   PO4 3639   1.599  10.008   3.669
  268POPC   GL1 3640   1.791   9.852   4.135
  268POPC   GL2 3641   2.003   9.539   4.190
  268POPC   C1A 3642   1.953   9.748   4.633
  268POPC   D2A 3643   2.183   9.619   5.040
  268POPC   C3A 3644   1.919   9.597   5.438
  268POPC   C4A 3645   2.019   9.626   5.900
  268POPC   C1B 3646   1.797   9.257   4.517
  268POPC   C2B 3647   1.875   9.211   4.934
  268POPC   C3B 3648   1.741   9.126   5.322
  268POPC   C4B 3649   1.900   9.158   5.730
  269POPC   NC3 3650   9.019   1.639   3.962
  269POPC   PO4 3651   8.987   2.331   3.812
  269POPC   GL1 3652   8.752   2.246   4.254
  269POPC   GL2 3653   8.671   1.884   4.318
  269POPC   C1A 3654   8.855   2.193   4.706
  269POPC   D2A 3655   8.706   2.021   5.108
  269POPC   C3A 3656   8.751   2.195   5.505
  269POPC   C4A 3657   8.674   1.842   5.785
  269POPC   C1B 3658   8.387   2.003   4.701
  269POPC   C2B 3659   8.235   2.186   5.112
  269POPC   C3B 3660   8.255   2.101   5.586
  269POPC   C4B 3661   8.307   2.203   6.051
  270POPC   NC3 3662   2.892   2.901   3.891
  270POPC   PO4 3663   2.438   2.466   4.284
  270POPC   GL1 3664   2.559   2.844   4.316
  270POPC   GL2 3665   2.906   2.804   4.380
  270POPC   C1A 3666   2.439   3.003   4.704
  270POPC   D2A 3667   2.190   3.075   5.060
  270POPC   C3A 3668   2.291   2.869   5.402
  270POPC   C4A 3669   2.381   2.997   5.816
  270POPC   C1B 3670   2.812   2.669   4.774
  270POPC   C2B 3671   2.733   2.774   5.156
  270POPC   C3B 3672   2.658   2.499   5.464
  270POPC   C4B 3673   2.710   2.555   5.856
  271POPC   NC3 3674  10.159   8.652   3.633
  271POPC   PO4 3675  10.172   8.011   3.641
  271POPC   GL1 3676  10.181   8.316   4.055
  271POPC   GL2 3677  10.238   8.678   4.147
  271POPC   C1A 3678   9.945   8.371   4.487
  271POPC   D2A 3679  10.022   8.499   4.954
  271POPC   C3A 3680   9.942   8.359   5.361
  271POPC   C4A 3681   9.865   8.434   5.774
  271POPC   C1B 3682  10.259   8.783   4.595
  271POPC   C2B 3683  10.490   8.745   5.011
  271POPC   C3B 3684  10.361   8.682   5.471
  271POPC   C4B 3685  10.251   8.740   5.917
  272POPC   NC3 3686   8.873   4.776   3.903
  272POPC   PO4 3687   9.157   5.409   4.089
  272POPC   GL1 3688   8.797   5.260   4.343
  272POPC   GL2 3689   8.769   4.927   4.356
  272POPC   C1A 3690   8.636   5.156   4.767
  272POPC   D2A 3691   8.913   5.045   5.087
  272POPC   C3A 3692   8.687   5.055   5.425
  272POPC   C4A 3693   8.774   4.844   5.777
  272POPC   C1B 3694   8.831   4.673   4.715
  272POPC   C2B 3695   8.591   4.676   5.037
  272POPC   C3B 3696   8.545   4.562   5.384
  272POPC   C4B 3697   8.304   4.756   5.659
  273POPC   NC3 3698  10.125   2.950   3.807
  273POPC   PO4 3699   9.658   2.733   4.097
  273POPC   GL1 3700   9.991   2.806   4.423
  273POPC   GL2 3701  10.380   2.805   4.262
  273POPC   C1A 3702   9.995   2.959   4.860
  273POPC   D2A 3703   9.913   2.901   5.282
  273POPC   C3A 3704   9.857   3.166   5.663
  273POPC   C4A 3705   9.952   2.825   5.960
  273POPC   C1B 3706  10.405   2.621   4.697
  273POPC   C2B 3707  10.198   2.534   5.099
  273POPC   C3B 3708  10.176   2.554   5.549
  273POPC   C4B 3709  10.409   2.283   5.804
  274POPC   NC3 3710   0.401   0.656   3.732
  274POPC   PO4 3711   0.796   1.056   4.017
  274POPC   GL1 3712   0.635   1.011   4.429
  274POPC   GL2 3713   0.326   1.089   4.287
  274POPC   C1A 3714   0.611   0.960   4.904
  274POPC   D2A 3715   0.250   0.838   5.176
  274POPC   C3A 3716   0.325   0.809   5.647
  274POPC   C4A 3717   0.676   0.965   5.824
  274POPC   C1B 3718   0.230   1.271   4.658
  274POPC   C2B 3719   0.302   1.350   5.060
  274POPC   C3B 3720   0.363   1.259   5.440
  274POPC   C4B 3721   0.361   1.388   5.813
  275POPC   NC3 3722   4.255   9.621   3.818
  275POPC   PO4 3723   4.250  10.365   3.707
  275POPC   GL1 3724   4.160  10.275   4.154
  275POPC   GL2 3725   3.832  10.235   4.312
  275POPC   C1A 3726   4.290  10.353   4.599
  275POPC   D2A 3727   4.560   0.003   4.952
  275POPC   C3A 3728   4.676  10.336   5.390
  275POPC   C4A 3729   4.432  10.305   5.784
  275POPC   C1B 3730   3.937   9.994   4.688
  275POPC   C2B 3731   4.147  10.169   5.077
  275POPC   C3B 3732   4.043  10.089   5.514
  275POPC   C4B 3733   3.999  10.123   5.989
  276POPC   NC3 3734   6.554   8.785   4.039
  276POPC   PO4 3735   6.561   9.431   3.944
  276POPC   GL1 3736   6.579   9.234   4.312
  276POPC   GL2 3737   6.249   9.271   4.417
  276POPC   C1A 3738   6.645   9.248   4.766
  276POPC   D2A 3739   6.358   9.478   5.036
  276POPC   C3A 3740   6.432   9.499   5.470
  276POPC   C4A 3741   6.674   9.447   5.781
  276POPC   C1B 3742   6.056   9.637   4.621
  276POPC   C2B 3743   5.883   9.690   5.057
  276POPC   C3B 3744   5.945   9.460   5.440
  276POPC   C4B 3745   6.159   9.212   5.794
  277POPC   NC3 3746   1.348   5.349   3.960
  277POPC   PO4 3747   1.059   5.978   3.951
  277POPC   GL1 3748   1.037   5.622   4.270
  277POPC   GL2 3749   1.398   5.613   4.369
  277POPC   C1A 3750   1.084   5.352   4.682
  277POPC   D2A 3751   0.923   5.563   5.043
  277POPC   C3A 3752   1.080   5.430   5.456
  277POPC   C4A 3753   0.883   5.754   5.700
  277POPC   C1B 3754   1.302   5.810   4.704
  277POPC   C2B 3755   1.420   5.651   5.090
  277POPC   C3B 3756   1.272   5.870   5.391
  277POPC   C4B 3757   1.398   5.931   5.753
  278POPC   NC3 3758   1.141   3.839   3.722
  278POPC   PO4 3759   1.455   4.287   4.091
  278POPC   GL1 3760   1.266   4.228   4.431
  278POPC   GL2 3761   0.995   4.467   4.418
  278POPC   C1A 3762   1.426   4.167   4.839
  278POPC   D2A 3763   1.324   4.396   5.199
  278POPC   C3A 3764   1.380   4.077   5.499
  278POPC   C4A 3765   1.309   4.020   5.936
  278POPC   C1B 3766   0.918   4.212   4.801
  278POPC   C2B 3767   0.830   4.231   5.227
  278POPC   C3B 3768   0.904   4.287   5.655
  278POPC   C4B 3769   0.802   4.032   5.997
  279POPC   NC3 3770   9.968   1.948   4.023
  279POPC   PO4 3771   0.182   1.941   3.904
  279POPC   GL1 3772  10.429   2.134   4.239
  279POPC   GL2 3773  10.141   2.365   4.232
  279POPC   C1A 3774  10.276   1.893   4.607
  279POPC   D2A 3775  10.397   1.624   4.933
  279POPC   C3A 3776   0.062   1.708   5.326
  279POPC   C4A 3777  10.426   1.647   5.714
  279POPC   C1B 3778   9.996   2.314   4.657
  279POPC   C2B 3779  10.012   2.054   5.020
  279POPC   C3B 3780  10.181   2.058   5.411
  279POPC   C4B 3781  10.021   1.929   5.807
  280POPC   NC3 3782   9.269   4.046   3.998
  280POPC   PO4 3783   9.843   4.180   3.671
  280POPC   GL1 3784   9.727   4.231   4.156
  280POPC   GL2 3785   9.537   4.502   4.207
  280POPC   C1A 3786   9.458   4.111   4.598
  280POPC   D2A 3787   9.275   4.031   5.033
  280POPC   C3A 3788   9.436   4.228   5.421
  280POPC   C4A 3789   9.514   4.077   5.839
  280POPC   C1B 3790   9.490   4.629   4.647
  280POPC   C2B 3791   9.264   4.577   5.017
  280POPC   C3B 3792   9.044   4.632   5.380
  280POPC   C4B 3793   9.062   4.423   5.765
  281POPC   NC3 3794   2.622   7.898   3.810
  281POPC   PO4 3795   2.166   8.367   4.048
  281POPC   GL1 3796   2.455   8.023   4.278
  281POPC   GL2 3797   2.542   7.647   4.238
  281POPC   C1A 3798   2.649   8.095   4.690
  281POPC   D2A 3799   2.747   8.144   5.141
  281POPC   C3A 3800   2.400   8.148   5.443
  281POPC   C4A 3801   2.352   7.945   5.848
  281POPC   C1B 3802   2.817   7.628   4.616
  281POPC   C2B 3803   2.663   7.619   5.005
  281POPC   C3B 3804   2.637   7.707   5.418
  281POPC   C4B 3805   2.728   7.597   5.814
  282POPC   NC3 3806   0.614   6.101   3.984
  282POPC   PO4 3807   0.237   6.637   4.116
  282POPC   GL1 3808   0.499   6.459   4.391
  282POPC   GL2 3809   0.724   6.705   4.429
  282POPC   C1A 3810   0.402   6.535   4.831
  282POPC   D2A 3811   0.327   6.264   5.170
  282POPC   C3A 3812   0.102   6.362   5.544
  282POPC   C4A 3813   0.341   6.590   5.769
  282POPC   C1B 3814   0.914   6.566   4.753
  282POPC   C2B 3815   0.826   6.513   5.159
  282POPC   C3B 3816   0.710   6.745   5.471
  282POPC   C4B 3817   0.855   6.671   5.876
  283POPC   NC3 3818  10.187   7.555   3.540
  283POPC   PO4 3819  10.458   7.597   4.123
  283POPC   GL1 3820  10.122   7.643   4.391
  283POPC   GL2 3821  10.021   7.889   4.252
  283POPC   C1A 3822   9.933   7.917   4.748
  283POPC   D2A 3823  10.070   7.921   5.150
  283POPC   C3A 3824  10.115   7.585   5.418
  283POPC   C4A 3825  10.319   7.413   5.741
  283POPC   C1B 3826  10.372   8.099   4.519
  283POPC   C2B 3827  10.468   8.220   4.930
  283POPC   C3B 3828  10.435   8.196   5.364
  283POPC   C4B 3829  10.164   8.022   5.686
  284POPC   NC3 3830   8.441   7.125   4.154
  284POPC   PO4 3831   8.953   7.027   3.750
  284POPC   GL1 3832   8.937   7.131   4.207
  284POPC   GL2 3833   8.810   7.468   4.321
  284POPC   C1A 3834   8.843   6.984   4.657
  284POPC   D2A 3835   8.762   7.064   5.108
  284POPC   C3A 3836   9.037   7.315   5.355
  284POPC   C4A 3837   9.158   7.461   5.765
  284POPC   C1B 3838   8.564   7.424   4.744
  284POPC   C2B 3839   8.318   7.302   5.142
  284POPC   C3B 3840   8.425   7.155   5.520
  284POPC   C4B 3841   8.635   7.524   5.567
  285POPC   NC3 3842   6.454   0.311   3.964
  285POPC   PO4 3843   6.125   1.046   3.925
  285POPC   GL1 3844   6.257   0.659   4.267
  285POPC   GL2 3845   6.622   0.563   4.362
  285POPC   C1A 3846   6.119   0.500   4.687
  285POPC   D2A 3847   5.985   0.448   5.134
  285POPC   C3A 3848   6.244   0.679   5.439
  285POPC   C4A 3849   6.170   0.692   5.870
  285POPC   C1B 3850   6.597   0.284   4.697
  285POPC   C2B 3851   6.518   0.444   5.071
  285POPC   C3B 3852   6.583   0.286   5.459
  285POPC   C4B 3853   6.560   0.370   5.842
  286POPC   NC3 3854   4.500   9.344   4.191
  286POPC   PO4 3855   3.878   9.779   4.006
  286POPC   GL1 3856   4.222   9.782   4.297
  286POPC   GL2 3857   4.141   9.497   4.514
  286POPC   C1A 3858   4.445   9.856   4.668
  286POPC   D2A 3859   4.239   9.663   5.013
  286POPC   C3A 3860   4.440   9.816   5.363
  286POPC   C4A 3861   4.297   9.711   5.761
  286POPC   C1B 3862   4.233   9.128   4.766
  286POPC   C2B 3863   4.131   8.978   5.171
  286POPC   C3B 3864   4.263   9.226   5.526
  286POPC   C4B 3865   3.986   9.312   5.876
  287POPC   NC3 3866   8.449   4.094   3.978
  287POPC   PO4 3867   9.018   4.417   4.162
  287POPC   GL1 3868   8.613   4.459   4.269
  287POPC   GL2 3869   8.697   4.128   4.432
  287POPC   C1A 3870   8.362   4.427   4.636
  287POPC   D2A 3871   8.584   4.189   4.936
  287POPC   C3A 3872   8.383   4.078   5.301
  287POPC   C4A 3873   8.481   4.217   5.718
  287POPC   C1B 3874   8.922   3.803   4.672
  287POPC   C2B 3875   8.815   3.783   5.099
  287POPC   C3B 3876   8.890   4.101   5.396
  287POPC   C4B 3877   9.041   3.924   5.770
  288POPC   NC3 3878   8.217   1.464   3.703
  288POPC   PO4 3879   8.276   2.090   4.043
  288POPC   GL1 3880   7.906   2.028   4.331
  288POPC   GL2 3881   7.950   1.761   4.570
  288POPC   C1A 3882   7.643   2.113   4.695
  288POPC   D2A 3883   7.722   2.352   5.041
  288POPC   C3A 3884   7.778   2.091   5.381
  288POPC   C4A 3885   7.532   2.046   5.729
  288POPC   C1B 3886   7.970   1.791   4.964
  288POPC   C2B 3887   8.294   1.684   5.251
  288POPC   C3B 3888   8.181   1.583   5.661
  288POPC   C4B 3889   7.964   1.825   5.922
  289POPC   NC3 3890   9.371   2.094   3.664
  289POPC   PO4 3891   9.395   1.474   3.748
  289POPC   GL1 3892   9.451   1.857   4.128
  289POPC   GL2 3893   9.205   2.064   4.188
  289POPC   C1A 3894   9.682   1.876   4.608
  289POPC   D2A 3895   9.614   1.733   5.028
  289POPC   C3A 3896   9.658   1.897   5.406
  289POPC   C4A 3897   9.527   1.753   5.751
  289POPC   C1B 3898   9.171   1.799   4.560
  289POPC   C2B 3899   9.128   1.802   4.977
  289POPC   C3B 3900   9.134   1.851   5.424
  289POPC   C4B 3901   9.259   2.199   5.705
  290POPC   NC3 3902   3.301   8.495   3.681
  290POPC   PO4 3903   3.019   7.845   4.039
  290POPC   GL1 3904   3.283   7.842   4.387
  290POPC   GL2 3905   3.413   7.535   4.355
  290POPC   C1A 3906   3.380   8.148   4.756
  290POPC   D2A 3907   3.257   8.232   5.195
  290POPC   C3A 3908   3.508   8.141   5.566
  290POPC   C4A 3909   3.801   8.120   5.922
  290POPC   C1B 3910   3.295   7.630   4.828
  290POPC   C2B 3911   3.420   7.715   5.245
  290POPC   C3B 3912   3.167   7.772   5.600
  290POPC   C4B 3913   2.883   8.092   5.665
  291POPC   NC3 3914   0.360   5.198   3.980
  291POPC   PO4 3915   0.064   4.647   4.014
  291POPC   GL1 3916   0.244   4.714   4.333
  291POPC   GL2 3917   0.256   5.082   4.467
  291POPC   C1A 3918   0.061   4.685   4.707
  291POPC   D2A 3919   0.178   4.863   5.039
  291POPC   C3A 3920   0.032   4.801   5.431
  291POPC   C4A 3921   0.163   5.156   5.689
  291POPC   C1B 3922   0.614   4.889   4.628
  291POPC   C2B 3923   0.652   4.684   5.019
  291POPC   C3B 3924   0.556   4.912   5.405
  291POPC   C4B 3925   0.648   4.744   5.788
  292POPC   NC3 3926   0.974   8.588   3.824
  292POPC   PO4 3927   0.696   9.146   3.951
  292POPC   GL1 3928   0.886   8.874   4.275
  292POPC   GL2 3929   1.247   8.802   4.299
  292POPC   C1A 3930   0.906   8.665   4.704
  292POPC   D2A 3931   0.706   8.628   5.138
  292POPC   C3A 3932   1.011   8.643   5.492
  292POPC   C4A 3933   0.933   8.878   5.876
  292POPC   C1B 3934   1.421   8.872   4.718
  292POPC   C2B 3935   1.413   8.614   5.103
  292POPC   C3B 3936   1.601   8.678   5.505
  292POPC   C4B 3937   1.408   9.009   5.730
  293POPC   NC3 3938   7.937   9.767   3.989
  293POPC   PO4 3939   7.984   9.213   3.683
  293POPC   GL1 3940   8.001   9.197   4.204
  293POPC   GL2 3941   7.938   9.511   4.430
  293POPC   C1A 3942   7.978   9.084   4.692
  293POPC   D2A 3943   8.150   9.415   5.020
  293POPC   C3A 3944   8.198   9.293   5.457
  293POPC   C4A 3945   8.230   9.705   5.693
  293POPC   C1B 3946   7.686   9.472   4.772
  293POPC   C2B 3947   7.708   9.255   5.152
  293POPC   C3B 3948   7.774   9.550   5.511
  293POPC   C4B 3949   7.824   9.257   5.825
  294POPC   NC3 3950   3.507   1.215   3.798
  294POPC   PO4 3951   3.129   0.892   4.232
  294POPC   GL1 3952   3.499   1.073   4.338
  294POPC   GL2 3953   3.572   1.457   4.261
  294POPC   C1A 3954   3.484   1.031   4.778
  294POPC   D2A 3955   3.732   0.969   5.105
  294POPC   C3A 3956   3.480   0.860   5.427
  294POPC   C4A 3957   3.395   1.061   5.819
  294POPC   C1B 3958   3.573   1.570   4.671
  294POPC   C2B 3959   3.677   1.481   5.070
  294POPC   C3B 3960   3.610   1.352   5.462
  294POPC   C4B 3961   3.503   1.541   5.845
  295POPC   NC3 3962   3.259   8.236   4.092
  295POPC   PO4 3963   3.535   8.852   3.859
  295POPC   GL1 3964   3.588   8.651   4.246
  295POPC   GL2 3965   3.257   8.671   4.371
  295POPC   C1A 3966   3.657   8.749   4.674
  295POPC   D2A 3967   3.486   8.798   5.054
  295POPC   C3A 3968   3.533   8.616   5.420
  295POPC   C4A 3969   3.141   8.528   5.604
  295POPC   C1B 3970   3.225   9.028   4.676
  295POPC   C2B 3971   3.198   9.204   5.083
  295POPC   C3B 3972   3.250   9.018   5.472
  295POPC   C4B 3973   3.520   9.110   5.775
  296POPC   NC3 3974   2.940   7.380   4.038
  296POPC   PO4 3975   3.485   7.074   4.084
  296POPC   GL1 3976   3.132   7.084   4.409
  296POPC   GL2 3977   2.800   6.927   4.267
  296POPC   C1A 3978   3.065   7.183   4.864
  296POPC   D2A 3979   3.025   7.383   5.294
  296POPC   C3A 3980   3.050   7.208   5.759
  296POPC   C4A 3981   2.937   7.195   6.238
  296POPC   C1B 3982   2.615   7.171   4.620
  296POPC   C2B 3983   2.598   7.112   5.076
  296POPC   C3B 3984   2.594   7.207   5.511
  296POPC   C4B 3985   2.537   7.113   5.949
  297POPC   NC3 3986   1.481   6.189   3.992
  297POPC   PO4 3987   0.817   6.540   3.893
  297POPC   GL1 3988   1.102   6.432   4.239
  297POPC   GL2 3989   0.934   6.166   4.413
  297POPC   C1A 3990   1.362   6.333   4.626
  297POPC   D2A 3991   1.199   6.198   5.020
  297POPC   C3A 3992   1.371   6.359   5.405
  297POPC   C4A 3993   1.359   6.459   5.837
  297POPC   C1B 3994   0.733   6.091   4.816
  297POPC   C2B 3995   0.774   6.012   5.268
  297POPC   C3B 3996   0.931   6.248   5.616
  297POPC   C4B 3997   1.030   6.144   6.053
  298POPC   NC3 3998   0.775   5.656   3.771
  298POPC   PO4 3999   0.229   6.109   3.708
  298POPC   GL1 4000   0.202   6.057   4.247
  298POPC   GL2 4001   0.529   5.843   4.396
  298POPC   C1A 4002   0.215   6.042   4.710
  298POPC   D2A 4003   0.411   5.752   5.013
  298POPC   C3A 4004   0.240   5.825   5.393
  298POPC   C4A 4005   0.470   6.066   5.708
  298POPC   C1B 4006   0.581   5.455   4.600
  298POPC   C2B 4007   0.510   5.247   4.989
  298POPC   C3B 4008   0.566   5.418   5.403
  298POPC   C4B 4009   0.422   5.565   5.787
  299POPC   NC3 4010   1.393   0.604   3.612
  299POPC   PO4 4011   0.948   0.225   3.919
  299POPC   GL1 4012   1.202   0.214   4.262
  299POPC   GL2 4013   1.339   0.545   4.252
  299POPC   C1A 4014   1.030   0.286   4.675
  299POPC   D2A 4015   1.215   0.225   5.070
  299POPC   C3A 4016   1.144   0.299   5.505
  299POPC   C4A 4017   1.499   0.056   5.714
  299POPC   C1B 4018   1.376   0.653   4.677
  299POPC   C2B 4019   1.131   0.747   5.026
  299POPC   C3B 4020   1.265   0.821   5.431
  299POPC   C4B 4021   1.130   0.721   5.799
  300POPC   NC3 4022   3.982   8.737   3.925
  300POPC   PO4 4023   4.462   8.250   4.022
  300POPC   GL1 4024   4.109   8.415   4.285
  300POPC   GL2 4025   4.087   8.761   4.422
  300POPC   C1A 4026   3.885   8.316   4.663
  300POPC   D2A 4027   3.911   8.528   5.081
  300POPC   C3A 4028   3.973   8.349   5.481
  300POPC   C4A 4029   4.301   8.220   5.710
  300POPC   C1B 4030   4.317   8.614   4.789
  300POPC   C2B 4031   4.424   8.478   5.227
  300POPC   C3B 4032   4.325   8.715   5.603
  300POPC   C4B 4033   3.922   8.853   5.649
  301POPC   NC3 4034   9.884   1.147   3.864
  301POPC   PO4 4035   0.075   0.950   3.847
  301POPC   GL1 4036  10.352   1.205   4.120
  301POPC   GL2 4037  10.173   0.926   4.210
  301POPC   C1A 4038  10.230   1.356   4.532
  301POPC   D2A 4039   9.929   1.376   4.882
  301POPC   C3A 4040  10.044   1.579   5.309
  301POPC   C4A 4041   9.995   1.390   5.740
  301POPC   C1B 4042  10.415   0.875   4.579
  301POPC   C2B 4043  10.347   1.091   4.955
  301POPC   C3B 4044  10.353   1.184   5.359
  301POPC   C4B 4045  10.443   1.129   5.757
  302W        W 4046  10.379   3.595   8.973
  303W        W 4047   3.395   7.413   2.236
  304W        W 4048   7.981   2.749   1.829
  305W        W 4049   6.074   0.515   0.255
  306W        W 4050   9.135   2.182   8.628
  307W        W 4051   9.864   3.091   8.682
  308W        W 4052   8.195   5.488   9.717
  309W        W 4053   2.266   3.554   0.847
  310W        W 4054  10.031   3.170   0.980
  311W        W 4055   0.273   7.405  10.520
  312W        W 4056   5.262   1.873   2.189
  313W        W 4057   9.676   7.136   9.555
  314W        W 4058   9.905   7.948   8.982
  315W        W 4059   8.431   5.666   0.077
  316W        W 4060   8.849   0.791   3.223
  317W        W 4061   5.260   6.455   1.669
  318W        W 4062   8.003   6.169   1.479
  319W        W 4063   5.651  10.451  11.922
  320W        W 4064   6.517  10.337   1.445
  321W        W 4065   1.849   5.692  11.744
  322W        W 4066   3.512   6.672  11.484
  323W        W 4067   6.449   8.056   0.346
  324W        W 4068   8.958   7.676   9.844
  325W        W 4069   0.973   1.866   9.793
  326W        W 4070  10.296   1.805   9.100
  327W        W 4071   4.647   0.731  10.095
  328W        W 4072   9.999   8.578  10.913
  329W        W 4073   9.759   2.260   0.765
  330W        W 4074   1.875   6.979   2.816
  331W        W 4075   1.350   7.025   1.817
  332W        W 4076   9.572   2.103  11.791
  333W        W 4077   6.349   3.139   9.999
  334W        W 4078   2.190   2.860   2.553
  335W        W 4079   0.409   1.029   9.412
  336W        W 4080   8.739   2.233   2.142
  337W        W 4081   8.887   8.829  10.590
  338W        W 4082   4.961   0.457   1.488
  339W        W 4083   2.719   9.482  11.145
  340W        W 4084   3.520   7.367   2.989
  341W        W 4085   9.096   0.983   2.781
  342W        W 4086   1.382   2.545   0.096
  343W        W 4087   2.378   4.685   2.683
  344W        W 4088   6.571  10.448   3.625
  345W        W 4089  10.461   4.214   9.660
  346W        W 4090   7.019  10.296   1.710
  347W        W 4091   7.401   3.681   9.907
  348W        W 4092   1.649   6.773  10.299
  349W        W 4093  10.244   5.080   2.018
  350W        W 4094   8.442   5.601   0.612
  351W        W 4095   3.580   6.898  11.027
  352W        W 4096   6.972   4.104   1.892
  353W        W 4097   4.684   4.181  10.386
  354W        W 4098   8.532   7.604   9.061
  355W        W 4099   5.148  10.102  10.712
  356W        W 4100   8.539   7.685   9.572
  357W        W 4101   6.419   9.123   2.052
  358W        W 4102   2.249   1.296   1.693
  359W        W 4103   7.581   4.680   9.367
  360W        W 4104   0.886   0.844   0.294
  361W        W 4105   4.807   8.443   9.710
  362W        W 4106   5.297   4.778   0.321
  363W        W 4107   8.391   3.208   1.892
  364W        W 4108   0.424   0.807   1.406
  365W        W 4109   8.901   8.145   0.219
  366W        W 4110   5.188   3.042  11.388
  367W        W 4111   9.409   2.620   3.589
  368W        W 4112   2.142   1.769   3.129
  369W        W 4113   4.836   0.940   1.753
  370W        W 4114   8.465   0.235   1.744
  371W        W 4115   8.975   9.104  10.152
  372W        W 4116   9.274   1.378   1.101
  373W        W 4117   8.043   6.065   2.910
  374W        W 4118   6.141   3.719   0.686
  375W        W 4119   4.918   7.931   0.231
  376W        W 4120   8.726   9.757  10.973
  377W        W 4121   0.934   8.619   9.478
  378W        W 4122   5.686   9.438  10.206
  379W        W 4123   0.972   7.199   2.622
  380W        W 4124   1.911   0.941   1.775
  381W        W 4125   4.591   9.914   9.801
  382W        W 4126   6.699   9.708  11.724
  383W        W 4127   0.986   4.645   2.942
  384W        W 4128   7.137   3.553  10.466
  385W        W 4129   8.115   7.327   1.648
  386W        W 4130   4.784   2.184   2.886
  387W        W 4131   9.656   9.853   0.728
  388W        W 4132   8.452   9.556   3.233
  389W        W 4133   6.686   4.586   9.180
  390W        W 4134   7.014   9.457  10.246
  391W        W 4135   0.776   7.729   0.015
  392W        W 4136   5.440   7.570  10.482
  393W        W 4137   7.494   6.259  11.818
  394W        W 4138   1.618   0.536   1.714
  395W        W 4139   7.842   1.262   2.948
  396W        W 4140   0.922   3.724   8.799
  397W        W 4141   3.520   2.393  11.372
  398W        W 4142   4.051   9.639   9.782
  399W        W 4143   3.102   5.266   2.797
  400W        W 4144   7.192   4.353   3.336
  401W        W 4145   9.393   8.071   2.582
  402W        W 4146   7.692   1.421   9.501
  403W        W 4147   2.352   5.518   8.565
  404W        W 4148   8.164   3.747   2.906
  405W        W 4149   9.795   8.567   1.536
  406W        W 4150   7.594   4.583   3.128
  407W        W 4151   0.733  10.338   0.684
  408W        W 4152   2.605   2.705   2.253
  409W        W 4153   8.134   9.277   9.310
  410W        W 4154   1.754   4.499   8.687
  411W        W 4155   0.390   4.367   9.924
  412W        W 4156   7.910  10.267  10.579
  413W        W 4157   1.202   9.166  11.196
  414W        W 4158   7.049   8.205  11.906
  415W        W 4159   1.263   3.613   9.613
  416W        W 4160   6.355   9.777  11.320
  417W        W 4161   3.652   0.465   0.485
  418W        W 4162   9.236   7.146   2.934
  419W        W 4163   6.686   9.396  11.233
  420W        W 4164   8.058   1.232  10.129
  421W        W 4165   7.873   0.439   0.012
  422W        W 4166   7.753   2.693   8.811
  423W        W 4167  10.196   3.387   3.353
  424W        W 4168   0.958  10.494   1.725
  425W        W 4169   4.172   2.507  11.772
  426W        W 4170   4.751   4.112   2.207
  427W        W 4171   5.311   6.109   3.373
  428W        W 4172   7.465   8.550   3.632
  429W        W 4173   2.100   0.886   3.355
  430W        W 4174   4.273   0.836   1.872
  431W        W 4175  10.085   6.845  11.785
  432W        W 4176   1.992   9.128   1.249
  433W        W 4177   7.535   7.689   2.718
  434W        W 4178   1.768   2.106   0.372
  435W        W 4179   9.917   2.796  10.063
  436W        W 4180   0.224   4.654   9.535
  437W        W 4181   4.458   3.171   3.648
  438W        W 4182   6.512   5.028  11.567
  439W        W 4183   7.876   1.595   3.352
  440W        W 4184   1.869   0.623   8.911
  441W        W 4185   5.009   6.686   0.301
  442W        W 4186   3.733   3.734   1.962
  443W        W 4187   4.105   8.522  10.932
  444W        W 4188   1.365   0.464   2.827
  445W        W 4189   4.541   1.717   1.913
  446W        W 4190   8.166   5.727   9.216
  447W        W 4191   6.910   9.909   0.361
  448W        W 4192   3.447   0.768   0.862
  449W        W 4193   9.559   5.543   2.169
  450W        W 4194   6.650   9.977   3.107
  451W        W 4195   9.222   4.463   3.691
  452W        W 4196   5.080   5.245  11.405
  453W        W 4197   6.692   9.512   2.912
  454W        W 4198  10.298  10.383   2.475
  455W        W 4199   8.404   0.227  11.338
  456W        W 4200   2.862   1.309   8.796
  457W        W 4201   6.082   3.788  11.209
  458W        W 4202   0.759   8.615   1.756
  459W        W 4203   2.154   7.198   1.282
  460W        W 4204   9.510   9.581   2.443
  461W        W 4205   6.682   4.099  11.837
  462W        W 4206   6.935   4.139   9.288
  463W        W 4207   3.227   2.323   2.899
  464W        W 4208   8.169   3.734   0.297
  465W        W 4209   1.772   2.259  11.863
  466W        W 4210   7.977   1.084   3.394
  467W        W 4211   1.496  10.318  11.891
  468W        W 4212   5.483   6.608   9.427
  469W        W 4213   2.093   0.811   0.879
  470W        W 4214   5.958   8.166   0.498
  471W        W 4215  10.359   2.015   1.577
  472W        W 4216   6.626   4.091   9.685
  473W        W 4217   9.034   0.283   9.093
  474W        W 4218   8.053   4.699   2.938
  475W        W 4219   5.122   2.507   1.729
  476W        W 4220   3.085   8.206   2.629
  477W        W 4221   7.421   8.938  11.736
  478W        W 4222   2.887   0.354  11.804
  479W        W 4223  10.374   0.225   1.666
  480W        W 4224   1.949   0.874   0.387
  481W        W 4225   9.330   8.328   3.586
  482W        W 4226   9.822   6.399   8.998
  483W        W 4227   6.041   9.180  11.938
  484W        W 4228   9.413   6.642  10.820
  485W        W 4229   7.595   8.929   9.188
  486W        W 4230   2.387   4.232   9.884
  487W        W 4231   5.497   3.277   1.266
  488W        W 4232   4.500   9.961  11.324
  489W        W 4233   5.235   3.733   1.173
  490W        W 4234   5.060   0.774   9.757
  491W        W 4235   5.160   0.795   9.253
  492W        W 4236   1.288   5.036   3.540
  493W        W 4237   8.119   4.183  10.021
  494W        W 4238   2.932   2.390   3.309
  495W        W 4239   8.518   8.432  11.464
  496W        W 4240   9.771   2.350  10.297
  497W        W 4241   2.372   6.258   8.788
  498W        W 4242   5.969   6.292   9.496
  499W        W 4243   6.136   3.732   1.204
  500W        W 4244   2.805   7.417   0.989
  501W        W 4245   9.324   5.156  10.500
  502W        W 4246   6.850   2.111   1.668
  503W        W 4247   7.217   5.343   2.107
  504W        W 4248   6.125   6.025   2.533
  505W        W 4249   3.250   1.374   2.479
  506W        W 4250   0.080   3.891   0.801
  507W        W 4251   0.193   1.291   2.303
  508W        W 4252  10.055   3.979   8.725
  509W        W 4253   7.273   5.834   8.151
  510W        W 4254   2.787   5.867   9.471
  511W        W 4255  10.150   4.265  10.072
  512W        W 4256   2.169   5.229   2.956
  513W        W 4257   3.821   2.795  11.525
  514W        W 4258   8.312   6.495   0.045
  515W        W 4259   6.872   0.110  10.818
  516W        W 4260   6.646   4.554   1.910
  517W        W 4261   5.643   6.519   3.257
  518W        W 4262   6.136   3.718   2.805
  519W        W 4263   7.703   3.547   2.900
  520W        W 4264   6.572   5.949   1.821
  521W        W 4265   4.612   5.445   2.407
  522W        W 4266   2.911   3.286   0.360
  523W        W 4267   5.152   0.842   0.661
  524W        W 4268   1.415   7.567   1.144
  525W        W 4269   2.804   2.739  11.722
  526W        W 4270   6.513   1.436   2.704
  527W        W 4271   1.780   5.879   9.374
  528W        W 4272   3.565   2.367   2.217
  529W        W 4273  10.009   0.028  10.465
  530W        W 4274   6.498   1.648  10.076
  531W        W 4275   5.806   6.232   4.208
  532W        W 4276   6.708   7.023   0.106
  533W        W 4277   7.715   4.322  11.836
  534W        W 4278   9.312   8.577   9.504
  535W        W 4279   9.071  10.225  10.890
  536W        W 4280   9.121   4.671  10.562
  537W        W 4281   4.209   1.254  10.599
  538W        W 4282   9.893   4.743   1.218
  539W        W 4283   1.677   6.103   0.753
  540W        W 4284   9.646   4.161  10.047
  541W        W 4285   3.486   2.293   3.353
  542W        W 4286   0.464   5.255   9.774
  543W        W 4287   0.400   4.515   2.425
  544W        W 4288   2.401   6.039  10.311
  545W        W 4289   5.552  10.460  10.509
  546W        W 4290   1.935   0.682   2.227
  547W        W 4291   7.655   3.549   8.929
  548W        W 4292   7.954   1.864   9.322
  549W        W 4293   6.634   5.458   0.462
  550W        W 4294   9.804   7.171  10.535
  551W        W 4295  10.151   4.666  10.390
  552W        W 4296   3.745   6.624  10.636
  553W        W 4297   9.529   2.587   3.065
  554W        W 4298   7.552   1.148  11.478
  555W        W 4299   6.627   8.618   2.725
  556W        W 4300   4.567   1.791   3.338
  557W        W 4301   5.054   2.774   8.047
  558W        W 4302   4.185   0.600   9.878
  559W        W 4303   6.465   5.679   2.262
  560W        W 4304   8.919   5.092   9.543
  561W        W 4305   8.934   2.173   0.486
  562W        W 4306   8.450   2.806   2.212
  563W        W 4307   2.175   4.711   9.879
  564W        W 4308   1.385   0.720   0.349
  565W        W 4309   7.879   7.440   1.212
  566W        W 4310   6.914   3.147   1.218
  567W        W 4311  10.120   5.076  10.065
  568W        W 4312   0.788   2.779   9.710
  569W        W 4313   5.219   4.314   2.313
  570W        W 4314   1.200   4.754   9.625
  571W        W 4315   6.580   5.888   0.205
  572W        W 4316   2.017   8.022  11.925
  573W        W 4317   4.721   4.953  11.639
  574W        W 4318   0.640   1.684   1.735
  575W        W 4319   7.101   5.580  11.923
  576W        W 4320   3.335   1.880   2.169
  577W        W 4321   8.850   4.238   1.549
  578W        W 4322   0.345   9.890   1.809
  579W        W 4323   0.462   5.617   1.904
  580W        W 4324   8.535   8.921   8.756
  581W        W 4325   6.062   6.945   2.769
  582W        W 4326   6.245   6.553   9.865
  583W        W 4327   2.699   5.201   3.150
  584W        W 4328   7.136   6.517   9.371
  585W        W 4329   3.764   2.572   0.067
  586W        W 4330   3.253   8.240   0.555
  587W        W 4331   9.345   7.320   9.203
  588W        W 4332   6.679   9.250   0.667
  589W        W 4333   3.117   3.320   2.594
  590W        W 4334   9.406   7.540   2.462
  591W        W 4335   9.051   4.115   0.405
  592W        W 4336   4.507   4.110   0.675
  593W        W 4337   5.194   7.083   9.319
  594W        W 4338   5.124   9.929   9.037
  595W        W 4339   1.945   6.686   9.872
  596W        W 4340   3.770   6.064  10.474
  597W        W 4341   5.903   9.772   3.416
  598W        W 4342   9.442   3.789   0.437
  599W        W 4343   0.882   0.328  10.502
  600W        W 4344   2.318   4.575   0.995
  601W        W 4345   6.675   1.777   8.632
  602W        W 4346   2.701   3.531   3.345
  603W        W 4347   7.716   3.715   3.851
  604W        W 4348   6.043   3.210  10.786
  605W        W 4349   1.302   3.816   9.135
  606W        W 4350   9.540   4.726   1.963
  607W        W 4351   0.876   8.334  11.192
  608W        W 4352   3.602   1.550   3.405
  609W        W 4353   1.261   7.475   8.841
  610W        W 4354   4.791   1.027   1.207
  611W        W 4355   7.678   2.817   1.337
  612W        W 4356   1.338   2.392  11.052
  613W        W 4357   4.618   2.154  10.575
  614W        W 4358   3.228   9.737   9.169
  615W        W 4359   9.288   6.267   9.801
  616W        W 4360   4.087   8.396   9.092
  617W        W 4361   6.975   1.845  11.010
  618W        W 4362   4.112   5.992  11.779
  619W        W 4363   3.433   1.016   2.138
  620W        W 4364   9.014   1.684   0.650
  621W        W 4365   5.152   3.832   0.664
  622W        W 4366   3.362   5.012   9.842
  623W        W 4367   2.131   5.699  10.005
  624W        W 4368   4.559   2.812   8.816
  625W        W 4369   1.581   0.247   9.083
  626W        W 4370   6.931   7.028   3.508
  627W        W 4371   7.661   1.023   9.824
  628W        W 4372   2.400   7.358   0.222
  629W        W 4373   7.616   4.126  10.030
  630W        W 4374   6.143   8.357   1.872
  631W        W 4375   4.795   4.584   2.437
  632W        W 4376   7.243   3.628  11.961
  633W        W 4377   3.614   6.121   2.667
  634W        W 4378   4.733   7.362   0.990
  635W        W 4379   2.409   6.559  10.074
  636W        W 4380   7.517   0.826  11.859
  637W        W 4381   5.023   6.494  10.351
  638W        W 4382   3.209  10.301  11.410
  639W        W 4383   9.873   8.457   9.043
  640W        W 4384   9.197   5.744   0.708
  641W        W 4385   0.363   5.957   0.375
  642W        W 4386  10.059   2.803   1.780
  643W        W 4387   5.526   5.128  10.910
  644W        W 4388   2.155   2.085   9.951
  645W        W 4389   3.292   8.382  10.504
  646W        W 4390   4.729   0.021   2.009
  647W        W 4391  10.065   8.295   9.957
  648W        W 4392   5.672   4.139   9.527
  649W        W 4393   4.072   2.350   2.309
  650W        W 4394   4.508   4.212   1.184
  651W        W 4395   7.990  10.426   0.424
  652W        W 4396   9.449   6.737   9.885
  653W        W 4397   0.038   6.572  11.056
  654W        W 4398   1.764   6.927   3.317
  655W        W 4399   8.992   4.291   1.029
  656W        W 4400   1.929   8.792  10.528
  657W        W 4401   8.619   7.223   2.301
  658W        W 4402   9.829   1.365   0.259
  659W        W 4403   3.300   5.080   8.365
  660W        W 4404   2.328   2.098   1.020
  661W        W 4405   9.322   7.656   2.973
  662W        W 4406   6.705   6.044   8.740
  663W        W 4407   5.240   5.775   9.074
  664W        W 4408   7.607   5.697   2.144
  665W        W 4409   4.846   2.688  11.259
  666W        W 4410   9.091   2.291   1.387
  667W        W 4411   5.661   5.603   1.087
  668W        W 4412   5.900   8.619   1.501
  669W        W 4413   4.053   3.271   2.304
  670W        W 4414   6.087   0.295   2.467
  671W        W 4415   9.481   9.422   8.928
  672W        W 4416   3.821   0.037   1.698
  673W        W 4417   4.980   3.249   3.647
  674W        W 4418  10.071   3.635   1.703
  675W        W 4419   1.211   4.225   1.951
  676W        W 4420   0.457   3.443   3.515
  677W        W 4421   8.053   8.627  11.009
  678W        W 4422   6.512   3.603  11.726
  679W        W 4423   5.345  10.379   2.912
  680W        W 4424   5.060   6.064   1.412
  681W        W 4425   8.003   1.771   0.805
  682W        W 4426   0.828   0.947  11.803
  683W        W 4427   9.829   6.980   0.929
  684W        W 4428   1.945   3.692  11.917
  685W        W 4429   6.536   0.588   2.167
  686W        W 4430   0.286   2.090   1.848
  687W        W 4431   0.347   3.956  10.538
  688W        W 4432   6.224   4.682   0.503
  689W        W 4433   9.635   0.597   0.087
  690W        W 4434   0.509   4.735   1.950
  691W        W 4435   9.920   2.308   1.704
  692W        W 4436  10.257   7.798   9.832
  693W        W 4437   6.734   7.262   2.203
  694W        W 4438   0.822   8.580   2.241
  695W        W 4439   2.340   1.560   9.994
  696W        W 4440   8.628   6.527   1.896
  697W        W 4441   4.792   0.345   3.427
  698W        W 4442   1.910  10.439   3.377
  699W        W 4443   0.279   4.819  11.120
  700W        W 4444   7.212   1.883   8.511
  701W        W 4445   2.025   3.965   9.334
  702W        W 4446   3.726   7.623   2.600
  703W        W 4447   8.934   3.109   0.559
  704W        W 4448   7.816   3.100   3.118
  705W        W 4449   3.828   0.130   3.548
  706W        W 4450   8.067   8.385   3.090
  707W        W 4451   4.767   0.343   0.025
  708W        W 4452   5.210   6.032   1.933
  709W        W 4453   8.490   9.517   2.702
  710W        W 4454   1.354   5.579   8.459
  711W        W 4455   5.610   3.430   8.981
  712W        W 4456   7.900   5.266   9.110
  713W        W 4457   0.980   8.071   9.507
  714W        W 4458   2.322   6.984   8.888
  715W        W 4459   6.988  10.436   8.542
  716W        W 4460   7.141   7.399   1.891
  717W        W 4461   1.635  10.327   2.402
  718W        W 4462   3.213   0.338   0.789
  719W        W 4463   5.177   7.876  10.836
  720W        W 4464   7.103   4.221  10.923
  721W        W 4465   8.431   8.867   9.277
  722W        W 4466   5.685   8.924   2.192
  723W        W 4467   9.743   6.946   9.078
  724W        W 4468   5.133   7.161   0.476
  725W        W 4469   5.511   5.146   2.626
  726W        W 4470   6.421   7.423   0.386
  727W        W 4471   8.198   4.868   8.500
  728W        W 4472   6.406   7.396  11.188
  729W        W 4473   7.722   0.530   9.947
  730W        W 4474   1.407   1.433   1.755
  731W        W 4475   0.298   7.906   2.285
  732W        W 4476   1.574   8.393   1.647
  733W        W 4477   6.042   4.236  11.476
  734W        W 4478   0.093   4.707   0.426
  735W        W 4479   3.644   9.932   9.988
  736W        W 4480   9.539   5.273  10.971
  737W        W 4481   9.725   0.130   9.990
  738W        W 4482   3.779   1.911   0.422
  739W        W 4483   1.259   3.797   0.032
  740W        W 4484   0.421   5.726  11.041
  741W        W 4485   9.917   2.573   3.415
  742W        W 4486   1.080   7.898   3.258
  743W        W 4487   5.669   1.849   0.032
  744W        W 4488   2.144   9.259   8.963
  745W        W 4489   7.559   6.658   1.098
  746W        W 4490   5.645   9.556   8.842
  747W        W 4491   5.689   2.198   2.927
  748W        W 4492  10.042   3.509  10.702
  749W        W 4493   7.459   9.788   8.899
  750W        W 4494   1.764   7.589  11.818
  751W        W 4495   1.442   0.069  11.298
  752W        W 4496   4.319   6.664   1.603
  753W        W 4497   9.983   8.808  10.002
  754W        W 4498   0.584  10.494  10.797
  755W        W 4499   4.188  10.067   2.396
  756W        W 4500   5.338  10.050   9.521
  757W        W 4501   4.496   1.304   8.729
  758W        W 4502   0.448   0.828  11.000
  759W        W 4503   9.389   9.874   9.460
  760W        W 4504   2.068   3.186   0.020
  761W        W 4505   9.022   2.712  11.256
  762W        W 4506   7.289   7.934   9.104
  763W        W 4507   3.286   7.911   2.287
  764W        W 4508   1.352   1.974  10.732
  765W        W 4509   6.982   2.612   1.867
  766W        W 4510   8.971   3.132   0.057
  767W        W 4511   2.589  10.477   8.972
  768W        W 4512   2.172   8.953  11.793
  769W        W 4513   6.570   4.061   1.006
  770W        W 4514   9.896   9.982   9.280
  771W        W 4515   3.064   6.259   3.725
  772W        W 4516   1.700  10.408   1.281
  773W        W 4517   2.134   9.420   2.723
  774W        W 4518   9.611   8.456   0.293
  775W        W 4519   3.348   1.927  10.356
  776W        W 4520   1.303   0.670   1.196
  777W        W 4521   7.414   8.124  10.101
  778W        W 4522   2.752   6.436  10.969
  779W        W 4523   3.791   4.780   0.570
  780W        W 4524   7.695   5.774   1.323
  781W        W 4525   6.173   7.035  11.473
  782W        W 4526   0.353   2.305   1.393
  783W        W 4527   6.159   5.488   0.989
  784W        W 4528   5.544   6.019  10.229
  785W        W 4529   5.064   3.321   2.219
  786W        W 4530   0.846   6.195  11.500
  787W        W 4531   5.772   1.242  10.242
  788W        W 4532   6.343   9.554   3.286
  789W        W 4533   5.592   6.734   2.803
  790W        W 4534   0.151   2.138   8.614
  791W        W 4535   4.298   3.087   1.869
  792W        W 4536   6.650   0.347   1.347
  793W        W 4537   2.680   5.616   9.004
  794W        W 4538   0.150   9.434   3.303
  795W        W 4539   3.252   0.780   1.716
  796W        W 4540   0.261   6.561  10.582
  797W        W 4541   3.108   4.288   2.777
  798W        W 4542   4.265   9.338   8.868
  799W        W 4543   1.220   1.896   2.970
  800W        W 4544   3.006   4.300   8.566
  801W        W 4545   8.266   1.063  10.997
  802W        W 4546   7.254   2.823   0.019
  803W        W 4547   5.191   6.517   1.172
  804W        W 4548   7.229   4.218   8.550
  805W        W 4549  10.014   3.974  10.902
  806W        W 4550   4.781   0.352  11.510
  807W        W 4551   4.160   2.771   9.601
  808W        W 4552   9.001   0.224   8.555
  809W        W 4553   6.784   5.339   1.296
  810W        W 4554   9.334   4.098   1.366
  811W        W 4555   8.962   7.912   1.792
  812W        W 4556   7.032   7.563  10.377
  813W        W 4557   0.942   0.827  10.227
  814W        W 4558   3.723   4.014   3.757
  815W        W 4559   4.673   9.335  10.944
  816W        W 4560   7.553   7.336   3.631
  817W        W 4561  10.255   9.478  10.489
  818W        W 4562   6.950   3.680   9.529
  819W        W 4563  10.238   7.447  10.539
  820W        W 4564   5.625   2.243  11.190
  821W        W 4565   1.068   1.430   8.983
  822W        W 4566   0.140   5.560   9.519
  823W        W 4567   5.151   0.960   3.502
  824W        W 4568   3.596   4.239   1.824
  825W        W 4569   3.747   7.833   2.100
  826W        W 4570   7.097   1.203   0.825
  827W        W 4571   5.990   8.386  11.481
  828W        W 4572   2.606   6.914   2.973
  829W        W 4573   6.718   1.487   2.231
  830W        W 4574   8.055   2.875  11.220
  831W        W 4575   4.493   1.632   0.881
  832W        W 4576   8.549   9.493  10.569
  833W        W 4577   2.684   2.638   9.433
  834W        W 4578   7.931  10.181  10.089
  835W        W 4579   2.581   0.691   3.383
  836W        W 4580   7.411   5.561   8.584
  837W        W 4581   7.927   6.548  11.193
  838W        W 4582   6.039   3.284   0.933
  839W        W 4583   5.619   6.746   1.924
  840W        W 4584   9.235   1.080   2.100
  841W        W 4585   7.115   4.721   0.235
  842W        W 4586   4.849   6.179   0.355
  843W        W 4587   1.086   9.679  11.300
  844W        W 4588   0.740   9.857   2.495
  845W        W 4589   4.772   4.721   0.423
  846W        W 4590   4.748   3.713   9.511
  847W        W 4591   2.227   7.357  11.749
  848W        W 4592   6.199   4.266  11.959
  849W        W 4593   9.816  10.048   3.255
  850W        W 4594   6.571   8.354  10.373
  851W        W 4595   2.890   2.684  10.302
  852W        W 4596   7.882   4.605   8.178
  853W        W 4597   3.362   5.719   2.822
  854W        W 4598   1.884   1.837   2.283
  855W        W 4599   3.098   6.460   2.202
  856W        W 4600   4.067   8.614  11.433
  857W        W 4601   3.350   8.522   1.442
  858W        W 4602   2.124   2.422   2.315
  859W        W 4603   7.746   2.473   9.993
  860W        W 4604   2.318   3.840   3.149
  861W        W 4605   6.673   7.060  11.435
  862W        W 4606   0.493   8.470   3.282
  863W        W 4607   2.754   6.013   0.066
  864W        W 4608   6.669   4.798   2.412
  865W        W 4609   1.311   7.275  11.656
  866W        W 4610   8.906   7.469  10.870
  867W        W 4611   1.166   9.335   3.042
  868W        W 4612   3.658   2.755  10.031
  869W        W 4613   8.065   6.464  10.711
  870W        W 4614   6.452   3.241   0.552
  871W        W 4615   8.662   3.590   2.065
  872W        W 4616   9.530   6.634   1.166
  873W        W 4617   4.182   9.814  10.952
  874W        W 4618   1.439   0.535   2.319
  875W        W 4619   7.888   3.283  10.490
  876W        W 4620   0.327   3.223   9.120
  877W        W 4621   1.740   5.094   3.261
  878W        W 4622   4.117   0.410  10.744
  879W        W 4623   2.593   6.529   2.167
  880W        W 4624   0.525   0.901   9.920
  881W        W 4625   7.521   9.964   1.037
  882W        W 4626   2.061   1.013  11.805
  883W        W 4627   7.426   4.968   9.797
  884W        W 4628   8.460   4.657  10.789
  885W        W 4629  10.050   0.919  10.612
  886W        W 4630   9.649   6.636   2.184
  887W        W 4631   9.379   6.128  10.742
  888W        W 4632   4.994   2.604   8.985
  889W        W 4633   8.459   4.570   8.843
  890W        W 4634   4.683   2.207  11.443
  891W        W 4635  10.252   7.981   1.434
  892W        W 4636   9.087   2.835   0.968
  893W        W 4637   6.564   5.123   0.876
  894W        W 4638   8.179   3.622   8.931
  895W        W 4639  10.412   3.256   9.426
  896W        W 4640   0.681   9.754  10.457
  897W        W 4641   0.872   0.942   1.217
  898W        W 4642   8.115   4.786  11.224
  899W        W 4643   9.397   9.423  10.468
  900W        W 4644   0.494   7.564   0.835
  901W        W 4645   3.996   7.684   1.289
  902W        W 4646   3.580  10.029   0.478
  903W        W 4647   4.742   1.712   8.941
  904W        W 4648   5.620   9.393  11.753
  905W        W 4649   4.271   3.631   0.675
  906W        W 4650   7.549   7.629  10.308
  907W        W 4651   0.823   8.056   2.408
  908W        W 4652   2.553   1.170  11.464
  909W        W 4653   0.944   9.143   1.884
  910W        W 4654   0.770   3.061   2.327
  911W        W 4655   8.006   9.307   3.170
  912W        W 4656   7.452   1.028   3.466
  913W        W 4657   8.538   0.513   0.622
  914W        W 4658   8.416   1.970  11.950
  915W        W 4659   6.994   1.480   0.417
  916W        W 4660   6.437   2.733   3.255
  917W        W 4661   2.227   9.360  11.272
  918W        W 4662   8.103   1.380   9.171
  919W        W 4663   1.715   7.215   8.874
  920W        W 4664   2.151   4.103  10.743
  921W        W 4665   6.513   0.731   0.399
  922W        W 4666   9.885   2.739  11.120
  923W        W 4667   6.407   6.812  10.540
  924W        W 4668   0.940   8.753  10.356
  925W        W 4669   3.524   0.952   1.324
  926W        W 4670   3.324   6.809   0.215
  927W        W 4671  10.017   7.350  11.859
  928W        W 4672   8.865   4.206  10.481
  929W        W 4673   7.015   6.982   9.968
  930W        W 4674   1.520   8.193  11.923
  931W        W 4675   9.067   9.486  11.829
  932W        W 4676   0.580   9.129  11.135
  933W        W 4677   5.485   6.653   4.074
  934W        W 4678   8.633   9.960   8.362
  935W        W 4679   0.573   4.833   0.544
  936W        W 4680   9.367   6.177   8.745
  937W        W 4681   6.618   3.762   1.424
  938W        W 4682   9.440   6.404  10.288
  939W        W 4683   4.378  10.345   2.898
  940W        W 4684   3.876   7.299   2.205
  941W        W 4685   8.410   0.732  11.363
  942W        W 4686   4.558   5.774  11.897
  943W        W 4687   8.732   9.327   2.178
  944W        W 4688   3.678   6.054   1.290
  945W        W 4689   8.314   9.441   0.882
  946W        W 4690   5.196   5.240   9.553
  947W        W 4691   7.914   4.057   1.137
  948W        W 4692   1.831   1.610   0.533
  949W        W 4693   5.104   5.223   0.829
  950W        W 4694   1.764   4.015   3.135
  951W        W 4695   3.300   8.359   9.522
  952W        W 4696   9.937   3.148   9.219
  953W        W 4697   6.083   2.444  10.354
  954W        W 4698   1.882   9.386  10.828
  955W        W 4699   5.606   6.487   2.364
  956W        W 4700   2.609   9.970   9.112
  957W        W 4701   0.982   9.047   2.404
  958W        W 4702   3.824   9.382  11.767
  959W        W 4703   2.663   8.066   3.330
  960W        W 4704   4.578   4.055   8.904
  961W        W 4705   3.695   7.556   3.450
  962W        W 4706   2.397   0.289  11.815
  963W        W 4707   5.669   8.029  11.309
  964W        W 4708   1.449   5.579   2.469
  965W        W 4709   5.261   0.962  11.364
  966W        W 4710   7.491   6.965   8.645
  967W        W 4711   2.902   3.193   8.910
  968W        W 4712   2.638   8.944   9.993
  969W        W 4713   5.646   7.558   8.869
  970W        W 4714   4.082   2.223   8.883
  971W        W 4715   5.957   6.791   9.498
  972W        W 4716   9.845  10.285  11.455
  973W        W 4717   4.237   0.327   2.742
  974W        W 4718   7.378   0.984   2.953
  975W        W 4719   4.232   8.575   2.721
  976W        W 4720   1.862   5.081   9.992
  977W        W 4721   8.886   4.541   2.020
  978W        W 4722   3.203   6.115   9.650
  979W        W 4723   9.014   0.843  11.417
  980W        W 4724   5.545   1.681  10.522
  981W        W 4725   2.802   8.090   1.789
  982W        W 4726   6.646   8.120   2.787
  983W        W 4727   6.655  10.033   1.021
  984W        W 4728   6.700   4.452   0.637
  985W        W 4729   4.820   9.821   0.887
  986W        W 4730  10.410   1.431   0.836
  987W        W 4731  10.312   4.693  11.375
  988W        W 4732   3.548   5.267   9.409
  989W        W 4733   5.459   4.336   1.668
  990W        W 4734   0.152   0.210   2.121
  991W        W 4735   0.837   6.998   3.639
  992W        W 4736   4.569   2.667   2.763
  993W        W 4737   1.165   6.108  10.857
  994W        W 4738   9.115   9.710   2.134
  995W        W 4739   8.806   9.873  11.521
  996W        W 4740   6.865   8.336   2.362
  997W        W 4741   0.233   9.226   2.424
  998W        W 4742   8.947   0.052  10.492
  999W        W 4743  10.306   3.255  11.359
 1000W        W 4744   2.331   2.066   2.032
 1001W        W 4745   7.835   3.292   1.115
 1002W        W 4746   0.790   0.512  11.564
 1003W        W 4747   4.975   4.494   3.058
 1004W        W 4748   2.292   7.836   0.365
 1005W        W 4749   9.871   9.245   2.607
 1006W        W 4750   4.055   3.945   9.136
 1007W        W 4751   5.346   7.902   2.660
 1008W        W 4752   6.588   5.704  11.729
 1009W        W 4753   5.942   2.243  10.782
 1010W        W 4754   5.698   8.562   0.712
 1011W        W 4755  10.309  10.024  11.785
 1012W        W 4756   1.684   9.061   9.126
 1013W        W 4757   2.598   2.613   3.601
 1014W        W 4758   7.397   1.336   1.705
 1015W        W 4759   1.131   1.855   1.619
 1016W        W 4760   3.140   6.128  11.769
 1017W        W 4761   7.927   9.138   0.782
 1018W        W 4762   3.541   7.695   1.645
 1019W        W 4763   3.669   4.702   8.211
 1020W        W 4764   7.095   4.738  10.393
 1021W        W 4765   9.387   3.732  10.145
 1022W        W 4766   8.558   5.661   3.093
 1023W        W 4767   3.996   4.435   1.564
 1024W        W 4768   9.165   3.587  11.352
 1025W        W 4769   9.535   6.348   0.158
 1026W        W 4770   2.532   2.689   3.090
 1027W        W 4771   9.324   7.830  11.503
 1028W        W 4772   8.386  10.194   0.203
 1029W        W 4773   5.543  10.481   8.883
 1030W        W 4774   5.807   9.850   9.591
 1031W        W 4775   1.333   0.770   9.525
 1032W        W 4776   1.243   5.086   2.997
 1033W        W 4777   5.658  10.366   1.956
 1034W        W 4778   5.756   0.668   1.326
 1035W        W 4779   1.889   8.568   3.166
 1036W        W 4780   1.164   1.071   3.663
 1037W        W 4781  10.447   1.781  10.112
 1038W        W 4782   2.307   3.669  11.078
 1039W        W 4783   8.880   5.743   2.673
 1040W        W 4784   8.107   9.269   9.824
 1041W        W 4785   5.215   3.531   1.737
 1042W        W 4786   1.897   8.473  10.137
 1043W        W 4787   5.586   3.700  11.962
 1044W        W 4788   8.327   3.313  10.820
 1045W        W 4789   6.646   8.540   9.838
 1046W        W 4790   2.796   0.385   9.778
 1047W        W 4791   7.533   0.289   2.293
 1048W        W 4792  10.254   5.083   3.224
 1049W        W 4793   1.244   5.952   3.268
 1050W        W 4794   4.586   1.887  11.044
 1051W        W 4795   4.277   3.318  11.261
 1052W        W 4796   8.305  10.251   8.798
 1053W        W 4797   9.727   4.012   1.698
 1054W        W 4798  10.166   5.986   9.024
 1055W        W 4799   2.560   4.521   8.747
 1056W        W 4800   6.668   7.548   1.751
 1057W        W 4801   5.783   6.193  11.512
 1058W        W 4802   6.865   5.157   9.539
 1059W        W 4803   0.918   3.570  10.817
 1060W        W 4804   4.066   0.206  11.216
 1061W        W 4805  10.007   3.231   9.759
 1062W        W 4806   0.744   8.031   2.919
 1063W        W 4807   1.359   9.986  10.607
 1064W        W 4808   0.590   0.543   9.141
 1065W        W 4809   7.028   1.106   8.919
 1066W        W 4810   0.769   2.616   3.030
 1067W        W 4811   8.698   7.309  11.851
 1068W        W 4812   7.141   3.374   8.942
 1069W        W 4813   4.425   0.000   2.409
 1070W        W 4814   7.845   5.181  11.435
 1071W        W 4815   9.559   7.123  10.996
 1072W        W 4816   4.142  10.085  10.024
 1073W        W 4817   7.000   6.093   9.620
 1074W        W 4818   0.115   7.470   9.573
 1075W        W 4819   7.108   4.648   4.266
 1076W        W 4820   7.456   0.859  10.902
 1077W        W 4821   5.257   8.296   0.487
 1078W        W 4822   4.751   9.321   0.923
 1079W        W 4823   9.294   1.600   1.981
 1080W        W 4824   5.146   8.956   1.967
 1081W        W 4825   3.632   8.562   8.931
 1082W        W 4826   6.938   0.176  11.824
 1083W        W 4827   9.898   1.844   1.472
 1084W        W 4828   7.574   5.404  10.999
 1085W        W 4829   8.666   6.821   1.468
 1086W        W 4830   5.782   4.640   1.371
 1087W        W 4831   5.090  10.448   1.536
 1088W        W 4832   8.353   6.210   2.178
 1089W        W 4833   6.133   3.687   1.715
 1090W        W 4834  10.379   1.263   2.708
 1091W        W 4835   3.559   2.741   1.852
 1092W        W 4836   5.263   8.990  11.460
 1093W        W 4837   1.750   7.143   9.778
 1094W        W 4838   9.858   7.059   2.975
 1095W        W 4839   3.683   9.604   0.210
 1096W        W 4840   6.866   2.228  10.684
 1097W        W 4841   9.419   1.215   9.983
 1098W        W 4842   5.338   0.420  10.603
 1099W        W 4843   3.278  10.180  10.895
 1100W        W 4844   8.150   8.389   0.310
 1101W        W 4845   6.466   3.327   2.788
 1102W        W 4846   4.627   7.868   2.324
 1103W        W 4847   2.315   8.360   1.373
 1104W        W 4848   6.083   9.675  10.455
 1105W        W 4849   6.093   1.039   0.174
 1106W        W 4850   3.296   0.499   2.780
 1107W        W 4851   3.902   4.643   2.725
 1108W        W 4852   2.853   3.558  11.743
 1109W        W 4853   5.286   1.343  10.993
 1110W        W 4854   2.937   4.593   9.608
 1111W        W 4855   6.275   1.429  10.498
 1112W        W 4856   3.201   4.571  11.557
 1113W        W 4857   6.570  10.229   0.552
 1114W        W 4858   9.867   1.395  10.690
 1115W        W 4859   0.133   8.321   0.381
 1116W        W 4860   3.409   3.659  10.381
 1117W        W 4861   0.181   6.186   9.874
 1118W        W 4862   4.956   5.636  10.275
 1119W        W 4863   6.165   6.502   1.219
 1120W        W 4864   5.657   3.135  11.162
 1121W        W 4865   4.698   9.099   9.140
 1122W        W 4866   9.528   9.587   0.034
 1123W        W 4867   4.993   4.521   1.857
 1124W        W 4868   1.744   6.019   9.905
 1125W        W 4869   2.205   9.481   9.848
 1126W        W 4870   0.372   2.765   1.172
 1127W        W 4871   2.971   5.943   0.547
 1128W        W 4872   2.248   0.928  10.561
 1129W        W 4873   0.192   1.674  11.076
 1130W        W 4874   3.565   1.707  11.992
 1131W        W 4875   9.973   6.150   1.355
 1132W        W 4876   8.066   7.277   8.615
 1133W        W 4877   5.976   7.474   1.516
 1134W        W 4878   3.680   3.513   1.461
 1135W        W 4879   8.478   5.910   9.577
 1136W        W 4880   1.026   5.954   9.503
 1137W        W 4881   2.800   8.883   2.165
 1138W        W 4882   4.809   3.154   2.709
 1139W        W 4883   9.892   6.012   0.003
 1140W        W 4884   4.999   4.195   8.661
 1141W        W 4885  10.386   7.234   0.206
 1142W        W 4886   9.570   7.057  11.936
 1143W        W 4887   7.582   5.779  11.915
 1144W        W 4888   3.713   1.426   9.353
 1145W        W 4889   0.781   7.039  10.578
 1146W        W 4890   9.186   1.733  10.811
 1147W        W 4891   8.942   3.317   1.078
 1148W        W 4892  10.318   0.469   0.712
 1149W        W 4893   0.291   6.972  10.251
 1150W        W 4894   8.417   5.038   9.632
 1151W        W 4895   0.269   2.678   3.131
 1152W        W 4896   4.410   9.535  10.122
 1153W        W 4897   7.905  10.233   9.572
 1154W        W 4898   2.692   5.658   1.721
 1155W        W 4899   7.188   7.014   0.207
 1156W        W 4900   5.440   7.286   3.704
 1157W        W 4901   8.362  10.486  11.779
 1158W        W 4902   6.473   1.381   9.614
 1159W        W 4903   1.792   4.274   0.623
 1160W        W 4904   9.903   8.896  11.546
 1161W        W 4905   3.513   7.549   1.161
 1162W        W 4906   1.597   3.206   3.044
 1163W        W 4907   6.983   6.040   0.954
 1164W        W 4908   0.483   2.105   0.932
 1165W        W 4909   7.182   9.329   3.297
 1166W        W 4910   2.676   1.934   9.909
 1167W        W 4911   3.706   8.862   0.901
 1168W        W 4912   1.359   0.871  10.532
 1169W        W 4913   9.976   5.695  10.303
 1170W        W 4914   8.757  10.026  10.537
 1171W        W 4915   3.122   9.809  11.349
 1172W        W 4916   1.827   5.746  11.230
 1173W        W 4917   0.963   1.359   3.301
 1174W        W 4918   9.540   6.999   3.401
 1175W        W 4919  10.340   9.866   1.692
 1176W        W 4920   5.747   7.014   2.357
 1177W        W 4921   7.397   5.653   9.104
 1178W        W 4922   2.854   4.819   2.810
 1179W        W 4923   9.530   3.536   3.310
 1180W        W 4924   9.548   4.505   0.420
 1181W        W 4925   5.630   1.328   8.679
 1182W        W 4926   7.057   3.974   2.410
 1183W        W 4927   5.641   3.742   1.980
 1184W        W 4928   7.684   3.828  11.867
 1185W        W 4929   7.168   2.655  10.623
 1186W        W 4930  10.422   4.368   0.771
 1187W        W 4931   7.194   1.229  11.867
 1188W        W 4932   2.926   2.947   8.421
 1189W        W 4933   5.564   2.205   8.762
 1190W        W 4934   8.126   1.817   2.934
 1191W        W 4935   3.326   0.513   2.252
 1192W        W 4936   7.939   7.382   2.690
 1193W        W 4937   0.277   1.347   9.835
 1194W        W 4938   2.357   1.876   8.607
 1195W        W 4939   0.630   8.897   0.930
 1196W        W 4940   6.178   6.005   1.041
 1197W        W 4941   9.077   3.745  10.553
 1198W        W 4942   4.264   1.170   0.845
 1199W        W 4943   2.661   3.775   0.623
 1200W        W 4944   7.889   5.104   0.214
 1201W        W 4945   7.847   8.287  11.332
 1202W        W 4946   7.930   6.606  11.694
 1203W        W 4947   1.200   7.394   3.078
 1204W        W 4948   1.444   6.505  11.001
 1205W        W 4949   7.608   7.855  11.062
 1206W        W 4950   1.635   2.693   3.238
 1207W        W 4951   6.052   1.961   0.734
 1208W        W 4952   2.186   8.575   2.291
 1209W        W 4953   6.915   7.919  10.006
 1210W        W 4954   1.372   5.563   9.436
 1211W        W 4955   1.868   5.908  10.404
 1212W        W 4956   1.735   7.719   8.759
 1213W        W 4957   7.191   1.484  11.321
 1214W        W 4958   2.279   3.791   8.887
 1215W        W 4959  10.022   3.815  10.278
 1216W        W 4960   0.030   9.368   1.416
 1217W        W 4961   9.846   5.506   9.830
 1218W        W 4962   7.741   9.306   8.547
 1219W        W 4963   3.174   2.760   9.352
 1220W        W 4964   7.292   4.422   0.600
 1221W        W 4965   2.948   7.560   8.626
 1222W        W 4966   4.038   7.930   3.369
 1223W        W 4967   3.535   3.149   3.238
 1224W        W 4968   8.199   4.684   0.167
 1225W        W 4969   5.613   1.672   2.505
 1226W        W 4970   3.127   4.087  10.811
 1227W        W 4971   9.527   0.708  11.587
 1228W        W 4972   5.649   8.464   0.208
 1229W        W 4973   2.158   7.338  11.238
 1230W        W 4974   4.590   5.026  10.804
 1231W        W 4975   3.745   1.330  10.374
 1232W        W 4976   2.255   8.330   9.058
 1233W        W 4977   8.950   0.051   1.872
 1234W        W 4978   6.025   5.804   9.568
 1235W        W 4979   0.861  10.014   3.366
 1236W        W 4980   5.711   9.584   2.998
 1237W        W 4981   9.412   1.730   1.494
 1238W        W 4982   3.513   1.711   0.797
 1239W        W 4983   6.949   0.324   9.550
 1240W        W 4984   9.482   0.954   0.898
 1241W        W 4985   9.368   9.576   2.953
 1242W        W 4986   9.333   5.101   9.210
 1243W        W 4987   1.482   7.791   2.949
 1244W        W 4988   2.184   5.799   2.333
 1245W        W 4989   6.175   6.458   3.892
 1246W        W 4990   5.245   3.790   2.316
 1247W        W 4991   0.510   8.283   9.500
 1248W        W 4992   6.218   2.708  10.763
 1249W        W 4993   4.957   3.705   7.812
 1250W        W 4994   4.271   3.901  10.343
 1251W        W 4995   7.395   6.798   3.666
 1252W        W 4996   5.379   7.080  10.568
 1253W        W 4997   5.968   8.397   9.526
 1254W        W 4998   7.149   7.361   0.654
 1255W        W 4999   5.074   0.713   2.143
 1256W        W 5000   4.757   2.706  10.748
 1257W        W 5001   3.346   2.810   0.262
 1258W        W 5002   7.949   0.941   8.891
 1259W        W 5003   5.994   3.911  10.201
 1260W        W 5004   2.176   5.759   8.976
 1261W        W 5005   2.764   4.700   1.950
 1262W        W 5006   9.711   7.144   1.425
 1263W        W 5007   8.565   3.361   3.365
 1264W        W 5008   4.982   7.983   9.813
 1265W        W 5009   1.692   4.696   9.696
 1266W        W 5010   9.105   8.190   9.241
 1267W        W 5011   7.461   5.217   3.617
 1268W        W 5012   6.503   7.362   2.737
 1269W        W 5013   4.526   8.143  10.017
 1270W        W 5014   4.495   9.684   8.520
 1271W        W 5015   7.794  10.422  11.952
 1272W        W 5016   4.133   1.406   0.391
 1273W        W 5017   1.254   6.459   0.294
 1274W        W 5018   8.107   8.908   0.332
 1275W        W 5019   0.137   6.866   8.626
 1276W        W 5020   4.614   5.019   2.679
 1277W        W 5021   9.359   2.438   9.967
 1278W        W 5022  10.140   0.437   9.913
 1279W        W 5023   1.827   1.663  10.050
 1280W        W 5024   1.286   2.203   1.163
 1281W        W 5025   7.989   8.824   3.345
 1282W        W 5026  10.272   6.482   9.662
 1283W        W 5027   0.470   3.466  10.595
 1284W        W 5028   7.047   5.374   0.775
 1285W        W 5029   5.603   9.391   1.447
 1286W        W 5030   3.481   8.364   3.231
 1287W        W 5031   7.468   5.025   0.476
 1288W        W 5032   7.223   9.294   1.909
 1289W        W 5033   9.148   1.354   0.206
 1290W        W 5034   2.839   4.021   3.270
 1291W        W 5035   9.767   0.519   1.827
 1292W        W 5036   1.830   5.564   0.249
 1293W        W 5037   3.100  10.476   9.629
 1294W        W 5038   1.837  10.329  11.521
 1295W        W 5039  10.278   1.924   2.076
 1296W        W 5040   6.874   7.601   1.233
 1297W        W 5041   6.486   3.538  10.741
 1298W        W 5042   8.744  10.440   9.438
 1299W        W 5043   3.228   5.975   2.322
 1300W        W 5044   4.463   4.617   0.827
 1301W        W 5045  10.499   5.433   2.357
 1302W        W 5046   3.080   0.675   3.228
 1303W        W 5047   6.713   5.558  10.841
 1304W        W 5048   8.905   7.643   0.367
 1305W        W 5049   8.467   8.610   3.324
 1306W        W 5050   2.407   0.296   9.423
 1307W        W 5051   8.417   1.817   0.440
 1308W        W 5052   0.745   2.373   8.570
 1309W        W 5053   0.714   4.156   2.226
 1310W        W 5054   6.944   2.184   8.844
 1311W        W 5055   4.652   7.087   1.657
 1312W        W 5056   0.375   6.416  11.911
 1313W        W 5057   3.205   7.599   3.305
 1314W        W 5058   4.139   7.874   9.781
 1315W        W 5059   2.512   9.584   8.780
 1316W        W 5060   7.663   6.529   1.559
 1317W        W 5061   6.850   2.317  11.744
 1318W        W 5062   1.168   7.559  11.256
 1319W        W 5063   4.596   9.936   2.684
 1320W        W 5064   7.858   6.037   4.156
 1321W        W 5065   4.850   1.322  11.247
 1322W        W 5066   6.567   5.858   2.744
 1323W        W 5067   9.914   7.470   1.802
 1324W        W 5068   6.501   0.954   9.319
 1325W        W 5069   2.384   1.450   9.025
 1326W        W 5070   4.763   6.522   1.819
 1327W        W 5071   4.620   6.153  10.378
 1328W        W 5072   6.984   9.442   1.450
 1329W        W 5073   4.154   4.699   9.962
 1330W        W 5074   2.707   3.218  10.864
 1331W        W 5075   4.197   0.346   1.187
 1332W        W 5076   7.699   8.314   0.526
 1333W        W 5077   9.378   0.223   9.538
 1334W        W 5078   2.812   1.449   9.816
 1335W        W 5079   3.194   4.096  11.312
 1336W        W 5080   7.434   9.749   0.442
 1337W        W 5081   1.245   6.532   1.710
 1338W        W 5082  10.456   0.143   1.149
 1339W        W 5083   8.839   3.159   9.530
 1340W        W 5084   6.081   7.374   3.066
 1341W        W 5085   5.083   7.424  10.065
 1342W        W 5086   7.714   7.321   9.929
 1343W        W 5087   3.812   2.252   1.795
 1344W        W 5088   2.583   3.173  11.947
 1345W        W 5089   3.956   2.633   8.584
 1346W        W 5090   7.889   7.031   9.524
 1347W        W 5091   3.870   3.645  11.043
 1348W        W 5092   6.086   0.369   0.820
 1349W        W 5093   2.192   4.355   8.431
 1350W        W 5094   6.199   0.023  10.830
 1351W        W 5095   7.522   2.940   2.304
 1352W        W 5096   5.555   4.360  11.413
 1353W        W 5097   8.200   5.776   3.864
 1354W        W 5098   8.997   7.706   9.326
 1355W        W 5099   4.715   7.238   9.482
 1356W        W 5100   7.941   1.152   1.941
 1357W        W 5101   7.855   8.357   9.856
 1358W        W 5102   3.699   1.403   1.493
 1359W        W 5103   7.419   7.419  11.267
 1360W        W 5104   6.568   6.871   2.724
 1361W        W 5105   8.507   4.549   3.118
 1362W        W 5106   7.920   5.094   8.062
 1363W        W 5107   4.578  10.358  10.068
 1364W        W 5108   5.754   4.649   2.928
 1365W        W 5109   9.703  10.443   1.269
 1366W        W 5110  10.081   0.512  11.823
 1367W        W 5111   5.103   6.143  11.046
 1368W        W 5112   2.297   6.270   3.758
 1369W        W 5113   1.937   1.120   8.832
 1370W        W 5114   1.806   3.202  10.993
 1371W        W 5115   4.087   2.376   0.462
 1372W        W 5116   9.448   0.476   8.607
 1373W        W 5117   2.876   4.015   2.380
 1374W        W 5118   8.950   2.705  10.744
 1375W        W 5119   4.478   6.773  11.818
 1376W        W 5120   0.140   9.309  11.291
 1377W        W 5121  10.312   6.379   2.502
 1378W        W 5122   5.816   7.688   1.954
 1379W        W 5123   2.653   9.908   3.234
 1380W        W 5124   8.377   4.166   9.562
 1381W        W 5125   5.729   8.312   1.148
 1382W        W 5126   4.716   3.254   9.706
 1383W        W 5127   2.632   1.211  10.273
 1384W        W 5128   7.798  10.339   1.246
 1385W        W 5129   8.298   0.248   0.232
 1386W        W 5130   7.127   8.811   3.315
 1387W        W 5131   7.849   9.370   2.659
 1388W        W 5132   2.266   9.843   1.414
 1389W        W 5133   6.000   2.949  10.331
 1390W        W 5134   7.181   7.851   1.651
 1391W        W 5135   1.709   2.650   9.536
 1392W        W 5136   5.423   0.837  10.902
 1393W        W 5137  10.026   0.570   3.126
 1394W        W 5138   1.268   0.535  11.401
 1395W        W 5139   8.550   1.799   1.426
 1396W        W 5140   2.433   2.196   9.541
 1397W        W 5141   1.943   3.304   1.525
 1398W        W 5142   5.718   8.222   2.740
 1399W        W 5143   0.998   2.336   9.571
 1400W        W 5144   0.711   2.871  11.437
 1401W        W 5145   7.690   1.978  10.261
 1402W        W 5146   5.449   0.822   3.097
 1403W        W 5147   3.946   5.638  10.208
 1404W        W 5148   2.912   4.536  10.973
 1405W        W 5149   8.953   6.217   2.844
 1406W        W 5150   5.570   2.039   0.973
 1407W        W 5151   1.622   8.062  10.059
 1408W        W 5152   2.640   7.060   3.471
 1409W        W 5153   7.698   1.310   3.809
 1410W        W 5154   2.789   3.742   1.948
 1411W        W 5155  10.359   3.071   8.928
 1412W        W 5156   9.100   6.672   2.653
 1413W        W 5157   1.208   3.326   0.237
 1414W        W 5158   5.555   0.896   8.413
 1415W        W 5159   3.576   3.221  10.673
 1416W        W 5160   1.429   2.259   9.323
 1417W        W 5161   0.445   6.890  10.936
 1418W        W 5162   2.143   7.686   1.191
 1419W        W 5163   1.339   4.318   8.999
 1420W        W 5164   2.580   2.673   0.843
 1421W        W 5165   9.097   5.556   9.250
 1422W        W 5166   0.292   4.132  11.936
 1423W        W 5167   2.421   0.869   1.923
 1424W        W 5168   2.381   6.098   9.790
 1425W        W 5169   5.016   3.781   9.037
 1426W        W 5170   8.897   5.293   0.434
 1427W        W 5171   6.210   5.488   0.072
 1428W        W 5172   1.460   5.096   1.949
 1429W        W 5173   0.262   0.559   0.984
 1430W        W 5174   6.191   8.387  10.030
 1431W        W 5175   0.321   0.382  11.370
 1432W        W 5176   9.492   4.152   0.059
 1433W        W 5177   7.981   8.750   1.686
 1434W        W 5178  10.273   8.398   3.152
 1435W        W 5179   4.820   4.563   1.366
 1436W        W 5180   0.942   0.328   0.323
 1437W        W 5181   8.834   9.861   3.068
 1438W        W 5182   1.078  10.359   0.180
 1439W        W 5183   7.994   4.633   2.423
 1440W        W 5184  10.378  10.060   9.051
 1441W        W 5185   8.877   5.588   9.734
 1442W        W 5186   8.838   9.050  11.978
 1443W        W 5187   4.779   1.229   0.733
 1444W        W 5188   7.952   6.504   2.639
 1445W        W 5189   5.432   2.154  10.734
 1446W        W 5190   4.205   5.856  10.632
 1447W        W 5191   2.209   2.189  11.135
 1448W        W 5192   5.232   4.238   3.626
 1449W        W 5193   3.716   5.889   2.210
 1450W        W 5194   1.753   9.579   8.960
 1451W        W 5195   5.276   0.051  10.984
 1452W        W 5196   6.135   9.891   2.958
 1453W        W 5197   2.172   6.551   1.865
 1454W        W 5198   8.158   5.772   8.466
 1455W        W 5199   1.641   4.602   0.264
 1456W        W 5200   7.627   3.276  11.935
 1457W        W 5201   2.833   5.745  10.384
 1458W        W 5202   6.636   6.632   3.164
 1459W        W 5203   6.813   2.059  10.194
 1460W        W 5204   5.720   3.745   2.490
 1461W        W 5205   5.180   1.760   0.821
 1462W        W 5206   3.801   3.551   9.383
 1463W        W 5207  10.226   6.043   0.905
 1464W        W 5208   4.222   1.426   9.582
 1465W        W 5209   2.991   0.888   2.388
 1466W        W 5210   3.563   0.139  11.285
 1467W        W 5211   4.594   0.298   9.819
 1468W        W 5212   1.698   3.165   2.526
 1469W        W 5213   1.011   8.347   0.427
 1470W        W 5214   3.548   6.707   8.673
 1471W        W 5215   2.268   5.477  11.994
 1472W        W 5216   6.444   5.264   2.590
 1473W        W 5217   2.347   0.220   3.407
 1474W        W 5218   7.518   1.503   0.738
 1475W        W 5219   9.730  10.123  10.331
 1476W        W 5220   9.589   2.211   1.275
 1477W        W 5221   1.766   7.263  10.408
 1478W        W 5222   0.812   4.191   3.261
 1479W        W 5223   1.679   7.617  11.303
 1480W        W 5224   8.536   5.296   1.272
 1481W        W 5225   5.712   7.127   4.102
 1482W        W 5226   4.550   8.146   8.962
 1483W        W 5227   9.782   7.651   9.383
 1484W        W 5228   4.990   7.907   8.809
 1485W        W 5229   8.743   5.828   0.970
 1486W        W 5230   3.276   6.343   1.449
 1487W        W 5231   6.857   8.092   8.871
 1488W        W 5232   8.989   3.354   1.581
 1489W        W 5233   9.495   4.720  10.956
 1490W        W 5234   2.743   4.632   0.697
 1491W        W 5235   9.858   2.192   0.209
 1492W        W 5236  10.371   6.102   0.272
 1493W        W 5237   3.162   5.644   1.916
 1494W        W 5238   7.870   7.163  10.406
 1495W        W 5239   6.159   0.512  10.750
 1496W        W 5240   7.850   9.747  11.456
 1497W        W 5241   3.955   8.386   3.097
 1498W        W 5242   0.250   8.557   9.141
 1499W        W 5243   5.312   4.492   1.200
 1500W        W 5244   8.480   6.367   1.266
 1501W        W 5245   7.670   9.574   3.559
 1502W        W 5246   3.711  10.074   9.110
 1503W        W 5247   8.581   1.010   2.828
 1504W        W 5248   4.267   1.488  11.095
 1505W        W 5249   3.572   4.318   0.432
 1506W        W 5250   4.527   6.950   0.634
 1507W        W 5251   8.468   9.021   2.515
 1508W        W 5252   2.056   7.710   2.182
 1509W        W 5253   8.479   8.274  11.949
 1510W        W 5254   1.720   2.140   2.830
 1511W        W 5255   5.665   1.293   0.248
 1512W        W 5256   7.009   7.554   3.530
 1513W        W 5257   0.194   5.940  11.887
 1514W        W 5258   9.433   5.041   1.249
 1515W        W 5259   4.267   1.106   9.982
 1516W        W 5260   0.003   8.414  10.983
 1517W        W 5261   9.344   0.548  10.476
 1518W        W 5262   3.137   6.966   2.142
 1519W        W 5263   7.662   4.168   8.296
 1520W        W 5264   1.462   5.489  11.465
 1521W        W 5265   5.137  10.478   3.354
 1522W        W 5266   9.545   5.448   0.944
 1523W        W 5267   9.026   5.832   3.182
 1524W        W 5268   8.765   7.045   2.773
 1525W        W 5269   3.702   8.627   2.693
 1526W        W 5270   2.741  10.424  11.588
 1527W        W 5271   3.503   2.771  10.968
 1528W        W 5272   7.279   2.310   9.764
 1529W        W 5273   3.197   9.208   3.616
 1530W        W 5274  10.374   6.241   2.984
 1531W        W 5275   1.831   3.715  10.887
 1532W        W 5276   7.491   6.110   9.415
 1533W        W 5277   6.037   7.431   2.564
 1534W        W 5278   5.619   8.305   3.632
 1535W        W 5279   2.233   5.795   1.438
 1536W        W 5280   5.542   6.853   0.404
 1537W        W 5281   3.278   1.145   3.350
 1538W        W 5282  10.337   6.464   9.130
 1539W        W 5283   6.773   8.473   0.294
 1540W        W 5284   9.821   5.237  10.457
 1541W        W 5285   4.471   7.550   1.480
 1542W        W 5286   3.672   6.683   9.171
 1543W        W 5287   1.463   5.553   2.992
 1544W        W 5288   5.593   3.092   9.383
 1545W        W 5289   7.561   8.906   1.957
 1546W        W 5290  10.164   5.999   9.880
 1547W        W 5291   9.848   6.032   8.586
 1548W        W 5292   6.154   9.886   9.972
 1549W        W 5293   9.871   3.273  11.134
 1550W        W 5294   6.088   6.477  11.808
 1551W        W 5295   4.508   7.477   1.992
 1552W        W 5296   2.365   7.586  10.084
 1553W        W 5297   4.473   7.249  11.077
 1554W        W 5298   5.589   1.295   9.226
 1555W        W 5299   7.240   4.456   9.014
 1556W        W 5300   7.675   6.955   0.335
 1557W        W 5301  10.318   4.965   2.510
 1558W        W 5302   8.914   6.262   3.455
 1559W        W 5303   8.092   1.270  11.460
 1560W        W 5304   6.759   5.693   9.848
 1561W        W 5305   1.489   1.912   1.977
 1562W        W 5306   4.880   5.629   9.405
 1563W        W 5307   5.123   1.209   3.003
 1564W        W 5308   3.594   3.735   8.935
 1565W        W 5309   7.483   6.755  11.884
 1566W        W 5310   5.679   2.798   1.589
 1567W        W 5311   3.681   5.886   3.175
 1568W        W 5312   6.117   5.931  11.817
 1569W        W 5313   2.839   0.739  11.484
 1570W        W 5314   7.367   2.362  11.762
 1571W        W 5315   5.297   9.314   2.944
 1572W        W 5316   9.688   5.449   9.319
 1573W        W 5317   2.140   8.044  10.107
 1574W        W 5318   8.074   4.453   3.952
 1575W        W 5319   9.587   0.472   0.586
 1576W        W 5320   4.592   0.742   0.823
 1577W        W 5321   2.205   4.069   0.860
 1578W        W 5322   1.342   9.404  11.636
 1579W        W 5323   1.057   8.384  10.710
 1580W        W 5324   1.605   0.760   0.797
 1581W        W 5325   7.803   1.144   2.449
 1582W        W 5326   9.183   5.570   3.598
 1583W        W 5327   1.856   9.236   0.339
 1584W        W 5328   9.899   0.248   2.705
 1585W        W 5329   1.347   8.413   9.255
 1586W        W 5330   8.830   0.812   9.060
 1587W        W 5331   6.549   5.037  11.055
 1588W        W 5332   8.981   7.897   3.373
 1589W        W 5333   5.419   7.106   8.755
 1590W        W 5334   1.781   8.095   9.122
 1591W        W 5335   6.363   2.423  11.937
 1592W        W 5336   1.228   1.142   0.032
 1593W        W 5337   3.353   8.744   0.440
 1594W        W 5338   5.708   0.192  11.456
 1595W        W 5339   7.109   6.602   1.502
 1596W        W 5340   8.005   7.678  10.630
 1597W        W 5341   9.264   2.383  10.474
 1598W        W 5342   9.864   6.149   2.304
 1599W        W 5343   7.248   2.926   0.909
 1600W        W 5344   0.958   5.162   0.581
 1601W        W 5345  10.344   4.504   1.262
 1602W        W 5346   3.564   3.648   9.822
 1603W        W 5347   8.964   3.595   0.280
 1604W        W 5348   6.020   5.198  10.128
 1605W        W 5349   9.762   8.155  10.724
 1606W        W 5350   8.872   4.368   2.567
 1607W        W 5351   7.404   6.587   1.972
 1608W        W 5352   1.304   5.736   9.927
 1609W        W 5353   0.044   8.767   2.289
 1610W        W 5354   7.599   8.109   1.450
 1611W        W 5355   6.950   4.541  11.808
 1612W        W 5356   5.480   6.228   2.800
 1613W        W 5357   8.188   0.672   9.712
 1614W        W 5358   6.011   9.173   1.737
 1615W        W 5359   5.310   9.890   0.886
 1616W        W 5360   7.662   9.561  11.022
 1617W        W 5361   7.081   3.597   2.074
 1618W        W 5362   4.723   3.632   0.930
 1619W        W 5363   8.505   1.489   9.960
 1620W        W 5364   8.421   3.808   2.451
 1621W        W 5365   2.513   1.647   0.889
 1622W        W 5366   4.121   6.581   9.385
 1623W        W 5367   3.355   2.303   9.619
 1624W        W 5368   9.640   3.472  11.559
 1625W        W 5369   6.138   0.322   1.376
 1626W        W 5370   5.212   3.921   9.509
 1627W        W 5371   4.902   9.033   2.858
 1628W        W 5372   3.359   7.528   3.819
 1629W        W 5373   9.415   9.780   1.702
 1630W        W 5374   1.678  10.412   2.911
 1631W        W 5375   8.468   2.789   9.482
 1632W        W 5376   4.107   4.119   1.950
 1633W        W 5377   1.311   9.429   9.230
 1634W        W 5378   2.823   7.364   0.489
 1635W        W 5379   8.958   3.151  11.019
 1636W        W 5380   5.056  10.492   0.286
 1637W        W 5381   1.231   2.774   1.436
 1638W        W 5382   8.532   5.546  10.554
 1639W        W 5383   2.677   6.004   2.914
 1640W        W 5384   0.209   2.721   9.123
 1641W        W 5385   6.972   6.048   3.580
 1642W        W 5386   4.455   5.672  10.233
 1643W        W 5387   4.320   1.373   3.541
 1644W        W 5388   4.068   6.133   2.904
 1645W        W 5389   7.172   3.204  11.695
 1646W        W 5390   5.931   5.624  10.413
 1647W        W 5391   1.364   6.941   2.866
 1648W        W 5392   0.923   2.696  10.183
 1649W        W 5393   7.238   3.718   2.869
 1650W        W 5394   4.985   5.179   0.330
 1651W        W 5395   7.046   0.346   1.691
 1652W        W 5396   6.032   2.436   2.210
 1653W        W 5397   5.580   2.441   1.959
 1654W        W 5398   7.835   5.689   8.839
 1655W        W 5399   2.161   7.780  11.467
 1656W        W 5400   8.534   0.699   1.516
 1657W        W 5401   5.500  10.235  11.458
 1658W        W 5402   4.782   8.082  11.698
 1659W        W 5403   4.604   5.937   1.181
 1660W        W 5404  10.334   3.076   2.955
 1661W        W 5405   1.928   1.372   9.270
 1662W        W 5406   4.750   3.657  10.495
 1663W        W 5407   0.510   5.230   0.900
 1664W        W 5408   0.536   9.349   0.702
 1665W        W 5409   9.825   2.349   9.783
 1666W        W 5410   2.727   7.890   2.841
 1667W        W 5411   1.232   6.552   2.230
 1668W        W 5412   0.958   9.366   8.415
 1669W        W 5413   6.136   1.044  11.421
 1670W        W 5414   2.204   6.823   2.325
 1671W        W 5415   2.125   4.307   0.136
 1672W        W 5416   0.371   6.542   8.954
 1673W        W 5417   3.939   3.202   3.570
 1674W        W 5418   5.474   3.372   3.706
 1675W        W 5419   4.710   1.269   2.627
 1676W        W 5420   5.169   1.220   1.492
 1677W        W 5421   3.927   8.931   3.037
 1678W        W 5422   1.593   9.184  10.456
 1679W        W 5423   1.114   8.469   1.409
 1680W        W 5424   6.193   1.393   2.316
 1681W        W 5425   3.809   2.831   0.548
 1682W        W 5426   7.572   3.091   9.185
 1683W        W 5427   1.355   2.457  11.582
 1684W        W 5428   5.107   2.235   0.617
 1685W        W 5429   6.349   7.306  10.455
 1686W        W 5430   9.821   1.792  11.454
 1687W        W 5431   0.993   1.397   1.431
 1688W        W 5432   6.374   1.988   1.558
 1689W        W 5433   5.685   8.512   3.162
 1690W        W 5434   4.210   6.729   2.401
 1691W        W 5435   2.283   0.898   2.844
 1692W        W 5436   5.649   3.273   1.781
 1693W        W 5437   7.351   6.908   0.710
 1694W        W 5438   4.473   2.194   0.064
 1695W        W 5439   2.725   5.663  11.257
 1696W        W 5440   7.616   4.083   3.023
 1697W        W 5441  10.243   5.732  11.794
 1698W        W 5442   8.056   1.660  11.790
 1699W        W 5443   5.661   3.206   3.267
 1700W        W 5444   7.902   1.944  10.736
 1701W        W 5445   2.091   4.201   1.839
 1702W        W 5446   5.523  10.270   0.396
 1703W        W 5447   2.229  10.427   9.753
 1704W        W 5448   5.245   2.037   2.687
 1705W        W 5449   2.312   5.145   0.376
 1706W        W 5450   4.769   7.166   8.993
 1707W        W 5451   2.837   9.036   9.002
 1708W        W 5452  10.080   9.414   1.681
 1709W        W 5453   6.962   6.561   0.030
 1710W        W 5454   5.657   2.198   0.488
 1711W        W 5455   9.674   1.794  10.961
 1712W        W 5456   5.589   7.306   1.211
 1713W        W 5457   0.280   4.716   0.947
 1714W        W 5458   9.876   8.058  11.211
 1715W        W 5459   7.345   9.678  11.508
 1716W        W 5460   4.163   9.128   0.722
 1717W        W 5461   9.262   5.471   0.091
 1718W        W 5462   4.618   8.227   2.697
 1719W        W 5463   0.251   2.864  10.887
 1720W        W 5464   6.410   2.473   0.849
 1721W        W 5465   3.320   0.740  10.015
 1722W        W 5466   2.798   1.417  11.869
 1723W        W 5467   0.688   5.070   2.747
 1724W        W 5468  10.256   3.197   0.312
 1725W        W 5469   2.672   7.234   9.784
 1726W        W 5470   2.911   9.020  10.479
 1727W        W 5471   2.843   6.968   0.151
 1728W        W 5472   7.668   7.970   0.955
 1729W        W 5473   0.780  10.075   2.033
 1730W        W 5474   3.940   5.204  11.453
 1731W        W 5475   6.176   2.408   1.331
 1732W        W 5476  10.253   6.487  10.627
 1733W        W 5477   6.261   8.551   0.339
 1734W        W 5478   4.156   6.866   0.247
 1735W        W 5479   2.150   6.106  10.769
 1736W        W 5480   2.628   5.536   2.215
 1737W        W 5481  10.483   6.998  10.733
 1738W        W 5482   5.086   3.118  10.891
 1739W        W 5483   3.053   1.870   1.716
 1740W        W 5484   7.435   7.156   2.715
 1741W        W 5485   6.074   3.366   2.429
 1742W        W 5486   0.281   6.201  11.443
 1743W        W 5487   7.538   8.620   1.455
 1744W        W 5488   9.114   7.094   2.379
 1745W        W 5489   8.688   4.811   0.368
 1746W        W 5490   1.167   7.548   9.358
 1747W        W 5491   4.337   9.983   0.934
 1748W        W 5492   2.483   9.906  11.935
 1749W        W 5493   4.138   2.240   1.407
 1750W        W 5494   7.713   4.820  11.778
 1751W        W 5495   9.169   3.490   2.933
 1752W        W 5496   2.817   6.116   9.008
 1753W        W 5497   0.501   7.355   0.352
 1754W        W 5498   1.506   1.951   9.741
 1755W        W 5499   9.123   7.524   0.804
 1756W        W 5500  10.415   0.808   2.906
 1757W        W 5501   4.967   3.331   1.338
 1758W        W 5502   2.303   3.496  11.598
 1759W        W 5503   9.862   1.356   2.655
 1760W        W 5504   4.993   1.236   8.992
 1761W        W 5505   4.313   3.719   2.194
 1762W        W 5506   9.843   8.363  11.829
 1763W        W 5507   7.430   4.063   1.644
 1764W        W 5508   2.668   3.546   2.399
 1765W        W 5509   4.614   7.244   3.426
 1766W        W 5510   3.261   1.378   9.583
 1767W        W 5511   0.381   8.068   9.037
 1768W        W 5512   8.319   7.042   3.123
 1769W        W 5513   5.914   8.901   8.813
 1770W        W 5514   3.531   6.419  11.927
 1771W        W 5515   2.435   5.228  11.160
 1772W        W 5516   2.917   9.907   1.284
 1773W        W 5517   3.529   4.524   1.386
 1774W        W 5518   6.996  10.472  11.345
 1775W        W 5519   2.878   7.632  10.081
 1776W        W 5520   9.546   2.643   2.005
 1777W        W 5521   5.133   8.311  10.569
 1778W        W 5522   2.730   8.625   8.669
 1779W        W 5523   0.585   3.520   1.622
 1780W        W 5524   5.485   4.698  10.129
 1781W        W 5525   2.300   7.219   2.687
 1782W        W 5526   4.084   6.688   8.861
 1783W        W 5527   5.339   7.996   1.254
 1784W        W 5528   0.069   5.723  11.411
 1785W        W 5529   7.551   0.458   9.076
 1786W        W 5530   5.491   2.643   9.130
 1787W        W 5531   5.697   9.551   0.929
 1788W        W 5532   3.029   2.228   1.357
 1789W        W 5533   8.881   8.561  11.845
 1790W        W 5534   3.294   1.477  11.095
 1791W        W 5535   2.851   6.231  10.503
 1792W        W 5536   8.667   1.939   3.777
 1793W        W 5537   1.153   6.970   0.402
 1794W        W 5538   5.968   6.965   1.368
 1795W        W 5539   2.109   4.266   2.853
 1796W        W 5540   7.129   8.180   1.250
 1797W        W 5541   5.717   5.595  10.914
 1798W        W 5542   4.190   2.835   0.187
 1799W        W 5543   5.943   1.193   1.888
 1800W        W 5544   6.145   6.160   0.264
 1801W        W 5545   5.209   2.872   0.260
 1802W        W 5546  10.495   2.121  11.073
 1803W        W 5547   3.115   2.737  11.310
 1804W        W 5548   6.636   1.888   2.547
 1805W        W 5549   9.874   9.858   1.414
 1806W        W 5550   4.858   9.863  11.692
 1807W        W 5551   7.417   7.289  11.790
 1808W        W 5552   6.072   1.635   9.289
 1809W        W 5553   9.431   8.500   2.282
 1810W        W 5554   3.885   3.640  10.532
 1811W        W 5555   4.914   7.503  11.098
 1812W        W 5556   3.696   9.528   1.499
 1813W        W 5557   3.576   2.673   3.019
 1814W        W 5558   5.155   3.406   9.407
 1815W        W 5559   4.589   6.899   1.197
 1816W        W 5560  10.496   9.123  11.896
 1817W        W 5561   1.907   0.392   9.457
 1818W        W 5562   3.574   9.006   1.385
 1819W        W 5563   6.144   0.641   9.580
 1820W        W 5564   2.047   3.772   1.266
 1821W        W 5565   3.544   2.238   1.350
 1822W        W 5566   5.557   6.061   9.723
 1823W        W 5567   4.192   9.149   9.833
 1824W        W 5568   5.761  10.065   0.817
 1825W        W 5569   8.565   8.569   2.304
 1826W        W 5570   7.045   0.994  11.410
 1827W        W 5571   9.538   2.621   2.533
 1828W        W 5572   0.134   4.078   2.331
 1829W        W 5573   1.693   2.375   9.983
 1830W        W 5574   6.213   7.467   9.991
 1831W        W 5575   6.581   4.535   0.137
 1832W        W 5576   7.658   7.506   2.244
 1833W        W 5577  10.207   2.312   2.462
 1834W        W 5578   6.512   2.802   9.481
 1835W        W 5579   7.537   3.940   0.739
 1836W        W 5580   4.721   0.241   2.922
 1837W        W 5581   8.615   1.786   2.824
 1838W        W 5582   4.072   6.471  11.939
 1839W        W 5583   8.801   7.072   3.275
 1840W        W 5584   6.883   6.792   0.545
 1841W        W 5585   2.775   9.416   1.400
 1842W        W 5586   4.419   4.567   2.798
 1843W        W 5587   7.924   2.792   0.354
 1844W        W 5588   6.142   8.979   2.456
 1845W        W 5589   5.033  10.412  11.436
 1846W        W 5590   1.708   3.784   0.767
 1847W        W 5591   2.181   2.615   9.759
 1848W        W 5592   5.641   7.040   3.279
 1849W        W 5593   0.685   4.860   9.549
 1850W        W 5594   1.283   9.564   2.088
 1851W        W 5595   3.867   7.082   3.253
 1852W        W 5596   6.951   3.285   0.688
 1853W        W 5597   4.338   4.707   1.317
 1854W        W 5598  10.218   8.319  10.512
 1855W        W 5599   8.852   5.082   9.032
 1856W        W 5600   0.989   7.924   8.642
 1857W        W 5601   3.682   4.920   2.328
 1858W        W 5602   1.394   4.104  11.489
 1859W        W 5603   7.916   9.067  11.878
 1860W        W 5604   7.164   9.786   1.762
 1861W        W 5605  10.339   9.913   3.270
 1862W        W 5606   8.478   4.713   2.637
 1863W        W 5607   0.288   2.704   1.727
 1864W        W 5608  10.428   1.118   1.918
 1865W        W 5609   9.746   8.748   1.035
 1866W        W 5610   6.860   1.733   3.504
 1867W        W 5611   2.083   2.719  10.956
 1868W        W 5612   0.516   0.310   3.393
 1869W        W 5613   4.539   6.768  11.272
 1870W        W 5614   5.179   3.509   2.729
 1871W        W 5615   3.661   6.257   9.449
 1872W        W 5616   1.749   2.760   2.218
 1873W        W 5617   9.509   5.658   3.197
 1874W        W 5618   5.847   3.784   8.598
 1875W        W 5619   3.048   0.937   1.135
 1876W        W 5620   5.160   9.265  10.755
 1877W        W 5621   8.535   8.137   2.574
 1878W        W 5622   5.918   2.977   9.772
 1879W        W 5623   0.209   5.592   2.866
 1880W        W 5624   2.306   4.214   1.363
 1881W        W 5625   6.607   2.004   0.819
 1882W        W 5626   1.816   9.880  10.987
 1883W        W 5627   0.719   8.035   1.018
 1884W        W 5628  10.373   2.692   9.844
 1885W        W 5629   1.711   1.786  11.594
 1886W        W 5630   0.942   7.802   1.924
 1887W        W 5631   1.248   3.756   0.527
 1888W        W 5632   6.296   2.636   9.916
 1889W        W 5633   0.809   1.866  10.273
 1890W        W 5634   8.310   6.101   0.860
 1891W        W 5635   1.843   8.116   1.259
 1892W        W 5636   4.861   4.024   9.892
 1893W        W 5637   9.286   0.673   1.804
 1894W        W 5638  10.449   7.066   3.145
 1895W        W 5639   3.185   5.655  12.000
 1896W        W 5640   5.747   7.725   2.880
 1897W        W 5641   1.744   3.989   8.911
 1898W        W 5642   9.291   9.995   3.280
 1899W        W 5643   7.491   8.672  10.057
 1900W        W 5644   3.802   7.348   0.794
 1901W        W 5645   8.562   0.436   9.278
 1902W        W 5646   3.611   6.038   0.689
 1903W        W 5647   2.842   7.194   8.943
 1904W        W 5648   6.112   4.428   9.465
 1905W        W 5649   3.448   2.761   8.494
 1906W        W 5650   3.201   1.829  11.455
 1907W        W 5651   9.476   5.264   1.724
 1908W        W 5652  10.257   7.627   9.205
 1909W        W 5653   3.841   6.115   0.225
 1910W        W 5654   6.448   2.336   2.467
 1911W        W 5655   5.035   6.271   9.067
 1912W        W 5656   5.694   4.068   0.711
 1913W        W 5657   1.199   7.900   0.294
 1914W        W 5658   4.392  10.372   9.597
 1915W        W 5659   0.514   8.337  10.811
 1916W        W 5660   4.193   4.862   1.789
 1917W        W 5661   1.756   6.618   2.469
 1918W        W 5662  10.214   5.650   1.363
 1919W        W 5663   6.287   3.627   0.199
 1920W        W 5664   7.669   9.446   2.171
 1921W        W 5665   8.124   6.634   9.250
 1922W        W 5666   7.034   5.782   0.472
 1923W        W 5667   6.474   4.898   2.954
 1924W        W 5668   6.442   6.353  10.303
 1925W        W 5669  10.375   2.658   0.413
 1926W        W 5670   6.035   1.139   9.482
 1927W        W 5671   1.379   8.943   9.571
 1928W        W 5672  10.479   4.592   3.065
 1929W        W 5673   9.529   5.859   0.334
 1930W        W 5674   3.718   9.972  11.044
 1931W        W 5675   5.212   0.377   3.008
 1932W        W 5676   6.392   1.883   9.609
 1933W        W 5677   3.159   2.113   3.676
 1934W        W 5678   4.547   3.636   9.995
 1935W        W 5679   8.322   8.064  10.496
 1936W        W 5680   2.884   3.654  11.046
 1937W        W 5681   9.899   6.189   0.519
 1938W        W 5682   0.815   2.675   1.965
 1939W        W 5683   0.198   1.933   0.510
 1940W        W 5684   8.001   4.217   0.281
 1941W        W 5685   8.043   4.375   8.610
 1942W        W 5686   9.866   3.552   8.924
 1943W        W 5687   9.429   4.604   0.979
 1944W        W 5688   0.138  10.342   3.518
 1945W        W 5689   3.128   7.836   9.017
 1946W        W 5690   3.383   0.898   0.355
 1947W        W 5691  10.344   0.024   8.837
 1948W        W 5692   9.995   1.228   8.674
 1949W        W 5693   6.097   7.450   9.100
 1950W        W 5694   7.454   3.114   0.412
 1951W        W 5695   6.178   1.255   0.967
 1952W        W 5696   5.071   1.610   1.797
 1953W        W 5697  10.491   2.133   2.852
 1954W        W 5698   5.675   3.698   1.480
 1955W        W 5699   6.597   2.535  10.353
 1956W        W 5700   1.447   9.241   3.437
 1957W        W 5701   8.039   0.228   1.456
 1958W        W 5702   0.726   0.211   2.812
 1959W        W 5703   1.356   3.695  11.073
 1960W        W 5704   6.883   2.887   9.054
 1961W        W 5705   4.788   9.433  10.458
 1962W        W 5706   0.221   6.957   0.481
 1963W        W 5707   0.956   5.620   1.710
 1964W        W 5708   2.338   5.546   1.002
 1965W        W 5709   4.730   6.622   8.593
 1966W        W 5710   8.569   3.695   1.584
 1967W        W 5711   2.630   0.796  11.043
 1968W        W 5712   5.563   7.424   0.169
 1969W        W 5713   0.762   5.087   8.996
 1970W        W 5714   1.303   1.470   9.833
 1971W        W 5715   1.767  10.293   9.002
 1972W        W 5716   5.769   5.422   0.625
 1973W        W 5717   4.945   6.990  10.318
 1974W        W 5718   9.863   6.064   2.916
 1975W        W 5719   7.169   4.115   9.739
 1976W        W 5720  10.500   5.573   3.344
 1977W        W 5721   5.424   8.066   3.205
 1978W        W 5722   7.955   7.376   0.397
 1979W        W 5723   4.792   4.963   9.396
 1980W        W 5724   5.407   6.194   8.720
 1981W        W 5725   6.645   4.955   0.391
 1982W        W 5726  10.254   4.548   2.111
 1983W        W 5727   8.329   1.372   0.699
 1984W        W 5728   0.064   6.676  11.568
 1985W        W 5729   8.234   4.148   0.741
 1986W        W 5730   2.617   4.484   9.241
 1987W        W 5731   4.593   2.616   9.321
 1988W        W 5732   1.802   5.655   1.669
 1989W        W 5733   4.282   7.946   1.933
 1990W        W 5734  10.463   4.569  11.937
 1991W        W 5735   3.648   5.416  11.815
 1992W        W 5736   1.706   3.801   9.824
 1993W        W 5737   2.945   0.735   0.653
 1994W        W 5738   6.017   1.578   9.793
 1995W        W 5739   0.441   4.292   8.715
 1996W        W 5740  10.416   2.320   9.043
 1997W        W 5741   4.528   3.606   8.102
 1998W        W 5742   9.490  10.354   0.779
 1999W        W 5743   9.280   8.790   1.870
 2000W        W 5744   8.807   5.287   3.341
 2001W        W 5745   8.980  10.276   2.775
 2002W        W 5746  10.183   7.874  10.826
 2003W        W 5747   9.685   9.148   8.431
 2004W        W 5748   0.504   6.971   2.420
 2005W        W 5749   3.087   7.675   1.893
 2006W        W 5750  10.282   5.862   2.650
 2007W        W 5751   2.300   9.912   2.432
 2008W        W 5752   4.609   7.634   9.770
 2009W        W 5753   7.827   4.633   9.878
 2010W        W 5754   5.080   5.176   1.910
 2011W        W 5755   0.525   6.397  11.037
 2012W        W 5756   6.754   3.140   3.160
 2013W        W 5757   2.124   2.553  11.482
 2014W        W 5758   5.459   6.895   0.942
 2015W        W 5759   2.383  10.333   3.093
 2016W        W 5760   8.491   3.566   0.979
 2017W        W 5761   5.992   6.984   9.969
 2018W        W 5762   3.733   3.078  11.980
 2019W        W 5763   0.328   0.036   9.112
 2020W        W 5764   6.568  10.109   1.897
 2021W        W 5765   0.899   9.831   9.045
 2022W        W 5766   5.995   4.189   8.885
 2023W        W 5767   2.125   9.860  11.505
 2024W        W 5768   6.592   9.513   1.093
 2025W        W 5769   8.749   6.450   0.315
 2026W        W 5770   1.265   3.413  10.407
 2027W        W 5771   8.083   0.024  10.989
 2028W        W 5772   0.832   8.646   0.069
 2029W        W 5773   1.387   5.345   8.945
 2030W        W 5774   6.633   8.604   0.774
 2031W        W 5775   3.136   8.035   8.549
 2032W        W 5776   3.411   3.111   2.231
 2033W        W 5777   0.707   5.181   1.759
 2034W        W 5778   1.019   9.436   1.341
 2035W        W 5779   8.815   5.557  11.293
 2036W        W 5780   2.259   0.779   1.419
 2037W        W 5781   3.297   1.699   8.749
 2038W        W 5782   2.291   4.699   2.181
 2039W        W 5783   1.695   6.662   9.355
 2040W        W 5784  10.347  10.343  11.392
 2041W        W 5785   0.281   1.805   1.384
 2042W        W 5786   0.196   2.481   3.908
 2043W        W 5787   5.356   8.548   8.481
 2044W        W 5788   8.566   0.833   1.024
 2045W        W 5789   1.946   0.365   3.073
 2046W        W 5790   9.853   5.185  11.377
 2047W        W 5791   6.680   4.451   2.783
 2048W        W 5792   5.201   0.996   0.173
 2049W        W 5793   1.922   2.209   3.280
 2050W        W 5794   0.256   6.114   1.774
 2051W        W 5795   2.369   6.094   9.280
 2052W        W 5796   3.482   9.643   3.682
 2053W        W 5797   3.187   4.561  10.048
 2054W        W 5798   1.786   2.282  10.838
 2055W        W 5799   9.247   5.430  11.565
 2056W        W 5800  10.428   1.298   3.257
 2057W        W 5801   8.649   3.591   2.906
 2058W        W 5802   4.526   6.686  10.353
 2059W        W 5803   6.980   3.239   0.174
 2060W        W 5804   4.237  10.292   9.125
 2061W        W 5805   3.094   1.189  11.493
 2062W        W 5806   2.151   6.992   0.493
 2063W        W 5807   7.499   2.607  11.335
 2064W        W 5808   6.119   3.984   9.722
 2065W        W 5809   7.002   8.708  11.884
 2066W        W 5810   4.638   3.638   3.452
 2067W        W 5811   2.718   5.242  10.303
 2068W        W 5812   8.483   7.181  10.958
 2069W        W 5813   3.824   3.591   0.072
 2070W        W 5814   5.167   3.526   3.244
 2071W        W 5815   0.146  10.041  10.003
 2072W        W 5816   1.685   5.181   2.738
 2073W        W 5817   1.805   1.932   8.670
 2074W        W 5818   4.299   7.045   9.180
 2075W        W 5819   9.867  10.032   1.890
 2076W        W 5820   7.008   2.211   2.213
 2077W        W 5821   5.699   6.808  10.870
 2078W        W 5822   2.046   4.841   0.036
 2079W        W 5823   7.845   1.678   2.508
 2080W        W 5824   5.965   5.539   1.482
 2081W        W 5825   1.122   4.537  11.464
 2082W        W 5826   2.732   5.611  11.754
 2083W        W 5827   2.759   8.471  11.193
 2084W        W 5828   7.083   1.731   1.960
 2085W        W 5829   1.364   1.176   1.186
 2086W        W 5830   4.219   2.350   3.541
 2087W        W 5831   0.518   7.786   9.536
 2088W        W 5832   2.971  10.006  11.836
 2089W        W 5833   1.342   0.910  11.058
 2090W        W 5834   5.618   4.644   9.629
 2091W        W 5835   7.943   3.626   2.426
 2092W        W 5836   8.950   5.365   0.967
 2093W        W 5837   7.932   2.165  11.909
 2094W        W 5838   0.739   6.058   3.458
 2095W        W 5839   3.873   7.110   2.707
 2096W        W 5840   3.611   4.173   8.587
 2097W        W 5841   8.902   2.684   9.246
 2098W        W 5842   7.743   2.843   0.831
 2099W        W 5843   4.708   4.023  11.906
 2100W        W 5844   0.862  10.127   9.488
 2101W        W 5845   8.773   7.909  10.632
 2102W        W 5846   5.233   2.322   3.138
 2103W        W 5847   1.831   3.084   3.511
 2104W        W 5848   3.310   9.669  10.892
 2105W        W 5849   8.624   0.923  11.839
 2106W        W 5850  10.424   4.657  10.815
 2107W        W 5851   7.125   7.982   2.663
 2108W        W 5852   4.251   9.243   3.329
 2109W        W 5853   2.315   3.180   3.391
 2110W        W 5854   7.673   1.291  11.000
 2111W        W 5855   9.382   3.074   1.795
 2112W        W 5856   7.445   7.034   3.222
 2113W        W 5857   5.465   9.380   2.004
 2114W        W 5858   4.765   0.782   0.297
 2115W        W 5859   6.080   6.065   1.554
 2116W        W 5860   5.585   4.079   8.235
 2117W        W 5861   7.633   1.508  10.023
 2118W        W 5862   3.313   7.231   1.725
 2119W        W 5863   0.319   2.851   0.274
 2120W        W 5864   4.685   1.445  10.787
 2121W        W 5865   2.230   6.601   2.776
 2122W        W 5866   1.194   7.974  10.968
 2123W        W 5867   7.445  10.091  10.267
 2124W        W 5868   8.139   0.504   0.994
 2125W        W 5869   8.417   4.045   8.710
 2126W        W 5870   7.010   3.858   3.295
 2127W        W 5871   1.646   9.708   0.370
 2128W        W 5872   8.365   8.466   8.983
 2129W        W 5873   1.407   9.291   1.667
 2130W        W 5874   1.628   4.138   1.624
 2131W        W 5875   7.514   8.063  10.596
 2132W        W 5876   9.022   6.637   1.147
 2133W        W 5877   1.500   1.456   3.670
 2134W        W 5878   2.794   2.180   0.882
 2135W        W 5879   8.937   6.162   1.327
 2136W        W 5880   1.270   3.813  10.090
 2137W        W 5881   0.286   0.454   2.964
 2138W        W 5882   0.445   8.775   9.565
 2139W        W 5883   7.832   0.619   3.259
 2140W        W 5884   9.132   0.781   9.892
 2141W        W 5885   8.085   2.855  10.226
 2142W        W 5886   1.178   6.321   3.609
 2143W        W 5887   8.499   1.890   9.629
 2144W        W 5888   9.450  10.428   3.028
 2145W        W 5889   7.052   2.394   0.204
 2146W        W 5890   8.819   0.205   2.365
 2147W        W 5891   1.832   8.735   0.429
 2148W        W 5892  10.320   8.987   2.710
 2149W        W 5893   1.005   5.313  11.244
 2150W        W 5894   3.173   2.809   9.866
 2151W        W 5895   0.715   1.731   3.062
 2152W        W 5896   7.459   7.412   0.289
 2153W        W 5897  10.006   4.691   2.894
 2154W        W 5898   4.702   3.734   0.411
 2155W        W 5899   9.917   1.244   0.793
 2156W        W 5900   9.282   0.288  11.415
 2157W        W 5901   1.313   9.879   9.483
 2158W        W 5902   2.910   4.816   8.562
 2159W        W 5903   9.078   6.695   0.639
 2160W        W 5904   8.968   8.439   3.102
 2161W        W 5905   8.069   3.535  11.791
 2162W        W 5906   6.815   8.998   0.245
 2163W        W 5907   6.117   9.521   1.366
 2164W        W 5908   7.931   6.036   2.396
 2165W        W 5909   7.757   7.633  11.979
 2166W        W 5910   4.414   2.761   3.291
 2167W        W 5911   4.123   5.015   0.923
 2168W        W 5912   3.390   9.940   1.466
 2169W        W 5913   7.725   9.399   9.054
 2170W        W 5914  10.272   8.471   2.627
 2171W        W 5915   5.262   1.461  11.997
 2172W        W 5916   7.055   0.416  10.463
 2173W        W 5917   2.577   2.057   1.592
 2174W        W 5918   4.459   2.762   0.606
 2175W        W 5919   1.359   6.853  11.947
 2176W        W 5920   2.710   1.201   2.707
 2177W        W 5921   4.215   4.802   2.343
 2178W        W 5922  10.499   4.718   1.706
 2179W        W 5923   7.197  10.289   2.882
 2180W        W 5924   4.630   8.947  10.617
 2181W        W 5925   9.291   5.747   1.731
 2182W        W 5926   8.464   2.343   0.334
 2183W        W 5927   3.473   9.094   2.869
 2184W        W 5928   3.104   2.721   2.100
 2185W        W 5929  10.280   2.552   3.036
 2186W        W 5930   5.088   9.785   2.034
 2187W        W 5931  10.267   9.698  10.019
 2188W        W 5932   5.584   9.297   0.264
 2189W        W 5933   1.771   8.601   2.606
 2190W        W 5934   7.006   2.827   0.466
 2191W        W 5935   9.874   8.580   9.540
 2192W        W 5936   5.582   9.980   2.711
 2193W        W 5937   7.066   4.930   9.124
 2194W        W 5938   1.811   6.690  11.736
 2195W        W 5939   8.085   5.041  10.038
 2196W        W 5940   2.614   8.054   9.958
 2197W        W 5941   0.333   6.871   1.357
 2198W        W 5942   5.053   4.932  11.015
 2199W        W 5943   8.577   1.472  11.851
 2200W        W 5944   5.867   9.888  11.457
 2201W        W 5945   8.170   7.790   1.835
 2202W        W 5946   9.683   1.353   2.185
 2203W        W 5947   8.327   0.760   0.223
 2204W        W 5948   7.075  10.170   0.755
 2205W        W 5949   9.247   5.130   3.146
 2206W        W 5950   7.031   9.880  10.528
 2207W        W 5951   2.759   0.717   2.841
 2208W        W 5952   9.969   9.380  11.310
 2209W        W 5953   4.151   0.504   0.690
 2210W        W 5954   5.105   7.080  11.523
 2211W        W 5955   8.033   2.286   9.017
 2212W        W 5956   9.781   1.802   0.519
 2213W        W 5957   4.410   7.047   8.654
 2214W        W 5958   8.545   0.046   2.798
 2215W        W 5959   8.130   7.320   2.181
 2216W        W 5960   4.642   2.581  10.260
 2217W        W 5961   2.822   1.751   1.279
 2218W        W 5962   0.339   1.757  11.556
 2219W        W 5963   1.575   2.782  10.795
 2220W        W 5964   4.140   5.264   2.578
 2221W        W 5965   4.117   4.382  10.365
 2222W        W 5966   4.173   8.376   9.585
 2223W        W 5967   2.016   1.498   8.488
 2224W        W 5968   6.013   2.444  11.520
 2225W        W 5969   9.058   3.822   1.728
 2226W        W 5970  10.331  10.449   0.696
 2227W        W 5971   8.383   5.198   0.268
 2228W        W 5972   8.439   7.433   2.746
 2229W        W 5973   7.632   2.686   2.762
 2230W        W 5974   5.617   8.478   1.919
 2231W        W 5975   3.741   9.360   1.019
 2232W        W 5976   0.702   2.573  11.005
 2233W        W 5977   6.180   9.869   1.008
 2234W        W 5978   6.050  10.346   1.193
 2235W        W 5979   8.333   8.555  10.604
 2236W        W 5980   2.418   1.237  10.941
 2237W        W 5981   8.292  10.291   1.302
 2238W        W 5982  10.112   7.484   0.908
 2239W        W 5983   7.114   5.118   1.631
 2240W        W 5984   8.542   3.738  10.547
 2241W        W 5985   6.922   7.432  11.200
 2242W        W 5986   1.025   5.690  11.657
 2243W        W 5987   7.471   4.302   1.153
 2244W        W 5988   3.090   3.238  10.516
 2245W        W 5989   8.395   8.798  11.842
 2246W        W 5990   2.501   2.787  10.612
 2247W        W 5991   9.901   6.058  11.482
 2248W        W 5992   1.009   7.117   9.102
 2249W        W 5993   5.682   1.801  11.497
 2250W        W 5994   6.498   7.112   3.202
 2251W        W 5995   8.429   7.912   3.565
 2252W        W 5996   1.866   5.603   0.757
 2253W        W 5997   2.700   6.567   3.583
 2254W        W 5998   9.575   0.377   3.242
 2255W        W 5999   3.688   4.755   1.837
 2256W        W 6000   8.435   0.941   1.957
 2257W        W 6001   3.144   6.118   3.242
 2258W        W 6002   1.177   2.257  10.058
 2259W        W 6003   4.320   9.895   1.484
 2260W        W 6004   3.285   5.659   0.894
 2261W        W 6005   5.473   0.844  10.047
 2262W        W 6006   6.357   4.976   9.388
 2263W        W 6007   3.611   5.364  11.110
 2264W        W 6008   0.269   5.118   3.381
 2265W        W 6009   2.351   6.067   1.889
 2266W        W 6010   3.112   8.084   9.914
 2267W        W 6011   7.960   3.330   9.425
 2268W        W 6012   7.392   4.042  11.336
 2269W        W 6013   2.355   6.485   0.856
 2270W        W 6014   4.444   4.612   9.552
 2271W        W 6015   8.446   7.694  10.976
 2272W        W 6016   5.712   1.210   2.330
 2273W        W 6017   9.215   0.289  10.053
 2274W        W 6018   9.958   6.947   0.291
 2275W        W 6019   6.284   6.192  11.392
 2276W        W 6020   5.474   5.861  11.285
 2277W        W 6021   5.040   6.972   9.806
 2278W        W 6022   2.846   7.488  11.979
 2279W        W 6023   8.079   4.516   1.926
 2280W        W 6024   8.966   6.031   9.442
 2281W        W 6025   7.182   1.729   1.470
 2282W        W 6026  10.317   9.904   2.207
 2283W        W 6027   5.550   7.060   9.668
 2284W        W 6028   1.422   7.530   9.792
 2285W        W 6029   6.592   6.205  11.810
 2286W        W 6030   7.160   9.249  11.320
 2287W        W 6031   5.255   7.896  11.849
 2288W        W 6032   2.903   1.067   0.278
 2289W        W 6033   3.396   0.378  11.740
 2290W        W 6034   4.929   4.395   9.526
 2291W        W 6035  10.188   1.435   2.243
 2292W        W 6036   9.380   8.111  11.095
 2293W        W 6037   8.009   0.274   2.494
 2294W        W 6038   1.574   3.350  10.009
 2295W        W 6039   1.523   8.272   0.520
 2296W        W 6040   7.055   3.092   2.203
 2297W        W 6041   0.081   4.014  10.117
 2298W        W 6042   9.251   1.394   2.492
 2299W        W 6043   6.479   2.432   1.907
 2300W        W 6044   0.275   6.458   0.405
 2301W        W 6045   1.325   7.115   3.487
 2302W        W 6046   1.955  10.444   0.748
 2303W        W 6047   2.825   6.428   8.576
 2304W        W 6048   0.459   2.286   8.996
 2305W        W 6049   8.009   4.182   2.672
 2306W        W 6050   7.080   8.847   9.091
 2307W        W 6051   1.158   5.105   1.541
 2308W        W 6052   9.607  10.331  10.876
 2309W        W 6053   8.367  10.458   2.296
 2310W        W 6054   1.587   5.185   0.868
 2311W        W 6055   9.553   0.845   3.025
 2312W        W 6056   0.702   3.380   2.749
 2313W        W 6057   2.811   8.518   1.363
 2314W        W 6058   0.127   2.191   3.447
 2315W        W 6059   1.269   3.195  10.861
 2316W        W 6060   0.305   2.355  10.763
 2317W        W 6061   3.584   4.143   0.900
 2318W        W 6062   5.073   8.406  11.055
 2319W        W 6063   0.453   1.826   9.820
 2320W        W 6064   0.875   0.913  11.281
 2321W        W 6065   2.001   7.049   9.295
 2322W        W 6066   5.213   6.638  10.791
 2323W        W 6067   0.898   6.332   1.409
 2324W        W 6068   2.247  10.211  10.757
 2325W        W 6069   7.380   5.720   3.541
 2326W        W 6070   6.259   2.880  11.707
 2327W        W 6071   3.372   7.109   9.546
 2328W        W 6072   8.099   8.137   0.780
 2329W        W 6073   3.741   6.879  11.912
 2330W        W 6074   1.389   9.309   0.136
 2331W        W 6075   5.462   6.070   1.114
 2332W        W 6076   3.667   7.160  10.573
 2333W        W 6077  10.105   6.571  11.349
 2334W        W 6078   7.472   3.274  10.197
 2335W        W 6079   6.666   3.712   0.637
 2336W        W 6080   7.094   4.537   1.587
 2337W        W 6081   0.532   1.880  10.724
 2338W        W 6082   3.797   8.693   3.463
 2339W        W 6083   9.592   2.789   9.045
 2340W        W 6084   5.576   7.961   0.230
 2341W        W 6085   9.273   9.873   9.959
 2342W        W 6086   7.174   2.726   8.614
 2343W        W 6087   5.253   7.606   3.099
 2344W        W 6088   3.736   3.772  11.541
 2345W        W 6089   5.600   1.716   9.517
 2346W        W 6090   8.741   1.383   2.515
 2347W        W 6091   7.988   3.673   0.791
 2348W        W 6092   9.086   2.653   2.839
 2349W        W 6093  10.047   7.074   3.468
 2350W        W 6094   8.891   5.717  11.817
 2351W        W 6095   4.212   3.793   9.608
 2352W        W 6096   7.494   5.042   8.868
 2353W        W 6097   0.471   4.591   0.093
 2354W        W 6098   3.212   5.419  10.227
 2355W        W 6099   3.270   1.236   0.758
 2356W        W 6100   1.694   9.805   9.829
 2357W        W 6101   6.047   1.236   8.968
 2358W        W 6102   1.658   9.681  10.332
 2359W        W 6103   0.479   2.118  11.205
 2360W        W 6104   1.512  10.428   1.774
 2361W        W 6105   7.173   5.047   1.144
 2362W        W 6106   7.385   3.126   2.792
 2363W        W 6107   6.477   4.517  11.602
 2364W        W 6108   0.729   1.250  10.947
 2365W        W 6109   4.329   2.732   1.426
 2366W        W 6110   5.559   8.941   1.684
 2367W        W 6111   6.533   0.034   9.623
 2368W        W 6112   3.150   3.721   3.562
 2369W        W 6113   2.305   9.451  11.779
 2370W        W 6114  10.294   9.130   8.947
 2371W        W 6115   4.634   3.722   1.423
 2372W        W 6116   2.046   9.494   8.517
 2373W        W 6117   9.078   4.592   0.609
 2374W        W 6118   8.082   6.612   9.747
 2375W        W 6119   2.833   3.944   1.483
 2376W        W 6120  10.138   5.645   9.429
 2377W        W 6121   2.958   8.572  10.167
 2378W        W 6122   3.649   7.969  11.825
 2379W        W 6123   6.826   5.514   1.772
 2380W        W 6124   3.803   8.350   2.152
 2381W        W 6125   0.275   1.317  10.734
 2382W        W 6126   3.275   1.300  10.085
 2383W        W 6127   8.782   8.170   8.395
 2384W        W 6128   5.283   3.017   2.564
 2385W        W 6129  10.340   9.177  10.093
 2386W        W 6130   2.074   2.853   8.836
 2387W        W 6131   2.649   5.025   2.376
 2388W        W 6132   8.949   9.827   1.259
 2389W        W 6133   3.170   6.138   1.000
 2390W        W 6134   8.748   0.449   0.125
 2391W        W 6135   1.232   8.178   2.728
 2392W        W 6136   4.585   1.658   9.893
 2393W        W 6137   6.600   2.241   0.362
 2394W        W 6138   3.029   4.098   9.416
 2395W        W 6139   8.976   9.312  10.783
 2396W        W 6140   8.601   4.592   9.379
 2397W        W 6141   4.496  10.444   0.294
 2398W        W 6142   0.163   9.779  10.485
 2399W        W 6143   7.905   4.742  10.760
 2400W        W 6144   1.441   9.090   2.156
 2401W        W 6145   5.936   7.616  10.406
 2402W        W 6146   5.097   8.151   3.642
 2403W        W 6147   0.830   3.552   2.267
 2404W        W 6148   9.848   6.167  10.445
 2405W        W 6149   5.992   8.684  11.882
 2406W        W 6150   3.344   6.835  10.383
 2407W        W 6151   4.657   2.636  11.761
 2408W        W 6152   4.263   1.768   8.743
 2409W        W 6153   3.833   7.542   3.997
 2410W        W 6154   8.918   7.526   2.586
 2411W        W 6155   7.627   0.469   8.463
 2412W        W 6156  10.066   9.451   1.183
 2413W        W 6157   1.585   4.581   3.647
 2414W        W 6158   8.544   9.378  10.073
 2415W        W 6159   5.320   4.793   2.155
 2416W        W 6160   8.857  10.440  11.369
 2417W        W 6161   2.849   0.278   3.608
 2418W        W 6162   7.581   2.685   9.543
 2419W        W 6163   5.549   8.302  11.752
 2420W        W 6164  10.445   7.899   3.222
 2421W        W 6165   6.520   0.468  11.952
 2422W        W 6166   2.374   6.840   9.605
 2423W        W 6167   2.889   8.076   9.380
 2424W        W 6168   8.424   4.222   1.240
 2425W        W 6169   5.569   5.145  10.364
 2426W        W 6170   9.955   1.875   9.927
 2427W        W 6171   4.762   3.672   2.463
 2428W        W 6172  10.112   8.387   0.285
 2429W        W 6173   5.073   9.241   0.222
 2430W        W 6174   4.669   1.180  10.336
 2431W        W 6175   0.675   2.281   9.965
 2432W        W 6176   2.230   4.780   9.077
 2433W        W 6177   8.884   9.560   1.716
 2434W        W 6178   7.245   6.492   9.897
 2435W        W 6179   0.398   4.318   0.542
 2436W        W 6180   9.217   5.744   1.218
 2437W        W 6181   2.662   9.460   2.938
 2438W        W 6182   2.713   7.831   0.686
 2439W        W 6183   2.558   0.314  11.306
 2440W        W 6184   6.150   4.736  11.265
 2441W        W 6185   2.910   0.281   9.264
 2442W        W 6186   0.934   0.471   8.417
 2443W        W 6187   9.870   3.722   1.256
 2444W        W 6188   4.951   3.990   4.108
 2445W        W 6189   7.177   7.714  10.841
 2446W        W 6190   8.889   6.060   8.927
 2447W        W 6191   1.650   4.207  10.767
 2448W        W 6192   7.085   4.592   9.524
 2449W        W 6193   0.765   1.436   9.998
 2450W        W 6194   8.898   0.278   0.915
 2451W        W 6195  10.392   7.178   8.982
 2452W        W 6196   2.133   1.845  10.774
 2453W        W 6197   3.741   0.988   9.107
 2454W        W 6198   2.322   8.695   9.475
 2455W        W 6199   4.166   1.326   1.815
 2456W        W 6200   7.576   7.935   3.568
 2457W        W 6201   6.938   0.866   9.587
 2458W        W 6202   1.844   1.378   2.029
 2459W        W 6203   7.465   8.430  11.656
 2460W        W 6204   2.720   2.139   2.920
 2461W        W 6205  10.458  10.039  10.941
 2462W        W 6206   3.335   7.995   3.601
 2463W        W 6207   7.922   0.728   2.757
 2464W        W 6208   2.304   7.671   2.993
 2465W        W 6209   2.587   2.233   2.441
 2466W        W 6210  10.401   3.717   0.022
 2467W        W 6211   6.486   6.979   1.839
 2468W        W 6212   6.105  10.459   1.731
 2469W        W 6213   3.869   0.088   8.932
 2470W        W 6214   3.813   0.539   9.331
 2471W        W 6215   7.182   7.841   0.872
 2472W        W 6216   5.071   3.567   9.880
 2473W        W 6217   8.104   9.308  10.351
 2474W        W 6218   1.770   0.887   1.289
 2475W        W 6219   1.880   2.101  10.373
 2476W        W 6220   6.683   2.889   0.864
 2477W        W 6221   4.608   8.557  11.899
 2478W        W 6222   9.974   9.562   8.576
 2479W        W 6223   6.269   8.832  11.453
 2480W        W 6224   0.400   4.182   1.036
 2481W        W 6225   6.065   6.299   3.405
 2482W        W 6226   8.327   7.999   8.797
 2483W        W 6227   4.193   7.672   0.818
 2484W        W 6228   5.225  10.163  11.911
 2485W        W 6229  10.175   8.505   1.203
 2486W        W 6230   5.117   2.518   9.993
 2487W        W 6231   3.194  10.414   1.301
 2488W        W 6232   5.011   6.008  11.891
 2489W        W 6233   7.558   8.792   8.672
 2490W        W 6234   8.944   3.157   9.040
 2491W        W 6235   0.847   7.477  10.289
 2492W        W 6236   0.374   1.597  10.305
 2493W        W 6237   0.908   8.946   1.411
 2494W        W 6238  10.086   8.111   9.458
 2495W        W 6239   7.155   2.887  11.075
 2496W        W 6240   2.914   0.227   1.580
 2497W        W 6241   2.499   7.241   9.294
 2498W        W 6242   3.863   8.096   1.650
 2499W        W 6243   5.448   4.261   3.151
 2500W        W 6244   9.939   2.457  11.667
 2501W        W 6245   3.380   0.291   1.778
 2502W        W 6246   7.568   3.800  10.433
 2503W        W 6247   4.252   3.873  11.285
 2504W        W 6248   0.030   5.948   2.208
 2505W        W 6249   0.661   6.573  10.274
 2506W        W 6250   7.912   2.267   2.825
 2507W        W 6251   9.393   3.136   1.287
 2508W        W 6252   3.733   1.285   0.992
 2509W        W 6253   4.605   7.988   3.612
 2510W        W 6254   1.206   5.319  10.294
 2511W        W 6255   5.721   9.886   1.301
 2512W        W 6256   0.718   7.438   2.234
 2513W        W 6257   7.924  10.031  11.051
 2514W        W 6258   9.425   7.650  10.184
 2515W        W 6259   5.679   4.491   9.149
 2516W        W 6260   7.982   1.712   2.006
 2517W        W 6261   7.827   7.053   0.867
 2518W        W 6262   8.088   0.240   2.994
 2519W        W 6263   9.360   2.826   0.470
 2520W        W 6264   2.134   7.459   1.741
 2521W        W 6265   4.149   8.629   0.860
 2522W        W 6266   8.911   5.970  10.958
 2523W        W 6267   9.598  10.006   3.723
 2524W        W 6268   9.977   4.461   1.688
 2525W        W 6269   2.393   5.330   1.462
 2526W        W 6270  10.055   4.878  11.803
 2527W        W 6271   8.137   2.422   1.444
 2528W        W 6272   9.163   3.680   9.156
 2529W        W 6273   6.273   2.887   1.168
 2530W        W 6274  10.287   1.280   9.986
 2531W        W 6275  10.361   2.421   1.977
 2532W        W 6276   6.488   2.772   2.763
 2533W        W 6277   8.291   7.159   9.151
 2534W        W 6278   9.901  10.248   2.788
 2535W        W 6279   0.833   6.793   1.168
 2536W        W 6280   3.260   0.223  10.040
 2537W        W 6281   2.122   2.665   3.419
 2538W        W 6282   4.066   5.279   0.474
 2539W        W 6283   6.213   6.921   9.079
 2540W        W 6284   2.869   4.164   9.893
 2541W        W 6285   3.200   9.690   9.904
 2542W        W 6286   5.953   6.623  11.300
 2543W        W 6287   8.154   4.036  11.828
 2544W        W 6288   7.230   5.577   1.194
 2545W        W 6289   0.926   9.137   9.435
 2546W        W 6290   5.207   0.273   1.928
 2547W        W 6291   6.236   1.177  10.024
 2548W        W 6292   7.859   5.445   1.766
 2549W        W 6293   7.417   8.104   3.130
 2550W        W 6294   5.466   7.822   3.743
 2551W        W 6295   7.042   6.068   0.042
 2552W        W 6296   1.895   4.261   9.856
 2553W        W 6297   5.001   2.925   8.561
 2554W        W 6298   3.156   3.461   3.100
 2555W        W 6299   9.340   9.226   3.342
 2556W        W 6300   6.258   4.986   2.148
 2557W        W 6301   4.499   7.712  11.465
 2558W        W 6302   9.004   4.513  11.043
 2559W        W 6303   8.558   9.288  11.127
 2560W        W 6304   5.967   3.506   9.870
 2561W        W 6305  10.447   0.328   3.368
 2562W        W 6306   3.581   2.253   8.732
 2563W        W 6307   8.138   9.326  11.509
 2564W        W 6308   4.729   8.373   0.405
 2565W        W 6309   8.859   1.386   1.432
 2566W        W 6310   6.930   0.800  10.947
 2567W        W 6311   4.594   6.653   9.084
 2568W        W 6312   9.141   3.431   2.077
 2569W        W 6313   8.468   7.405   0.339
 2570W        W 6314   4.689   9.064  10.107
 2571W        W 6315   1.830   6.468   3.534
 2572W        W 6316   5.205   1.352   2.494
 2573W        W 6317   3.621   8.390  10.888
 2574W        W 6318   5.619   1.702   0.545
 2575W        W 6319   3.819   7.476   9.771
 2576W        W 6320   5.657   5.145   1.311
 2577W        W 6321   9.392   7.919   2.082
 2578W        W 6322   7.218   1.336   9.761
 2579W        W 6323   8.520   6.712  10.009
 2580W        W 6324   9.854   9.723   2.841
 2581W        W 6325   4.064   1.530  11.561
 2582W        W 6326   0.736   6.124   9.905
 2583W        W 6327   1.374   8.496  11.091
 2584W        W 6328   3.307   1.463  10.589
 2585W        W 6329  10.469   0.015   9.724
 2586W        W 6330   2.666   4.908   3.590
 2587W        W 6331   5.736   0.743  10.509
 2588W        W 6332   0.768   4.334   1.736
 2589W        W 6333   5.987   7.313   9.571
 2590W        W 6334   0.860   4.643   8.684
 2591W        W 6335   4.594   8.468  11.366
 2592W        W 6336   2.221   3.200  10.697
 2593W        W 6337   6.672   8.409   1.844
 2594W        W 6338   0.376   5.717   9.986
 2595W        W 6339   9.638   5.363   0.440
 2596W        W 6340   9.798   3.061   0.068
 2597W        W 6341   4.316   9.519  11.837
 2598W        W 6342   1.713   3.663  10.395
 2599W        W 6343   0.455   0.482   0.361
 2600W        W 6344   1.703   5.757   8.802
 2601W        W 6345  10.213   2.821  11.943
 2602W        W 6346   5.811   2.484   9.936
 2603W        W 6347   6.585   2.946   1.917
 2604W        W 6348   6.484   3.921  10.338
 2605W        W 6349   7.444   2.285   8.771
 2606W        W 6350   6.509  10.359  10.110
 2607W        W 6351   2.232   9.652   9.264
 2608W        W 6352   4.699   6.418   1.323
 2609W        W 6353   3.622  10.406  10.287
 2610W        W 6354   2.964   5.647   3.122
 2611W        W 6355   6.288  10.293   3.227
 2612W        W 6356   9.410   3.053   2.828
 2613W        W 6357   8.057   1.786   8.813
 2614W        W 6358   8.943   9.522   9.793
 2615W        W 6359   9.429   2.166   1.786
 2616W        W 6360   8.545   0.241   8.807
 2617W        W 6361   5.382   9.569   9.821
 2618W        W 6362   6.972   2.171   3.260
 2619W        W 6363   7.890   3.876  11.363
 2620W        W 6364   1.139   1.406  11.209
 2621W        W 6365   7.091   5.029  11.809
 2622W        W 6366   8.304   7.099   1.232
 2623W        W 6367   4.230   6.551   1.093
 2624W        W 6368   2.739   9.888  10.030
 2625W        W 6369   5.457   7.609   1.579
 2626W        W 6370   7.109   5.733  10.227
 2627W        W 6371   8.426   0.753   8.758
 2628W        W 6372   7.242   9.290   9.290
 2629W        W 6373   6.061   1.993  11.215
 2630W        W 6374   7.335   5.193  10.247
 2631W        W 6375   2.050   9.930   0.673
 2632W        W 6376   9.952   9.314  11.854
 2633W        W 6377   4.604   0.683  10.637
 2634W        W 6378   9.851   9.469  10.800
 2635W        W 6379   9.482   1.834   2.406
 2636W        W 6380   9.551   0.439   9.109
 2637W        W 6381   5.187   1.918  10.255
 2638W        W 6382   2.789   9.297   2.473
 2639W        W 6383   1.150   0.990   0.751
 2640W        W 6384   5.950   3.023   9.018
 2641W        W 6385   6.517  10.175  11.587
 2642W        W 6386   6.962   8.515  10.726
 2643W        W 6387   0.351   2.670  10.049
 2644W        W 6388   2.447   9.545   0.613
 2645W        W 6389   0.522   7.406  10.976
 2646W        W 6390   3.782   0.413   2.521
 2647W        W 6391   5.229   5.049  11.862
 2648W        W 6392   3.710   6.711   9.693
 2649W        W 6393   9.766   6.616   9.489
 2650W        W 6394   0.019   3.391   0.806
 2651W        W 6395   9.467   9.847  10.738
 2652W        W 6396   2.233  10.434  10.276
 2653W        W 6397   0.208   3.343  11.021
 2654W        W 6398   6.133   1.104   2.743
 2655W        W 6399   2.831   6.070   1.440
 2656W        W 6400   5.663   0.064   0.888
 2657W        W 6401   8.959   4.749   2.906
 2658W        W 6402   8.506   4.129   2.838
 2659W        W 6403   3.632   7.088  10.042
 2660W        W 6404   5.240   6.497   9.866
 2661W        W 6405   6.168   7.718   0.066
 2662W        W 6406   7.561   3.934   2.544
 2663W        W 6407   6.085   1.482   0.511
 2664W        W 6408   4.614   8.363   2.133
 2665W        W 6409   7.058   4.831   2.039
 2666W        W 6410   8.010   7.615   3.643
 2667W        W 6411   8.516   3.391   0.485
 2668W        W 6412   5.538   6.476  10.450
 2669W        W 6413   6.351   8.158   8.668
 2670W        W 6414   9.284   4.283   1.855
 2671W        W 6415   4.484   3.229   1.416
 2672W        W 6416   4.215   8.055  10.775
 2673W        W 6417   9.472   6.691   3.013
 2674W        W 6418   1.483   1.935   0.748
 2675W        W 6419   9.748   9.034   1.813
 2676W        W 6420   6.780   8.257   8.380
 2677W        W 6421  10.307   2.752  11.444
 2678W        W 6422   1.837   0.386   0.499
 2679W        W 6423   8.877   5.493   1.901
 2680W        W 6424   0.261   1.307  11.770
 2681W        W 6425   1.650   4.096   2.636
 2682W        W 6426   8.488   4.579   1.645
 2683W        W 6427   6.676   4.461  10.561
 2684W        W 6428   6.679   3.141  11.541
 2685W        W 6429   7.670   0.499   1.239
 2686W        W 6430   9.879   9.114  10.422
 2687W        W 6431  10.347   2.589  10.970
 2688W        W 6432   4.491   5.593   0.378
 2689W        W 6433   1.427   6.032   1.652
 2690W        W 6434   2.217   1.300   0.685
 2691W        W 6435   3.708   1.887   9.560
 2692W        W 6436   9.666   1.788   2.890
 2693W        W 6437   8.393   5.698  11.572
 2694W        W 6438   9.829   1.691   8.832
 2695W        W 6439   0.288   5.110   8.788
 2696W        W 6440   0.307   4.916  10.567
 2697W        W 6441   5.884   7.554   3.869
 2698W        W 6442   8.485   7.570   1.346
 2699W        W 6443   9.251   8.098   9.741
 2700W        W 6444   1.059   7.691   2.673
 2701W        W 6445   4.206   8.908   1.705
 2702W        W 6446   8.817   0.540   1.957
 2703W        W 6447   0.823   9.489  10.014
 2704W        W 6448   4.985   3.999   3.230
 2705W        W 6449   7.448   5.542  11.482
 2706W        W 6450   1.157   4.318  10.355
 2707W        W 6451   2.324   2.700  11.954
 2708W        W 6452   4.524   6.551   0.298
 2709W        W 6453   0.371   9.787   1.281
 2710W        W 6454   2.221   7.214   3.201
 2711W        W 6455   9.739   6.470  11.715
 2712W        W 6456   7.915   8.478   9.216
 2713W        W 6457   7.517   4.755   2.267
 2714W        W 6458   4.367   4.191   9.915
 2715W        W 6459   5.811   9.294   9.622
 2716W        W 6460   8.618   9.372  11.627
 2717W        W 6461   3.104   1.520   0.345
 2718W        W 6462   9.452   6.220  11.250
 2719W        W 6463   9.198   0.692   9.395
 2720W        W 6464   8.374   3.312  10.270
 2721W        W 6465   1.842   0.671  10.338
 2722W        W 6466   3.503   6.924   0.713
 2723W        W 6467   1.391   5.607  11.986
 2724W        W 6468   8.834   7.140   0.629
 2725W        W 6469   0.369   0.230  10.414
 2726W        W 6470   8.613   4.786  11.856
 2727W        W 6471   2.667   9.795   1.740
 2728W        W 6472   7.851   5.251   8.558
 2729W        W 6473  10.334   5.254  11.602
 2730W        W 6474   7.335   6.949   9.156
 2731W        W 6475   2.080  10.278   2.118
 2732W        W 6476   8.575   7.820  10.140
 2733W        W 6477   1.926   6.195   1.595
 2734W        W 6478   6.349   0.669   2.650
 2735W        W 6479   3.223   9.531   2.650
 2736W        W 6480   5.831   4.533   0.869
 2737W        W 6481   0.406  10.377   0.249
 2738W        W 6482   6.190   1.640   1.871
 2739W        W 6483   1.840   8.572   9.297
 2740W        W 6484   6.577  10.313  11.110
 2741W        W 6485   9.271   2.366   0.882
 2742W        W 6486   3.224   0.965  10.474
 2743W        W 6487   1.504   0.984   2.080
 2744W        W 6488   8.718   8.168   9.787
 2745W        W 6489   6.115   4.283  10.992
 2746W        W 6490   3.791   7.672  11.442
 2747W        W 6491   0.480   1.860   0.049
 2748W        W 6492   8.012   3.147   8.887
 2749W        W 6493   7.026   9.178   1.021
 2750W        W 6494   7.483   0.484   2.925
 2751W        W 6495  10.463   4.663   9.983
 2752W        W 6496   9.401   9.384   9.953
 2753W        W 6497   7.474   0.154  11.344
 2754W        W 6498   7.833   6.975   1.392
 2755W        W 6499  10.321   1.218  10.958
 2756W        W 6500   5.144   1.347  10.508
 2757W        W 6501   3.049  10.252   9.159
 2758W        W 6502   0.979   7.034   8.567
 2759W        W 6503   7.093   8.840   0.634
 2760W        W 6504   2.295   8.843   1.533
 2761W        W 6505  10.301   6.088   3.450
 2762W        W 6506   0.367   0.916   0.091
 2763W        W 6507  10.353   4.133  10.574
 2764W        W 6508   8.583   2.598   1.191
 2765W        W 6509   8.411   0.229   9.712
 2766W        W 6510   0.655   7.347   9.355
 2767W        W 6511   8.369   5.534   1.746
 2768W        W 6512   8.742   4.185   9.074
 2769W        W 6513   0.820   3.713   9.349
 2770W        W 6514   6.179   4.429   2.135
 2771W        W 6515   8.381   6.540  11.463
 2772W        W 6516   2.578   4.765  11.266
 2773W        W 6517   9.932   6.931   1.866
 2774W        W 6518   8.293   9.629   0.406
 2775W        W 6519   3.422   3.224  10.106
 2776W        W 6520   0.076   5.989   1.293
 2777W        W 6521   2.016   8.257   0.380
 2778W        W 6522  10.419   6.437   1.505
 2779W        W 6523   6.847   5.307  10.158
 2780W        W 6524   2.661   5.991   0.961
 2781W        W 6525   7.484   5.892  10.793
 2782W        W 6526   6.157   9.993   1.544
 2783W        W 6527   9.132   1.767   2.820
 2784W        W 6528   8.606   5.070   1.740
 2785W        W 6529   0.198   8.592   2.874
 2786W        W 6530   8.338   9.730  11.299
 2787W        W 6531   5.710   7.088   9.167
 2788W        W 6532   7.248   1.848  10.006
 2789W        W 6533   6.133   8.635  10.499
 2790W        W 6534   1.709   5.986   3.521
 2791W        W 6535   5.948   4.118   3.102
 2792W        W 6536   7.025   0.711   0.722
 2793W        W 6537   2.510   8.274   0.537
 2794W        W 6538   9.767   5.911   1.839
 2795W        W 6539   8.449   9.082   3.501
 2796W        W 6540   8.535   2.860  10.492
 2797W        W 6541   3.297   3.273   8.582
 2798W        W 6542   3.110   2.254  11.118
 2799W        W 6543   9.063   1.278   8.768
 2800W        W 6544   8.892   7.015   1.898
 2801W        W 6545   0.211   3.088  10.398
 2802W        W 6546  10.406   8.251   2.179
 2803W        W 6547   2.207   6.410  11.592
 2804W        W 6548  10.445   6.042   9.448
 2805W        W 6549   3.085   2.381   0.125
 2806W        W 6550   3.882   3.340   0.526
 2807W        W 6551   5.565   3.319  11.626
 2808W        W 6552   8.539   8.586   2.826
 2809W        W 6553   8.817  10.314   8.916
 2810W        W 6554   1.924   8.025   1.795
 2811W        W 6555   5.294   9.565   3.393
 2812W        W 6556   3.868   2.331   9.801
 2813W        W 6557   4.539   7.939   0.578
 2814W        W 6558   8.148   1.706  10.327
 2815W        W 6559   9.851   0.521  10.328
 2816W        W 6560   9.867   0.961  10.058
 2817W        W 6561   6.010   2.731   8.390
 2818W        W 6562   7.973   8.885   1.209
 2819W        W 6563   1.328   4.213   3.453
 2820W        W 6564   6.046   0.016   0.229
 2821W        W 6565   9.969   7.453  10.101
 2822W        W 6566   1.132   9.017   0.974
 2823W        W 6567   8.337   0.035   0.822
 2824W        W 6568   3.142   5.256   1.485
 2825W        W 6569   1.893   3.725   1.803
 2826W        W 6570   8.456   6.076   1.690
 2827W        W 6571   0.019   0.203   0.285
 2828W        W 6572   0.164   1.165   8.507
 2829W        W 6573   7.615   1.078  10.349
 2830W        W 6574   7.822   6.194   1.016
 2831W        W 6575   4.080   9.015   1.223
 2832W        W 6576  10.087   2.647   0.847
 2833W        W 6577   9.488   8.914   0.493
 2834W        W 6578   1.038   5.190   9.403
 2835W        W 6579   5.973   8.822   9.835
 2836W        W 6580   9.410   2.331   0.390
 2837W        W 6581   8.019   6.193   8.809
 2838W        W 6582   7.195   5.479  10.646
 2839W        W 6583   8.359   5.418   3.530
 2840W        W 6584   0.309   9.961  11.927
 2841W        W 6585   9.343   5.361   9.682
 2842W        W 6586   3.295   1.291   9.074
 2843W        W 6587   1.017   4.797   1.953
 2844W        W 6588   8.524   6.181   3.158
 2845W        W 6589   9.405   6.296   9.294
 2846W        W 6590   6.944  10.451   0.304
 2847W        W 6591   0.003   0.801   2.351
 2848W        W 6592   6.687   7.831  11.913
 2849W        W 6593   5.306   1.439  11.499
 2850W        W 6594   6.244   8.883   2.968
 2851W        W 6595   1.398   0.964  10.024
 2852W        W 6596   7.929   2.156   2.327
 2853W        W 6597   1.016   5.853   0.312
 2854W        W 6598   8.688   0.041   0.467
 2855W        W 6599   4.651   8.935   9.612
 2856W        W 6600   5.546   3.227   0.165
 2857W        W 6601   1.847   6.755  11.221
 2858W        W 6602   4.142   6.373   0.600
 2859W        W 6603   3.455  10.046  11.997
 2860W        W 6604   2.607   4.112  10.414
 2861W        W 6605   5.258   8.662   3.776
 2862W        W 6606   0.496   8.958   2.068
 2863W        W 6607   1.318   2.029  11.858
 2864W        W 6608   0.410   7.187   2.875
 2865W        W 6609   3.212   1.839   9.854
 2866W        W 6610   7.257   0.354  10.003
 2867W        W 6611   4.738   3.130  10.259
 2868W        W 6612   4.543   9.434   9.581
 2869W        W 6613   8.496   4.446   3.618
 2870W        W 6614   8.590   3.863   0.049
 2871W        W 6615   9.323   1.718   3.300
 2872W        W 6616   3.048   2.666   1.084
 2873W        W 6617   1.293  10.351   9.259
 2874W        W 6618   6.638   5.662   0.927
 2875W        W 6619   4.419   5.831  11.402
 2876W        W 6620   7.960   8.158  10.836
 2877W        W 6621   1.402   4.747  11.839
 2878W        W 6622   1.841   9.925   1.135
 2879W        W 6623   3.006   9.164  11.868
 2880W        W 6624   8.803   9.514   0.279
 2881W        W 6625   4.178   7.418  10.128
 2882W        W 6626   8.500   1.318  10.450
 2883W        W 6627   3.027   0.064   2.099
 2884W        W 6628   0.421   7.108   1.920
 2885W        W 6629   9.299   9.299   1.881
 2886W        W 6630   7.424   0.101   1.464
 2887W        W 6631   1.116   8.285   1.925
 2888W        W 6632   5.048   8.713   9.319
 2889W        W 6633   4.592   9.094  11.984
 2890W        W 6634   1.511   9.323   1.155
 2891W        W 6635   2.761   9.484   9.244
 2892W        W 6636   5.937   7.978   8.914
 2893W        W 6637   7.848   9.760  10.422
 2894W        W 6638   6.188   4.222   0.712
 2895W        W 6639   3.341   0.460  10.482
 2896W        W 6640   8.282   2.361   1.984
 2897W        W 6641   4.619   2.650   1.896
 2898W        W 6642  10.158   5.214   0.503
 2899W        W 6643   6.756   1.672  10.557
 2900W        W 6644   2.095   2.166   1.452
 2901W        W 6645   8.351   6.942  11.797
 2902W        W 6646   6.900   6.609  10.300
 2903W        W 6647   8.063   5.218  10.949
 2904W        W 6648   8.772   5.714   1.472
 2905W        W 6649   4.025   4.659  11.643
 2906W        W 6650   6.014   5.295   9.624
 2907W        W 6651   9.871   4.187  11.401
 2908W        W 6652   4.310   3.093   9.978
 2909W        W 6653   1.596   4.562  11.147
 2910W        W 6654   2.412   4.319   3.293
 2911W        W 6655   7.123   6.919  11.218
 2912W        W 6656   5.659   4.213   2.671
 2913W        W 6657   2.827   9.321   0.872
 2914W        W 6658   3.036   4.736   1.165
 2915W        W 6659  10.317   3.468   1.280
 2916W        W 6660   4.885   8.653   2.502
 2917W        W 6661   5.202   0.491   0.260
 2918W        W 6662   8.115   3.690   8.035
 2919W        W 6663   7.906   6.919   3.498
 2920W        W 6664   2.722   9.446   9.749
 2921W        W 6665  10.178   5.965  10.759
 2922W        W 6666   9.815   5.635   2.659
 2923W        W 6667   5.095   7.566   9.552
 2924W        W 6668   3.578   4.005   9.393
 2925W        W 6669   1.114   0.108  11.716
 2926W        W 6670   1.666  10.231   0.371
 2927W        W 6671  10.474   7.382  10.071
 2928W        W 6672   7.672   6.562   9.041
 2929W        W 6673   8.310   5.813   1.275
 2930W        W 6674   4.591   6.284  11.863
 2931W        W 6675   3.396   4.535  11.093
 2932W        W 6676  10.013   1.366   9.183
 2933W        W 6677   0.192   5.263  10.213
 2934W        W 6678   0.982   1.619  10.703
 2935W        W 6679   1.681   7.440   1.976
 2936W        W 6680   0.216   0.396  10.878
 2937W        W 6681   7.019   4.868   0.707
 2938W        W 6682   6.827   8.914   1.842
 2939W        W 6683   4.554   8.544   9.283
 2940W        W 6684   7.522   4.766   1.391
 2941W        W 6685   4.190   8.299   0.482
 2942W        W 6686   5.123   3.206  11.873
 2943W        W 6687   4.691   5.962   1.741
 2944W        W 6688   8.608   8.096   9.265
 2945W        W 6689   0.182   4.461  10.399
 2946W        W 6690   6.381   2.039  10.527
 2947W        W 6691   0.241   7.986   0.743
 2948W        W 6692   9.814   0.369  11.301
 2949W        W 6693   8.471   7.468  10.513
 2950W        W 6694   1.186   5.196  11.753
 2951W        W 6695   6.562   3.757   2.321
 2952W        W 6696   5.202   7.419   2.641
 2953W        W 6697   3.862   1.270  11.958
 2954W        W 6698   2.520   6.656   0.398
 2955W        W 6699   5.546   8.070   2.222
 2956W        W 6700   5.103   8.360   0.023
 2957W        W 6701   0.446   1.275   3.217
 2958W        W 6702   6.304   2.137  10.025
 2959W        W 6703   8.115   5.517   2.220
 2960W        W 6704   4.260   4.812   0.368
 2961W        W 6705   1.308   2.811   1.934
 2962W        W 6706   0.266   4.218   3.310
 2963W        W 6707   5.279   3.506  11.212
 2964W        W 6708   1.972   8.253  10.612
 2965W        W 6709   5.659   2.126  10.269
 2966W        W 6710   9.054   1.208   9.287
 2967W        W 6711   9.278   7.894  10.643
 2968W        W 6712   7.784   6.016   3.647
 2969W        W 6713   4.226   2.087  10.223
 2970W        W 6714   0.608   8.525   1.285
 2971W        W 6715   8.540   5.091   0.779
 2972W        W 6716   8.865   2.029   8.257
 2973W        W 6717   4.070   3.232  10.789
 2974W        W 6718   4.169   6.102  10.154
 2975W        W 6719   2.237   7.894   8.785
 2976W        W 6720   0.494   4.648   3.464
 2977W        W 6721   1.663   9.486   2.457
 2978W        W 6722   3.759   1.401   9.859
 2979W        W 6723   9.797   8.385   3.367
 2980W        W 6724   0.917   3.216   9.478
 2981W        W 6725   7.035   4.066   1.318
 2982W        W 6726   0.718   2.783   9.204
 2983W        W 6727   5.164   4.052   2.754
 2984W        W 6728   2.994   6.911   0.669
 2985W        W 6729   4.008   6.861   0.730
 2986W        W 6730   9.090   4.645   9.326
 2987W        W 6731   3.774   5.753   9.467
 2988W        W 6732   5.520   4.301   8.694
 2989W        W 6733   7.869   2.603   3.238
 2990W        W 6734   1.712   1.666  10.548
 2991W        W 6735   3.680   7.146  11.456
 2992W        W 6736   8.636   2.338   3.432
 2993W        W 6737   6.976   0.471  11.372
 2994W        W 6738   2.420   8.367  10.397
 2995W        W 6739   1.657   3.553   0.305
 2996W        W 6740   3.191   6.457   8.964
 2997W        W 6741  10.361   4.182  11.225
 2998W        W 6742   5.172   2.350   3.674
 2999W        W 6743   4.275   3.359   3.190
 3000W        W 6744   3.601   5.913  11.828
 3001W        W 6745   9.472   4.108   0.836
 3002W        W 6746   6.203   5.723   0.546
 3003W        W 6747   0.950   3.309  11.802
 3004W        W 6748   2.717   4.957   1.503
 3005W        W 6749   0.899   7.086  11.102
 3006W        W 6750   3.236   5.921  10.106
 3007W        W 6751   8.486   1.838   1.932
 3008W        W 6752   6.627   9.808   1.499
 3009W        W 6753   7.072  10.399   9.866
 3010W        W 6754   5.012   9.352  11.732
 3011W        W 6755   4.245   7.036   1.970
 3012W        W 6756   7.829   9.642   0.783
 3013W        W 6757   7.090   8.548   8.672
 3014W        W 6758  10.038   5.714   0.399
 3015W        W 6759  10.063   3.504   8.431
 3016W        W 6760   1.101   3.322   3.088
 3017W        W 6761   4.254   6.168   1.471
 3018W        W 6762   4.738   7.486   0.485
 3019W        W 6763   0.948   5.571   8.852
 3020W        W 6764   5.701   0.383  10.972
 3021W        W 6765   5.546   0.983  11.813
 3022W        W 6766   8.035   8.900   8.935
 3023W        W 6767   6.020  10.325   8.979
 3024W        W 6768   1.445   0.227   0.203
 3025W        W 6769   9.755   1.374   1.291
 3026W        W 6770   8.563   5.248   2.251
 3027W        W 6771   2.667   6.042   3.442
 3028W        W 6772   4.654   3.118   9.227
 3029W        W 6773   9.911   5.244   1.251
 3030W        W 6774   5.199   0.288   0.743
 3031W        W 6775   2.839   1.791   9.009
 3032W        W 6776   5.189   5.557  10.977
 3033W        W 6777   2.667   3.073   2.600
 3034W        W 6778   9.649   2.134   3.260
 3035W        W 6779   8.935   6.500   9.224
 3036W        W 6780   0.991   9.540   0.325
 3037W        W 6781   6.466   9.971   0.114
 3038W        W 6782   4.501   4.487  11.687
 3039W        W 6783   1.773   5.896   1.217
 3040W        W 6784   6.023   8.867   9.329
 3041W        W 6785   7.562   9.605   9.520
 3042W        W 6786   3.741   6.994   1.181
 3043W        W 6787   7.027   4.051   0.789
 3044W        W 6788   8.031   5.030   2.085
 3045W        W 6789   8.454   0.298  10.452
 3046W        W 6790   6.543   4.046  10.840
 3047W        W 6791   4.655   0.857   8.574
 3048W        W 6792   8.927   1.788  11.655
 3049W        W 6793  10.164   7.488   3.051
 3050W        W 6794   3.187   4.943   3.172
 3051W        W 6795   5.957   3.625   3.272
 3052W        W 6796   1.493   7.590  10.802
 3053W        W 6797   0.439   2.247  11.703
 3054W        W 6798   4.701   9.592   1.346
 3055W        W 6799   8.064   3.407  11.307
 3056W        W 6800   5.166   7.496   9.038
 3057W        W 6801   2.187  10.322   1.198
 3058W        W 6802   1.936   5.147   1.740
 3059W        W 6803   9.081   5.025  10.947
 3060W        W 6804   4.620   2.526   1.033
 3061W        W 6805   1.912   3.169  11.515
 3062W        W 6806   3.788   6.252  11.487
 3063W        W 6807  10.352   1.759   9.619
 3064W        W 6808   1.275   3.890  10.608
 3065W        W 6809   9.448   5.520  10.149
 3066W        W 6810  10.016   5.636   3.201
 3067W        W 6811   6.626   6.154   2.294
 3068W        W 6812   3.801   7.126   8.877
 3069W        W 6813   3.118   6.382  11.324
 3070W        W 6814   1.832   5.024   8.865
 3071W        W 6815   2.588   3.717  10.090
 3072W        W 6816   7.977   9.806   8.791
 3073W        W 6817   4.291   8.442  10.431
 3074W        W 6818   0.706   7.879  10.944
 3075W        W 6819  10.477   6.953   9.800
 3076W        W 6820   4.208   9.404   1.589
 3077W        W 6821   2.039   0.280  11.393
 3078W        W 6822   8.160   2.889   1.203
 3079W        W 6823   2.049   8.503   1.806
 3080W        W 6824   1.180   1.319  10.320
 3081W        W 6825   7.456   6.632   2.475
 3082W        W 6826   7.447   0.864   8.760
 3083W        W 6827   6.735   1.782   1.264
 3084W        W 6828   0.206   6.993   9.342
 3085W        W 6829   2.800   1.251   9.314
 3086W        W 6830   7.491   4.090   0.259
 3087W        W 6831   2.578   2.785   8.945
 3088W        W 6832   4.348   0.915   3.246
 3089W        W 6833   7.482   5.526   0.367
 3090W        W 6834   3.328   7.514   9.887
 3091W        W 6835   4.804   0.362   8.648
 3092W        W 6836   0.500   9.481   9.181
 3093W        W 6837   3.545   8.660  11.311
 3094W        W 6838   6.503   0.028   0.972
 3095W        W 6839  10.262   5.168   9.266
 3096W        W 6840   2.576   1.444   0.359
 3097W        W 6841   7.234   7.473   9.923
 3098W        W 6842   3.827   6.584   2.701
 3099W        W 6843   3.327   1.780   1.259
 3100W        W 6844   7.509   0.154   0.339
 3101W        W 6845   6.459   5.518   9.478
 3102W        W 6846   9.171   5.865   2.252
 3103W        W 6847   4.519   9.902   3.191
 3104W        W 6848   5.938   7.584  11.303
 3105W        W 6849   6.697   3.426  10.280
 3106W        W 6850   9.644   1.116   3.436
 3107W        W 6851   6.747   2.778  11.946
 3108W        W 6852   3.143   6.102  10.900
 3109W        W 6853   7.383   0.087   9.416
 3110W        W 6854   1.901   4.485   2.429
 3111W        W 6855   5.716   5.603   9.954
 3112W        W 6856   6.491   6.372   2.733
 3113W        W 6857   3.456   0.053   9.269
 3114W        W 6858   8.487   9.071   3.011
 3115W        W 6859   0.889   0.640   3.619
 3116W        W 6860   9.456   4.672   8.971
 3117W        W 6861   3.985   2.958   3.116
 3118W        W 6862   2.224   9.066   0.759
 3119W        W 6863   2.217   1.958   9.118
 3120W        W 6864   2.885   9.504  10.643
 3121W        W 6865   1.389   9.930   8.977
 3122W        W 6866   9.031   7.496   2.086
 3123W        W 6867   7.416   1.441   3.202
 3124W        W 6868   9.036   2.205   9.117
 3125W        W 6869   0.758   6.364   9.386
 3126W        W 6870   0.041  10.458  10.706
 3127W        W 6871   9.736   7.232   2.221
 3128W        W 6872   2.572   7.658   1.952
 3129W        W 6873   5.927   2.546   8.861
 3130W        W 6874   2.725   9.524   0.169
 3131W        W 6875   4.209   8.190   2.382
 3132W        W 6876   9.855   3.333   2.952
 3133W        W 6877   3.791   9.466  10.801
 3134W        W 6878   0.245   4.447  11.497
 3135W        W 6879   6.571   4.617   9.683
 3136W        W 6880   7.478  10.446   1.929
 3137W        W 6881   0.153   0.441  11.850
 3138W        W 6882   6.476   3.103  11.052
 3139W        W 6883   0.048   9.467   0.877
 3140W        W 6884   8.301   8.405   9.546
 3141W        W 6885   3.764   6.490  10.153
 3142W        W 6886   7.335   5.610   1.695
 3143W        W 6887   1.471   8.912   8.441
 3144W        W 6888   8.435   1.655  11.408
 3145W        W 6889   1.757   3.652  11.428
 3146W        W 6890   6.251   1.511   0.002
 3147W        W 6891   2.708   6.974   2.453
 3148W        W 6892   0.034   1.843  10.620
 3149W        W 6893   7.184   6.149   8.551
 3150W        W 6894   8.829   7.016  10.283
 3151W        W 6895   0.798   6.827   1.665
 3152W        W 6896   7.584  10.215   0.615
 3153W        W 6897   5.344   3.823   8.626
 3154W        W 6898   9.482   0.064  10.439
 3155W        W 6899   2.300   8.130   2.580
 3156W        W 6900   1.664   8.625   2.108
 3157W        W 6901   8.210   2.596  11.971
 3158W        W 6902   4.677   5.216  10.327
 3159W        W 6903   0.045   0.846  10.687
 3160W        W 6904   9.892   4.463   0.796
 3161W        W 6905   0.966   6.613   0.719
 3162W        W 6906   7.399   9.502  10.574
 3163W        W 6907   5.154  10.269   2.015
 3164W        W 6908  10.406   6.421   2.013
 3165W        W 6909   3.027   1.882  11.955
 3166W        W 6910   4.827   3.349   8.824
 3167W        W 6911   7.673   0.942   1.529
 3168W        W 6912   5.746   2.686  10.929
 3169W        W 6913   3.115   6.184   2.752
 3170W        W 6914   6.328   9.072   0.357
 3171W        W 6915   6.174   4.304  10.499
 3172W        W 6916   2.350   8.120   2.073
 3173W        W 6917   7.630   9.926  11.865
 3174W        W 6918   5.160   5.630   1.157
 3175W        W 6919   4.161   1.572  10.172
 3176W        W 6920   3.617   5.221   2.739
 3177W        W 6921   6.124   0.180   9.343
 3178W        W 6922   4.116   1.369   9.063
 3179W        W 6923   4.975   2.733   0.696
 3180W        W 6924   1.016   8.435   9.947
 3181W        W 6925  10.358   8.225   9.035
 3182W        W 6926   2.259   5.639   9.497
 3183W        W 6927   0.922   0.988   9.235
 3184W        W 6928   2.512   4.236   0.465
 3185W        W 6929   5.581   8.048  10.389
 3186W        W 6930   6.904   3.024   2.686
 3187W        W 6931   3.309   4.518  10.602
 3188W        W 6932   6.919   5.391  11.486
 3189W        W 6933   0.473   3.778  11.005
 3190W        W 6934   9.878   1.398   9.683
 3191W        W 6935   6.261   5.630   9.985
 3192W        W 6936   5.977   5.075   1.711
 3193W        W 6937   8.923   8.082  11.694
 3194W        W 6938   8.535   8.553   1.764
 3195W        W 6939   6.557   1.326   8.941
 3196W        W 6940   2.143   9.670   0.232
 3197W        W 6941   5.214   7.552   0.986
 3198W        W 6942   4.161   6.188   8.786
 3199W        W 6943   8.090   0.467   9.073
 3200W        W 6944   2.761   4.447   1.477
 3201W        W 6945   2.642   4.523   8.240
 3202W        W 6946   2.203   1.493  11.700
 3203W        W 6947   6.023   6.108  10.526
 3204W        W 6948   3.141   4.127  10.315
 3205W        W 6949   3.197   0.389   0.240
 3206W        W 6950   9.913  10.259   0.486
 3207W        W 6951   8.871   8.826   1.279
 3208W        W 6952   7.185   3.542   3.697
 3209W        W 6953   9.308   6.881  10.385
 3210W        W 6954   0.632   8.420  11.644
 3211W        W 6955   4.589   7.149   9.990
 3212W        W 6956   8.136   9.552  10.845
 3213W        W 6957   9.430   7.579   0.370
 3214W        W 6958   3.168   8.348   9.000
 3215W        W 6959   1.917   8.535  11.954
 3216W        W 6960   6.061   9.518   0.337
 3217W        W 6961   4.043   4.895  10.463
 3218W        W 6962   4.652   9.112   1.862
 3219W        W 6963   8.453   5.091   2.971
 3220W        W 6964   0.235   5.518   1.438
 3221W        W 6965   4.048   9.712  11.438
 3222W        W 6966   1.543   3.501   3.647
 3223W        W 6967   0.739   7.462   8.729
 3224W        W 6968   1.354   5.623  10.983
 3225W        W 6969   9.459   6.171   1.446
 3226W        W 6970   4.754  10.372  11.853
 3227W        W 6971   0.954   6.099   1.877
 3228W        W 6972   0.452   9.984  10.884
 3229W        W 6973   7.840   0.127   0.854
 3230W        W 6974   5.666   7.990   9.569
 3231W        W 6975   6.317   5.443   1.842
 3232W        W 6976   9.927   3.742   2.652
 3233W        W 6977   2.831   5.174  11.486
 3234W        W 6978   8.441   9.728   9.701
 3235W        W 6979   9.971   0.369   1.374
 3236W        W 6980   6.368   9.472  10.826
 3237W        W 6981   9.300   4.946   0.264
 3238W        W 6982   0.788   3.636   0.274
 3239W        W 6983   4.995   4.827  10.283
 3240W        W 6984  10.400   7.997  11.313
 3241W        W 6985   6.773   1.192  10.024
 3242W        W 6986   0.624   1.647   0.496
 3243W        W 6987   1.988   6.303   9.549
 3244W        W 6988   6.063   9.355  11.430
 3245W        W 6989  10.134   7.339   9.633
 3246W        W 6990   6.140   3.507   8.917
 3247W        W 6991   3.772   6.310   8.420
 3248W        W 6992   2.860   6.087   1.953
 3249W        W 6993   5.215   7.010   2.329
 3250W        W 6994   7.787   4.381   0.731
 3251W        W 6995   8.075   9.777   2.931
 3252W        W 6996   6.760   6.531   8.575
 3253W        W 6997  10.203   9.050   0.912
 3254W        W 6998   9.055   8.029  10.203
 3255W        W 6999   5.196   0.362   8.980
 3256W        W 7000   0.431   1.932   2.668
 3257W        W 7001   5.991   5.110   2.790
 3258W        W 7002   3.611   7.885   3.056
 3259W        W 7003   2.748   0.283   3.086
 3260W        W 7004   9.323   1.225   1.594
 3261W        W 7005   7.945   3.307   9.987
 3262W        W 7006   8.117   0.918   1.289
 3263W        W 7007   3.149   5.003   2.354
 3264W        W 7008   6.605   0.988   2.942
 3265W        W 7009   6.100   8.106  10.517
 3266W        W 7010   1.922   5.591   3.246
 3267W        W 7011   7.221   5.449   9.791
 3268W        W 7012  10.492   5.288   1.034
 3269W        W 7013   0.699   5.283  11.665
 3270W        W 7014   9.118  10.314   0.418
 3271W        W 7015   8.660   4.651  10.290
 3272W        W 7016   9.963   0.359   3.585
 3273W        W 7017   5.323   8.362   9.574
 3274W        W 7018   9.616   6.702  11.284
 3275W        W 7019   7.861   4.236  10.467
 3276W        W 7020   8.443   6.940   9.569
 3277W        W 7021   7.365   6.290   3.773
 3278W        W 7022   5.558   3.782   2.965
 3279W        W 7023   5.791   5.790   0.257
 3280W        W 7024   3.102   2.723   1.580
 3281W        W 7025   5.088   6.762   8.947
 3282W        W 7026   7.865   4.234   9.582
 3283W        W 7027   2.725   6.682   9.008
 3284W        W 7028   3.591   9.490  11.295
 3285W        W 7029   7.924   0.393  11.498
 3286W        W 7030   7.754   5.571   8.159
 3287W        W 7031   8.576   5.432   9.323
 3288W        W 7032   8.222   0.597   3.611
 3289W        W 7033   2.733   6.502   2.652
 3290W        W 7034   5.318   5.588   3.149
 3291W        W 7035   7.369   0.545   3.434
 3292W        W 7036   3.770   9.160   1.835
 3293W        W 7037   6.592   6.007   9.285
 3294W        W 7038   6.440   8.628   2.236
 3295W        W 7039   0.121   8.424  11.556
 3296W        W 7040   5.913   7.091   8.183
 3297W        W 7041   1.420   2.406  10.477
 3298W        W 7042   7.438   3.419   0.827
 3299W        W 7043   0.979   1.806   2.109
 3300W        W 7044   7.345  10.322  11.698
 3301W        W 7045   6.172   3.242   1.941
 3302W        W 7046   7.939   4.757   8.956
 3303W        W 7047   4.224   9.623   0.313
 3304W        W 7048  10.051   5.474  10.827
 3305W        W 7049   6.455   8.077   2.185
 3306W        W 7050   0.013   7.463  10.976
 3307W        W 7051   1.178   0.468   9.956
 3308W        W 7052   1.707   1.835   9.231
 3309W        W 7053   5.743   1.841   2.012
 3310W        W 7054   3.011   2.795  10.799
 3311W        W 7055   9.912   5.230   2.377
 3312W        W 7056   8.574   9.803   2.095
 3313W        W 7057  10.370   9.868   1.181
 3314W        W 7058   4.329   7.132   2.977
 3315W        W 7059   4.000   6.377   3.351
 3316W        W 7060   4.312   1.392   2.315
 3317W        W 7061   9.988   9.793   0.234
 3318W        W 7062   5.240   4.756   9.275
 3319W        W 7063   2.228  10.307   8.515
 3320W        W 7064   4.711   7.514   8.608
 3321W        W 7065   3.693   7.850   0.733
 3322W        W 7066   7.417   7.643   1.268
 3323W        W 7067   8.662   9.956   3.526
 3324W        W 7068   2.706   4.985   9.036
 3325W        W 7069   6.486   9.257  11.695
 3326W        W 7070   1.897   2.624  10.427
 3327W        W 7071   8.490   1.035   3.511
 3328W        W 7072   8.204   1.237   0.078
 3329W        W 7073   5.569   3.632   0.465
 3330W        W 7074   7.014   4.500   1.053
 3331W        W 7075   2.340   0.423  10.473
 3332W        W 7076   2.865   9.510   3.413
 3333W        W 7077   0.666   0.427  10.035
 3334W        W 7078   9.324   7.462   1.257
 3335W        W 7079  10.271   7.052   0.685
 3336W        W 7080   4.690   7.665   9.184
 3337W        W 7081   0.176   8.068   9.926
 3338W        W 7082   8.128   7.552  10.128
 3339W        W 7083   9.119   0.343   0.453
 3340W        W 7084   8.984   9.429   8.767
 3341W        W 7085   1.772   1.229   0.893
 3342W        W 7086   5.682   3.633   0.960
 3343W        W 7087   7.316   1.758   9.427
 3344W        W 7088   4.024  10.243   3.259
 3345W        W 7089   1.834   2.301   9.010
 3346W        W 7090   3.636   0.514  10.953
 3347W        W 7091   3.412   4.538   0.014
 3348W        W 7092   2.417   1.926  10.357
 3349W        W 7093   1.275   5.070   2.447
 3350W        W 7094   1.036   5.161   8.569
 3351W        W 7095   4.343   3.672  10.822
 3352W        W 7096   0.289   3.360   2.415
 3353W        W 7097   8.937   7.953   2.316
 3354W        W 7098   4.590   8.335   0.906
 3355W        W 7099   3.928   4.608   8.660
 3356W        W 7100   2.976  10.308   0.853
 3357W        W 7101   8.361   4.974   9.146
 3358W        W 7102   2.434   8.601   3.314
 3359W        W 7103   5.328   0.748   1.664
 3360W        W 7104   8.417   6.076   0.362
 3361W        W 7105   5.136   3.331   0.859
 3362W        W 7106   6.986   9.976   2.180
 3363W        W 7107   2.127   8.928  10.046
 3364W        W 7108   0.821   5.198   2.252
 3365W        W 7109   5.685   9.907  11.944
 3366W        W 7110   8.132   3.643   1.345
 3367W        W 7111   5.701   7.570   3.363
 3368W        W 7112   6.769   2.845   9.938
 3369W        W 7113   5.819   4.488   0.251
 3370W        W 7114  10.482   9.448   8.539
 3371W        W 7115   5.419   2.138   9.806
 3372W        W 7116   8.950   2.746   3.373
 3373W        W 7117   4.213   8.425   1.804
 3374W        W 7118   9.971   0.058   3.176
 3375W        W 7119   4.961   7.683   1.410
 3376W        W 7120   1.831   2.809   0.742
 3377W        W 7121   5.724   7.827  10.839
 3378W        W 7122   3.822   0.538  11.501
 3379W        W 7123   6.641   8.541   8.932
 3380W        W 7124   9.599   2.790   0.921
 3381W        W 7125   9.459   8.927  10.177
 3382W        W 7126   6.233   2.653   3.703
 3383W        W 7127   3.587   8.909  10.805
 3384W        W 7128   3.141   7.768   0.396
 3385W        W 7129   4.077   4.021   0.968
 3386W        W 7130   1.362   5.502   0.488
 3387W        W 7131   7.739   8.161   2.761
 3388W        W 7132   5.098   9.923   1.345
 3389W        W 7133   3.262   6.939   9.061
 3390W        W 7134   8.094   5.429   3.078
 3391W        W 7135   9.384   0.431   1.041
 3392W        W 7136   8.838   3.239  10.037
 3393W        W 7137   9.028   9.345  11.331
 3394W        W 7138   5.720   2.683   3.786
 3395W        W 7139   1.773   5.518  10.719
 3396W        W 7140   6.934   4.273  11.392
 3397W        W 7141   4.270   3.884   0.173
 3398W        W 7142   2.189   8.093  11.068
 3399W        W 7143   6.185   7.625   8.605
 3400W        W 7144   1.769   1.237   9.749
 3401W        W 7145   5.418   6.488   0.021
 3402W        W 7146   1.320   7.140  10.122
 3403W        W 7147   8.914   3.577  11.775
 3404W        W 7148   6.039   5.179  11.624
 3405W        W 7149   0.514   7.856  10.456
 3406W        W 7150   7.428   6.521  11.377
 3407W        W 7151   8.155   7.858   2.754
 3408W        W 7152   2.542   0.170   1.913
 3409W        W 7153  10.186   0.534  10.945
 3410W        W 7154   6.362  10.456   2.215
 3411W        W 7155   2.762   5.122   4.040
 3412W        W 7156   8.380  10.314  10.331
 3413W        W 7157   9.030   3.495   8.663
 3414W        W 7158   7.176   3.687   0.464
 3415W        W 7159   8.207   7.977   9.829
 3416W        W 7160   0.693   1.209  10.449
 3417W        W 7161   6.720   9.351   9.362
 3418W        W 7162   1.142   0.465   1.886
 3419W        W 7163   4.208   9.352  11.128
 3420W        W 7164   4.972   7.420  10.596
 3421W        W 7165   8.171   6.926   0.281
 3422W        W 7166   4.720   5.449   9.851
 3423W        W 7167   4.019   6.590  11.084
 3424W        W 7168   7.051   8.314   3.470
 3425W        W 7169   3.872   1.964   3.479
 3426W        W 7170   7.395   6.298   0.770
 3427W        W 7171   4.247   3.205   8.915
 3428W        W 7172   0.952   0.390   2.378
 3429W        W 7173   4.295   0.921   0.387
 3430W        W 7174   5.236   1.263   0.985
 3431W        W 7175   7.500   4.762   0.894
 3432W        W 7176   6.938   3.739  10.917
 3433W        W 7177   7.115   1.706   0.947
 3434W        W 7178   5.478   4.892   0.907
 3435W        W 7179   7.150   0.423   8.668
 3436W        W 7180   1.910   6.221   9.029
 3437W        W 7181   6.100   6.780   3.241
 3438W        W 7182   6.467   4.819  10.244
 3439W        W 7183   2.117   9.923   8.839
 3440W        W 7184   3.599   0.835  11.867
 3441W        W 7185   6.544   6.301   3.527
 3442W        W 7186   3.616   9.948  10.538
 3443W        W 7187   7.550   9.080   2.981
 3444W        W 7188   6.468   8.301   9.394
 3445W        W 7189   0.305   1.556   9.381
 3446W        W 7190   9.386   4.863   9.656
 3447W        W 7191   6.095   2.859   0.685
 3448W        W 7192   1.172   4.277   2.466
 3449W        W 7193   8.918   4.883   2.416
 3450W        W 7194   9.507   3.549   1.636
 3451W        W 7195   4.336   2.793   2.314
 3452W        W 7196   0.704   9.208  10.434
 3453W        W 7197   3.855   8.522   1.279
 3454W        W 7198   1.043   2.820   8.792
 3455W        W 7199   4.759   3.049   4.067
 3456W        W 7200   7.055   1.901   0.014
 3457W        W 7201   0.620   6.652   8.504
 3458W        W 7202   1.729   6.096   2.534
 3459W        W 7203   6.950   7.935   3.157
 3460W        W 7204   5.156   8.337   2.835
 3461W        W 7205   5.364   8.834   0.410
 3462W        W 7206   8.760   5.560   8.841
 3463W        W 7207   7.004   9.258  11.829
 3464W        W 7208  10.382  10.209   0.239
 3465W        W 7209   1.475   3.247   0.681
 3466W        W 7210   7.066   6.600   1.001
 3467W        W 7211  10.360   0.676   0.219
 3468W        W 7212   9.924   4.179   9.611
 3469W        W 7213   3.300   5.006  11.293
 3470W        W 7214   7.861   6.927   2.933
 3471W        W 7215   4.712   3.041   1.002
 3472W        W 7216   4.113   4.130  11.730
 3473W        W 7217   9.436   8.328   1.794
 3474W        W 7218   0.864   2.856   0.990
 3475W        W 7219   2.905   5.198   1.937
 3476W        W 7220   0.963   2.324   9.063
 3477W        W 7221   9.889   7.109  11.407
 3478W        W 7222   5.689   7.119  11.348
 3479W        W 7223  10.121   4.564   0.365
 3480W        W 7224   5.494  10.042   3.279
 3481W        W 7225   5.152   1.242   9.504
 3482W        W 7226   1.265   4.202   2.959
 3483W        W 7227   9.712   3.971   9.188
 3484W        W 7228   3.739   8.201  11.374
 3485W        W 7229   0.425   8.636  11.209
 3486W        W 7230  10.239   2.184   0.590
 3487W        W 7231   5.102   0.687  11.778
 3488W        W 7232   7.223   1.884  10.531
 3489W        W 7233   3.820   8.811   9.948
 3490W        W 7234   8.068   3.240   0.200
 3491W        W 7235   1.850   7.887   0.765
 3492W        W 7236   5.527   8.812   1.177
 3493W        W 7237   1.283   8.122  11.446
 3494W        W 7238   9.962   4.700   3.426
 3495W        W 7239   2.682   2.977   1.269
 3496W        W 7240   6.536   8.985   1.120
 3497W        W 7241   1.953   3.514   2.802
 3498W        W 7242   8.708   0.538  10.086
 3499W        W 7243   6.621   6.738   1.382
 3500W        W 7244   5.634   9.963  10.077
 3501W        W 7245   8.794   3.625  10.991
 3502W        W 7246  10.011   0.279   0.313
 3503W        W 7247   9.833   8.298   2.865
 3504W        W 7248   3.170   1.336   1.452
 3505W        W 7249   5.652   6.307   3.720
 3506W        W 7250   4.518   7.661   8.074
 3507W        W 7251   2.856   8.099  10.395
 3508W        W 7252   6.711   5.932  11.278
 3509W        W 7253   2.656  10.284   3.582
 3510W        W 7254   1.376  10.087  11.131
 3511W        W 7255   1.869   6.966   1.950
 3512W        W 7256   3.185   4.767   1.679
 3513W        W 7257   7.073   0.276   3.132
 3514W        W 7258   7.934   0.806  10.703
 3515W        W 7259   2.321   2.880   0.445
 3516W        W 7260   3.062   1.876  10.778
 3517W        W 7261   1.316   3.088   3.482
 3518W        W 7262   8.034   3.537   3.365
 3519W        W 7263  10.268   9.437   2.971
 3520W        W 7264   2.936   1.178  10.837
 3521W        W 7265   0.255   4.299   1.904
 3522W        W 7266   9.667  10.301   9.604
 3523W        W 7267   1.333   1.807  10.232
 3524W        W 7268   7.247   7.880   9.622
 3525W        W 7269   4.500   0.788   2.752
 3526W        W 7270   5.759   8.075   1.612
 3527W        W 7271   1.193   4.295  11.925
 3528W        W 7272   3.102   9.918  10.448
 3529W        W 7273   6.577   0.189   1.826
 3530W        W 7274   5.375   0.462   3.491
 3531W        W 7275   5.090   9.982   2.499
 3532W        W 7276   0.622   0.229  11.938
 3533W        W 7277   6.578   4.497  11.091
 3534W        W 7278   0.735   0.411  11.055
 3535W        W 7279   2.914   1.649  10.283
 3536W        W 7280   3.179   7.867   0.928
 3537W        W 7281   2.644   4.253  11.950
 3538W        W 7282   2.275   1.655  11.228
 3539W        W 7283   4.654   9.618   9.078
 3540W        W 7284   3.717   0.324   0.984
 3541W        W 7285   5.012   6.067   0.867
 3542W        W 7286   3.351   2.687  11.770
 3543W        W 7287   0.437   4.006   1.534
 3544W        W 7288   7.593   7.413  10.769
 3545W        W 7289   7.110   6.229  11.071
 3546W        W 7290   8.433   8.938   0.981
 3547W        W 7291   0.582   2.498   3.518
 3548W        W 7292   0.388   7.442  11.859
 3549W        W 7293   3.568   4.969  10.721
 3550W        W 7294   7.093   8.862   9.624
 3551W        W 7295   9.769   4.295   3.167
 3552W        W 7296   3.642   8.501  11.802
 3553W        W 7297   3.978   0.042   2.181
 3554W        W 7298   7.048   7.914   2.129
 3555W        W 7299   1.377   4.973  11.356
 3556W        W 7300   0.322   5.289  11.323
 3557W        W 7301   7.540   3.186   9.699
 3558W        W 7302  10.008   9.100   9.420
 3559W        W 7303   7.137   0.413   1.179
 3560W        W 7304   0.569   1.336   9.009
 3561W        W 7305   5.710   6.427   1.439
 3562W        W 7306   8.867   0.538  10.633
 3563W        W 7307   0.820   7.016  10.072
 3564W        W 7308   4.548   7.652  10.762
 3565W        W 7309   2.348   6.902   8.121
 3566W        W 7310   4.738   6.832   3.144
 3567W        W 7311   2.854   3.176  11.410
 3568W        W 7312  10.340   2.956   1.308
 3569W        W 7313   0.527   7.039   8.925
 3570W        W 7314   9.964   9.503   9.078
 3571W        W 7315   4.262   3.654   2.707
 3572W        W 7316   8.539   6.657   3.434
 3573W        W 7317   0.799   7.789   9.110
 3574W        W 7318   1.918   2.201   9.516
 3575W        W 7319   7.198   9.427   2.805
 3576W        W 7320   1.477   7.982   9.540
 3577W        W 7321   6.688   7.009  10.924
 3578W        W 7322   4.593   0.763  11.795
 3579W        W 7323   1.294   1.029  11.552
 3580W        W 7324   5.200   4.269   9.122
 3581W        W 7325   6.722   7.421   9.978
 3582W        W 7326   3.995   3.119   1.403
 3583W        W 7327   4.719   6.953   2.143
 3584W        W 7328   5.574   2.572  10.479
 3585W        W 7329   6.322   8.658   8.557
 3586W        W 7330   4.054   8.071   8.697
 3587W        W 7331   2.247   6.580   9.194
 3588W        W 7332  10.227   7.984   2.779
 3589W        W 7333   3.108   1.916   3.218
 3590W        W 7334  10.441   0.898  11.765
 3591W        W 7335   7.491  10.091   1.543
 3592W        W 7336   1.173   3.281   2.599
 3593W        W 7337   3.369   6.111   1.869
 3594W        W 7338   0.882   4.698   2.437
 3595W        W 7339   6.072   1.994  11.744
 3596W        W 7340   8.616   9.398   1.287
 3597W        W 7341   6.554   2.320   2.990
 3598W        W 7342   6.922   6.465  11.491
 3599W        W 7343   4.543   1.134   9.239
 3600W        W 7344   0.824   8.480   2.734
 3601W        W 7345  10.147   0.854   3.538
 3602W        W 7346   4.290   9.427  10.609
 3603W        W 7347   0.521   2.829   8.725
 3604W        W 7348   4.185   4.201   3.596
 3605W        W 7349   4.563   9.966   0.468
 3606W        W 7350   2.208   3.767   9.759
 3607W        W 7351   5.599   5.107   9.843
 3608W        W 7352   5.486   9.868  11.065
 3609W        W 7353   9.267   8.982   8.716
 3610W        W 7354   1.426   9.264   0.635
 3611W        W 7355   9.369   8.094  11.961
 3612W        W 7356   1.350   9.929   2.837
 3613W        W 7357   2.467   1.801   0.019
 3614W        W 7358   5.956   7.920   9.999
 3615W        W 7359   0.837  10.211   2.864
 3616W        W 7360   1.228   2.853   2.935
 3617W        W 7361   5.694   3.566   4.263
 3618W        W 7362   0.397   8.962  11.591
 3619W        W 7363   2.640   7.535  11.495
 3620W        W 7364   7.465  10.101  11.258
 3621W        W 7365   1.783   2.815   1.725
 3622W        W 7366   1.737   9.316   9.972
 3623W        W 7367  10.360   5.952   8.553
 3624W        W 7368   2.045   7.135   8.481
 3625W        W 7369  10.014   7.908  10.300
 3626W        W 7370   1.237   3.641  11.560
 3627W        W 7371   7.059   0.215   3.654
 3628W        W 7372   3.988   0.897  10.956
 3629W        W 7373   7.778   6.145  10.452
 3630W        W 7374   7.672   1.979   9.741
 3631W        W 7375   7.925   7.890   3.202
 3632W        W 7376   1.707   5.204  11.871
 3633W        W 7377   5.066   4.070   8.166
 3634W        W 7378   8.066   1.999  11.393
 3635W        W 7379   5.344   4.436   0.688
 3636W        W 7380   8.727   2.602   0.695
 3637W        W 7381   6.867   1.744   9.684
 3638W        W 7382   6.952   4.028  10.485
 3639W        W 7383   1.359   4.327   9.883
 3640W        W 7384   5.281   6.656   8.483
 3641W        W 7385  10.035   2.223  11.208
 3642W        W 7386   2.442   1.233   3.548
 3643W        W 7387   5.752   5.098   2.170
 3644W        W 7388   6.957   0.186   0.750
 3645W        W 7389  10.360   8.967   3.246
 3646W        W 7390   9.911   2.822   2.822
 3647W        W 7391   4.707   3.114  11.575
 3648W        W 7392   2.240   9.858   2.954
 3649W        W 7393  10.277   3.082  10.858
 3650W        W 7394   9.509   1.099  11.941
 3651W        W 7395   4.422   8.889  11.126
 3652W        W 7396   0.900   6.694   2.619
 3653W        W 7397   7.945   4.095   2.180
 3654W        W 7398   6.405   9.003   8.977
 3655W        W 7399   5.193   8.375   8.935
 3656W        W 7400   4.961  10.445   9.726
 3657W        W 7401   4.494   9.583   2.339
 3658W        W 7402   1.152   0.486   0.747
 3659W        W 7403   4.860   0.258  10.543
 3660W        W 7404   3.885   9.875   1.182
 3661W        W 7405   4.182   7.897  10.298
 3662W        W 7406   3.739   1.935  11.509
 3663W        W 7407  10.274   8.449   1.707
 3664W        W 7408   7.636   1.809   1.651
 3665W        W 7409   7.512   9.971  10.752
 3666W        W 7410   8.835   9.032   1.763
 3667W        W 7411   1.782   8.103  11.483
 3668W        W 7412   1.021   5.491   3.263
 3669W        W 7413   9.463   7.822   3.508
 3670W        W 7414   9.390   8.601  11.854
 3671W        W 7415   8.597   4.294  11.780
 3672W        W 7416   3.551  10.333   3.046
 3673W        W 7417   4.182   4.376  11.251
 3674W        W 7418   9.723   1.017   1.806
 3675W        W 7419   7.503   8.890   4.023
 3676W        W 7420   2.601   2.383   0.414
 3677W        W 7421   9.854   9.800  11.707
 3678W        W 7422   4.452   3.613   9.134
 3679W        W 7423   9.367   2.203   2.767
 3680W        W 7424   4.217   6.554   9.924
 3681W        W 7425   0.987   2.394   0.786
 3682W        W 7426   6.247   0.773   1.144
 3683W        W 7427   5.983   5.689  11.374
 3684W        W 7428   4.231   8.958  10.303
 3685W        W 7429   8.505   8.005   1.035
 3686W        W 7430   0.492   5.108   0.127
 3687W        W 7431   7.820   9.358   0.339
 3688W        W 7432   2.816   9.009   3.310
 3689W        W 7433   2.190   1.222   1.179
 3690W        W 7434   9.873   2.280   2.826
 3691W        W 7435   1.793   1.426   1.422
 3692W        W 7436   0.294   4.920  11.685
 3693W        W 7437   8.951   7.982   2.847
 3694W        W 7438   8.936   1.732   9.339
 3695W        W 7439   4.576   9.074   2.430
 3696W        W 7440   8.363   2.370   2.494
 3697W        W 7441   3.616   1.385   0.407
 3698W        W 7442   8.335   6.279   3.744
 3699W        W 7443   1.830   4.802  11.569
 3700W        W 7444   6.744   6.719   9.053
 3701W        W 7445   7.648   0.923   0.723
 3702W        W 7446   8.573   1.450  10.966
 3703W        W 7447   2.081   9.306  10.359
 3704W        W 7448   9.831   4.627   9.897
 3705W        W 7449   3.778   9.144  10.382
 3706W        W 7450   0.690   9.430   2.216
 3707W        W 7451   2.642   2.268  11.908
 3708W        W 7452   2.810   3.029   3.357
 3709W        W 7453   9.938   6.392   1.831
 3710W        W 7454   1.456   3.611   8.678
 3711W        W 7455   9.438   3.958  11.555
 3712W        W 7456   8.327  10.027  10.771
 3713W        W 7457   2.021   4.857   3.653
 3714W        W 7458   0.747   6.518   2.079
 3715W        W 7459   0.635   0.358   1.971
 3716W        W 7460   9.626   4.260   8.764
 3717W        W 7461   0.898   2.774  11.906
 3718W        W 7462   8.103   7.944  11.790
 3719W        W 7463   6.459   8.504  10.873
 3720W        W 7464   3.709   7.596   9.298
 3721W        W 7465   3.272   3.799   2.660
 3722W        W 7466   6.007   6.095  10.013
 3723W        W 7467  10.413   8.167  11.941
 3724W        W 7468   9.777   4.988   0.782
 3725W        W 7469   7.472   4.578  11.006
 3726W        W 7470   5.201   8.370  10.077
 3727W        W 7471  10.323   5.115  10.556
 3728W        W 7472  10.298   7.030   1.197
 3729W        W 7473   7.142   7.208  10.796
 3730W        W 7474   7.586   9.102   9.713
 3731W        W 7475   8.582   9.249   9.579
 3732W        W 7476   9.586   3.486   9.384
 3733W        W 7477   0.036   0.856   9.739
 3734W        W 7478   9.898   9.311   9.906
 3735W        W 7479   9.902   6.125   9.465
 3736W        W 7480   6.906  10.162  11.889
 3737W        W 7481   5.435   9.961   1.712
 3738W        W 7482   5.502   3.311   9.834
 3739W        W 7483   9.546   6.652   1.667
 3740W        W 7484   5.064   8.507  11.548
 3741W        W 7485   3.735  10.482  10.813
 3742W        W 7486   9.345   9.495   0.508
 3743W        W 7487   4.774   8.672   8.847
 3744W        W 7488   9.345  10.323  11.865
 3745W        W 7489   3.726   8.653   1.761
 3746W        W 7490  10.355   5.540   9.957
 3747W        W 7491   1.473   3.642   2.780
 3748W        W 7492   6.623   8.490   1.315
 3749W        W 7493   2.892   7.432   2.306
 3750W        W 7494   3.100   5.128  10.837
 3751W        W 7495   5.257   9.669   0.048
 3752W        W 7496   0.033   3.196   9.930
 3753W        W 7497   9.389   3.292   0.287
 3754W        W 7498   8.911   8.352   1.060
 3755W        W 7499   4.287   6.825   3.401
 3756W        W 7500   9.974   8.827   0.533
 3757W        W 7501   2.417   3.402   0.370
 3758W        W 7502   7.424   2.450   0.932
 3759W        W 7503   6.614   0.275   8.717
 3760W        W 7504   2.684   6.948   8.522
 3761W        W 7505   0.259   3.349   0.330
 3762W        W 7506   9.381   6.216   3.135
 3763W        W 7507   7.607   0.017   9.878
 3764W        W 7508   3.029   6.602   3.062
 3765W        W 7509   1.472   8.235   3.181
 3766W        W 7510   2.808   2.805   0.234
 3767W        W 7511   1.260   9.775   8.488
 3768W        W 7512   5.784   4.233   3.599
 3769W        W 7513   0.222   4.174   2.818
 3770W        W 7514   9.762   5.869  11.021
 3771W        W 7515   5.978  10.368   9.918
 3772W        W 7516   4.233   7.329   0.448
 3773W        W 7517   7.335   9.024   0.217
 3774W        W 7518  10.303   9.480   2.476
 3775W        W 7519   3.272   7.086  11.752
 3776W        W 7520   2.471   7.831  11.866
 3777W        W 7521   5.704   0.713  11.414
 3778W        W 7522   9.149   2.296   3.238
 3779W        W 7523   3.755   3.172  11.176
 3780W        W 7524   4.741   3.173   3.213
 3781W        W 7525   7.393   6.983   1.654
 3782W        W 7526   2.395   9.937   9.643
 3783W        W 7527   8.324   3.781  11.050
 3784W        W 7528   5.656   9.084   0.761
 3785W        W 7529   3.842   9.450   2.925
 3786W        W 7530   1.712   9.455  11.294
 3787W        W 7531   1.787   6.505   3.007
 3788W        W 7532   3.364   7.409   8.954
 3789W        W 7533   0.302   1.638   8.390
 3790W        W 7534   6.538   0.185  11.501
 3791W        W 7535   4.706   4.585  11.194
 3792W        W 7536   8.221   2.656   0.749
 3793W        W 7537   6.201   8.208   1.377
 3794W        W 7538   0.820   9.303  11.545
 3795W        W 7539   5.137   6.053   2.437
 3796W        W 7540   2.662   8.097  10.858
 3797W        W 7541   6.140   4.254   1.236
 3798W        W 7542   4.765   8.558  10.271
 3799W        W 7543   5.609   9.039  10.531
 3800W        W 7544   7.521   0.083  10.379
 3801W        W 7545   4.503   4.727  10.355
 3802W        W 7546   7.113   4.945   3.354
 3803W        W 7547   4.895   7.288   8.078
 3804W        W 7548   7.987   3.191   1.587
 3805W        W 7549   5.448  10.420   9.906
 3806W        W 7550   9.171   6.698   0.132
 3807W        W 7551   9.580   8.967   9.699
 3808W        W 7552   2.247   0.750   9.644
 3809W        W 7553   8.050   6.623  10.245
 3810W        W 7554   5.220   7.085   4.229
 3811W        W 7555   7.357   7.133  10.326
 3812W        W 7556   3.062   6.637  11.768
 3813W        W 7557   0.296   2.913   9.583
 3814W        W 7558   6.211   7.061   3.999
 3815W        W 7559   1.825   6.708   1.511
 3816W        W 7560   1.133   5.261   1.053
 3817W        W 7561   8.724   7.471   3.566
 3818W        W 7562   1.318   7.057  10.662
 3819W        W 7563   8.800  10.279   0.917
 3820W        W 7564   7.006   7.085   8.792
 3821W        W 7565   1.806   4.963   2.304
 3822W        W 7566   4.232   5.207  10.084
 3823W        W 7567   6.191   8.373   2.888
 3824W        W 7568   5.070   3.352   0.362
 3825W        W 7569   3.179   1.007   2.849
 3826W        W 7570  10.429   0.625   1.346
 3827W        W 7571   1.505   7.843   2.433
 3828W        W 7572   6.881   6.243   8.148
 3829W        W 7573   5.943   9.643  11.027
 3830W        W 7574   4.463   1.705   2.814
 3831W        W 7575   8.127   2.742   2.819
 3832W        W 7576   8.590   6.773   0.936
 3833W        W 7577   4.812   1.329   2.123
 3834W        W 7578   9.409  10.136   2.153
 3835W        W 7579   9.979  10.148   0.983
 3836W        W 7580   7.650   8.144   0.036
 3837W        W 7581   3.289   5.996   9.171
 3838W        W 7582   2.274   5.985  11.870
 3839W        W 7583   8.364   6.966  10.463
 3840W        W 7584   0.226   7.153   0.951
 3841W        W 7585   8.542   2.833   9.987
 3842W        W 7586   5.143   6.517   2.162
 3843W        W 7587   1.364   6.856   8.869
 3844W        W 7588   5.650   3.315   2.776
 3845W        W 7589   8.128   6.535   3.143
 3846W        W 7590   4.680   9.851  10.815
 3847W        W 7591   8.991   4.734   1.541
 3848W        W 7592   1.770   2.882   9.987
 3849W        W 7593   7.047   8.942   2.834
 3850W        W 7594   6.137   6.500  10.835
 3851W        W 7595   1.353   3.305   2.142
 3852W        W 7596   7.051   2.736  11.543
 3853W        W 7597   9.867  10.243  11.978
 3854W        W 7598   3.765   8.101   9.500
 3855W        W 7599   3.185   1.439   1.956
 3856W        W 7600   6.475   0.221   0.458
 3857W        W 7601   5.070   1.793  10.752
 3858W        W 7602   2.283   5.575  11.498
 3859W        W 7603   5.373   5.690   8.577
 3860W        W 7604   2.176   7.392   9.627
 3861W        W 7605   6.125   8.109  11.059
 3862W        W 7606   2.167   7.833   9.324
 3863W        W 7607   6.938   3.494   2.551
 3864W        W 7608   1.880   4.531   1.421
 3865W        W 7609   0.375   0.940   2.731
 3866W        W 7610   0.917   5.077   9.949
 3867W        W 7611   0.463   4.840  10.084
 3868W        W 7612   4.625   5.364  11.200
 3869W        W 7613   5.118   3.796   0.139
 3870W        W 7614   4.309   4.605  10.819
 3871W        W 7615   5.575   3.307   2.271
 3872W        W 7616   2.098   9.759  10.575
 3873W        W 7617   7.641   9.605   1.655
 3874W        W 7618   4.102   6.056   0.999
 3875W        W 7619  10.328   1.788  11.461
 3876W        W 7620   8.949   2.861   1.456
 3877W        W 7621   0.587   5.905   1.467
 3878W        W 7622   7.393   0.588   9.562
 3879W        W 7623   8.501   3.898   3.323
 3880W        W 7624   9.066   2.245  11.467
 3881W        W 7625   9.339   4.609  10.099
 3882W        W 7626   1.875   9.008   2.882
 3883W        W 7627   1.802   0.890   9.347
 3884W        W 7628   9.438   1.268  10.926
 3885W        W 7629   8.573   4.594  11.314
 3886W        W 7630   8.455   2.724   8.959
 3887W        W 7631   8.844   1.903   3.255
 3888W        W 7632   7.149   7.812   8.551
 3889W        W 7633   1.925   7.659   2.674
 3890W        W 7634   9.893   0.671   0.977
 3891W        W 7635   1.168   4.040   1.447
 3892W        W 7636   5.740   1.275  10.747
 3893W        W 7637   8.064   7.843  11.274
 3894W        W 7638   2.283   5.267   3.491
 3895W        W 7639   8.016   9.784   9.321
 3896W        W 7640   2.685   8.962  10.984
 3897W        W 7641  10.489   1.859  11.955
 3898W        W 7642   9.403   8.559   2.789
 3899W        W 7643   3.197   4.707   3.616
 3900W        W 7644   9.746   0.845  11.024
 3901W        W 7645   7.146   6.686  10.746
 3902W        W 7646   9.027   0.749   0.775
 3903W        W 7647   9.968   9.968  10.818
 3904W        W 7648   5.248   9.711  10.365
 3905W        W 7649   7.570   8.592   3.130
 3906W        W 7650   5.714   6.460   0.937
 3907W        W 7651   1.393   9.550  10.891
 3908W        W 7652   9.783   3.709   9.818
 3909W        W 7653   6.972   0.132   9.064
 3910W        W 7654   6.474   6.638  11.219
 3911W        W 7655   1.745   6.184  11.845
 3912W        W 7656   5.265   4.467  11.017
 3913W        W 7657   5.684   4.213   2.151
 3914W        W 7658   5.578   5.102   3.134
 3915W        W 7659   1.946   3.226   9.652
 3916W        W 7660   6.154   3.328  11.427
 3917W        W 7661   6.360   7.736   1.279
 3918W        W 7662   5.638   0.271   0.410
 3919W        W 7663   3.273   4.990   4.044
 3920W        W 7664   8.199   6.687   2.215
 3921W        W 7665   1.073   3.533   1.487
 3922W        W 7666   4.811   9.461   3.179
 3923W        W 7667  10.464  10.477  10.214
 3924W        W 7668   9.287   4.056   2.507
 3925W        W 7669   8.335   1.857   2.417
 3926W        W 7670   3.677   4.019   1.375
 3927W        W 7671   1.086   7.101   9.644
 3928W        W 7672   9.652   4.739  10.473
 3929W        W 7673   2.763   1.218   0.778
 3930W        W 7674   2.241   8.308  11.562
 3931W        W 7675   8.029   8.449  11.775
 3932W        W 7676   1.815  10.037   1.641
 3933W        W 7677   6.537   9.343  10.353
 3934W        W 7678   9.620   3.792  10.600
 3935W        W 7679  10.494   0.815  11.244
 3936W        W 7680   1.245   1.385   2.299
 3937W        W 7681   9.430   2.654   1.496
 3938W        W 7682   4.876  10.232   2.973
 3939W        W 7683   4.127   2.696   9.075
 3940W        W 7684   9.429  10.025   2.697
 3941W        W 7685   5.595   6.637   8.927
 3942W        W 7686   8.071   2.872  10.722
 3943W        W 7687   1.801   2.769  11.805
 3944W        W 7688   3.600   0.889   2.598
 3945W        W 7689   8.482   8.915  10.280
 3946W        W 7690   0.254   4.218   9.225
 3947W        W 7691   1.574   1.481   8.889
 3948W        W 7692   4.948   2.237  11.875
 3949W        W 7693   8.597  10.492  10.879
 3950W        W 7694   2.144   1.069  10.061
 3951W        W 7695   0.945   6.989   2.141
 3952W        W 7696   8.065   0.661   1.734
 3953W        W 7697   7.294   6.229  10.353
 3954W        W 7698   9.300   0.715   3.489
 3955W        W 7699  10.487   5.093   9.715
 3956W        W 7700   8.819   5.093  10.496
 3957W        W 7701   8.967   4.617   8.842
 3958W        W 7702   4.900   3.673   8.446
 3959W        W 7703   4.979   5.684   0.283
 3960W        W 7704   2.356   0.367   2.778
 3961W        W 7705   9.795   8.980   3.518
 3962W        W 7706  10.464   8.595  10.091
 3963W        W 7707   6.321  10.319   2.713
 3964W        W 7708   4.251   5.350  10.576
 3965W        W 7709   7.067   3.359  11.232
 3966W        W 7710   1.447   1.673   0.219
 3967W        W 7711   7.428   5.216   9.360
 3968W        W 7712   3.270   0.475   1.284
 3969W        W 7713   1.220   3.699   1.017
 3970W        W 7714   7.069   6.086   9.096
 3971W        W 7715   5.986   2.112   9.108
 3972W        W 7716   9.866   1.849   9.397
 3973W        W 7717   0.905   1.699   2.600
 3974W        W 7718   3.323   9.571  11.799
 3975W        W 7719   6.580   0.510   0.865
 3976W        W 7720   3.328   3.952   3.128
 3977W        W 7721   3.425   5.397   3.219
 3978W        W 7722   7.229   4.117  11.814
 3979W        W 7723   1.216   6.118  11.878
 3980W        W 7724   0.859   9.628   9.522
 3981W        W 7725   7.167   7.477   2.401
 3982W        W 7726   9.387   3.643   1.136
 3983W        W 7727   3.925   9.716   0.700
 3984W        W 7728   5.569   1.705   3.018
 3985W        W 7729   3.284   4.904   0.529
 3986W        W 7730   5.074   4.075  10.747
 3987W        W 7731   8.039   5.393   1.265
 3988W        W 7732   4.510   4.138   9.396
 3989W        W 7733   5.344   9.759  11.549
 3990W        W 7734   7.482   9.615  10.059
 3991W        W 7735   6.877   9.393  10.734
 3992W        W 7736   0.218   6.179   0.828
 3993W        W 7737   2.633   5.658   9.924
 3994W        W 7738   3.170   4.220   1.233
 3995W        W 7739  10.177   6.903   9.372
 3996W        W 7740   9.616   7.433   0.838
 3997W        W 7741   7.063   5.237   0.288
 3998W        W 7742   5.972   0.724  10.052
 3999W        W 7743   8.118   8.444   2.588
 4000W        W 7744   6.591   6.680   2.262
 4001W        W 7745   6.926   4.861   9.943
 4002W        W 7746   3.856   3.078   9.246
 4003W        W 7747   1.743   2.233  11.347
 4004W        W 7748   6.831  10.324   2.518
 4005W        W 7749   1.389  10.377  10.264
 4006W        W 7750   5.944   4.736  10.342
 4007W        W 7751   4.964   7.876   8.263
 4008W        W 7752   8.414   3.605   8.462
 4009W        W 7753  10.317   0.843   8.747
 4010W        W 7754   9.044   2.528   1.844
 4011W        W 7755   2.893   4.623   4.076
 4012W        W 7756   4.646   6.477   2.323
 4013W        W 7757   5.065   7.172   1.340
 4014W        W 7758   0.723   6.185   0.937
 4015W        W 7759   9.548   0.063   0.276
 4016W        W 7760   2.901   3.705  10.523
 4017W        W 7761   3.228   8.326  11.507
 4018W        W 7762   7.872   2.409  10.505
 4019W        W 7763   0.849   1.376   0.928
 4020W        W 7764   9.450   1.850   0.917
 4021W        W 7765   7.187   2.624   2.548
 4022W        W 7766   1.464   8.447   1.040
 4023W        W 7767   3.063   2.524   0.604
 4024W        W 7768   7.554   6.104   2.743
 4025W        W 7769   5.631   1.153   1.286
 4026W        W 7770   7.029   9.658   0.822
 4027W        W 7771   9.565   7.180  10.072
 4028W        W 7772   5.954   6.716   4.286
 4029W        W 7773   4.600   3.232  10.814
 4030W        W 7774  10.044   0.965   1.396
 4031W        W 7775   0.413   8.924   1.553
 4032W        W 7776   2.714   7.902   1.213
 4033W        W 7777  10.342   8.546   0.739
 4034W        W 7778   9.955   5.444   1.766
 4035W        W 7779   6.667   5.270  11.979
 4036W        W 7780   5.073   7.882  10.312
 4037W        W 7781   9.940   4.957  10.870
 4038W        W 7782   9.844   1.442  10.191
 4039W        W 7783   4.245   4.440   9.074
 4040W        W 7784   5.598   9.498  10.710
 4041W        W 7785   4.509   6.011   0.695
 4042W        W 7786   7.653   5.578   3.980
 4043W        W 7787   2.146   0.374   9.990
 4044W        W 7788   6.491   9.979   2.380
 4045W        W 7789   5.206   9.453   0.647
 4046W        W 7790   9.670   9.818  11.220
 4047W        W 7791   7.958   0.295  10.561
 4048W        W 7792   0.812   7.899  11.487
 4049W        W 7793  10.298  10.334   1.959
 4050W        W 7794   5.701   3.576  10.929
 4051W        W 7795   2.305   5.060  11.633
 4052W        W 7796  10.075   5.692   2.200
 4053W        W 7797   4.693   2.764   9.788
 4054W        W 7798   6.063   7.203   3.535
 4055W        W 7799   7.586   6.667  10.464
 4056W        W 7800   1.630   8.577  11.537
 4057W        W 7801   5.991   7.121   1.888
 4058W        W 7802   8.718   1.500   3.514
 4059W        W 7803   4.506   7.963   8.486
 4060W        W 7804   8.425   6.194   9.125
 4061W        W 7805   3.396   4.638   8.641
 4062W        W 7806   8.373   9.260   0.057
 4063W        W 7807   1.352   6.437   2.723
 4064W        W 7808  10.203   4.157   2.881
 4065W        W 7809   7.459   5.804   0.803
 4066W        W 7810  10.492   1.734   2.521
 4067W        W 7811   2.922   2.070   9.465
 4068W        W 7812   0.084   1.595   1.815
 4069W        W 7813   4.058   6.918  10.306
 4070W        W 7814   6.745   4.596   3.276
 4071W        W 7815   7.174   2.658   1.364
 4072W        W 7816   4.858   2.820   2.319
 4073W        W 7817   4.876   9.505   2.672
 4074W        W 7818   5.138   4.682  11.477
 4075W        W 7819   8.958   0.401   1.456
 4076W        W 7820   4.014   7.528   3.044
 4077W        W 7821   1.835   3.251   2.015
 4078W        W 7822   1.666   9.496   2.990
 4079W        W 7823   7.105   7.864  11.469
 4080W        W 7824   1.275   4.262   0.429
 4081W        W 7825   9.370   8.554   8.993
 4082W        W 7826   0.816   3.843  11.782
 4083W        W 7827   0.745   7.104   0.753
 4084W        W 7828   3.346   8.858   3.302
 4085W        W 7829   9.608  10.464   3.534
 4086W        W 7830   1.194   2.864   0.478
 4087W        W 7831   6.947   9.974  11.379
 4088W        W 7832   2.319   3.823   2.646
 4089W        W 7833   4.945   4.222   0.924
 4090W        W 7834   4.649   4.956   9.895
 4091W        W 7835   2.792   1.120   3.200
 4092W        W 7836   8.977   8.411   2.564
 4093W        W 7837   3.295   2.382  10.120
 4094W        W 7838   1.800   6.260  11.317
 4095W        W 7839   4.630   7.629  10.265
 4096W        W 7840   6.489   3.035  10.501
 4097W        W 7841   7.349   1.045   9.341
 4098W        W 7842   7.015   7.443   9.458
 4099W        W 7843   4.076  10.102   0.349
 4100W        W 7844   8.382   1.977  10.970
 4101W        W 7845   5.661   1.134   0.741
 4102W        W 7846   8.180   6.627   1.614
 4103W        W 7847   9.410   3.117  11.257
 4104W        W 7848   0.281   7.811   0.251
 4105W        W 7849   0.288   1.760   8.912
 4106W        W 7850   4.467   1.028  10.985
 4107W        W 7851   7.464   2.762   1.796
 4108W        W 7852   8.332   0.907   9.247
 4109W        W 7853   4.685   3.020   0.109
 4110W        W 7854   5.867   2.386   0.043
 4111W        W 7855   7.375   5.033  11.373
 4112W        W 7856   7.450   3.272   1.899
 4113W        W 7857   1.222   7.453   2.196
 4114W        W 7858   4.188   0.786  10.377
 4115W        W 7859   6.756   1.466  11.954
 4116W        W 7860   2.613   3.867  11.432
 4117W        W 7861   6.949   0.976   0.280
 4118W        W 7862   1.438   8.657  10.505
 4119W        W 7863   8.322   9.819  10.224
 4120W        W 7864   8.041   6.024   0.006
 4121W        W 7865   1.900   8.529  11.099
 4122W        W 7866   9.761   9.837   9.834
 4123W        W 7867   3.788   1.811   9.017
 4124W        W 7868   4.449   8.086   0.086
 4125W        W 7869   5.191   9.442   1.153
 4126W        W 7870   1.331  10.304   9.765
 4127W        W 7871   6.508   3.648   3.202
 4128W        W 7872   2.814   8.551  10.657
 4129W        W 7873   5.534   6.397  11.116
 4130W        W 7874   7.046   8.663   1.105
 4131W        W 7875   5.132   8.966   0.872
 4132W        W 7876  10.164  10.296   1.440
 4133W        W 7877   1.424   9.093   2.668
 4134W        W 7878   4.641   5.455   1.849
 4135W        W 7879   1.261   8.450   8.735
 4136W        W 7880   4.478  10.455  11.422
 4137W        W 7881  10.400   3.638   2.151
 4138W        W 7882   8.076   7.496   9.592
 4139W        W 7883   4.065   6.823  11.531
 4140W        W 7884   7.405   7.584   3.198
 4141W        W 7885  10.064   6.854   2.402
 4142W        W 7886   2.823   4.564  10.474
 4143W        W 7887   6.102   0.210  11.770
 4144W        W 7888   0.437   0.470   2.467
 4145W        W 7889   2.776   5.523   0.752
 4146W        W 7890   4.597  10.329  10.559
 4147W        W 7891   6.103   0.329   8.832
 4148W        W 7892   5.598  10.368   1.429
 4149W        W 7893   6.913   3.808  10.035
 4150W        W 7894   2.791   8.889   2.802
 4151W        W 7895   7.571   5.261   1.395
 4152W        W 7896   2.309   5.650   0.501
 4153W        W 7897   9.378   7.596  11.051
 4154W        W 7898   7.401   9.093   2.446
 4155W        W 7899   8.674   2.400  11.871
 4156W        W 7900   8.815   6.122   9.925
 4157W        W 7901   8.960  10.046   1.771
 4158W        W 7902   3.740   8.095  10.463
 4159W        W 7903   3.294   2.170   0.904
 4160W        W 7904   0.019   2.899   0.827
 4161W        W 7905   0.726   2.918   1.508
 4162W        W 7906   4.173   8.867   9.411
 4163W        W 7907   3.603   8.053   9.029
 4164W        W 7908   1.633   2.286   2.349
 4165W        W 7909   0.282   6.010   3.194
 4166W        W 7910   4.781  10.360  11.010
 4167W        W 7911   0.268   6.070   2.662
 4168W        W 7912   0.871   5.544   9.738
 4169W        W 7913   5.035   6.504   2.660
 4170W        W 7914   1.804   9.926   9.338
 4171W        W 7915   8.002   8.831   9.567
 4172W        W 7916   5.173   1.271  10.017
 4173W        W 7917   4.793   2.038   0.994
 4174W        W 7918   6.635   4.258   2.318
 4175W        W 7919   2.759   0.692   1.484
 4176W        W 7920   3.219   8.623   2.866
 4177W        W 7921   6.127   0.459  11.291
 4178W        W 7922   7.763   0.426  11.007
 4179W        W 7923   2.506   6.981   0.861
 4180W        W 7924   9.993   5.517   8.910
 4181W        W 7925   8.117   3.034  11.708
 4182W        W 7926   5.480   0.782   2.445
 4183W        W 7927   5.572   7.310   0.681
 4184W        W 7928   2.246   8.608   2.804
 4185W        W 7929   3.284   3.719   1.195
 4186W        W 7930   7.224   3.880   8.954
 4187W        W 7931   2.827   8.489   9.695
 4188W        W 7932   6.076   3.842  10.701
 4189W        W 7933   7.651   4.220   3.530
 4190W        W 7934   2.345   4.812   3.195
 4191W        W 7935   0.316   1.238  11.262
 4192W        W 7936   8.014   7.394  11.050
 4193W        W 7937   6.506   5.851  10.386
 4194W        W 7938   0.281   9.524  10.054
 4195W        W 7939   5.044   6.649  11.254
 4196W        W 7940   2.192   6.073   2.777
 4197W        W 7941   9.238   9.036   0.933
 4198W        W 7942   0.061   3.761   9.418
 4199W        W 7943   2.199   3.338   2.378
 4200W        W 7944   6.980   1.264   3.392
 4201W        W 7945   3.199   7.680   2.737
 4202W        W 7946   9.437   5.047   2.338
 4203W        W 7947   8.705   1.760  10.608
 4204W        W 7948   3.170   5.605  11.016
 4205W        W 7949   1.810   0.279   2.587
 4206W        W 7950   9.995   2.743   2.289
 4207W        W 7951   6.731   4.825   1.305
 4208W        W 7952   3.032   8.807  11.457
 4209W        W 7953   8.802   8.903  11.475
 4210W        W 7954   2.149   8.979  10.937
 4211W        W 7955   5.892   7.662   0.506
 4212W        W 7956   8.519   8.114   3.099
 4213W        W 7957   3.633   5.638   0.311
 4214W        W 7958   4.972   6.896   0.874
 4215W        W 7959   2.306   9.359   1.640
 4216W        W 7960   2.599   2.373  11.415
 4217W        W 7961   2.867   5.085   9.847
 4218W        W 7962   8.011   2.352   9.539
 4219W        W 7963   6.719   2.338   9.764
 4220W        W 7964   1.000   8.432   3.229
 4221W        W 7965   8.902   4.630   9.817
 4222W        W 7966   1.936   6.517   0.571
 4223W        W 7967   3.403   8.168   1.862
 4224W        W 7968   4.285  10.281   1.854
 4225W        W 7969   3.343   5.775  10.569
 4226W        W 7970   6.011   1.776  10.256
 4227W        W 7971   1.388   3.732   1.856
 4228W        W 7972   3.424   9.584   0.673
 4229W        W 7973   7.125   6.579   3.294
 4230W        W 7974   5.395   2.037   1.700
 4231W        W 7975   2.119   4.670   0.528
 4232W        W 7976   4.978   1.469   3.439
 4233W        W 7977   9.250   8.505  10.401
 4234W        W 7978   8.547   8.053   1.535
 4235W        W 7979   3.783   3.204   1.872
 4236W        W 7980   0.250   6.455   9.431
 4237W        W 7981   5.990   1.746  10.769
 4238W        W 7982   3.697   4.893   3.138
 4239W        W 7983   2.105   1.327   0.194
 4240W        W 7984   2.745   2.361  10.783
 4241W        W 7985   7.890   1.343   0.460
 4242W        W 7986   6.977   4.188   0.264
 4243W        W 7987   5.632   0.476  11.908
 4244W        W 7988   2.296   6.726   1.298
 4245W        W 7989   9.799   9.285   0.340
 4246W        W 7990   4.080   9.000  10.776
 4247W        W 7991   7.121   1.784   2.980
 4248W        W 7992   6.986   8.379   9.285
 4249W        W 7993   8.851   4.061  11.398
 4250W        W 7994   2.245   4.451  10.327
 4251W        W 7995  10.050   5.553   0.879
 4252W        W 7996   6.929   7.139   1.493
 4253W        W 7997   3.099   5.011   9.372
 4254W        W 7998   8.041   8.892   2.835
 4255W        W 7999   9.190   0.582   2.318
 4256W        W 8000   5.675   0.387   9.193
 4257W        W 8001   2.706   3.609   9.125
 4258W        W 8002   8.936   1.465  10.235
 4259W        W 8003   0.678   9.332   2.712
 4260W        W 8004   7.822   5.033   3.282
 4261W        W 8005   0.781   1.833   1.247
 4262W        W 8006   6.655   8.586   3.241
 4263W        W 8007   7.447   3.442   2.414
 4264W        W 8008  10.495   5.572   0.223
 4265W        W 8009   4.712   5.480   1.346
 4266W        W 8010   3.172   5.136  11.948
 4267W        W 8011   3.282   0.453   9.574
 4268W        W 8012   7.623   4.750  10.328
 4269W        W 8013   4.333   4.907  11.304
 4270W        W 8014   1.591   8.849  10.048
 4271W        W 8015   6.002   6.596  10.321
 4272W        W 8016   4.295   1.762  10.640
 4273W        W 8017   8.481   6.670  10.954
 4274W        W 8018   0.309   8.651  11.987
 4275W        W 8019   7.383  10.491   0.981
 4276W        W 8020   6.604   9.890   9.231
 4277W        W 8021   7.214   0.864  10.015
 4278W        W 8022   6.245   2.871   2.338
 4279W        W 8023   3.719   8.221   0.269
 4280W        W 8024   8.426   3.216   9.209
 4281W        W 8025  10.387   0.379   2.630
 4282W        W 8026   4.017   4.277   9.532
 4283W        W 8027   4.166   3.544   1.720
 4284W        W 8028   6.743   3.718   9.018
 4285W        W 8029   9.594   7.612  11.885
 4286W        W 8030   3.816   2.813   2.292
 4287W        W 8031   0.525   9.302   1.224
 4288W        W 8032   6.238   3.201   3.261
 4289W        W 8033   9.862   4.263  10.506
 4290W        W 8034   7.722   2.749  11.882
 4291W        W 8035   3.625   6.881   2.298
 4292W        W 8036   1.258   8.761   1.820
 4293W        W 8037   4.173   3.973   1.470
 4294W        W 8038   4.087   9.914   2.874
 4295W        W 8039   2.624   5.960  10.859
 4296W        W 8040   8.418   0.524   2.682
 4297W        W 8041   5.679   0.313   1.689
 4298W        W 8042   0.998   7.481  10.773
 4299W        W 8043   6.643   0.487   2.991
 4300W        W 8044   6.126   8.152   3.674
 4301W        W 8045   2.849   8.789   0.789
 4302W        W 8046   2.275   7.679   3.510
 4303W        W 8047   5.961   7.185   0.350
 4304W        W 8048   6.796   9.600   3.503
 4305W        W 8049   4.278   9.933  10.480
 4306W        W 8050   9.391   7.806   9.002
 4307W        W 8051   4.215   3.088  11.748
 4308W        W 8052   6.461   4.056   1.860
 4309W        W 8053   6.231   7.931  11.584
 4310W        W 8054   3.241   0.195   3.209
 4311W        W 8055   4.231   8.126  11.286
 4312W        W 8056   1.346   5.796  10.473
 4313W        W 8057   5.833   1.870   1.436
 4314W        W 8058   2.127   5.144  10.762
 4315W        W 8059   7.956   2.290   0.454
 4316W        W 8060   5.696   9.336   3.603
 4317W        W 8061   8.483   2.758   1.677
 4318W        W 8062   4.129  10.414  11.929
 4319W        W 8063   8.760   6.598  11.798
 4320W        W 8064   6.924   0.450   0.284
 4321W        W 8065   0.388   1.448   2.740
 4322W        W 8066   0.205   6.045   9.009
 4323W        W 8067   2.788   0.327   1.064
 4324W        W 8068   3.875   3.897   0.495
 4325W        W 8069   2.962   7.916  11.699
 4326W        W 8070   3.981   8.308  10.045
 4327W        W 8071   2.728   6.899  10.736
 4328W        W 8072   4.082   0.090   9.947
 4329W        W 8073   3.760   9.547   8.977
 4330W        W 8074   2.786   8.042   0.185
 4331W        W 8075   4.663   2.049   9.527
 4332W        W 8076   5.998   5.009   0.942
 4333W        W 8077   2.666   6.623  11.423
 4334W        W 8078   6.619   0.263   2.543
 4335W        W 8079   2.646   2.275   9.061
 4336W        W 8080   0.425   1.737   2.200
 4337W        W 8081   9.812   7.967   0.196
 4338W        W 8082   2.606   8.021  11.361
 4339W        W 8083   9.912   7.918   3.218
 4340W        W 8084   4.452   2.398  11.032
 4341W        W 8085  10.446   8.969   1.781
 4342W        W 8086   2.751   5.918   3.927
 4343W        W 8087   8.861   8.757   0.750
 4344W        W 8088   4.094   7.981   2.828
 4345W        W 8089   5.689   6.234   1.904
 4346W        W 8090  10.463   6.568  10.144
 4347W        W 8091   9.888   3.724   2.156
 4348W        W 8092   3.861   5.082   9.768
 4349W        W 8093   0.821   4.169   9.042
 4350W        W 8094   3.309   8.944   1.939
 4351W        W 8095   8.540   6.705   8.974
 4352W        W 8096   9.421   9.380  11.025
 4353W        W 8097   6.007  10.024   0.340
 4354W        W 8098   3.169  10.460  11.899
 4355W        W 8099   9.772   7.439   8.912
 4356W        W 8100   6.041   9.337   9.150
 4357W        W 8101   1.947   1.783   0.042
 4358W        W 8102   2.545   8.538   1.864
 4359W        W 8103   7.603   5.673  10.340
 4360W        W 8104   5.159   5.234  10.063
 4361W        W 8105  10.325   0.939   0.945
 4362W        W 8106   8.107   3.171   0.700
 4363W        W 8107   9.118   8.607   0.302
 4364W        W 8108   3.607   4.218   2.738
 4365W        W 8109   0.505   1.346   1.364
 4366W        W 8110   0.983   6.176  10.367
 4367W        W 8111   9.345   4.941  11.399
 4368W        W 8112   0.876   9.636   1.787
 4369W        W 8113   0.381   9.892   3.214
 4370W        W 8114   2.755   4.731  11.737
 4371W        W 8115   5.252   7.670   0.498
 4372W        W 8116   9.355   9.543   1.023
 4373W        W 8117   2.790   3.655   9.618
 4374W        W 8118   1.744   2.932   1.237
 4375W        W 8119   1.358   2.762   0.953
 4376W        W 8120   4.673   0.065   9.056
 4377W        W 8121   9.838   3.549   0.225
 4378W        W 8122   2.811   7.215   1.825
 4379W        W 8123   1.157   2.831  11.214
 4380W        W 8124   1.849   9.544   1.494
 4381W        W 8125   7.615   2.310   1.385
 4382W        W 8126   4.941   2.244  10.961
 4383W        W 8127  10.256   8.062   0.917
 4384W        W 8128   8.367   7.130   3.631
 4385W        W 8129   5.930   3.970   0.275
 4386W        W 8130   7.498   8.452   0.970
 4387W        W 8131   3.706   4.525   3.576
 4388W        W 8132   9.023   5.506  10.763
 4389W        W 8133   0.546   5.758  11.536
 4390W        W 8134   6.082   2.862   0.171
 4391W        W 8135   1.630   4.139  10.271
 4392W        W 8136   4.343   2.202   1.901
 4393W        W 8137   3.387  10.061   9.533
 4394W        W 8138   3.831   2.638   1.422
 4395W        W 8139   9.699   0.186  11.770
 4396W        W 8140   9.909   8.785   3.040
 4397W        W 8141   5.494   7.254   1.947
 4398W        W 8142   2.115   3.957  10.232
 4399W        W 8143   7.987   5.619   0.335
 4400W        W 8144   2.349   7.868  10.539
 4401W        W 8145   2.303   5.525  10.445
 4402W        W 8146   8.611   5.775   2.221
 4403W        W 8147   4.854   0.766   3.132
 4404W        W 8148   0.462   2.184   3.103
 4405W        W 8149   8.152   4.736   0.670
 4406W        W 8150   3.698   1.444   2.000
 4407W        W 8151   0.914  -0.000   3.469
 4408W        W 8152   8.114   8.515   2.102
 4409W        W 8153   2.816   4.518   2.410
 4410W        W 8154   0.753   3.122   0.297
 4411W        W 8155   2.797   3.741   2.850
 4412W        W 8156   9.509   9.035   2.286
 4413W        W 8157   8.685   6.735   2.357
 4414W        W 8158   6.432   4.134   9.174
 4415W        W 8159   7.291   9.223   8.784
 4416W        W 8160   9.872   5.054   9.591
 4417W        W 8161   3.168  10.489   2.719
 4418W        W 8162   6.895   5.527   2.534
 4419W        W 8163   3.617   1.311   2.954
 4420W        W 8164   3.826   9.026   9.044
 4421W        W 8165   6.994   3.145   1.707
 4422W        W 8166   0.805   8.925   9.893
 4423W        W 8167   3.414   3.138  11.538
 4424W        W 8168   4.030   7.527   1.780
 4425W        W 8169   0.329   6.617   1.800
 4426W        W 8170   9.393   4.406  11.354
 4427W        W 8171   3.198   5.410   0.448
 4428W        W 8172   6.240   3.959   3.548
 4429W        W 8173   4.706   7.088   0.151
 4430W        W 8174   4.710   3.506  11.960
 4431W        W 8175   5.649   1.748   8.983
 4432W        W 8176   8.867   4.770   3.399
 4433W        W 8177   1.389   5.214   9.815
 4434W        W 8178   8.386   3.259   9.734
 4435W        W 8179   7.951   9.128  11.066
 4436W        W 8180   0.841   1.214   2.827
 4437W        W 8181   3.258   8.798   9.263
 4438W        W 8182   7.557   2.015   0.670
 4439W        W 8183   7.471   8.199   8.598
 4440W        W 8184   7.456   7.886   0.446
 4441W        W 8185   8.502   6.463  10.440
 4442W        W 8186   0.684   6.850   9.423
 4443W        W 8187   5.647   5.068   9.329
 4444W        W 8188   5.986   1.259   3.229
 4445W        W 8189   5.139   0.792   8.714
 4446W        W 8190   5.651   0.008   3.426
 4447W        W 8191   5.994   7.364   0.942
 4448W        W 8192   1.249  10.003   1.834
 4449W        W 8193   6.902   5.189   2.932
 4450W        W 8194   7.939   9.749   9.846
 4451W        W 8195   6.396   6.933   0.522
 4452W        W 8196   9.479   9.946   8.963
 4453W        W 8197   9.798   4.690  11.408
 4454W        W 8198   5.917   2.774   3.309
 4455W        W 8199   4.643  10.078   8.853
 4456W        W 8200   4.409   3.644   8.626
 4457W        W 8201   8.981   6.636   3.137
 4458W        W 8202   4.674   6.900   2.645
 4459W        W 8203   2.707   7.540   3.288
 4460W        W 8204   5.641   0.788   0.338
 4461W        W 8205   3.333   5.984   4.053
 4462W        W 8206   9.694   5.689   1.387
 4463W        W 8207   1.783   4.620  10.213
 4464W        W 8208   9.177   9.808  11.170
 4465W        W 8209   7.938   8.968   2.321
 4466W        W 8210   7.001   2.170   9.351
 4467W        W 8211   4.788   1.772   0.493
 4468W        W 8212   4.802   7.329   2.954
 4469W        W 8213   1.392   1.270   9.364
 4470W        W 8214   9.855   0.032   1.765
 4471W        W 8215  10.268   5.105   8.746
 4472W        W 8216   7.616   6.596   9.537
 4473W        W 8217   2.200   2.231   0.135
 4474W        W 8218   8.464   2.895   0.339
 4475W        W 8219   8.305   6.534   0.582
 4476W        W 8220   5.630   5.664   2.746
 4477W        W 8221   5.163   4.360  10.336
 4478W        W 8222   6.423   2.196   8.849
 4479W        W 8223   3.279   9.110   0.787
 4480W        W 8224   4.330   3.396  10.392
 4481W        W 8225   4.875   1.544   1.184
 4482W        W 8226   7.540   1.842  11.805
 4483W        W 8227   8.094   4.003   3.628
 4484W        W 8228   3.646   2.719   9.527
 4485W        W 8229   2.763   4.332  11.437
 4486W        W 8230   9.409   1.847   9.121
 4487W        W 8231   3.405   4.443   4.008
 4488W        W 8232   9.269   3.268  10.355
 4489W        W 8233   7.758   3.215  10.978
 4490W        W 8234   1.385   5.615   1.959
 4491W        W 8235   1.860   8.180   2.283
 4492W        W 8236   7.911   3.685  10.805
 4493W        W 8237   5.276   4.678   2.677
 4494W        W 8238   1.864   7.102   0.043
 4495W        W 8239   6.975   1.285   1.339
 4496W        W 8240   5.437   7.427  11.683
 4497W        W 8241   1.750   4.606   9.186
 4498W        W 8242   8.629   4.194  10.016
 4499W        W 8243   5.162   8.009  11.354
 4500W        W 8244  10.210   6.707   2.894
 4501W        W 8245   4.702  10.226   1.200
 4502W        W 8246  10.244   7.257   2.131
 4503W        W 8247   4.610   3.254   0.564
 4504W        W 8248   1.916   4.761   2.881
 4505W        W 8249   0.210   7.466   3.302
 4506W        W 8250   3.938   9.913  11.891
 4507W        W 8251   8.099   8.257   1.668
 4508W        W 8252   9.387   7.132   8.707
 4509W        W 8253   3.173   0.905   9.384
 4510W        W 8254   1.974   3.252   0.547
 4511W        W 8255   5.930   2.097   9.625
 4512W        W 8256   5.227   7.530   8.531
 4513W        W 8257   6.786   8.910  11.461
 4514W        W 8258   9.152   3.208   3.427
 4515W        W 8259  10.089   2.215   1.163
 4516W        W 8260   1.290   7.113   0.879
 4517W        W 8261   8.556   2.193   8.748
 4518W        W 8262   7.315   2.220   1.771
 4519W        W 8263   8.511   0.270   1.237
 4520W        W 8264  10.398   0.870   9.232
 4521W        W 8265   0.819   2.957   3.613
 4522W        W 8266   9.885   6.599   3.306
 4523W        W 8267   3.856   5.679   2.705
 4524W        W 8268   8.474  10.243   1.849
 4525W        W 8269   8.631   4.169  10.936
 4526W        W 8270   4.163   9.850   8.876
 4527W        W 8271   1.150   2.321   2.203
 4528W        W 8272   6.941   7.585   8.967
 4529W        W 8273   1.437   3.126   9.572
 4530W        W 8274   2.807  10.410  11.077
 4531W        W 8275   8.242   5.973  10.430
 4532W        W 8276   6.673   1.551   1.707
 4533W        W 8277   3.809   8.617  10.443
 4534W        W 8278   4.360   0.015   0.813
 4535W        W 8279   2.466   7.642  10.995
 4536W        W 8280   3.137   2.949   2.953
 4537W        W 8281   1.772   0.212   2.087
 4538W        W 8282   8.489   6.236   8.589
 4539W        W 8283   7.510   2.162   0.199
 4540W        W 8284   6.936   7.428  11.705
 4541W        W 8285   3.280   6.530   9.968
 4542W        W 8286   6.051   3.798  11.752
 4543W        W 8287   2.096   4.804  11.149
 4544W        W 8288   2.413   5.099   1.917
 4545W        W 8289   3.292   7.865  10.342
 4546W        W 8290   0.734   7.891   0.522
 4547W        W 8291  10.235   6.994  10.298
 4548W        W 8292   2.022   5.038   9.484
 4549W        W 8293   4.639   5.051   1.103
 4550W        W 8294   2.319   0.703  11.516
 4551W        W 8295   4.066   9.093   2.571
 4552W        W 8296   7.135   9.352   9.777
 4553W        W 8297   9.803   6.098   3.417
 4554W        W 8298   9.705  10.442   9.104
 4555W        W 8299   7.442   7.427   8.930
 4556W        W 8300   5.713   4.172  11.852
 4557W        W 8301   6.584   7.602   3.187
 4558W        W 8302  10.099   5.619  11.305
 4559W        W 8303   8.957   8.875   2.788
 4560W        W 8304   2.380   3.667  10.567
 4561W        W 8305   5.645   0.309   2.217
 4562W        W 8306   0.249  10.432  11.709
 4563W        W 8307  10.357   1.737   3.550
 4564W        W 8308   0.300   0.131   0.709
 4565W        W 8309   3.290   3.805   1.699
 4566W        W 8310   7.130   9.017  10.470
 4567W        W 8311   7.367   7.148   1.161
 4568W        W 8312   4.576   6.203   2.745
 4569W        W 8313   8.671   6.971  11.393
 4570W        W 8314   5.950   8.616  11.010
 4571W        W 8315   1.284   3.216   1.155
 4572W        W 8316   8.217   9.418   2.264
 4573W        W 8317   6.480   4.077   0.335
 4574W        W 8318   3.166   9.827   1.908
 4575W        W 8319   2.630   7.677   9.062
 4576W        W 8320   0.715   4.340  11.719
 4577W        W 8321   4.235   9.080  11.591
 4578W        W 8322   7.960   7.553   9.055
 4579W        W 8323   3.313   1.258  11.966
 4580W        W 8324   8.090   6.718   8.722
 4581W        W 8325   3.554   1.438  11.540
 4582W        W 8326   3.921   9.618  10.287
 4583W        W 8327   1.670   2.758  11.298
 4584W        W 8328   5.358   9.554   2.486
 4585W        W 8329   9.217  10.311   9.262
 4586W        W 8330   7.279   8.479   0.278
 4587W        W 8331   8.037  10.110   0.846
 4588W        W 8332   9.518   2.798  10.386
 4589W        W 8333   5.059   0.359  10.066
 4590W        W 8334   7.307   8.556   2.237
 4591W        W 8335   7.149   5.043   2.508
 4592W        W 8336   3.146  10.441  10.457
 4593W        W 8337   2.442   3.308   9.779
 4594W        W 8338   2.447   5.586   2.707
 4595W        W 8339   7.865   5.502   3.530
 4596W        W 8340  10.409   6.611   3.410
 4597W        W 8341   7.817   8.787  11.447
 4598W        W 8342   7.876   3.144   2.611
 4599W        W 8343   2.313   0.232   0.357
 4600W        W 8344   0.818   3.962   0.702
 4601W        W 8345   3.871   4.074  10.000
 4602W        W 8346   1.362   6.505  11.544
 4603W        W 8347   6.665   2.294   1.237
 4604W        W 8348   1.227   1.542  11.702
 4605W        W 8349   2.203   9.988   3.465
 4606W        W 8350   9.497   7.068   0.482
 4607W        W 8351   1.299   2.332   1.708
 4608W        W 8352  10.313   9.242   0.416
 4609W        W 8353   0.185   1.741   3.124
 4610W        W 8354   4.660   3.612  11.473
 4611W        W 8355   5.092   1.729   9.758
 4612W        W 8356   7.700   3.603   1.604
 4613W        W 8357   1.163   0.578  11.914
 4614W        W 8358   5.445   7.965   9.112
 4615W        W 8359   9.533   2.304   8.886
 4616W        W 8360   2.237   6.727   3.362
 4617W        W 8361   2.743   7.066  11.664
 4618W        W 8362   6.110   6.568   2.400
 4619W        W 8363   4.457   4.366   0.201
 4620W        W 8364   6.973   0.731   2.687
 4621W        W 8365   5.237   3.017   1.618
 4622W        W 8366   1.291   2.385   2.732
 4623W        W 8367   0.159   5.189   0.546
 4624W        W 8368   7.029   2.688   9.521
 4625W        W 8369   3.552   6.379   3.092
 4626W        W 8370   0.068   7.957   9.424
 4627W        W 8371   1.441   8.865   1.359
 4628W        W 8372   1.671   4.054   0.180
 4629W        W 8373   6.697   7.517  10.758
 4630W        W 8374  10.058   2.653   8.871
 4631W        W 8375   9.944  10.076   8.760
 4632W        W 8376   8.966   9.616  10.302
 4633W        W 8377   3.691   3.135   0.964
 4634W        W 8378   0.865   4.079   9.933
 4635W        W 8379   2.291   4.319  11.234
 4636W        W 8380   1.895   6.391   1.112
 4637W        W 8381   9.085   5.021   1.955
 4638W        W 8382   0.737   1.364  11.545
 4639W        W 8383   3.341   9.246   9.045
 4640W        W 8384   5.419   7.581  11.198
 4641W        W 8385   6.971   2.357  11.187
 4642W        W 8386   5.410   8.540   2.422
 4643W        W 8387   9.352  10.280  11.324
 4644W        W 8388   3.802   1.350   2.480
 4645W        W 8389   5.345   3.621   8.152
 4646W        W 8390   6.429   9.494   2.384
 4647W        W 8391   2.889   3.198   2.113
 4648W        W 8392   5.719   8.817   3.560
 4649W        W 8393   8.544   6.088  11.313
 4650W        W 8394   1.020   1.352   0.422
 4651W        W 8395  10.474   9.623   0.119
 4652W        W 8396   0.218   1.108  10.271
 4653W        W 8397   3.961   6.613   1.976
 4654W        W 8398   3.415   5.183   1.937
 4655W        W 8399   2.699   7.187  10.300
 4656W        W 8400   6.255   1.740   1.128
 4657W        W 8401   6.677   9.107   3.221
 4658W        W 8402   4.103   9.162   0.172
 4659W        W 8403   2.343   1.251   9.580
 4660W        W 8404   4.292   0.339  11.703
 4661W        W 8405   7.447   4.984   4.073
 4662W        W 8406   7.836  10.227   9.066
 4663W        W 8407   0.678   6.803   0.320
 4664W        W 8408   8.058   6.124  11.508
 4665W        W 8409   6.242   7.027  11.972
 4666W        W 8410   7.166   1.408  10.280
 4667W        W 8411   0.778   2.612   0.362
 4668W        W 8412   0.936   4.798  10.443
 4669W        W 8413   9.407   8.978  10.666
 4670W        W 8414   6.085   2.856  11.239
 4671W        W 8415   3.207   1.871   2.669
 4672W        W 8416   6.442   5.477  11.294
 4673W        W 8417   3.898   3.159  10.277
 4674W        W 8418   2.859   8.286   0.905
 4675W        W 8419   4.547   3.179   8.432
 4676W        W 8420   4.575   4.075   8.382
 4677W        W 8421   7.982   6.065  10.997
 4678W        W 8422   8.214   7.445  11.909
 4679W        W 8423   8.130   1.164   9.638
 4680W        W 8424   9.375   6.294   2.470
 4681W        W 8425   7.439   3.599   9.394
 4682W        W 8426   1.203   8.884   9.077
 4683W        W 8427   0.703   4.358  11.213
 4684W        W 8428   8.374   8.962   2.019
 4685W        W 8429   7.841   0.900   0.239
 4686W        W 8430  10.462   7.092   2.635
 4687W        W 8431   4.008   1.666   0.813
 4688W        W 8432   4.398   4.000   4.040
 4689W        W 8433   8.695   9.952   0.528
 4690W        W 8434   9.435   3.275   8.934
 4691W        W 8435   0.205   1.445   0.280
 4692W        W 8436   8.410   4.788   1.189
 4693W        W 8437   3.223   9.359   1.649
 4694W        W 8438   2.496   9.108   8.580
 4695W        W 8439   5.151   6.966   2.846
 4696W        W 8440   9.549   1.044   9.488
 4697W        W 8441   4.101   8.709  11.946
 4698W        W 8442   7.642   3.074  11.464
 4699W        W 8443   6.340   6.941   1.018
 4700W        W 8444   5.275   8.029   1.782
 4701W        W 8445   0.054   6.868   2.192
 4702W        W 8446   9.705   5.949   0.935
 4703W        W 8447   3.660   4.312  11.498
 4704W        W 8448   9.877   3.878  11.831
 4705W        W 8449   4.628   2.667   8.319
 4706W        W 8450   7.714   5.385   9.944
 4707W        W 8451   7.607   7.899  11.575
 4708W        W 8452   8.379  10.223  11.302
 4709W        W 8453   0.928   2.107  10.974
 4710W        W 8454   7.559   6.060   1.751
 4711W        W 8455   4.859   8.187   1.401
 4712W        W 8456   4.061   1.597   3.158
 4713W        W 8457   1.621   0.320  11.720
 4714W        W 8458   4.207   5.757   1.838
 4715W        W 8459   7.478   1.769  10.980
 4716W        W 8460   7.726   6.323   9.972
 4717W        W 8461   7.088   3.285   8.427
 4718W        W 8462   3.701   6.028   9.924
 4719W        W 8463   1.373   2.896  10.312
 4720W        W 8464   2.398   8.353   0.048
 4721W        W 8465   8.118   7.635   0.809
 4722W        W 8466   3.603   6.379   2.250
 4723W        W 8467   2.551   6.425   3.126
 4724W        W 8468   5.275   0.428  11.367
 4725W        W 8469   0.374   8.392   2.415
 4726W        W 8470   3.740   2.340  10.858
 4727W        W 8471   5.101   8.460   1.976
 4728W        W 8472   5.215   0.351   2.492
 4729W        W 8473   4.209   5.616   9.764
 4730W        W 8474   3.759   5.459  10.639
 4731W        W 8475   0.431   2.947   2.712
 4732W        W 8476   9.298   4.362   2.946
 4733W        W 8477   2.153   6.131   3.279
 4734W        W 8478   8.994   4.568  11.590
 4735W        W 8479   7.039   5.201  11.040
 4736W        W 8480   7.995   5.507  11.820
 4737W        W 8481   2.632   9.966  11.411
 4738W        W 8482  10.120  10.322   3.599
 4739W        W 8483   8.973   9.852   9.080
 4740W        W 8484   4.662  10.050   2.192
 4741W        W 8485   5.566   9.373  11.241
 4742W        W 8486   3.176   8.664  10.972
 4743W        W 8487   9.577   6.580   0.631
 4744W        W 8488   2.659  10.412  10.561
 4745W        W 8489   2.122   2.575   1.128
 4746W        W 8490   6.978   1.311   2.873
 4747W        W 8491   8.420   9.406   1.770
 4748W        W 8492   4.768   4.491   9.992
 4749W        W 8493   9.383   7.939   1.486
 4750W        W 8494   3.623   7.941   9.950
 4751W        W 8495   5.958   4.181   1.711
 4752W        W 8496   9.866   2.990  11.568
 4753W        W 8497   6.881   3.227  10.780
 4754W        W 8498   9.091   9.938   8.596
 4755W        W 8499  10.402   6.092  10.318
 4756W        W 8500   2.276   0.330   0.909
 4757W        W 8501   0.699   6.008  11.954
 4758W        W 8502   6.013   5.210  11.131
 4759W        W 8503  10.311   3.660   9.865
 4760W        W 8504   5.775   8.937  11.457
 4761W        W 8505   9.865   6.416   9.972
 4762W        W 8506   4.900   1.179  11.739
 4763W        W 8507   9.925   4.395  11.920
 4764W        W 8508   8.842   7.234   9.435
 4765W        W 8509   4.718   0.329   0.544
 4766W        W 8510   7.413   5.310   3.086
 4767W        W 8511   3.911  10.083   9.573
 4768W        W 8512   8.746   0.916  10.979
 4769W        W 8513   1.396   5.530   1.417
 4770W        W 8514   6.646   1.499   0.839
 4771W        W 8515   0.961   7.680   1.365
 4772W        W 8516  10.270   7.511  11.427
 4773W        W 8517   3.627   9.906   2.651
 4774W        W 8518   5.911   2.419   0.905
 4775W        W 8519   2.179   4.046  11.651
 4776W        W 8520   3.166   8.039   1.425
 4777W        W 8521   1.297   2.817   2.432
 4778W        W 8522   7.066   8.429   2.939
 4779W        W 8523   2.225   3.046   0.975
 4780W        W 8524   7.900   9.938   0.302
 4781W        W 8525   7.012   8.571  10.221
 4782W        W 8526   6.147   8.845   0.782
 4783W        W 8527   9.457   3.783   8.720
 4784W        W 8528   3.217   3.606   2.172
 4785W        W 8529   8.516   9.764  11.941
 4786W        W 8530   5.621   8.542  10.457
 4787W        W 8531   9.111   9.288   2.509
 4788W        W 8532   2.558   0.944  11.920
 4789W        W 8533   1.281  10.272   3.205
 4790W        W 8534   5.646   5.982   2.344
 4791W        W 8535   1.474   8.119  10.540
 4792W        W 8536   9.490   4.578   1.487
 4793W        W 8537   5.945   8.445   2.330
 4794W        W 8538   5.870   8.890   0.340
 4795W        W 8539   4.287   1.895   0.455
 4796W        W 8540   6.095   9.833   9.114
 4797W        W 8541   8.827   1.253   0.872
 4798W        W 8542   4.659   4.987   2.137
 4799W        W 8543   6.700   1.165  10.583
 4800W        W 8544   3.381   3.175   9.081
 4801W        W 8545   8.213   9.348   8.757
 4802W        W 8546   3.748   2.316  10.329
 4803W        W 8547   7.401   7.064   2.166
 4804W        W 8548   8.981   3.701   3.363
 4805W        W 8549   5.073   9.438  11.232
 4806W        W 8550   7.400  10.120   8.506
 4807W        W 8551   0.762   3.827   1.193
 4808W        W 8552   5.461   6.878  10.128
 4809W        W 8553   2.937   7.708  11.110
 4810W        W 8554   9.874   0.312   9.496
 4811W        W 8555   6.783   3.707   0.141
 4812W        W 8556   5.004   7.412   1.838
 4813W        W 8557   9.339   6.036   3.605
 4814W        W 8558   7.392   9.748   2.464
 4815W        W 8559  10.130   8.443  11.396
 4816W        W 8560   5.512   2.168   9.299
 4817W        W 8561   3.326   5.477   2.373
 4818W        W 8562   1.454   4.655   3.178
 4819W        W 8563   7.733   5.644   9.502
 4820W        W 8564   0.718   8.308  10.355
 4821W        W 8565  10.295   1.157   0.421
 4822W        W 8566   4.742   9.616   0.125
 4823W        W 8567   8.959   6.514  10.214
 4824W        W 8568   0.228  10.171   0.924
 4825W        W 8569   6.387   2.713   8.995
 4826W        W 8570   4.975   6.621  11.772
 4827W        W 8571   2.595   7.700   9.589
 4828W        W 8572   5.621   0.785   9.518
 4829W        W 8573  10.006   7.382  10.987
 4830W        W 8574   6.793   4.223   8.808
 4831W        W 8575  10.347   9.543  11.627
 4832W        W 8576   3.117   8.057   3.110
 4833W        W 8577   8.522   9.777   8.820
 4834W        W 8578   3.237   5.484  11.516
 4835W        W 8579   0.544   7.650   2.646
 4836W        W 8580   9.389   5.370   2.729
 4837W        W 8581   3.361   9.441  10.427
 4838W        W 8582   7.725   1.989   8.473
 4839W        W 8583   5.476   6.699  11.539
 4840W        W 8584   6.901   6.953   9.473
 4841W        W 8585   0.382   1.597   0.928
 4842W        W 8586  10.222   0.691   1.799
 4843W        W 8587   1.887   8.629   1.309
 4844W        W 8588   3.107   5.209   3.603
 4845W        W 8589   3.805   1.873  10.589
 4846W        W 8590   0.871   9.448  10.873
 4847W        W 8591   0.145   0.439  10.012
 4848W        W 8592   4.293   1.701  11.985
 4849W        W 8593   5.435   7.800   9.967
 4850W        W 8594   0.421   8.744  10.467
 4851W        W 8595   7.134   5.964  11.559
 4852W        W 8596   0.351   9.474  10.838
 4853W        W 8597   3.574   0.810   3.111
 4854W        W 8598   0.138   8.325   1.327
 4855W        W 8599   4.151   5.553  11.046
 4856W        W 8600   9.844   1.601   3.352
 4857W        W 8601   7.611   2.736  10.867
 4858W        W 8602   5.573   3.135   0.705
 4859W        W 8603   3.245   2.992   0.723
 4860W        W 8604   3.586   4.912  11.709
 4861W        W 8605   2.332   9.483   3.348
 4862W        W 8606   5.711   3.388  10.296
 4863W        W 8607   0.816   9.726  11.825
 4864W        W 8608   8.530   2.858  10.999
 4865W        W 8609   4.825   2.549   0.243
 4866W        W 8610   9.965   3.811   3.147
 4867W        W 8611   5.483   1.355   3.390
 4868W        W 8612   4.189   4.995   2.999
 4869W        W 8613   3.632   8.131   2.597
 4870W        W 8614   0.835  10.379   9.025
 4871W        W 8615   7.467   0.946   2.025
 4872W        W 8616   9.411   8.724   3.266
 4873W        W 8617  10.155   9.884  11.308
 4874W        W 8618   0.451   3.923   9.684
 4875W        W 8619   1.314   1.433   2.805
 4876W        W 8620   0.985   7.546   0.891
 4877W        W 8621   5.621   3.833  11.452
 4878W        W 8622   7.070   8.315   0.719
 4879W        W 8623   3.845   0.363  11.997
 4880W        W 8624   6.003   0.200  10.373
 4881W        W 8625   6.306   5.143   1.334
 4882W        W 8626   7.905   2.363  11.038
 4883W        W 8627   8.924   0.952  10.320
 4884W        W 8628   3.609   5.259   0.718
 4885W        W 8629   3.745   7.903  10.954
 4886W        W 8630   4.943   9.350   2.200
 4887W        W 8631   1.103   4.131   9.482
 4888W        W 8632   4.195   9.252   2.096
 4889W        W 8633   6.525   6.492   0.278
 4890W        W 8634   7.015   3.033  10.335
 4891W        W 8635   3.114  10.275   0.367
 4892W        W 8636   4.933   4.226   0.379
 4893W        W 8637   5.172  10.439   9.249
 4894W        W 8638   0.842   2.433   1.300
 4895W        W 8639   0.507   3.474  11.435
 4896W        W 8640   2.358   9.052   3.053
 4897W        W 8641   0.660   2.201   2.271
 4898W        W 8642   5.388   0.304   1.251
 4899W        W 8643   0.155   2.235   9.839
 4900W        W 8644   0.121   3.103   3.386
 4901W        W 8645   6.281   4.745  10.741
 4902W        W 8646   4.372   5.368  11.646
 4903W        W 8647   2.409   0.267   1.419
 4904W        W 8648   3.800   2.169   0.879
 4905W        W 8649   2.883   8.538   0.316
 4906W        W 8650   6.577   3.246   2.308
 4907W        W 8651   2.359   7.920   1.587
 4908W        W 8652   9.712   7.454   3.272
 4909W        W 8653   8.120   5.495  10.255
 4910W        W 8654   2.445   2.173   3.350
 4911W        W 8655   1.886   1.191   2.968
 4912W        W 8656   4.401   0.315  10.302
 4913W        W 8657   9.403   6.236   1.956
 4914W        W 8658   4.807   1.750  11.972
 4915W        W 8659   9.149   9.927   0.759
 4916W        W 8660   6.428   7.245   1.410
 4917W        W 8661   3.797   5.653   0.948
 4918W        W 8662   8.384   5.679  11.028
 4919W        W 8663   6.647   8.789   9.380
 4920W        W 8664   0.503   3.099  11.856
 4921W        W 8665   3.734   6.472   0.940
 4922W        W 8666   0.904   5.808  11.170
 4923W        W 8667   9.631   3.012   3.294
 4924W        W 8668   7.598   4.519   1.804
 4925W        W 8669   9.602   0.610   9.808
 4926W        W 8670   0.309   8.988  10.022
 4927W        W 8671   7.453   8.353  11.015
 4928W        W 8672   1.833   5.423   9.184
 4929W        W 8673   1.765   3.655   2.325
 4930W        W 8674   5.210   0.184  11.824
 4931W        W 8675   1.914   5.632   2.724
 4932W        W 8676   7.633   6.979  11.437
 4933W        W 8677   8.339   1.877   3.397
 4934W        W 8678  10.343   5.137  11.112
 4935W        W 8679   2.278   7.355  10.572
 4936W        W 8680   8.967   1.907   1.741
 4937W        W 8681   5.991   3.304  11.911
 4938W        W 8682   7.144   2.152   1.216
 4939W        W 8683   4.584   2.203   9.023
 4940W        W 8684   6.117  10.392  11.342
 4941W        W 8685   2.624  10.229   2.169
 4942W        W 8686   3.352   7.872  11.333
 4943W        W 8687   4.339   6.262   1.968
 4944W        W 8688   1.453   7.631   3.471
 4945W        W 8689   9.853   0.887   9.079
 4946W        W 8690   4.590   8.857   0.846
 4947W        W 8691   2.774   8.393  11.717
 4948W        W 8692   7.971   0.214   1.973
 4949W        W 8693   3.218   5.750   3.581
 4950W        W 8694   0.225   6.672   2.817
 4951W        W 8695   7.325   2.644   9.107
 4952W        W 8696   5.470   3.912   3.962
 4953W        W 8697   1.916   0.390   1.304
 4954W        W 8698   4.279   6.368  11.472
 4955W        W 8699   9.079   2.686  11.762
 4956W        W 8700   0.493   4.660   9.086
 4957W        W 8701   0.043   7.500   0.603
 4958W        W 8702   7.715   1.616  11.400
 4959W        W 8703   3.534   4.863   9.072
 4960W        W 8704   8.859   1.389   3.025
 4961W        W 8705   1.883   3.389   8.898
 4962W        W 8706   2.697   0.734   9.401
 4963W        W 8707   7.125   9.817   3.153
 4964W        W 8708   4.187  10.345   1.301
 4965W        W 8709   8.364   0.483   2.180
 4966W        W 8710   2.373   7.260   2.166
 4967W        W 8711   9.239   6.518  11.621
 4968W        W 8712  10.418   8.862  11.364
 4969W        W 8713   4.100   0.800  11.862
 4970W        W 8714   2.276   3.797   2.139
 4971W        W 8715   3.147   5.691   8.769
 4972W        W 8716   0.466   5.956   9.495
 4973W        W 8717   0.788   6.570   3.375
 4974W        W 8718   5.633   2.357   1.361
 4975W        W 8719   2.105   0.178   8.999
 4976W        W 8720   9.007   9.949   0.063
 4977W        W 8721   0.932   6.594   9.811
 4978W        W 8722  10.485   6.595   1.026
 4979W        W 8723   9.467   4.633  11.839
 4980W        W 8724   5.942   6.063  11.037
 4981W        W 8725   6.600   5.031   1.736
 4982W        W 8726   8.515   7.911  11.471
 4983W        W 8727   5.657   0.233   2.736
 4984W        W 8728   6.127   1.784   3.249
 4985W        W 8729   0.627   3.097   3.168
 4986W        W 8730   6.598  10.235  10.603
 4987W        W 8731   5.550   3.828   9.943
 4988W        W 8732   9.887   8.204   2.373
 4989W        W 8733   5.986   6.403   2.882
 4990W        W 8734   5.207  10.360   1.049
 4991W        W 8735   5.548   1.760  11.026
 4992W        W 8736   5.239   8.890   8.866
 4993W        W 8737   8.313   0.500  10.913
 4994W        W 8738   5.083   8.835   9.864
 4995W        W 8739   8.845   1.864  11.150
 4996W        W 8740   3.185  10.081   2.375
 4997W        W 8741   9.566   0.995  10.488
 4998W        W 8742   1.647   7.180   1.411
 4999W        W 8743   5.712   7.533   8.370
 5000W        W 8744   4.699   4.115  11.397
 5001W        W 8745   1.238  10.239   1.384
 5002W        W 8746   3.478  10.442   0.731
 5003W        W 8747   6.594   9.106   2.647
 5004W        W 8748   5.853  10.331   2.978
 5005W        W 8749   4.886   8.307   8.526
 5006W        W 8750   2.661   1.567   1.760
 5007W        W 8751   1.886   2.607   0.271
 5008W        W 8752   1.707   8.911   0.896
 5009W        W 8753   2.361   8.495   9.925
 5010W        W 8754   7.571   6.027  11.301
 5011W        W 8755   8.862   3.735  10.105
 5012W        W 8756   0.914   6.550  10.714
 5013W        W 8757   5.176   8.526   3.305
 5014W        W 8758   4.559   3.254   2.272
 5015W        W 8759   7.638   6.477   8.546
 5016W        W 8760   0.265   4.265  10.939
 5017W        W 8761   0.411   3.416   9.588
 5018W        W 8762   5.513   8.529  11.315
 5019W        W 8763   5.301   1.154   2.005
 5020W        W 8764   6.448   6.810   3.619
 5021W        W 8765   4.212   3.846   3.216
 5022W        W 8766   5.242   1.880  11.726
 5023W        W 8767   1.814   8.145   2.804
 5024W        W 8768   6.462   7.793   9.021
 5025W        W 8769   8.886   5.255   2.805
 5026W        W 8770  10.313   8.832  10.513
 5027W        W 8771   0.608   9.838   0.799
 5028W        W 8772   1.215  10.490   2.683
 5029W        W 8773   7.959   2.485  11.526
 5030W        W 8774   5.137   7.714   2.213
 5031W        W 8775   2.750   6.388   9.437
 5032W        W 8776   2.876   0.366   2.491
 5033W        W 8777   7.459   2.145   2.596
 5034W        W 8778   5.123   9.393   9.003
 5035W        W 8779   1.345   4.830   8.865
 5036W        W 8780   9.415   3.847   2.074
 5037W        W 8781   1.373   7.610  10.309
 5038W        W 8782   9.468   8.540  10.873
 5039W        W 8783   5.106   3.021   9.910
 5040W        W 8784   9.820   5.030   9.039
 5041W        W 8785   0.664   4.361   9.499
 5042W        W 8786   7.821   0.819   9.374
 5043W        W 8787   8.917   7.993   0.725
 5044W        W 8788   9.876   1.343  11.693
 5045W        W 8789   0.010   7.823  10.346
 5046W        W 8790   3.099   1.480   2.977
 5047W        W 8791   8.633   8.691  11.018
 5048W        W 8792  10.431   7.658  11.905
 5049W        W 8793   4.247   7.235  11.939
 5050W        W 8794   5.345   2.393   0.148
 5051W        W 8795   0.269   2.554  11.293
 5052W        W 8796   6.200   8.354   0.898
 5053W        W 8797   6.971   6.861   1.945
 5054W        W 8798   4.793   1.310   0.233
 5055W        W 8799   3.246   8.201   0.034
 5056W        W 8800   0.470   4.635   2.942
 5057W        W 8801   4.767   0.243   1.058
 5058W        W 8802   2.150   0.670  11.035
 5059W        W 8803   9.794   3.125   0.555
 5060W        W 8804   0.531   8.855   2.572
 5061W        W 8805   6.129   2.414   0.449
 5062W        W 8806   2.624   9.118  11.513
 5063W        W 8807   5.704   6.361   0.433
 5064W        W 8808   0.189   7.928  10.842
 5065W        W 8809   0.948   9.943  10.885
 5066W        W 8810   6.166   9.379   2.819
 5067W        W 8811   6.985   7.005   2.996
 5068W        W 8812  10.310   6.262  11.743
 5069W        W 8813   3.264   7.370  11.293
 5070W        W 8814   1.705   1.230   2.491
 5071W        W 8815   0.393   2.680   2.246
 5072W        W 8816   7.454   0.448   0.771
 5073W        W 8817  10.042   7.374   2.586
 5074W        W 8818   8.905   3.817   1.231
 5075W        W 8819   6.972   9.591   8.969
 5076W        W 8820   1.215   0.426  10.899
 5077W        W 8821   6.739   4.178   3.590
 5078W        W 8822   9.829   6.690  10.415
 5079W        W 8823   9.767   3.163   2.473
 5080W        W 8824   1.897   9.456   0.823
 5081W        W 8825   9.986   2.725  10.600
 5082W        W 8826   0.936  10.488  10.031
 5083W        W 8827   6.134   0.182   3.489
 5084W        W 8828   9.359   8.066   0.481
 5085W        W 8829   1.814  10.262  10.002
 5086W        W 8830   3.164   4.946  10.360
 5087W        W 8831   2.577   9.406  10.244
 5088W        W 8832   3.643   4.121  10.476
 5089W        W 8833   2.399   8.591   0.927
 5090W        W 8834   6.097   3.906   2.195
 5091W        W 8835   3.164   8.144  10.942
 5092W        W 8836  10.173   9.408   3.467
 5093W        W 8837   3.711   1.358   8.741
 5094W        W 8838   5.996   5.494   2.410
 5095W        W 8839   5.992   3.244   1.429
 5096W        W 8840   4.101   6.085  11.084
 5097W        W 8841   4.744   8.952  11.515
 5098W        W 8842   2.157   4.445   9.458
 5099W        W 8843   7.439   3.728   8.504
 5100W        W 8844   4.776   7.383   2.412
 5101W        W 8845   8.400   5.533   2.644
 5102W        W 8846   5.038   8.848  11.922
 5103W        W 8847   7.110   3.185   9.414
 5104W        W 8848   0.446   7.939   3.319
 5105W        W 8849   4.357   2.779  11.374
 5106W        W 8850   9.883   3.201   1.470
 5107W        W 8851   3.668   3.632   3.398
 5108W        W 8852   2.972   9.798   0.777
 5109W        W 8853   2.510   4.883   9.523
 5110W        W 8854   2.761   1.331   2.226
 5111W        W 8855   6.194   1.347  11.006
 5112W        W 8856   2.608   3.252  10.334
 5113W        W 8857   4.286   7.488   8.914
 5114W        W 8858   6.538   7.357   3.678
 5115W        W 8859   1.342   6.058   2.216
 5116W        W 8860   9.220   5.962  10.259
 5117W        W 8861   5.085   9.451   1.663
 5118W        W 8862   3.882   1.123   3.410
 5119W        W 8863   3.637   9.623   9.481
 5120W        W 8864   9.698   0.509   2.320
 5121W        W 8865   5.170   2.323  11.399
 5122W        W 8866   1.969   1.702   1.008
 5123W        W 8867   6.956   9.403   2.369
 5124W        W 8868   9.324  10.396   8.753
 5125W        W 8869   5.102   5.613   1.657
 5126W        W 8870   1.480   7.126   9.324
 5127W        W 8871   8.829   0.900   0.337
 5128W        W 8872   9.397   7.542   9.676
 5129W        W 8873   9.061   0.901   1.261
 5130W        W 8874   6.573   6.212   1.328
 5131W        W 8875   0.848   4.824  11.824
 5132W        W 8876   6.581   3.563  11.232
 5133W        W 8877   8.830   7.199   1.141
 5134W        W 8878   6.489   8.350  11.355
 5135W        W 8879   4.308   0.399   8.843
 5136W        W 8880   9.384   3.656  11.950
 5137W        W 8881   2.455   0.904   0.486
 5138W        W 8882   1.214   0.015   2.169
 5139W        W 8883   8.253  10.500   9.270
 5140W        W 8884   8.252   1.394   2.681
 5141W        W 8885   4.037   7.355   8.455
 5142W        W 8886   2.420   6.496  10.588
 5143W        W 8887   5.737   6.524   9.890
 5144W        W 8888   3.330   6.449   0.598
 5145W        W 8889   4.726   1.182   9.787
 5146W        W 8890   6.697   6.464  10.772
 5147W        W 8891   2.252   6.957  10.928
 5148W        W 8892   3.612   7.682   0.256
 5149W        W 8893   5.199   4.171  11.767
 5150W        W 8894   0.416   6.955   3.337
 5151W        W 8895   6.544   0.716  11.487
 5152W        W 8896   2.741   5.554   0.259
 5153W        W 8897   3.814   0.581   8.795
 5154W        W 8898   4.596   7.848   1.080
 5155W        W 8899   8.603   2.896  11.827
 5156W        W 8900   8.973   7.250   8.394
 5157W        W 8901   4.580   6.291   9.448
 5158W        W 8902  10.084  10.232   9.942
 5159W        W 8903   1.914   5.257  11.351
 5160W        W 8904  10.081   3.997   0.875
 5161W        W 8905   8.029   5.902   1.907
 5162W        W 8906   2.003   0.020   1.663
 5163W        W 8907   6.160   0.796   1.651
 5164W        W 8908   4.312   7.210   2.449
 5165W        W 8909   2.191   1.109   2.335
 5166W        W 8910   7.687   5.988   8.433
 5167W        W 8911   7.665   4.608   0.267
 5168W        W 8912   2.710   8.136   8.853
 5169W        W 8913   6.942   5.890   1.452
 5170W        W 8914   9.098   9.417   9.311
 5171W        W 8915   7.465   2.596   0.452
 5172W        W 8916   5.624   1.223   2.833
 5173W        W 8917   0.165   6.099  10.788
 5174W        W 8918   4.179   2.403  10.614
 5175W        W 8919   3.154   9.975   3.440
 5176W        W 8920   6.130   7.894   9.400
 5177W        W 8921   1.447   7.565   0.628
 5178W        W 8922   8.137   6.987  11.344
 5179W        W 8923   5.165   2.695  11.765
 5180W        W 8924   0.384   3.610  11.903
 5181W        W 8925   4.599   7.541   3.873
 5182W        W 8926   8.939   2.661   2.340
 5183W        W 8927   2.708   5.465  10.785
 5184W        W 8928   6.943   2.651   3.038
 5185W        W 8929   0.360   7.971  11.760
 5186W        W 8930  10.256   1.683   0.401
 5187W        W 8931   1.380   6.241   1.174
 5188W        W 8932   2.446   3.777   0.014
 5189W        W 8933   2.687   3.207   0.805
 5190W        W 8934   8.510   8.127   2.043
 5191W        W 8935   6.550   0.438   9.229
 5192W        W 8936   3.099   3.125  11.921
 5193W        W 8937   2.383   2.988  11.519
 5194W        W 8938   0.301   2.343   0.199
 5195W        W 8939   4.869   8.843   0.422
 5196W        W 8940   6.708   7.725   2.461
 5197W        W 8941   4.786   0.818  11.322
 5198W        W 8942   1.933   1.383  10.901
 5199W        W 8943   9.576   4.209  10.932
 5200W        W 8944   3.758   1.878  10.063
 5201W        W 8945   0.936  10.272  10.496
 5202W        W 8946   7.464   1.356   1.212
 5203W        W 8947   5.141   8.809  10.528
 5204W        W 8948   5.836   8.416   8.625
 5205W        W 8949   8.160   0.906   0.685
 5206W        W 8950   4.523   4.248   3.196
 5207W        W 8951   8.515  10.027   2.590
 5208W        W 8952  10.432   8.779   0.293
 5209W        W 8953   1.908   9.036   2.354
 5210W        W 8954   5.753   6.902  11.910
 5211W        W 8955   4.641   2.326   1.500
 5212W        W 8956   5.132   4.791   9.779
 5213W        W 8957   3.368   8.864  10.303
 5214W        W 8958   2.893   0.951   9.828
 5215W        W 8959   6.969   3.768  11.527
 5216W        W 8960   1.396   2.463   8.841
 5217W        W 8961   3.771   7.039   1.765
 5218W        W 8962  10.316   9.947   0.671
 5219W        W 8963   2.681  10.359   1.264
 5220W        W 8964   3.640   9.619   2.010
 5221W        W 8965   5.464   4.604  11.872
 5222W        W 8966   1.675   4.126   2.130
 5223W        W 8967  10.443   5.560   1.857
 5224W        W 8968   0.451   7.164   9.780
 5225W        W 8969   2.456   7.416   8.639
 5226W        W 8970   2.625   4.973  10.737
 5227W        W 8971   5.333   0.334   9.601
 5228W        W 8972   0.780   8.778  10.850
 5229W        W 8973   9.533   0.961   2.509
 5230W        W 8974   4.338   0.363   9.355
 5231W        W 8975   9.779   1.810   1.969
 5232W        W 8976   8.091   6.641   1.082
 5233W        W 8977   6.543   6.696  11.747
 5234W        W 8978   0.447   5.620   8.781
 5235W        W 8979   3.271   1.987   0.411
 5236W        W 8980   5.453   8.896  10.983
 5237W        W 8981   0.977   8.883   8.617
 5238W        W 8982   9.338   8.949  11.499
 5239W        W 8983   6.085   0.857   0.655
 5240W        W 8984   6.107   6.606   1.744
 5241W        W 8985   1.201   1.778   9.348
 5242W        W 8986   5.466   8.008   8.597
 5243W        W 8987   4.800   3.146   1.824
 5244W        W 8988   0.023   1.312   9.007
 5245W        W 8989   2.919   5.694   2.596
 5246W        W 8990   9.389   7.039   1.938
 5247W        W 8991   0.067   7.580   2.777
 5248W        W 8992   0.263   0.040   2.633
 5249W        W 8993   2.424   8.900  10.487
 5250W        W 8994   9.615   9.430   9.467
 5251W        W 8995   7.641   8.121   9.441
 5252W        W 8996   6.386   3.908   8.686
 5253W        W 8997   8.870   2.357  10.094
 5254W        W 8998   2.927   3.768   0.192
 5255W        W 8999   3.496   3.004   1.409
 5256W        W 9000   7.497   0.055   3.308
 5257W        W 9001   1.356   3.745   3.251
 5258W        W 9002   8.715   0.841   9.578
 5259W        W 9003   4.638   5.963   2.277
 5260W        W 9004   2.687   5.356   9.455
 5261W        W 9005   6.465   1.786  10.981
 5262W        W 9006   5.683   9.977  10.597
 5263W        W 9007   1.694   9.894   2.127
 5264W        W 9008   4.246   5.270   2.082
 5265W        W 9009   5.533   8.852  10.073
 5266W        W 9010   5.389   7.132   8.236
 5267W        W 9011   5.538   8.904  11.919
 5268W        W 9012   3.081   4.252   1.842
 5269W        W 9013   1.703   6.006   3.022
 5270W        W 9014   3.008   7.457   9.374
 5271W        W 9015   3.551   6.175   3.585
 5272W        W 9016   9.427   8.902   1.402
 5273W        W 9017   0.370  10.265   9.537
 5274W        W 9018   1.482   7.382   2.646
 5275W        W 9019   8.847   2.226   2.663
 5276W        W 9020   6.621   1.025   2.417
 5277W        W 9021   6.188  10.176   9.478
 5278W        W 9022   8.351   9.043  10.751
 5279W        W 9023   0.576   8.220   0.153
 5280W        W 9024   2.319   1.684   1.370
 5281W        W 9025  10.484   6.732   0.080
 5282W        W 9026   4.338   6.074   0.231
 5283W        W 9027   2.902   9.904   9.540
 5284W        W 9028   7.027   5.824   2.135
 5285W        W 9029   9.079   5.073  10.041
 5286W        W 9030  10.273   4.849   0.852
 5287W        W 9031   2.504   9.932   0.966
 5288W        W 9032   4.289   2.101   0.946
 5289W        W 9033   0.794   1.864   8.861
 5290W        W 9034   6.488   3.225   1.497
 5291W        W 9035   5.305   3.324   8.574
 5292W        W 9036   5.424   9.856   3.803
 5293W        W 9037   5.113   9.002   1.443
 5294W        W 9038   5.235   2.876   3.896
 5295W        W 9039   7.926   1.810   0.274
 5296W        W 9040   7.872   6.380   2.004
 5297W        W 9041   1.660   6.039  10.861
 5298W        W 9042   0.324   0.907   8.907
 5299W        W 9043   5.761   2.864   1.098
 5300W        W 9044   8.646   5.734   8.360
 5301W        W 9045   0.549   5.502   0.463
 5302W        W 9046   7.494   4.710   3.597
 5303W        W 9047   7.965   5.713   0.864
 5304W        W 9048   7.901   2.289   0.976
 5305W        W 9049   0.289  10.384  11.178
 5306W        W 9050   8.174   5.878   3.361
 5307W        W 9051   7.005   8.068  10.488
 5308W        W 9052   7.953  10.254   1.736
 5309W        W 9053   6.117  10.380   0.694
 5310W        W 9054   7.319   4.524   9.988
 5311W        W 9055   3.554   2.627   0.972
 5312W        W 9056   4.729   2.279   3.414
 5313W        W 9057   3.905   3.948   2.413
 5314W        W 9058   2.234   7.093  10.028
 5315W        W 9059   7.462  10.041   9.764
 5316W        W 9060   1.380   1.863   2.482
 5317W        W 9061   5.784   4.653   1.900
 5318W        W 9062   9.491   2.657  11.462
 5319W        W 9063   3.179   3.495   0.740
 5320W        W 9064   9.508   3.884   2.931
 5321W        W 9065   5.729   4.653   2.416
 5322W        W 9066   0.497   3.811   2.565
 5323W        W 9067   4.148   7.321  11.460
 5324W        W 9068   8.404   4.304   2.339
 5325W        W 9069   0.033   5.689   0.708
 5326W        W 9070   0.886   0.126   9.525
 5327W        W 9071   8.506   5.745  10.059
 5328W        W 9072  10.489   2.627  10.442
 5329W        W 9073   5.574   1.480   1.703
 5330W        W 9074   8.935   6.520   8.686
 5331W        W 9075   7.923   4.935   1.096
 5332W        W 9076   7.544   4.453   4.024
 5333W        W 9077   3.792   5.401   2.225
 5334W        W 9078  10.299   1.381  11.966
 5335W        W 9079   8.977   8.388   2.050
 5336W        W 9080   5.558   3.932   9.065
 5337W        W 9081   8.084   9.372   1.355
 5338W        W 9082   8.907   4.186   9.554
 5339W        W 9083   9.011   8.584   9.943
 5340W        W 9084   3.773   3.105   8.732
 5341W        W 9085   7.018   6.942   2.476
 5342W        W 9086   5.443  10.005   8.614
 5343W        W 9087   7.646   9.271  11.443
 5344W        W 9088   9.204   6.997   1.463
 5345W        W 9089   0.169   5.062   2.873
 5346W        W 9090   6.751   6.556   9.785
 5347W        W 9091   9.805   9.285   3.110
 5348W        W 9092   9.553   6.942   2.580
 5349W        W 9093   4.202   6.375  10.627
 5350W        W 9094   3.791   0.512   2.010
 5351W        W 9095   5.850   3.253   8.554
 5352W        W 9096   8.545   4.317   0.300
 5353W        W 9097   8.594   5.195  10.937
 5354W        W 9098   0.297   5.114   9.295
 5355W        W 9099   5.552   6.146   9.218
 5356W        W 9100   9.364   0.011   2.511
 5357W        W 9101   7.164   8.970   1.483
 5358W        W 9102   9.456   4.703   3.311
 5359W        W 9103   5.067   6.019  10.572
 5360W        W 9104   1.405   4.623   1.664
 5361W        W 9105   9.198  10.469   1.196
 5362W        W 9106   0.266   3.184   1.442
 5363W        W 9107   7.006   0.703  11.839
 5364W        W 9108   0.287   3.643   1.199
 5365W        W 9109   0.886   6.529  11.915
 5366W        W 9110   0.507   3.575   0.745
 5367W        W 9111   0.559   9.622  11.267
 5368W        W 9112   3.309   1.792   9.264
 5369W        W 9113   1.423  10.479  10.758
 5370W        W 9114   4.965   1.957   1.459
 5371W        W 9115   4.903   8.066   3.188
 5372W        W 9116   3.209   2.288   9.103
 5373W        W 9117   5.415   5.608  10.494
 5374W        W 9118  10.383   3.989   1.312
 5375W        W 9119   7.577   5.307   0.889
 5376W        W 9120   1.986   6.374  10.279
 5377W        W 9121   6.990   4.712  10.887
 5378W        W 9122   0.778  10.036   1.506
 5379W        W 9123   5.630   3.616   9.467
 5380W        W 9124  10.320   0.350  11.410
 5381W        W 9125   6.487   1.151   1.410
 5382W        W 9126   3.731   8.611   9.439
 5383W        W 9127   6.437   0.908  10.992
 5384W        W 9128   0.988   1.859   0.780
 5385W        W 9129   1.293   2.696   9.821
 5386W        W 9130   6.152   6.425   0.697
 5387W        W 9131   2.783   6.530   1.192
 5388W        W 9132   3.200   3.231   3.627
 5389W        W 9133  10.339   1.286  11.456
 5390W        W 9134   9.168   6.210   0.474
 5391W        W 9135  10.000   1.105   3.073
 5392W        W 9136   8.566   5.234  10.074
 5393W        W 9137   3.736   7.390  11.018
 5394W        W 9138   8.021   0.869  11.752
 5395W        W 9139   8.882   4.051   2.154
 5396W        W 9140   7.907  10.264   3.185
 5397W        W 9141   3.595  10.438   9.787
 5398W        W 9142   0.885   7.188  11.996
 5399W        W 9143   7.520   8.597   9.551
 5400W        W 9144   3.679   4.582   9.775
 5401W        W 9145   9.018   1.357  11.202
 5402W        W 9146   7.630   8.656   2.625
 5403W        W 9147   1.898   6.871   0.965
 5404W        W 9148   3.846   0.382  10.313
 5405W        W 9149   9.140   3.995  10.989
 5406W        W 9150   9.819   9.631  10.299
 5407W        W 9151   5.030   6.023   2.943
 5408W        W 9152   3.717   9.199   0.517
 5409W        W 9153   8.471   7.934   0.472
 5410W        W 9154   9.738   4.610   9.373
 5411W        W 9155   7.508   2.445   2.192
 5412W        W 9156   7.817   4.376  11.328
 5413W        W 9157   8.460   4.770   2.136
 5414W        W 9158   8.951   1.812   2.328
 5415W        W 9159   1.597   4.185   9.440
 5416W        W 9160   5.549   5.368   1.769
 5417W        W 9161   5.434   4.154   0.272
 5418W        W 9162   8.976   1.275  10.701
 5419W        W 9163   3.091   6.889  11.279
 5420W        W 9164   9.770   7.771   2.755
 5421W        W 9165   4.162   3.556   1.179
 5422W        W 9166   1.331   4.807  10.124
 5423W        W 9167   2.346   9.194   0.224
 5424W        W 9168   5.671   2.712   0.418
 5425W        W 9169   3.117   5.185   0.941
 5426W        W 9170   8.779   6.308   0.815
 5427W        W 9171   7.636  10.036   2.804
 5428W        W 9172   1.806   5.480   9.689
 5429W        W 9173   8.778   8.307   3.575
 5430W        W 9174   9.226   0.306  11.944
 5431W        W 9175   4.199   1.235   2.811
 5432W        W 9176   0.743   9.993   0.291
 5433W        W 9177   7.921   0.482   0.514
 5434W        W 9178   1.845  10.395  11.015
 5435W        W 9179   0.390   2.443   2.690
 5436W        W 9180   4.310   5.520   0.937
 5437W        W 9181   5.529   8.828   9.567
 5438W        W 9182   5.627   5.436   8.964
 5439W        W 9183   3.410   4.076   2.263
 5440W        W 9184   6.620   7.849  11.268
 5441W        W 9185   7.794   5.204  10.497
 5442W        W 9186   3.249   9.510   1.156
 5443W        W 9187   1.652   0.239   9.989
 5444W        W 9188   4.937   5.768  11.390
 5445W        W 9189   6.461   8.108   3.279
 5446W        W 9190   2.326   4.639   1.672
 5447W        W 9191   9.997   0.966   0.004
 5448W        W 9192   4.966   7.588  11.586
 5449W        W 9193   5.361   1.678   1.296
 5450W        W 9194   2.823   3.395   1.576
 5451W        W 9195   1.397   0.377  10.417
 5452W        W 9196   4.663   8.089  10.520
 5453W        W 9197   1.615   3.025   0.221
 5454W        W 9198   5.546   8.288  10.879
 5455W        W 9199   7.624   7.421   1.693
 5456W        W 9200   2.676   8.448   2.390
 5457W        W 9201   1.822   2.196   0.986
 5458W        W 9202   3.393   3.825   0.380
 5459W        W 9203   8.517   2.293   9.268
 5460W        W 9204   1.628   1.345  11.330
 5461W        W 9205   3.593   1.892   3.030
 5462W        W 9206   1.151   9.543  10.440
 5463W        W 9207   1.775   0.085   8.565
 5464W        W 9208   0.184   9.208  10.458
 5465W        W 9209   3.903  10.404   2.679
 5466W        W 9210   4.423   7.600   2.741
 5467W        W 9211   0.705   3.312   1.163
 5468W        W 9212   3.646   5.697   1.725
 5469W        W 9213   4.090   9.377   9.344
 5470W        W 9214   4.068   7.509  10.626
 5471W        W 9215   1.955   1.380   3.431
 5472W        W 9216   4.984   9.986   3.459
 5473W        W 9217   0.210   7.397   2.298
 5474W        W 9218   1.818   5.457   2.158
 5475W        W 9219   4.695   0.676   9.051
 5476W        W 9220   0.483   3.820   3.070
 5477W        W 9221   4.321   5.137   9.553
 5478W        W 9222   1.880   2.862   8.338
 5479W        W 9223   8.180   5.040  11.799
 5480W        W 9224   8.056   8.639   0.766
 5481W        W 9225   3.226   7.355  10.369
 5482W        W 9226   6.974   0.785   3.237
 5483W        W 9227   0.705   3.086  10.917
 5484W        W 9228  10.478   9.444   1.995
 5485W        W 9229   6.152   9.105   3.419
 5486W        W 9230   1.103   0.450   9.150
 5487W        W 9231   6.177   6.186   2.049
 5488W        W 9232   4.068   9.716   3.358
 5489W        W 9233   7.024   4.590   3.756
 5490W        W 9234   9.247   3.402   9.778
 5491W        W 9235   4.571   4.155  10.897
 5492W        W 9236   5.056   2.375   9.468
 5493W        W 9237   1.213   4.228  11.028
 5494W        W 9238   8.576   7.171   8.726
 5495W        W 9239   9.335   0.872   8.935
 5496W        W 9240   8.876   1.773   8.829
 5497W        W 9241   5.068   6.106   9.549
 5498W        W 9242   6.125   1.957   0.239
 5499W        W 9243   0.938   6.287   2.989
 5500W        W 9244   4.216   3.607  11.730
 5501W        W 9245   3.269   6.152   8.564
 5502W        W 9246   0.671   8.854   9.086
 5503W        W 9247   5.762   1.766   8.409
 5504W        W 9248   4.574   9.266   0.457
 5505W        W 9249   0.964   1.763   0.119
 5506W        W 9250  10.415   4.490   2.578
 5507W        W 9251   8.618   7.558   0.827
 5508W        W 9252   9.374   1.529   9.550
 5509W        W 9253   9.883   1.340  11.191
 5510W        W 9254   4.297   3.116   2.731
 5511W        W 9255   2.879   2.162  10.333
 5512W        W 9256   4.273   5.227   1.415
 5513W        W 9257   7.606   8.805   0.579
 5514W        W 9258   4.738   1.700  10.362
 5515W        W 9259   6.125   7.557   8.060
 5516W        W 9260   9.284   6.232   0.958
 5517W        W 9261   8.478   6.061   2.655
 5518W        W 9262   3.214   7.129   1.164
 5519W        W 9263   2.783   9.751   2.250
 5520W        W 9264   9.450   3.554   2.504
 5521W        W 9265   6.436   2.301  10.975
 5522W        W 9266   6.164   9.673  11.831
 5523W        W 9267   6.465   2.170  11.461
 5524W        W 9268   5.952   4.662  11.736
 5525W        W 9269   7.196   6.643   8.334
 5526W        W 9270   7.129   1.964  11.502
 5527W        W 9271   1.460   7.915   1.933
 5528W        W 9272   9.071   6.997  11.729
 5529W        W 9273   9.180   2.234  10.945
 5530W        W 9274   0.435   6.932  11.888
 5531W        W 9275   7.502   8.077   2.323
 5532W        W 9276   1.211   9.977   0.495
 5533W        W 9277   0.441   7.645   1.861
 5534W        W 9278   3.378   3.650  10.885
 5535W        W 9279   5.746  10.316  10.994
 5536W        W 9280   2.637   8.822  11.953
 5537W        W 9281   1.301   0.947   2.654
 5538W        W 9282   4.625  10.370   3.380
 5539W        W 9283   9.109   8.881  11.057
 5540W        W 9284   2.209   2.536   9.234
 5541W        W 9285   9.402   8.145   3.105
 5542W        W 9286   6.406   5.352  10.418
 5543W        W 9287   6.561   1.739   0.384
 5544W        W 9288   3.270   2.358  10.641
 5545W        W 9289   5.687   8.362   9.959
 5546W        W 9290   7.439   1.432   2.692
 5547W        W 9291   7.899   7.991  10.242
 5548W        W 9292  10.248   2.748   9.346
 5549W        W 9293   1.667   5.045  10.957
 5550W        W 9294   7.238   9.730   3.746
 5551W        W 9295   1.271   4.199   0.932
 5552W        W 9296   9.772   2.804   9.555
 5553W        W 9297   0.846   0.438   1.431
 5554W        W 9298   6.492   0.774   8.824
 5555W        W 9299   4.759  10.091   1.695
 5556W        W 9300   7.543   9.046   3.513
 5557W        W 9301   9.154   1.198   3.376
 5558W        W 9302   8.027   8.025   2.275
 5559W        W 9303   5.607   2.650   2.447
 5560W        W 9304   1.935   9.091   3.382
 5561W        W 9305   7.156   9.739  11.966
 5562W        W 9306   0.692   0.051  11.436
 5563W        W 9307   8.519   3.211   1.389
 5564W        W 9308   9.022   6.047  11.464
 5565W        W 9309   8.322   2.443  10.768
 5566W        W 9310   3.266   7.304   0.214
 5567W        W 9311   8.307   7.136   0.728
 5568W        W 9312   4.205   0.347   1.734
 5569W        W 9313   0.799   4.767   1.487
 5570W        W 9314   0.940  10.184   8.503
 5571W        W 9315   3.411  10.000   0.970
 5572W        W 9316   5.648   4.122   1.216
 5573W        W 9317   7.371   3.155  10.682
 5574W        W 9318   3.637   3.521   2.440
 5575W        W 9319   8.104   9.848   3.487
 5576W        W 9320   9.852   4.713   2.394
 5577W        W 9321   6.532   6.084   0.668
 5578W        W 9322   9.995   4.474  10.983
 5579W        W 9323  10.325   6.126  11.212
 5580W        W 9324   4.222   0.888   8.922
 5581W        W 9325   1.827   7.370   0.917
 5582W        W 9326   4.258   9.495   1.079
 5583W        W 9327   0.873   2.266  11.982
 5584W        W 9328   5.629   7.239   2.818
 5585W        W 9329   4.721   6.465  10.814
 5586W        W 9330   5.554   2.694  11.402
 5587W        W 9331   7.484   8.954   1.052
 5588W        W 9332   2.824   9.064   0.374
 5589W        W 9333   8.105   4.201   3.163
 5590W        W 9334   8.098   5.115   2.598
 5591W        W 9335   6.569   2.662  11.353
 5592W        W 9336   8.098   4.985   1.585
 5593W        W 9337   1.320   1.691   1.182
 5594W        W 9338   9.764   2.246   2.232
 5595W        W 9339   8.372   2.424  10.271
 5596W        W 9340   3.710   0.440   9.827
 5597W        W 9341   8.835   3.166   2.464
 5598W        W 9342   3.964   9.460   8.466
 5599W        W 9343   7.514   1.934   2.141
 5600W        W 9344   8.934   2.644   0.242
 5601W        W 9345   7.054   6.932  11.715
 5602W        W 9346   5.064   2.360  10.472
 5603W        W 9347   6.004   7.920   2.402
 5604W        W 9348   0.029   2.415   0.990
 5605W        W 9349   6.251   4.654   1.584
 5606W        W 9350   2.422   3.374   2.922
 5607W        W 9351   1.933   4.481   3.300
 5608W        W 9352   7.695   6.461   3.410
 5609W        W 9353   7.087  10.186  10.926
 5610W        W 9354   2.203  10.245   9.262
 5611W        W 9355   7.874   0.283   9.514
 5612W        W 9356   2.958   8.511   3.307
 5613W        W 9357   3.121   0.680  10.928
 5614W        W 9358   2.407  10.235   1.691
 5615W        W 9359   8.602   9.356   9.094
 5616W        W 9360   0.731  10.075  11.334
 5617W        W 9361   7.598   2.814  10.367
 5618W        W 9362   8.531   6.425   9.562
 5619W        W 9363   6.953  10.431   1.219
 5620W        W 9364   4.537   0.313  11.028
 5621W        W 9365   0.366   4.505   1.427
 5622W        W 9366   0.720  10.239  11.836
 5623W        W 9367   2.744   8.547   9.197
 5624W        W 9368   3.051   4.239   0.333
 5625W        W 9369   4.587   0.100   1.525
 5626W        W 9370   0.432   9.383   1.760
 5627W        W 9371   0.990   4.644   9.188
 5628W        W 9372  10.196   2.241  10.655
 5629W        W 9373   7.027   9.900  10.003
 5630W        W 9374   4.625   7.208  11.591
 5631W        W 9375   5.542   3.077  10.656
 5632W        W 9376  10.309   1.566   1.329
 5633W        W 9377   4.092   2.602   0.961
 5634W        W 9378   0.917   2.175   3.285
 5635W        W 9379   1.753   0.738  11.404
 5636W        W 9380   3.188   8.699  11.934
 5637W        W 9381   5.822   8.068   4.068
 5638W        W 9382   8.445   8.490   1.252
 5639W        W 9383   8.632   5.289  11.801
 5640W        W 9384   2.283   4.547  11.690
 5641W        W 9385   9.361   4.217  10.473
 5642W        W 9386   2.409   2.915   8.457
 5643W        W 9387   5.568   7.525   9.379
 5644W        W 9388   6.521   3.417   1.026
 5645W        W 9389   8.063   1.643   9.778
 5646W        W 9390   3.277   3.279   1.767
 5647W        W 9391   4.827  10.334   0.711
 5648W        W 9392   1.781   4.698   0.938
 5649W        W 9393   2.617   4.233   2.832
 5650W        W 9394   1.321   1.953   8.881
 5651W        W 9395   4.721   0.426   2.433
 5652W        W 9396   5.753   5.980   3.149
 5653W        W 9397   1.755   4.346  11.769
 5654W        W 9398   4.708   8.021  11.084
 5655W        W 9399   0.859   5.708  10.217
 5656W        W 9400   0.418  10.211  10.407
 5657W        W 9401   2.361   6.998   1.723
 5658W        W 9402   9.773   8.591  10.429
 5659W        W 9403   3.846  10.030   1.670
 5660W        W 9404   5.108   2.565   2.707
 5661W        W 9405   5.211   1.652   8.697
 5662W        W 9406   8.309   0.726   3.134
 5663W        W 9407   6.960   1.161   1.911
 5664W        W 9408   9.120   2.207  11.985
 5665W        W 9409   2.316   9.434   2.245
 5666W        W 9410   3.417   0.922   8.733
 5667W        W 9411   5.306   8.475   1.495
 5668W        W 9412   2.484   6.144   0.475
 5669W        W 9413   3.099   0.796  11.907
 5670W        W 9414   7.447   0.654  11.382
 5671W        W 9415   0.539   6.023   2.195
 5672W        W 9416   7.349   6.129   3.222
 5673W        W 9417   5.632   4.088  10.970
 5674W        W 9418   4.368   8.575   1.316
 5675W        W 9419  10.368   7.031  11.236
 5676W        W 9420   5.889   7.077  10.459
 5677W        W 9421   5.003   7.999   0.818
 5678W        W 9422   6.448   3.648   9.910
 5679W        W 9423   1.703   3.564   9.348
 5680W        W 9424   2.768   1.912   0.423
 5681W        W 9425   2.892   6.956   9.406
 5682W        W 9426   0.883   6.638   8.949
 5683W        W 9427   7.961   2.675   2.338
 5684W        W 9428   4.033   2.656   2.722
 5685W        W 9429   0.912   6.205   2.470
 5686W        W 9430  10.286   7.905   0.406
 5687W        W 9431   8.522   0.267   3.303
 5688W        W 9432   0.133   0.824   3.348
 5689W        W 9433   3.486   0.519   3.504
 5690W        W 9434   4.623   4.096   7.869
 5691W        W 9435   7.357   6.553   0.341
 5692W        W 9436   3.199   9.966   2.918
 5693W        W 9437   6.945   9.867   2.675
 5694W        W 9438   7.627   1.837   2.963
 5695W        W 9439  10.412   8.898   9.683
 5696W        W 9440   3.825   2.762  10.555
 5697W        W 9441   9.370   9.098   0.017
 5698W        W 9442   0.030   2.646   8.630
 5699W        W 9443   8.864   5.813   0.325
 5700W        W 9444   5.010   0.835   2.642
 5701W        W 9445   6.614   6.457   1.810
 5702W        W 9446   8.947   7.431   1.577
 5703W        W 9447   5.368   2.761   3.414
 5704W        W 9448  10.030   0.857   9.584
 5705W        W 9449   2.416   5.668   3.194
 5706W        W 9450   6.446   1.134   1.940
 5707W        W 9451   2.691   8.388   2.902
 5708W        W 9452   7.866   7.439  11.527
 5709W        W 9453   6.183   2.042   2.805
 5710W        W 9454   4.167   7.133   1.470
 5711W        W 9455   8.910   8.924   3.304
 5712W        W 9456   3.361   2.697   2.552
 5713W        W 9457   3.036   0.732   8.457
 5714W        W 9458   9.319   3.035   9.403
 5715W        W 9459   8.823   7.527   3.069
 5716W        W 9460   5.145   5.246   9.054
 5717W        W 9461   9.739   5.601  11.682
 5718W        W 9462  10.151   2.102   3.250
 5719W        W 9463  10.468   2.734   2.591
 5720W        W 9464   6.433   6.051  10.866
 5721W        W 9465   7.324   9.618   8.450
 5722W        W 9466   8.597   4.514   0.790
 5723W        W 9467   4.208   3.121   0.899
 5724W        W 9468   4.369   9.488   2.842
 5725W        W 9469   6.153   8.571   3.388
 5726W        W 9470   7.416  10.476   8.884
 5727W        W 9471   9.390   7.941   0.978
 5728W        W 9472   4.754   4.531   9.068
 5729W        W 9473   2.870   6.685  10.306
 5730W        W 9474   3.552   2.391   0.491
 5731W        W 9475   1.412   8.648   0.133
 5732W        W 9476  10.037   6.477   0.126
 5733W        W 9477   6.212  10.019  10.867
 5734W        W 9478   1.723   8.341   3.596
 5735W        W 9479   4.583   9.070   1.349
 5736W        W 9480   9.035   9.103   0.439
 5737W        W 9481   7.391   3.248   1.359
 5738W        W 9482   5.946   2.602   9.397
 5739W        W 9483   3.662   6.240   8.918
 5740W        W 9484   8.025   2.865   9.734
 5741W        W 9485   0.243   3.036  11.418
 5742W        W 9486   2.103   3.437  10.149
 5743W        W 9487   0.879   2.366  11.442
 5744W        W 9488   1.818   3.374   1.032
 5745W        W 9489   1.743   4.153   1.122
 5746W        W 9490   9.720   4.270   2.141
 5747W        W 9491   1.004   0.399   3.184
 5748W        W 9492   2.720   5.895   8.558
 5749W        W 9493   6.156   1.734   8.781
 5750W        W 9494   9.460   5.483   8.851
 5751W        W 9495   4.079   0.918   2.384
 5752W        W 9496   2.367   4.245   2.378
 5753W        W 9497   8.896   9.968   9.557
 5754W        W 9498   8.711   2.367  11.075
 5755W        W 9499   6.010   3.855   9.253
 5756W        W 9500   1.629   0.750   3.189
 5757W        W 9501   1.434   4.621   2.187
 5758W        W 9502   2.260   2.330  10.645
 5759W        W 9503   6.153   9.370  10.017
 5760W        W 9504   8.974   8.865   2.266
 5761W        W 9505   9.397   7.296  11.493
 5762W        W 9506   1.157   7.931   9.976
 5763W        W 9507   9.278   5.058   0.745
 5764W        W 9508   3.712   3.645   0.919
 5765W        W 9509   9.914   9.524   2.137
 5766W        W 9510   9.614   4.816   3.803
 5767W        W 9511   6.916   6.570   3.753
 5768W        W 9512   9.497   4.812   2.796
 5769W        W 9513   3.347   3.212   9.589
 5770W        W 9514   7.434   2.315   3.080
 5771W        W 9515   4.087   8.233  11.772
 5772W        W 9516   9.002   7.472   8.848
 5773W        W 9517   2.519   0.718  10.090
 5774W        W 9518   9.441   9.063   2.836
 5775W        W 9519   0.235   9.577   2.810
 5776W        W 9520   8.312   6.230   9.993
 5777W        W 9521  10.019   4.538   8.956
 5778W        W 9522   8.398   6.994   1.883
 5779W        W 9523  10.280   4.074   1.869
 5780W        W 9524   1.789   0.766   2.705
 5781W        W 9525   1.039   9.993   1.001
 5782W        W 9526   5.808   0.310   9.727
 5783W        W 9527   3.697   2.256   2.682
 5784W        W 9528   2.365   6.244   1.314
 5785W        W 9529   2.322   3.009   9.358
 5786W        W 9530   9.732   7.656  10.641
 5787W        W 9531   4.623   1.358   1.575
 5788W        W 9532   2.409   9.370  10.748
 5789W        W 9533   9.368   5.878   2.750
 5790W        W 9534   9.447   0.284   1.523
 5791W        W 9535   5.923   6.886   0.753
 5792W        W 9536   7.584   4.586   8.635
 5793W        W 9537   3.111   7.056   9.981
 5794W        W 9538   1.851   9.402   1.984
 5795W        W 9539   5.581   9.916   2.200
 5796W        W 9540   9.106   7.211   0.191
 5797W        W 9541   5.115   5.578   2.667
 5798W        W 9542   6.519   0.251  10.474
 5799W        W 9543   2.274   4.964  10.316
 5800W        W 9544   8.519   8.399   0.710
 5801W        W 9545   9.854   2.654   0.392
 5802W        W 9546   9.564   0.777   1.381
 5803W        W 9547   8.346   0.486  11.792
 5804W        W 9548   7.539   0.586  10.448
 5805W        W 9549   8.126   7.957   9.328
 5806W        W 9550   2.251   0.192  10.910
 5807W        W 9551   2.321   1.581   2.181
 5808W        W 9552   1.843   9.589   3.490
 5809W        W 9553   1.161   9.076  10.685
 5810W        W 9554   6.494   7.792  10.315
 5811W        W 9555   3.619   5.118   0.219
 5812W        W 9556   8.040   6.940  10.843
 5813W        W 9557   6.511   3.229   9.126
 5814W        W 9558   9.078   4.149   8.655
 5815W        W 9559   4.188   5.728   2.331
 5816W        W 9560   0.707   7.534   3.103
 5817W        W 9561   0.688   2.132   0.452
 5818W        W 9562   7.582   1.851   1.142
 5819W        W 9563   3.269   4.209   3.564
 5820W        W 9564   5.937   7.994   8.351
 5821W        W 9565   9.605   5.057  10.050
 5822W        W 9566   8.655   5.834   3.568
 5823W        W 9567   4.892   9.516   9.957
 5824W        W 9568   9.754   3.356  10.212
 5825W        W 9569   4.468   1.839   1.379
 5826W        W 9570   4.288   0.675  11.324
 5827W        W 9571   4.130   7.734  11.825
 5828W        W 9572   2.566   1.704   9.443
 5829W        W 9573   8.102   4.645   9.431
 5830W        W 9574   0.499   5.556   2.444
 5831W        W 9575   6.424   7.439  11.704
 5832W        W 9576   3.300   9.478   3.165
 5833W        W 9577   0.857   8.317   9.060
 5834W        W 9578   8.483   9.893   1.018
 5835W        W 9579   9.070   5.023  11.836
 5836W        W 9580   8.134   4.248   9.103
 5837W        W 9581   3.478   8.427  10.030
 5838W        W 9582   9.447   5.842   9.545
 5839W        W 9583   9.620   9.379   1.436
 5840W        W 9584   6.040   3.012   2.834
 5841W        W 9585   5.757   7.831  11.765
 5842W        W 9586   1.447   3.241  11.339
 5843W        W 9587   9.136   6.630   2.138
 5844W        W 9588   5.222   1.897   0.262
 5845W        W 9589   0.734   4.240   2.744
 5846W        W 9590  10.167   9.074  10.939
 5847W        W 9591   0.388   0.316   9.567
 5848W        W 9592   3.197   7.141   2.635
 5849W        W 9593   7.850   6.927   1.904
 5850W        W 9594   9.068   0.309   3.231
 5851W        W 9595   8.939   3.672   2.494
 5852W        W 9596   4.112   0.939   9.470
 5853W        W 9597   4.477   7.192  10.510
 5854W        W 9598   3.343   3.608  11.897
 5855W        W 9599   2.729   9.940   2.725
 5856W        W 9600   3.627   9.860   3.190
 5857W        W 9601   6.458   9.527   8.889
 5858W        W 9602   3.149   9.770   0.283
 5859W        W 9603   0.161   8.061   1.756
 5860W        W 9604   4.386   5.713   2.797
 5861W        W 9605   6.240   1.463   3.646
 5862W        W 9606   1.850   7.768  10.414
 5863W        W 9607   9.360   2.514   9.427
 5864W        W 9608   7.931   7.784   8.564
 5865W        W 9609   2.672   6.414   4.089
 5866W        W 9610   5.476   5.511   2.263
 5867W        W 9611   6.057  10.182   3.660
 5868W        W 9612   3.185   9.389   2.161
 5869W        W 9613   0.249   5.438  11.818
 5870W        W 9614  10.423   2.663   3.512
 5871W        W 9615   5.413  10.385   2.417
 5872W        W 9616   1.024   0.883   2.229
 5873W        W 9617   0.822   3.575   9.866
 5874W        W 9618   8.333   1.391   2.192
 5875W        W 9619   3.784   4.126   3.251
 5876W        W 9620   8.767  10.367   1.431
 5877W        W 9621   4.081   6.227   2.404
 5878W        W 9622   7.514   3.128   8.672
 5879W        W 9623   4.127   4.123   8.662
 5880W        W 9624   6.937   8.952  10.971
 5881W        W 9625   5.462   2.666   9.639
 5882W        W 9626   3.204   9.326   9.537
 5883W        W 9627   8.909   7.929  11.144
 5884W        W 9628   6.463   5.158   9.862
 5885W        W 9629   1.207  10.027   2.354
 5886W        W 9630   1.182   6.683   9.358
 5887W        W 9631   6.470   7.527   9.527
 5888W        W 9632   8.556   3.038   0.898
 5889W        W 9633   7.394   4.998  10.731
 5890W        W 9634  10.247   2.256   3.748
 5891W        W 9635   3.061   7.122   3.152
 5892W        W 9636   7.137   4.712   2.905
 5893W        W 9637  10.296   6.552   0.553
 5894W        W 9638   0.325   8.472   0.871
 5895W        W 9639   2.062   8.708   3.687
 5896W        W 9640   6.999   7.505   2.878
 5897W        W 9641   6.076  10.053   2.051
 5898W        W 9642   1.655   8.999  11.842
 5899W        W 9643   4.822   6.971  10.831
 5900W        W 9644   0.564   3.133  10.000
 5901W        W 9645   0.253   8.548   1.870
 5902W        W 9646   5.137   3.674  11.657
 5903W        W 9647   5.657   2.826  11.880
 5904W        W 9648   2.268   6.018  11.267
 5905W        W 9649   4.711   5.549  10.720
 5906W        W 9650   4.274   3.358   0.194
 5907W        W 9651   5.467   9.585   9.322
 5908W        W 9652   3.877   5.259   1.733
 5909W        W 9653   4.180   7.470   3.569
 5910W        W 9654   4.129   7.895   9.196
 5911W        W 9655   0.833   1.883  11.634
 5912W        W 9656   5.543   2.900  10.114
 5913W        W 9657   3.478   2.189  11.875
 5914W        W 9658   9.100   7.159   9.875
 5915W        W 9659   3.845   7.111   9.383
 5916W        W 9660   6.708   8.018   1.524
 5917W        W 9661   6.172   9.358   0.829
 5918W        W 9662   0.992   7.452   0.408
 5919W        W 9663   8.605   8.677   0.289
 5920W        W 9664   2.674  10.419   0.099
 5921W        W 9665   8.804   3.293  10.560
 5922W        W 9666   1.265   7.745  11.801
 5923W        W 9667   7.380   5.612   2.619
 5924W        W 9668   8.371  10.228   9.794
 5925W        W 9669   6.699  10.482   2.992
 5926W        W 9670   5.579   9.118   9.160
 5927W        W 9671   3.982   0.609   3.401
 5928W        W 9672   2.079   1.119  11.306
 5929W        W 9673   3.923  10.241   0.818
 5930W        W 9674   6.797   7.909   9.391
 5931W        W 9675   8.825   5.035  11.390
 5932W        W 9676   6.110   0.871   2.262
 5933W        W 9677  10.458   3.725   2.673
 5934W        W 9678  10.018   0.942   2.206
 5935W        W 9679   9.348   1.697   8.624
 5936W        W 9680   2.754   4.088   8.962
 5937W        W 9681   2.801   5.090   0.495
 5938W        W 9682   0.842   3.153  10.430
 5939W        W 9683   8.937   6.430  10.727
 5940W        W 9684   4.757   8.982   3.379
 5941W        W 9685   0.844   2.306  10.514
 5942W        W 9686   0.866   9.725   2.968
 5943W        W 9687   7.552  10.464  10.883
 5944W        W 9688   2.572   0.801   1.010
 5945W        W 9689   0.890   8.921   2.959
 5946W        W 9690   1.743   7.390   3.090
 5947W        W 9691  10.381   0.427   9.458
 5948W        W 9692   2.833   0.338  10.302
 5949W        W 9693   8.971   9.769   2.602
 5950W        W 9694   6.139   8.462   9.033
 5951W        W 9695   5.574   5.368  11.372
 5952W        W 9696   2.256   2.386   8.716
 5953W        W 9697   0.427  10.483   9.975
 5954W        W 9698   2.830   3.162   9.426
 5955W        W 9699   5.051   1.820  11.260
 5956W        W 9700   5.757   5.544  11.819
 5957W        W 9701   2.240   0.246   2.301
 5958W        W 9702   7.506   6.571   2.962
 5959W        W 9703   5.206   9.216  10.219
 5960W        W 9704   5.565   5.591   9.452
 5961W        W 9705   6.986   8.428  11.448
 5962W        W 9706   7.066   1.647   8.968
 5963W        W 9707   5.613   1.243   9.746
 5964W        W 9708   2.342   6.910  11.981
 5965W        W 9709   7.526   9.409  11.926
 5966W        W 9710   0.869   3.678   3.331
 5967W        W 9711   4.028   3.572  10.018
 5968W        W 9712   3.668   5.155  10.238
 5969W        W 9713   8.868   9.459   0.818
 5970W        W 9714   4.985   8.091   9.300
 5971W        W 9715   0.917   5.575  10.711
 5972W        W 9716   1.880   6.544  10.752
 5973W        W 9717   9.779   7.664   1.296
 5974W        W 9718   6.613   7.235   9.133
 5975W        W 9719   2.662   5.145  11.991
 5976W        W 9720   7.546   7.479   8.420
 5977W        W 9721   3.558   0.002   0.226
 5978W        W 9722  10.268   8.661  11.837
 5979W        W 9723   4.249   7.211   0.990
 5980W        W 9724   0.959   3.328  11.275
 5981W        W 9725   2.141   4.939   1.301
 5982W        W 9726   4.291   8.827   8.910
 5983W        W 9727   9.545   2.193  11.287
 5984W        W 9728   1.819   5.981   2.045
 5985W        W 9729   5.626  10.018   9.100
 5986W        W 9730   0.212   8.280  10.409
 5987W        W 9731   0.775   7.388  11.528
 5988W        W 9732   9.242   2.262   2.262
 5989W        W 9733   8.578   1.953  10.149
 5990W        W 9734   7.917   1.408   1.484
 5991W        W 9735   3.382   4.734   2.717
 5992W        W 9736   7.871   7.083  11.891
 5993W        W 9737   8.620   3.880   0.570
 5994W        W 9738   5.556   5.859   1.568
 5995W        W 9739   0.460   6.663   0.843
 5996W        W 9740   6.083   4.786   9.835
 5997W        W 9741   6.408   7.009   9.571
 5998W        W 9742   8.830   3.671   9.588
 5999W        W 9743   7.123   3.632   1.575
 6000W        W 9744   2.492   0.698   2.396
 6001W        W 9745   9.838   8.728   2.537
 6002W        W 9746   8.739   8.382  10.358
 6003W        W 9747   4.087   5.575   0.056
 6004W        W 9748   1.395   0.877   9.008
 6005W        W 9749   8.340   3.289   2.411
 6006W        W 9750   2.852   2.604   2.696
 6007W        W 9751   4.706   8.487   3.558
 6008W        W 9752   4.776   2.119  10.050
 6009W        W 9753   9.946   7.463   0.391
 6010W        W 9754   7.508  10.035   3.386
 6011W        W 9755   0.627  10.436   1.248
 6012W        W 9756   3.954   4.764   9.370
 6013W        W 9757   0.729   5.419   1.308
 6014W        W 9758   0.324   3.851   0.356
 6015W        W 9759   6.600   1.007   0.819
 6016W        W 9760   9.519   9.415  11.545
 6017W        W 9761   7.451   9.092  10.885
 6018W        W 9762   3.340   6.073   0.245
 6019W        W 9763   8.945   1.254   9.782
 6020W        W 9764   3.239   0.179  10.888
 6021W        W 9765   4.691   4.985   1.621
 6022W        W 9766   0.450   5.738   0.997
 6023W        W 9767   4.936   8.894  11.041
 6024W        W 9768   9.972   6.900   9.884
 6025W        W 9769   8.588   7.786  11.981
 6026W        W 9770   5.818   4.337   9.991
 6027W        W 9771   8.111   4.272  10.917
 6028W        W 9772   0.363   8.970   3.479
 6029W        W 9773  10.244   2.266  10.134
 6030W        W 9774   0.914   9.041   0.475
 6031W        W 9775   8.399   8.971   1.492
 6032W        W 9776   3.935   4.520   1.036
 6033W        W 9777   1.151   1.794   3.519
 6034W        W 9778  10.238   3.688   0.496
 6035W        W 9779   6.829   0.811   1.217
 6036W        W 9780   3.016   1.700   0.817
 6037W        W 9781   4.304   8.715   3.320
 6038W        W 9782   3.080   9.216  10.042
 6039W        W 9783   0.041   5.469   8.496
 6040W        W 9784   1.559   3.375  11.841
 6041W        W 9785   7.606   1.315   9.003
 6042W        W 9786   5.222   3.585  10.723
 6043W        W 9787   4.820   3.709  11.011
 6044W        W 9788   1.034   5.860   1.246
 6045W        W 9789   1.878   1.811   3.706
 6046W        W 9790   7.880   5.609   2.661
 6047W        W 9791   1.350   6.005  11.357
 6048W        W 9792   0.564   3.913   3.661
 6049W        W 9793   0.970   3.335   0.717
 6050W        W 9794   5.256   8.426   0.971
 6051W        W 9795   4.410   1.152  11.475
 6052W        W 9796   3.102   3.984   0.778
 6053W        W 9797   2.791   8.945   1.650
 6054W        W 9798   0.320   1.087   0.984
 6055W        W 9799   7.654   6.831   9.992
 6056W        W 9800   6.920   3.781   8.539
 6057W        W 9801   8.334   7.556   3.225
 6058W        W 9802   5.710   9.219   2.627
 6059W        W 9803   1.107   0.029   0.994
 6060W        W 9804   0.035   1.129   1.421
 6061W        W 9805   0.685   5.235  10.379
 6062W        W 9806   6.211   5.600  10.843
 6063W        W 9807   3.169   9.173  10.899
 6064W        W 9808   9.155   6.916  11.232
 6065W        W 9809   9.824  10.454   2.271
 6066W        W 9810   3.195   7.098   8.566
 6067W        W 9811   4.976   6.621   9.439
 6068W        W 9812  10.140   4.109   2.372
 6069W        W 9813   0.085   3.672   1.673
 6070W        W 9814   7.868   7.357   3.211
 6071W        W 9815   1.330   6.620   3.247
 6072W        W 9816   0.876   4.453   0.701
 6073W        W 9817   7.880   2.104   3.336
 6074W        W 9818   7.777   8.032   8.968
 6075W        W 9819   3.623   8.064   1.197
 6076W        W 9820   7.654   5.243   2.354
 6077W        W 9821   6.103   2.315   3.232
 6078W        W 9822   2.444   2.446  10.182
 6079W        W 9823   8.587   7.319   9.946
 6080W        W 9824   4.530   8.048   9.491
 6081W        W 9825   3.638   4.062  11.974
 6082W        W 9826   2.610   2.775  11.117
 6083W        W 9827   3.382   4.143   9.839
 6084W        W 9828   0.401   8.124  11.267
 6085W        W 9829   6.623   4.329   1.442
 6086W        W 9830   3.072   6.797   1.575
 6087W        W 9831   1.205   9.893  10.057
 6088W        W 9832   0.752   1.418   8.539
 6089W        W 9833   1.495  10.230   0.858
 6090W        W 9834   8.924   4.843   1.048
 6091W        W 9835   5.306   4.292   9.859
 6092W        W 9836   4.597   2.268   0.580
 6093W        W 9837   3.321   6.647   3.474
 6094W        W 9838   8.932   2.230   9.605
 6095W        W 9839  10.175   1.724  10.968
 6096W        W 9840   0.950   7.481   3.537
 6097W        W 9841   8.367   4.207  10.475
 6098W        W 9842   0.403   9.992   9.111
 6099W        W 9843   6.202   7.656  10.823
 6100W        W 9844   0.279   7.551   9.086
 6101W        W 9845   6.244   7.825   2.862
 6102W        W 9846   8.854   1.796   0.155
 6103W        W 9847   2.599   5.072   1.002
 6104W        W 9848   8.848   6.251   2.342
 6105W        W 9849   2.675   7.174  11.152
 6106W        W 9850   4.501   0.667   1.432
 6107W        W 9851   1.927   4.651  10.699
 6108W        W 9852   0.777   5.037   3.256
 6109W        W 9853   9.381   4.043   3.418
 6110W        W 9854   0.915   5.654   0.785
 6111W        W 9855   8.608   2.757   2.714
 6112W        W 9856   1.677   6.469   1.978
 6113W        W 9857   3.751   6.596   0.368
 6114W        W 9858   8.896   4.254   3.329
 6115W        W 9859   2.389   3.387   1.318
 6116W        W 9860   7.595   9.603   3.062
 6117W        W 9861   9.689   9.570   3.508
 6118W        W 9862   6.603  10.009   9.739
 6119W        W 9863   3.130   4.097  11.824
 6120W        W 9864   8.888   0.988   1.738
 6121W        W 9865   7.843  10.327   2.272
 6122W        W 9866   6.192   0.251   2.965
 6123W        W 9867   5.966   3.135   3.696
 6124W        W 9868   9.931   0.816   0.486
 6125W        W 9869   3.293   8.834   9.774
 6126W        W 9870   7.583   9.951   2.036
 6127W        W 9871   8.807   2.193   0.982
 6128W        W 9872   0.460   8.500   9.979
 6129W        W 9873   3.250   3.595  11.393
 6130W        W 9874   1.417   4.660  10.636
 6131W        W 9875   3.848   1.833   1.259
 6132W        W 9876   5.897   3.653   3.789
 6133W        W 9877   1.328   5.069   0.228
 6134W        W 9878   1.320   3.290   9.089
 6135W        W 9879   7.605   7.501   0.781
 6136W        W 9880   3.818   4.433   2.253
 6137W        W 9881   6.190   7.695   3.478
 6138W        W 9882   6.579   9.470   0.163
 6139W        W 9883   8.097   0.701  10.226
 6140W        W 9884   4.167   7.661  11.094
 6141W        W 9885   6.684   0.733   1.704
 6142W        W 9886   7.708   8.661   0.097
 6143W        W 9887   7.436   8.443   9.051
 6144W        W 9888   8.448   2.802   3.221
 6145W        W 9889   9.305   5.716  11.149
 6146W        W 9890   3.744   4.361   9.061
 6147W        W 9891   3.331   8.497   2.285
 6148W        W 9892   1.809   8.956   1.729
 6149W        W 9893   9.807   8.975   8.920
 6150W        W 9894   5.614   0.604   0.827
 6151W        W 9895   3.711   8.363   0.771
 6152W        W 9896   8.473   2.378   9.774
 6153W        W 9897   2.331   9.800  11.031
 6154W        W 9898   8.601   1.186  11.410
 6155W        W 9899   4.011   0.756   2.884
 6156W        W 9900   6.921   7.468   0.211
 6157W        W 9901   6.526   8.311  11.866
 6158W        W 9902   4.110   4.159   2.841
 6159W        W 9903   3.315   4.571   2.166
 6160W        W 9904   7.346  10.279   2.398
 6161W        W 9905   6.037   6.682   0.272
 6162W        W 9906   3.377   4.487   9.389
 6163W        W 9907   6.594   1.794   9.156
 6164W        W 9908   5.774   5.958   0.730
 6165W        W 9909   0.237   3.387   2.959
 6166W        W 9910   9.979   1.743   0.972
 6167W        W 9911   8.342   1.398   3.177
 6168W        W 9912   6.685   0.733  10.328
 6169W        W 9913   8.891   9.442   3.467
 6170W        W 9914   4.902   2.694   3.148
 6171W        W 9915   0.506   9.564   0.201
 6172W        W 9916   4.823   2.803   1.435
 6173W        W 9917   7.534   3.738   3.372
 6174W        W 9918   6.084   0.712  11.783
 6175W        W 9919   5.950   9.379   2.203
 6176W        W 9920   8.764   2.259  10.580
 6177W        W 9921   7.618   4.097  10.890
 6178W        W 9922   9.045   8.446  11.340
 6179W        W 9923   7.437   6.156   2.248
 6180W        W 9924   2.552   7.477   1.455
 6181W        W 9925   5.263   6.472   0.673
 6182W        W 9926   1.610   9.877  11.534
 6183W        W 9927   0.881   7.541   9.790
 6184W        W 9928  10.017   5.346   0.032
 6185W        W 9929  10.310   2.327   0.042
 6186W        W 9930   6.853   6.143  10.101
 6187W        W 9931   2.463  10.377   0.740
 6188W        W 9932   3.354   2.816  10.423
 6189W        W 9933   0.344   0.305   1.482
 6190W        W 9934   5.251   6.249  11.527
 6191W        W 9935   1.782   1.652   2.762
 6192W        W 9936   3.323   7.847   9.502
 6193W        W 9937   5.332   6.047   0.352
 6194W        W 9938   1.092   3.155   9.967
 6195W        W 9939   7.343  10.182   0.183
 6196W        W 9940   7.451   0.753   2.496
 6197W        W 9941   3.663  10.428  11.727
 6198W        W 9942   0.421   6.128  10.320
 6199W        W 9943   2.750   0.784  10.546
 6200W        W 9944   4.047   5.065  11.951
 6201W        W 9945   1.217   9.644   3.824
 6202W        W 9946  10.077   8.978   1.405
 6203W        W 9947   5.775   1.567   1.009
 6204W        W 9948   1.504   5.996   0.292
 6205W        W 9949   9.560   8.124  10.268
 6206W        W 9950   4.713   4.118   3.655
 6207W        W 9951   7.293   2.804   9.960
 6208W        W 9952   5.738   7.327  10.873
 6209W        W 9953   1.173   6.129   0.708
 6210W        W 9954   2.747   5.542   3.554
 6211W        W 9955  10.252   4.248   3.380
 6212W        W 9956   2.345   5.234   9.867
 6213W        W 9957   6.763   0.310  10.027
 6214W        W 9958   5.152   3.863  10.276
 6215W        W 9959   3.771   3.739   2.895
 6216W        W 9960   0.316   6.463   2.339
 6217W        W 9961   8.815   1.420   1.997
 6218W        W 9962  10.185   1.677   2.952
 6219W        W 9963   7.009   6.533   2.785
 6220W        W 9964   9.511   1.343   9.053
 6221W        W 9965   3.794   2.682   3.510
 6222W        W 9966   6.482   8.809  11.926
 6223W        W 9967   2.077   1.726   9.590
 6224W        W 9968   3.282   8.586   0.947
 6225W        W 9969  10.416   7.638   1.852
 6226W        W 9970   1.201   2.134   0.365
 6227W        W 9971   6.226   4.185   2.634
 6228W        W 9972   9.598   8.499  11.374
 6229W        W 9973   8.447   2.624  11.442
 6230W        W 9974   9.324   7.341  10.598
 6231W        W 9975   3.706   9.239   3.401
 6232W        W 9976   5.934   8.063   3.216
 6233W        W 9977   3.516   4.849   0.999
 6234W        W 9978   4.314   9.852   9.375
 6235W        W 9979   2.241   3.507   9.322
 6236W        W 9980   7.407   1.890   3.450
 6237W        W 9981   2.368   8.819   8.990
 6238W        W 9982   9.462   1.745  10.017
 6239W        W 9983   5.924   7.363  11.785
 6240W        W 9984   7.885  10.366  11.446
 6241W        W 9985   0.593   8.187   1.987
 6242W        W 9986  10.322   7.746   2.344
 6243W        W 9987   9.023   4.530   0.096
 6244W        W 9988   3.862   6.155   1.791
 6245W        W 9989   0.846   2.612   2.522
 6246W        W 9990  10.342   9.554  10.974
 6247W        W 9991   2.853   1.089   1.784
 6248W        W 9992   9.659   5.961   9.995
 6249W        W 9993   9.452   1.200  11.434
 6250W        W 9994   1.480   5.515   3.494
 6251W        W 9995   1.452   3.219   1.643
 6252W        W 9996   6.005   9.791   2.486
 6253W        W 9997   5.806   8.727   2.724
 6254W        W 9998   7.184   0.828   1.602
 6255W        W 9999   6.965   5.638   9.373
 6256W        W10000   7.606   1.553  10.536
 6257W        W10001   2.047   2.974   3.017
 6258W        W10002   8.890  10.194   2.263
 6259W        W10003   1.012   7.919  10.488
 6260W        W10004   0.413   6.660   9.851
 6261W        W10005   4.086   7.023  10.829
 6262W        W10006  10.011   0.878  11.462
 6263W        W10007   5.189   1.671   9.227
 6264W        W10008   5.053   6.080  10.065
 6265W        W10009   2.825   7.613  10.606
 6266W        W10010   3.433   7.583   8.464
 6267W        W10011   6.463   4.170   3.141
 6268W        W10012   5.899  10.316   2.444
 6269W        W10013  10.233   4.118   9.198
 6270W        W10014   9.797   5.187   2.982
 6271W        W10015   9.864   3.235   1.982
 6272W        W10016   1.784   9.438   9.469
 6273W        W10017   0.404   0.844  11.559
 6274W        W10018  10.271   3.241   2.462
 6275W        W10019   9.286   6.594   3.575
 6276W        W10020  10.486   4.737   9.077
 6277W        W10021   0.807   1.457   9.470
 6278W        W10022   8.074   7.897   1.301
 6279W        W10023   6.248   7.869   1.754
 6280W        W10024   9.242   0.753  10.952
 6281W        W10025   6.502   6.951  10.064
 6282W        W10026   7.030  10.308   3.340
 6283W        W10027   4.302   4.280   2.392
 6284W        W10028   0.906   0.811  10.754
 6285W        W10029   1.014   4.621   3.458
 6286W        W10030   8.456   7.706   2.318
 6287W        W10031   0.411   2.552   0.693
 6288W        W10032   8.559   7.485   1.870
 6289W        W10033   2.257   1.446   2.717
 6290W        W10034   9.554   1.941  10.494
 6291W        W10035   9.087   7.634  11.898
 6292W        W10036   9.382   8.412   1.263
 6293W        W10037   1.340   8.005   1.420
 6294W        W10038   4.422   8.993   2.921
 6295W        W10039   6.741   1.355  11.051
 6296W        W10040   0.411   3.757   2.049
 6297W        W10041   9.361   6.653   8.925
 6298W        W10042  10.440   2.269  11.560
 6299W        W10043   1.607   0.824  11.905
 6300W        W10044   5.214   3.332  10.299
 6301W        W10045   3.768   7.387  11.882
 6302W        W10046  10.474   3.588  10.430
 6303W        W10047   1.921   0.049   0.049
 6304W        W10048   7.439   1.665   0.268
 6305W        W10049   7.423   9.291   0.679
 6306W        W10050  10.500   9.576   9.081
 6307W        W10051   7.823   6.971   2.415
 6308W        W10052   2.647   1.652   3.178
 6309W        W10053   7.053   0.653   2.141
 6310W        W10054  10.215   4.662   9.524
 6311W        W10055   7.945   5.650  11.294
 6312W        W10056   5.708   0.756   1.979
 6313W        W10057  10.039   5.534   8.390
 6314W        W10058   1.730   1.196  10.350
 6315W        W10059   9.437   1.599  11.816
 6316W        W10060   8.161   4.545  11.677
 6317W        W10061   1.610   8.948  10.927
 6318W        W10062   7.366   4.318  10.480
 6319W        W10063  10.474   1.917   0.984
 6320W        W10064   2.361   9.194   9.443
 6321W        W10065   6.794   5.086  10.605
 6322W        W10066   7.426   3.616  10.946
 6323W        W10067   8.915   7.475  11.405
 6324W        W10068   7.885   5.078   9.573
 6325W        W10069   7.418   4.239   2.166
 6326W        W10070   1.929   8.425   0.842
 6327W        W10071   4.581   0.752   9.572
 6328W        W10072   9.962   1.774  11.955
 6329W        W10073   3.683   9.106   9.526
 6330W        W10074   2.199   9.937  10.114
 6331W        W10075   4.830   1.772   2.448
 6332W        W10076   9.058   3.706   0.760
 6333W        W10077   0.409   3.160   1.952
 6334W        W10078  10.461   5.070   0.078
 6335W        W10079   8.870   6.487  11.246
 6336W        W10080   8.862   8.488   8.875
 6337W        W10081   1.439   6.997   2.331
 6338W        W10082   2.634   7.353   8.171
 6339W        W10083   0.289   7.628  11.384
 6340W        W10084   2.222  10.219   0.292
 6341W        W10085   4.066   1.807   1.717
 6342W        W10086   5.658   2.159   2.406
 6343W        W10087   7.569   7.504   9.427
 6344W        W10088   5.100   2.105   8.986
 6345W        W10089   9.038   6.193  11.980
 6346W        W10090   5.322   6.768   3.596
 6347W        W10091   9.328   3.873   9.614
 6348W        W10092   5.358   4.750  10.618
 6349W        W10093   2.183   9.806   1.924
 6350W        W10094   3.462   6.636   1.844
 6351W        W10095   6.645   3.267   9.616
 6352W        W10096   6.056   0.745   9.121
 6353W        W10097   1.626   1.747   3.248
 6354W        W10098   4.342  10.444   8.640
 6355W        W10099   4.597   7.603  11.978
 6356W        W10100   2.267   6.489  11.096
 6357W        W10101   1.010  10.442  11.053
 6358W        W10102   2.194   2.042  11.634
 6359W        W10103   2.385   3.339   1.867
 6360W        W10104   6.498   2.114   3.481
 6361W        W10105   5.116   6.916   1.822
 6362W        W10106   5.437   2.541   0.840
 6363W        W10107   1.867   6.719   8.867
 6364W        W10108   5.575   9.763   0.449
 6365W        W10109   1.835   2.300   1.875
 6366W        W10110   6.493   4.043  11.362
 6367W        W10111   5.068  10.374  10.276
 6368W        W10112   7.997   4.581   3.462
 6369W        W10113   8.548   3.192   8.720
 6370W        W10114   1.322  10.419   8.748
 6371W        W10115  10.388  10.024   9.562
 6372W        W10116   0.841   0.711   2.741
 6373W        W10117   5.976   9.056   1.224
 6374W        W10118   4.312   0.444   0.207
 6375W        W10119   1.062   4.721  10.994
 6376W        W10120   7.563   6.384  10.883
 6377W        W10121   0.438   5.656  10.512
 6378W        W10122   7.690   5.758   3.122
 6379W        W10123   3.996   9.601   2.448
 6380W        W10124   1.797   5.081   0.417
 6381W        W10125   1.695   7.590   9.277
 6382W        W10126   6.173   2.789   1.676
 6383W        W10127   3.194  10.185  10.021
 6384W        W10128   6.639   8.871  10.545
 6385W        W10129   8.850  10.350   3.275
 6386W        W10130   6.272   7.061   2.318
 6387W        W10131   1.421   2.227   3.283
 6388W        W10132   8.772  10.010  10.037
 6389W        W10133   1.575   1.196   0.387
 6390W        W10134   3.639   8.966   0.064
 6391W        W10135   5.934   7.164   8.695
 6392W        W10136   8.318   4.168  11.368
 6393W        W10137   7.554   6.916  10.937
 6394W        W10138   0.008   8.420   9.599
 6395W        W10139   8.267   0.940   2.431
 6396W        W10140   9.773   7.603  11.388
 6397W        W10141  10.255   2.253   9.535
 6398W        W10142   3.969   0.953   8.462
 6399W        W10143   6.567   0.417  11.045
 6400W        W10144   7.556   1.821   8.955
 6401W        W10145   8.454   1.782   9.134
 6402W        W10146   2.686   6.113  11.535
 6403W        W10147   0.884   6.995   3.099
 6404W        W10148  10.242   5.375   2.804
 6405W        W10149   3.612   0.959   9.605
 6406W        W10150   9.884   4.954   1.675
 6407W        W10151   8.145   7.062   9.981
 6408W        W10152   7.325   8.771  11.268
 6409W        W10153   1.891  10.009  11.953
 6410W        W10154   7.990   7.546   8.112
 6411W        W10155   4.617   8.486  10.839
 6412W        W10156   3.045   8.530   1.851
 6413W        W10157   9.803   6.503   2.675
 6414W        W10158   0.814   3.774  10.351
 6415W        W10159   1.383   6.751   1.251
 6416W        W10160   5.222   1.380   0.498
 6417W        W10161  10.415   4.160   0.294
 6418W        W10162   0.716   1.690  11.169
 6419W        W10163   3.662   4.630  10.268
 6420W        W10164   4.401   2.367   9.829
 6421W        W10165   3.945   2.332   3.121
 6422W        W10166   1.157   6.675  10.279
 6423W        W10167   8.867   7.956   8.846
 6424W        W10168   0.677   8.032   9.943
 6425W        W10169   8.474  10.031   9.266
 6426W        W10170   1.322   8.735   0.612
 6427W        W10171   5.537   2.859   8.672
 6428W        W10172   4.342   8.071   1.449
 6429W        W10173   8.289   3.226   2.933
 6430W        W10174  10.346   5.164   1.511
 6431W        W10175   3.553   1.838   1.710
 6432W        W10176   0.978   6.907  11.584
 6433W        W10177   8.348   2.170   0.801
 6434W        W10178   4.606   5.988  10.946
 6435W        W10179   8.310   8.890  11.352
 6436W        W10180   1.831   9.923   2.652
 6437W        W10181   7.185   1.371  10.796
 6438W        W10182   4.623   9.622   1.850
 6439W        W10183   7.637   0.039   2.759
 6440W        W10184   6.956   6.291   0.499
 6441W        W10185   2.979   6.437   0.232
 6442W        W10186   5.128   7.157   3.313
 6443W        W10187   4.255  10.320  10.942
 6444W        W10188   0.709  10.436   2.377
 6445W        W10189   5.345   8.803   2.911
 6446W        W10190   6.066   4.217   8.379
 6447W        W10191   3.369   0.531   9.073
 6448W        W10192   0.843   4.348   1.205
 6449W        W10193   1.682   1.349  11.873
 6450W        W10194   0.563   6.638  11.482
 6451W        W10195   0.483   2.430   9.497
 6452W        W10196   8.129  10.047  11.761
 6453W        W10197   5.132   2.851  10.426
 6454W        W10198  10.468   3.770  10.933
 6455W        W10199   8.055   1.910   1.333
 6456W        W10200   6.724   2.709  10.849
 6457W        W10201   2.307   8.076   0.939
 6458W        W10202   3.189   6.631  10.823
 6459W        W10203   1.877   8.987  11.372
 6460W        W10204   6.698   9.844  10.932
 6461W        W10205   4.244   2.015  11.582
 6462W        W10206   1.646   7.030   0.521
 6463W        W10207   8.970   3.137  11.534
 6464W        W10208   1.323   0.234   1.423
 6465W        W10209   4.669   3.560   3.952
 6466W        W10210   2.340   8.744  11.341
 6467W        W10211   2.791   2.347   1.937
 6468W        W10212   1.401   5.706   0.939
 6469W        W10213   9.128   4.158  10.019
 6470W        W10214   9.850   2.371   9.264
 6471W        W10215   0.557   2.731  10.519
 6472W        W10216   0.846   2.174   2.768
 6473W        W10217   0.960   5.711   2.254
 6474W        W10218   4.870   8.647   1.202
 6475W        W10219   7.559   0.485   1.792
 6476W        W10220   2.160   6.011   0.876
 6477W        W10221   9.296   6.840   9.395
 6478W        W10222   7.039   9.765   9.489
 6479W        W10223   3.253   5.780   1.408
 6480W        W10224   8.432   4.102   1.871
 6481W        W10225   2.289   0.937   9.161
 6482W        W10226   2.417   4.533  10.800
 6483W        W10227   1.796   9.508  11.867
 6484W        W10228   4.375   8.462   8.535
 6485W        W10229   6.033   2.521   2.729
 6486W        W10230   7.262   0.396  10.939
 6487W        W10231   0.165  10.242   1.436
 6488W        W10232   0.249  10.214   2.225
 6489W        W10233   1.319   4.764   0.670
 6490W        W10234   8.073   9.772   1.896
 6491W        W10235   8.869   3.009   1.956
 6492W        W10236   7.432   9.480   1.172
 6493W        W10237   6.272   9.612   9.542
 6494W        W10238   3.599   9.366   9.952
 6495W        W10239   1.670   2.460   1.386
 6496W        W10240   7.380   7.067   9.635
 6497W        W10241   4.235   7.465   9.461
 6498W        W10242   1.898   7.240   2.380
 6499W        W10243   6.465   7.411   0.923
 6500W        W10244   1.375   9.318   8.731
 6501W        W10245   4.610   4.135   1.709
 6502W        W10246   6.651   9.509   9.871
 6503W        W10247   0.522   5.567   3.312
 6504W        W10248   2.272  10.312  11.765
 6505W        W10249   6.044   1.400   1.442
 6506W        W10250   6.203   5.197   0.502
 6507W        W10251   5.290   6.095   8.227
 6508W        W10252   0.901   3.878  11.262
 6509W        W10253   3.055   7.543   1.410
 6510W        W10254   7.523   5.271  11.909
 6511W        W10255   5.732   1.304  11.263
 6512W        W10256   7.824   2.243   1.836
 6513W        W10257   4.510   7.698   3.217
 6514W        W10258   3.805   4.524  10.764
 6515W        W10259   9.535   5.653  10.622
 6516W        W10260   5.986   2.227   1.763
 6517W        W10261   2.130   7.451   9.015
 6518W        W10262   0.184   7.330   1.519
 6519W        W10263   2.005   6.035   0.349
 6520W        W10264   5.654   4.338  10.498
 6521W        W10265   2.242   8.175   3.078
 6522W        W10266   7.495   1.441   2.182
 6523W        W10267   2.388   3.265   8.885
 6524W        W10268   6.439   5.701   1.396
 6525W        W10269   5.079   9.971   0.421
 6526W        W10270   4.636   2.339   2.361
 6527W        W10271  10.047   9.544   0.698
 6528W        W10272   4.159   7.683   2.337
 6529W        W10273   8.946   6.679   9.725
 6530W        W10274   7.874   8.452  10.394
 6531W        W10275   8.134   3.657   1.930
 6532W        W10276   8.349   5.245  11.369
 6533W        W10277   3.290   2.300   1.807
 6534W        W10278   0.355   9.475  11.727
 6535W        W10279   5.968   3.301   0.426
 6536W        W10280   3.821   6.550   1.455
 6537W        W10281   5.596   7.545   2.375
 6538W        W10282   7.465   6.052   0.325
 6539W        W10283   6.571   9.847  10.273
 6540W        W10284   7.390   0.655   0.314
 6541W        W10285   0.836   7.333   1.743
 6542W        W10286   5.076   3.747   3.685
 6543W        W10287   1.006   9.495   0.836
 6544W        W10288   5.049   5.138   2.418
 6545W        W10289   5.158   6.543   3.145
 6546W        W10290   4.753   6.252  11.386
 6547W        W10291   9.200   7.523   3.871
 6548W        W10292  10.317   4.129  11.722
 6549W        W10293   3.587   2.704   8.999
 6550W        W10294   2.100   5.118   0.833
 6551W        W10295   6.622   0.423   3.470
 6552W        W10296   1.775   9.984   3.165
 6553W        W10297   6.696   1.716  11.451
 6554W        W10298   1.200   5.151  10.773
 6555W        W10299   9.972   0.770   2.671
 6556W        W10300   0.665   9.330   3.229
 6557W        W10301   6.101   9.148  10.493
 6558W        W10302   7.409   1.167   0.348
 6559W        W10303   9.903   2.678   1.317
 6560W        W10304   9.735   4.280   2.658
 6561W        W10305   9.066   6.530   1.646
 6562W        W10306   8.841   3.106   3.000
 6563W        W10307   3.709   2.281   9.244
 6564W        W10308   1.284   6.252   9.980
 6565W        W10309   0.332  10.061   2.723
 6566W        W10310   8.963   0.738   8.562
 6567W        W10311   8.502   3.188  11.383
 6568W        W10312  10.366   0.399  10.482
 6569W        W10313   5.085   5.100   2.931
 6570W        W10314   6.523   0.773   9.857
 6571W        W10315   9.411   9.011   9.232
 6572W        W10316   8.948   5.534  10.250
 6573W        W10317  10.486   7.157  11.723
 6574W        W10318   3.847   1.903   2.185
 6575W        W10319   4.420   8.218   3.182
 6576W        W10320   7.946   8.384   1.202
 6577W        W10321   5.571   2.722   2.941
 6578W        W10322   5.180   4.017  11.256
 6579W        W10323   7.977   7.889   0.352
 6580W        W10324   7.174   9.682  11.022
 6581W        W10325   7.615   4.946   2.766
 6582W        W10326   5.690  10.410   9.426
 6583W        W10327   0.048   7.660   1.094
 6584W        W10328   6.193   1.569  11.471
 6585W        W10329   0.492   9.279   9.653
 6586W        W10330   0.462  10.409   1.802
 6587W        W10331   5.642   2.300   3.447
 6588W        W10332   8.347   4.930   3.423
 6589W        W10333   0.826   4.854   0.996
 6590W        W10334   4.622   1.313   3.119
 6591W        W10335   5.585   0.865   8.964
 6592W        W10336   5.122   7.565   4.029
 6593W        W10337   6.134   1.917   2.323
 6594W        W10338   2.166   2.422   2.860
 6595W        W10339   5.278   1.890   3.386
 6596W        W10340   8.675   6.930   0.195
 6597W        W10341   9.425   0.448   2.757
 6598W        W10342   9.397   3.090  11.783
 6599W        W10343   0.879   4.148   8.455
 6600W        W10344   4.794   5.607   0.792
 6601W        W10345   2.433   8.205   9.513
 6602W        W10346   5.005   5.627   2.159
 6603W        W10347  10.026   7.902  11.708
 6604W        W10348  10.237   8.661   8.726
 6605W        W10349   6.682   8.075   0.994
 6606W        W10350   1.292   9.441   9.746
 6607W        W10351   0.658   4.318  10.346
 6608W        W10352   5.654   3.084   4.107
 6609W        W10353   1.485   6.308  10.466
 6610W        W10354   8.205   4.167   8.180
 6611W        W10355   6.915   4.801  11.372
 6612W        W10356   0.069   8.837   1.203
 6613W        W10357   7.668   4.112   8.850
 6614W        W10358   9.023   5.259   1.467
 6615W        W10359   0.905   9.303   8.935
 6616W        W10360   6.915   8.868   2.338
 6617W        W10361   3.077   3.709   8.783
 6618W        W10362   4.128   2.635  10.146
 6619W        W10363   4.342   1.908   2.340
 6620W        W10364   0.285   9.087   2.956
 6621W        W10365   1.836   4.113  11.235
 6622W        W10366   9.292   7.043   0.952
 6623W        W10367   6.104   0.404   1.970
 6624W        W10368   7.469   3.774   1.204
 6625W        W10369   0.774   8.111   1.533
 6626W        W10370   5.597   3.839  10.503
 6627W        W10371  10.274   8.703   9.238
 6628W        W10372   8.087  10.288   2.706
 6629W        W10373   2.306   5.279   9.104
 6630W        W10374   8.551   6.114  11.827
 6631W        W10375   4.784   7.921   1.843
 6632W        W10376   2.381   4.998   8.632
 6633W        W10377   0.324   2.131  10.305
 6634W        W10378   6.424   6.509   9.387
 6635W        W10379   6.108  10.195  10.396
 6636W        W10380   8.908   0.364   9.651
 6637W        W10381   1.866   7.889   3.278
 6638W        W10382   2.615   6.061   2.404
 6639W        W10383   5.214   2.892   1.122
 6640W        W10384   2.804   1.506  11.199
 6641W        W10385   3.485   1.033  10.956
 6642W        W10386   5.523   3.827   3.459
 6643W        W10387  10.073   3.405  11.792
 6644W        W10388   3.083   8.988   1.240
 6645W        W10389   1.684   8.059  10.997
 6646W        W10390   8.757   6.008  10.445
 6647W        W10391   7.949   5.868   9.963
 6648W        W10392   3.523   1.924  11.036
 6649W        W10393   5.279   9.043   3.404
 6650W        W10394   9.340   9.878  11.647
 6651W        W10395   4.980   9.687   9.482
 6652W        W10396   3.385   5.948  11.351
 6653W        W10397   8.494   0.990  10.019
 6654W        W10398   5.254   2.635  10.921
 6655W        W10399   7.973   9.871   1.339
 6656W        W10400   4.878   7.798   2.764
 6657W        W10401   1.423   1.334  10.788
 6658W        W10402   4.223   8.728   2.220
 6659W        W10403   6.516   2.745   0.397
 6660W        W10404   2.231   5.628  10.943
 6661W        W10405   5.988   5.156  10.642
 6662W        W10406   1.463   9.727   0.859
 6663W        W10407   7.388   2.832   3.221
 6664W        W10408   1.906   5.401   1.240
 6665W        W10409   4.604   9.460  11.435
 6666W        W10410  10.090   0.001  10.983
 6667W        W10411   7.417   0.326  11.831
 6668W        W10412   3.676   5.855  10.946
 6669W        W10413   0.768   0.817   1.776
 6670W        W10414   3.965   1.794   2.684
 6671W        W10415  10.068   3.652   9.396
 6672W        W10416   9.447   6.013  11.746
 6673W        W10417   4.007   0.092   0.435
 6674W        W10418   7.970   9.226   1.850
 6675W        W10419   7.486   3.559  11.477
 6676W        W10420   6.202   4.689   2.583
 6677W        W10421  10.215   7.462   1.415
 6678W        W10422   8.026   1.299  10.625
 6679W        W10423   6.706   3.899   2.789
 6680W        W10424   2.572   9.894  10.502
 6681W        W10425   9.420   2.043   9.605
 6682W        W10426   0.227   0.671   1.861
 6683W        W10427   8.921   6.074   1.858
 6684W        W10428   4.606   5.964   9.844
 6685W        W10429   7.047   6.040   2.610
 6686W        W10430   1.449   6.245   9.505
 6687W        W10431   2.809   1.859   2.163
 6688W        W10432   7.321   2.330  10.277
 6689W        W10433   3.341   6.320  10.440
 6690W        W10434   0.802   4.089  10.772
 6691W        W10435   9.661   5.901   9.069
 6692W        W10436   8.552   6.572   2.830
 6693W        W10437   2.134   0.472   1.811
 6694W        W10438   9.398  10.294   1.660
 6695W        W10439   9.812   8.154   1.208
 6696W        W10440   6.363   9.110   9.643
 6697W        W10441   3.219   8.811   8.740
 6698W        W10442   1.721   2.673   2.726
 6699W        W10443   9.337   8.504   0.766
 6700W        W10444   4.272   0.220   3.240
 6701W        W10445   2.203   5.257   2.413
 6702W        W10446   1.776   0.713   9.830
 6703W        W10447   3.056   2.292  11.615
 6704W        W10448   2.572   4.001   8.490
 6705W        W10449   8.014   9.587  11.929
 6706W        W10450   5.072   0.810  10.379
 6707W        W10451   9.307   3.015   2.308
 6708W        W10452   1.501   8.458   9.739
 6709W        W10453   2.694   4.191   1.005
 6710W        W10454  10.389   1.281   9.501
 6711W        W10455   7.139   0.241   2.621
 6712W        W10456   1.380   6.974  11.236
 6713W        W10457   5.897   5.737   1.959
 6714W        W10458   2.713   7.027   1.323
 6715W        W10459   2.190   1.437  10.461
 6716W        W10460   4.940   4.580  11.961
 6717W        W10461   4.251   3.293   9.495
 6718W        W10462   8.073   0.174  10.080
 6719W        W10463   8.967   8.377   1.553
 6720W        W10464   6.669   2.741   1.463
 6721W        W10465   4.378   8.772   0.375
 6722W        W10466   2.385   8.999   2.520
 6723W        W10467   1.249   0.935   1.635
 6724W        W10468   7.137   5.705  11.110
 6725W        W10469   8.405   2.270   2.990
 6726W        W10470  10.169  10.440   9.323
 6727W        W10471   1.144   9.529   2.569
 6728W        W10472   2.630   2.855   9.892
 6729W        W10473   3.338   7.640  10.800
 6730W        W10474   0.988   1.068   9.748
 6731W        W10475   3.876   8.712   0.428
 6732W        W10476   6.083  10.194  11.830
 6733W        W10477   5.249   9.043   2.470
 6734W        W10478   5.169   2.381   2.248
 6735W        W10479   7.071   6.215   1.821
 6736W        W10480   1.491   0.231   3.289
 6737W        W10481   4.984   7.627   3.529
 6738W        W10482   5.214   5.677   9.817
 6739W        W10483   7.615   3.259   3.574
 6740W        W10484  10.155   0.331   2.160
 6741W        W10485   6.518   9.266   1.559
 6742W        W10486   5.098   9.990   9.944
 6743W        W10487   3.770   0.515   1.474
 6744W        W10488   5.727   5.046   0.004
 6745W        W10489   4.179   1.912   9.744
 6746W        W10490   8.051   5.241   0.690
 6747W        W10491   2.169   4.287   8.964
 6748W        W10492   7.051   3.309   9.910
 6749W        W10493   7.055   0.638   9.138
 6750W        W10494   5.663   7.360  10.062
 6751W        W10495   5.925   0.880  10.990
 6752W        W10496   4.961   7.074   8.535
 6753W        W10497   1.918   0.465   3.577
 6754W        W10498   5.524   5.997  11.885
 6755W        W10499   7.433   5.914   9.886
 6756W        W10500   9.260   4.201   9.144
 6757W        W10501   4.807   2.752   3.638
 6758W        W10502   5.156   5.165   3.441
 6759W        W10503   3.420   3.313   0.317
 6760W        W10504   0.881   4.573   9.963
 6761W        W10505   2.828   6.212   9.995
 6762W        W10506   8.302   5.074  10.512
 6763W        W10507   2.346   9.457   1.103
 6764W        W10508   6.198   0.762   3.149
 6765W        W10509   7.949   4.064   1.660
 6766W        W10510   1.883   7.367   3.573
 6767W        W10511   8.921   8.951   9.120
 6768W        W10512   5.141   4.014   1.890
 6769W        W10513  10.263   0.047  11.859
 6770W        W10514   7.928   6.105   0.519
 6771W        W10515   1.857   4.649   1.911
 6772W        W10516   9.890   8.591   2.038
 6773W        W10517   0.630   5.515   9.277
 6774W        W10518   4.042   2.766  10.996
 6775W        W10519   4.729   1.554   9.422
 6776W        W10520   8.747   0.024  10.027
 6777W        W10521   1.290   5.893   9.066
 6778W        W10522   0.425   3.981  11.465
 6779W        W10523   1.303   7.514   1.673
 6780W        W10524   8.010   2.781   9.241
 6781W        W10525   4.946   1.005  10.841
 6782W        W10526   4.105  10.424  10.445
 6783W        W10527   2.671   2.888   1.780
 6784W        W10528   3.216   3.625   9.297
 6785W        W10529   3.663   3.091   2.719
 6786W        W10530   6.566   8.017  10.775
 6787W        W10531   0.333   5.029   2.365
 6788W        W10532   7.027   6.449   2.278
 6789W        W10533   8.311   8.414  10.088
 6790W        W10534   0.419   3.755   9.035
 6791W        W10535   9.706   2.318  10.812
 6792W        W10536   2.228   2.941  10.200
 6793W        W10537   0.724   4.880  11.339
 6794W        W10538   2.218   1.956   2.645
 6795W        W10539   1.013   5.462   2.716
 6796W        W10540   3.597   5.348   1.288
 6797W        W10541   5.616   0.450   8.667
 6798W        W10542   5.569   0.358  10.162
 6799W        W10543   5.552   7.987   0.773
 6800W        W10544   5.248   0.785   1.163
 6801W        W10545   1.269   4.662   1.176
 6802W        W10546   1.472   6.592   0.770
 6803W        W10547   5.629   8.565   9.129
 6804W        W10548   4.287   2.205   2.760
 6805W        W10549   9.584   5.132  11.833
 6806W        W10550   0.708   0.324   0.939
 6807W        W10551   9.452   1.403   0.616
 6808W        W10552   6.444   3.682   9.413
 6809W        W10553   5.029   8.173   2.376
 6810W        W10554   9.442   1.337   2.970
 6811W        W10555   3.288   7.396   0.721
 6812W        W10556   7.963   3.838   8.528
 6813W        W10557   5.758   1.810   3.603
 6814W        W10558   8.457   0.830  10.549
 6815W        W10559   0.191   2.040   9.360
 6816W        W10560   3.808   7.641   8.808
 6817W        W10561   0.987   6.580  11.202
 6818W        W10562   6.358   8.784   1.653
 6819W        W10563   6.986   8.129  11.042
 6820W        W10564   0.344   9.763   9.592
 6821W        W10565   8.368   4.601   9.863
 6822W        W10566   2.125  10.362   2.645
 6823W        W10567   5.555   1.669  10.017
 6824W        W10568   0.439  10.403   3.109
 6825W        W10569   5.068   7.461   0.066
 6826W        W10570   2.650  10.353   9.477
 6827W        W10571   3.745   7.157   0.335
 6828W        W10572   4.050   5.686   1.374
 6829W        W10573   4.061   5.796   0.551
 6830W        W10574   1.392   0.455   8.661
 6831W        W10575   4.739   8.587   3.035
 6832W        W10576   9.057   5.381   2.346
 6833W        W10577   4.732   6.464   9.924
 6834W        W10578   8.484   9.852   1.531
 6835W        W10579   1.455   4.649   2.684
 6836W        W10580   1.676   5.504  10.188
 6837W        W10581   6.364   4.643   1.003
 6838W        W10582   3.022   7.703   8.139
 6839W        W10583   7.360   6.186   1.284
 6840W        W10584   6.903   1.340   9.352
 6841W        W10585   0.876   8.812  11.389
 6842W        W10586   3.070   0.304  11.336
 6843W        W10587   5.105   5.216  10.596
 6844W        W10588   3.491   0.024   2.320
 6845W        W10589   3.682  10.354   1.248
 6846W        W10590   8.988   2.727   9.743
 6847W        W10591   7.054   9.423   0.353
 6848W        W10592   7.662   8.389   1.909
 6849W        W10593   2.843   6.418   0.716
 6850W        W10594   5.727   0.901   3.539
 6851W        W10595   3.128   5.516   9.245
 6852W        W10596   6.195   3.467  10.346
 6853W        W10597   2.148   6.311   2.319
 6854W        W10598   6.482   9.727   0.607
 6855W        W10599   1.921   3.543   3.308
 6856W        W10600   2.666   9.996   0.422
 6857W        W10601   1.782   0.913  10.804
 6858W        W10602   4.176   1.426   1.284
 6859W        W10603   3.468   9.052  11.613
 6860W        W10604   1.065   2.745  10.695
 6861W        W10605   0.736   5.994   9.043
 6862W        W10606   0.525   8.679   0.460
 6863W        W10607   7.671   7.881   1.891
 6864W        W10608   8.909   9.355   2.970
 6865W        W10609   6.303   7.547   2.143
 6866W        W10610   0.401   6.377   1.301
 6867W        W10611   9.804   4.922   0.247
 6868W        W10612  10.249  10.051  10.406
 6869W        W10613   6.483   3.192   0.044
 6870W        W10614   0.707   1.328   2.340
 6871W        W10615   6.975   2.209   2.739
 6872W        W10616   6.726   5.231   2.171
 6873W        W10617   7.923   8.435   8.699
 6874W        W10618   3.222   4.474   0.774
 6875W        W10619   0.761   6.293   0.382
 6876W        W10620   1.505   2.441   0.619
 6877W        W10621   7.085   4.743   8.624
 6878W        W10622   6.823   7.102  10.428
 6879W        W10623   1.419   6.379   9.007
 6880W        W10624   2.303   8.987   2.008
 6881W        W10625   9.822   4.238   1.247
 6882W        W10626   9.559   8.490   9.936
 6883W        W10627   8.825   0.424  11.124
 6884W        W10628   2.121   6.871  10.449
 6885W        W10629   3.856   5.722  11.423
 6886W        W10630   1.984   7.658  10.884
 6887W        W10631   9.852   8.362   0.735
 6888W        W10632   4.495   4.525   1.996
 6889W        W10633   4.910  10.445   2.506
 6890W        W10634   9.741   7.908   9.832
 6891W        W10635   7.704   1.326  11.946
 6892W        W10636   7.591   9.147  10.243
 6893W        W10637  10.379   2.501   1.478
 6894W        W10638   0.490   0.716  10.462
 6895W        W10639   2.119   6.463   0.099
 6896W        W10640   4.152   9.770   1.979
 6897W        W10641   7.999   8.840  10.085
 6898W        W10642   2.258   6.910  11.477
 6899W        W10643   7.079   4.502   2.436
 6900W        W10644   4.652   4.103   2.726
 6901W        W10645   8.913   0.500   2.778
 6902W        W10646   9.017   1.805   1.198
 6903W        W10647   9.422   2.730  10.910
 6904W        W10648   0.367   7.109  11.390
 6905W        W10649   6.998   3.624   1.061
 6906W        W10650   2.996   0.298   8.763
 6907W        W10651   9.851   9.959   2.390
 6908W        W10652   9.594   8.152   9.364
 6909W        W10653   5.027   4.111   1.417
 6910W        W10654   9.708   9.218   0.857
 6911W        W10655   6.520   1.243   0.381
 6912W        W10656   1.429   7.367   0.153
 6913W        W10657  10.121   9.052   2.193
 6914W        W10658  10.415   6.927   1.698
 6915W        W10659   2.526   0.500   8.960
 6916W        W10660   0.429   1.207   1.843
 6917W        W10661   3.323   7.586  11.775
 6918W        W10662   8.782   0.892   2.347
 6919W        W10663   4.082   4.535   3.205
 6920W        W10664   8.896   1.132   3.797
 6921W        W10665   2.810   5.559   1.243
 6922W        W10666   8.462   6.165  10.837
 6923W        W10667   9.423   7.514   1.759
 6924W        W10668   1.665   5.070  10.457
 6925W        W10669   5.558   2.265  11.695
 6926W        W10670   2.712  10.413  10.011
 6927W        W10671   9.045   9.011   9.638
 6928W        W10672   7.229   4.064   3.766
 6929W        W10673   3.883   1.046  11.444
 6930W        W10674   2.625   1.626  10.712
 6931W        W10675   0.696   5.838   2.875
 6932W        W10676   7.635   9.130   1.499
 6933W        W10677   5.968   9.908   8.618
 6934W        W10678   6.837   6.159   3.090
 6935W        W10679   6.391   2.319   9.356
 6936W        W10680   6.327   4.343  10.029
 6937W        W10681   7.144   0.933  10.505
 6938W        W10682   7.893   0.850  11.241
 6939W        W10683   3.113   3.222   1.172
 6940W        W10684   8.389   1.376   1.693
 6941W        W10685   9.114   0.791  11.924
 6942W        W10686   7.917   1.281   0.984
 6943W        W10687   5.323   5.668   0.678
 6944W        W10688   4.559   5.151   0.623
 6945W        W10689   9.671   3.155  10.695
 6946W        W10690   3.867   4.910   1.368
 6947W        W10691   8.821   0.404  11.629
 6948W        W10692   2.589   2.483   1.322
 6949W        W10693   9.436  10.013   1.199
 6950W        W10694   5.266   7.002  11.992
 6951W        W10695   5.832   6.790   3.705
 6952W        W10696   9.430   2.954   9.915
 6953W        W10697   9.037   4.060  11.879
 6954W        W10698   6.928   2.425   0.780
 6955W        W10699   4.862   2.110   1.942
 6956W        W10700   2.508   8.333   8.279
 6957W        W10701   9.998   6.858  10.912
 6958W        W10702   1.745   7.673   1.502
 6959W        W10703   2.836   9.929  10.929
 6960W        W10704   1.117   7.174   1.351
 6961W        W10705   1.930   7.451   0.418
 6962W        W10706  10.201   3.135  10.339
 6963W        W10707   4.587   1.651  11.520
 6964W        W10708   3.567   6.354  11.039
 6965W        W10709   7.199   6.557   8.853
 6966W        W10710   2.364   8.727   0.401
 6967W        W10711   0.280   9.719   2.312
 6968W        W10712   2.333   7.468   0.753
 6969W        W10713   0.187   2.683  11.802
 6970W        W10714   6.036   8.199  11.991
 6971W        W10715   9.322   1.736  11.331
 6972W        W10716   4.996   0.516  10.964
 6973W        W10717   9.729   6.710   8.574
 6974W        W10718   1.693   7.855   0.266
 6975W        W10719   7.947   9.839   2.422
 6976W        W10720   4.745   1.627   8.409
 6977W        W10721  10.042   1.418   1.745
 6978W        W10722   6.443   7.972   9.813
 6979W        W10723  10.438   5.613  10.490
 6980W        W10724   7.079   9.926   1.275
 6981W        W10725   3.052   4.614   9.015
 6982W        W10726   5.312   2.869   2.082
 6983W        W10727   1.236   8.002   0.870
 6984W        W10728   8.985   3.971   2.916
 6985W        W10729   1.264   1.944  11.338
 6986W        W10730   7.125   1.147   2.398
 6987W        W10731   6.019   1.578   2.789
 6988W        W10732   5.741   9.072   3.118
 6989W        W10733   0.483   3.071   0.732
 6990W        W10734   8.627   2.272   1.610
 6991W        W10735   4.383   1.208  11.969
 6992W        W10736   8.976   6.980   8.999
 6993W        W10737   5.216   3.078   3.047
 6994W        W10738   5.808   1.405  11.774
 6995W        W10739   3.258   6.647   1.058
 6996W        W10740   0.413   7.608  10.023
 6997W        W10741   8.941   7.828   1.234
 6998W        W10742   0.622   0.787   3.200
 6999W        W10743   7.125   1.752   2.464
 7000W        W10744   0.176   9.924  11.417
 7001W        W10745   0.779   4.164   0.217
 7002W        W10746  10.463   2.904   2.113
 7003W        W10747   8.064   3.752  10.309
 7004W        W10748   7.027  10.395  10.372
 7005W        W10749   7.954   5.653  10.716
 7006W        W10750   7.674   3.592   0.353
 7007W        W10751   9.825   7.866   0.701
 7008W        W10752   3.278   9.273   0.277
 7009W        W10753   0.027   3.225  11.853
 7010W        W10754   9.500  10.027   0.273
 7011W        W10755   3.159   4.602   8.166
 7012W        W10756   3.412   4.471   3.154
 7013W        W10757   0.981   3.795   2.825
 7014W        W10758   9.164  10.340   9.794
 7015W        W10759   2.643   6.514   1.669
 7016W        W10760   1.404   9.769   1.391
 7017W        W10761   4.256   0.466   2.240
 7018W        W10762   9.988   6.694   1.410
 7019W        W10763   4.950   7.131   3.792
 7020W        W10764   3.844   9.045  11.243
 7021W        W10765   4.596   0.895   2.261
 7022W        W10766   0.672  10.000   9.967
 7023W        W10767   3.169   7.153  10.831
 7024W        W10768   5.784   4.666  10.890
 7025W        W10769   7.340   0.872   1.121
 7026W        W10770   4.689   6.477   0.799
 7027W        W10771   5.427   5.418   0.215
 7028W        W10772  10.326   0.812  10.202
 7029W        W10773   6.911  10.270   9.415
 7030W        W10774   3.790   1.452  10.895
 7031W        W10775   9.890   4.077   0.388
 7032W        W10776   2.817   6.695   9.815
 7033W        W10777   2.356   8.529  10.869
 7034W        W10778   9.782   3.595   0.761
 7035W        W10779   5.160   9.811   2.969
 7036W        W10780   9.202   7.380   3.393
 7037W        W10781   4.717   3.630   2.961
 7038W        W10782   9.851   6.363  10.937
 7039W        W10783   2.704   1.710   2.640
 7040W        W10784   0.361   3.593  10.095
 7041W        W10785   7.551   4.435   2.649
 7042W        W10786   2.198   2.906   2.042
 7043W        W10787   1.568   3.667   1.382
 7044W        W10788   8.979   8.348  10.825
 7045W        W10789   1.778   3.151  10.459
 7046W        W10790   7.238   3.349   3.217
 7047W        W10791   1.894   8.965   9.607
 7048W        W10792   7.362   4.538  11.513
 7049W        W10793   2.231   5.563   1.896
 7050W        W10794   8.081   1.579  11.047
 7051W        W10795   2.650   4.660  10.022
 7052W        W10796   2.919  10.235   1.710
 7053W        W10797   8.973   1.779   9.840
 7054W        W10798   6.076   3.326   9.410
 7055W        W10799  10.069   0.419   9.029
 7056W        W10800   6.176   0.645   3.642
 7057W        W10801  10.330   1.382  10.475
 7058W        W10802   3.581   9.948  11.525
 7059W        W10803   5.007   9.950  11.207
 7060W        W10804   7.566   5.038   1.855
 7061W        W10805   8.675   3.651   9.001
 7062W        W10806   6.222   0.929  10.480
 7063W        W10807   2.513   4.026   9.420
 7064W        W10808   8.507   3.362  11.975
 7065W        W10809   3.757   0.312   3.037
 7066W        W10810   9.728   0.353  10.795
 7067W        W10811   6.941   5.986  10.652
 7068W        W10812   0.886   3.847   1.850
 7069W        W10813   8.138   4.629  10.319
 7070W        W10814   1.263   3.800   2.344
 7071W        W10815   7.120   8.357   9.768
 7072W        W10816  10.045   1.821  10.447
 7073W        W10817  10.258   6.003   1.750
 7074W        W10818   5.853   0.694   2.765
 7075W        W10819   0.971   8.982   3.476
 7076W        W10820   4.073   4.094  10.797
 7077W        W10821   4.709   8.631   1.692
 7078W        W10822  10.481   3.797   3.197
 7079W        W10823   1.634   1.951   1.475
 7080W        W10824   6.636   6.233   4.028
 7081W        W10825   8.584   1.734   0.926
 7082W        W10826   0.167   0.841   0.572
 7083W        W10827   1.003   4.671   0.266
 7084W        W10828   0.160   2.188   2.323
 7085W        W10829   1.772   7.173  10.930
 7086W        W10830   8.944   7.516  10.327
 7087W        W10831   8.550   2.127  11.479
 7088W        W10832   6.551   0.976  11.942
 7089W        W10833   9.685   8.955  11.095
 7090W        W10834   2.790   9.570  11.666
 7091W        W10835   7.801   6.587   0.658
 7092W        W10836   8.481   3.704  11.537
 7093W        W10837   0.355   5.022   1.373
 7094W        W10838   3.617   4.089  11.013
 7095W        W10839   6.159   7.021  10.945
 7096W        W10840   0.783   2.197   1.764
 7097W        W10841   2.381   3.793   1.642
 7098W        W10842   0.531   1.849   3.522
 7099W        W10843   8.391   7.419  11.427
 7100W        W10844   7.576   3.767   2.054
 7101W        W10845   6.596   1.230  11.514
 7102W        W10846   2.768   7.381   2.805
 7103W        W10847   0.617   4.594  10.779
 7104W        W10848   0.820   0.922   8.727
 7105W        W10849   6.256   4.942   0.041
 7106W        W10850   3.963   2.094  11.998
 7107W        W10851   2.909  10.317   3.125
 7108W        W10852   5.791   0.451   3.210
 7109W        W10853   2.195   8.684   8.507
 7110W        W10854   1.469   1.233   3.238
 7111W        W10855   0.166   8.939  10.894
 7112W        W10856   1.126   0.881   3.150
 7113W        W10857   3.280   4.153   8.980
 7114W        W10858   8.662   1.368   0.341
 7115W        W10859   6.596   6.526   0.894
 7116W        W10860   7.399   2.261  10.863
 7117W        W10861   3.404  10.286   1.850
 7118W        W10862   9.351   1.834   0.269
 7119W        W10863   6.261   7.852   0.790
 7120W        W10864   2.699   0.559   0.214
 7121W        W10865   5.762   4.927   0.493
 7122W        W10866   6.419   8.999  10.996
 7123W        W10867   6.266   0.311   9.956
 7124W        W10868   3.117   9.305  11.380
 7125W        W10869   6.512  10.405   9.110
 7126W        W10870   6.843   4.354  10.082
 7127W        W10871  10.016   2.150   8.790
 7128W        W10872   7.556   2.221   9.294
 7129W        W10873   1.293   7.948   9.055
 7130W        W10874   8.582   1.273   8.960
 7131W        W10875   7.877   3.839   9.271
 7132W        W10876   4.295   1.811   9.246
 7133W        W10877  10.470   4.729   3.538
 7134W        W10878   9.985   1.845   2.493
 7135W        W10879   2.572   9.003   1.164
 7136W        W10880   3.704   7.569  10.276
 7137W        W10881   8.393   3.738   9.921
 7138W        W10882   2.857   2.399   9.854
 7139W        W10883  10.358   1.596   8.630
 7140W        W10884   6.570   1.946   2.050
 7141W        W10885   4.088   7.817   0.337
 7142W        W10886   0.816   3.250   8.976
 7143W        W10887   3.583   5.514   9.876
 7144W        W10888   1.763  10.409   9.505
 7145W        W10889   9.903   0.168   0.854
 7146W        W10890   6.000   0.830   8.642
 7147W        W10891   7.262   7.759  11.963
 7148W        W10892   6.746   2.698   2.317
 7149W        W10893   3.705   0.824  10.545
 7150W        W10894   2.223   8.193   3.581
 7151W        W10895   8.344   3.681   9.414
 7152W        W10896   7.917   3.207   2.103
 7153W        W10897   0.939   3.211   1.864
 7154W        W10898   7.437   8.627  10.577
 7155W        W10899   0.826   0.621   9.588
 7156W        W10900   9.083   1.939  10.317
 7157W        W10901   9.103   9.284   1.370
 7158W        W10902   4.332   2.896  10.523
 7159W        W10903   8.402   1.330   1.194
 7160W        W10904   6.802   2.544   3.551
 7161W        W10905   4.129   6.120   9.640
 7162W        W10906   2.306  10.324  11.259
 7163W        W10907   2.936   3.259   9.937
 7164W        W10908   9.028   1.269  11.717
 7165W        W10909   1.866   0.186  10.538
 7166W        W10910   1.136   2.630   3.393
 7167W        W10911   9.542   2.611  11.979
 7168W        W10912   7.128   4.205   2.861
 7169W        W10913   0.685   6.035  10.742
 7170W        W10914   6.549   1.936  11.915
 7171W        W10915   2.634   4.083  10.941
 7172W        W10916   8.282   6.967   2.621
 7173W        W10917   0.960   8.499   0.910
 7174W        W10918   1.392   0.268   9.548
 7175W        W10919   1.526   5.043   9.338
 7176W        W10920   4.080   4.358   0.573
 7177W        W10921   4.153   8.349   3.627
 7178W        W10922   6.454   6.098   9.767
 7179W        W10923   8.107   2.099   9.987
 7180W        W10924   3.205   8.963   2.463
 7181W        W10925   7.971   0.180   3.485
 7182W        W10926   3.099   3.727  10.003
 7183W        W10927   4.017  10.222  11.410
 7184W        W10928   1.240   5.940   2.748
 7185W        W10929   0.941   1.283   1.906
 7186W        W10930   8.802   8.553   9.436
 7187W        W10931   4.301   6.617   2.908
 7188W        W10932   7.535   6.100   8.906
 7189W        W10933   0.696   1.957   9.359
 7190W        W10934   3.783   0.966   1.766
 7191W        W10935   7.010   0.111   2.139
 7192W        W10936   5.827   2.892   2.065
 7193W        W10937   9.829   8.847   0.050
 7194W        W10938   1.811  10.177  10.507
 7195W        W10939   3.087   2.280   2.372
 7196W        W10940   0.672   1.354   0.060
 7197W        W10941   2.150   2.399   0.643
 7198W        W10942   7.455   4.130   9.328
 7199W        W10943   3.366   0.754  11.387
 7200W        W10944   2.645  10.441   2.656
 7201W        W10945  10.498   5.554   9.020
 7202W        W10946   4.970   1.699   2.970
 7203W        W10947   3.937   4.482   0.103
 7204W        W10948   9.324   4.543   2.386
 7205W        W10949   9.219  10.130  10.382
 7206W        W10950   9.360   0.910   0.397
 7207W        W10951   1.238   2.749   9.280
 7208W        W10952   2.584   4.214   1.914
 7209W        W10953   3.097   5.545   9.746
 7210W        W10954   2.829   8.973   9.515
 7211W        W10955   5.535   6.044  10.748
 7212W        W10956   7.718   7.805   9.820
 7213W        W10957   3.086   2.720   8.854
 7214W        W10958   5.048  10.387   8.727
 7215W        W10959   6.505  10.466   0.011
 7216W        W10960   3.829   3.165   9.762
 7217W        W10961   7.824   6.471   0.169
 7218W        W10962   6.044   2.189   8.494
 7219W        W10963   3.215   3.197  11.048
 7220W        W10964   4.766  10.131   9.352
 7221W        W10965   4.117   7.039   9.794
 7222W        W10966  10.326   9.931   2.741
 7223W        W10967   4.082   2.650   1.879
 7224W        W10968   0.514   0.886   2.224
 7225W        W10969   1.356   1.460   0.751
 7226W        W10970   2.009   1.775   1.773
 7227W        W10971   3.733  10.085   2.181
 7228W        W10972   5.633   4.864  11.366
 7229W        W10973   9.835   7.725   2.233
 7230ION    NA+10974   7.817   7.055   9.022
 7231ION    NA+10975   8.842  10.449  11.970
 7232ION    NA+10976   0.370   6.561   3.675
 7233ION    NA+10977   6.606   1.816   3.050
 7234ION    NA+10978   0.001   3.697  11.505
 7235ION    NA+10979   1.350   8.654   2.899
 7236ION    NA+10980   9.972   6.479   0.949
 7237ION    NA+10981   4.885   0.369   9.405
 7238ION    NA+10982   2.961   4.713   0.192
 7239ION    NA+10983   0.086   0.469   8.985
 7240ION    NA+10984   7.351   4.604   8.184
 7241ION    NA+10985   0.193   9.074   9.269
 7242ION    NA+10986   5.270   7.102  11.051
 7243ION    NA+10987   5.215   3.069   9.038
 7244ION    NA+10988   6.383   8.893  10.116
 7245ION    NA+10989   1.431   6.727   9.812
 7246ION    NA+10990   4.064   1.980  11.066
 7247ION    NA+10991   1.574   0.262   0.936
 7248ION    NA+10992   2.745   0.346  10.819
 7249ION    NA+10993   2.310   2.511   1.757
 7250ION    NA+10994   9.417   0.183   2.029
 7251ION    NA+10995   0.470   7.715   1.351
 7252ION    NA+10996   7.753   0.731   3.757
 7253ION    NA+10997   7.899   3.759   9.774
 7254ION    NA+10998   0.211   5.327  10.825
 7255ION    NA+10999   3.811   4.784  11.203
 7256ION    NA+11000   7.053   1.986   0.523
 7257ION    NA+11001   3.617   9.271   2.402
 7258ION    NA+11002   6.623   3.523   1.875
 7259ION    NA+11003   3.245   6.591   9.458
 7260ION    NA+11004   1.621   4.995   1.357
 7261ION    NA+11005  10.437  10.415   3.023
 7262ION    NA+11006   2.676   1.976  11.112
 7263ION    NA+11007   7.043  10.091   8.957
 7264ION    NA+11008   9.367   3.263   0.792
 7265ION    NA+11009   1.692   1.799  11.069
 7266ION    NA+11010   1.728   2.981   9.175
 7267ION    NA+11011   4.528   6.797   9.597
 7268ION    NA+11012   1.787   7.158  11.527
 7269ION    NA+11013   3.848   0.949   0.620
 7270ION    NA+11014   0.304   9.137   0.320
 7271ION    NA+11015   9.397   1.464  10.443
 7272ION    NA+11016   7.580   2.114  11.349
 7273ION    NA+11017   9.630   5.224   3.467
 7274ION    NA+11018   4.530   5.168   0.090
 7275ION    NA+11019   0.921   5.399   0.123
 7276ION    NA+11020  10.103   9.608   9.551
 7277ION    NA+11021   3.317   6.632   2.630
 7278ION    NA+11022   2.725   9.340   1.946
 7279ION    NA+11023   5.921   9.130  10.971
 7280ION    NA+11024   4.942   3.281   8.100
 7281ION    NA+11025   5.381   4.865   1.644
 7282ION    NA+11026   9.650   3.725  11.132
 7283ION    NA+11027   0.225   5.152   1.872
 7284ION    NA+11028   1.153  10.064  11.636
 7285ION    NA+11029   1.713   0.404  10.990
 7286ION    NA+11030   4.113   8.135   0.994
 7287ION    NA+11031   5.110   2.389   1.215
 7288ION    NA+11032   1.087   9.014  11.843
 7289ION    NA+11033   0.242   8.071   2.807
 7290ION    NA+11034   6.291   9.615   1.878
 7291ION    NA+11035   4.973   4.743   0.897
 7292ION    NA+11036   0.675   0.786   0.754
 7293ION    NA+11037   1.340   9.773   3.340
 7294ION    NA+11038   3.803   0.909  10.062
 7295ION    NA+11039   1.888   7.769   9.756
 7296ION    NA+11040   5.256   5.580  11.744
 7297ION    NA+11041   3.933   0.066   9.444
 7298ION    NA+11042   2.809   0.183   0.532
 7299ION    NA+11043   7.876   0.683   2.208
 7300ION    NA+11044   2.016   0.543   0.007
 7301ION    NA+11045   4.749   3.656   1.932
 7302ION    NA+11046   1.012   8.174  11.886
 7303ION    NA+11047   6.772   7.665   0.664
 7304ION    NA+11048   2.769   7.942   2.323
 7305ION    NA+11049   4.379   8.651   9.941
 7306ION    CL-11050   5.127   4.951   1.277
 7307ION    CL-11051   4.865   5.389  11.873
 7308ION    CL-11052   9.017   2.808  10.246
 7309ION    CL-11053   8.562   1.372   9.460
 7310ION    CL-11054  10.356   3.226   1.752
 7311ION    CL-11055   5.469   6.881   1.457
 7312ION    CL-11056   1.677  10.062   8.577
 7313ION    CL-11057   8.519   8.799   9.794
 7314ION    CL-11058   9.240   0.217  10.894
 7315ION    CL-11059   3.246   2.764   3.431
 7316ION    CL-11060   1.943   8.201   9.652
 7317ION    CL-11061   2.791   3.626   1.093
 7318ION    CL-11062   7.370  10.105   9.275
 7319ION    CL-11063   0.626   7.304   1.257
 7320ION    CL-11064   2.680   1.867  11.546
 7321ION    CL-11065   1.165   8.564  11.711
 7322ION    CL-11066   1.331   2.943  11.729
 7323ION    CL-11067   3.717   8.865   2.247
 7324ION    CL-11068   4.664   0.498   1.911
 7325ION    CL-11069   9.110   2.691   8.777
 7326ION    CL-11070   2.864   0.564   2.000
 7327ION    CL-11071   3.938   0.809   1.037
 7328ION    CL-11072   6.802   9.021  10.032
 7329ION    CL-11073   8.532   9.139   0.525
 7330ION    CL-11074   9.398   4.363   9.639
 7331ION    CL-11075   6.737   9.554   1.939
 7332ION    CL-11076   9.336   3.496  10.898
 7333ION    CL-11077   7.877   8.913  10.604
 7334ION    CL-11078   2.899   4.519   3.219
 7335ION    CL-11079   2.671   1.260   1.308
 7336ION    CL-11080   0.651   9.108   0.009
 7337ION    CL-11081   0.160   8.955   0.713
 7338ION    CL-11082   2.089   3.817   0.407
 7339ION    CL-11083   1.569   2.936   8.750
 7340ION    CL-11084   4.433   9.999  11.965
 7341ION    CL-11085   1.279   8.624   2.452
 7342ION    CL-11086   2.460   7.659   2.478
 7343ION    CL-11087   5.139   9.197   9.494
 7344ION    CL-11088   4.757   9.916  10.302
 7345ION    CL-11089   8.305   5.303   8.791
 7346ION    CL-11090   6.509   1.400   3.204
 7347ION    CL-11091  10.073   3.724  11.349
 7348ION    CL-11092   9.843   8.005   1.761
 7349ION    CL-11093   6.855   7.138   0.959
 7350ION    CL-11094   2.255   1.891   0.517
 7351ION    CL-11095   5.065   2.891   9.418
 7352ION    CL-11096  10.485   9.371   9.541
 7353ION    CL-11097   4.176   3.662   3.692
 7354ION    CL-11098   5.847   7.813   1.158
 7355ION    CL-11099   2.516   4.697   0.200
 7356ION    CL-11100   3.153   5.161   8.865
 7357ION    CL-11101   4.853   4.563  10.702
 7358ION    CL-11102   7.174   8.369   1.744
 7359ION    CL-11103   4.018   2.359  11.298
 7360ION    CL-11104   1.191   9.139  10.142
 7361ION    CL-11105   6.899   9.910   8.541
 7362ION    CL-11106   7.989   4.509   1.396
 7363ION    CL-11107   0.253   9.914   0.447
 7364ION    CL-11108   2.596   6.474  11.909
 7365ION    CL-11109   8.013   6.155   9.514
 7366ION    CL-11110   1.425   8.724   3.355
 7367ION    CL-11111   9.265   5.044   8.684
 7368ION    CL-11112   0.626   5.175  10.901
 7369ION    CL-11113   5.170   3.456   4.106
 7370ION    CL-11114   6.952   7.956   0.371
 7371ION    CL-11115   5.847   9.673   1.798
 7372ION    CL-11116   4.024   5.070  10.937
 7373ION    CL-11117   3.480   6.863   2.975
 7374ION    CL-11118   0.559   1.155   0.534
 7375ION    CL-11119   8.468   8.203  10.990
 7376ION    CL-11120   8.925   6.947  10.779
 7377ION    CL-11121   8.391  10.147   3.082
 7378ION    CL-11122   4.195   2.288   9.382
 7379ION    CL-11123   2.951   0.795   8.937
 7380ION    CL-11124   2.240   2.881   1.513
 7381ION    CL-11125   1.331   9.805  11.958
  10.50000  10.50000  12.00000
