Protein in INSANE! Membrane UpperLeaflet>POPC=1.0 LowerLeaflet>POPC=1.0
10365
    1AU     AUC    1   7.885   1.666   6.491  0.0734  0.1638  0.0110
    1AU     AUC    2   7.709   1.526   6.281  0.0013 -0.0077 -0.0906
    1AU     AUC    3   8.074   1.500   6.300  0.0190  0.0191  0.0861
    1AU     AUC    4   7.754   1.851   6.733 -0.0291 -0.0120 -0.0541
    1AU     AUC    5   8.115   1.863   6.702  0.0655 -0.0503 -0.0799
    1AU     AUC    6   7.900   1.994   6.474 -0.0672  0.0302  0.1735
    1AU     AUC    7   7.871   1.785   6.199 -0.0259  0.0383 -0.1467
    1AU     AUC    8   7.929   1.599   6.830  0.0588 -0.1079 -0.0110
    1AU     AUC    9   7.898   1.373   6.545  0.0942  0.0667  0.0230
    1AU     AUC   10   8.166   1.531   6.597  0.0832 -0.0462 -0.0888
    1AU     AUC   11   8.170   1.816   6.409  0.0152  0.0061 -0.0466
    1AU     AUC   12   7.633   1.576   6.609  0.0820 -0.1452  0.1005
    1AU     AUC   13   7.610   1.809   6.419 -0.0813  0.0569  0.0541
    1AU     AUC   14   7.501   1.326   6.041 -0.1099 -0.0746 -0.0822
    1AU     AUC   15   7.865   1.297   6.048 -0.0393 -0.0867  0.0366
    1AU     AUC   16   8.194   1.276   6.063 -0.0711 -0.0195 -0.0250
    1AU     AUC   17   7.570   2.046   6.983 -0.0457  0.1218  0.0197
    1AU     AUC   18   7.964   2.109   6.970  0.0021 -0.0626  0.0974
    1AU     AUC   19   8.281   2.083   6.915 -0.0244 -0.0058  0.0543
    1AU     AUC   20   7.882   2.348   6.394 -0.0101  0.0260 -0.0065
    1AU     AUC   21   7.880   2.140   6.120 -0.0247  0.0994 -0.0553
    1AU     AUC   22   7.892   1.881   5.884 -0.0454  0.0382 -0.0495
    1AU     AUC   23   7.942   1.479   7.150 -0.0255 -0.0619  0.0845
    1AU     AUC   24   7.873   1.238   6.902  0.0208 -0.0105  0.0372
    1AU     AUC   25   7.832   1.024   6.593  0.0390 -0.0108 -0.0954
    1AU     AUC   26   8.470   1.356   6.709  0.0010 -0.0676  0.0463
    1AU     AUC   27   8.514   1.640   6.495  0.0360  0.0925  0.0494
    1AU     AUC   28   8.468   1.922   6.258  0.0444 -0.0882  0.0739
    1AU     AUC   29   7.330   1.420   6.729 -0.0324 -0.0153  0.0002
    1AU     AUC   30   7.287   1.698   6.533 -0.0922  0.0506  0.0632
    1AU     AUC   31   7.323   1.973   6.308  0.0364  0.0413 -0.0075
    1AU     AUC   32   8.338   1.283   6.383  0.0447  0.0227 -0.0027
    1AU     AUC   33   8.369   1.553   6.139 -0.1283  0.0075 -0.0518
    1AU     AUC   34   7.367   1.367   6.363  0.0425  0.0014  0.0208
    1AU     AUC   35   7.404   1.655   6.166 -0.0272  0.0010  0.1388
    1AU     AUC   36   8.428   1.709   6.830 -0.0090  0.0125  0.0115
    1AU     AUC   37   8.407   1.999   6.603 -0.0058 -0.0324 -0.0589
    1AU     AUC   38   7.460   1.747   6.872  0.0641 -0.1216  0.0298
    1AU     AUC   39   7.399   2.003   6.690 -0.0432  0.0746 -0.0350
    1AU     AUC   40   7.689   1.583   5.935 -0.0751  0.0458 -0.0136
    1AU     AUC   41   8.051   1.607   5.932 -0.0374  0.0191  0.0799
    1AU     AUC   42   7.717   2.205   6.683 -0.0283  0.0041 -0.0345
    1AU     AUC   43   8.087   2.242   6.683  0.0433 -0.0668  0.0253
    1AU     AUC   44   7.684   1.152   6.309 -0.1839 -0.0791  0.0022
    1AU     AUC   45   8.022   1.086   6.371  0.0825 -0.0190  0.0781
    1AU     AUC   46   7.797   1.784   7.083 -0.0285 -0.0980  0.0357
    1AU     AUC   47   8.158   1.762   7.027 -0.0343  0.0573  0.0310
    1AU     AUC   48   8.218   2.151   6.332  0.0709 -0.1131  0.0095
    1AU     AUC   49   8.173   1.917   6.095  0.1244  0.1290 -0.0118
    1AU     AUC   50   8.204   1.401   6.934  0.1317 -0.0155 -0.0208
    1AU     AUC   51   8.177   1.146   6.703  0.0717  0.0004 -0.0174
    1AU     AUC   52   7.600   2.131   6.356 -0.0640  0.0755 -0.0854
    1AU     AUC   53   7.590   1.960   6.053  0.0231 -0.0388 -0.0664
    1AU     AUC   54   7.643   1.449   6.968  0.0212  0.0186  0.0673
    1AU     AUC   55   7.583   1.256   6.651  0.0019  0.0449 -0.0764
    1AU    AUSL   56   8.539   1.198   6.102  0.0160 -0.0656 -0.0946
    1AU    AUSL   57   8.517   1.006   6.523 -0.0011 -0.0947  0.0090
    1AU     AUL   58   8.658   0.857   6.220 -0.0304 -0.0356  0.0607
    1AU       S   59   8.449   0.539   6.535  0.0536 -0.1020  0.1650
    1AU     LIG   60   8.727   0.340   6.764  0.0403 -0.0106 -0.0174
    1AU     LIG   61   9.053   0.144   6.888 -0.1323 -0.0086  0.0728
    1AU     LIG   62   9.315  -0.140   6.702  0.4494  0.2411  0.4345
    1AU       S   63   8.988   1.151   6.173 -0.0335 -0.4074  0.2286
    1AU     LIG   64   9.102   0.778   5.947 -0.0432 -0.1353  0.2698
    1AU     LIG   65   9.117   0.506   5.498 -0.1049  0.1097 -0.3374
    1AU     LIG   66   9.069   0.436   5.055  0.0200  0.1561 -0.2877
    1AU    AUSL   67   8.669   1.408   6.503 -0.0077 -0.0129  0.0110
    1AU    AUSL   68   8.715   1.837   6.451  0.0169  0.0125  0.0107
    1AU     AUL   69   9.049   1.655   6.433  0.0865  0.0541 -0.0248
    1AU       S   70   8.956   1.224   6.420  0.2883 -0.1810  0.1848
    1AU     LIG   71   9.409   1.170   6.528  0.2120 -0.0267  0.1715
    1AU     LIG   72   9.546   0.871   6.751  0.0582 -0.1214  0.1174
    1AU     LIG   73   9.970   0.676   6.857 -0.2328 -0.1382  0.0073
    1AU       S   74   9.143   1.978   6.759  0.0433  0.0693 -0.2045
    1AU     LIG   75   9.542   2.066   6.862  0.2416 -0.2137 -0.1074
    1AU     LIG   76   9.586   1.870   7.085 -0.3617  0.3991 -0.3835
    1AU     LIG   77   9.673   1.737   7.505 -0.1874 -0.2139  0.0722
    1AU    AUSL   78   8.738   1.572   6.114 -0.0667  0.0860  0.0569
    1AU    AUSL   79   8.425   1.469   5.789 -0.0243 -0.0812 -0.0804
    1AU     AUL   80   8.652   1.180   5.807 -0.0230 -0.0865  0.0041
    1AU       S   81   8.948   1.478   5.996  0.0610  0.2167  0.0785
    1AU     LIG   82   9.177   1.740   5.789 -0.0847  0.3693  0.0471
    1AU     LIG   83   9.389   2.117   5.781 -0.4166 -0.2208  0.0786
    1AU     LIG   84   9.623   2.407   5.489 -0.3103  0.1341  0.0370
    1AU       S   85   8.678   1.592   5.564  0.1260 -0.1152  0.1811
    1AU     LIG   86   8.573   1.289   5.273  0.0899  0.0649  0.0982
    1AU     LIG   87   8.321   1.001   5.062  0.1973  0.1487 -0.2452
    1AU     LIG   88   7.989   0.903   4.897 -0.1232  0.1564 -0.1466
    1AU    AUSL   89   7.182   1.445   6.094 -0.0302  0.0686  0.0281
    1AU    AUSL   90   7.214   1.867   5.936  0.0465 -0.0969 -0.0136
    1AU     AUL   91   6.977   1.522   5.786 -0.0727  0.0284 -0.0206
    1AU       S   92   6.749   1.740   6.112  0.0779  0.2068 -0.3036
    1AU     LIG   93   6.512   1.576   5.735 -0.1792 -0.1093  0.2256
    1AU     LIG   94   6.295   1.642   5.343  0.0367 -0.0008  0.1609
    1AU     LIG   95   6.343   1.765   4.973 -0.0055  0.3298  0.2938
    1AU       S   96   7.142   1.878   5.566 -0.3752  0.1135 -0.0299
    1AU     LIG   97   6.790   2.016   5.725 -0.0173  0.1998  0.3157
    1AU     LIG   98   6.431   2.091   6.030 -0.0513 -0.2270  0.1320
    1AU     LIG   99   6.027   2.074   6.067  0.1756  0.4209 -0.0846
    1AU    AUSL  100   6.945   1.391   6.461  0.0131  0.0590  0.0783
    1AU    AUSL  101   7.240   1.031   6.154  0.0163  0.0642 -0.0465
    1AU     AUL  102   6.904   1.193   6.130  0.0067 -0.0005 -0.0458
    1AU       S  103   7.020   0.779   6.337  0.2042  0.0716 -0.0930
    1AU     LIG  104   6.602   0.734   6.089 -0.0680  0.0102 -0.3413
    1AU     LIG  105   6.192   0.958   6.051  0.0260 -0.1730  0.3640
    1AU     LIG  106   6.064   1.439   6.018 -0.0993  0.0707 -0.1340
    1AU       S  107   6.630   1.630   6.222  0.0796  0.0124 -0.1582
    1AU     LIG  108   6.447   1.228   6.357 -0.2306  0.2789 -0.1130
    1AU     LIG  109   5.974   1.176   6.450 -0.2588 -0.1341 -0.1434
    1AU     LIG  110   5.652   1.038   6.257  0.0975  0.1039 -0.0157
    1AU    AUSL  111   7.136   1.774   6.354  0.0637  0.0116  0.0539
    1AU    AUSL  112   7.147   1.591   6.778  0.0575  0.0076 -0.0442
    1AU     AUL  113   6.850   1.576   6.634 -0.0863  0.0130 -0.0366
    1AU       S  114   6.673   1.871   6.931 -0.2599  0.1138  0.3270
    1AU     LIG  115   6.479   1.480   6.983  0.3891  0.1837 -0.0067
    1AU     LIG  116   6.113   1.239   6.894 -0.1917  0.5373  0.0920
    1AU     LIG  117   5.688   1.216   7.013 -0.4418  0.2387  0.0893
    1AU       S  118   6.865   1.846   6.240  0.2038 -0.1045 -0.0446
    1AU     LIG  119   6.930   2.223   6.173 -0.2118  0.0776  0.2813
    1AU     LIG  120   6.799   2.532   5.872 -0.2082  0.3088  0.0773
    1AU     LIG  121   6.819   2.953   5.735 -0.1752  0.0836 -0.1623
    1AU    AUSL  122   8.660   2.063   6.826  0.1240  0.0142 -0.0118
    1AU    AUSL  123   8.594   2.256   6.434 -0.0873  0.0803 -0.0209
    1AU     AUL  124   8.862   2.108   6.402 -0.0705 -0.1043  0.0534
    1AU       S  125   9.014   2.126   6.819  0.0756  0.0267  0.0565
    1AU     LIG  126   9.091   2.389   7.091  0.0088  0.0222  0.0059
    1AU     LIG  127   9.147   2.842   6.848  0.1139 -0.0982  0.2152
    1AU     LIG  128   9.255   3.178   6.658 -0.2012  0.0427 -0.3865
    1AU       S  129   8.815   2.515   6.654  0.0910  0.2753  0.3751
    1AU     LIG  130   9.269   2.420   6.495 -0.2293 -0.4380  0.1946
    1AU     LIG  131   9.592   2.564   6.442 -0.1066  0.0240  0.0050
    1AU     LIG  132   9.773   3.002   6.629 -0.0209 -0.0814  0.3919
    1AU    AUSL  133   8.805   1.648   6.826  0.0593  0.0018 -0.1333
    1AU    AUSL  134   8.463   1.779   7.088  0.0456  0.0423 -0.0652
    1AU     AUL  135   8.728   1.936   7.141  0.0487  0.0144 -0.0001
    1AU       S  136   8.791   1.494   7.304 -0.0168  0.0271 -0.0964
    1AU     LIG  137   9.245   1.525   7.253  0.2885  0.1244 -0.0436
    1AU     LIG  138   9.653   1.374   7.093  0.0133 -0.2078 -0.2301
    1AU     LIG  139   9.930   1.182   6.869  0.1879 -0.0526 -0.1472
    1AU       S  140   9.128   1.826   6.887  0.2561  0.3422 -0.2810
    1AU     LIG  141   9.446   1.609   6.705  0.4199  0.1875 -0.2630
    1AU     LIG  142   9.823   1.448   6.471  0.1302  0.4264  0.0446
    1AU     LIG  143   9.880   0.976   6.395 -0.0779  0.3092 -0.1683
    1AU    AUSL  144   7.188   1.923   7.039  0.0683  0.0630 -0.0035
    1AU    AUSL  145   7.399   1.516   7.097 -0.1011  0.0432  0.0421
    1AU     AUL  146   7.030   1.565   7.116 -0.0295  0.0384  0.0909
    1AU       S  147   6.700   1.913   7.000  0.2748 -0.0328  0.0081
    1AU     LIG  148   6.495   2.309   6.864 -0.0017  0.3237  0.1993
    1AU     LIG  149   6.197   2.655   6.838 -0.0169 -0.0108 -0.3884
    1AU     LIG  150   6.160   2.951   6.539  0.0419  0.4436 -0.0438
    1AU       S  151   7.252   1.732   7.509  0.2389  0.2062  0.4397
    1AU     LIG  152   6.886   1.961   7.455  0.1340  0.2154 -0.0051
    1AU     LIG  153   6.731   2.317   7.443  0.1312 -0.0297  0.1620
    1AU     LIG  154   6.701   2.599   7.229  0.2190  0.0828 -0.0285
    1AU    AUSL  155   6.998   2.033   6.657 -0.0365 -0.0321  0.0883
    1AU    AUSL  156   7.299   2.308   6.850 -0.0285 -0.0283  0.0009
    1AU     AUL  157   7.071   2.185   7.091 -0.0094 -0.0189  0.0153
    1AU       S  158   7.063   2.548   6.795  0.2376 -0.3273  0.1383
    1AU     LIG  159   6.672   2.732   6.740  0.1063 -0.0339 -0.1443
    1AU     LIG  160   6.558   3.071   7.036  0.2309 -0.1997  0.0273
    1AU     LIG  161   6.156   3.301   7.071 -0.2706  0.0745 -0.2302
    1AU       S  162   6.852   2.090   6.703  0.0775  0.1800  0.3878
    1AU     LIG  163   6.433   1.972   6.487 -0.2722 -0.3570 -0.0432
    1AU     LIG  164   6.076   2.201   6.577 -0.3382 -0.0125  0.3752
    1AU     LIG  165   5.635   2.012   6.525 -0.0416 -0.1834 -0.1774
    1AU    AUSL  166   7.840   1.590   5.592  0.0429  0.0027 -0.0109
    1AU    AUSL  167   7.444   1.520   5.791 -0.0578 -0.0272  0.0275
    1AU     AUL  168   7.494   1.487   5.438 -0.0326  0.0084  0.0557
    1AU       S  169   7.256   1.883   5.463 -0.1576 -0.2161 -0.2993
    1AU     LIG  170   7.191   1.816   4.975 -0.0967 -0.1464  0.1999
    1AU     LIG  171   6.841   2.024   4.874  0.2442  0.1932  0.0652
    1AU     LIG  172   6.533   1.995   4.563 -0.2205 -0.1910 -0.2196
    1AU       S  173   7.901   1.350   5.230 -0.3553  0.1285 -0.3740
    1AU     LIG  174   8.073   1.402   4.877 -0.1016  0.1935  0.1393
    1AU     LIG  175   8.268   1.199   4.592 -0.1359 -0.2970 -0.0578
    1AU     LIG  176   8.535   1.306   4.329  0.0199 -0.1054  0.1335
    1AU    AUSL  177   7.667   1.175   5.695  0.0335 -0.0524  0.0154
    1AU    AUSL  178   7.970   0.900   5.901 -0.1150 -0.0009 -0.0094
    1AU     AUL  179   7.628   0.848   5.690 -0.0446 -0.0131  0.1233
    1AU       S  180   7.876   1.136   5.400  0.0375 -0.1457 -0.3471
    1AU     LIG  181   7.511   1.002   5.244  0.0615 -0.5233  0.2761
    1AU     LIG  182   7.377   0.892   4.985 -0.1250 -0.0879 -0.1890
    1AU     LIG  183   7.200   0.837   4.617 -0.0632 -0.1725 -0.2002
    1AU       S  184   7.972   0.553   5.783  0.0332  0.3338  0.1307
    1AU     LIG  185   8.296   0.401   5.721  0.0011 -0.0583 -0.0668
    1AU     LIG  186   8.567   0.058   5.697 -0.3707  0.0105  0.2664
    1AU     LIG  187   8.915   0.063   5.522 -0.0440 -0.0504  0.1789
    1AU    AUSL  188   8.038   1.315   5.849 -0.0789 -0.0277  0.1186
    1AU    AUSL  189   8.192   1.816   5.676  0.0452  0.0096  0.0242
    1AU     AUL  190   8.209   1.502   5.538  0.0283 -0.0936  0.0692
    1AU       S  191   8.573   1.825   5.527  0.1482 -0.0400 -0.2861
    1AU     LIG  192   8.315   1.863   5.226 -0.0003  0.2711  0.3082
    1AU     LIG  193   8.112   2.002   4.886 -0.0078 -0.1765  0.2259
    1AU     LIG  194   7.833   1.843   4.558 -0.5252  0.0619 -0.2114
    1AU       S  195   8.099   1.054   5.475  0.0527  0.1336 -0.3394
    1AU     LIG  196   8.390   0.865   5.539 -0.3198  0.0944  0.1957
    1AU     LIG  197   8.626   0.738   5.709 -0.2421  0.2769  0.3859
    1AU     LIG  198   8.751   0.378   5.982  0.0532 -0.2636  0.0517
    1AU    AUSL  199   7.932   2.559   6.662  0.0350  0.0126  0.0438
    1AU    AUSL  200   8.366   2.361   6.794  0.0586 -0.0170  0.0380
    1AU     AUL  201   8.303   2.745   6.652 -0.1010 -0.0737 -0.0187
    1AU       S  202   8.596   2.501   6.956  0.1070  0.1079 -0.3044
    1AU     LIG  203   8.757   2.750   7.112  0.0669  0.3493  0.1546
    1AU     LIG  204   8.856   3.195   7.201 -0.1743 -0.1203  0.1829
    1AU     LIG  205   9.089   3.569   7.145  0.3121  0.0340 -0.1926
    1AU       S  206   7.925   2.928   6.859  0.3894  0.4788 -0.1529
    1AU     LIG  207   8.150   3.259   6.692 -0.0444  0.1237 -0.3093
    1AU     LIG  208   8.285   3.688   6.742 -0.0985  0.1782  0.0653
    1AU     LIG  209   8.064   4.096   6.478  0.2457  0.2882  0.1175
    1AU    AUSL  210   7.722   2.267   6.945  0.0433 -0.0147 -0.0659
    1AU    AUSL  211   7.516   2.541   6.541  0.0255 -0.0244 -0.0171
    1AU     AUL  212   7.569   2.589   6.848  0.0530  0.0001  0.0722
    1AU       S  213   7.798   2.829   7.156  0.4306  0.2585  0.1168
    1AU     LIG  214   7.528   3.213   7.160 -0.1550  0.0445 -0.3478
    1AU     LIG  215   7.286   3.488   6.962 -0.6026  0.2942 -0.2121
    1AU     LIG  216   7.302   3.987   6.919 -0.1161  0.0230 -0.0487
    1AU       S  217   7.230   2.776   6.588  0.3992 -0.3541 -0.0902
    1AU     LIG  218   7.400   3.056   6.732 -0.0146  0.3039  0.2230
    1AU     LIG  219   7.710   3.358   6.715 -0.1455  0.0219  0.0409
    1AU     LIG  220   7.790   3.756   6.753  0.0430  0.0294 -0.1438
    1AU    AUSL  221   8.063   2.461   7.062 -0.0098 -0.0484 -0.0941
    1AU    AUSL  222   7.858   2.155   7.350 -0.0351 -0.0201 -0.0239
    1AU     AUL  223   7.706   2.411   7.298 -0.0305  0.1318 -0.0047
    1AU       S  224   8.084   2.340   7.591 -0.1260  0.1589 -0.4771
    1AU     LIG  225   7.782   2.780   7.645 -0.0439  0.0910  0.1365
    1AU     LIG  226   7.878   3.197   7.517  0.0351  0.0473  0.0907
    1AU     LIG  227   8.011   3.456   7.252  0.1429 -0.0372 -0.1628
    1AU       S  228   8.129   2.635   7.117  0.0599  0.1273 -0.1319
    1AU     LIG  229   8.356   3.036   7.130 -0.3107  0.3351 -0.1140
    1AU     LIG  230   8.486   3.513   7.134 -0.4295  0.2192 -0.3662
    1AU     LIG  231   8.740   3.927   6.956 -0.2166 -0.2971  0.0171
    1AU    AUSL  232   7.859   0.757   6.288 -0.0350 -0.0107  0.0999
    1AU    AUSL  233   8.188   1.045   6.244  0.0198 -0.0268  0.0131
    1AU     AUL  234   8.231   0.780   6.053 -0.0024 -0.0427  0.1319
    1AU       S  235   7.865   0.480   6.198 -0.0258 -0.0564  0.1640
    1AU     LIG  236   7.994   0.094   6.436  0.2864 -0.0030 -0.0938
    1AU     LIG  237   7.839  -0.417   6.325 -0.1676  0.1081 -0.1933
    1AU     LIG  238   7.955  -0.851   6.346 -0.0315  0.0793 -0.0922
    1AU       S  239   8.325   0.493   6.393  0.1609 -0.1514  0.1122
    1AU     LIG  240   8.469   0.085   6.256 -0.0196 -0.0453 -0.3042
    1AU     LIG  241   8.343  -0.313   6.433 -0.0724 -0.3032  0.0162
    1AU     LIG  242   8.230  -0.558   6.783  0.1284  0.4033  0.0403
    1AU    AUSL  243   7.650   1.108   6.129 -0.0207 -0.0768 -0.0420
    1AU    AUSL  244   7.477   0.845   6.464 -0.0348 -0.0175 -0.0272
    1AU     AUL  245   7.488   0.792   6.133 -0.0987 -0.0406 -0.0834
    1AU       S  246   7.765   0.447   5.947 -0.4992 -0.3052 -0.1136
    1AU     LIG  247   7.294   0.344   6.064  0.0028  0.2783 -0.0205
    1AU     LIG  248   6.882   0.328   6.185 -0.3794 -0.2023 -0.2580
    1AU     LIG  249   6.492   0.161   5.961  0.2957  0.1295  0.0675
    1AU       S  250   7.106   0.661   6.412  0.2376 -0.0048 -0.3367
    1AU     LIG  251   7.002   0.559   6.875  0.0989 -0.2292  0.2360
    1AU     LIG  252   6.597   0.445   7.169 -0.0669  0.3459 -0.2189
    1AU     LIG  253   6.175   0.421   7.429  0.2035  0.4713 -0.3418
    1AU    AUSL  254   8.034   1.769   7.271 -0.0942 -0.0202 -0.0448
    1AU    AUSL  255   7.591   1.891   7.188  0.0528 -0.0612  0.0633
    1AU     AUL  256   7.862   1.949   7.522 -0.0236  0.0040  0.1257
    1AU       S  257   7.380   1.889   7.472 -0.0270  0.1328  0.0324
    1AU     LIG  258   7.260   2.294   7.571 -0.0420  0.0431  0.0358
    1AU     LIG  259   7.332   2.683   7.265  0.1738 -0.2411  0.0107
    1AU     LIG  260   7.047   2.937   7.121  0.0650  0.1391  0.2247
    1AU       S  261   8.239   2.178   7.660  0.0381 -0.0368 -0.0256
    1AU     LIG  262   8.020   2.007   8.012 -0.1781 -0.0473 -0.0357
    1AU     LIG  263   8.265   1.692   8.222 -0.1670 -0.2380 -0.4512
    1AU     LIG  264   8.753   1.680   8.301  0.2164 -0.1315  0.2342
    1AU    AUSL  265   8.272   2.127   7.209  0.1298 -0.0618 -0.0344
    1AU    AUSL  266   8.311   1.472   7.360 -0.0247 -0.0218  0.0619
    1AU     AUL  267   8.381   1.807   7.434 -0.0260 -0.0114 -0.1015
    1AU       S  268   8.648   1.423   7.445 -0.2226 -0.3830 -0.4099
    1AU     LIG  269   8.698   1.717   7.775  0.0475  0.2897  0.1395
    1AU     LIG  270   8.598   2.126   7.947 -0.2134  0.0415 -0.4987
    1AU     LIG  271   8.737   2.519   8.040  0.4636  0.2028  0.1441
    1AU       S  272   8.314   2.284   7.451 -0.1669 -0.0188  0.3083
    1AU     LIG  273   8.750   2.338   7.487 -0.2171 -0.0450  0.0087
    1AU     LIG  274   9.055   2.515   7.593 -0.0504 -0.0510 -0.5087
    1AU     LIG  275   9.330   2.855   7.414 -0.0909  0.2954  0.2085
    1AU    AUSL  276   8.434   2.259   6.037 -0.0023  0.0066  0.0189
    1AU    AUSL  277   8.186   2.350   6.405 -0.1289  0.0417  0.0217
    1AU     AUL  278   8.511   2.541   6.267 -0.0557  0.0195 -0.0567
    1AU       S  279   8.772   2.614   6.647  0.0044  0.3879 -0.0317
    1AU     LIG  280   8.662   3.079   6.701  0.0144  0.2321 -0.0535
    1AU     LIG  281   8.831   3.516   6.739  0.2610 -0.0887  0.4668
    1AU     LIG  282   9.156   3.730   6.652  0.1443  0.1280  0.1137
    1AU       S  283   8.595   2.530   5.836  0.4314  0.3078  0.1252
    1AU     LIG  284   8.775   2.994   5.828 -0.0137 -0.1463  0.0535
    1AU     LIG  285   8.580   3.217   5.470  0.2651 -0.3491  0.0311
    1AU     LIG  286   8.441   3.468   5.205 -0.1458 -0.0384  0.1079
    1AU    AUSL  287   8.075   2.497   6.036  0.0431  0.0035 -0.0512
    1AU    AUSL  288   7.698   2.321   5.794 -0.0118 -0.0412 -0.1141
    1AU     AUL  289   7.946   2.508   5.645  0.0164  0.0634  0.0220
    1AU       S  290   8.320   2.687   5.848  0.0706 -0.0463 -0.1949
    1AU     LIG  291   8.162   3.009   5.800 -0.3313 -0.0288 -0.1351
    1AU     LIG  292   7.860   3.315   5.909  0.0856  0.3756 -0.4931
    1AU     LIG  293   7.900   3.570   6.312 -0.0809 -0.0953 -0.0951
    1AU       S  294   7.588   2.649   5.853 -0.3071 -0.1530  0.0642
    1AU     LIG  295   7.713   3.005   5.569 -0.1660  0.1972 -0.1202
    1AU     LIG  296   7.536   3.414   5.428 -0.0960  0.0079  0.1038
    1AU     LIG  297   7.468   3.699   5.083  0.1118  0.1028 -0.0704
    1AU    AUSL  298   8.032   2.106   5.922  0.0013  0.0702  0.0438
    1AU    AUSL  299   8.428   1.844   6.034 -0.0829  0.0317  0.0301
    1AU     AUL  300   8.308   2.133   5.735 -0.1027  0.0534  0.1197
    1AU       S  301   8.697   1.852   5.746 -0.0790 -0.2197 -0.2836
    1AU     LIG  302   8.942   2.143   5.932 -0.0077 -0.1358  0.0867
    1AU     LIG  303   9.301   1.984   6.252  0.0135 -0.0200 -0.0181
    1AU     LIG  304   9.635   2.006   6.363  0.4277 -0.3754  0.2760
    1AU       S  305   8.382   2.554   5.675 -0.0585  0.0834  0.5069
    1AU     LIG  306   8.708   2.743   5.383 -0.4240 -0.0081 -0.4580
    1AU     LIG  307   9.024   3.022   5.242 -0.3133 -0.3732 -0.1467
    1AU     LIG  308   9.486   3.295   5.120  0.3109 -0.1623 -0.0154
    1AU    AUSL  309   8.380   0.998   6.945 -0.0982  0.0530 -0.0118
    1AU    AUSL  310   8.127   0.875   6.631 -0.0781  0.0459  0.0714
    1AU     AUL  311   8.601   0.883   6.787  0.0354  0.0655 -0.0626
    1AU       S  312   8.424   0.630   7.105 -0.1020 -0.1325  0.0740
    1AU     LIG  313   8.575   0.177   7.281  0.0199  0.2049 -0.1215
    1AU     LIG  314   8.908  -0.076   7.469  0.2074  0.0341  0.0857
    1AU     LIG  315   9.222  -0.258   7.866  0.0678  0.0212  0.2880
    1AU       S  316   8.213   0.632   6.614 -0.0682 -0.2360 -0.2548
    1AU     LIG  317   7.786   0.491   6.693 -0.1980  0.0194  0.0304
    1AU     LIG  318   7.476   0.317   6.520 -0.0821 -0.2231 -0.3675
    1AU     LIG  319   7.425  -0.162   6.464 -0.1222 -0.3189 -0.0498
    1AU    AUSL  320   8.064   1.258   7.123  0.0195  0.0728 -0.1119
    1AU    AUSL  321   8.498   1.397   6.951  0.0268 -0.0294  0.0478
    1AU     AUL  322   8.420   1.110   7.232  0.0248  0.0641 -0.0173
    1AU       S  323   8.270   0.664   7.324  0.0159 -0.1061 -0.1494
    1AU     LIG  324   8.528   0.524   7.645  0.2611  0.2170  0.1676
    1AU     LIG  325   8.978   0.409   7.661  0.6150  0.2520  0.1474
    1AU     LIG  326   9.350   0.629   7.691  0.2749  0.1811  0.2250
    1AU       S  327   8.819   1.282   7.104  0.3125  0.0844 -0.0593
    1AU     LIG  328   9.001   1.126   6.908 -0.0625 -0.0371  0.1571
    1AU     LIG  329   9.030   0.706   6.534  0.0723  0.2128  0.5467
    1AU     LIG  330   9.178   0.338   6.436  0.3751 -0.0615  0.1359
    1AU    AUSL  331   7.966   0.846   7.017  0.0087  0.0103  0.0314
    1AU    AUSL  332   7.667   1.140   7.211  0.0359  0.0443  0.0078
    1AU     AUL  333   7.967   1.044   7.368  0.0541 -0.0026  0.0389
    1AU       S  334   7.528   0.842   7.242  0.1232 -0.1530  0.2552
    1AU     LIG  335   7.382   0.836   7.703  0.2779 -0.0337  0.1457
    1AU     LIG  336   6.916   0.841   7.933 -0.0244  0.0507 -0.1127
    1AU     LIG  337   6.598   0.851   8.185 -0.2548  0.1068  0.1491
    1AU       S  338   8.088   0.631   7.085  0.1344 -0.2345 -0.0558
    1AU     LIG  339   8.220   0.157   6.873  0.0881 -0.2423  0.0887
    1AU     LIG  340   8.573  -0.122   6.857  0.2471  0.0082 -0.1620
    1AU     LIG  341   8.817  -0.479   6.731 -0.1258  0.0049  0.1952
    1AU    AUSL  342   7.369   2.233   6.046 -0.1016  0.0032  0.0049
    1AU    AUSL  343   7.615   1.910   5.821 -0.0078  0.0637  0.0274
    1AU     AUL  344   7.323   2.238   5.767  0.0702  0.0304 -0.0872
    1AU       S  345   7.308   2.722   5.832 -0.1338  0.0454 -0.1427
    1AU     LIG  346   7.077   2.910   6.167  0.1765  0.1563  0.3141
    1AU     LIG  347   6.926   3.192   6.596 -0.4392 -0.1262 -0.0639
    1AU     LIG  348   6.517   3.409   6.619 -0.1160 -0.3874 -0.0142
    1AU       S  349   7.572   1.988   5.440  0.3789  0.0993  0.1017
    1AU     LIG  350   7.931   2.144   5.359 -0.3198  0.1380 -0.4910
    1AU     LIG  351   8.234   2.419   5.221 -0.3114 -0.0127 -0.1720
    1AU     LIG  352   8.677   2.272   5.309  0.0857  0.3829  0.3911
    1AU    AUSL  353   7.733   2.355   6.232  0.1095 -0.0058  0.1389
    1AU    AUSL  354   7.349   2.161   6.449  0.0011  0.0042  0.0206
    1AU     AUL  355   7.353   2.478   6.241 -0.1107  0.0418 -0.0536
    1AU       S  356   7.666   2.758   6.055  0.0558 -0.1636 -0.1503
    1AU     LIG  357   7.903   2.935   6.312 -0.3379 -0.0104 -0.2737
    1AU     LIG  358   8.382   3.073   6.278  0.1486 -0.0114  0.4116
    1AU     LIG  359   8.527   3.464   6.293  0.1324 -0.0402 -0.4001
    1AU       S  360   7.022   2.507   6.546  0.4359  0.4157 -0.2467
    1AU     LIG  361   6.532   2.453   6.399  0.0398 -0.0809  0.2367
    1AU     LIG  362   5.980   2.558   6.273  0.2723  0.1173  0.2202
    1AU     LIG  363   5.598   2.806   6.196  0.2162  0.1373 -0.1245
    1AU    AUSL  364   7.301   1.132   6.953 -0.0988  0.0575  0.0164
    1AU    AUSL  365   7.718   1.517   7.398  0.0574 -0.0371 -0.0102
    1AU     AUL  366   7.396   1.298   7.347  0.0178 -0.0504 -0.0598
    1AU       S  367   7.459   1.683   7.590  0.1413 -0.1774  0.0243
    1AU     LIG  368   7.495   1.268   7.814 -0.1599  0.0903 -0.3296
    1AU     LIG  369   7.847   0.977   7.879 -0.2681 -0.2331 -0.3442
    1AU     LIG  370   8.341   0.951   7.771  0.1350 -0.1960  0.3177
    1AU       S  371   7.256   0.855   7.165 -0.2823 -0.0124  0.0359
    1AU     LIG  372   6.977   0.662   7.438  0.0588  0.3444  0.0675
    1AU     LIG  373   6.716   0.376   7.663  0.2282  0.1312  0.1788
    1AU     LIG  374   6.501   0.412   7.915  0.4062 -0.3143 -0.0796
    1AU    AUSL  375   7.691   1.049   6.782 -0.0631  0.0343 -0.0349
    1AU    AUSL  376   7.335   1.240   6.542  0.0004  0.0211  0.0318
    1AU     AUL  377   7.413   0.829   6.727  0.0188  0.0649 -0.0387
    1AU       S  378   7.563   0.654   7.150  0.0636  0.1994 -0.1807
    1AU     LIG  379   7.386   0.262   6.986  0.3061  0.1989 -0.2085
    1AU     LIG  380   7.078   0.104   6.695  0.0501  0.3707 -0.3269
    1AU     LIG  381   6.716   0.194   6.775  0.0078  0.0616  0.2637
    1AU       S  382   7.008   0.948   6.591  0.7032 -0.0157 -0.2916
    1AU     LIG  383   6.830   1.119   6.962 -0.0816 -0.2558 -0.1441
    1AU     LIG  384   6.874   1.124   7.387 -0.1555 -0.0581  0.0135
    1AU     LIG  385   7.004   1.325   7.763 -0.3673  0.2085 -0.1318
    2POPC   NC3  386   1.729   0.808   8.267  0.1913  0.0365  0.1986
    2POPC   PO4  387   1.768   0.488   7.952  0.1150  0.1858 -0.2871
    2POPC   GL1  388   1.919   0.768   7.548 -0.2804  0.0326  0.1511
    2POPC   GL2  389   2.162   0.918   7.560  0.1365  0.0307  0.2116
    2POPC   C1A  390   1.568   0.898   7.147  0.4190 -0.1889 -0.2428
    2POPC   D2A  391   1.174   0.869   6.950 -0.0990  0.0302 -0.1350
    2POPC   C3A  392   1.080   1.237   6.685 -0.3555  0.0507 -0.3908
    2POPC   C4A  393   1.082   1.558   6.307 -0.1986 -0.4269 -0.1977
    2POPC   C1B  394   2.398   0.573   7.407 -0.1538  0.1411 -0.2138
    2POPC   C2B  395   2.504   0.496   7.046  0.2497  0.0428 -0.1975
    2POPC   C3B  396   2.370   0.339   6.726  0.1022 -0.2000  0.2485
    2POPC   C4B  397   2.406  -0.024   6.514 -0.4359  0.0891  0.0655
    3POPC   NC3  398   5.736   9.504   8.317  0.0060 -0.1909 -0.3267
    3POPC   PO4  399   6.246   9.498   8.228 -0.0535 -0.0647 -0.1949
    3POPC   GL1  400   6.426   9.218   7.907 -0.2202 -0.2496  0.1249
    3POPC   GL2  401   6.223   9.129   7.570 -0.4964 -0.0247 -0.0594
    3POPC   C1A  402   6.747   9.228   7.579 -0.0198 -0.1750  0.0153
    3POPC   D2A  403   6.942   9.243   7.319  0.0913 -0.1765 -0.1521
    3POPC   C3A  404   7.249   9.443   7.047 -0.0467 -0.0849  0.6536
    3POPC   C4A  405   7.770   9.700   6.921  0.0928  0.2414 -0.2934
    3POPC   C1B  406   6.413   9.217   7.133  0.1331 -0.4668 -0.1018
    3POPC   C2B  407   6.748   9.325   6.800 -0.3383 -0.3487  0.2466
    3POPC   C3B  408   7.111   9.126   6.575  0.1372  0.0854 -0.1634
    3POPC   C4B  409   7.349   8.966   6.338 -0.0985  0.0686 -0.0184
    4POPC   NC3  410   8.528   7.426   8.547 -0.1957  0.0197  0.1009
    4POPC   PO4  411   8.023   7.637   8.474 -0.3246 -0.0960  0.3129
    4POPC   GL1  412   8.233   7.375   8.197 -0.2346 -0.1172 -0.0712
    4POPC   GL2  413   8.481   7.428   8.011  0.2344 -0.1201  0.3316
    4POPC   C1A  414   8.182   7.119   7.847  0.0447 -0.0319 -0.0577
    4POPC   D2A  415   8.480   7.168   7.517 -0.3787  0.2639 -0.2921
    4POPC   C3A  416   8.347   7.309   7.175 -0.1060 -0.1115  0.1546
    4POPC   C4A  417   8.057   7.411   6.789  0.3449 -0.2032  0.0268
    4POPC   C1B  418   8.116   7.542   7.673 -0.1162 -0.0410 -0.3067
    4POPC   C2B  419   7.848   7.380   7.363  0.4654 -0.0128 -0.3772
    4POPC   C3B  420   7.546   7.205   6.989  0.0318 -0.3838 -0.2462
    4POPC   C4B  421   7.238   7.163   6.670  0.1779 -0.1160  0.0569
    5POPC   NC3  422   5.939   7.869   8.358 -0.0417  0.1413 -0.1403
    5POPC   PO4  423   5.526   7.858   8.250 -0.0503  0.0000  0.0462
    5POPC   GL1  424   5.845   8.042   7.898  0.1708 -0.0065  0.2279
    5POPC   GL2  425   5.625   8.188   7.778  0.0080  0.0604 -0.0388
    5POPC   C1A  426   5.979   7.792   7.561 -0.0198  0.3945 -0.1387
    5POPC   D2A  427   6.056   7.462   7.195  0.2399 -0.1113  0.2226
    5POPC   C3A  428   6.345   7.518   6.826 -0.0616  0.1632  0.1359
    5POPC   C4A  429   6.589   7.639   6.371  0.3577 -0.3212 -0.0642
    5POPC   C1B  430   5.671   8.349   7.305  0.0406  0.1902 -0.3785
    5POPC   C2B  431   5.654   8.532   7.039 -0.1262 -0.2644  0.2156
    5POPC   C3B  432   5.715   8.830   6.728  0.1907  0.1136  0.0085
    5POPC   C4B  433   5.622   8.832   6.230 -0.0769 -0.4031  0.1006
    6POPC   NC3  434   5.469   3.711   8.592 -0.0649  0.0547 -0.0181
    6POPC   PO4  435   5.850   3.911   8.799  0.2055  0.0393 -0.0897
    6POPC   GL1  436   5.928   3.904   8.323  0.0133  0.0528  0.0301
    6POPC   GL2  437   5.633   3.890   8.153  0.0433 -0.0815  0.0785
    6POPC   C1A  438   6.119   3.772   7.963  0.1546 -0.1686 -0.1254
    6POPC   D2A  439   6.048   3.600   7.485  0.2298 -0.2155 -0.0833
    6POPC   C3A  440   6.134   3.902   7.086  0.1079  0.0907 -0.0414
    6POPC   C4A  441   6.325   4.209   6.799  0.2674  0.0925  0.2243
    6POPC   C1B  442   5.758   4.058   7.715  0.1206 -0.3109 -0.1250
    6POPC   C2B  443   5.884   4.304   7.295  0.0933  0.2756 -0.1591
    6POPC   C3B  444   5.900   4.485   6.874  0.1133 -0.1486 -0.0905
    6POPC   C4B  445   5.700   4.782   6.589  0.1987 -0.1175 -0.1224
    7POPC   NC3  446   5.879   0.931   8.882  0.0169  0.0056  0.1930
    7POPC   PO4  447   6.105   1.196   8.687 -0.2161  0.0775 -0.1316
    7POPC   GL1  448   6.215   1.443   8.355  0.0688  0.0065 -0.2339
    7POPC   GL2  449   6.298   1.681   8.432 -0.0089 -0.0494 -0.0216
    7POPC   C1A  450   6.100   1.582   7.933  0.2973 -0.0085  0.3058
    7POPC   D2A  451   5.729   1.783   7.754  0.0007  0.1095 -0.0455
    7POPC   C3A  452   5.855   2.061   7.504 -0.2634  0.1529  0.0602
    7POPC   C4A  453   5.804   2.250   7.152  0.4884 -0.2342  0.1470
    7POPC   C1B  454   6.623   2.036   8.356 -0.3217 -0.0571  0.0324
    7POPC   C2B  455   6.780   2.384   8.082  0.2529 -0.2925 -0.1100
    7POPC   C3B  456   6.856   2.683   7.791 -0.0223 -0.2046  0.0298
    7POPC   C4B  457   6.778   2.957   7.562  0.0904 -0.1269 -0.0995
    8POPC   NC3  458   4.523   9.298   8.895 -0.1571  0.1088  0.1255
    8POPC   PO4  459   4.650   9.039   8.535  0.1926  0.1643 -0.3449
    8POPC   GL1  460   4.843   9.044   8.175  0.0363 -0.1906 -0.0853
    8POPC   GL2  461   4.890   9.340   8.086 -0.0112 -0.0314 -0.2679
    8POPC   C1A  462   4.931   8.851   7.786 -0.2080 -0.0622 -0.0035
    8POPC   D2A  463   4.802   8.812   7.429 -0.1458  0.4912  0.1475
    8POPC   C3A  464   4.753   8.515   7.039 -0.2562  0.2568  0.0829
    8POPC   C4A  465   4.901   8.333   6.473  0.2949 -0.2165 -0.2153
    8POPC   C1B  466   4.961   9.288   7.580 -0.0502  0.1078  0.0978
    8POPC   C2B  467   5.038   9.402   7.161  0.1302 -0.2575 -0.0000
    8POPC   C3B  468   5.242   9.812   6.956 -0.0510  0.2045  0.2108
    8POPC   C4B  469   5.474   9.825   6.590  0.1043 -0.2663  0.1478
    9POPC   NC3  470   3.596   6.266   8.253  0.1591 -0.0550 -0.2919
    9POPC   PO4  471   3.321   5.893   8.102 -0.0960 -0.0795 -0.2117
    9POPC   GL1  472   3.164   6.081   7.755  0.0809 -0.2119  0.3213
    9POPC   GL2  473   2.955   5.803   7.692  0.2113  0.0524 -0.2033
    9POPC   C1A  474   2.984   6.235   7.357 -0.2921 -0.0829 -0.1498
    9POPC   D2A  475   2.632   6.067   7.054  0.1550  0.0188 -0.1773
    9POPC   C3A  476   2.556   6.078   6.677 -0.0582  0.1348  0.0973
    9POPC   C4A  477   2.462   5.864   6.372 -0.0575 -0.4365  0.0049
    9POPC   C1B  478   3.045   5.735   7.281 -0.2841  0.1414  0.2116
    9POPC   C2B  479   3.326   5.466   7.102 -0.1112  0.0677 -0.0685
    9POPC   C3B  480   3.786   5.554   6.821  0.1430 -0.1169 -0.2874
    9POPC   C4B  481   4.012   5.404   6.431 -0.0964  0.1594 -0.1456
   10POPC   NC3  482   7.819   5.889   8.790  0.0093  0.0337 -0.2112
   10POPC   PO4  483   7.378   5.656   8.682 -0.3286 -0.2899  0.1098
   10POPC   GL1  484   7.325   5.620   8.190 -0.0912 -0.0190  0.0201
   10POPC   GL2  485   7.348   5.999   7.968 -0.0631  0.0287  0.1274
   10POPC   C1A  486   7.190   5.468   7.760  0.0076  0.2238  0.0357
   10POPC   D2A  487   7.009   5.435   7.338  0.0011  0.1506 -0.0578
   10POPC   C3A  488   7.247   5.003   7.246 -0.0537  0.1000  0.1576
   10POPC   C4A  489   7.616   4.817   7.203  0.0646 -0.2765 -0.1673
   10POPC   C1B  490   7.385   5.813   7.419  0.1902 -0.1254 -0.3900
   10POPC   C2B  491   7.359   5.654   7.030  0.1090 -0.0929 -0.3339
   10POPC   C3B  492   7.332   5.235   6.814 -0.1997 -0.0372 -0.2277
   10POPC   C4B  493   7.551   4.914   6.663 -0.4570  0.0646 -0.1928
   11POPC   NC3  494   3.097   4.612   8.303  0.1922  0.2344  0.3028
   11POPC   PO4  495   3.266   4.962   8.195 -0.0095  0.0158  0.1907
   11POPC   GL1  496   2.937   4.932   7.873 -0.0220 -0.1731  0.2121
   11POPC   GL2  497   2.679   4.637   7.850  0.3190 -0.0704 -0.0418
   11POPC   C1A  498   2.773   5.115   7.449 -0.1879 -0.1831  0.4123
   11POPC   D2A  499   2.670   5.079   6.945 -0.0483 -0.1300  0.1575
   11POPC   C3A  500   2.337   5.158   6.741  0.1202  0.1131 -0.0442
   11POPC   C4A  501   2.213   5.422   6.485  0.1475 -0.0075 -0.0517
   11POPC   C1B  502   2.550   4.352   7.526 -0.4523 -0.0894  0.3806
   11POPC   C2B  503   2.611   4.233   7.084  0.2117  0.1884  0.1685
   11POPC   C3B  504   2.603   4.144   6.643  0.0352  0.1675  0.0630
   11POPC   C4B  505   2.747   4.389   6.361  0.1799 -0.3753  0.0585
   12POPC   NC3  506   9.015   3.115   9.227  0.1065 -0.2822  0.0287
   12POPC   PO4  507   8.795   2.745   9.437  0.0638 -0.0708  0.0697
   12POPC   GL1  508   8.633   2.816   8.984 -0.2447 -0.2045  0.0196
   12POPC   GL2  509   8.761   3.033   8.848  0.2302  0.2359  0.4672
   12POPC   C1A  510   8.466   2.617   8.561 -0.0959  0.0808  0.0283
   12POPC   D2A  511   8.215   2.406   8.174  0.1288  0.2503 -0.3769
   12POPC   C3A  512   8.297   2.668   7.839 -0.1249  0.0785 -0.3823
   12POPC   C4A  513   8.474   2.771   7.511  0.1077  0.1985 -0.0589
   12POPC   C1B  514   8.831   3.435   8.613  0.0367 -0.4157  0.2491
   12POPC   C2B  515   9.133   3.504   8.292  0.0771 -0.0385 -0.0846
   12POPC   C3B  516   9.438   3.728   8.211 -0.0488 -0.1200 -0.1016
   12POPC   C4B  517   9.647   3.713   7.950  0.1795 -0.1111 -0.0606
   13POPC   NC3  518   2.757   9.204   8.223  0.0779 -0.0147 -0.0622
   13POPC   PO4  519   2.872   9.551   8.307 -0.4378  0.0109 -0.3258
   13POPC   GL1  520   2.995   9.682   7.871  0.3875 -0.0573 -0.2717
   13POPC   GL2  521   2.757   9.600   7.694 -0.2903 -0.0546  0.2674
   13POPC   C1A  522   3.211   9.646   7.462 -0.0306 -0.0317 -0.2022
   13POPC   D2A  523   3.075   9.534   7.160 -0.1412  0.1177  0.1677
   13POPC   C3A  524   3.203   9.720   6.808 -0.1180 -0.1447 -0.0947
   13POPC   C4A  525   3.450   9.538   6.467  0.0125  0.1474 -0.3023
   13POPC   C1B  526   2.594   9.757   7.312  0.0927  0.1326 -0.6506
   13POPC   C2B  527   2.688   9.677   6.890 -0.1322 -0.0293 -0.0565
   13POPC   C3B  528   2.835   9.476   6.568  0.0301  0.0215 -0.4818
   13POPC   C4B  529   2.624   9.289   6.209  0.1826  0.2499  0.1596
   14POPC   NC3  530   9.157   1.657   9.044 -0.2173  0.1341 -0.0378
   14POPC   PO4  531   9.518   1.670   9.085 -0.2718  0.3083 -0.2726
   14POPC   GL1  532   9.513   1.696   8.611  0.0647  0.5420 -0.1396
   14POPC   GL2  533   9.816   1.662   8.383  0.1941  0.0410 -0.2169
   14POPC   C1A  534   9.351   1.502   8.263  0.1436 -0.1228 -0.1571
   14POPC   D2A  535   9.324   1.111   8.046 -0.1712 -0.1553 -0.0296
   14POPC   C3A  536   9.066   1.149   7.608  0.5145 -0.2609  0.1934
   14POPC   C4A  537   8.863   0.858   7.403 -0.2403 -0.0533  0.2541
   14POPC   C1B  538   9.693   1.460   7.940 -0.1902 -0.3058  0.0863
   14POPC   C2B  539   9.571   1.295   7.631  0.0471  0.2024 -0.1757
   14POPC   C3B  540   9.431   1.011   7.312 -0.3792 -0.0120 -0.1360
   14POPC   C4B  541   9.180   0.598   6.992 -0.3094  0.1785 -0.0848
   15POPC   NC3  542   9.402   9.158   9.058 -0.0564  0.1058  0.3906
   15POPC   PO4  543   9.552   8.894   8.895  0.0516 -0.2047  0.1031
   15POPC   GL1  544   9.710   8.943   8.467 -0.1570 -0.0756  0.0993
   15POPC   GL2  545   9.484   8.684   8.282 -0.0846 -0.0301  0.0885
   15POPC   C1A  546   9.755   9.288   8.009  0.4328 -0.0094 -0.0282
   15POPC   D2A  547   9.674   9.275   7.645  0.1070 -0.3409 -0.1299
   15POPC   C3A  548   9.426   9.364   7.390  0.1648 -0.2083 -0.2011
   15POPC   C4A  549   9.071   9.393   7.118 -0.1429 -0.0885  0.1720
   15POPC   C1B  550   9.297   9.010   7.986  0.1321 -0.0603  0.5881
   15POPC   C2B  551   9.014   9.094   7.555  0.1184  0.0218 -0.0479
   15POPC   C3B  552   8.846   8.851   7.218 -0.4031 -0.1494  0.0278
   15POPC   C4B  553   8.663   8.689   6.865 -0.1020 -0.1763 -0.1135
   16POPC   NC3  554   8.190   6.801   8.779 -0.0112  0.1048  0.2840
   16POPC   PO4  555   8.085   7.190   8.661 -0.0219  0.2300 -0.1127
   16POPC   GL1  556   7.952   6.934   8.258 -0.0339  0.0521  0.1250
   16POPC   GL2  557   7.920   6.676   8.326  0.0609  0.0011  0.1146
   16POPC   C1A  558   7.763   6.879   7.813  0.0347 -0.1023 -0.1548
   16POPC   D2A  559   8.081   6.899   7.406 -0.1714  0.0386 -0.0363
   16POPC   C3A  560   8.078   6.855   6.962  0.0977  0.1161 -0.2443
   16POPC   C4A  561   8.177   6.606   6.608  0.0441  0.4775  0.0497
   16POPC   C1B  562   8.164   6.645   7.948 -0.0132 -0.1915  0.1825
   16POPC   C2B  563   8.602   6.649   7.599  0.1542 -0.1740  0.3943
   16POPC   C3B  564   8.575   6.671   7.068 -0.3289  0.3097 -0.3729
   16POPC   C4B  565   8.893   6.515   6.790 -0.2475  0.1082  0.1800
   17POPC   NC3  566   6.833   1.974   9.595  0.1363 -0.2726 -0.2931
   17POPC   PO4  567   6.759   1.458   9.396  0.0009 -0.3547  0.0423
   17POPC   GL1  568   6.950   1.325   8.971 -0.2852  0.2414 -0.0058
   17POPC   GL2  569   7.073   1.202   8.702  0.2028 -0.0113 -0.1255
   17POPC   C1A  570   6.725   0.929   8.861 -0.0246 -0.2988  0.2712
   17POPC   D2A  571   6.718   0.670   8.584 -0.4331 -0.2676 -0.4052
   17POPC   C3A  572   7.112   0.723   8.461  0.0618 -0.1546  0.2150
   17POPC   C4A  573   7.567   0.817   8.643 -0.0748 -0.1733  0.3005
   17POPC   C1B  574   6.715   1.332   8.485 -0.2290  0.3343 -0.0643
   17POPC   C2B  575   6.633   1.437   8.056  0.2591  0.0204  0.1186
   17POPC   C3B  576   6.532   1.403   7.648 -0.2522 -0.1180  0.0601
   17POPC   C4B  577   6.181   1.303   7.387 -0.0078 -0.1890  0.2316
   18POPC   NC3  578   0.006   6.971   8.360  0.1398 -0.0938  0.0455
   18POPC   PO4  579  -0.319   6.811   8.684  0.1798  0.0125  0.1850
   18POPC   GL1  580  -0.242   6.503   8.212  0.1273  0.0885 -0.1996
   18POPC   GL2  581   0.007   6.652   8.000 -0.1741  0.2914 -0.4422
   18POPC   C1A  582  -0.587   6.507   7.914  0.2150 -0.2904 -0.1099
   18POPC   D2A  583  -0.761   6.261   7.823 -0.1365 -0.3534 -0.0558
   18POPC   C3A  584  -0.637   5.954   7.537  0.2435  0.0876 -0.1080
   18POPC   C4A  585  -0.486   5.577   7.455 -0.0390  0.0106  0.0213
   18POPC   C1B  586   0.182   6.578   7.560 -0.1775  0.0821  0.0664
   18POPC   C2B  587   0.266   6.452   7.091 -0.2289 -0.1255 -0.1034
   18POPC   C3B  588   0.609   6.435   6.798 -0.0672  0.1616  0.2451
   18POPC   C4B  589   0.487   6.255   6.486 -0.1350  0.0659 -0.0863
   19POPC   NC3  590   5.305   0.424   8.201  0.3077 -0.3689 -0.0959
   19POPC   PO4  591   5.628   0.631   8.432  0.1930  0.0815 -0.0204
   19POPC   GL1  592   5.655   0.699   7.920 -0.3729  0.0292  0.2381
   19POPC   GL2  593   5.344   0.497   7.704  0.0181  0.3489  0.1013
   19POPC   C1A  594   5.856   0.765   7.564  0.0095  0.3429 -0.2425
   19POPC   D2A  595   5.953   0.832   7.207  0.5183  0.4736  0.2939
   19POPC   C3A  596   6.107   0.478   6.907  0.1758 -0.1042 -0.0152
   19POPC   C4A  597   6.142   0.680   6.425 -0.2445 -0.2715 -0.2943
   19POPC   C1B  598   5.318   0.857   7.487  0.1439 -0.2296  0.0945
   19POPC   C2B  599   5.188   0.769   7.006  0.1447 -0.2939  0.1305
   19POPC   C3B  600   5.220   0.570   6.669  0.3934  0.0077 -0.0237
   19POPC   C4B  601   5.572   0.536   6.385  0.2166 -0.2035 -0.1622
   20POPC   NC3  602   3.943   5.518   8.592 -0.1567 -0.0224 -0.0571
   20POPC   PO4  603   4.336   5.795   8.294  0.2264 -0.0708  0.1001
   20POPC   GL1  604   4.260   5.929   7.843 -0.2155 -0.0630  0.1033
   20POPC   GL2  605   4.107   5.693   7.781  0.0118 -0.2349  0.4084
   20POPC   C1A  606   4.245   6.063   7.384  0.1324 -0.1408  0.3185
   20POPC   D2A  607   4.401   5.759   7.049  0.2815 -0.0963 -0.2481
   20POPC   C3A  608   4.312   5.801   6.598  0.1507 -0.1238 -0.0825
   20POPC   C4A  609   4.047   5.769   6.069  0.1844 -0.2033  0.1645
   20POPC   C1B  610   4.201   5.475   7.420 -0.2087 -0.1209  0.0603
   20POPC   C2B  611   4.161   5.226   6.927 -0.2158 -0.0022  0.0190
   20POPC   C3B  612   4.219   4.972   6.399  0.0348  0.0753  0.1975
   20POPC   C4B  613   4.322   4.583   6.397 -0.3190 -0.1034 -0.0792
   21POPC   NC3  614   0.312   6.135   8.939 -0.1292 -0.0206 -0.0859
   21POPC   PO4  615   0.179   6.063   8.561  0.0777 -0.0341  0.3952
   21POPC   GL1  616   0.241   6.224   8.099 -0.2106  0.0389  0.1121
   21POPC   GL2  617   0.462   6.461   8.053  0.3251 -0.0443 -0.1272
   21POPC   C1A  618   0.171   6.032   7.632  0.0572 -0.1498 -0.2904
   21POPC   D2A  619  -0.073   5.868   7.318 -0.2350  0.0045 -0.0946
   21POPC   C3A  620  -0.089   6.181   7.067 -0.0643 -0.1515 -0.4338
   21POPC   C4A  621  -0.374   6.254   6.704 -0.3322 -0.3823  0.0209
   21POPC   C1B  622   0.615   6.324   7.653 -0.1227 -0.1918 -0.0004
   21POPC   C2B  623   0.597   6.127   7.403  0.0078 -0.0537 -0.1156
   21POPC   C3B  624   0.399   5.712   7.195 -0.1313  0.0675  0.2278
   21POPC   C4B  625   0.627   5.392   6.919 -0.2486 -0.2300 -0.1739
   22POPC   NC3  626   3.096   6.901   8.114 -0.4276  0.1240 -0.2853
   22POPC   PO4  627   3.162   6.492   8.280  0.0609 -0.0336 -0.1517
   22POPC   GL1  628   3.359   6.499   7.902 -0.1788  0.2102 -0.0595
   22POPC   GL2  629   3.616   6.773   7.908 -0.1435 -0.1608  0.1570
   22POPC   C1A  630   3.246   6.692   7.533  0.4156 -0.0736  0.2244
   22POPC   D2A  631   3.227   6.664   7.152 -0.2894  0.1104  0.2307
   22POPC   C3A  632   3.317   6.782   6.793  0.0479  0.3445 -0.0191
   22POPC   C4A  633   3.296   6.855   6.315 -0.0749  0.0579 -0.1508
   22POPC   C1B  634   3.737   6.796   7.499  0.1684  0.1921 -0.2245
   22POPC   C2B  635   3.859   6.765   6.997  0.1576  0.0312  0.0243
   22POPC   C3B  636   3.848   6.645   6.497 -0.0057 -0.2023 -0.0547
   22POPC   C4B  637   3.750   6.579   6.180  0.0095 -0.0058 -0.2971
   23POPC   NC3  638   3.388   9.549   8.355  0.3059  0.0839 -0.2090
   23POPC   PO4  639   3.271   9.289   8.065 -0.2306  0.1584  0.0194
   23POPC   GL1  640   2.922   8.975   7.794  0.1113  0.0206  0.1048
   23POPC   GL2  641   2.532   9.202   7.778  0.2439  0.1694 -0.0377
   23POPC   C1A  642   2.826   9.041   7.362  0.0459  0.1635 -0.1023
   23POPC   D2A  643   2.662   9.114   6.950  0.0644 -0.1660  0.0436
   23POPC   C3A  644   2.782   8.998   6.537  0.1138  0.2550 -0.1306
   23POPC   C4A  645   2.706   8.645   6.409 -0.0568 -0.0291 -0.4088
   23POPC   C1B  646   2.383   9.331   7.319 -0.0472  0.3843  0.1612
   23POPC   C2B  647   2.249   9.361   6.812 -0.0958 -0.1787  0.0055
   23POPC   C3B  648   2.182   8.981   6.615 -0.0524 -0.2333  0.3266
   23POPC   C4B  649   2.155   8.559   6.641  0.0298  0.3582 -0.3593
   24POPC   NC3  650   5.179   7.932   8.743  0.0462  0.2415  0.0071
   24POPC   PO4  651   5.113   8.206   8.306 -0.2112  0.0520  0.2981
   24POPC   GL1  652   5.137   8.290   7.884 -0.1352  0.3548  0.1555
   24POPC   GL2  653   5.116   7.949   7.816  0.2262 -0.0895 -0.1334
   24POPC   C1A  654   5.219   8.520   7.504  0.0531 -0.0687  0.1019
   24POPC   D2A  655   5.214   8.391   7.097 -0.1134 -0.0874  0.3259
   24POPC   C3A  656   5.220   8.665   6.752 -0.1094 -0.1096  0.0097
   24POPC   C4A  657   5.175   8.920   6.426 -0.2642  0.1139 -0.3909
   24POPC   C1B  658   5.190   7.948   7.422 -0.2649 -0.0997 -0.3123
   24POPC   C2B  659   5.567   7.874   7.244 -0.1577  0.1565  0.1847
   24POPC   C3B  660   5.868   7.716   6.781 -0.1602 -0.2195 -0.1253
   24POPC   C4B  661   6.089   7.540   6.389  0.1010  0.1341 -0.0695
   25POPC   NC3  662   3.143   1.547   8.222  0.1791 -0.1880  0.1972
   25POPC   PO4  663   3.447   1.965   8.127  0.0353  0.0211 -0.0089
   25POPC   GL1  664   3.599   2.202   7.669 -0.0599  0.0787 -0.0461
   25POPC   GL2  665   3.817   2.448   7.648  0.0303  0.1005 -0.1929
   25POPC   C1A  666   3.419   2.394   7.298 -0.2885 -0.1030 -0.1780
   25POPC   D2A  667   3.359   2.320   6.941  0.0874 -0.0322  0.1906
   25POPC   C3A  668   3.477   2.671   6.593  0.1804  0.2992 -0.0159
   25POPC   C4A  669   3.441   3.178   6.574 -0.1049  0.2519  0.0200
   25POPC   C1B  670   3.930   2.254   7.268  0.1878  0.0414 -0.2985
   25POPC   C2B  671   4.250   2.290   6.905 -0.1392 -0.1502 -0.2944
   25POPC   C3B  672   4.269   2.015   6.596  0.3185 -0.2890 -0.2101
   25POPC   C4B  673   4.180   2.053   6.158  0.0094  0.0799 -0.1323
   26POPC   NC3  674   0.040   8.370   8.617  0.1382 -0.0231 -0.0327
   26POPC   PO4  675   0.502   8.609   8.405  0.0232 -0.0136 -0.1372
   26POPC   GL1  676   0.261   8.500   8.078  0.1346  0.0648  0.2706
   26POPC   GL2  677   0.105   8.199   7.968 -0.2159 -0.3605  0.2759
   26POPC   C1A  678   0.134   8.864   7.849 -0.2480  0.2620  0.0331
   26POPC   D2A  679   0.104   8.938   7.405  0.0748  0.2588 -0.0412
   26POPC   C3A  680   0.090   8.960   6.971 -0.1936  0.2014  0.0295
   26POPC   C4A  681   0.070   8.827   6.554  0.1029 -0.0297  0.0618
   26POPC   C1B  682  -0.217   8.478   7.844 -0.0352 -0.0593  0.0829
   26POPC   C2B  683  -0.348   8.768   7.531  0.2081  0.0407  0.2903
   26POPC   C3B  684  -0.362   8.926   7.144 -0.0767  0.1777  0.2570
   26POPC   C4B  685  -0.404   9.038   6.705  0.0191 -0.0238  0.1512
   27POPC   NC3  686   1.356   7.311   8.476  0.2096 -0.3578 -0.1709
   27POPC   PO4  687   0.889   7.228   8.350 -0.3472 -0.0781 -0.1741
   27POPC   GL1  688   1.176   7.119   8.030  0.0415 -0.0434  0.1844
   27POPC   GL2  689   1.208   7.427   7.781  0.2916  0.1170  0.2077
   27POPC   C1A  690   1.289   6.846   7.709 -0.4769 -0.0874  0.1884
   27POPC   D2A  691   1.288   6.870   7.303 -0.0694 -0.1622 -0.1158
   27POPC   C3A  692   1.649   7.011   7.118 -0.0386  0.2100 -0.2539
   27POPC   C4A  693   1.782   7.113   6.730 -0.2933 -0.3720  0.0093
   27POPC   C1B  694   1.501   7.324   7.488 -0.0775  0.0038 -0.2295
   27POPC   C2B  695   1.492   7.449   7.060 -0.2056  0.0321  0.1320
   27POPC   C3B  696   1.787   7.622   6.702 -0.0889 -0.2396 -0.1486
   27POPC   C4B  697   1.872   7.639   6.202 -0.0366 -0.4004 -0.0344
   28POPC   NC3  698   5.154   5.286   8.986 -0.2665 -0.2828 -0.3205
   28POPC   PO4  699   5.323   5.175   8.546  0.0877 -0.1802 -0.1750
   28POPC   GL1  700   5.210   5.265   8.085  0.1419  0.5236  0.0320
   28POPC   GL2  701   4.870   5.033   7.969  0.0091  0.2304  0.1188
   28POPC   C1A  702   5.239   5.235   7.670  0.0747  0.0140 -0.0651
   28POPC   D2A  703   5.468   5.135   7.333 -0.1197 -0.2500  0.4322
   28POPC   C3A  704   5.585   4.750   7.193 -0.2647  0.1804 -0.1623
   28POPC   C4A  705   5.307   4.502   6.989  0.2585  0.2042  0.3430
   28POPC   C1B  706   4.814   5.075   7.461  0.1526  0.2963  0.1405
   28POPC   C2B  707   5.117   4.999   6.979 -0.0054  0.1338 -0.4193
   28POPC   C3B  708   5.245   4.918   6.652  0.0281  0.1959  0.2147
   28POPC   C4B  709   5.335   5.111   6.270  0.1225 -0.1169  0.1480
   29POPC   NC3  710   4.155   4.877   8.440  0.1227 -0.1777  0.1668
   29POPC   PO4  711   4.493   4.796   8.232  0.0644  0.0961  0.3338
   29POPC   GL1  712   4.289   4.779   7.846  0.3244 -0.2722 -0.0989
   29POPC   GL2  713   4.522   4.698   7.639  0.1759 -0.0926 -0.2035
   29POPC   C1A  714   3.833   4.723   7.609  0.2744  0.0773  0.0944
   29POPC   D2A  715   3.446   4.613   7.755 -0.1625  0.1356 -0.1265
   29POPC   C3A  716   3.211   4.579   7.452 -0.1650 -0.1856 -0.1485
   29POPC   C4A  717   2.887   4.624   7.270  0.1471  0.3012 -0.2316
   29POPC   C1B  718   4.244   4.855   7.327  0.0355 -0.2840 -0.1082
   29POPC   C2B  719   3.818   4.683   7.109  0.3179 -0.0794  0.1085
   29POPC   C3B  720   3.821   4.599   6.536  0.0013  0.3026 -0.1346
   29POPC   C4B  721   3.921   4.421   6.244 -0.2110 -0.0588  0.0143
   30POPC   NC3  722   0.602   2.762   8.802 -0.1515 -0.4341  0.1953
   30POPC   PO4  723   0.389   2.485   9.065  0.0180 -0.0096 -0.2017
   30POPC   GL1  724   0.238   2.479   8.692 -0.0452  0.1003  0.1191
   30POPC   GL2  725   0.468   2.225   8.559  0.3244 -0.4531 -0.2350
   30POPC   C1A  726   0.159   2.717   8.305 -0.1054  0.1429 -0.0941
   30POPC   D2A  727  -0.044   2.684   7.958  0.0267  0.4242  0.2422
   30POPC   C3A  728   0.094   2.607   7.540  0.1778  0.1300  0.3552
   30POPC   C4A  729   0.307   2.759   7.381  0.1394  0.0835  0.1007
   30POPC   C1B  730   0.034   2.209   8.205  0.0421  0.1552 -0.3302
   30POPC   C2B  731  -0.281   2.278   7.801  0.0735  0.1211  0.0760
   30POPC   C3B  732  -0.212   2.280   7.356 -0.0861 -0.0229 -0.2257
   30POPC   C4B  733   0.241   2.220   7.267 -0.1120 -0.3438  0.0807
   31POPC   NC3  734   4.285   1.892   8.319  0.0743 -0.1540  0.1954
   31POPC   PO4  735   4.285   1.596   7.898 -0.1298  0.1601 -0.2558
   31POPC   GL1  736   4.088   1.457   7.567 -0.0374  0.0453  0.2104
   31POPC   GL2  737   4.305   1.193   7.579  0.6304  0.0209  0.0537
   31POPC   C1A  738   3.917   1.513   7.216  0.3273 -0.0962  0.1787
   31POPC   D2A  739   3.659   1.447   6.830 -0.1303  0.5303  0.0979
   31POPC   C3A  740   3.201   1.487   6.607  0.1525  0.4209  0.2215
   31POPC   C4A  741   2.990   1.385   6.175  0.3531 -0.0522  0.0679
   31POPC   C1B  742   4.430   1.260   7.081  0.0707 -0.0364  0.3809
   31POPC   C2B  743   4.558   1.175   6.704  0.0130 -0.4275 -0.0447
   31POPC   C3B  744   4.727   1.223   6.302 -0.1283 -0.1638  0.0562
   31POPC   C4B  745   5.076   1.196   6.017 -0.0425  0.1649  0.1269
   32POPC   NC3  746   5.314   5.771   8.131  0.2588 -0.2077  0.3334
   32POPC   PO4  747   4.897   5.810   7.989  0.0084  0.0458  0.1336
   32POPC   GL1  748   4.861   5.559   7.640 -0.0640  0.2727 -0.1432
   32POPC   GL2  749   4.664   5.793   7.536  0.2085 -0.0145  0.1321
   32POPC   C1A  750   5.002   5.488   7.182 -0.1390 -0.3709  0.4462
   32POPC   D2A  751   5.023   5.397   6.718  0.1973  0.1174  0.0788
   32POPC   C3A  752   4.811   4.935   6.380  0.3820  0.2771 -0.0205
   32POPC   C4A  753   4.783   4.630   6.101  0.0391  0.1397 -0.1673
   32POPC   C1B  754   4.748   6.234   7.508 -0.0781  0.1013  0.3615
   32POPC   C2B  755   4.743   6.619   7.170  0.0847  0.0817  0.0590
   32POPC   C3B  756   5.110   6.920   7.063  0.1012 -0.0334  0.1793
   32POPC   C4B  757   5.422   6.930   7.332  0.0076 -0.2920 -0.0786
   33POPC   NC3  758   7.338   8.265   8.382  0.1485 -0.1018  0.3165
   33POPC   PO4  759   6.976   8.078   8.419 -0.4229 -0.2747  0.1490
   33POPC   GL1  760   7.125   7.995   8.005 -0.0145  0.0729  0.1186
   33POPC   GL2  761   7.136   7.724   7.854  0.1022  0.0498  0.0471
   33POPC   C1A  762   7.316   8.227   7.579 -0.0339  0.0551  0.1506
   33POPC   D2A  763   7.605   8.379   7.346 -0.1242 -0.1846 -0.2350
   33POPC   C3A  764   7.872   8.212   7.036 -0.0076 -0.1788  0.0681
   33POPC   C4A  765   8.124   8.459   6.648  0.2590  0.1525 -0.2250
   33POPC   C1B  766   7.055   7.851   7.452 -0.1195 -0.2026 -0.4145
   33POPC   C2B  767   7.147   8.109   7.121 -0.0870 -0.1933  0.2580
   33POPC   C3B  768   7.037   8.498   6.758  0.2257 -0.1363  0.1275
   33POPC   C4B  769   6.879   8.683   6.391 -0.3676  0.1574  0.1854
   34POPC   NC3  770   0.435   3.993   9.089 -0.2641  0.1892  0.0589
   34POPC   PO4  771   0.459   3.940   8.707 -0.1364 -0.1395  0.0753
   34POPC   GL1  772   0.339   3.712   8.312 -0.3819  0.0499  0.2352
   34POPC   GL2  773   0.327   3.916   8.014 -0.1730  0.1047 -0.2566
   34POPC   C1A  774   0.244   3.274   8.201  0.0975 -0.1508 -0.2047
   34POPC   D2A  775  -0.114   3.238   8.230 -0.2939  0.0299  0.1257
   34POPC   C3A  776  -0.399   3.142   7.932  0.2632 -0.1281  0.1602
   34POPC   C4A  777  -0.827   3.027   7.716  0.1583  0.0818  0.1412
   34POPC   C1B  778   0.260   3.783   7.527  0.0804 -0.2401  0.2606
   34POPC   C2B  779   0.189   3.723   7.111  0.1766 -0.0076  0.0933
   34POPC   C3B  780  -0.005   3.460   6.778  0.0632 -0.2165 -0.1371
   34POPC   C4B  781  -0.182   3.531   6.417 -0.0757  0.1203  0.2056
   35POPC   NC3  782   3.048   0.617   8.501  0.1168  0.0943 -0.1940
   35POPC   PO4  783   2.774   0.832   8.187  0.3149  0.1002  0.1235
   35POPC   GL1  784   2.943   0.768   7.828 -0.3788 -0.2450 -0.1098
   35POPC   GL2  785   2.888   0.504   7.653  0.1234  0.3432 -0.0496
   35POPC   C1A  786   3.280   0.760   7.414 -0.0820  0.1849  0.0188
   35POPC   D2A  787   3.414   0.638   6.886 -0.1140  0.0782 -0.1877
   35POPC   C3A  788   3.537   0.957   6.573  0.1184  0.0621  0.0367
   35POPC   C4A  789   3.458   1.254   6.278  0.0231  0.0017  0.0912
   35POPC   C1B  790   3.007   0.391   7.178  0.3703  0.0096 -0.1745
   35POPC   C2B  791   2.963   0.491   6.727 -0.1597  0.0735 -0.1768
   35POPC   C3B  792   2.884   0.287   6.364 -0.1689 -0.0010 -0.2412
   35POPC   C4B  793   2.921  -0.034   6.121 -0.5147 -0.1172  0.6017
   36POPC   NC3  794   1.588   6.169   8.622  0.2853  0.0383 -0.1013
   36POPC   PO4  795   1.737   6.688   8.601 -0.2716  0.1534  0.0546
   36POPC   GL1  796   1.898   6.406   8.338 -0.0164  0.2387 -0.2540
   36POPC   GL2  797   1.585   6.373   8.188 -0.2545 -0.0223  0.1044
   36POPC   C1A  798   2.114   6.241   7.972  0.2962  0.1957 -0.0041
   36POPC   D2A  799   1.945   6.163   7.591  0.0995  0.0535  0.1126
   36POPC   C3A  800   2.235   6.345   7.234  0.0112 -0.0467  0.1962
   36POPC   C4A  801   2.381   6.505   6.775 -0.3398 -0.2032 -0.0802
   36POPC   C1B  802   1.576   6.443   7.809 -0.0453  0.0355 -0.0658
   36POPC   C2B  803   1.629   6.531   7.374  0.0474  0.0927  0.0830
   36POPC   C3B  804   1.414   6.421   6.965 -0.1217  0.2090  0.1372
   36POPC   C4B  805   1.138   6.321   6.602  0.0577 -0.1487 -0.1811
   37POPC   NC3  806   4.803   4.463   8.516 -0.2364 -0.0390 -0.0042
   37POPC   PO4  807   5.269   4.147   8.666 -0.2223 -0.0099  0.3736
   37POPC   GL1  808   5.276   4.412   8.443 -0.2246  0.1050 -0.7714
   37POPC   GL2  809   5.310   4.673   8.457 -0.3704  0.0781 -0.1358
   37POPC   C1A  810   5.223   4.220   7.957  0.2402 -0.0677 -0.0447
   37POPC   D2A  811   4.921   4.074   7.682 -0.0820  0.0407  0.1615
   37POPC   C3A  812   4.735   3.770   7.371  0.0952  0.3935  0.2237
   37POPC   C4A  813   4.902   3.629   6.914 -0.3446  0.1315 -0.1534
   37POPC   C1B  814   5.254   4.750   7.981 -0.1387 -0.2402  0.0617
   37POPC   C2B  815   5.039   4.629   7.582  0.1188 -0.4387  0.1424
   37POPC   C3B  816   4.836   4.603   7.168  0.0994  0.2150  0.6504
   37POPC   C4B  817   4.637   5.018   6.863 -0.0499  0.2788 -0.0917
   38POPC   NC3  818   3.200   8.600   8.696  0.1850  0.0790 -0.1026
   38POPC   PO4  819   3.214   8.357   8.358  0.1102  0.0953 -0.1468
   38POPC   GL1  820   3.214   8.443   7.942  0.2778 -0.3177  0.0903
   38POPC   GL2  821   3.553   8.385   7.916 -0.1082  0.0941  0.3259
   38POPC   C1A  822   3.271   8.650   7.597  0.2108  0.1934 -0.2191
   38POPC   D2A  823   3.392   8.491   7.134  0.3780  0.1493 -0.1332
   38POPC   C3A  824   3.734   8.236   6.901  0.0520 -0.0093 -0.0726
   38POPC   C4A  825   3.815   8.092   6.515  0.1865 -0.2797 -0.0752
   38POPC   C1B  826   3.815   8.403   7.612  0.0237  0.4337  0.0667
   38POPC   C2B  827   4.112   8.437   7.155  0.0816  0.1180  0.0758
   38POPC   C3B  828   4.327   8.330   6.704 -0.1936 -0.1651 -0.3098
   38POPC   C4B  829   4.422   8.312   6.277  0.1472 -0.1480  0.1016
   39POPC   NC3  830   0.862   0.923   8.528  0.1214  0.1136 -0.0595
   39POPC   PO4  831   1.137   0.678   8.313 -0.1807 -0.1013  0.2174
   39POPC   GL1  832   1.008   0.559   7.907  0.2354 -0.1997 -0.3527
   39POPC   GL2  833   1.230   0.384   7.791  0.0876 -0.2678 -0.0285
   39POPC   C1A  834   1.048   0.657   7.416 -0.4519  0.1175 -0.2692
   39POPC   D2A  835   0.752   0.688   7.053  0.0156  0.0219  0.0811
   39POPC   C3A  836   0.801   0.330   6.779  0.1316 -0.0869 -0.1478
   39POPC   C4A  837   0.907   0.187   6.330 -0.0073 -0.0245 -0.1922
   39POPC   C1B  838   0.920   0.222   7.564  0.0536  0.2220  0.2423
   39POPC   C2B  839   0.522   0.334   7.429  0.0641 -0.1751  0.1159
   39POPC   C3B  840   0.141   0.117   7.199  0.2039  0.0489  0.1310
   39POPC   C4B  841   0.041  -0.235   6.961  0.1869  0.3562  0.0759
   40POPC   NC3  842   0.848   7.638   8.076  0.3354 -0.3010 -0.1753
   40POPC   PO4  843   1.310   7.775   8.223 -0.3769  0.0081  0.0129
   40POPC   GL1  844   1.093   8.084   7.911 -0.2071  0.3003 -0.1224
   40POPC   GL2  845   0.756   8.120   7.975  0.3061 -0.2873  0.1345
   40POPC   C1A  846   0.871   8.397   7.592  0.1911 -0.5001  0.0749
   40POPC   D2A  847   0.670   8.367   7.277  0.0472 -0.1872  0.0454
   40POPC   C3A  848   0.572   8.779   6.987 -0.1494  0.1036 -0.0958
   40POPC   C4A  849   0.500   9.147   6.770  0.1535 -0.0222 -0.1303
   40POPC   C1B  850   0.469   8.023   7.606  0.4855  0.4762  0.1191
   40POPC   C2B  851   0.306   8.016   7.224  0.0673  0.2903  0.0141
   40POPC   C3B  852   0.242   8.332   6.925  0.1584  0.2979 -0.2719
   40POPC   C4B  853  -0.196   8.518   6.848  0.0819  0.0464 -0.3660
   41POPC   NC3  854   0.686   9.679   8.580 -0.1665 -0.2159 -0.1130
   41POPC   PO4  855   1.034   9.392   8.498  0.3406  0.1808 -0.1823
   41POPC   GL1  856   0.888   9.357   8.056 -0.2112 -0.0244  0.2554
   41POPC   GL2  857   1.098   9.550   7.858  0.0715  0.3638  0.1890
   41POPC   C1A  858   0.516   9.202   7.861  0.0105 -0.2235 -0.3838
   41POPC   D2A  859   0.573   8.811   7.579  0.1221 -0.1971  0.0565
   41POPC   C3A  860   0.237   8.470   7.518  0.1634  0.1198  0.1194
   41POPC   C4A  861  -0.123   8.267   7.353 -0.1960 -0.1574  0.1124
   41POPC   C1B  862   0.818   9.387   7.555 -0.2592  0.1283  0.2376
   41POPC   C2B  863   0.882   9.072   7.254 -0.0187 -0.0394 -0.1154
   41POPC   C3B  864   1.075   8.647   7.125  0.0323  0.0825 -0.2101
   41POPC   C4B  865   1.146   8.169   7.173  0.0358  0.0166  0.0174
   42POPC   NC3  866   5.799   5.450   8.834  0.0968 -0.2089  0.0910
   42POPC   PO4  867   5.687   5.421   8.354 -0.1480 -0.2713  0.1640
   42POPC   GL1  868   5.643   5.069   8.110 -0.0021 -0.0019 -0.0932
   42POPC   GL2  869   5.750   4.691   8.190 -0.0888 -0.1428  0.2528
   42POPC   C1A  870   5.628   4.926   7.729 -0.1045 -0.1081 -0.2309
   42POPC   D2A  871   5.634   4.500   7.631 -0.0737 -0.4031  0.0287
   42POPC   C3A  872   5.390   4.232   7.438 -0.0039 -0.0566 -0.3492
   42POPC   C4A  873   5.128   4.015   7.130 -0.1844  0.2516  0.0396
   42POPC   C1B  874   6.034   4.836   7.941  0.1369  0.1270 -0.0748
   42POPC   C2B  875   6.108   4.748   7.485  0.2020  0.1245  0.1762
   42POPC   C3B  876   6.345   4.557   7.152 -0.3669 -0.1639 -0.1109
   42POPC   C4B  877   6.361   4.706   6.755  0.2256  0.2802  0.2521
   43POPC   NC3  878   4.496   5.415   7.996 -0.2348  0.1712 -0.3225
   43POPC   PO4  879   4.121   5.290   8.145  0.1439 -0.1356  0.0209
   43POPC   GL1  880   3.847   5.256   7.732 -0.0219  0.0771 -0.2172
   43POPC   GL2  881   3.473   5.120   7.780 -0.2370 -0.2435  0.1748
   43POPC   C1A  882   3.777   5.217   7.252 -0.1100  0.1431  0.0303
   43POPC   D2A  883   3.656   5.079   6.897 -0.1581 -0.2700 -0.0805
   43POPC   C3A  884   3.389   4.741   6.812 -0.0598 -0.1963 -0.1931
   43POPC   C4A  885   2.974   4.548   6.762 -0.1173  0.0278 -0.0103
   43POPC   C1B  886   3.259   5.181   7.485 -0.0272  0.4714  0.1707
   43POPC   C2B  887   3.155   4.998   7.108 -0.0840 -0.1864  0.0270
   43POPC   C3B  888   3.149   5.140   6.705  0.0451  0.2378 -0.0482
   43POPC   C4B  889   3.054   5.022   6.266  0.0601 -0.2156  0.1512
   44POPC   NC3  890   7.272   9.343   9.114 -0.0722 -0.2570 -0.2893
   44POPC   PO4  891   6.964   9.156   9.206 -0.1975 -0.0408  0.0657
   44POPC   GL1  892   7.063   9.202   8.681  0.0524 -0.1658 -0.0914
   44POPC   GL2  893   6.882   9.053   8.365  0.0134  0.1790  0.2498
   44POPC   C1A  894   7.313   8.908   8.400 -0.2382  0.1022  0.2639
   44POPC   D2A  895   7.415   8.611   8.010 -0.0489 -0.0975  0.1325
   44POPC   C3A  896   7.744   8.796   7.731 -0.0732  0.3035 -0.1029
   44POPC   C4A  897   8.034   8.990   7.369 -0.0965  0.1637 -0.1332
   44POPC   C1B  898   7.142   9.228   8.014  0.3606  0.3856  0.3078
   44POPC   C2B  899   7.374   9.120   7.594  0.0529  0.0025 -0.1205
   44POPC   C3B  900   7.604   9.218   7.318  0.1428  0.1417  0.0858
   44POPC   C4B  901   7.617   9.161   6.778 -0.0871 -0.1364 -0.2056
   45POPC   NC3  902   6.069   6.258   8.321 -0.1872  0.2106 -0.0151
   45POPC   PO4  903   5.580   6.245   8.210 -0.0768 -0.0244  0.1005
   45POPC   GL1  904   5.387   6.426   7.801 -0.1077 -0.0859 -0.1316
   45POPC   GL2  905   5.310   6.029   7.676  0.2829  0.1820 -0.0051
   45POPC   C1A  906   5.597   6.370   7.294  0.1796  0.0106  0.1734
   45POPC   D2A  907   5.575   6.042   6.918 -0.0634 -0.0961 -0.1417
   45POPC   C3A  908   5.372   5.711   6.963 -0.1695  0.0843  0.0149
   45POPC   C4A  909   5.519   5.260   6.879  0.3287  0.1032  0.1157
   45POPC   C1B  910   5.168   6.092   7.305 -0.0201  0.3395 -0.1372
   45POPC   C2B  911   4.959   6.023   6.960 -0.0456  0.2940  0.1536
   45POPC   C3B  912   4.671   6.183   6.732 -0.0210 -0.1805  0.2319
   45POPC   C4B  913   4.542   6.134   6.284 -0.0228 -0.4003 -0.0838
   46POPC   NC3  914   5.829   1.711   8.539 -0.0922 -0.0261  0.1932
   46POPC   PO4  915   5.788   2.059   8.791 -0.0014  0.2374  0.3341
   46POPC   GL1  916   6.074   2.154   8.416 -0.0385 -0.1125 -0.0775
   46POPC   GL2  917   6.101   2.471   8.541  0.0425  0.1303  0.2595
   46POPC   C1A  918   6.074   2.151   8.025 -0.1250 -0.1299  0.1933
   46POPC   D2A  919   6.469   1.905   7.882 -0.0708 -0.0897  0.2777
   46POPC   C3A  920   6.255   1.782   7.422 -0.2151 -0.2838  0.1462
   46POPC   C4A  921   6.122   1.886   6.996  0.1621 -0.1777 -0.2041
   46POPC   C1B  922   6.531   2.548   8.485 -0.0370 -0.1292 -0.0034
   46POPC   C2B  923   6.781   2.863   8.249 -0.1037 -0.2281 -0.0528
   46POPC   C3B  924   6.874   3.222   8.049 -0.2301 -0.1444  0.0032
   46POPC   C4B  925   7.015   3.557   7.768  0.2282 -0.0332 -0.0902
   47POPC   NC3  926   7.033   6.014   8.405 -0.1940 -0.1155  0.1576
   47POPC   PO4  927   6.622   5.964   8.553  0.0963  0.0306 -0.0428
   47POPC   GL1  928   6.592   5.737   8.159  0.1211  0.0761 -0.1323
   47POPC   GL2  929   6.419   5.966   8.071 -0.0128 -0.1476  0.4656
   47POPC   C1A  930   6.640   5.491   7.690 -0.0755 -0.0688  0.0422
   47POPC   D2A  931   6.545   5.380   7.185  0.0415  0.2540 -0.1001
   47POPC   C3A  932   6.315   5.042   7.076 -0.0094 -0.0464 -0.1665
   47POPC   C4A  933   5.934   4.998   6.969 -0.1920  0.0758  0.1659
   47POPC   C1B  934   6.353   5.861   7.729 -0.2648  0.1101 -0.2097
   47POPC   C2B  935   6.156   5.763   7.348 -0.3306  0.1355  0.0408
   47POPC   C3B  936   5.905   5.673   7.086  0.0389  0.2493  0.1162
   47POPC   C4B  937   5.858   5.587   6.655  0.0049 -0.1043  0.1037
   48POPC   NC3  938   4.185   8.939   8.392  0.4067  0.4830  0.0845
   48POPC   PO4  939   4.099   9.263   8.636 -0.2219 -0.3171  0.1595
   48POPC   GL1  940   4.296   9.406   8.224  0.0502 -0.1221 -0.5265
   48POPC   GL2  941   4.049   9.464   8.070 -0.2073 -0.1368  0.2455
   48POPC   C1A  942   4.474   9.197   7.721 -0.1096  0.0223 -0.2255
   48POPC   D2A  943   4.324   9.426   7.370 -0.0585 -0.1560  0.1860
   48POPC   C3A  944   4.042   9.749   7.042  0.0449  0.1718 -0.1092
   48POPC   C4A  945   3.781   9.882   6.784  0.0150  0.6450 -0.2641
   48POPC   C1B  946   3.928   9.139   7.772 -0.0096  0.2244  0.0513
   48POPC   C2B  947   3.913   8.914   7.426  0.3488 -0.1569 -0.0758
   48POPC   C3B  948   3.796   8.920   6.985 -0.1298  0.2562 -0.2323
   48POPC   C4B  949   3.648   9.027   6.642  0.0606 -0.0795  0.1728
   49POPC   NC3  950   5.271   1.004   8.306 -0.2505  0.2579  0.0590
   49POPC   PO4  951   5.620   1.202   8.586  0.3720  0.2407  0.0145
   49POPC   GL1  952   5.856   1.058   8.257  0.0703 -0.0265  0.1432
   49POPC   GL2  953   5.623   1.276   8.064  0.3465  0.0270  0.2317
   49POPC   C1A  954   6.177   0.931   7.919 -0.2456 -0.1088  0.1202
   49POPC   D2A  955   6.498   0.831   7.605  0.1243 -0.1772 -0.0825
   49POPC   C3A  956   6.439   0.880   7.156 -0.1313 -0.3945  0.2713
   49POPC   C4A  957   6.470   0.797   6.754 -0.0412  0.0290 -0.0379
   49POPC   C1B  958   5.716   1.232   7.570 -0.4259 -0.1619 -0.3954
   49POPC   C2B  959   5.757   1.581   7.282  0.2409 -0.2441  0.0683
   49POPC   C3B  960   5.728   1.671   6.886  0.3782  0.0269  0.0829
   49POPC   C4B  961   5.978   1.651   6.531 -0.0604 -0.0923  0.2326
   50POPC   NC3  962   5.705   3.550   9.117  0.1599 -0.1985  0.0942
   50POPC   PO4  963   6.130   3.415   9.238  0.0538  0.2652  0.1667
   50POPC   GL1  964   6.335   3.231   8.858 -0.1800 -0.2017 -0.2899
   50POPC   GL2  965   6.207   3.016   8.715  0.1713  0.4348  0.0087
   50POPC   C1A  966   6.658   3.266   8.614 -0.4784  0.1048  0.1240
   50POPC   D2A  967   7.104   3.239   8.513  0.0456 -0.1117  0.5045
   50POPC   C3A  968   7.333   3.465   8.680  0.0222  0.0814 -0.0629
   50POPC   C4A  969   7.231   3.884   8.813 -0.2427 -0.0748  0.0699
   50POPC   C1B  970   6.283   3.004   8.369  0.1383 -0.4319 -0.2321
   50POPC   C2B  971   6.389   2.827   7.941 -0.3588  0.0890 -0.0971
   50POPC   C3B  972   6.340   2.621   7.590  0.0030  0.1081  0.0639
   50POPC   C4B  973   6.193   2.432   7.359 -0.0550 -0.0626  0.0372
   51POPC   NC3  974   1.821   1.721   8.461  0.2299 -0.0398  0.1560
   51POPC   PO4  975   1.765   1.639   8.060 -0.2312 -0.0517  0.3884
   51POPC   GL1  976   1.535   1.916   7.801 -0.2490  0.0197 -0.2686
   51POPC   GL2  977   1.705   1.928   7.630  0.0372  0.2203 -0.0634
   51POPC   C1A  978   1.222   1.885   7.542 -0.1214  0.2455 -0.3370
   51POPC   D2A  979   0.855   1.741   7.301 -0.1010 -0.1323  0.1905
   51POPC   C3A  980   0.843   1.738   6.821  0.1556  0.1388 -0.0064
   51POPC   C4A  981   0.645   1.442   6.602  0.2568 -0.0097  0.1033
   51POPC   C1B  982   1.629   2.022   7.221 -0.3473  0.0169 -0.3109
   51POPC   C2B  983   1.196   2.070   7.039  0.2582 -0.0709  0.1795
   51POPC   C3B  984   1.059   2.394   6.780 -0.0159 -0.1803 -0.3809
   51POPC   C4B  985   0.816   2.715   6.624  0.0225  0.1684 -0.2525
   52POPC   NC3  986   3.726   8.133   8.354 -0.0667 -0.1003  0.1388
   52POPC   PO4  987   3.724   7.725   8.614  0.1812 -0.1706 -0.2277
   52POPC   GL1  988   3.622   7.674   8.141  0.1807  0.2155 -0.0399
   52POPC   GL2  989   3.613   7.389   7.915 -0.1626 -0.0503 -0.0683
   52POPC   C1A  990   3.721   7.925   7.760  0.0412  0.0911  0.2192
   52POPC   D2A  991   3.630   8.002   7.332  0.1362  0.0107 -0.2761
   52POPC   C3A  992   3.450   7.797   6.971  0.0657  0.4152  0.3135
   52POPC   C4A  993   3.774   7.634   6.604  0.0733 -0.1421 -0.1616
   52POPC   C1B  994   3.771   7.473   7.439  0.0477  0.1958  0.1952
   52POPC   C2B  995   3.928   7.482   7.080 -0.1623 -0.3925  0.2796
   52POPC   C3B  996   4.306   7.506   6.832 -0.1370 -0.2843  0.1192
   52POPC   C4B  997   4.669   7.274   6.751 -0.1665  0.1098 -0.0250
   53POPC   NC3  998   3.713   3.180   8.587 -0.0455 -0.1618  0.0869
   53POPC   PO4  999   3.654   2.982   8.225 -0.2339 -0.1279 -0.0928
   53POPC   GL1 1000   3.789   2.981   7.812 -0.0492  0.1594  0.0980
   53POPC   GL2 1001   3.976   3.249   7.761 -0.2598 -0.2547  0.1641
   53POPC   C1A 1002   3.998   2.909   7.425 -0.1023  0.2102 -0.0996
   53POPC   D2A 1003   4.252   2.921   7.042  0.0025 -0.3861 -0.0955
   53POPC   C3A 1004   4.639   2.608   6.993 -0.0483  0.0624  0.1631
   53POPC   C4A 1005   4.954   2.607   6.802  0.2057 -0.1566  0.0864
   53POPC   C1B 1006   3.655   3.309   7.405  0.4234 -0.0463  0.2912
   53POPC   C2B 1007   3.820   3.242   7.013 -0.3904 -0.2843  0.0761
   53POPC   C3B 1008   4.095   3.170   6.637  0.3307 -0.0457 -0.0145
   53POPC   C4B 1009   4.417   2.910   6.568 -0.2944 -0.2192  0.1175
   54POPC   NC3 1010   5.994   0.262   8.275 -0.1535  0.2639 -0.1897
   54POPC   PO4 1011   5.674   0.211   7.988 -0.2929 -0.0889  0.0927
   54POPC   GL1 1012   5.802   0.111   7.579 -0.0894  0.2514 -0.1529
   54POPC   GL2 1013   6.015  -0.127   7.775  0.3959  0.0916  0.1571
   54POPC   C1A 1014   5.649   0.001   7.194  0.0574 -0.0355  0.2144
   54POPC   D2A 1015   5.832  -0.400   6.848  0.2337 -0.0936 -0.0615
   54POPC   C3A 1016   5.822  -0.144   6.487 -0.2030 -0.1414 -0.0937
   54POPC   C4A 1017   6.055   0.232   6.277 -0.0543 -0.2770  0.3832
   54POPC   C1B 1018   5.775  -0.438   7.477 -0.1064 -0.1442  0.0690
   54POPC   C2B 1019   5.474  -0.431   7.198  0.0434 -0.1934 -0.1908
   54POPC   C3B 1020   5.334  -0.470   6.730 -0.0886 -0.1685 -0.1832
   54POPC   C4B 1021   5.415  -0.330   6.272  0.2281  0.4002  0.1444
   55POPC   NC3 1022   0.458   4.822   8.426  0.2748  0.1296 -0.2146
   55POPC   PO4 1023   0.011   4.552   8.465 -0.3134 -0.1136 -0.0400
   55POPC   GL1 1024   0.210   4.524   8.014 -0.1720  0.0980 -0.4389
   55POPC   GL2 1025   0.131   4.844   8.002 -0.3274  0.0436  0.0564
   55POPC   C1A 1026   0.580   4.276   7.702  0.2982  0.2498  0.3435
   55POPC   D2A 1027   0.595   4.150   7.270  0.2650  0.0557  0.2256
   55POPC   C3A 1028   0.415   4.461   7.059 -0.0088  0.0078 -0.1179
   55POPC   C4A 1029   0.085   4.772   7.112  0.0123 -0.1372 -0.2386
   55POPC   C1B 1030   0.006   4.801   7.634  0.0412  0.0410  0.3739
   55POPC   C2B 1031  -0.279   4.658   7.389 -0.2362  0.3930  0.1611
   55POPC   C3B 1032  -0.571   4.415   7.234 -0.1561 -0.3039  0.1253
   55POPC   C4B 1033  -0.771   4.017   7.388 -0.1361  0.2313 -0.2932
   56POPC   NC3 1034   8.839   4.131   8.873 -0.1415 -0.0325  0.0771
   56POPC   PO4 1035   8.446   3.860   9.047 -0.3565 -0.2628 -0.2068
   56POPC   GL1 1036   8.547   3.897   8.606  0.2737  0.1521 -0.0121
   56POPC   GL2 1037   8.238   4.096   8.591  0.0960 -0.1694  0.0538
   56POPC   C1A 1038   8.623   3.894   8.083 -0.2671  0.0393  0.1626
   56POPC   D2A 1039   8.348   3.781   7.730 -0.3407 -0.1860  0.0670
   56POPC   C3A 1040   8.227   3.913   7.370 -0.1009  0.0226  0.1309
   56POPC   C4A 1041   8.285   4.120   6.965  0.1537 -0.1479  0.1786
   56POPC   C1B 1042   8.192   4.050   8.106 -0.0532 -0.0843  0.0552
   56POPC   C2B 1043   7.945   4.142   7.676 -0.4576 -0.1731  0.4799
   56POPC   C3B 1044   7.962   4.461   7.355 -0.2594 -0.0763 -0.0412
   56POPC   C4B 1045   8.102   4.893   7.267  0.1688 -0.2344 -0.0141
   57POPC   NC3 1046   2.269   3.967   8.982  0.3375  0.0827 -0.0244
   57POPC   PO4 1047   2.204   4.403   8.716  0.0629  0.1508  0.0892
   57POPC   GL1 1048   1.870   4.453   8.393 -0.1824  0.1992 -0.4848
   57POPC   GL2 1049   2.094   4.440   8.127  0.1866 -0.3142 -0.3045
   57POPC   C1A 1050   1.809   4.842   7.990  0.1240  0.1000 -0.1135
   57POPC   D2A 1051   1.333   4.958   7.876 -0.0879  0.0199  0.2038
   57POPC   C3A 1052   1.015   4.988   7.518 -0.2846 -0.1989  0.3676
   57POPC   C4A 1053   0.702   5.386   7.405 -0.2418 -0.0653 -0.3852
   57POPC   C1B 1054   2.184   4.704   7.717 -0.1503 -0.3263  0.4817
   57POPC   C2B 1055   2.424   4.799   7.260  0.0627  0.2630  0.3583
   57POPC   C3B 1056   2.505   4.634   6.841 -0.2266  0.4293  0.0662
   57POPC   C4B 1057   2.567   4.843   6.446 -0.0373  0.0887  0.1732
   58POPC   NC3 1058   5.962   9.144   8.016  0.2538  0.0138  0.0267
   58POPC   PO4 1059   5.850   8.821   8.234 -0.2685 -0.2937  0.0774
   58POPC   GL1 1060   6.014   8.689   7.926 -0.0679 -0.3925  0.0248
   58POPC   GL2 1061   5.855   8.713   7.661 -0.1460  0.0233 -0.3172
   58POPC   C1A 1062   6.442   8.645   7.820  0.3381 -0.2756 -0.0052
   58POPC   D2A 1063   6.922   8.831   7.811 -0.2459  0.0537  0.0922
   58POPC   C3A 1064   7.132   8.696   7.464 -0.1608 -0.2614 -0.0137
   58POPC   C4A 1065   7.325   8.785   7.031 -0.1440 -0.0943 -0.0077
   58POPC   C1B 1066   5.914   8.873   7.252 -0.1497 -0.0713  0.1242
   58POPC   C2B 1067   6.152   8.723   6.850  0.2306 -0.2390 -0.1710
   58POPC   C3B 1068   6.519   8.960   6.618  0.3579 -0.0880  0.2010
   58POPC   C4B 1069   6.714   9.158   6.248 -0.2827 -0.1884  0.0773
   59POPC   NC3 1070   7.305   4.496   9.539 -0.2627  0.3072 -0.0726
   59POPC   PO4 1071   7.522   4.152   9.352  0.0537  0.1261  0.0721
   59POPC   GL1 1072   7.418   4.327   9.020  0.1149  0.0366 -0.0209
   59POPC   GL2 1073   7.786   4.333   8.947  0.1753  0.4511 -0.2476
   59POPC   C1A 1074   7.346   4.207   8.481 -0.1823 -0.1036  0.1632
   59POPC   D2A 1075   7.216   3.959   8.120  0.2271 -0.0043  0.1205
   59POPC   C3A 1076   7.499   3.851   7.727 -0.0131 -0.3816  0.1279
   59POPC   C4A 1077   7.551   3.647   7.325  0.1437  0.1729 -0.4159
   59POPC   C1B 1078   7.751   3.948   8.719  0.0457 -0.1257 -0.1438
   59POPC   C2B 1079   7.703   3.959   8.221  0.2756  0.0500  0.2822
   59POPC   C3B 1080   7.661   4.346   8.052  0.3588 -0.0520 -0.3692
   59POPC   C4B 1081   7.635   4.681   7.715 -0.1495  0.1568  0.3046
   60POPC   NC3 1082   7.222   7.036   8.905  0.0409 -0.4210  0.0614
   60POPC   PO4 1083   7.022   7.226   8.531  0.0663 -0.2377  0.0214
   60POPC   GL1 1084   7.091   7.252   8.059 -0.0154  0.0301  0.2027
   60POPC   GL2 1085   7.443   7.238   7.894  0.2056 -0.3294 -0.2174
   60POPC   C1A 1086   6.873   7.244   7.714 -0.1181 -0.1273 -0.1744
   60POPC   D2A 1087   6.631   7.383   7.318  0.0701  0.0943 -0.1054
   60POPC   C3A 1088   6.357   7.126   7.161 -0.1529  0.2377 -0.0741
   60POPC   C4A 1089   5.981   6.980   7.268  0.1657  0.0198  0.0956
   60POPC   C1B 1090   7.390   7.350   7.560 -0.0090 -0.1342  0.1933
   60POPC   C2B 1091   7.087   7.341   7.251 -0.0879  0.0337  0.1178
   60POPC   C3B 1092   7.063   7.636   6.934  0.2496  0.1435  0.1199
   60POPC   C4B 1093   6.860   7.999   6.701 -0.2956 -0.0172  0.0161
   61POPC   NC3 1094   1.799   9.035   8.381  0.1389  0.1031  0.1093
   61POPC   PO4 1095   2.281   9.123   8.429 -0.1925 -0.2183  0.1146
   61POPC   GL1 1096   2.135   9.003   8.040  0.2831  0.0299  0.0735
   61POPC   GL2 1097   1.874   9.185   7.758 -0.1439 -0.0572 -0.0239
   61POPC   C1A 1098   2.222   8.664   7.780  0.1594  0.1862  0.1390
   61POPC   D2A 1099   2.337   8.867   7.434  0.3480 -0.2032  0.2413
   61POPC   C3A 1100   2.099   8.981   7.102 -0.2023  0.1430 -0.2004
   61POPC   C4A 1101   1.742   9.141   6.822 -0.0679  0.0270 -0.1346
   61POPC   C1B 1102   1.754   9.399   7.385 -0.1023 -0.1035 -0.2362
   61POPC   C2B 1103   1.250   9.538   7.392  0.0508 -0.0302  0.0640
   61POPC   C3B 1104   1.114   9.898   7.092 -0.1670 -0.3165  0.0028
   61POPC   C4B 1105   1.355  10.112   6.665  0.3792  0.0612  0.2760
   62POPC   NC3 1106   8.392   7.897   8.746  0.1193 -0.0440 -0.0419
   62POPC   PO4 1107   8.614   7.964   8.354 -0.0108  0.0456 -0.2207
   62POPC   GL1 1108   8.519   7.887   8.052  0.3502 -0.1847 -0.1856
   62POPC   GL2 1109   8.248   7.891   7.997  0.0263  0.0131 -0.0878
   62POPC   C1A 1110   8.623   8.202   7.747  0.4296  0.0370  0.0551
   62POPC   D2A 1111   8.400   8.364   7.324 -0.0191  0.3082 -0.1755
   62POPC   C3A 1112   8.241   8.656   7.086  0.1936  0.0431  0.0986
   62POPC   C4A 1113   7.864   8.723   6.960  0.1563 -0.3009  0.0481
   62POPC   C1B 1114   8.478   7.792   7.545 -0.0273  0.3479 -0.1783
   62POPC   C2B 1115   8.817   7.922   7.320 -0.0756  0.0245  0.1253
   62POPC   C3B 1116   8.837   8.196   6.872  0.1160 -0.0031  0.3972
   62POPC   C4B 1117   8.697   8.380   6.470 -0.1178  0.1370  0.0431
   63POPC   NC3 1118   8.940   6.878   8.808  0.0484 -0.1084  0.1399
   63POPC   PO4 1119   8.704   6.478   8.847  0.0571 -0.1157  0.2769
   63POPC   GL1 1120   8.692   6.636   8.457 -0.0627 -0.0307  0.1242
   63POPC   GL2 1121   8.561   6.954   8.501 -0.0500  0.2085  0.1184
   63POPC   C1A 1122   8.620   6.441   8.127 -0.1751 -0.1304 -0.1298
   63POPC   D2A 1123   8.424   6.199   7.875  0.0625  0.1502  0.0913
   63POPC   C3A 1124   8.033   6.209   7.738 -0.2087 -0.0613  0.2901
   63POPC   C4A 1125   8.019   6.425   7.319  0.1531 -0.2383 -0.1419
   63POPC   C1B 1126   8.664   6.967   7.975  0.4552 -0.0929 -0.0257
   63POPC   C2B 1127   8.951   7.035   7.800  0.0965  0.0339  0.0064
   63POPC   C3B 1128   8.990   6.914   7.377  0.0858 -0.2315  0.2377
   63POPC   C4B 1129   8.793   7.054   6.889  0.0621  0.3027  0.0850
   64POPC   NC3 1130   1.885   5.603   8.671  0.0058  0.1565 -0.1274
   64POPC   PO4 1131   2.101   6.040   8.681  0.2477 -0.1010  0.1931
   64POPC   GL1 1132   2.113   5.863   8.319 -0.0545  0.0848  0.0013
   64POPC   GL2 1133   1.805   5.901   8.249  0.0832  0.1852 -0.1502
   64POPC   C1A 1134   2.079   5.691   7.889  0.0811 -0.0490 -0.2596
   64POPC   D2A 1135   2.055   5.273   7.656 -0.3806 -0.1717 -0.0946
   64POPC   C3A 1136   1.741   4.976   7.452  0.1535  0.2305 -0.2186
   64POPC   C4A 1137   1.506   5.144   7.296  0.1220  0.0364 -0.0278
   64POPC   C1B 1138   1.506   5.973   7.827  0.1165 -0.0193  0.0507
   64POPC   C2B 1139   1.517   6.018   7.366 -0.0160  0.2538 -0.1781
   64POPC   C3B 1140   1.796   6.140   7.122  0.2349 -0.0775 -0.1250
   64POPC   C4B 1141   1.890   6.602   6.971 -0.0386  0.1433  0.5368
   65POPC   NC3 1142   3.292   2.607   7.967  0.0918  0.2130 -0.2834
   65POPC   PO4 1143   2.933   2.756   8.207 -0.1630  0.4262 -0.0507
   65POPC   GL1 1144   2.916   3.025   7.756  0.0731 -0.0059 -0.0469
   65POPC   GL2 1145   3.239   3.117   7.778  0.0969  0.2272 -0.1404
   65POPC   C1A 1146   2.887   3.244   7.340  0.1005 -0.0632  0.0042
   65POPC   D2A 1147   2.716   3.223   6.963 -0.1244 -0.3411 -0.2494
   65POPC   C3A 1148   3.008   3.381   6.637 -0.0054 -0.0229 -0.1000
   65POPC   C4A 1149   2.876   3.266   6.169 -0.2534 -0.1228  0.2748
   65POPC   C1B 1150   3.309   2.930   7.405 -0.0245  0.0255  0.1099
   65POPC   C2B 1151   3.615   2.788   7.118  0.4850 -0.0066  0.2313
   65POPC   C3B 1152   3.945   2.634   6.814 -0.0285  0.3480  0.0819
   65POPC   C4B 1153   4.042   2.579   6.381 -0.1003  0.1143  0.0931
   66POPC   NC3 1154   8.027   4.754   8.993  0.2000 -0.0010  0.1356
   66POPC   PO4 1155   7.674   4.836   8.891 -0.0097  0.2363 -0.3917
   66POPC   GL1 1156   7.609   4.646   8.562 -0.4920  0.1413 -0.2202
   66POPC   GL2 1157   7.941   4.543   8.427  0.1253 -0.4139  0.2205
   66POPC   C1A 1158   7.471   4.770   8.190 -0.1908 -0.0191 -0.2329
   66POPC   D2A 1159   7.492   5.111   7.977  0.1426 -0.1298  0.1643
   66POPC   C3A 1160   7.694   5.233   7.479  0.0471  0.0712  0.4159
   66POPC   C4A 1161   7.849   5.243   7.045  0.0699 -0.1056  0.1923
   66POPC   C1B 1162   8.119   4.586   8.025 -0.1968  0.0402  0.1943
   66POPC   C2B 1163   8.418   4.410   7.730 -0.4653 -0.1627  0.0920
   66POPC   C3B 1164   8.826   4.294   7.802  0.3301  0.3123 -0.0550
   66POPC   C4B 1165   9.111   3.863   7.857 -0.1768 -0.1882 -0.2645
   67POPC   NC3 1166   8.569   1.210   9.564  0.0936 -0.0905 -0.0209
   67POPC   PO4 1167   8.465   1.317   9.077 -0.3702 -0.0285 -0.0436
   67POPC   GL1 1168   8.665   1.352   8.723 -0.0923 -0.0112 -0.0225
   67POPC   GL2 1169   8.668   1.735   8.804 -0.2243 -0.0004  0.0517
   67POPC   C1A 1170   8.978   1.215   8.381  0.1842 -0.3588  0.0969
   67POPC   D2A 1171   8.715   1.153   8.017  0.0153  0.1006 -0.0782
   67POPC   C3A 1172   8.374   1.222   8.162  0.0370  0.3920 -0.2887
   67POPC   C4A 1173   7.959   1.156   8.450  0.1787  0.2769 -0.1672
   67POPC   C1B 1174   8.350   1.937   8.630  0.0268 -0.1217 -0.1475
   67POPC   C2B 1175   8.214   2.293   8.731 -0.1086  0.0471 -0.2685
   67POPC   C3B 1176   7.904   2.559   8.576 -0.2441  0.0914  0.2957
   67POPC   C4B 1177   7.842   2.683   8.147 -0.1579 -0.2059  0.2048
   68POPC   NC3 1178   9.534   2.275   9.648  0.3192  0.3544 -0.2277
   68POPC   PO4 1179   9.251   2.085   9.238  0.2350  0.2149  0.0948
   68POPC   GL1 1180   9.246   2.138   8.818 -0.0923  0.1243  0.1021
   68POPC   GL2 1181   9.488   2.431   8.590  0.2483 -0.0623 -0.0356
   68POPC   C1A 1182   9.220   2.052   8.363 -0.3413  0.0320 -0.2134
   68POPC   D2A 1183   9.067   2.047   7.995  0.0009 -0.0653 -0.3194
   68POPC   C3A 1184   9.229   1.642   7.799  0.0492 -0.3098 -0.0441
   68POPC   C4A 1185   9.111   1.941   7.482 -0.1879  0.0008  0.1042
   68POPC   C1B 1186   9.137   2.526   8.462 -0.0336 -0.1464  0.1148
   68POPC   C2B 1187   8.989   2.817   8.261 -0.1789  0.0249 -0.0838
   68POPC   C3B 1188   8.614   3.021   8.104 -0.0153 -0.1521 -0.1570
   68POPC   C4B 1189   8.514   3.422   8.169 -0.0888  0.1142  0.3615
   69POPC   NC3 1190   6.639   3.666   9.417 -0.0937  0.2568 -0.0869
   69POPC   PO4 1191   6.493   4.123   9.301 -0.1090  0.1621  0.1750
   69POPC   GL1 1192   6.532   3.833   8.976 -0.1281 -0.2988  0.0972
   69POPC   GL2 1193   6.282   3.712   8.889  0.3887 -0.0982 -0.0199
   69POPC   C1A 1194   6.719   3.859   8.688  0.3655  0.0851  0.0666
   69POPC   D2A 1195   6.938   3.641   8.333  0.0005  0.0299 -0.0570
   69POPC   C3A 1196   7.460   3.505   8.181  0.1527 -0.0239  0.2353
   69POPC   C4A 1197   7.771   3.250   8.478  0.1246  0.6276  0.1202
   69POPC   C1B 1198   6.393   3.636   8.347 -0.0402  0.3446 -0.2790
   69POPC   C2B 1199   6.435   3.389   7.909  0.1113 -0.2232 -0.3175
   69POPC   C3B 1200   6.568   3.638   7.532  0.0039 -0.3685  0.1168
   69POPC   C4B 1201   6.865   3.436   7.182 -0.0386 -0.1268 -0.1400
   70POPC   NC3 1202   4.424   7.584   8.488  0.3055 -0.0544  0.2913
   70POPC   PO4 1203   4.716   7.916   8.494  0.2383  0.3886  0.2574
   70POPC   GL1 1204   4.641   8.010   8.032 -0.1789 -0.0851 -0.0605
   70POPC   GL2 1205   4.662   7.623   7.966 -0.1615  0.0691 -0.0674
   70POPC   C1A 1206   4.709   8.277   7.574  0.2802  0.1463  0.1672
   70POPC   D2A 1207   4.644   7.980   7.215 -0.0819  0.0563  0.0414
   70POPC   C3A 1208   4.983   7.948   6.894  0.0042 -0.0168  0.0577
   70POPC   C4A 1209   5.426   7.952   6.764  0.1286  0.0260 -0.1066
   70POPC   C1B 1210   4.722   7.644   7.575 -0.0887 -0.1716  0.1209
   70POPC   C2B 1211   4.938   7.551   7.164 -0.1096 -0.0348  0.2751
   70POPC   C3B 1212   5.330   7.396   7.072 -0.1546 -0.1215 -0.1936
   70POPC   C4B 1213   5.643   7.275   7.009  0.0828 -0.1615  0.0321
   71POPC   NC3 1214   1.362   1.092   8.549 -0.0469 -0.2060 -0.1693
   71POPC   PO4 1215   1.455   1.239   8.178  0.2539 -0.1897 -0.1359
   71POPC   GL1 1216   1.561   1.322   7.677  0.4881 -0.0812  0.0556
   71POPC   GL2 1217   1.200   1.358   7.666  0.1445  0.2196 -0.0625
   71POPC   C1A 1218   1.607   1.430   7.370 -0.2017  0.1395 -0.0681
   71POPC   D2A 1219   1.376   1.613   6.994  0.0329  0.1847 -0.0206
   71POPC   C3A 1220   1.577   1.547   6.553  0.0651 -0.1870  0.0049
   71POPC   C4A 1221   1.552   1.615   6.166  0.2821 -0.0529 -0.0722
   71POPC   C1B 1222   0.876   1.135   7.441 -0.0665  0.1030  0.0247
   71POPC   C2B 1223   0.693   1.223   7.030 -0.0741  0.2813 -0.1083
   71POPC   C3B 1224   0.642   0.918   6.653 -0.1188 -0.0748 -0.1060
   71POPC   C4B 1225   0.876   0.702   6.468 -0.2156  0.0052 -0.1270
   72POPC   NC3 1226   8.089   8.429   9.437  0.0505 -0.0224 -0.0972
   72POPC   PO4 1227   8.219   8.393   8.911 -0.0362 -0.0009  0.2449
   72POPC   GL1 1228   8.160   8.499   8.568  0.1786  0.2975  0.0056
   72POPC   GL2 1229   8.126   8.158   8.442  0.3511  0.0388  0.1216
   72POPC   C1A 1230   7.864   8.680   8.268 -0.0550 -0.2751 -0.0862
   72POPC   D2A 1231   7.709   9.186   8.084  0.1512  0.2852 -0.2128
   72POPC   C3A 1232   7.794   9.461   7.745 -0.1397  0.1663 -0.1565
   72POPC   C4A 1233   8.055   9.461   7.319  0.2612  0.1637 -0.0656
   72POPC   C1B 1234   8.227   8.442   8.069  0.0635  0.1432  0.0991
   72POPC   C2B 1235   8.203   8.648   7.713 -0.0463  0.1206 -0.2762
   72POPC   C3B 1236   8.494   8.877   7.594  0.1105  0.1039  0.4605
   72POPC   C4B 1237   8.566   9.299   7.321  0.1861  0.1366  0.0464
   73POPC   NC3 1238   6.129   4.301   8.976 -0.0733 -0.0742 -0.1495
   73POPC   PO4 1239   6.255   4.609   8.677 -0.0395 -0.2087  0.1825
   73POPC   GL1 1240   6.270   4.610   8.328 -0.1079 -0.3435 -0.0426
   73POPC   GL2 1241   6.524   4.648   8.162  0.2988  0.3335  0.1577
   73POPC   C1A 1242   6.182   4.248   8.024 -0.0443 -0.0301 -0.0020
   73POPC   D2A 1243   6.252   4.104   7.584 -0.2150  0.3953 -0.0647
   73POPC   C3A 1244   6.540   4.121   7.220 -0.0654  0.3726  0.1249
   73POPC   C4A 1245   6.664   3.811   6.875 -0.2851  0.1208  0.0387
   73POPC   C1B 1246   6.629   4.490   7.745  0.0584  0.0254  0.0087
   73POPC   C2B 1247   6.941   4.520   7.341  0.0683  0.1795  0.0870
   73POPC   C3B 1248   7.270   4.460   6.966  0.0273  0.0010  0.0133
   73POPC   C4B 1249   7.648   4.282   6.792 -0.3052 -0.0512  0.0936
   74POPC   NC3 1250   6.917   6.301   8.880  0.3357 -0.5016  0.3664
   74POPC   PO4 1251   7.114   6.624   8.664 -0.1523  0.2646  0.0380
   74POPC   GL1 1252   7.267   6.457   8.256  0.0482  0.2573 -0.1841
   74POPC   GL2 1253   7.223   6.632   8.022 -0.1548 -0.0759 -0.1246
   74POPC   C1A 1254   7.639   6.374   7.931 -0.0108 -0.3390  0.1173
   74POPC   D2A 1255   7.562   6.397   7.517 -0.2074 -0.3328  0.3480
   74POPC   C3A 1256   7.687   6.109   7.128  0.0306 -0.2068 -0.4440
   74POPC   C4A 1257   7.901   5.746   7.030 -0.0768  0.2185  0.0841
   74POPC   C1B 1258   7.303   6.878   7.597 -0.1874 -0.1461 -0.1871
   74POPC   C2B 1259   7.530   6.820   7.284  0.2303 -0.0088  0.0598
   74POPC   C3B 1260   7.607   6.659   6.919  0.0976 -0.2738  0.1809
   74POPC   C4B 1261   7.740   6.423   6.502 -0.0320 -0.1137  0.0658
   75POPC   NC3 1262   6.166   5.144   8.490  0.0676  0.0305 -0.1147
   75POPC   PO4 1263   6.526   5.256   8.513  0.2271  0.2189 -0.1768
   75POPC   GL1 1264   6.657   5.190   8.106  0.1085 -0.0427  0.1065
   75POPC   GL2 1265   7.038   5.150   8.098  0.1095  0.1055  0.3108
   75POPC   C1A 1266   6.451   4.987   7.785 -0.0358 -0.1597  0.2144
   75POPC   D2A 1267   6.201   5.288   7.509 -0.2290 -0.0312 -0.1167
   75POPC   C3A 1268   5.773   5.471   7.631  0.1841  0.0754  0.1279
   75POPC   C4A 1269   5.470   5.635   7.449  0.0664  0.4343  0.1625
   75POPC   C1B 1270   7.020   4.949   7.736 -0.4280 -0.2689 -0.0913
   75POPC   C2B 1271   6.785   4.993   7.399  0.2710 -0.1313  0.2544
   75POPC   C3B 1272   6.752   4.962   6.935 -0.0045  0.1226 -0.0637
   75POPC   C4B 1273   7.083   4.812   6.617  0.2676 -0.0203 -0.2240
   76POPC   NC3 1274   2.140   4.017   8.378  0.3451  0.1222  0.0692
   76POPC   PO4 1275   1.751   3.822   8.332  0.1901 -0.2395 -0.0920
   76POPC   GL1 1276   1.915   3.933   7.909 -0.2229 -0.1886  0.1862
   76POPC   GL2 1277   2.233   3.739   7.856 -0.0033  0.0426 -0.0400
   76POPC   C1A 1278   2.119   4.213   7.672  0.0622  0.1493  0.2607
   76POPC   D2A 1279   2.079   4.469   7.322 -0.0914 -0.0502 -0.0297
   76POPC   C3A 1280   1.992   4.916   7.072  0.3239 -0.1256 -0.0865
   76POPC   C4A 1281   1.815   5.287   6.763  0.2268 -0.0649  0.0891
   76POPC   C1B 1282   2.658   3.872   7.578  0.0747  0.0672  0.0468
   76POPC   C2B 1283   2.656   3.681   7.129 -0.1104 -0.0569 -0.3289
   76POPC   C3B 1284   2.536   3.641   6.716  0.3839  0.3507  0.0701
   76POPC   C4B 1285   2.342   3.247   6.587  0.1935 -0.0474  0.1281
   77POPC   NC3 1286   8.572   0.027   9.337 -0.0116 -0.2602  0.2443
   77POPC   PO4 1287   8.214   0.383   9.427 -0.0222  0.1856  0.1590
   77POPC   GL1 1288   8.135   0.446   8.982 -0.0967  0.0480 -0.2194
   77POPC   GL2 1289   7.811   0.463   8.806  0.1397  0.1405  0.3151
   77POPC   C1A 1290   8.296   0.273   8.580  0.1232  0.0835  0.1197
   77POPC   D2A 1291   8.775   0.172   8.471  0.0624  0.0000 -0.2076
   77POPC   C3A 1292   8.887  -0.313   8.404  0.1147 -0.3862 -0.0626
   77POPC   C4A 1293   9.063  -0.721   8.419  0.1182 -0.1703  0.0292
   77POPC   C1B 1294   7.831   0.161   8.494  0.2335  0.0543 -0.1186
   77POPC   C2B 1295   7.932   0.062   8.064 -0.4985  0.1568 -0.3007
   77POPC   C3B 1296   8.027   0.409   7.770  0.0797  0.3805  0.0476
   77POPC   C4B 1297   7.781   0.616   7.562 -0.0110  0.2978  0.1015
   78POPC   NC3 1298   5.084   2.432   8.717  0.1968 -0.3455  0.1775
   78POPC   PO4 1299   5.302   2.213   8.904  0.6370 -0.0027  0.1416
   78POPC   GL1 1300   5.517   2.362   8.486  0.2976  0.1829  0.4856
   78POPC   GL2 1301   5.601   2.089   8.193  0.0463 -0.0702 -0.2323
   78POPC   C1A 1302   5.658   2.560   8.120  0.0756 -0.0080  0.1419
   78POPC   D2A 1303   5.919   2.827   8.059  0.0299 -0.2089 -0.3763
   78POPC   C3A 1304   6.000   3.220   8.037 -0.0612 -0.4334 -0.2976
   78POPC   C4A 1305   5.760   3.471   7.860  0.0120 -0.3286 -0.0538
   78POPC   C1B 1306   5.372   2.150   7.843  0.1277 -0.1296 -0.1366
   78POPC   C2B 1307   5.360   2.235   7.454  0.1827 -0.0682 -0.3246
   78POPC   C3B 1308   5.314   2.502   7.190 -0.1726 -0.1227  0.1315
   78POPC   C4B 1309   5.496   2.575   6.668 -0.1109 -0.2689  0.3222
   79POPC   NC3 1310   4.464   0.347   8.246 -0.1418 -0.0274  0.0893
   79POPC   PO4 1311   4.824   0.236   8.180  0.0168 -0.0775  0.0107
   79POPC   GL1 1312   4.928   0.176   7.802 -0.0006 -0.2535  0.1868
   79POPC   GL2 1313   4.890   0.424   7.454 -0.0574  0.1827  0.2732
   79POPC   C1A 1314   4.719  -0.019   7.431  0.2182  0.1027  0.2235
   79POPC   D2A 1315   4.592  -0.152   6.921 -0.1814 -0.2641  0.2763
   79POPC   C3A 1316   4.810  -0.344   6.632 -0.0186 -0.2563  0.0473
   79POPC   C4A 1317   4.940  -0.361   6.289 -0.3851 -0.0331  0.1298
   79POPC   C1B 1318   4.773   0.327   6.988 -0.0599 -0.1722  0.0684
   79POPC   C2B 1319   4.851   0.164   6.567 -0.0960  0.1765 -0.4305
   79POPC   C3B 1320   5.168   0.234   6.248 -0.0429 -0.4003  0.4706
   79POPC   C4B 1321   5.176   0.389   5.797  0.0630  0.1982 -0.2011
   80POPC   NC3 1322   7.814   2.420   9.276 -0.1112  0.2219  0.2065
   80POPC   PO4 1323   7.424   2.101   9.511  0.2616  0.0258  0.0191
   80POPC   GL1 1324   7.464   2.030   9.041 -0.0738 -0.0026  0.1811
   80POPC   GL2 1325   7.449   2.313   8.801 -0.1979 -0.1544 -0.2397
   80POPC   C1A 1326   7.373   1.628   8.868  0.2789  0.1670 -0.0792
   80POPC   D2A 1327   7.487   1.440   8.498 -0.3551 -0.1381  0.4394
   80POPC   C3A 1328   7.759   1.605   8.063 -0.2108  0.1011 -0.0931
   80POPC   C4A 1329   8.028   1.457   7.779 -0.0233 -0.0214 -0.2361
   80POPC   C1B 1330   7.298   1.967   8.562 -0.0474 -0.1033 -0.1791
   80POPC   C2B 1331   7.045   1.646   8.351  0.2754  0.3088  0.1150
   80POPC   C3B 1332   7.095   1.205   8.215  0.2102  0.0686  0.2235
   80POPC   C4B 1333   7.423   0.944   8.178 -0.2069 -0.0707 -0.0486
   81POPC   NC3 1334   6.843   6.831   8.326 -0.4211  0.1144  0.1432
   81POPC   PO4 1335   6.766   6.363   8.166 -0.0977  0.0433  0.3365
   81POPC   GL1 1336   6.895   6.266   7.835 -0.1427  0.0007  0.1803
   81POPC   GL2 1337   6.890   5.913   7.749 -0.1539 -0.2005  0.0092
   81POPC   C1A 1338   7.015   6.295   7.395  0.2945  0.1527 -0.0949
   81POPC   D2A 1339   7.063   6.062   6.934 -0.0118  0.1523 -0.3288
   81POPC   C3A 1340   6.908   5.592   6.877  0.1630  0.3456 -0.1729
   81POPC   C4A 1341   6.850   5.300   6.610 -0.1165  0.0763 -0.1257
   81POPC   C1B 1342   6.735   5.854   7.302  0.0194 -0.2336 -0.1565
   81POPC   C2B 1343   6.507   5.872   6.942  0.2863 -0.1064  0.3440
   81POPC   C3B 1344   6.333   5.517   6.635  0.0880  0.0685 -0.3396
   81POPC   C4B 1345   6.201   5.117   6.577  0.1524 -0.3188  0.2704
   82POPC   NC3 1346   2.060   3.279   8.165 -0.0264  0.2733 -0.1549
   82POPC   PO4 1347   1.755   3.328   8.301  0.2223 -0.1886 -0.3654
   82POPC   GL1 1348   1.661   3.516   7.906 -0.0993 -0.0511  0.0961
   82POPC   GL2 1349   1.469   3.737   7.791 -0.0053  0.1511  0.0848
   82POPC   C1A 1350   1.913   3.651   7.486  0.0215 -0.1872  0.3055
   82POPC   D2A 1351   2.231   3.928   7.271  0.4140 -0.4703 -0.2994
   82POPC   C3A 1352   2.165   4.268   6.924 -0.1851  0.2182  0.3720
   82POPC   C4A 1353   2.258   4.388   6.496  0.0725 -0.1788  0.0038
   82POPC   C1B 1354   1.471   3.703   7.387  0.4140 -0.0072 -0.1305
   82POPC   C2B 1355   1.269   3.588   6.999 -0.0031 -0.2807  0.1123
   82POPC   C3B 1356   1.483   3.727   6.606 -0.1127 -0.0001  0.1253
   82POPC   C4B 1357   1.810   3.995   6.429  0.1249 -0.0309  0.1743
   83POPC   NC3 1358   0.933   3.678   8.700  0.0984  0.0784 -0.0034
   83POPC   PO4 1359   0.891   3.406   8.399  0.1523  0.2551 -0.1304
   83POPC   GL1 1360   0.739   3.401   8.000 -0.1142 -0.4483  0.0405
   83POPC   GL2 1361   0.931   3.639   7.896 -0.2548  0.2997  0.1630
   83POPC   C1A 1362   0.469   3.416   7.744 -0.0803  0.1385 -0.0194
   83POPC   D2A 1363   0.397   3.382   7.311 -0.0783  0.3180  0.3479
   83POPC   C3A 1364   0.048   3.075   7.108 -0.0962  0.2004  0.0375
   83POPC   C4A 1365  -0.054   2.698   6.956 -0.0952  0.4026 -0.1430
   83POPC   C1B 1366   1.080   3.992   7.602 -0.0956 -0.0202 -0.0003
   83POPC   C2B 1367   1.252   4.166   7.220 -0.0453 -0.0394  0.3382
   83POPC   C3B 1368   0.914   4.158   6.876  0.0518 -0.1068 -0.3611
   83POPC   C4B 1369   0.708   4.467   6.621 -0.0145  0.0501  0.0477
   84POPC   NC3 1370   5.745   7.025   8.389 -0.3236 -0.1860 -0.1810
   84POPC   PO4 1371   5.808   6.705   8.139  0.3168  0.1635  0.2085
   84POPC   GL1 1372   5.876   6.574   7.754  0.1486  0.2382 -0.2046
   84POPC   GL2 1373   5.916   6.308   7.815 -0.1059  0.0461 -0.3429
   84POPC   C1A 1374   6.091   6.527   7.402 -0.0920 -0.1844 -0.0999
   84POPC   D2A 1375   6.489   6.314   7.294 -0.0490  0.0818 -0.2559
   84POPC   C3A 1376   6.732   6.442   6.923 -0.2761 -0.0996 -0.0329
   84POPC   C4A 1377   6.964   6.372   6.576  0.1338  0.1534  0.3817
   84POPC   C1B 1378   5.763   6.000   7.514 -0.2043 -0.3307  0.1216
   84POPC   C2B 1379   5.983   6.169   7.087  0.1300 -0.2561  0.0808
   84POPC   C3B 1380   6.057   6.050   6.727  0.1196  0.2805  0.2508
   84POPC   C4B 1381   6.415   6.091   6.445 -0.0899 -0.1120 -0.0882
   85POPC   NC3 1382   0.972   1.935   8.721 -0.1747 -0.0412 -0.2266
   85POPC   PO4 1383   0.870   2.061   8.301  0.2763  0.1577  0.0457
   85POPC   GL1 1384   1.151   2.368   8.054 -0.1681  0.2349  0.2098
   85POPC   GL2 1385   1.211   2.666   8.023  0.1512 -0.1287 -0.3765
   85POPC   C1A 1386   0.954   2.401   7.704 -0.5396 -0.0821  0.2998
   85POPC   D2A 1387   0.730   2.202   7.389 -0.0816 -0.2839 -0.0315
   85POPC   C3A 1388   0.623   2.149   6.946  0.0720 -0.1507  0.0712
   85POPC   C4A 1389   0.198   2.332   6.705 -0.0934  0.0567  0.1986
   85POPC   C1B 1390   0.893   2.976   7.824  0.0372 -0.0441 -0.1245
   85POPC   C2B 1391   0.769   3.005   7.447  0.0863 -0.4948 -0.1632
   85POPC   C3B 1392   0.693   3.086   7.037  0.3770  0.0077 -0.3898
   85POPC   C4B 1393   0.467   3.246   6.715 -0.0574  0.0382 -0.1568
   86POPC   NC3 1394   3.042   5.701   8.785  0.0286  0.0667 -0.0642
   86POPC   PO4 1395   2.867   5.486   8.422 -0.3116  0.3195 -0.1364
   86POPC   GL1 1396   2.538   5.498   8.185  0.1453  0.2621 -0.1962
   86POPC   GL2 1397   2.629   5.441   7.823  0.2201  0.1192  0.0851
   86POPC   C1A 1398   2.533   5.898   8.024  0.1372  0.1086  0.0103
   86POPC   D2A 1399   2.437   6.111   7.606 -0.0068  0.0468  0.3087
   86POPC   C3A 1400   2.144   5.844   7.287 -0.1908  0.4141  0.0939
   86POPC   C4A 1401   2.056   5.425   7.159 -0.1106  0.1838  0.0870
   86POPC   C1B 1402   2.575   5.569   7.327 -0.0364 -0.2460 -0.0853
   86POPC   C2B 1403   2.440   5.627   6.882 -0.2466 -0.0697 -0.0485
   86POPC   C3B 1404   2.046   5.812   6.773 -0.0619 -0.1236 -0.0171
   86POPC   C4B 1405   1.758   6.110   6.607 -0.0846  0.0738  0.3254
   87POPC   NC3 1406   9.585   5.647   8.702 -0.0081  0.0653  0.3016
   87POPC   PO4 1407   9.313   5.443   8.383  0.0288 -0.0360 -0.0442
   87POPC   GL1 1408   9.363   5.152   8.070  0.1125  0.2221 -0.1648
   87POPC   GL2 1409   9.562   5.335   7.900  0.1694  0.3677  0.1009
   87POPC   C1A 1410   9.193   5.050   7.584 -0.1852 -0.0773  0.0404
   87POPC   D2A 1411   9.213   5.159   7.174  0.0770 -0.0931 -0.0855
   87POPC   C3A 1412   8.957   4.828   7.008  0.3668 -0.0651  0.0626
   87POPC   C4A 1413   8.839   4.759   6.509  0.2450  0.0190  0.1410
   87POPC   C1B 1414   9.679   5.727   7.993  0.1757 -0.0682  0.1817
   87POPC   C2B 1415   9.469   6.070   7.917  0.0064  0.0885  0.0812
   87POPC   C3B 1416   9.452   6.319   7.524 -0.2212  0.0400  0.0688
   87POPC   C4B 1417   9.159   6.439   7.273 -0.0984 -0.0312 -0.2376
   88POPC   NC3 1418   3.525   7.115   8.322  0.3188  0.1380 -0.0089
   88POPC   PO4 1419   3.880   6.755   8.349 -0.0817  0.1244 -0.0381
   88POPC   GL1 1420   4.151   6.944   7.995  0.1219 -0.1308  0.0147
   88POPC   GL2 1421   4.013   7.115   7.776  0.1763 -0.1130  0.2525
   88POPC   C1A 1422   4.532   7.169   7.771 -0.0023 -0.0183  0.0505
   88POPC   D2A 1423   4.969   7.298   7.858  0.3536  0.0973 -0.0381
   88POPC   C3A 1424   5.178   7.383   7.579 -0.1469 -0.1862  0.1894
   88POPC   C4A 1425   5.629   7.418   7.494 -0.0510  0.1672 -0.0443
   88POPC   C1B 1426   4.143   6.999   7.310  0.2249  0.0453 -0.0251
   88POPC   C2B 1427   4.426   6.897   6.926  0.2307 -0.1201 -0.3935
   88POPC   C3B 1428   4.781   6.741   6.662 -0.4084 -0.0502  0.1982
   88POPC   C4B 1429   5.244   6.477   6.878  0.1565 -0.1881  0.1445
   89POPC   NC3 1430   3.339   5.427   8.471 -0.0900 -0.0824  0.1346
   89POPC   PO4 1431   3.621   5.386   8.173  0.3499  0.0808  0.3058
   89POPC   GL1 1432   3.620   5.674   7.755 -0.0295 -0.0094  0.0290
   89POPC   GL2 1433   3.763   6.072   7.825 -0.0002 -0.0958 -0.0713
   89POPC   C1A 1434   3.804   5.819   7.337 -0.0203  0.3200  0.1482
   89POPC   D2A 1435   3.904   6.092   7.009  0.1301  0.3405 -0.1807
   89POPC   C3A 1436   3.516   6.329   6.750 -0.0259 -0.0862 -0.2244
   89POPC   C4A 1437   3.037   6.366   6.702 -0.2418  0.2237  0.0247
   89POPC   C1B 1438   3.662   6.265   7.545 -0.2226 -0.0971  0.1827
   89POPC   C2B 1439   3.441   6.147   7.170  0.0207 -0.0208  0.2318
   89POPC   C3B 1440   3.328   5.860   6.707 -0.2631 -0.0505  0.1582
   89POPC   C4B 1441   3.322   5.544   6.445 -0.4034 -0.0754 -0.1472
   90POPC   NC3 1442   2.818   7.430   8.693 -0.4467  0.0614  0.0199
   90POPC   PO4 1443   3.127   7.384   8.269  0.3401  0.1409  0.2045
   90POPC   GL1 1444   3.157   7.688   7.946 -0.1012  0.3813  0.2225
   90POPC   GL2 1445   3.160   7.875   7.884 -0.4462 -0.1427  0.2130
   90POPC   C1A 1446   3.271   7.649   7.486 -0.1228  0.1857 -0.0281
   90POPC   D2A 1447   3.353   7.294   7.251 -0.1450  0.0579 -0.4943
   90POPC   C3A 1448   3.547   7.271   6.853 -0.4045  0.1626  0.1354
   90POPC   C4A 1449   3.940   7.138   6.727 -0.2832 -0.0654  0.1918
   90POPC   C1B 1450   3.226   8.133   7.516  0.1636 -0.1087 -0.0388
   90POPC   C2B 1451   3.063   7.993   7.198  0.0109  0.1478 -0.1832
   90POPC   C3B 1452   2.699   8.137   7.009  0.2194 -0.0746 -0.1024
   90POPC   C4B 1453   2.540   8.583   7.030  0.0124 -0.1230 -0.1154
   91POPC   NC3 1454   2.688   7.622   8.175  0.0391  0.1082  0.2415
   91POPC   PO4 1455   2.681   7.109   8.286  0.4073 -0.1995  0.0118
   91POPC   GL1 1456   2.703   7.065   7.864  0.0031 -0.0914 -0.1926
   91POPC   GL2 1457   2.750   7.318   7.821  0.1455 -0.1841 -0.0360
   91POPC   C1A 1458   2.841   7.084   7.357 -0.0794  0.0722 -0.4628
   91POPC   D2A 1459   3.008   7.137   6.983 -0.1897 -0.2238  0.0340
   91POPC   C3A 1460   3.043   7.455   6.806 -0.2223 -0.2557  0.1247
   91POPC   C4A 1461   3.040   7.865   6.674 -0.0548  0.1463 -0.1838
   91POPC   C1B 1462   2.791   7.644   7.513  0.0470 -0.0547 -0.3750
   91POPC   C2B 1463   2.523   7.699   7.005 -0.2528  0.1205  0.1309
   91POPC   C3B 1464   2.629   7.652   6.500 -0.0825 -0.0370  0.0902
   91POPC   C4B 1465   2.466   7.502   6.123  0.1313  0.1717  0.2049
   92POPC   NC3 1466   0.591   7.673   8.729 -0.3671 -0.1090 -0.2459
   92POPC   PO4 1467   0.293   7.407   8.435 -0.2794  0.1541  0.1515
   92POPC   GL1 1468   0.185   7.329   8.000  0.1349  0.0993  0.2551
   92POPC   GL2 1469   0.365   7.589   7.823  0.1651  0.0864  0.1920
   92POPC   C1A 1470   0.158   7.048   7.651  0.1309 -0.4719  0.3305
   92POPC   D2A 1471   0.421   7.020   7.366 -0.0264  0.0253  0.3336
   92POPC   C3A 1472   0.193   6.973   6.906  0.1283 -0.1402 -0.3459
   92POPC   C4A 1473   0.024   7.009   6.461 -0.0002  0.0090  0.3272
   92POPC   C1B 1474   0.477   7.512   7.362 -0.2946 -0.0181 -0.0002
   92POPC   C2B 1475   0.426   7.488   6.878 -0.1774 -0.3379  0.4354
   92POPC   C3B 1476   0.268   7.458   6.477  0.1095  0.1133  0.0174
   92POPC   C4B 1477   0.051   7.741   6.265 -0.0685 -0.0526  0.0417
   93POPC   NC3 1478   3.294   3.374   8.206 -0.1672  0.1895  0.0259
   93POPC   PO4 1479   2.999   3.555   8.040  0.3879  0.2651 -0.1273
   93POPC   GL1 1480   3.167   3.583   7.636 -0.1382  0.0580 -0.2116
   93POPC   GL2 1481   3.433   3.655   7.793  0.2786  0.1619 -0.3018
   93POPC   C1A 1482   3.244   3.689   7.257  0.3260  0.1018  0.0680
   93POPC   D2A 1483   3.300   3.291   7.011 -0.3219  0.0712 -0.1670
   93POPC   C3A 1484   3.143   2.904   6.900 -0.2563 -0.0005  0.1824
   93POPC   C4A 1485   2.968   2.521   6.767  0.3007 -0.0768 -0.0889
   93POPC   C1B 1486   3.808   3.737   7.672 -0.1768  0.1440  0.0464
   93POPC   C2B 1487   4.212   3.825   7.468 -0.3057  0.2312  0.2826
   93POPC   C3B 1488   4.344   3.960   7.000 -0.1843  0.1147  0.0339
   93POPC   C4B 1489   4.691   4.163   6.892  0.0226 -0.1669 -0.0757
   94POPC   NC3 1490   4.225   3.544   8.478 -0.2389 -0.1785  0.2190
   94POPC   PO4 1491   4.336   4.014   8.292  0.2309 -0.0205  0.1032
   94POPC   GL1 1492   4.451   4.062   7.856 -0.0391 -0.2216 -0.1149
   94POPC   GL2 1493   4.176   4.206   7.773 -0.0141 -0.1969 -0.1133
   94POPC   C1A 1494   4.482   4.248   7.372  0.4244  0.0283 -0.2191
   94POPC   D2A 1495   4.348   4.503   6.992 -0.3364  0.2353 -0.0176
   94POPC   C3A 1496   4.136   4.194   6.633 -0.1921  0.1596 -0.1298
   94POPC   C4A 1497   4.118   3.930   6.251 -0.1970  0.1433  0.1372
   94POPC   C1B 1498   4.011   4.259   7.330 -0.0236 -0.0856 -0.0371
   94POPC   C2B 1499   3.886   3.865   7.121  0.2144  0.0007  0.0657
   94POPC   C3B 1500   3.925   3.758   6.670  0.3873 -0.1126 -0.0326
   94POPC   C4B 1501   3.790   3.496   6.348 -0.0542 -0.0638 -0.1798
   95POPC   NC3 1502   3.655   0.328   8.262 -0.1363  0.2827 -0.3020
   95POPC   PO4 1503   3.876   0.693   8.127  0.1414 -0.2561  0.1532
   95POPC   GL1 1504   3.789   0.709   7.792 -0.0753 -0.0229  0.0989
   95POPC   GL2 1505   3.670   0.967   7.718 -0.0091 -0.0267  0.0633
   95POPC   C1A 1506   3.679   0.432   7.351 -0.4125 -0.1704 -0.0575
   95POPC   D2A 1507   3.606   0.095   7.276  0.0689  0.2240  0.0083
   95POPC   C3A 1508   3.569  -0.315   6.994 -0.1557 -0.5538  0.0309
   95POPC   C4A 1509   3.206  -0.522   6.772 -0.1945  0.3565 -0.1332
   95POPC   C1B 1510   3.720   0.985   7.283  0.1119 -0.3045 -0.0858
   95POPC   C2B 1511   3.981   1.039   6.929  0.0768  0.3019 -0.0372
   95POPC   C3B 1512   4.034   0.747   6.602  0.4160 -0.0687  0.4347
   95POPC   C4B 1513   4.156   0.496   6.231 -0.1899 -0.3613 -0.0077
   96POPC   NC3 1514   7.685   7.376   8.327  0.3530  0.0595  0.0900
   96POPC   PO4 1515   7.365   7.630   8.308 -0.1531 -0.0109 -0.0448
   96POPC   GL1 1516   7.675   7.792   8.088 -0.0580  0.1999  0.0909
   96POPC   GL2 1517   7.624   7.658   7.819 -0.1500 -0.0105 -0.1709
   96POPC   C1A 1518   7.810   8.137   7.793  0.0409  0.1831  0.0249
   96POPC   D2A 1519   8.094   8.057   7.556 -0.0174 -0.2695  0.0472
   96POPC   C3A 1520   8.101   7.790   7.160  0.1585  0.3822  0.1566
   96POPC   C4A 1521   8.369   8.095   6.909 -0.1954 -0.2677  0.0269
   96POPC   C1B 1522   7.633   7.860   7.451  0.1883  0.1841 -0.2547
   96POPC   C2B 1523   7.585   7.812   7.021 -0.1166 -0.0242  0.0141
   96POPC   C3B 1524   7.398   8.189   6.636  0.0745  0.3289 -0.2961
   96POPC   C4B 1525   7.567   8.556   6.562 -0.2065  0.1725  0.1488
   97POPC   NC3 1526   9.503   7.461   8.354  0.3556 -0.0767  0.0891
   97POPC   PO4 1527   9.671   7.754   8.130 -0.0704 -0.0500  0.2040
   97POPC   GL1 1528   9.420   7.475   7.830 -0.1840 -0.1809  0.0603
   97POPC   GL2 1529   9.388   7.156   7.965  0.0796 -0.1417 -0.4118
   97POPC   C1A 1530   9.473   7.343   7.441  0.0987 -0.0845  0.3275
   97POPC   D2A 1531   9.688   7.504   7.082  0.1980 -0.2997  0.0044
   97POPC   C3A 1532   9.787   7.778   6.798  0.1559  0.0673  0.0135
   97POPC   C4A 1533  10.150   7.997   6.632 -0.2480  0.2277 -0.1045
   97POPC   C1B 1534   9.418   6.849   7.564 -0.2444 -0.2284  0.0474
   97POPC   C2B 1535   9.560   6.792   7.200 -0.0007 -0.0752 -0.1343
   97POPC   C3B 1536   9.404   6.828   6.776  0.1917 -0.2046 -0.1932
   97POPC   C4B 1537   9.103   6.956   6.492 -0.1566  0.2792  0.2091
   98POPC   NC3 1538   1.305   2.849   8.862 -0.0916 -0.3566  0.1127
   98POPC   PO4 1539   0.999   2.927   8.525 -0.0743 -0.0986 -0.1150
   98POPC   GL1 1540   0.757   2.703   8.277  0.1729  0.0472  0.1179
   98POPC   GL2 1541   0.577   2.973   8.229 -0.0859  0.0348 -0.2650
   98POPC   C1A 1542   0.500   2.446   8.034  0.1143 -0.1942  0.5022
   98POPC   D2A 1543   0.318   2.201   7.741 -0.2901 -0.1122 -0.2590
   98POPC   C3A 1544   0.442   1.818   7.677  0.0231  0.1555  0.0347
   98POPC   C4A 1545   0.892   1.641   7.817  0.0590  0.0945  0.1428
   98POPC   C1B 1546   0.390   2.929   7.887  0.0967  0.1467  0.0051
   98POPC   C2B 1547   0.046   3.097   7.626 -0.2395 -0.1976 -0.0013
   98POPC   C3B 1548  -0.136   3.433   7.494  0.0569 -0.1984 -0.1059
   98POPC   C4B 1549  -0.280   3.833   7.445  0.1744  0.1726  0.1897
   99POPC   NC3 1550   4.556   2.710   8.298  0.0574 -0.4537  0.1442
   99POPC   PO4 1551   4.600   3.102   8.458 -0.0897 -0.1092 -0.2045
   99POPC   GL1 1552   4.650   3.142   8.022  0.1675 -0.1029  0.2918
   99POPC   GL2 1553   4.801   2.835   7.834 -0.2344  0.1600 -0.0856
   99POPC   C1A 1554   4.836   3.360   7.645 -0.2349 -0.1046  0.0303
   99POPC   D2A 1555   5.104   3.343   7.245  0.1392 -0.0144  0.0730
   99POPC   C3A 1556   5.349   2.954   7.045  0.1960  0.2687 -0.1279
   99POPC   C4A 1557   5.775   2.753   7.152 -0.1824  0.4107 -0.1972
   99POPC   C1B 1558   4.934   2.789   7.396 -0.1564 -0.1525  0.4338
   99POPC   C2B 1559   4.884   3.044   6.926 -0.0338 -0.0004  0.1768
   99POPC   C3B 1560   5.124   3.002   6.553 -0.0148 -0.0870  0.2659
   99POPC   C4B 1561   5.146   3.110   6.130  0.0532  0.0226  0.1863
  100POPC   NC3 1562   2.432   2.325   8.142  0.0536 -0.0683  0.0425
  100POPC   PO4 1563   2.936   2.223   8.033  0.2326 -0.1948  0.0958
  100POPC   GL1 1564   2.865   2.548   7.662 -0.0899 -0.3026 -0.3225
  100POPC   GL2 1565   2.538   2.674   7.713 -0.2171  0.1058  0.0501
  100POPC   C1A 1566   2.870   2.647   7.244 -0.1160 -0.0272 -0.1532
  100POPC   D2A 1567   2.523   2.689   6.953 -0.0071  0.0133 -0.0111
  100POPC   C3A 1568   2.140   2.425   6.854 -0.2546  0.2622 -0.0816
  100POPC   C4A 1569   1.964   2.013   6.848 -0.1296  0.0302  0.0120
  100POPC   C1B 1570   2.376   2.424   7.379  0.4684 -0.0302 -0.1594
  100POPC   C2B 1571   2.230   2.035   7.342  0.2371 -0.1036 -0.3116
  100POPC   C3B 1572   2.064   1.634   7.198 -0.1259  0.0034 -0.2497
  100POPC   C4B 1573   1.911   1.458   6.884  0.0851  0.0723  0.5139
  101POPC   NC3 1574   2.992   1.249   7.901  0.0887  0.1512 -0.0106
  101POPC   PO4 1575   2.747   1.676   7.929  0.0622  0.1155 -0.2280
  101POPC   GL1 1576   3.041   1.635   7.588 -0.0125  0.0723 -0.3820
  101POPC   GL2 1577   3.161   1.952   7.676 -0.0157  0.1771  0.1656
  101POPC   C1A 1578   3.109   1.627   7.247  0.2416  0.1851 -0.1449
  101POPC   D2A 1579   3.092   1.886   6.858  0.1291  0.1984 -0.0999
  101POPC   C3A 1580   3.422   1.895   6.642 -0.2614 -0.4721 -0.0716
  101POPC   C4A 1581   3.738   2.201   6.535 -0.1644 -0.0872  0.0224
  101POPC   C1B 1582   2.985   2.102   7.359 -0.5032  0.2269 -0.0604
  101POPC   C2B 1583   2.755   2.196   7.059  0.2289 -0.2603 -0.1548
  101POPC   C3B 1584   2.589   2.206   6.735 -0.2754  0.1515  0.0139
  101POPC   C4B 1585   2.367   2.040   6.411 -0.1398 -0.1610 -0.1408
  102POPC   NC3 1586   1.987   8.876   8.775 -0.3010  0.1586 -0.0067
  102POPC   PO4 1587   1.780   8.542   8.539  0.1134  0.1205 -0.0409
  102POPC   GL1 1588   1.829   8.431   8.044  0.3539  0.1681 -0.1731
  102POPC   GL2 1589   1.652   8.751   7.905 -0.2437 -0.0667  0.4082
  102POPC   C1A 1590   1.695   8.148   7.860 -0.0409  0.0430 -0.0165
  102POPC   D2A 1591   1.378   7.825   7.506  0.1690  0.2401  0.0552
  102POPC   C3A 1592   0.927   7.880   7.467 -0.0965 -0.2658 -0.1393
  102POPC   C4A 1593   0.740   7.888   7.048 -0.0692 -0.0157 -0.1315
  102POPC   C1B 1594   1.819   8.801   7.506  0.0268 -0.0714  0.1201
  102POPC   C2B 1595   1.671   8.711   7.106  0.2002 -0.0005  0.2763
  102POPC   C3B 1596   1.500   8.446   6.812 -0.2398  0.2268 -0.1570
  102POPC   C4B 1597   1.767   8.296   6.405  0.1427  0.1777 -0.0544
  103POPC   NC3 1598   7.841   0.103   9.642  0.0819 -0.0440 -0.1469
  103POPC   PO4 1599   7.560  -0.041   9.437  0.3223  0.0713 -0.0460
  103POPC   GL1 1600   7.646  -0.036   9.031  0.1323  0.0615  0.0432
  103POPC   GL2 1601   7.479   0.061   8.811  0.0183 -0.3455 -0.0905
  103POPC   C1A 1602   7.907  -0.262   8.749  0.1551 -0.0227 -0.2090
  103POPC   D2A 1603   7.982  -0.311   8.382 -0.1010  0.1146 -0.0464
  103POPC   C3A 1604   8.389  -0.134   8.241 -0.0417 -0.0842 -0.0568
  103POPC   C4A 1605   8.458   0.275   8.036  0.1341 -0.2786 -0.1738
  103POPC   C1B 1606   7.339  -0.223   8.387  0.0375 -0.2402  0.1042
  103POPC   C2B 1607   7.428  -0.037   8.042  0.1944 -0.0151  0.1854
  103POPC   C3B 1608   7.141  -0.082   7.649  0.2227 -0.0258 -0.2708
  103POPC   C4B 1609   6.902   0.092   7.339  0.2400  0.1236  0.0190
  104POPC   NC3 1610   8.113   3.502   9.480  0.0515  0.2429  0.2133
  104POPC   PO4 1611   7.961   3.423   9.127 -0.2861  0.0053 -0.0421
  104POPC   GL1 1612   8.093   3.556   8.726 -0.0249  0.1845  0.0417
  104POPC   GL2 1613   8.329   3.321   8.631 -0.4988 -0.0263 -0.0028
  104POPC   C1A 1614   8.055   3.600   8.306 -0.0709 -0.0599 -0.0608
  104POPC   D2A 1615   7.886   3.602   7.883 -0.0532  0.0523  0.0569
  104POPC   C3A 1616   7.504   3.176   7.827  0.2771 -0.1327 -0.1324
  104POPC   C4A 1617   7.245   3.093   7.540  0.0468 -0.1685 -0.0467
  104POPC   C1B 1618   8.172   3.011   8.371 -0.0097  0.0852  0.1461
  104POPC   C2B 1619   8.114   3.131   7.987  0.0730  0.1964  0.1250
  104POPC   C3B 1620   8.374   3.279   7.594 -0.0926  0.1528 -0.0468
  104POPC   C4B 1621   8.756   3.594   7.593 -0.0012 -0.2238 -0.3427
  105POPC   NC3 1622   2.463   2.929   8.210 -0.0105  0.0937  0.1620
  105POPC   PO4 1623   1.965   2.761   8.247 -0.1973 -0.0355  0.1821
  105POPC   GL1 1624   1.915   2.952   7.804  0.1793  0.1192 -0.0583
  105POPC   GL2 1625   1.585   2.997   7.831 -0.1086  0.3683 -0.1811
  105POPC   C1A 1626   1.818   3.125   7.367 -0.0447 -0.0124 -0.0036
  105POPC   D2A 1627   1.716   3.304   7.047  0.0627 -0.1616 -0.2801
  105POPC   C3A 1628   1.530   3.203   6.615  0.1789 -0.1313 -0.3073
  105POPC   C4A 1629   1.431   3.380   6.232 -0.1101 -0.3539 -0.0886
  105POPC   C1B 1630   1.262   3.279   7.548  0.1097 -0.3988 -0.2351
  105POPC   C2B 1631   0.877   3.560   7.377 -0.2603 -0.0677  0.5079
  105POPC   C3B 1632   0.742   3.689   7.006  0.1472 -0.0285 -0.0659
  105POPC   C4B 1633   0.994   3.769   6.636 -0.2024  0.1520  0.0913
  106POPC   NC3 1634   3.696   2.410   8.094 -0.2656  0.0057 -0.1541
  106POPC   PO4 1635   4.120   2.562   8.154 -0.0620  0.0298  0.1420
  106POPC   GL1 1636   4.303   2.642   7.835 -0.2407  0.1096  0.2437
  106POPC   GL2 1637   4.484   2.550   7.531 -0.0498  0.0885  0.3570
  106POPC   C1A 1638   4.435   3.066   7.592  0.1035 -0.0107  0.1217
  106POPC   D2A 1639   4.184   3.380   7.304  0.0448  0.2625  0.0796
  106POPC   C3A 1640   4.417   3.483   6.928  0.0608 -0.1326 -0.1571
  106POPC   C4A 1641   4.446   3.688   6.539 -0.0484  0.0357 -0.0200
  106POPC   C1B 1642   4.367   2.090   7.417  0.0217 -0.0472  0.2013
  106POPC   C2B 1643   4.359   1.851   7.064 -0.2402 -0.0785 -0.1516
  106POPC   C3B 1644   4.167   1.535   6.765 -0.2451  0.1218  0.0701
  106POPC   C4B 1645   3.951   1.246   6.440  0.2989 -0.0406 -0.2123
  107POPC   NC3 1646   5.149   3.591   8.975 -0.0701 -0.0869 -0.3115
  107POPC   PO4 1647   5.423   3.261   8.771 -0.2579  0.0571  0.1792
  107POPC   GL1 1648   5.481   3.265   8.319  0.1556  0.1350 -0.1228
  107POPC   GL2 1649   5.226   3.393   8.051  0.0497 -0.3653 -0.0314
  107POPC   C1A 1650   5.483   3.013   7.899 -0.1141 -0.2708  0.0151
  107POPC   D2A 1651   5.430   3.017   7.531  0.1925 -0.4055 -0.2144
  107POPC   C3A 1652   5.696   3.282   7.236 -0.0984  0.0534 -0.0936
  107POPC   C4A 1653   5.785   3.179   6.730 -0.0704  0.1764  0.0209
  107POPC   C1B 1654   5.314   3.641   7.620  0.0926  0.1701  0.1729
  107POPC   C2B 1655   5.543   3.771   7.193  0.0819  0.1903 -0.2162
  107POPC   C3B 1656   5.700   3.985   6.843  0.1963  0.2553  0.2535
  107POPC   C4B 1657   5.620   4.296   6.495  0.2804 -0.2398 -0.2099
  108POPC   NC3 1658   2.409   9.583   8.267 -0.0159 -0.0837 -0.1578
  108POPC   PO4 1659   2.147   9.879   7.953  0.0399 -0.1210 -0.4002
  108POPC   GL1 1660   1.943   9.912   7.532 -0.4122 -0.1025  0.2416
  108POPC   GL2 1661   1.560   9.952   7.465 -0.0971  0.0035  0.0952
  108POPC   C1A 1662   2.016   9.720   7.137  0.0544  0.1447 -0.1431
  108POPC   D2A 1663   1.887   9.866   6.585  0.1163  0.0910 -0.0274
  108POPC   C3A 1664   1.898  10.324   6.443 -0.2017  0.1743  0.1293
  108POPC   C4A 1665   1.614  10.671   6.632 -0.0282 -0.2642  0.0069
  108POPC   C1B 1666   1.815  10.195   7.098 -0.1359 -0.0759 -0.0200
  108POPC   C2B 1667   2.091  10.626   7.031  0.3061 -0.1429  0.2826
  108POPC   C3B 1668   2.392  10.938   6.996 -0.3823 -0.4533 -0.0326
  108POPC   C4B 1669   2.792  11.104   6.879 -0.1182 -0.1714  0.1498
  109POPC   NC3 1670   0.499   4.335   8.426 -0.0640 -0.1512  0.1325
  109POPC   PO4 1671   0.901   4.435   8.427 -0.1196  0.0088 -0.2745
  109POPC   GL1 1672   1.113   4.342   8.011 -0.3826  0.1228  0.1795
  109POPC   GL2 1673   1.308   4.063   8.089  0.0526 -0.1651  0.0485
  109POPC   C1A 1674   1.195   4.475   7.617  0.1516 -0.1937  0.0935
  109POPC   D2A 1675   0.911   4.561   7.174  0.0650 -0.0778 -0.2646
  109POPC   C3A 1676   1.179   4.535   6.809  0.3690 -0.0498 -0.2113
  109POPC   C4A 1677   1.131   4.747   6.422  0.1600 -0.1775 -0.2056
  109POPC   C1B 1678   1.619   4.347   7.941  0.1992 -0.1289 -0.0400
  109POPC   C2B 1679   1.678   4.543   7.590  0.0559 -0.2852  0.0854
  109POPC   C3B 1680   1.422   4.668   7.212 -0.0400 -0.0382 -0.0895
  109POPC   C4B 1681   1.518   4.938   6.856 -0.0873 -0.2117 -0.0847
  110POPC   NC3 1682   0.188   0.408   9.360  0.2167 -0.3537 -0.1395
  110POPC   PO4 1683   0.387   0.409   8.930 -0.0644 -0.1160 -0.4828
  110POPC   GL1 1684   0.151   0.271   8.465 -0.0033 -0.1263  0.0165
  110POPC   GL2 1685   0.067   0.543   8.212 -0.2363 -0.1089 -0.0931
  110POPC   C1A 1686  -0.122   0.027   8.132 -0.1624 -0.2045 -0.2376
  110POPC   D2A 1687  -0.624   0.100   8.105  0.3241 -0.2283 -0.1209
  110POPC   C3A 1688  -0.999  -0.118   7.929 -0.0690  0.0771  0.2637
  110POPC   C4A 1689  -0.957  -0.552   7.942 -0.0156  0.2058 -0.3455
  110POPC   C1B 1690  -0.356   0.555   8.303 -0.4133  0.3167  0.1672
  110POPC   C2B 1691  -0.712   0.760   8.120  0.1275 -0.0214 -0.1228
  110POPC   C3B 1692  -1.143   0.717   8.155  0.1385 -0.0059  0.1613
  110POPC   C4B 1693  -1.628   0.605   8.256  0.4316 -0.2716 -0.1565
  111POPC   NC3 1694   7.000   5.248   8.937 -0.2830  0.1856  0.4223
  111POPC   PO4 1695   7.168   4.829   8.962 -0.3629 -0.0148  0.0803
  111POPC   GL1 1696   7.097   4.647   8.580  0.0344  0.2105  0.0791
  111POPC   GL2 1697   6.883   4.845   8.438 -0.0704  0.2774  0.0977
  111POPC   C1A 1698   6.825   4.273   8.392 -0.0341  0.1420  0.1578
  111POPC   D2A 1699   6.637   3.999   8.092 -0.0080  0.1091 -0.1821
  111POPC   C3A 1700   6.824   4.035   7.749 -0.1138  0.1283 -0.1214
  111POPC   C4A 1701   7.074   3.969   7.352  0.2826 -0.2699  0.2861
  111POPC   C1B 1702   7.044   4.594   8.070  0.1036  0.1485 -0.1721
  111POPC   C2B 1703   7.239   4.369   7.703 -0.1051  0.0171  0.0632
  111POPC   C3B 1704   7.559   4.182   7.311 -0.0694  0.0409 -0.1386
  111POPC   C4B 1705   7.828   3.998   7.155  0.1842 -0.0894  0.1529
  112POPC   NC3 1706   3.432   3.880   8.939 -0.0789 -0.0800 -0.1322
  112POPC   PO4 1707   3.341   4.208   8.661  0.1800  0.3585  0.1308
  112POPC   GL1 1708   3.446   4.284   8.104 -0.1697  0.1474  0.1471
  112POPC   GL2 1709   3.164   4.159   7.830 -0.3006 -0.0221 -0.0261
  112POPC   C1A 1710   3.607   4.175   7.589 -0.0235 -0.0565 -0.1834
  112POPC   D2A 1711   3.533   4.292   7.138  0.1469 -0.1121  0.0025
  112POPC   C3A 1712   3.583   4.199   6.799  0.0468 -0.0579  0.1941
  112POPC   C4A 1713   3.389   3.715   6.703 -0.4672 -0.1152  0.0501
  112POPC   C1B 1714   3.051   4.150   7.403  0.3486  0.0649 -0.1447
  112POPC   C2B 1715   3.030   4.077   6.939  0.0843  0.1743  0.2385
  112POPC   C3B 1716   3.155   4.144   6.496 -0.2264 -0.0522 -0.2993
  112POPC   C4B 1717   3.126   4.075   6.026 -0.2356  0.1459  0.0036
  113POPC   NC3 1718   2.216   7.056   8.547 -0.1921  0.2026  0.3627
  113POPC   PO4 1719   2.284   7.512   8.469  0.3207  0.2676 -0.0016
  113POPC   GL1 1720   2.231   7.757   8.064 -0.4084 -0.0433 -0.1188
  113POPC   GL2 1721   2.350   7.609   7.806  0.2168 -0.2531 -0.0310
  113POPC   C1A 1722   2.239   8.136   7.825  0.1763 -0.1721  0.1825
  113POPC   D2A 1723   2.175   8.394   7.389  0.1288  0.1558  0.1265
  113POPC   C3A 1724   2.184   8.049   7.010 -0.2384  0.2343  0.0700
  113POPC   C4A 1725   2.233   7.970   6.609  0.0461 -0.0401 -0.0440
  113POPC   C1B 1726   2.175   7.360   7.572 -0.1244  0.0579  0.0718
  113POPC   C2B 1727   2.036   7.431   7.169 -0.1130 -0.0278 -0.0485
  113POPC   C3B 1728   2.228   7.377   6.660  0.0200  0.1419 -0.0198
  113POPC   C4B 1729   2.515   7.183   6.519  0.0082  0.0475  0.0913
  114POPC   NC3 1730   9.246   4.769   8.494 -0.0313  0.1365 -0.1485
  114POPC   PO4 1731   9.286   4.314   8.700 -0.1715 -0.0745 -0.0959
  114POPC   GL1 1732   9.309   4.355   8.202 -0.0366  0.3143  0.1777
  114POPC   GL2 1733   9.440   4.602   8.064 -0.1218 -0.1015 -0.1686
  114POPC   C1A 1734   9.592   4.198   7.859  0.1787 -0.0359 -0.2578
  114POPC   D2A 1735   9.807   4.372   7.429 -0.0980  0.2018  0.0264
  114POPC   C3A 1736   9.682   4.196   7.102  0.0058  0.0101 -0.0653
  114POPC   C4A 1737   9.514   3.926   6.942 -0.2403 -0.1098 -0.0200
  114POPC   C1B 1738   9.146   4.639   7.795  0.1233 -0.1072 -0.0247
  114POPC   C2B 1739   8.772   4.947   7.960 -0.0062 -0.2117  0.1733
  114POPC   C3B 1740   8.354   4.965   7.672  0.2265 -0.1227 -0.2870
  114POPC   C4B 1741   7.996   5.070   7.889 -0.4714 -0.3746  0.1201
  115POPC   NC3 1742   3.012   8.266   9.073  0.0699 -0.4052  0.1446
  115POPC   PO4 1743   2.869   8.225   8.677  0.0119 -0.0516  0.0976
  115POPC   GL1 1744   2.789   8.220   8.145 -0.1974 -0.1425  0.3990
  115POPC   GL2 1745   2.717   8.588   8.014  0.1425 -0.0445 -0.0374
  115POPC   C1A 1746   2.678   8.062   7.744  0.1719  0.2800 -0.2087
  115POPC   D2A 1747   2.405   7.893   7.425  0.3182  0.0696 -0.1057
  115POPC   C3A 1748   1.992   7.831   7.489 -0.0879 -0.0175  0.2229
  115POPC   C4A 1749   1.788   7.648   7.803 -0.0421 -0.0015  0.1459
  115POPC   C1B 1750   2.728   8.545   7.518 -0.1564 -0.3910 -0.2925
  115POPC   C2B 1751   2.961   8.516   7.226  0.4043  0.0232 -0.0262
  115POPC   C3B 1752   3.030   8.737   6.857  0.1172  0.0759 -0.1723
  115POPC   C4B 1753   3.169   8.313   6.719  0.0420 -0.0072  0.1350
  116POPC   NC3 1754   0.515   1.218   9.299  0.1160 -0.0052 -0.1544
  116POPC   PO4 1755   0.568   1.207   8.788 -0.1685 -0.2272 -0.0882
  116POPC   GL1 1756   0.465   1.300   8.376 -0.0977  0.3178 -0.0892
  116POPC   GL2 1757   0.513   1.614   8.130 -0.1746 -0.0548 -0.1353
  116POPC   C1A 1758   0.279   1.099   8.085  0.0034 -0.0308 -0.0594
  116POPC   D2A 1759   0.053   0.812   7.813 -0.2082 -0.3009  0.1920
  116POPC   C3A 1760   0.078   0.344   7.666  0.1781  0.0329 -0.1423
  116POPC   C4A 1761  -0.170   0.082   7.670 -0.2889  0.0468 -0.1112
  116POPC   C1B 1762   0.491   1.345   7.746 -0.1624 -0.1303 -0.0652
  116POPC   C2B 1763   0.370   1.346   7.341 -0.1918  0.0929 -0.0279
  116POPC   C3B 1764   0.354   1.695   7.003  0.2767 -0.0560  0.2448
  116POPC   C4B 1765   0.411   1.865   6.521  0.1517 -0.0127  0.1903
  117POPC   NC3 1766   8.781   5.529   8.667  0.1223 -0.1511 -0.0694
  117POPC   PO4 1767   8.427   5.352   8.528 -0.0627  0.1963  0.1920
  117POPC   GL1 1768   8.842   5.438   8.162 -0.0555 -0.1418 -0.1444
  117POPC   GL2 1769   9.088   5.709   7.979  0.2858 -0.3362 -0.0092
  117POPC   C1A 1770   8.803   5.390   7.735  0.1114 -0.1760 -0.0178
  117POPC   D2A 1771   8.707   5.158   7.296  0.1392 -0.2413 -0.2318
  117POPC   C3A 1772   8.601   4.771   7.345  0.0752 -0.0039 -0.1389
  117POPC   C4A 1773   8.604   4.404   7.225  0.0355 -0.2101  0.3118
  117POPC   C1B 1774   8.637   5.815   7.691  0.4043  0.0416  0.1763
  117POPC   C2B 1775   8.740   5.643   7.237  0.2345  0.0507 -0.2516
  117POPC   C3B 1776   8.827   5.419   6.783  0.0946 -0.2565  0.0691
  117POPC   C4B 1777   8.673   5.207   6.410 -0.3988  0.1364 -0.1193
  118POPC   NC3 1778   0.944   5.458   8.536  0.2835 -0.1443  0.1058
  118POPC   PO4 1779   1.170   5.799   8.661 -0.1061 -0.0281 -0.1709
  118POPC   GL1 1780   1.291   5.800   8.265 -0.0655  0.0765  0.1348
  118POPC   GL2 1781   1.158   5.613   8.109  0.1781  0.0828 -0.3091
  118POPC   C1A 1782   1.073   6.075   8.019  0.2122 -0.0156 -0.0601
  118POPC   D2A 1783   1.110   6.373   7.602 -0.0364  0.1738 -0.0779
  118POPC   C3A 1784   0.942   6.331   7.102 -0.2220  0.1069 -0.2510
  118POPC   C4A 1785   0.739   5.973   6.851 -0.0135 -0.0729  0.1080
  118POPC   C1B 1786   1.554   5.437   7.895 -0.3047 -0.1533 -0.0357
  118POPC   C2B 1787   1.689   5.596   7.531  0.1143 -0.1985 -0.2314
  118POPC   C3B 1788   1.592   5.596   7.119  0.2425  0.0672  0.1213
  118POPC   C4B 1789   1.377   5.574   6.667  0.5352  0.1311 -0.1206
  119POPC   NC3 1790   8.059   0.968   9.168  0.1405 -0.2238  0.0046
  119POPC   PO4 1791   7.763   1.115   9.518 -0.2240  0.3592  0.0821
  119POPC   GL1 1792   7.587   0.913   9.109 -0.0184  0.0890 -0.0232
  119POPC   GL2 1793   7.667   1.217   8.957  0.0540 -0.1792  0.0173
  119POPC   C1A 1794   7.227   0.659   8.992  0.0110  0.0504 -0.0706
  119POPC   D2A 1795   7.059   0.327   8.714  0.0072  0.0697  0.1020
  119POPC   C3A 1796   7.425   0.383   8.338  0.1339 -0.1576 -0.2803
  119POPC   C4A 1797   7.613   0.493   7.972  0.1865 -0.0959  0.0897
  119POPC   C1B 1798   7.844   1.573   8.742  0.0375 -0.0146  0.5773
  119POPC   C2B 1799   7.840   1.920   8.576 -0.1585 -0.1460  0.1894
  119POPC   C3B 1800   7.699   2.217   8.326 -0.1095  0.2134 -0.0311
  119POPC   C4B 1801   7.660   2.320   7.851 -0.3528 -0.1386 -0.2311
  120POPC   NC3 1802   7.933   5.071   8.505  0.1407  0.1576  0.1753
  120POPC   PO4 1803   7.910   5.370   8.748 -0.0857  0.5208  0.1030
  120POPC   GL1 1804   7.862   5.582   8.386 -0.0877 -0.1377  0.0578
  120POPC   GL2 1805   8.241   5.683   8.072 -0.1830  0.0427 -0.1242
  120POPC   C1A 1806   7.752   5.648   7.974  0.0769  0.1277  0.0174
  120POPC   D2A 1807   7.864   5.767   7.543 -0.1860 -0.2185 -0.0807
  120POPC   C3A 1808   8.293   5.929   7.394  0.2552 -0.0078  0.0597
  120POPC   C4A 1809   8.674   6.207   7.294  0.0183 -0.1671 -0.1710
  120POPC   C1B 1810   8.267   5.480   7.744  0.0356 -0.0050 -0.1468
  120POPC   C2B 1811   8.254   5.407   7.319 -0.0769 -0.1110 -0.1101
  120POPC   C3B 1812   8.346   5.241   6.930  0.0983  0.2888 -0.0507
  120POPC   C4B 1813   8.478   4.851   6.783  0.3541  0.1993 -0.1992
  121POPC   NC3 1814   2.197   0.741   8.019  0.3149 -0.1274  0.2795
  121POPC   PO4 1815   2.465   1.114   7.934  0.2872  0.0026 -0.1063
  121POPC   GL1 1816   2.656   1.297   7.542  0.0092 -0.0092  0.1003
  121POPC   GL2 1817   2.966   1.147   7.356  0.0634  0.1624 -0.1714
  121POPC   C1A 1818   2.627   1.749   7.285 -0.2177  0.0657  0.0832
  121POPC   D2A 1819   2.430   1.756   6.896  0.3173  0.0789  0.0681
  121POPC   C3A 1820   2.723   1.698   6.512 -0.4519 -0.0487 -0.3144
  121POPC   C4A 1821   2.939   1.947   6.427 -0.2012 -0.0275  0.1887
  121POPC   C1B 1822   2.806   0.918   7.073  0.1763 -0.1371 -0.0257
  121POPC   C2B 1823   2.568   0.821   6.694  0.1179  0.1909  0.1353
  121POPC   C3B 1824   2.349   0.675   6.255 -0.1829  0.2528 -0.1776
  121POPC   C4B 1825   2.275   0.575   5.850 -0.0923 -0.2721 -0.3955
  122POPC   NC3 1826   9.031   8.776   8.981 -0.1004 -0.4159  0.1056
  122POPC   PO4 1827   8.853   9.214   9.076 -0.2005  0.0285  0.0034
  122POPC   GL1 1828   8.625   9.065   8.750  0.4661  0.0062  0.1692
  122POPC   GL2 1829   8.689   8.721   8.701  0.0362  0.0841  0.2723
  122POPC   C1A 1830   8.483   9.112   8.395 -0.1475 -0.0217 -0.1444
  122POPC   D2A 1831   8.177   9.012   8.070 -0.2025  0.2891 -0.1087
  122POPC   C3A 1832   8.244   9.281   7.742 -0.1899  0.0080 -0.1636
  122POPC   C4A 1833   8.262   9.724   7.637  0.0217 -0.2025  0.0890
  122POPC   C1B 1834   8.691   8.712   8.306 -0.0876 -0.1000 -0.2301
  122POPC   C2B 1835   8.925   8.711   7.956  0.2706  0.0187 -0.0488
  122POPC   C3B 1836   9.034   8.453   7.612 -0.1843 -0.3247  0.1284
  122POPC   C4B 1837   9.125   8.337   7.272  0.1770 -0.3910 -0.0872
  123POPC   NC3 1838   6.472   9.366   8.803 -0.2183  0.0052 -0.3764
  123POPC   PO4 1839   6.770   9.658   8.934 -0.1150  0.0258 -0.1032
  123POPC   GL1 1840   6.900   9.638   8.478 -0.1473  0.0358  0.0651
  123POPC   GL2 1841   6.736   9.547   8.203  0.1560 -0.2907 -0.0004
  123POPC   C1A 1842   6.909  10.052   8.186  0.0327  0.1246  0.2832
  123POPC   D2A 1843   7.133  10.119   7.899 -0.1669 -0.1395 -0.1533
  123POPC   C3A 1844   7.343  10.020   7.482  0.0744 -0.0130 -0.2077
  123POPC   C4A 1845   7.846   9.892   7.361 -0.1754  0.1084  0.0284
  123POPC   C1B 1846   6.706   9.660   7.868 -0.1065 -0.1716 -0.2798
  123POPC   C2B 1847   6.477   9.637   7.534  0.2985 -0.3866  0.2245
  123POPC   C3B 1848   6.207   9.664   7.250 -0.2833 -0.3554  0.2712
  123POPC   C4B 1849   6.287   9.628   6.832  0.1817  0.1959 -0.0886
  124POPC   NC3 1850   2.607   3.901   8.526  0.0171  0.3090  0.0062
  124POPC   PO4 1851   2.435   3.565   8.304  0.0352 -0.1418 -0.3972
  124POPC   GL1 1852   2.569   3.360   7.835 -0.3022  0.0726 -0.0793
  124POPC   GL2 1853   2.373   3.149   7.769 -0.0067 -0.1222 -0.0152
  124POPC   C1A 1854   2.370   3.483   7.445 -0.2177  0.0614  0.1079
  124POPC   D2A 1855   2.178   3.458   7.077  0.0995 -0.4731 -0.1215
  124POPC   C3A 1856   1.849   3.854   7.000 -0.2852 -0.1500  0.0188
  124POPC   C4A 1857   1.706   4.113   7.352  0.0076 -0.1232 -0.0447
  124POPC   C1B 1858   2.371   2.972   7.324  0.1732  0.1649 -0.1138
  124POPC   C2B 1859   2.098   2.960   6.948  0.2314  0.0560  0.1873
  124POPC   C3B 1860   1.741   2.760   6.736 -0.0476  0.0493  0.2727
  124POPC   C4B 1861   1.365   2.750   6.638 -0.0781 -0.1651  0.3597
  125POPC   NC3 1862   5.079   6.258   8.180 -0.0842  0.0487 -0.0156
  125POPC   PO4 1863   4.883   6.431   8.445 -0.1362 -0.3320 -0.1580
  125POPC   GL1 1864   4.925   6.736   8.046  0.0311  0.0925 -0.0032
  125POPC   GL2 1865   4.604   6.621   7.838 -0.1746  0.0236 -0.0516
  125POPC   C1A 1866   4.992   6.903   7.615 -0.1056 -0.0731 -0.1675
  125POPC   D2A 1867   4.699   7.177   7.292 -0.0369 -0.3038 -0.1334
  125POPC   C3A 1868   4.302   7.412   7.436  0.0109 -0.0779 -0.2348
  125POPC   C4A 1869   4.180   7.591   7.809 -0.1709 -0.2288  0.0543
  125POPC   C1B 1870   4.131   6.554   7.645 -0.3638 -0.0089 -0.3709
  125POPC   C2B 1871   4.125   6.486   7.224  0.4566 -0.0346  0.1218
  125POPC   C3B 1872   4.228   6.385   6.815  0.0183  0.1534  0.0171
  125POPC   C4B 1873   4.024   6.168   6.500 -0.0608 -0.1598 -0.3249
  126POPC   NC3 1874   5.104   8.741   8.451 -0.0700  0.1079 -0.2776
  126POPC   PO4 1875   5.357   9.193   8.442  0.1920  0.2009  0.0287
  126POPC   GL1 1876   5.331   9.194   8.010 -0.0569 -0.2578 -0.0994
  126POPC   GL2 1877   5.381   9.466   7.815 -0.1680 -0.0907  0.0616
  126POPC   C1A 1878   5.366   9.022   7.616  0.0518 -0.3256  0.2894
  126POPC   D2A 1879   5.202   8.896   7.192 -0.1098  0.1120 -0.0077
  126POPC   C3A 1880   4.818   8.973   6.941  0.0540  0.2069 -0.0720
  126POPC   C4A 1881   4.715   8.814   6.625  0.0897  0.0151 -0.0111
  126POPC   C1B 1882   5.248   9.728   7.481  0.1476  0.0177  0.3189
  126POPC   C2B 1883   5.388  10.125   7.237  0.0909  0.0540 -0.0837
  126POPC   C3B 1884   5.612  10.184   6.972  0.1263 -0.1874 -0.1041
  126POPC   C4B 1885   5.782  10.535   6.721  0.0173 -0.2115 -0.0810
  127POPC   NC3 1886   4.615   1.243   7.996 -0.1960  0.0413  0.0142
  127POPC   PO4 1887   5.021   1.268   7.965 -0.2288  0.2246  0.0188
  127POPC   GL1 1888   5.044   1.272   7.556  0.1635 -0.1441 -0.0172
  127POPC   GL2 1889   4.846   1.068   7.440  0.0932 -0.2924 -0.0996
  127POPC   C1A 1890   5.275   1.385   7.185  0.0619  0.0550  0.3573
  127POPC   D2A 1891   5.015   1.196   6.841 -0.1696  0.0183  0.0052
  127POPC   C3A 1892   5.209   1.050   6.545  0.0703  0.0702  0.0557
  127POPC   C4A 1893   5.102   0.744   6.199  0.1287  0.0873  0.1154
  127POPC   C1B 1894   4.617   0.769   7.038 -0.3409  0.0556  0.2929
  127POPC   C2B 1895   4.641   0.693   6.549 -0.0135  0.1909  0.0821
  127POPC   C3B 1896   4.622   0.414   6.163  0.2232  0.0263  0.0563
  127POPC   C4B 1897   4.692   0.010   5.976  0.0619 -0.3218 -0.1061
  128POPC   NC3 1898   9.284   7.557   8.837  0.3156 -0.0434 -0.2236
  128POPC   PO4 1899   9.047   7.269   8.550 -0.0483  0.1951 -0.3887
  128POPC   GL1 1900   8.945   7.457   8.166  0.2382 -0.1321  0.0640
  128POPC   GL2 1901   9.069   7.825   8.053 -0.1644  0.1709  0.1176
  128POPC   C1A 1902   8.866   7.489   7.668 -0.0276 -0.1528  0.0224
  128POPC   D2A 1903   8.836   7.401   7.321 -0.2405  0.5854  0.3549
  128POPC   C3A 1904   9.169   7.365   7.006 -0.2711  0.0442  0.2540
  128POPC   C4A 1905   9.415   7.463   6.611 -0.1491  0.0179  0.0191
  128POPC   C1B 1906   9.251   8.007   7.647 -0.0818 -0.1056 -0.2390
  128POPC   C2B 1907   9.272   7.784   7.258 -0.0895 -0.0549 -0.2679
  128POPC   C3B 1908   9.299   7.962   6.869  0.3722  0.0192  0.2070
  128POPC   C4B 1909   9.219   8.120   6.543  0.3737 -0.1418  0.1373
  129POPC   NC3 1910   5.302   1.592   8.336  0.0220  0.1732  0.0174
  129POPC   PO4 1911   5.183   1.991   8.429  0.0901  0.0331 -0.1690
  129POPC   GL1 1912   4.985   1.846   7.982 -0.2822 -0.1320 -0.4202
  129POPC   GL2 1913   4.747   1.703   7.793  0.2658  0.1818  0.0278
  129POPC   C1A 1914   5.257   1.736   7.572  0.2501  0.0099  0.1139
  129POPC   D2A 1915   5.389   1.876   7.163 -0.1087  0.0662 -0.1071
  129POPC   C3A 1916   5.259   2.133   6.847  0.0397  0.1358  0.0470
  129POPC   C4A 1917   5.058   2.164   6.452 -0.1011 -0.0030 -0.0127
  129POPC   C1B 1918   4.797   1.857   7.391 -0.2290 -0.1431  0.1069
  129POPC   C2B 1919   4.831   1.634   7.047 -0.2742 -0.2508 -0.0166
  129POPC   C3B 1920   5.239   1.591   6.652 -0.0569  0.1758  0.3551
  129POPC   C4B 1921   5.554   1.464   6.468  0.0156 -0.1501  0.1185
  130POPC   NC3 1922   1.020   8.949   8.246 -0.2562 -0.0070  0.1440
  130POPC   PO4 1923   1.387   9.229   8.138 -0.1022  0.0854 -0.0569
  130POPC   GL1 1924   1.353   9.130   7.717 -0.1748 -0.2695 -0.0907
  130POPC   GL2 1925   1.062   8.900   7.737 -0.1554 -0.1817 -0.0846
  130POPC   C1A 1926   1.393   9.043   7.212  0.1793 -0.1003  0.2427
  130POPC   D2A 1927   1.168   9.082   6.785  0.1992 -0.2138 -0.0354
  130POPC   C3A 1928   0.942   9.466   6.938 -0.0594 -0.1360 -0.2878
  130POPC   C4A 1929   0.653   9.697   7.100 -0.1000 -0.0000 -0.0821
  130POPC   C1B 1930   1.333   8.539   7.519 -0.0889  0.1006 -0.0578
  130POPC   C2B 1931   1.602   8.301   7.362 -0.0691 -0.1921  0.1500
  130POPC   C3B 1932   1.691   7.939   7.107  0.0001  0.1814  0.1457
  130POPC   C4B 1933   1.419   7.920   6.850 -0.2069  0.0476  0.2766
  131POPC   NC3 1934   4.395   0.917   8.688  0.2082  0.0935 -0.0133
  131POPC   PO4 1935   4.383   0.847   8.242  0.0788 -0.1628  0.0505
  131POPC   GL1 1936   4.392   0.799   7.841  0.0057 -0.1020  0.0889
  131POPC   GL2 1937   4.431   0.498   7.711  0.2778  0.0817  0.2993
  131POPC   C1A 1938   4.137   0.722   7.424 -0.3776 -0.0482  0.0958
  131POPC   D2A 1939   4.046   0.574   7.080  0.0294  0.0452  0.2358
  131POPC   C3A 1940   4.331   0.353   6.763  0.1392  0.0598 -0.0666
  131POPC   C4A 1941   4.413   0.055   6.404 -0.0571  0.0262  0.4041
  131POPC   C1B 1942   4.264   0.234   7.487 -0.0977 -0.0135  0.1278
  131POPC   C2B 1943   3.926  -0.074   7.588  0.0455  0.0739 -0.0855
  131POPC   C3B 1944   3.578  -0.373   7.508  0.1098  0.2418 -0.2783
  131POPC   C4B 1945   3.413  -0.674   7.261 -0.1230 -0.1443  0.2053
  132POPC   NC3 1946   0.941   5.040   9.127  0.0721 -0.1386  0.0907
  132POPC   PO4 1947   0.636   5.183   8.793 -0.1275 -0.0589 -0.0106
  132POPC   GL1 1948   0.428   5.384   8.455 -0.3372  0.4384  0.1215
  132POPC   GL2 1949   0.280   5.659   8.363  0.1593 -0.2816  0.0892
  132POPC   C1A 1950   0.433   5.265   7.968  0.1789  0.0085  0.0457
  132POPC   D2A 1951   0.274   5.440   7.641 -0.1112  0.0908  0.2316
  132POPC   C3A 1952   0.166   5.211   7.348 -0.0415  0.0563 -0.0579
  132POPC   C4A 1953   0.084   5.437   6.970 -0.0961  0.0248  0.1462
  132POPC   C1B 1954   0.525   5.844   7.928 -0.1792  0.2555 -0.0444
  132POPC   C2B 1955   0.861   5.771   7.688 -0.1902 -0.1996 -0.1425
  132POPC   C3B 1956   0.977   5.821   7.262  0.0396  0.6115  0.3911
  132POPC   C4B 1957   1.269   5.940   6.936 -0.0628 -0.0689 -0.4731
  133POPC   NC3 1958   1.514   2.047   8.307  0.0119  0.0893  0.0701
  133POPC   PO4 1959   1.860   2.254   8.343 -0.2413 -0.1076 -0.1153
  133POPC   GL1 1960   1.806   2.400   7.992 -0.0343 -0.1344 -0.4063
  133POPC   GL2 1961   2.020   2.406   7.722  0.1575  0.3099 -0.1753
  133POPC   C1A 1962   1.496   2.433   7.688 -0.2061  0.2866 -0.1204
  133POPC   D2A 1963   1.246   2.769   7.528 -0.1049 -0.1121  0.3758
  133POPC   C3A 1964   0.952   2.619   7.206  0.1602  0.0169 -0.0762
  133POPC   C4A 1965   0.490   2.639   6.919 -0.1826  0.0832  0.0760
  133POPC   C1B 1966   1.836   2.536   7.324  0.1822  0.1256  0.2244
  133POPC   C2B 1967   1.490   2.666   7.134 -0.0862  0.0250  0.1308
  133POPC   C3B 1968   1.262   3.022   7.095 -0.0073  0.1561  0.0001
  133POPC   C4B 1969   0.986   3.275   6.674  0.2227  0.1866 -0.3744
  134POPC   NC3 1970   5.342   2.817   8.936  0.6024  0.2328  0.0292
  134POPC   PO4 1971   5.033   2.902   8.538  0.1352 -0.2230  0.0844
  134POPC   GL1 1972   5.140   2.666   8.209 -0.2553  0.1247  0.1772
  134POPC   GL2 1973   4.980   2.390   8.095 -0.1073  0.0313  0.4635
  134POPC   C1A 1974   5.266   2.619   7.760 -0.3433 -0.0815  0.1900
  134POPC   D2A 1975   5.762   2.542   7.624  0.0711  0.0069  0.0301
  134POPC   C3A 1976   5.913   2.943   7.601  0.0683  0.3341  0.1600
  134POPC   C4A 1977   6.279   3.136   7.498 -0.2397  0.0567 -0.1045
  134POPC   C1B 1978   4.891   2.307   7.681 -0.0401  0.1382 -0.1717
  134POPC   C2B 1979   4.858   2.328   7.285  0.0009  0.6694 -0.0185
  134POPC   C3B 1980   4.766   2.144   6.900  0.2362 -0.0435 -0.1557
  134POPC   C4B 1981   4.733   1.796   6.550  0.1016 -0.0940 -0.2293
  135POPC   NC3 1982   4.041   1.143   8.063 -0.0625 -0.0193 -0.0485
  135POPC   PO4 1983   3.601   1.167   8.230 -0.0748  0.1289 -0.0797
  135POPC   GL1 1984   3.506   1.402   7.842  0.1146  0.0722 -0.1581
  135POPC   GL2 1985   3.592   1.704   7.679 -0.2061  0.1131 -0.1507
  135POPC   C1A 1986   3.435   1.350   7.432 -0.0960  0.1456 -0.0128
  135POPC   D2A 1987   3.301   1.155   6.991 -0.0204 -0.0800  0.0623
  135POPC   C3A 1988   3.034   1.003   6.646  0.1591 -0.2314  0.1158
  135POPC   C4A 1989   3.083   0.781   6.246 -0.3390 -0.0057  0.2058
  135POPC   C1B 1990   3.567   1.905   7.252  0.0395 -0.0739 -0.0207
  135POPC   C2B 1991   3.873   1.912   6.914  0.1328  0.1710 -0.0485
  135POPC   C3B 1992   3.836   1.750   6.457 -0.1390 -0.0397  0.2795
  135POPC   C4B 1993   3.944   1.522   6.067 -0.0493 -0.2713  0.3003
  136POPC   NC3 1994   1.301   4.789   8.384 -0.0737  0.0007 -0.0023
  136POPC   PO4 1995   1.090   4.973   8.675 -0.0425 -0.1805  0.0237
  136POPC   GL1 1996   0.974   5.065   8.201  0.2250 -0.0943 -0.1171
  136POPC   GL2 1997   0.830   4.783   8.017  0.3339 -0.3112  0.1474
  136POPC   C1A 1998   0.944   5.266   7.893  0.0041  0.0101  0.0579
  136POPC   D2A 1999   1.185   5.447   7.546 -0.3181  0.1052 -0.1303
  136POPC   C3A 2000   1.140   5.385   7.085 -0.0395  0.2098  0.0253
  136POPC   C4A 2001   1.025   5.029   6.883 -0.1708  0.1071  0.0903
  136POPC   C1B 2002   0.540   4.874   7.600 -0.0285 -0.5027  0.1899
  136POPC   C2B 2003   0.578   4.946   7.158  0.2593 -0.0212 -0.3166
  136POPC   C3B 2004   0.475   4.859   6.773  0.0324 -0.2416 -0.2954
  136POPC   C4B 2005   0.440   4.817   6.378  0.1487 -0.0673 -0.1491
  137POPC   NC3 2006   4.504   8.488   8.603 -0.3142 -0.3654  0.2897
  137POPC   PO4 2007   4.130   8.462   8.485 -0.1839  0.0095 -0.0485
  137POPC   GL1 2008   4.074   8.299   8.029  0.0649  0.1574 -0.1298
  137POPC   GL2 2009   3.972   8.630   8.022 -0.1086 -0.0318 -0.0530
  137POPC   C1A 2010   4.254   8.112   7.726  0.0810 -0.0562  0.1207
  137POPC   D2A 2011   4.091   7.900   7.387 -0.2078 -0.0416 -0.2640
  137POPC   C3A 2012   4.152   7.972   6.968 -0.2710 -0.0290  0.0730
  137POPC   C4A 2013   4.479   7.903   6.512 -0.1856  0.2375 -0.2484
  137POPC   C1B 2014   4.291   8.745   7.720  0.3021 -0.0624 -0.0136
  137POPC   C2B 2015   4.377   8.847   7.195 -0.0737 -0.1636 -0.2482
  137POPC   C3B 2016   4.205   9.106   6.779 -0.0595 -0.1152 -0.1475
  137POPC   C4B 2017   4.018   9.486   6.619  0.1668  0.1176  0.0107
  138POPC   NC3 2018   6.824   7.647   8.290  0.3049 -0.2327  0.1130
  138POPC   PO4 2019   6.392   7.758   8.403  0.1846 -0.3392  0.4022
  138POPC   GL1 2020   6.390   7.727   7.926  0.1329 -0.0996 -0.0220
  138POPC   GL2 2021   6.665   7.768   7.783  0.0064  0.1075 -0.0568
  138POPC   C1A 2022   6.264   7.356   7.729 -0.4236 -0.1462  0.0271
  138POPC   D2A 2023   6.327   6.903   7.630 -0.0754 -0.5230 -0.0834
  138POPC   C3A 2024   6.782   6.897   7.291  0.1354 -0.0016 -0.1634
  138POPC   C4A 2025   7.094   6.774   6.926  0.1030 -0.2216  0.1135
  138POPC   C1B 2026   6.476   7.917   7.330 -0.1616  0.0481  0.1689
  138POPC   C2B 2027   6.064   8.001   7.092  0.0466  0.0238  0.2056
  138POPC   C3B 2028   5.916   8.207   6.738 -0.0081 -0.0087  0.0205
  138POPC   C4B 2029   5.575   8.374   6.465  0.3844  0.1849 -0.1075
  139POPC   NC3 2030   0.974   6.789   8.751 -0.0194  0.2280  0.0212
  139POPC   PO4 2031   1.285   6.807   8.442 -0.3293 -0.1347 -0.2909
  139POPC   GL1 2032   1.716   6.967   8.213  0.4383  0.1772 -0.0005
  139POPC   GL2 2033   1.648   7.186   7.940 -0.1957 -0.0279  0.1251
  139POPC   C1A 2034   1.956   6.695   7.949  0.0233  0.3778  0.2174
  139POPC   D2A 2035   2.151   6.636   7.649  0.0894  0.4346 -0.3396
  139POPC   C3A 2036   2.639   6.563   7.527 -0.0728 -0.2502  0.2142
  139POPC   C4A 2037   2.744   6.571   7.112  0.0281 -0.1060  0.1823
  139POPC   C1B 2038   1.818   6.990   7.584  0.1573  0.2236  0.0399
  139POPC   C2B 2039   2.174   6.956   7.226  0.0444 -0.2661  0.1042
  139POPC   C3B 2040   2.518   6.988   6.969  0.1744  0.2126 -0.1673
  139POPC   C4B 2041   2.815   6.804   6.635 -0.0519 -0.0984 -0.0925
  140POPC   NC3 2042   1.266   0.286   8.681 -0.2544 -0.1649  0.2709
  140POPC   PO4 2043   0.851   0.425   8.736  0.2589 -0.0793 -0.2185
  140POPC   GL1 2044   0.694   0.483   8.372  0.2383  0.0955  0.1427
  140POPC   GL2 2045   0.567   0.696   8.128  0.1178  0.1339 -0.3442
  140POPC   C1A 2046   0.658   0.179   7.965  0.0032 -0.0193  0.3570
  140POPC   D2A 2047   0.335  -0.059   7.876  0.2738 -0.1661  0.1156
  140POPC   C3A 2048   0.338  -0.167   7.475 -0.0012  0.1381 -0.0442
  140POPC   C4A 2049   0.411  -0.445   7.250  0.4086  0.1526 -0.2571
  140POPC   C1B 2050   0.534   0.818   7.697 -0.2542 -0.0933 -0.2567
  140POPC   C2B 2051   0.275   0.843   7.321  0.0362 -0.0258  0.0651
  140POPC   C3B 2052  -0.095   0.556   7.235 -0.0039  0.0528  0.0376
  140POPC   C4B 2053  -0.340   0.159   7.273 -0.2578  0.1351  0.4865
  141POPC   NC3 2054   6.551   8.246   8.654  0.0407  0.1664 -0.0099
  141POPC   PO4 2055   6.146   8.424   8.543 -0.1270 -0.0795  0.1043
  141POPC   GL1 2056   6.254   8.228   8.177  0.1825  0.1686 -0.2137
  141POPC   GL2 2057   6.539   8.142   8.130 -0.2034 -0.3230 -0.2564
  141POPC   C1A 2058   6.304   8.154   7.705  0.2167  0.0959  0.0973
  141POPC   D2A 2059   6.183   8.384   7.389  0.2290 -0.2629 -0.2335
  141POPC   C3A 2060   6.452   8.745   7.305 -0.0326  0.1206  0.0788
  141POPC   C4A 2061   6.810   8.885   7.020 -0.3650  0.1799  0.3625
  141POPC   C1B 2062   6.818   8.329   7.819  0.1493 -0.0768  0.2411
  141POPC   C2B 2063   6.846   8.304   7.416  0.3504 -0.1744 -0.1689
  141POPC   C3B 2064   6.632   8.361   7.019  0.0632 -0.1169 -0.5507
  141POPC   C4B 2065   6.473   8.450   6.536  0.1410 -0.2484 -0.1059
  142POPC   NC3 2066   0.832   6.720   8.193 -0.0662 -0.1174  0.2014
  142POPC   PO4 2067   0.470   6.924   8.252  0.4267  0.3775  0.2703
  142POPC   GL1 2068   0.641   7.121   7.868 -0.0650 -0.1057  0.2495
  142POPC   GL2 2069   0.583   6.811   7.744 -0.0837 -0.0949  0.1857
  142POPC   C1A 2070   0.915   7.165   7.515 -0.2471 -0.0411 -0.0019
  142POPC   D2A 2071   0.925   7.450   7.232  0.1670  0.1014 -0.0187
  142POPC   C3A 2072   1.022   7.339   6.864  0.3670  0.3978 -0.0204
  142POPC   C4A 2073   0.920   7.656   6.656  0.1198  0.1264  0.1353
  142POPC   C1B 2074   0.803   6.689   7.384  0.1409 -0.1881  0.0063
  142POPC   C2B 2075   0.972   6.843   6.947 -0.1587 -0.0122  0.2179
  142POPC   C3B 2076   1.407   6.834   6.710  0.0236 -0.0382  0.1758
  142POPC   C4B 2077   1.682   6.610   6.444 -0.0892  0.0640  0.0585
  143POPC   NC3 2078   6.213   2.721   9.317  0.0533 -0.1084  0.1386
  143POPC   PO4 2079   6.584   2.338   9.345 -0.0471 -0.1686 -0.2719
  143POPC   GL1 2080   6.979   2.269   9.065 -0.1058 -0.0320 -0.1577
  143POPC   GL2 2081   7.110   2.497   9.156  0.1066 -0.2548 -0.0842
  143POPC   C1A 2082   7.002   2.352   8.599  0.1791  0.4367  0.0458
  143POPC   D2A 2083   7.240   2.433   8.330 -0.3010 -0.1790  0.3333
  143POPC   C3A 2084   7.318   2.112   8.071  0.0397 -0.1059 -0.0184
  143POPC   C4A 2085   7.062   1.944   7.920 -0.2026 -0.2171  0.0366
  143POPC   C1B 2086   7.116   2.885   8.934 -0.2561  0.0980 -0.7177
  143POPC   C2B 2087   7.421   2.965   8.718 -0.0923 -0.0589 -0.3439
  143POPC   C3B 2088   7.375   2.945   8.231 -0.0409  0.3104  0.2518
  143POPC   C4B 2089   7.322   2.725   7.850  0.1392 -0.2282  0.1350
  144POPC   NC3 2090   5.605   6.860   4.796 -0.2273 -0.0320 -0.0308
  144POPC   PO4 2091   5.261   7.032   4.582  0.1080  0.2901 -0.0385
  144POPC   GL1 2092   5.061   6.871   4.828 -0.1522  0.2000 -0.1623
  144POPC   GL2 2093   4.901   6.581   4.873 -0.0854  0.2044  0.0316
  144POPC   C1A 2094   5.069   6.907   5.276  0.1584 -0.0659 -0.1273
  144POPC   D2A 2095   5.146   6.772   5.632  0.0239  0.1237  0.0171
  144POPC   C3A 2096   5.345   6.931   6.041 -0.1235 -0.1856 -0.0016
  144POPC   C4A 2097   5.228   6.961   6.564  0.0250  0.0670 -0.1582
  144POPC   C1B 2098   4.881   6.400   5.345  0.2339 -0.0293  0.1802
  144POPC   C2B 2099   4.825   6.330   5.810  0.1354 -0.2536  0.1207
  144POPC   C3B 2100   5.168   6.114   6.032 -0.1753  0.0168  0.1299
  144POPC   C4B 2101   5.222   6.134   6.489 -0.0011 -0.1908  0.0456
  145POPC   NC3 2102   2.495   0.981   4.045  0.0504  0.2626 -0.1177
  145POPC   PO4 2103   2.909   1.101   4.135  0.0938  0.3732 -0.1553
  145POPC   GL1 2104   3.222   0.877   4.386  0.1303 -0.4885  0.1257
  145POPC   GL2 2105   3.010   0.826   4.664 -0.0022  0.4180  0.3836
  145POPC   C1A 2106   3.519   0.737   4.755 -0.4415  0.0721  0.1140
  145POPC   D2A 2107   3.593   0.840   5.073  0.2095 -0.2263 -0.0838
  145POPC   C3A 2108   3.185   1.036   5.320 -0.0072  0.1313  0.0739
  145POPC   C4A 2109   2.835   1.182   5.409  0.5315  0.4653  0.0395
  145POPC   C1B 2110   2.843   0.826   5.037 -0.0416  0.2810  0.0336
  145POPC   C2B 2111   2.545   1.192   5.046 -0.0009  0.0282 -0.0666
  145POPC   C3B 2112   2.416   1.529   5.223  0.0626  0.1657 -0.0502
  145POPC   C4B 2113   2.410   1.925   5.001  0.2193 -0.0855 -0.2494
  146POPC   NC3 2114   8.847   6.653   4.595 -0.3415  0.0295 -0.3411
  146POPC   PO4 2115   9.078   6.927   4.941 -0.2014 -0.1953  0.0079
  146POPC   GL1 2116   8.978   7.120   5.300  0.2731 -0.2025 -0.2819
  146POPC   GL2 2117   8.739   7.295   5.194 -0.2479  0.2265 -0.1407
  146POPC   C1A 2118   8.839   7.050   5.762  0.2474 -0.1307  0.2919
  146POPC   D2A 2119   8.819   7.289   6.066 -0.0470 -0.0105 -0.3015
  146POPC   C3A 2120   8.872   7.427   6.550 -0.1516 -0.1597  0.1605
  146POPC   C4A 2121   8.769   7.681   6.893 -0.1804 -0.0167 -0.1263
  146POPC   C1B 2122   8.847   7.708   5.435  0.1308 -0.0839 -0.1823
  146POPC   C2B 2123   8.831   7.841   5.889  0.1989  0.1740 -0.2801
  146POPC   C3B 2124   8.741   7.885   6.372  0.1630  0.0611  0.1759
  146POPC   C4B 2125   8.345   7.715   6.564  0.1452  0.2367 -0.4053
  147POPC   NC3 2126   5.574   7.460   4.474  0.0326 -0.0236  0.0175
  147POPC   PO4 2127   5.102   7.515   4.684 -0.0182  0.3398 -0.0461
  147POPC   GL1 2128   5.331   7.273   5.035  0.1659  0.0499  0.0421
  147POPC   GL2 2129   5.654   7.244   5.132  0.4572 -0.0371 -0.0165
  147POPC   C1A 2130   5.165   7.356   5.426  0.1656 -0.0910 -0.1387
  147POPC   D2A 2131   4.884   7.251   5.856  0.3539  0.1503  0.0258
  147POPC   C3A 2132   4.958   7.495   6.244  0.2998 -0.0483 -0.1810
  147POPC   C4A 2133   5.054   7.559   6.623 -0.4177 -0.0584  0.1844
  147POPC   C1B 2134   5.585   7.223   5.663  0.0488  0.1714 -0.0664
  147POPC   C2B 2135   5.492   7.445   6.127 -0.1946  0.0993 -0.1950
  147POPC   C3B 2136   5.635   7.398   6.520  0.1634  0.0756 -0.1932
  147POPC   C4B 2137   5.999   7.132   6.773  0.2813 -0.2639  0.2562
  148POPC   NC3 2138   6.671   0.630   3.732 -0.1696 -0.1736  0.3774
  148POPC   PO4 2139   6.381   0.418   3.994  0.3384 -0.2486  0.2370
  148POPC   GL1 2140   6.225   0.659   4.406 -0.0546 -0.3520 -0.1247
  148POPC   GL2 2141   5.980   0.857   4.408 -0.0885  0.3738 -0.2649
  148POPC   C1A 2142   6.450   0.649   4.826  0.0495 -0.0491 -0.0241
  148POPC   D2A 2143   6.403   0.468   5.255  0.1697 -0.0237 -0.0326
  148POPC   C3A 2144   6.624   0.676   5.494  0.1213  0.0119 -0.0376
  148POPC   C4A 2145   6.631   1.073   5.741  0.2192  0.1223  0.1688
  148POPC   C1B 2146   5.812   1.069   4.770 -0.3166 -0.2292 -0.0654
  148POPC   C2B 2147   5.754   1.066   5.236 -0.1253 -0.0972 -0.1000
  148POPC   C3B 2148   5.790   0.934   5.603  0.1920  0.1830  0.1299
  148POPC   C4B 2149   5.600   0.667   5.882  0.1958 -0.3855 -0.0592
  149POPC   NC3 2150   6.225   4.504   4.379 -0.0237  0.1264  0.2774
  149POPC   PO4 2151   6.612   4.413   4.659 -0.0671  0.2511  0.0239
  149POPC   GL1 2152   6.603   4.278   5.075 -0.0731 -0.1792 -0.0522
  149POPC   GL2 2153   6.465   4.682   5.096 -0.1044 -0.0187 -0.0855
  149POPC   C1A 2154   6.590   4.317   5.400 -0.0921 -0.0566  0.0593
  149POPC   D2A 2155   6.833   4.222   5.732  0.3446  0.1159 -0.3021
  149POPC   C3A 2156   7.015   3.963   6.043  0.3257 -0.4343 -0.0596
  149POPC   C4A 2157   6.977   3.721   6.537  0.3027 -0.3261 -0.2498
  149POPC   C1B 2158   6.150   4.914   5.401 -0.0473  0.1986  0.2141
  149POPC   C2B 2159   5.776   4.868   5.517  0.1682  0.2034  0.1584
  149POPC   C3B 2160   5.663   5.119   5.845  0.2182  0.1280 -0.1572
  149POPC   C4B 2161   5.908   5.193   6.206 -0.0476  0.0629 -0.1598
  150POPC   NC3 2162   7.152   5.888   4.558  0.1301 -0.0052 -0.2097
  150POPC   PO4 2163   6.773   5.814   4.885 -0.0632  0.0859  0.0600
  150POPC   GL1 2164   6.672   6.052   5.322  0.3020 -0.1096  0.0562
  150POPC   GL2 2165   6.973   6.045   5.520  0.2374 -0.2187  0.1583
  150POPC   C1A 2166   6.587   6.371   5.643  0.0771 -0.0780 -0.1728
  150POPC   D2A 2167   6.663   6.507   6.080 -0.0551  0.1399 -0.2675
  150POPC   C3A 2168   6.483   6.548   6.474 -0.1674  0.0284  0.4021
  150POPC   C4A 2169   6.149   6.610   6.730 -0.1826  0.2929  0.1304
  150POPC   C1B 2170   7.228   6.172   5.878  0.1032 -0.1172  0.0458
  150POPC   C2B 2171   7.683   6.022   6.047  0.0777 -0.1478  0.1951
  150POPC   C3B 2172   7.938   5.661   6.153 -0.1284  0.0659  0.1003
  150POPC   C4B 2173   8.118   5.471   6.573  0.0659  0.1748 -0.0418
  151POPC   NC3 2174   0.614   5.626   4.130 -0.1978  0.2080  0.0938
  151POPC   PO4 2175   0.791   5.910   4.502 -0.0450 -0.0827  0.1809
  151POPC   GL1 2176   0.791   6.135   4.870  0.1989  0.2308 -0.1934
  151POPC   GL2 2177   0.968   6.378   4.846  0.0836 -0.0770 -0.0430
  151POPC   C1A 2178   0.765   6.052   5.370 -0.1589 -0.1207  0.3863
  151POPC   D2A 2179   0.907   5.926   5.736 -0.1359 -0.2719 -0.0500
  151POPC   C3A 2180   0.696   5.587   5.961  0.1889 -0.2147 -0.0346
  151POPC   C4A 2181   0.362   5.170   5.994  0.2906 -0.5138  0.4508
  151POPC   C1B 2182   1.124   6.457   5.305 -0.0228 -0.1030  0.0047
  151POPC   C2B 2183   1.119   6.810   5.639  0.0468  0.2127  0.0287
  151POPC   C3B 2184   1.181   7.012   5.961  0.3322 -0.1777  0.1858
  151POPC   C4B 2185   1.530   7.034   6.268  0.2704  0.2893  0.1173
  152POPC   NC3 2186   0.232   0.124   4.620  0.1521  0.0342 -0.0593
  152POPC   PO4 2187  -0.145  -0.174   4.505 -0.1202 -0.2095 -0.0277
  152POPC   GL1 2188  -0.160  -0.410   4.860 -0.3300  0.2276  0.0833
  152POPC   GL2 2189   0.107  -0.335   5.003  0.3232 -0.1547  0.4584
  152POPC   C1A 2190  -0.217  -0.626   5.212 -0.0633  0.1622 -0.2758
  152POPC   D2A 2191  -0.224  -0.804   5.597 -0.0293 -0.0663 -0.3279
  152POPC   C3A 2192  -0.596  -0.741   5.892 -0.1942  0.0017 -0.0882
  152POPC   C4A 2193  -0.740  -0.639   6.254 -0.1021  0.0272 -0.0726
  152POPC   C1B 2194   0.070  -0.310   5.435  0.0064 -0.2193  0.4026
  152POPC   C2B 2195   0.085  -0.457   5.889 -0.0278 -0.1011 -0.1524
  152POPC   C3B 2196   0.351  -0.635   6.263  0.1622 -0.0386  0.2437
  152POPC   C4B 2197   0.713  -0.525   6.333  0.0731 -0.1237 -0.1112
  153POPC   NC3 2198   8.184   0.381   3.932  0.0190 -0.0217  0.1081
  153POPC   PO4 2199   7.997   0.824   3.903 -0.1852 -0.3039  0.0535
  153POPC   GL1 2200   8.228   0.840   4.279 -0.0849  0.0616 -0.2789
  153POPC   GL2 2201   8.128   0.570   4.574 -0.0783 -0.2829  0.0562
  153POPC   C1A 2202   8.567   0.810   4.540  0.1480 -0.0615 -0.2326
  153POPC   D2A 2203   8.613   0.636   4.809 -0.0401  0.0330  0.2487
  153POPC   C3A 2204   8.592   0.133   4.953  0.1018  0.2310  0.0685
  153POPC   C4A 2205   8.870  -0.217   4.997  0.1368  0.2470  0.0990
  153POPC   C1B 2206   8.035   0.197   4.783 -0.3174  0.1159 -0.5220
  153POPC   C2B 2207   8.125  -0.028   5.137  0.0346  0.0827 -0.1200
  153POPC   C3B 2208   8.239  -0.194   5.456 -0.1141 -0.1007 -0.0750
  153POPC   C4B 2209   8.189  -0.155   5.894  0.2284  0.5343  0.0636
  154POPC   NC3 2210   8.546   6.024   4.554  0.0884  0.0423  0.1596
  154POPC   PO4 2211   8.553   5.574   4.693 -0.0605 -0.3238 -0.2929
  154POPC   GL1 2212   8.594   5.556   5.181 -0.2097 -0.1342  0.0300
  154POPC   GL2 2213   8.323   5.444   5.382 -0.0149 -0.1578  0.3384
  154POPC   C1A 2214   8.594   5.140   5.575 -0.0928 -0.0170  0.0701
  154POPC   D2A 2215   8.479   4.911   5.882 -0.0606  0.0666  0.4058
  154POPC   C3A 2216   8.451   4.707   6.286  0.1802  0.0184  0.1860
  154POPC   C4A 2217   8.504   4.388   6.574  0.2076  0.0566  0.0544
  154POPC   C1B 2218   8.252   5.442   5.776 -0.0516  0.2917  0.1771
  154POPC   C2B 2219   8.242   5.290   6.169 -0.1370  0.1082  0.0406
  154POPC   C3B 2220   8.006   5.014   6.458  0.1073  0.0761 -0.2540
  154POPC   C4B 2221   8.008   4.621   6.784 -0.0733  0.0339 -0.1223
  155POPC   NC3 2222   5.647   4.072   4.779  0.2272  0.2859 -0.1943
  155POPC   PO4 2223   5.877   3.649   4.588 -0.1034 -0.2791  0.2508
  155POPC   GL1 2224   5.979   3.671   4.925  0.1593 -0.0497 -0.1331
  155POPC   GL2 2225   6.192   3.871   5.191 -0.2947  0.0411 -0.1716
  155POPC   C1A 2226   6.015   3.354   5.173 -0.1827  0.0873 -0.0655
  155POPC   D2A 2227   6.060   3.375   5.662  0.0638 -0.0262  0.1850
  155POPC   C3A 2228   5.990   3.056   5.920  0.0272  0.1414 -0.0845
  155POPC   C4A 2229   6.453   2.888   6.107 -0.2379  0.0857 -0.0015
  155POPC   C1B 2230   6.217   4.030   5.648  0.2579 -0.0815 -0.0903
  155POPC   C2B 2231   6.546   3.894   5.968  0.0667  0.4058  0.0287
  155POPC   C3B 2232   6.627   4.065   6.448  0.2175 -0.0781  0.2017
  155POPC   C4B 2233   6.788   4.373   6.828 -0.0011 -0.1790 -0.2422
  156POPC   NC3 2234   2.392   5.354   4.681 -0.2317 -0.0870 -0.2752
  156POPC   PO4 2235   2.078   5.659   4.688  0.3690 -0.1187  0.3671
  156POPC   GL1 2236   2.283   5.631   5.129  0.0214 -0.0396 -0.1537
  156POPC   GL2 2237   2.065   5.864   5.292 -0.0919  0.0539  0.1416
  156POPC   C1A 2238   2.455   5.595   5.583  0.0278  0.0116  0.4304
  156POPC   D2A 2239   2.466   5.465   6.044 -0.0818 -0.1685  0.0957
  156POPC   C3A 2240   2.804   5.404   6.422 -0.2568  0.0549 -0.2380
  156POPC   C4A 2241   2.871   5.521   6.813 -0.0714 -0.2412 -0.2186
  156POPC   C1B 2242   1.682   6.102   5.406  0.0293 -0.1011 -0.1565
  156POPC   C2B 2243   1.296   6.272   5.714  0.2857 -0.1966  0.0167
  156POPC   C3B 2244   1.230   6.497   6.109 -0.0579 -0.0765 -0.0764
  156POPC   C4B 2245   0.988   6.840   6.420 -0.2329 -0.0550  0.2431
  157POPC   NC3 2246   3.738   7.812   4.039 -0.3130 -0.0956 -0.0979
  157POPC   PO4 2247   3.426   7.399   4.170  0.1773  0.2950 -0.2385
  157POPC   GL1 2248   3.675   7.540   4.593  0.1906 -0.2041  0.0942
  157POPC   GL2 2249   3.460   7.703   4.829  0.2904  0.1590  0.0175
  157POPC   C1A 2250   3.925   7.626   5.019  0.0381  0.2370  0.0857
  157POPC   D2A 2251   3.847   7.475   5.419 -0.1284  0.0640  0.0094
  157POPC   C3A 2252   3.869   7.414   5.836  0.1345 -0.2731 -0.1115
  157POPC   C4A 2253   4.157   7.509   6.266  0.2853 -0.3637 -0.1028
  157POPC   C1B 2254   3.402   7.669   5.271 -0.3981  0.1731  0.1186
  157POPC   C2B 2255   3.385   7.699   5.744  0.1195  0.1411 -0.1102
  157POPC   C3B 2256   3.660   7.783   6.115 -0.1969 -0.1592  0.0962
  157POPC   C4B 2257   4.056   7.921   6.040 -0.0432 -0.1324 -0.0732
  158POPC   NC3 2258   0.156   5.843   4.271  0.0161  0.1460  0.2145
  158POPC   PO4 2259  -0.152   5.720   4.565  0.1237  0.0701  0.0102
  158POPC   GL1 2260  -0.262   5.837   4.988 -0.0469  0.1382 -0.0081
  158POPC   GL2 2261  -0.308   6.007   5.120 -0.0352 -0.0490 -0.0136
  158POPC   C1A 2262  -0.137   5.775   5.468 -0.2326 -0.1122  0.4482
  158POPC   D2A 2263  -0.067   5.863   5.857 -0.0592  0.1122  0.0500
  158POPC   C3A 2264   0.238   5.655   6.206  0.0293 -0.0237  0.0610
  158POPC   C4A 2265   0.423   5.316   6.421 -0.1452  0.0281 -0.2338
  158POPC   C1B 2266  -0.108   6.258   5.454  0.1616 -0.1966  0.0810
  158POPC   C2B 2267  -0.289   6.366   5.826  0.3839 -0.1900  0.0894
  158POPC   C3B 2268  -0.356   6.772   5.892 -0.2674 -0.0656  0.0981
  158POPC   C4B 2269  -0.346   7.169   6.110  0.1888  0.0606 -0.2612
  159POPC   NC3 2270   9.041   2.289   3.991 -0.0378 -0.0140  0.0112
  159POPC   PO4 2271   8.826   2.021   3.661  0.1789  0.1634 -0.2088
  159POPC   GL1 2272   8.559   2.010   4.040  0.0346  0.4197 -0.1782
  159POPC   GL2 2273   8.683   1.833   4.245  0.1255  0.0685  0.1366
  159POPC   C1A 2274   8.370   2.296   4.378 -0.3669  0.0004  0.0554
  159POPC   D2A 2275   8.448   2.367   4.768  0.2365 -0.0557 -0.1348
  159POPC   C3A 2276   8.414   2.728   4.927  0.2523 -0.3720  0.0545
  159POPC   C4A 2277   8.611   3.098   4.989  0.4190 -0.0920  0.1235
  159POPC   C1B 2278   8.938   1.596   4.509  0.1810  0.0085  0.1120
  159POPC   C2B 2279   8.905   1.444   4.918 -0.0561  0.0353  0.0026
  159POPC   C3B 2280   9.078   1.486   5.314  0.2046  0.1239 -0.0195
  159POPC   C4B 2281   9.174   1.195   5.647 -0.0781 -0.2081 -0.1844
  160POPC   NC3 2282   2.869   6.275   4.489  0.1528  0.0317  0.2083
  160POPC   PO4 2283   2.686   5.986   4.192  0.1004  0.1020  0.1074
  160POPC   GL1 2284   2.621   5.792   4.796 -0.0259 -0.1721  0.0893
  160POPC   GL2 2285   2.456   6.082   4.980 -0.0474 -0.0116  0.2872
  160POPC   C1A 2286   2.834   5.692   5.199 -0.0839 -0.2961 -0.1960
  160POPC   D2A 2287   3.023   5.660   5.553 -0.0323 -0.2078 -0.0145
  160POPC   C3A 2288   2.903   5.916   5.901  0.0643 -0.1141  0.1289
  160POPC   C4A 2289   2.962   5.926   6.373  0.1156 -0.1423  0.0332
  160POPC   C1B 2290   2.316   6.383   5.298  0.3454 -0.0551 -0.0865
  160POPC   C2B 2291   2.430   6.482   5.776 -0.0635 -0.1316 -0.1772
  160POPC   C3B 2292   2.211   6.419   6.182  0.0009 -0.1956  0.2925
  160POPC   C4B 2293   2.173   6.792   6.488 -0.3284  0.0473  0.0248
  161POPC   NC3 2294   3.930   7.290   4.134  0.0668 -0.0106  0.3200
  161POPC   PO4 2295   4.189   7.644   4.205 -0.1094  0.2969  0.3135
  161POPC   GL1 2296   4.322   7.333   4.558 -0.2022 -0.1064  0.1256
  161POPC   GL2 2297   4.051   7.065   4.584  0.1853  0.1241 -0.0507
  161POPC   C1A 2298   4.269   7.282   4.968  0.2923 -0.1013 -0.2526
  161POPC   D2A 2299   4.583   7.365   5.365 -0.0973  0.1681 -0.0145
  161POPC   C3A 2300   4.846   7.690   5.552 -0.0274 -0.3841  0.2007
  161POPC   C4A 2301   5.114   7.737   5.790 -0.1260  0.0951  0.0797
  161POPC   C1B 2302   3.771   7.107   4.933  0.0479 -0.1266 -0.1954
  161POPC   C2B 2303   3.441   6.833   5.096  0.2201 -0.0083  0.1974
  161POPC   C3B 2304   3.272   6.471   5.322 -0.0538 -0.0547 -0.0163
  161POPC   C4B 2305   3.401   6.172   5.617  0.1181  0.0091  0.0363
  162POPC   NC3 2306   6.106   7.878   3.957  0.1185 -0.0372 -0.2285
  162POPC   PO4 2307   6.181   8.257   4.194 -0.0210 -0.1957  0.1117
  162POPC   GL1 2308   6.214   8.231   4.696 -0.0141  0.2443 -0.2598
  162POPC   GL2 2309   6.385   7.929   4.856  0.4538  0.2555 -0.4378
  162POPC   C1A 2310   6.184   8.367   5.108  0.0387  0.1765 -0.1260
  162POPC   D2A 2311   6.336   8.590   5.459  0.1895  0.2258  0.3213
  162POPC   C3A 2312   6.073   8.648   5.782 -0.0838 -0.0332  0.0843
  162POPC   C4A 2313   6.046   8.542   6.258  0.0073 -0.0435 -0.0498
  162POPC   C1B 2314   6.626   7.769   5.181 -0.2677  0.0462  0.0075
  162POPC   C2B 2315   7.019   7.909   5.333  0.2756  0.3339 -0.0020
  162POPC   C3B 2316   7.103   8.135   5.720 -0.3653 -0.1619 -0.0325
  162POPC   C4B 2317   7.289   8.508   6.071  0.0072 -0.2352  0.1670
  163POPC   NC3 2318   9.366   5.276   4.426 -0.0181 -0.2090 -0.1654
  163POPC   PO4 2319   9.232   5.026   4.842 -0.4673 -0.1519  0.1709
  163POPC   GL1 2320   9.535   4.819   5.039  0.1510 -0.1043  0.2529
  163POPC   GL2 2321   9.865   4.764   5.107 -0.3627 -0.1620  0.1523
  163POPC   C1A 2322   9.726   4.512   5.484 -0.2964  0.1056  0.2259
  163POPC   D2A 2323   9.958   4.699   5.940  0.0342 -0.2266  0.1551
  163POPC   C3A 2324   9.681   4.885   6.185  0.0636  0.1697  0.1709
  163POPC   C4A 2325   9.709   5.034   6.626 -0.0541  0.1351 -0.0560
  163POPC   C1B 2326   9.987   4.975   5.536  0.1608 -0.0352  0.1431
  163POPC   C2B 2327  10.369   4.999   5.648 -0.2909 -0.0942 -0.0491
  163POPC   C3B 2328  10.609   5.031   6.017 -0.0739  0.0405 -0.0771
  163POPC   C4B 2329  10.637   5.258   6.439  0.1334  0.1690  0.2419
  164POPC   NC3 2330   1.301   1.226   4.686 -0.2319  0.2117 -0.2780
  164POPC   PO4 2331   1.656   1.002   4.549  0.3498 -0.0284 -0.2698
  164POPC   GL1 2332   1.379   0.774   4.821  0.1056 -0.0952  0.1050
  164POPC   GL2 2333   1.431   1.011   5.135  0.0373  0.0593 -0.1075
  164POPC   C1A 2334   1.474   0.499   5.176  0.3203 -0.0066 -0.3142
  164POPC   D2A 2335   1.787   0.585   5.387 -0.3272  0.2485  0.2477
  164POPC   C3A 2336   1.873   0.367   5.767  0.2357 -0.0448  0.0738
  164POPC   C4A 2337   1.795  -0.075   5.908 -0.1439  0.1354 -0.0719
  164POPC   C1B 2338   1.522   0.927   5.592 -0.0754  0.0915  0.2094
  164POPC   C2B 2339   1.864   0.898   5.843  0.0644  0.2284  0.1109
  164POPC   C3B 2340   1.824   1.179   6.232  0.2599  0.0802  0.0324
  164POPC   C4B 2341   2.109   1.044   6.555  0.1713  0.1501  0.0059
  165POPC   NC3 2342   6.928   4.738   4.341 -0.1344  0.0105  0.0945
  165POPC   PO4 2343   6.972   4.994   4.563  0.1725  0.1504  0.1724
  165POPC   GL1 2344   6.927   4.725   4.905 -0.0981  0.0907 -0.3116
  165POPC   GL2 2345   7.080   4.391   4.732  0.2035  0.1556  0.1459
  165POPC   C1A 2346   7.043   4.548   5.314  0.1278  0.0610 -0.0592
  165POPC   D2A 2347   7.105   4.714   5.733 -0.0394 -0.1317  0.1731
  165POPC   C3A 2348   7.103   4.467   6.096 -0.3546  0.0484  0.0249
  165POPC   C4A 2349   7.186   4.258   6.452  0.1229  0.4766  0.3217
  165POPC   C1B 2350   7.095   4.093   5.019  0.1780  0.1071 -0.1133
  165POPC   C2B 2351   7.197   3.894   5.481 -0.2256  0.0535  0.1609
  165POPC   C3B 2352   7.037   3.627   5.722  0.2197 -0.3371 -0.5355
  165POPC   C4B 2353   6.939   3.474   6.112  0.0658  0.1065  0.3708
  166POPC   NC3 2354   5.810   5.827   4.917  0.3578 -0.1812 -0.2284
  166POPC   PO4 2355   5.719   6.232   4.926 -0.3696  0.0486  0.0537
  166POPC   GL1 2356   5.500   6.000   5.265 -0.2510 -0.3352  0.1990
  166POPC   GL2 2357   5.209   6.017   5.206 -0.0300 -0.3122 -0.0012
  166POPC   C1A 2358   5.414   5.615   5.583  0.3041 -0.2712  0.1282
  166POPC   D2A 2359   5.308   5.439   5.931  0.2452 -0.3907  0.4070
  166POPC   C3A 2360   4.974   5.631   6.121  0.0863  0.4210  0.1271
  166POPC   C4A 2361   4.861   5.765   6.486 -0.1799 -0.2008  0.0327
  166POPC   C1B 2362   4.965   5.922   5.521  0.1425 -0.2513  0.0732
  166POPC   C2B 2363   4.690   5.835   5.785  0.1534  0.2905  0.2501
  166POPC   C3B 2364   4.477   5.600   6.185 -0.2783  0.1887  0.0231
  166POPC   C4B 2365   4.546   5.346   6.517  0.0857 -0.2017  0.0451
  167POPC   NC3 2366   8.927   7.434   4.778  0.0392 -0.1340 -0.3084
  167POPC   PO4 2367   9.006   7.873   4.899 -0.0436 -0.3747 -0.3222
  167POPC   GL1 2368   9.051   8.190   5.126 -0.0976 -0.2059 -0.0523
  167POPC   GL2 2369   8.788   8.459   5.058  0.4023 -0.1444 -0.0621
  167POPC   C1A 2370   9.381   8.117   5.462  0.0470 -0.4125 -0.2499
  167POPC   D2A 2371   9.402   7.828   5.729 -0.4032  0.1957  0.1291
  167POPC   C3A 2372   9.671   7.457   5.835  0.2762 -0.1781 -0.1828
  167POPC   C4A 2373   9.837   7.025   5.961 -0.1359 -0.0576 -0.1667
  167POPC   C1B 2374   8.628   8.822   5.435  0.1999 -0.0549 -0.1334
  167POPC   C2B 2375   8.674   8.741   5.771 -0.0485  0.2794  0.2234
  167POPC   C3B 2376   8.896   8.579   6.076  0.1668 -0.2559  0.0359
  167POPC   C4B 2377   9.200   8.624   6.457  0.1529  0.0261 -0.2364
  168POPC   NC3 2378   3.413   4.968   4.610 -0.0597  0.2037 -0.1653
  168POPC   PO4 2379   3.737   4.841   4.623 -0.0663 -0.3093  0.0107
  168POPC   GL1 2380   4.101   4.790   4.918 -0.0613  0.3033  0.0127
  168POPC   GL2 2381   4.437   4.830   4.883 -0.0368  0.0720  0.1297
  168POPC   C1A 2382   4.176   4.871   5.343  0.0469 -0.0469  0.1709
  168POPC   D2A 2383   3.845   5.001   5.526  0.2227 -0.0202 -0.0434
  168POPC   C3A 2384   3.406   4.921   5.307 -0.1305 -0.2432  0.0894
  168POPC   C4A 2385   3.006   5.244   5.322 -0.1074 -0.2868  0.1486
  168POPC   C1B 2386   4.502   4.497   5.137  0.1199 -0.1000  0.1348
  168POPC   C2B 2387   4.386   4.314   5.407  0.2861 -0.0543 -0.3479
  168POPC   C3B 2388   4.355   4.232   5.918  0.0383 -0.0551  0.0732
  168POPC   C4B 2389   4.569   4.161   6.268  0.0725  0.1259 -0.2221
  169POPC   NC3 2390   0.869   0.231   4.117  0.1928 -0.1137 -0.3197
  169POPC   PO4 2391   0.717   0.079   4.540 -0.1515 -0.0463 -0.3329
  169POPC   GL1 2392   0.618   0.414   4.790  0.0277  0.0799 -0.2116
  169POPC   GL2 2393   0.354   0.582   4.845  0.2582  0.2672 -0.0108
  169POPC   C1A 2394   0.609   0.442   5.284 -0.1717 -0.1574 -0.0563
  169POPC   D2A 2395   0.501   0.658   5.549  0.2964  0.1477 -0.3115
  169POPC   C3A 2396   0.149   0.492   5.785 -0.0906 -0.0045 -0.1365
  169POPC   C4A 2397  -0.200   0.517   6.096  0.0418 -0.0851 -0.0617
  169POPC   C1B 2398   0.223   0.861   5.193 -0.4145  0.1482 -0.1359
  169POPC   C2B 2399   0.230   1.116   5.633  0.3495  0.0506 -0.1723
  169POPC   C3B 2400   0.327   1.321   5.991  0.0424  0.4848  0.1867
  169POPC   C4B 2401   0.370   1.652   6.090 -0.1597  0.1464  0.1929
  170POPC   NC3 2402   7.943   4.910   4.660  0.3506  0.0396 -0.2461
  170POPC   PO4 2403   8.398   4.912   4.641  0.1761  0.0466 -0.2854
  170POPC   GL1 2404   8.377   4.707   5.087 -0.0322 -0.0671  0.2204
  170POPC   GL2 2405   8.435   4.375   5.179  0.1758  0.2800  0.0071
  170POPC   C1A 2406   8.177   4.791   5.445 -0.3259  0.3063  0.0018
  170POPC   D2A 2407   7.946   4.862   5.721 -0.0949 -0.0029 -0.1127
  170POPC   C3A 2408   7.686   4.527   5.785  0.1301  0.2443  0.1160
  170POPC   C4A 2409   7.427   4.292   5.619  0.1199  0.3119 -0.0995
  170POPC   C1B 2410   8.514   4.377   5.508 -0.0562 -0.1088  0.0273
  170POPC   C2B 2411   8.781   4.458   5.896  0.0854 -0.0674 -0.0808
  170POPC   C3B 2412   8.976   4.211   6.392  0.0346 -0.3444  0.0119
  170POPC   C4B 2413   8.996   4.343   6.789  0.1012  0.0701 -0.0544
  171POPC   NC3 2414   3.662   9.110   3.825  0.0861 -0.2475  0.2646
  171POPC   PO4 2415   3.544   9.092   4.197  0.4512 -0.2443 -0.0384
  171POPC   GL1 2416   3.599   8.939   4.594  0.0302 -0.1065  0.2148
  171POPC   GL2 2417   3.974   8.963   4.624  0.0863  0.5512 -0.0086
  171POPC   C1A 2418   3.486   9.184   4.854  0.2341 -0.1886 -0.3124
  171POPC   D2A 2419   3.708   9.551   5.049  0.1856  0.0595  0.1912
  171POPC   C3A 2420   4.118   9.523   4.947  0.0292 -0.2062  0.4522
  171POPC   C4A 2421   4.547   9.286   4.798 -0.1707 -0.1256  0.1338
  171POPC   C1B 2422   3.908   8.982   5.070 -0.1073 -0.2505 -0.1027
  171POPC   C2B 2423   3.837   9.218   5.451 -0.2733 -0.0937 -0.0145
  171POPC   C3B 2424   3.834   9.341   5.815  0.1103 -0.0112  0.2148
  171POPC   C4B 2425   4.008   9.263   6.206  0.3377 -0.1069 -0.0972
  172POPC   NC3 2426   2.802   7.946   3.742  0.0030 -0.0314  0.0468
  172POPC   PO4 2427   2.582   7.878   4.020  0.1299  0.0396 -0.0261
  172POPC   GL1 2428   2.705   7.937   4.488 -0.0500 -0.0852  0.0465
  172POPC   GL2 2429   2.828   7.697   4.605 -0.0916  0.3707 -0.0746
  172POPC   C1A 2430   2.792   8.148   4.990 -0.0505  0.2307  0.0515
  172POPC   D2A 2431   3.043   7.961   5.467 -0.0106 -0.0508  0.1607
  172POPC   C3A 2432   3.168   8.106   5.851  0.2466 -0.0578  0.3993
  172POPC   C4A 2433   3.174   8.124   6.254 -0.0101  0.2622 -0.1495
  172POPC   C1B 2434   2.890   7.661   5.054 -0.0800 -0.2157  0.1090
  172POPC   C2B 2435   2.930   7.416   5.586 -0.0446 -0.4758  0.0197
  172POPC   C3B 2436   2.959   7.235   6.051 -0.0362  0.0617 -0.1493
  172POPC   C4B 2437   3.352   7.500   6.382  0.3976  0.3284 -0.0627
  173POPC   NC3 2438   8.069   9.183   4.021 -0.2789 -0.0442  0.1795
  173POPC   PO4 2439   8.353   9.528   4.173 -0.0509  0.0912 -0.0726
  173POPC   GL1 2440   8.245   9.502   4.561 -0.2233 -0.2751  0.2024
  173POPC   GL2 2441   8.502   9.288   4.776 -0.0929 -0.1045  0.1242
  173POPC   C1A 2442   7.976   9.302   4.866 -0.0660 -0.0511  0.0150
  173POPC   D2A 2443   7.809   9.043   5.222 -0.2134 -0.1382  0.0759
  173POPC   C3A 2444   8.133   9.018   5.583 -0.2013  0.2091 -0.2415
  173POPC   C4A 2445   8.281   9.067   6.018 -0.0051  0.1455  0.0377
  173POPC   C1B 2446   8.323   9.002   5.140 -0.0134 -0.1949  0.3145
  173POPC   C2B 2447   8.334   8.436   5.329 -0.4486  0.1126  0.2830
  173POPC   C3B 2448   8.169   8.076   5.546  0.1397 -0.0389  0.0310
  173POPC   C4B 2449   7.894   7.774   5.773 -0.2432 -0.1327 -0.2178
  174POPC   NC3 2450   5.672   2.481   3.445  0.3154  0.2573 -0.0678
  174POPC   PO4 2451   6.023   2.312   3.638 -0.1523 -0.3951 -0.1858
  174POPC   GL1 2452   6.049   2.411   4.114  0.1759  0.2865  0.2560
  174POPC   GL2 2453   5.896   2.105   4.289 -0.0588 -0.1794  0.2451
  174POPC   C1A 2454   6.265   2.459   4.493 -0.2689  0.1899  0.0233
  174POPC   D2A 2455   6.127   2.458   4.935 -0.0264  0.2395 -0.0787
  174POPC   C3A 2456   6.332   2.215   5.115 -0.1991  0.0939  0.1210
  174POPC   C4A 2457   6.383   2.168   5.477 -0.0274  0.0349 -0.0100
  174POPC   C1B 2458   5.998   2.025   4.748 -0.3276 -0.0164  0.0619
  174POPC   C2B 2459   5.864   2.064   5.159  0.2169 -0.0701 -0.1649
  174POPC   C3B 2460   5.932   2.426   5.453 -0.1032 -0.0302  0.0968
  174POPC   C4B 2461   5.748   2.659   5.762 -0.2677 -0.1174  0.2372
  175POPC   NC3 2462   0.263   4.431   4.633 -0.2225  0.0910 -0.1211
  175POPC   PO4 2463   0.438   4.902   4.615  0.3739 -0.0484 -0.1803
  175POPC   GL1 2464   0.603   4.978   5.099  0.0368 -0.1252  0.0797
  175POPC   GL2 2465   0.891   4.713   5.223  0.3984  0.0857  0.0713
  175POPC   C1A 2466   1.063   5.116   5.412 -0.1987  0.1156 -0.1136
  175POPC   D2A 2467   1.077   5.421   5.707  0.6555  0.2143 -0.0998
  175POPC   C3A 2468   1.288   5.485   6.154 -0.2150 -0.1621 -0.0948
  175POPC   C4A 2469   1.741   5.685   6.274 -0.2082  0.2381  0.3300
  175POPC   C1B 2470   1.085   4.692   5.636  0.3096  0.0321  0.1442
  175POPC   C2B 2471   1.305   4.510   6.038  0.3137  0.1607  0.1573
  175POPC   C3B 2472   1.645   4.552   6.362 -0.4252 -0.2928 -0.1003
  175POPC   C4B 2473   1.686   4.409   6.862  0.2071 -0.2395  0.2184
  176POPC   NC3 2474   4.462   1.538   4.219  0.1163 -0.1818 -0.1694
  176POPC   PO4 2475   4.762   1.251   4.174 -0.1443  0.0470 -0.0056
  176POPC   GL1 2476   4.832   1.423   4.640 -0.0760 -0.0545 -0.1083
  176POPC   GL2 2477   4.670   1.184   4.887  0.0800 -0.2181 -0.1718
  176POPC   C1A 2478   4.986   1.644   5.007 -0.2329 -0.1205 -0.3516
  176POPC   D2A 2479   5.064   1.758   5.487  0.2429  0.1267  0.0344
  176POPC   C3A 2480   5.569   1.751   5.488  0.2836  0.0498  0.3706
  176POPC   C4A 2481   5.960   1.874   5.599 -0.1311  0.2667  0.0536
  176POPC   C1B 2482   5.094   1.067   5.217 -0.0519  0.1041  0.3232
  176POPC   C2B 2483   5.358   1.276   5.502 -0.1654  0.2395  0.1203
  176POPC   C3B 2484   5.579   1.367   5.939  0.0247  0.1432 -0.0733
  176POPC   C4B 2485   5.700   1.745   6.106  0.0446  0.1206  0.1377
  177POPC   NC3 2486   4.447   8.441   3.983 -0.1138 -0.2634  0.2568
  177POPC   PO4 2487   4.047   8.214   3.985  0.2342  0.2081  0.1141
  177POPC   GL1 2488   4.355   8.080   4.415  0.0335  0.1709 -0.0253
  177POPC   GL2 2489   4.303   7.800   4.678 -0.1675  0.0636 -0.1785
  177POPC   C1A 2490   4.385   8.279   4.803  0.1654 -0.3115 -0.0353
  177POPC   D2A 2491   4.444   8.355   5.154 -0.1129 -0.1148  0.1360
  177POPC   C3A 2492   4.075   8.207   5.354  0.1550 -0.1424  0.0714
  177POPC   C4A 2493   3.768   7.979   5.499  0.0967  0.0803 -0.0451
  177POPC   C1B 2494   4.377   7.824   5.137  0.1949  0.2389  0.0656
  177POPC   C2B 2495   4.223   7.785   5.572 -0.1929  0.1568  0.1103
  177POPC   C3B 2496   4.551   7.701   6.001 -0.0902  0.3488  0.2196
  177POPC   C4B 2497   4.818   8.083   6.040 -0.0509  0.0275  0.0342
  178POPC   NC3 2498   4.400   0.890   4.013 -0.0301 -0.2592 -0.0428
  178POPC   PO4 2499   4.394   1.059   4.450  0.1418  0.0144 -0.3422
  178POPC   GL1 2500   4.234   1.390   4.659 -0.1676 -0.1273 -0.0120
  178POPC   GL2 2501   4.095   1.726   4.534  0.2406  0.0305  0.3743
  178POPC   C1A 2502   4.370   1.631   4.998  0.5215 -0.2447  0.3570
  178POPC   D2A 2503   4.525   1.794   5.351  0.1384  0.1242  0.1736
  178POPC   C3A 2504   4.292   1.690   5.747  0.1417 -0.2967  0.1500
  178POPC   C4A 2505   4.389   1.594   6.273  0.1991 -0.4963  0.1372
  178POPC   C1B 2506   3.679   1.862   4.727  0.1154 -0.0939  0.0497
  178POPC   C2B 2507   3.383   1.850   5.034  0.0354 -0.1166  0.0504
  178POPC   C3B 2508   3.224   1.524   5.409  0.0050  0.1226 -0.1252
  178POPC   C4B 2509   3.286   1.287   5.797  0.2468  0.4760 -0.3173
  179POPC   NC3 2510   9.225   8.536   4.681  0.2649  0.0551 -0.1889
  179POPC   PO4 2511   9.404   8.848   4.558 -0.0188 -0.0532 -0.1268
  179POPC   GL1 2512   9.644   8.699   4.937  0.3473  0.0632  0.1746
  179POPC   GL2 2513   9.521   8.450   5.097 -0.1497 -0.2745 -0.0821
  179POPC   C1A 2514   9.889   8.760   5.242 -0.1559 -0.1485 -0.4872
  179POPC   D2A 2515  10.071   8.889   5.650  0.1377 -0.0567  0.0294
  179POPC   C3A 2516   9.830   8.736   5.974 -0.1526  0.1798  0.1015
  179POPC   C4A 2517   9.513   8.962   6.186  0.1177 -0.0356 -0.2378
  179POPC   C1B 2518   9.679   8.477   5.590  0.1883  0.1478 -0.1066
  179POPC   C2B 2519   9.365   8.440   5.944 -0.2718 -0.1691  0.2648
  179POPC   C3B 2520   9.169   8.130   6.041  0.2523 -0.1891 -0.2231
  179POPC   C4B 2521   9.206   7.696   6.192 -0.1643  0.1443 -0.0326
  180POPC   NC3 2522   6.825   6.553   4.351 -0.1838 -0.1391  0.0476
  180POPC   PO4 2523   6.446   6.425   4.593 -0.2946 -0.0246  0.0112
  180POPC   GL1 2524   6.533   6.544   5.011  0.3572  0.0300  0.0647
  180POPC   GL2 2525   6.912   6.749   5.085 -0.3292 -0.1070  0.1458
  180POPC   C1A 2526   6.555   6.853   5.406 -0.1525  0.2039 -0.1291
  180POPC   D2A 2527   6.518   6.904   5.856 -0.2704 -0.1132 -0.0066
  180POPC   C3A 2528   6.205   6.690   6.059 -0.0006 -0.4439 -0.0696
  180POPC   C4A 2529   6.009   6.344   6.268  0.1628  0.0104  0.0064
  180POPC   C1B 2530   6.921   7.202   5.376  0.0607  0.0318 -0.2357
  180POPC   C2B 2531   7.050   7.157   5.747  0.0066  0.0858 -0.0337
  180POPC   C3B 2532   7.034   7.353   6.163 -0.0013 -0.0146  0.2702
  180POPC   C4B 2533   7.132   7.687   6.463 -0.0668  0.0279 -0.2868
  181POPC   NC3 2534   7.379   2.031   3.686  0.0866  0.0584 -0.2123
  181POPC   PO4 2535   7.610   1.542   3.710  0.1418 -0.3417  0.2400
  181POPC   GL1 2536   7.428   1.690   4.132  0.0133  0.0407  0.0020
  181POPC   GL2 2537   7.108   1.645   4.145 -0.1728  0.0702  0.1659
  181POPC   C1A 2538   7.226   2.015   4.447  0.1501 -0.0967  0.0143
  181POPC   D2A 2539   7.280   2.341   4.607  0.1650 -0.1132 -0.1168
  181POPC   C3A 2540   7.118   2.390   4.973  0.1933 -0.3446 -0.0696
  181POPC   C4A 2541   7.001   2.342   5.396  0.1762 -0.2932 -0.1705
  181POPC   C1B 2542   6.845   1.967   4.187 -0.2047  0.1580 -0.0129
  181POPC   C2B 2543   6.813   2.367   4.417  0.1189  0.3138 -0.0657
  181POPC   C3B 2544   6.632   2.493   4.837 -0.3373  0.4604  0.0732
  181POPC   C4B 2545   6.632   2.678   5.219 -0.0562 -0.1072 -0.0869
  182POPC   NC3 2546   0.363   3.013   4.367  0.1933 -0.1586 -0.0675
  182POPC   PO4 2547   0.519   3.428   4.527 -0.3658 -0.0636  0.0518
  182POPC   GL1 2548   0.450   3.615   4.997  0.1379  0.2192  0.2097
  182POPC   GL2 2549   0.120   3.663   5.110 -0.0903 -0.0496  0.0685
  182POPC   C1A 2550   0.615   3.447   5.380  0.1305  0.3088 -0.1237
  182POPC   D2A 2551   0.573   3.181   5.763  0.1351  0.1052 -0.2145
  182POPC   C3A 2552   0.776   3.260   6.172 -0.0731  0.0836  0.0042
  182POPC   C4A 2553   1.090   2.991   6.302 -0.0477 -0.0657  0.0730
  182POPC   C1B 2554   0.074   3.567   5.570 -0.2982  0.2614  0.1811
  182POPC   C2B 2555  -0.028   3.533   5.935 -0.1022 -0.1826 -0.1576
  182POPC   C3B 2556  -0.308   3.092   6.184  0.2365  0.0440  0.2126
  182POPC   C4B 2557  -0.705   2.981   6.313  0.2544 -0.0222  0.3419
  183POPC   NC3 2558   7.773   6.256   4.337  0.0099 -0.1032  0.1138
  183POPC   PO4 2559   7.367   6.340   4.646 -0.3483  0.1533 -0.1060
  183POPC   GL1 2560   7.405   6.519   5.070  0.3970 -0.1723 -0.0239
  183POPC   GL2 2561   7.290   6.413   5.316  0.2125  0.2358 -0.1077
  183POPC   C1A 2562   7.438   6.951   5.386 -0.1658 -0.0038 -0.1930
  183POPC   D2A 2563   7.545   7.205   5.806 -0.3338  0.1221  0.1664
  183POPC   C3A 2564   7.403   7.051   6.202 -0.4546  0.3135 -0.1057
  183POPC   C4A 2565   7.412   6.742   6.421 -0.2522  0.2298 -0.1614
  183POPC   C1B 2566   7.029   6.584   5.513 -0.0680  0.0333 -0.2749
  183POPC   C2B 2567   7.072   6.727   6.023 -0.0784  0.1127 -0.0480
  183POPC   C3B 2568   6.911   6.896   6.401 -0.4525  0.3258  0.0778
  183POPC   C4B 2569   6.737   7.159   6.820  0.2279  0.0736  0.5774
  184POPC   NC3 2570   1.571   2.028   4.437 -0.3709 -0.1002 -0.3129
  184POPC   PO4 2571   1.298   1.708   4.520 -0.2406 -0.2435  0.0557
  184POPC   GL1 2572   1.383   1.667   5.005 -0.1001 -0.1935 -0.0778
  184POPC   GL2 2573   1.482   1.958   5.106 -0.0461 -0.1536  0.1168
  184POPC   C1A 2574   1.625   1.398   5.303 -0.0053 -0.4751 -0.0250
  184POPC   D2A 2575   1.725   1.375   5.746 -0.0431  0.2648 -0.0301
  184POPC   C3A 2576   2.058   1.695   5.869  0.0948  0.1100  0.0914
  184POPC   C4A 2577   2.534   1.614   6.019 -0.0261  0.1905  0.1327
  184POPC   C1B 2578   1.544   2.237   5.400  0.1440 -0.1101  0.0061
  184POPC   C2B 2579   1.439   2.278   5.822  0.1214  0.0890  0.1760
  184POPC   C3B 2580   1.263   2.048   6.095 -0.1938 -0.4053  0.0343
  184POPC   C4B 2581   1.377   2.057   6.426  0.1207 -0.0638  0.0618
  185POPC   NC3 2582   6.789   3.367   4.246  0.3197  0.2008  0.2113
  185POPC   PO4 2583   6.641   3.817   4.286  0.0307  0.2324 -0.2014
  185POPC   GL1 2584   6.693   3.654   4.659  0.1553 -0.3145 -0.4245
  185POPC   GL2 2585   6.916   3.628   5.009 -0.0720 -0.3742 -0.0600
  185POPC   C1A 2586   6.511   3.405   4.974  0.2507 -0.1087 -0.0431
  185POPC   D2A 2587   6.566   3.175   5.315 -0.1813  0.1892 -0.3093
  185POPC   C3A 2588   6.262   2.926   5.528 -0.0792 -0.0247 -0.2298
  185POPC   C4A 2589   6.245   2.521   5.860  0.2902 -0.3359  0.2295
  185POPC   C1B 2590   6.746   3.757   5.305 -0.0551 -0.0094  0.1780
  185POPC   C2B 2591   6.508   3.651   5.537 -0.1003  0.1174 -0.3886
  185POPC   C3B 2592   6.530   3.331   5.855  0.1507  0.0056  0.1762
  185POPC   C4B 2593   6.197   3.414   6.154 -0.2094  0.1628  0.0259
  186POPC   NC3 2594   3.599   3.218   3.806  0.2461 -0.0817 -0.1899
  186POPC   PO4 2595   3.803   2.970   4.098  0.1442 -0.0680 -0.2905
  186POPC   GL1 2596   3.705   3.079   4.508  0.0181 -0.0067 -0.0831
  186POPC   GL2 2597   3.791   3.301   4.776  0.1771 -0.1031 -0.3755
  186POPC   C1A 2598   3.816   2.810   4.892  0.4110  0.0753 -0.0746
  186POPC   D2A 2599   3.667   2.716   5.212  0.0378 -0.1526  0.2945
  186POPC   C3A 2600   3.409   2.348   5.145 -0.1788 -0.1127  0.2201
  186POPC   C4A 2601   3.343   2.098   5.466  0.2225  0.0011 -0.0716
  186POPC   C1B 2602   3.465   3.131   5.010  0.0070  0.0393  0.4501
  186POPC   C2B 2603   3.451   3.206   5.457  0.0020  0.1955  0.1064
  186POPC   C3B 2604   3.438   3.150   5.958  0.1488  0.0478  0.0499
  186POPC   C4B 2605   3.690   2.887   6.217  0.0196  0.1443 -0.1483
  187POPC   NC3 2606   6.843   1.891   3.507  0.1935 -0.2389  0.1027
  187POPC   PO4 2607   6.684   1.583   3.727 -0.0150  0.1107 -0.0871
  187POPC   GL1 2608   6.484   1.462   4.046  0.3998 -0.2089 -0.2856
  187POPC   GL2 2609   6.316   1.719   4.214 -0.1200  0.1252  0.1830
  187POPC   C1A 2610   6.285   1.162   4.372 -0.0737 -0.0682 -0.0610
  187POPC   D2A 2611   6.319   1.308   4.759 -0.0482 -0.5089 -0.0266
  187POPC   C3A 2612   6.196   1.024   5.049 -0.0354 -0.3439 -0.0171
  187POPC   C4A 2613   6.237   0.924   5.424  0.0140  0.1538  0.1086
  187POPC   C1B 2614   6.710   1.561   4.489  0.0027  0.2609 -0.2178
  187POPC   C2B 2615   6.880   1.400   4.840  0.1386  0.1776 -0.1099
  187POPC   C3B 2616   7.111   1.309   5.210  0.0714  0.0446 -0.0654
  187POPC   C4B 2617   7.117   1.123   5.554 -0.0896 -0.0484  0.1200
  188POPC   NC3 2618   5.470   9.076   3.740 -0.0523 -0.0783  0.1393
  188POPC   PO4 2619   5.340   8.907   4.199 -0.2599 -0.1976 -0.1809
  188POPC   GL1 2620   5.084   8.756   4.663 -0.3814  0.1930 -0.1607
  188POPC   GL2 2621   4.963   8.999   4.926  0.2230 -0.2842  0.1991
  188POPC   C1A 2622   4.865   8.515   4.966  0.1235  0.0616  0.2747
  188POPC   D2A 2623   4.807   8.653   5.325 -0.0585  0.0077  0.1637
  188POPC   C3A 2624   5.123   8.815   5.481  0.0284 -0.0069 -0.3408
  188POPC   C4A 2625   5.203   9.071   5.953 -0.1284 -0.1318 -0.3258
  188POPC   C1B 2626   4.833   9.200   5.272 -0.0731  0.0028  0.2162
  188POPC   C2B 2627   4.726   9.099   5.705  0.0591 -0.4657  0.0495
  188POPC   C3B 2628   4.414   9.321   5.896 -0.2698  0.1750  0.0905
  188POPC   C4B 2629   4.523   9.169   6.307  0.1783  0.2819  0.1562
  189POPC   NC3 2630   7.125   7.879   4.166  0.0597 -0.0597  0.1053
  189POPC   PO4 2631   7.579   7.983   4.212 -0.0722 -0.1527  0.1324
  189POPC   GL1 2632   7.454   7.932   4.617  0.2759  0.0811  0.3148
  189POPC   GL2 2633   7.616   8.100   4.882 -0.0448 -0.0158  0.5128
  189POPC   C1A 2634   7.261   7.705   4.932 -0.2485  0.2293  0.3656
  189POPC   D2A 2635   7.343   7.480   5.288 -0.3354 -0.2073  0.0914
  189POPC   C3A 2636   7.311   7.696   5.688 -0.2089  0.1672 -0.2540
  189POPC   C4A 2637   7.483   7.583   6.105  0.0685  0.0654  0.0283
  189POPC   C1B 2638   7.538   8.006   5.358  0.0955  0.1653 -0.1081
  189POPC   C2B 2639   7.686   8.281   5.747  0.3094  0.2068 -0.0102
  189POPC   C3B 2640   7.814   8.351   6.158  0.0223 -0.2876 -0.1959
  189POPC   C4B 2641   7.841   8.025   6.582 -0.3481 -0.1132  0.1335
  190POPC   NC3 2642   2.531   3.539   4.409 -0.2005  0.2480  0.0722
  190POPC   PO4 2643   2.843   3.191   4.373 -0.0549  0.3122 -0.1391
  190POPC   GL1 2644   3.008   3.076   4.676  0.0021 -0.1321 -0.0182
  190POPC   GL2 2645   3.256   2.848   4.646  0.1644 -0.3763 -0.0006
  190POPC   C1A 2646   3.011   3.224   5.111  0.0493 -0.1525  0.0478
  190POPC   D2A 2647   2.914   3.365   5.534 -0.1717  0.3050  0.0988
  190POPC   C3A 2648   2.945   2.984   5.764 -0.0050 -0.1831  0.0227
  190POPC   C4A 2649   3.111   2.822   6.198 -0.0677  0.0267  0.2593
  190POPC   C1B 2650   3.169   2.749   5.112 -0.0110  0.1130  0.0190
  190POPC   C2B 2651   3.208   2.625   5.535  0.2380 -0.0646  0.1658
  190POPC   C3B 2652   3.441   2.466   5.915 -0.1361  0.0321 -0.0392
  190POPC   C4B 2653   3.236   2.335   6.326  0.0387  0.1195 -0.2531
  191POPC   NC3 2654   7.448   3.815   3.512 -0.0177  0.4632  0.1667
  191POPC   PO4 2655   7.438   3.434   3.735 -0.1097 -0.1242  0.0192
  191POPC   GL1 2656   7.702   3.234   4.037 -0.4808  0.0686  0.0622
  191POPC   GL2 2657   7.774   3.481   4.305  0.4192  0.1627 -0.1205
  191POPC   C1A 2658   8.053   3.000   4.214 -0.2186  0.0789  0.1582
  191POPC   D2A 2659   8.300   2.749   4.430  0.0294 -0.1507 -0.3197
  191POPC   C3A 2660   8.699   2.976   4.518  0.1159  0.1122  0.0726
  191POPC   C4A 2661   9.127   3.097   4.738 -0.1517 -0.3992  0.1252
  191POPC   C1B 2662   7.840   3.671   4.693 -0.0814  0.1659  0.1617
  191POPC   C2B 2663   7.972   3.470   5.098  0.0580 -0.1174  0.1487
  191POPC   C3B 2664   8.030   3.385   5.479  0.1206  0.1241  0.2220
  191POPC   C4B 2665   8.345   3.492   5.811  0.2795 -0.5814 -0.0932
  192POPC   NC3 2666   2.903   4.252   4.379  0.1829  0.0424  0.2405
  192POPC   PO4 2667   2.527   4.029   4.421 -0.1197 -0.1407  0.3972
  192POPC   GL1 2668   2.640   3.895   4.852  0.2558  0.0481 -0.0233
  192POPC   GL2 2669   2.499   3.575   4.999 -0.0785 -0.0848  0.1016
  192POPC   C1A 2670   2.916   3.697   5.212 -0.0296 -0.1216 -0.2956
  192POPC   D2A 2671   3.345   3.665   5.040  0.1358 -0.2336 -0.4043
  192POPC   C3A 2672   3.752   3.525   5.239  0.2826  0.0845 -0.0377
  192POPC   C4A 2673   4.020   3.219   5.245 -0.3363 -0.3253 -0.1202
  192POPC   C1B 2674   2.504   3.297   5.280 -0.1546 -0.5269  0.0495
  192POPC   C2B 2675   2.512   3.276   5.751  0.2458 -0.1171  0.1000
  192POPC   C3B 2676   2.446   3.498   6.114  0.1743  0.0086 -0.1385
  192POPC   C4B 2677   2.288   3.949   6.298 -0.2368  0.0317 -0.1356
  193POPC   NC3 2678   3.694   8.487   4.525 -0.2799 -0.1578  0.1037
  193POPC   PO4 2679   3.784   8.034   4.477  0.1813 -0.0624  0.2767
  193POPC   GL1 2680   3.881   8.102   4.866 -0.1172 -0.2036 -0.3726
  193POPC   GL2 2681   3.864   8.493   4.952  0.0894  0.0301 -0.2313
  193POPC   C1A 2682   3.459   8.248   5.244 -0.0368  0.1054  0.0327
  193POPC   D2A 2683   3.536   8.399   5.606 -0.0051 -0.1302  0.2669
  193POPC   C3A 2684   3.633   8.347   6.064 -0.2606 -0.1513  0.0330
  193POPC   C4A 2685   3.937   8.629   6.468 -0.1195  0.0024 -0.0030
  193POPC   C1B 2686   3.988   8.686   5.446 -0.1123  0.0783  0.2123
  193POPC   C2B 2687   4.383   8.776   5.604 -0.1418  0.1099  0.1105
  193POPC   C3B 2688   4.823   8.647   5.857 -0.0024  0.0198  0.0005
  193POPC   C4B 2689   5.207   8.524   6.121  0.0700  0.2086  0.2112
  194POPC   NC3 2690   7.042   5.432   4.827  0.0862 -0.0943  0.1864
  194POPC   PO4 2691   7.423   5.593   4.873  0.1620 -0.1388  0.0070
  194POPC   GL1 2692   7.386   5.398   5.194  0.2262  0.0300 -0.2755
  194POPC   GL2 2693   6.977   5.434   5.328  0.0840  0.0259  0.0766
  194POPC   C1A 2694   7.377   5.598   5.585 -0.1602 -0.0451 -0.0475
  194POPC   D2A 2695   7.357   5.611   5.953  0.2243  0.3882  0.1576
  194POPC   C3A 2696   7.122   5.636   6.372  0.2070  0.1654 -0.1101
  194POPC   C4A 2697   6.832   5.882   6.484 -0.0338 -0.5729 -0.4594
  194POPC   C1B 2698   6.809   5.067   5.439 -0.3800 -0.0723  0.1109
  194POPC   C2B 2699   6.579   4.743   5.647 -0.0753  0.0760  0.1322
  194POPC   C3B 2700   6.507   4.446   6.090  0.0240 -0.1270  0.3955
  194POPC   C4B 2701   6.145   4.148   6.178  0.0971 -0.3157 -0.1491
  195POPC   NC3 2702   0.155   0.819   4.058 -0.4103 -0.0003  0.1005
  195POPC   PO4 2703  -0.161   0.413   4.194 -0.0419  0.0211 -0.0191
  195POPC   GL1 2704  -0.263   0.286   4.667 -0.0828 -0.0441 -0.3458
  195POPC   GL2 2705  -0.492  -0.013   4.757 -0.1014 -0.0673 -0.0089
  195POPC   C1A 2706  -0.168   0.201   5.063 -0.0785  0.1669 -0.1182
  195POPC   D2A 2707  -0.035   0.411   5.329  0.1163  0.1177  0.3469
  195POPC   C3A 2708  -0.221   0.204   5.635 -0.0533 -0.0442 -0.0035
  195POPC   C4A 2709  -0.533   0.190   5.919 -0.0966 -0.2224 -0.2278
  195POPC   C1B 2710  -0.448  -0.163   5.248  0.3027  0.2160  0.0036
  195POPC   C2B 2711  -0.421  -0.276   5.714 -0.0556 -0.0084 -0.1490
  195POPC   C3B 2712  -0.383  -0.248   6.094 -0.0172  0.0405 -0.1700
  195POPC   C4B 2713  -0.025  -0.345   6.436  0.0176 -0.1250  0.3399
  196POPC   NC3 2714   6.433   9.635   4.114 -0.0267 -0.2765 -0.1150
  196POPC   PO4 2715   6.759   9.380   4.338 -0.0128 -0.1709 -0.0891
  196POPC   GL1 2716   6.524   9.435   4.699  0.1032  0.0583 -0.0534
  196POPC   GL2 2717   6.601   9.111   4.806  0.0312 -0.0181  0.3358
  196POPC   C1A 2718   6.386   9.489   5.160 -0.0650  0.0112  0.2106
  196POPC   D2A 2719   6.129   9.790   5.403 -0.0538  0.2536 -0.3745
  196POPC   C3A 2720   5.954   9.743   5.859 -0.1160 -0.2967 -0.2166
  196POPC   C4A 2721   5.627   9.841   6.097 -0.1615 -0.3402 -0.4958
  196POPC   C1B 2722   6.834   9.231   5.096 -0.0629  0.1352  0.4762
  196POPC   C2B 2723   6.857   9.358   5.506  0.0609  0.3756 -0.1468
  196POPC   C3B 2724   6.937   9.551   5.969 -0.0813 -0.0799  0.0816
  196POPC   C4B 2725   7.024   9.580   6.283  0.1987  0.2693  0.2203
  197POPC   NC3 2726   1.750   0.606   4.133 -0.0751 -0.1048  0.0800
  197POPC   PO4 2727   2.025   0.327   4.375 -0.1255 -0.1722  0.2450
  197POPC   GL1 2728   2.354   0.228   4.699 -0.1493 -0.1577  0.0268
  197POPC   GL2 2729   2.404   0.569   4.743  0.1199  0.3372  0.0022
  197POPC   C1A 2730   2.516   0.022   5.000  0.0406  0.4779  0.2648
  197POPC   D2A 2731   2.563  -0.099   5.409 -0.1840 -0.3633 -0.2161
  197POPC   C3A 2732   2.745   0.206   5.732 -0.2661 -0.1218  0.0443
  197POPC   C4A 2733   2.761   0.500   5.926  0.2359  0.0902  0.0638
  197POPC   C1B 2734   2.248   0.492   5.111 -0.1490 -0.1429 -0.0646
  197POPC   C2B 2735   2.201   0.247   5.437  0.1155 -0.2091 -0.1066
  197POPC   C3B 2736   2.287   0.063   5.813 -0.1808  0.0571  0.0259
  197POPC   C4B 2737   2.084   0.218   6.166 -0.0632 -0.2248  0.0481
  198POPC   NC3 2738   8.231   5.272   4.941 -0.1491 -0.3794 -0.0483
  198POPC   PO4 2739   7.933   5.477   4.967 -0.0980  0.1432  0.2867
  198POPC   GL1 2740   7.829   5.538   5.427  0.1860  0.3413  0.0439
  198POPC   GL2 2741   7.794   5.324   5.633 -0.1976  0.1539  0.1085
  198POPC   C1A 2742   7.993   5.848   5.701  0.0762 -0.2657 -0.1628
  198POPC   D2A 2743   8.296   5.902   5.994  0.0582 -0.0228 -0.0324
  198POPC   C3A 2744   8.436   5.842   6.339  0.1273  0.1442 -0.1325
  198POPC   C4A 2745   8.436   5.771   6.849  0.1379  0.0169  0.1062
  198POPC   C1B 2746   7.727   5.172   6.086 -0.1400  0.1905 -0.2057
  198POPC   C2B 2747   7.605   5.399   6.394  0.2740 -0.2956  0.1601
  198POPC   C3B 2748   7.598   5.726   6.505  0.2554 -0.1325  0.2677
  198POPC   C4B 2749   7.353   6.117   6.513 -0.1720  0.2623 -0.0680
  199POPC   NC3 2750   0.994   9.390   4.802  0.0747 -0.0346 -0.1280
  199POPC   PO4 2751   0.498   9.288   4.644 -0.1440 -0.0980  0.2059
  199POPC   GL1 2752   0.608   9.527   5.083  0.1324 -0.0326  0.1001
  199POPC   GL2 2753   0.348   9.785   5.139 -0.1507 -0.1267 -0.4441
  199POPC   C1A 2754   0.760   9.715   5.452  0.0485 -0.0618 -0.1563
  199POPC   D2A 2755   0.805   9.752   5.827 -0.3109  0.3147 -0.0976
  199POPC   C3A 2756   0.489  10.047   6.063  0.1453  0.0325 -0.0993
  199POPC   C4A 2757   0.438  10.188   6.439 -0.0304 -0.2046  0.2349
  199POPC   C1B 2758   0.260   9.795   5.607  0.3457  0.1057 -0.3315
  199POPC   C2B 2759   0.013   9.721   5.988  0.1550 -0.0211  0.2562
  199POPC   C3B 2760  -0.046   9.850   6.431  0.1097  0.2088 -0.1457
  199POPC   C4B 2761  -0.141  10.035   6.796  0.1708 -0.2777 -0.0405
  200POPC   NC3 2762   2.598   7.035   4.480 -0.3291  0.4076 -0.2793
  200POPC   PO4 2763   2.970   6.773   4.583 -0.1604  0.1742 -0.0414
  200POPC   GL1 2764   2.823   6.931   4.925  0.2200  0.0646  0.2274
  200POPC   GL2 2765   2.706   7.246   4.913 -0.3167  0.3037 -0.0015
  200POPC   C1A 2766   2.910   6.959   5.346  0.3352 -0.1540  0.3154
  200POPC   D2A 2767   3.005   6.791   5.739 -0.2882 -0.1285  0.0450
  200POPC   C3A 2768   2.931   6.456   5.723 -0.1168 -0.1329 -0.4078
  200POPC   C4A 2769   2.729   6.124   5.453  0.0866  0.2414  0.0015
  200POPC   C1B 2770   3.202   7.247   5.046  0.0772 -0.1816  0.2191
  200POPC   C2B 2771   3.395   7.207   5.461 -0.0274  0.3492  0.0515
  200POPC   C3B 2772   3.477   7.117   5.954  0.3021  0.1481 -0.0040
  200POPC   C4B 2773   3.718   7.158   6.320 -0.1251 -0.0186  0.2705
  201POPC   NC3 2774   3.002   9.347   3.983  0.2129 -0.0442 -0.3963
  201POPC   PO4 2775   2.664   9.299   4.372  0.0237  0.0878 -0.1028
  201POPC   GL1 2776   2.666   9.038   4.768  0.0395  0.0486 -0.3812
  201POPC   GL2 2777   2.784   9.226   5.048  0.0014 -0.1445 -0.0016
  201POPC   C1A 2778   2.605   8.688   5.036 -0.1136 -0.1081  0.0504
  201POPC   D2A 2779   2.608   8.417   5.486 -0.2847  0.0455  0.2622
  201POPC   C3A 2780   2.659   8.393   5.929  0.1014  0.0901  0.3041
  201POPC   C4A 2781   2.680   8.167   6.336  0.1240  0.1665  0.0002
  201POPC   C1B 2782   3.094   9.198   5.239  0.0422 -0.0001  0.1393
  201POPC   C2B 2783   3.429   9.441   5.484  0.1455  0.1324 -0.0815
  201POPC   C3B 2784   3.824   9.722   5.458 -0.0459 -0.0956  0.4306
  201POPC   C4B 2785   4.185   9.863   5.863  0.1372 -0.3927  0.2621
  202POPC   NC3 2786   7.728   5.991   4.902  0.3677  0.2162  0.1538
  202POPC   PO4 2787   8.096   6.327   4.737 -0.0252 -0.2320 -0.1064
  202POPC   GL1 2788   8.199   6.390   5.146 -0.1304  0.0048 -0.0200
  202POPC   GL2 2789   8.053   6.204   5.405 -0.1314 -0.1393 -0.0424
  202POPC   C1A 2790   8.372   6.547   5.540  0.2646 -0.1351  0.1137
  202POPC   D2A 2791   8.400   6.750   5.880  0.0641  0.0499 -0.0825
  202POPC   C3A 2792   8.114   6.902   6.194  0.2309  0.0778  0.0105
  202POPC   C4A 2793   7.827   6.995   6.518  0.0356 -0.2872 -0.0749
  202POPC   C1B 2794   8.036   6.346   5.857  0.0126 -0.0455 -0.0982
  202POPC   C2B 2795   8.075   6.251   6.232 -0.2137  0.3713  0.2785
  202POPC   C3B 2796   8.033   5.982   6.599  0.2352  0.2919 -0.0966
  202POPC   C4B 2797   8.229   6.223   6.931 -0.1977  0.4092 -0.0112
  203POPC   NC3 2798   7.076   9.536   3.882  0.0050 -0.3099 -0.3781
  203POPC   PO4 2799   6.841   9.943   3.986  0.0202  0.2059 -0.1353
  203POPC   GL1 2800   6.855   9.881   4.476 -0.4191 -0.3709 -0.1816
  203POPC   GL2 2801   7.081   9.753   4.569 -0.0441 -0.0082 -0.0783
  203POPC   C1A 2802   6.949  10.186   4.787 -0.0687 -0.1215 -0.1177
  203POPC   D2A 2803   6.955  10.214   5.193  0.3321  0.2600 -0.2917
  203POPC   C3A 2804   7.364  10.183   5.304  0.4018  0.1459  0.1312
  203POPC   C4A 2805   7.779  10.301   5.249  0.4990 -0.0267  0.1152
  203POPC   C1B 2806   7.020   9.647   4.897  0.1754 -0.3295 -0.0576
  203POPC   C2B 2807   7.122   9.734   5.243 -0.1741 -0.0698 -0.2034
  203POPC   C3B 2808   7.371   9.698   5.647  0.2021 -0.1287  0.2924
  203POPC   C4B 2809   7.623   9.702   6.028 -0.2500  0.2556 -0.4308
  204POPC   NC3 2810   6.448   7.386   4.529 -0.0659  0.1623 -0.0058
  204POPC   PO4 2811   6.643   6.916   4.627  0.0077  0.0374  0.1612
  204POPC   GL1 2812   6.385   7.031   4.933 -0.1693 -0.0428  0.1856
  204POPC   GL2 2813   6.629   7.267   5.039 -0.1381 -0.4732  0.1510
  204POPC   C1A 2814   6.115   6.944   5.232  0.1868  0.3481 -0.0421
  204POPC   D2A 2815   6.100   7.067   5.645  0.0206  0.0915 -0.2113
  204POPC   C3A 2816   5.916   7.067   6.022 -0.0543 -0.1744  0.1263
  204POPC   C4A 2817   5.854   6.855   6.357 -0.2421  0.0178 -0.0846
  204POPC   C1B 2818   6.393   7.357   5.391 -0.0493 -0.3316 -0.1008
  204POPC   C2B 2819   6.680   7.569   5.686 -0.1178 -0.0611  0.0856
  204POPC   C3B 2820   6.868   7.834   5.977  0.2695  0.3154 -0.1947
  204POPC   C4B 2821   6.983   8.182   6.248 -0.1688 -0.0460 -0.0730
  205POPC   NC3 2822   3.846   5.741   4.309  0.1894  0.0208 -0.0582
  205POPC   PO4 2823   4.280   5.659   4.303  0.1620 -0.2919  0.3168
  205POPC   GL1 2824   4.605   5.661   4.666  0.1317 -0.0039 -0.2010
  205POPC   GL2 2825   4.525   5.898   4.899  0.0346  0.2670 -0.0273
  205POPC   C1A 2826   4.910   5.606   5.092  0.0346 -0.4311 -0.0156
  205POPC   D2A 2827   4.962   5.376   5.477  0.3169 -0.4997 -0.1866
  205POPC   C3A 2828   4.498   5.384   5.628 -0.1444 -0.1599  0.1452
  205POPC   C4A 2829   4.276   5.221   5.915 -0.0765  0.0708  0.2850
  205POPC   C1B 2830   4.498   5.868   5.380  0.1275 -0.2496  0.2207
  205POPC   C2B 2831   4.314   6.156   5.853 -0.1981 -0.2916 -0.1563
  205POPC   C3B 2832   4.363   6.544   6.047 -0.1902 -0.0534  0.1885
  205POPC   C4B 2833   4.359   6.704   6.277  0.0817  0.0666 -0.4330
  206POPC   NC3 2834   4.685   5.374   4.160  0.2706  0.3071  0.1287
  206POPC   PO4 2835   4.947   5.080   4.365 -0.0228 -0.0378 -0.3037
  206POPC   GL1 2836   4.773   5.185   4.753  0.0156  0.0575 -0.0429
  206POPC   GL2 2837   5.081   5.180   4.946 -0.2894 -0.1687  0.1330
  206POPC   C1A 2838   4.477   5.322   5.151  0.0582  0.0797 -0.0115
  206POPC   D2A 2839   4.079   5.398   5.376  0.0401  0.1855  0.0079
  206POPC   C3A 2840   3.908   5.461   5.718 -0.1453  0.1301 -0.2236
  206POPC   C4A 2841   3.680   5.383   6.044 -0.1261 -0.1033  0.0894
  206POPC   C1B 2842   4.783   4.990   5.308 -0.3336  0.0920  0.1678
  206POPC   C2B 2843   4.549   4.771   5.642 -0.2328  0.2638  0.1448
  206POPC   C3B 2844   4.213   4.768   5.889 -0.1796 -0.1558  0.0267
  206POPC   C4B 2845   3.935   4.860   5.992  0.2299 -0.2526 -0.1898
  207POPC   NC3 2846   5.298   4.800   4.593  0.1732 -0.1092 -0.2841
  207POPC   PO4 2847   5.290   4.357   4.687 -0.0581  0.1058 -0.1200
  207POPC   GL1 2848   5.390   4.293   5.107  0.2590 -0.1355  0.2821
  207POPC   GL2 2849   5.267   3.967   5.142  0.1597 -0.2407 -0.1998
  207POPC   C1A 2850   5.503   4.408   5.581 -0.1958 -0.1977 -0.1268
  207POPC   D2A 2851   5.203   4.524   5.844 -0.0125  0.0714  0.0670
  207POPC   C3A 2852   5.164   4.951   5.766 -0.0299  0.1993  0.0217
  207POPC   C4A 2853   4.820   5.181   5.904 -0.0949  0.1398  0.1048
  207POPC   C1B 2854   5.234   3.954   5.636  0.2325  0.0705  0.0770
  207POPC   C2B 2855   5.210   3.774   6.016 -0.1179  0.0633 -0.0439
  207POPC   C3B 2856   4.934   3.639   6.380 -0.0952  0.1977 -0.0896
  207POPC   C4B 2857   4.732   3.284   6.477  0.0041 -0.2870  0.1990
  208POPC   NC3 2858   5.150   6.567   4.322 -0.0264  0.0762  0.0494
  208POPC   PO4 2859   5.249   6.290   4.736 -0.3738  0.2278 -0.0898
  208POPC   GL1 2860   5.352   6.522   5.091 -0.0411 -0.3634 -0.1303
  208POPC   GL2 2861   5.639   6.767   5.263  0.1646  0.1242  0.1948
  208POPC   C1A 2862   5.369   6.337   5.564  0.1077 -0.0233 -0.0315
  208POPC   D2A 2863   5.636   6.037   5.779 -0.1978  0.1467  0.0447
  208POPC   C3A 2864   5.668   5.905   6.180 -0.0617  0.1857 -0.1880
  208POPC   C4A 2865   5.422   5.571   6.420 -0.0615  0.5209  0.0223
  208POPC   C1B 2866   5.721   6.701   5.701  0.1134  0.0867  0.2138
  208POPC   C2B 2867   5.550   6.487   6.070  0.1356  0.2046  0.0655
  208POPC   C3B 2868   5.615   6.433   6.516  0.0585 -0.1718 -0.4343
  208POPC   C4B 2869   5.638   6.719   6.920 -0.0622 -0.0620  0.0282
  209POPC   NC3 2870   9.100   6.318   4.890 -0.0160 -0.1055  0.2109
  209POPC   PO4 2871   8.629   6.346   4.923  0.0137  0.0814 -0.0629
  209POPC   GL1 2872   8.575   6.146   5.351  0.1321  0.1255  0.2263
  209POPC   GL2 2873   8.439   5.896   5.526 -0.2960 -0.1004 -0.0330
  209POPC   C1A 2874   8.680   6.198   5.820 -0.0916  0.0691 -0.0577
  209POPC   D2A 2875   8.576   6.374   6.179  0.1506  0.4396  0.1111
  209POPC   C3A 2876   8.663   6.194   6.543 -0.0089  0.2371  0.0384
  209POPC   C4A 2877   8.914   5.984   6.913 -0.0470  0.0371 -0.0159
  209POPC   C1B 2878   8.675   5.661   5.725  0.1187  0.1211 -0.0909
  209POPC   C2B 2879   8.791   5.577   6.113  0.0181  0.0080  0.0239
  209POPC   C3B 2880   9.097   5.633   6.448 -0.0912  0.4931  0.2094
  209POPC   C4B 2881   9.301   5.713   6.855 -0.3199  0.0270 -0.3259
  210POPC   NC3 2882   3.642   3.779   4.591 -0.1732 -0.0659  0.2979
  210POPC   PO4 2883   3.290   4.052   4.667 -0.3614 -0.1225 -0.3591
  210POPC   GL1 2884   3.154   4.092   5.113  0.1559  0.0841 -0.0352
  210POPC   GL2 2885   2.897   4.284   5.021  0.2007 -0.1115 -0.1683
  210POPC   C1A 2886   3.023   4.167   5.557  0.1109  0.2826  0.0654
  210POPC   D2A 2887   3.025   4.510   5.892  0.1307 -0.4161 -0.0327
  210POPC   C3A 2888   3.420   4.633   6.262  0.0562  0.0368 -0.1823
  210POPC   C4A 2889   3.551   4.932   6.358  0.1977  0.0679 -0.1334
  210POPC   C1B 2890   2.594   4.103   5.300 -0.3987 -0.2024 -0.0310
  210POPC   C2B 2891   2.574   3.814   5.528  0.4074 -0.1972 -0.0049
  210POPC   C3B 2892   2.877   3.729   5.909 -0.0170  0.2490  0.0522
  210POPC   C4B 2893   2.784   3.802   6.319 -0.3928 -0.1737  0.4533
  211POPC   NC3 2894   6.043   0.806   3.926 -0.4316 -0.1762 -0.1129
  211POPC   PO4 2895   5.559   0.785   4.065  0.0836 -0.0615  0.0818
  211POPC   GL1 2896   5.388   0.633   4.480 -0.0097 -0.0203 -0.2867
  211POPC   GL2 2897   5.167   0.428   4.604  0.2368  0.0449 -0.0213
  211POPC   C1A 2898   5.392   0.753   4.964 -0.0645  0.0901 -0.1182
  211POPC   D2A 2899   5.415   0.666   5.368 -0.1000  0.1008 -0.1894
  211POPC   C3A 2900   5.153   0.848   5.704 -0.1371  0.4269  0.4207
  211POPC   C4A 2901   4.712   0.828   5.802 -0.0869  0.1887 -0.1503
  211POPC   C1B 2902   5.503   0.269   4.779  0.0312  0.2732  0.2104
  211POPC   C2B 2903   5.656   0.139   5.097 -0.0434  0.1565 -0.1778
  211POPC   C3B 2904   5.531  -0.004   5.519 -0.2469 -0.2314  0.0032
  211POPC   C4B 2905   5.498  -0.338   5.713 -0.3005 -0.1395  0.1244
  212POPC   NC3 2906   7.642   2.982   3.495 -0.2089  0.2992 -0.0498
  212POPC   PO4 2907   7.355   2.568   3.634 -0.0447  0.1306 -0.2341
  212POPC   GL1 2908   7.709   2.753   3.932  0.0327 -0.3257  0.0142
  212POPC   GL2 2909   7.974   2.481   3.993 -0.1901  0.0406 -0.2223
  212POPC   C1A 2910   7.581   2.800   4.322 -0.0034  0.1552  0.1542
  212POPC   D2A 2911   7.352   2.817   4.774  0.1236  0.0443 -0.2302
  212POPC   C3A 2912   7.559   3.037   5.137  0.2640 -0.0049 -0.0526
  212POPC   C4A 2913   8.104   2.900   5.275  0.2845 -0.2536  0.0507
  212POPC   C1B 2914   7.852   2.356   4.502 -0.5088 -0.1405 -0.0200
  212POPC   C2B 2915   7.829   2.617   4.931  0.0434 -0.2363 -0.2173
  212POPC   C3B 2916   7.556   2.543   5.272  0.1606  0.0200 -0.1223
  212POPC   C4B 2917   7.218   2.806   5.381 -0.2147  0.0225 -0.0265
  213POPC   NC3 2918   2.507   2.767   4.394 -0.0348 -0.2374 -0.0580
  213POPC   PO4 2919   2.176   2.819   4.653 -0.2046 -0.1886  0.2346
  213POPC   GL1 2920   2.091   2.628   5.021 -0.0906  0.2517 -0.1272
  213POPC   GL2 2921   2.183   2.906   5.169  0.0443  0.2600 -0.0548
  213POPC   C1A 2922   2.188   2.313   5.344 -0.0304  0.0434  0.2412
  213POPC   D2A 2923   1.905   2.145   5.723  0.0653  0.1265  0.0216
  213POPC   C3A 2924   1.551   1.799   5.641 -0.0478  0.1204 -0.4297
  213POPC   C4A 2925   1.161   1.831   5.539 -0.2965 -0.0820  0.1855
  213POPC   C1B 2926   2.078   2.999   5.590 -0.2005 -0.0434  0.2720
  213POPC   C2B 2927   2.087   3.159   5.959 -0.0810 -0.3530  0.0252
  213POPC   C3B 2928   2.028   3.026   6.279 -0.0748 -0.0772  0.0290
  213POPC   C4B 2929   2.247   2.749   6.487 -0.0036  0.2658  0.3363
  214POPC   NC3 2930   1.760   3.245   4.849  0.1844  0.2627  0.0367
  214POPC   PO4 2931   2.089   3.399   4.637 -0.0165 -0.0626  0.0765
  214POPC   GL1 2932   2.038   3.562   5.122  0.0595 -0.2957  0.0080
  214POPC   GL2 2933   2.123   3.918   5.067 -0.0894 -0.1239 -0.2707
  214POPC   C1A 2934   2.081   3.553   5.492  0.0899  0.0154  0.2293
  214POPC   D2A 2935   2.128   3.645   5.822  0.1012 -0.0773 -0.0949
  214POPC   C3A 2936   1.912   3.605   6.139  0.2815  0.1038  0.0114
  214POPC   C4A 2937   1.933   3.465   6.573 -0.1236  0.0448 -0.1406
  214POPC   C1B 2938   2.086   4.096   5.491  0.0421 -0.3739 -0.0793
  214POPC   C2B 2939   1.993   4.572   5.614 -0.1535 -0.3146  0.0228
  214POPC   C3B 2940   1.987   4.971   5.426 -0.2850 -0.0511  0.1050
  214POPC   C4B 2941   2.010   5.403   5.488  0.3551 -0.0999 -0.0561
  215POPC   NC3 2942   1.672   4.260   4.706 -0.1931  0.1843  0.0900
  215POPC   PO4 2943   1.283   4.493   4.778 -0.1707 -0.3538  0.1198
  215POPC   GL1 2944   1.371   4.766   5.093 -0.2840  0.0657 -0.0628
  215POPC   GL2 2945   1.501   5.038   5.027 -0.2198 -0.0223  0.2029
  215POPC   C1A 2946   1.509   4.861   5.475 -0.1555 -0.1047  0.1788
  215POPC   D2A 2947   1.626   4.813   5.869 -0.1364 -0.0562  0.1639
  215POPC   C3A 2948   1.405   5.003   6.069  0.0490  0.0539 -0.0051
  215POPC   C4A 2949   1.468   5.099   6.415 -0.1210 -0.0530 -0.0903
  215POPC   C1B 2950   1.528   5.333   5.292  0.0176  0.0219 -0.2200
  215POPC   C2B 2951   1.594   5.315   5.713 -0.0809  0.3414 -0.0516
  215POPC   C3B 2952   1.889   5.271   6.062 -0.0660  0.1693 -0.0183
  215POPC   C4B 2953   2.028   4.904   6.464 -0.0075  0.0757 -0.2187
  216POPC   NC3 2954   4.956   3.181   4.268 -0.1750  0.0890  0.2231
  216POPC   PO4 2955   4.958   3.631   4.382  0.2483  0.2178  0.0431
  216POPC   GL1 2956   5.064   3.518   4.823 -0.0342  0.2205  0.0409
  216POPC   GL2 2957   5.376   3.563   4.893 -0.2157  0.0341  0.2275
  216POPC   C1A 2958   5.000   3.509   5.219  0.1886 -0.1039 -0.0977
  216POPC   D2A 2959   4.986   3.316   5.626 -0.1927  0.2455  0.0262
  216POPC   C3A 2960   4.750   3.414   5.944  0.0736 -0.1752 -0.1912
  216POPC   C4A 2961   4.570   3.700   6.053 -0.2397  0.1324 -0.0248
  216POPC   C1B 2962   5.468   3.524   5.342  0.1259 -0.0800 -0.0557
  216POPC   C2B 2963   5.599   3.507   5.877  0.0304 -0.0543  0.0627
  216POPC   C3B 2964   5.544   3.309   6.309 -0.1472  0.0849  0.0932
  216POPC   C4B 2965   5.412   3.522   6.650  0.3508 -0.0163  0.2342
  217POPC   NC3 2966   4.714   7.632   4.302 -0.2059  0.3137  0.0058
  217POPC   PO4 2967   4.851   8.095   4.148  0.3162 -0.1556 -0.1626
  217POPC   GL1 2968   4.822   8.240   4.501  0.1118  0.0514 -0.1488
  217POPC   GL2 2969   4.839   8.037   4.667 -0.0807  0.1178 -0.2180
  217POPC   C1A 2970   4.612   8.657   4.583  0.2420  0.2778 -0.2939
  217POPC   D2A 2971   4.387   8.838   4.952  0.1512  0.0788  0.2093
  217POPC   C3A 2972   4.360   9.112   5.243 -0.4837 -0.1646  0.2418
  217POPC   C4A 2973   4.335   9.445   5.422  0.2005 -0.0462 -0.0236
  217POPC   C1B 2974   4.857   7.975   5.038  0.1141  0.1121  0.2693
  217POPC   C2B 2975   4.809   8.183   5.461 -0.2883  0.0008  0.0439
  217POPC   C3B 2976   4.464   8.279   5.710  0.0025  0.0289 -0.1482
  217POPC   C4B 2977   4.139   8.367   5.857 -0.2325  0.0809 -0.0530
  218POPC   NC3 2978   7.581   0.998   3.714 -0.0720  0.1697  0.0442
  218POPC   PO4 2979   7.209   0.778   3.845  0.1478  0.0640  0.1271
  218POPC   GL1 2980   7.283   1.063   4.192  0.0292 -0.1447  0.0333
  218POPC   GL2 2981   6.909   1.187   4.251  0.1398  0.2416 -0.0330
  218POPC   C1A 2982   7.265   1.425   4.547 -0.1699  0.0509  0.0136
  218POPC   D2A 2983   7.521   1.379   4.898  0.1366  0.0427 -0.1888
  218POPC   C3A 2984   7.731   1.764   5.056 -0.1384 -0.0769 -0.2682
  218POPC   C4A 2985   7.649   2.165   4.960 -0.1556  0.2558  0.0834
  218POPC   C1B 2986   6.777   0.996   4.564 -0.1368  0.0634 -0.1312
  218POPC   C2B 2987   6.852   0.954   5.030 -0.0855  0.3964 -0.0098
  218POPC   C3B 2988   6.627   1.236   5.240  0.0111  0.1458 -0.2126
  218POPC   C4B 2989   6.804   1.697   5.284  0.0827  0.0252 -0.1023
  219POPC   NC3 2990   1.532   6.696   4.723 -0.0643 -0.3515  0.0945
  219POPC   PO4 2991   2.026   6.795   4.718 -0.0299 -0.2230 -0.0456
  219POPC   GL1 2992   1.934   6.686   5.062 -0.1821 -0.2842 -0.1772
  219POPC   GL2 2993   2.051   7.021   5.188 -0.0639 -0.0001 -0.0597
  219POPC   C1A 2994   1.650   6.662   5.364 -0.1143  0.0269  0.0746
  219POPC   D2A 2995   1.588   6.717   5.761  0.3550  0.1685  0.0124
  219POPC   C3A 2996   2.018   6.892   6.018 -0.0616  0.2248 -0.3845
  219POPC   C4A 2997   2.050   7.161   6.231 -0.0711 -0.0068  0.3209
  219POPC   C1B 2998   2.052   6.835   5.531  0.2125 -0.2534 -0.1452
  219POPC   C2B 2999   1.932   6.397   5.776  0.2218  0.3706  0.3586
  219POPC   C3B 3000   1.647   6.229   6.067 -0.0769  0.1493 -0.0054
  219POPC   C4B 3001   1.316   5.986   6.229 -0.1793  0.1358  0.0267
  220POPC   NC3 3002   0.703   2.227   4.273  0.2271  0.2342 -0.4050
  220POPC   PO4 3003   1.066   2.245   4.433  0.1004 -0.0476  0.0732
  220POPC   GL1 3004   0.967   2.046   4.789  0.0468 -0.2002  0.1518
  220POPC   GL2 3005   1.029   2.158   5.095  0.0642  0.2710  0.0498
  220POPC   C1A 3006   0.460   2.134   4.919 -0.1469 -0.1760  0.0809
  220POPC   D2A 3007   0.204   2.041   5.261 -0.1106  0.0426  0.0812
  220POPC   C3A 3008   0.193   2.013   5.759 -0.0547  0.1715  0.0452
  220POPC   C4A 3009   0.366   2.188   6.163  0.0916  0.0299  0.0491
  220POPC   C1B 3010   0.760   2.583   5.101  0.0057  0.3445 -0.0828
  220POPC   C2B 3011   0.680   2.769   5.468  0.2798  0.0957 -0.2990
  220POPC   C3B 3012   0.396   2.719   5.777 -0.0586 -0.0363 -0.1130
  220POPC   C4B 3013   0.045   2.565   5.939 -0.2890  0.6128  0.0400
  221POPC   NC3 3014   5.769   9.422   3.968  0.1238  0.0864  0.1275
  221POPC   PO4 3015   5.966   9.590   4.266  0.3247 -0.0527  0.1885
  221POPC   GL1 3016   6.047   9.672   4.699 -0.0634  0.1079 -0.2121
  221POPC   GL2 3017   6.362   9.919   4.489  0.0269 -0.2075  0.0562
  221POPC   C1A 3018   6.104  10.000   4.896  0.3338  0.1476  0.1607
  221POPC   D2A 3019   5.941  10.296   5.213  0.1055 -0.0023  0.1167
  221POPC   C3A 3020   5.801  10.140   5.471  0.0461 -0.1489  0.3749
  221POPC   C4A 3021   6.144  10.253   5.751  0.2046 -0.1716 -0.0148
  221POPC   C1B 3022   6.578   9.884   4.979  0.0223 -0.0412  0.1207
  221POPC   C2B 3023   6.626   9.782   5.464 -0.0831  0.0666  0.0038
  221POPC   C3B 3024   6.921  10.000   5.687 -0.2228  0.0746  0.1987
  221POPC   C4B 3025   7.150  10.418   5.776 -0.0545 -0.1974  0.0224
  222POPC   NC3 3026   1.500   8.802   4.794 -0.0621 -0.1129 -0.0104
  222POPC   PO4 3027   1.438   8.394   4.788 -0.2545  0.0216  0.1368
  222POPC   GL1 3028   1.308   8.224   5.159 -0.0820  0.2535  0.0690
  222POPC   GL2 3029   1.469   7.939   5.259  0.0563 -0.0846  0.0780
  222POPC   C1A 3030   1.518   8.357   5.547  0.0115  0.2200 -0.1663
  222POPC   D2A 3031   1.808   8.585   5.887  0.0025  0.0625 -0.0171
  222POPC   C3A 3032   1.726   8.848   6.324 -0.3418  0.1444  0.0083
  222POPC   C4A 3033   1.274   9.073   6.278  0.1297 -0.2260  0.2520
  222POPC   C1B 3034   1.723   7.619   5.594  0.2651 -0.1841 -0.1967
  222POPC   C2B 3035   1.596   7.336   5.896  0.1139  0.0449  0.2092
  222POPC   C3B 3036   1.404   7.547   6.293 -0.0981 -0.2273  0.2147
  222POPC   C4B 3037   1.085   7.898   6.266 -0.2492  0.0192  0.3457
  223POPC   NC3 3038   0.953   1.569   4.089 -0.0631  0.0207 -0.0061
  223POPC   PO4 3039   0.955   1.295   4.399  0.1729  0.3333 -0.1264
  223POPC   GL1 3040   0.829   1.501   4.814 -0.2938  0.1003  0.0628
  223POPC   GL2 3041   0.965   1.337   5.012  0.1260  0.2987  0.2116
  223POPC   C1A 3042   0.720   1.761   5.239  0.0847  0.1606  0.0484
  223POPC   D2A 3043   0.716   1.607   5.704 -0.0264 -0.0253 -0.4737
  223POPC   C3A 3044   0.759   1.893   6.086  0.1128 -0.1519  0.1136
  223POPC   C4A 3045   0.880   2.079   6.491  0.0180 -0.1330 -0.0595
  223POPC   C1B 3046   1.156   1.326   5.367 -0.0876 -0.1641  0.0519
  223POPC   C2B 3047   1.195   1.286   5.893 -0.0031  0.0866 -0.0030
  223POPC   C3B 3048   1.365   1.103   6.247 -0.3773 -0.1863 -0.3949
  223POPC   C4B 3049   1.493   0.711   6.212 -0.1218 -0.2871  0.0265
  224POPC   NC3 3050   2.281   9.006   4.504  0.1726 -0.0194  0.1246
  224POPC   PO4 3051   1.905   9.084   4.489  0.0511 -0.3004  0.1451
  224POPC   GL1 3052   1.950   9.204   4.907  0.0553 -0.3043 -0.0731
  224POPC   GL2 3053   2.177   9.351   4.906  0.3211  0.0164  0.0875
  224POPC   C1A 3054   1.943   9.399   5.349 -0.4948 -0.2701  0.1759
  224POPC   D2A 3055   2.248   9.221   5.780 -0.1702  0.0151 -0.0851
  224POPC   C3A 3056   2.057   9.176   6.152  0.2639 -0.1378  0.0414
  224POPC   C4A 3057   1.802   9.351   6.413 -0.0039  0.0804  0.0053
  224POPC   C1B 3058   2.343   9.082   5.250  0.0196 -0.0538 -0.0739
  224POPC   C2B 3059   2.663   9.164   5.534 -0.1278  0.4009  0.2064
  224POPC   C3B 3060   3.043   9.259   5.755  0.0370 -0.2304  0.1595
  224POPC   C4B 3061   3.238   9.146   6.153  0.2280 -0.2987  0.0317
  225POPC   NC3 3062   8.289   4.391   3.990  0.2295 -0.0170 -0.0265
  225POPC   PO4 3063   8.151   4.012   4.154 -0.0992 -0.0964 -0.2184
  225POPC   GL1 3064   8.235   3.873   4.617  0.0022 -0.1729  0.0726
  225POPC   GL2 3065   8.499   3.948   4.837 -0.0451 -0.2249  0.0974
  225POPC   C1A 3066   8.395   3.457   4.694 -0.0080  0.3071 -0.3049
  225POPC   D2A 3067   8.166   3.096   4.740 -0.0765 -0.0990  0.0365
  225POPC   C3A 3068   7.744   3.127   4.662 -0.0166  0.1861  0.1972
  225POPC   C4A 3069   7.413   3.359   4.687 -0.2166 -0.2812 -0.0529
  225POPC   C1B 3070   8.809   3.966   5.344 -0.2339  0.0230  0.1003
  225POPC   C2B 3071   8.762   3.910   5.686  0.3944 -0.0781 -0.0789
  225POPC   C3B 3072   8.521   3.998   5.986 -0.0156  0.3796  0.2241
  225POPC   C4B 3073   8.633   3.902   6.378  0.1852 -0.0872 -0.5408
  226POPC   NC3 3074   1.275   7.323   4.602 -0.0713  0.0927  0.3216
  226POPC   PO4 3075   0.976   7.686   4.529 -0.0545 -0.0442  0.0183
  226POPC   GL1 3076   1.003   7.439   4.985 -0.2062  0.0765 -0.3207
  226POPC   GL2 3077   1.295   7.462   5.216  0.0916  0.0600 -0.0829
  226POPC   C1A 3078   0.794   7.532   5.372 -0.2547 -0.0198  0.4961
  226POPC   D2A 3079   0.519   7.429   5.661  0.0841  0.2489  0.3501
  226POPC   C3A 3080   0.203   7.246   5.452  0.1316  0.1080 -0.0306
  226POPC   C4A 3081  -0.165   6.976   5.506  0.2917 -0.1202 -0.0380
  226POPC   C1B 3082   1.222   7.427   5.593  0.1277  0.1710 -0.0204
  226POPC   C2B 3083   0.934   7.518   5.869 -0.4104 -0.1416 -0.1289
  226POPC   C3B 3084   0.971   7.307   6.280 -0.1176 -0.0562 -0.3682
  226POPC   C4B 3085   0.647   7.097   6.611  0.0696  0.1180  0.1407
  227POPC   NC3 3086   4.884   1.499   3.695  0.0748  0.1384 -0.2955
  227POPC   PO4 3087   4.998   1.867   3.644 -0.0764  0.1550  0.0633
  227POPC   GL1 3088   5.177   1.726   4.108  0.1675 -0.1096  0.3456
  227POPC   GL2 3089   5.084   1.815   4.407  0.1593  0.1435 -0.0605
  227POPC   C1A 3090   5.568   1.666   4.258  0.3127  0.1525  0.1159
  227POPC   D2A 3091   5.935   1.562   4.524  0.0068 -0.1031  0.0517
  227POPC   C3A 3092   5.887   1.538   5.036  0.5253 -0.0001 -0.0136
  227POPC   C4A 3093   5.904   1.401   5.582  0.1650 -0.4530  0.1073
  227POPC   C1B 3094   5.071   2.104   4.761  0.0875 -0.2318 -0.2462
  227POPC   C2B 3095   5.316   2.121   5.238  0.1932  0.1307 -0.2466
  227POPC   C3B 3096   5.453   2.228   5.615 -0.0790  0.1071 -0.1413
  227POPC   C4B 3097   5.574   2.268   6.090 -0.2516  0.0157  0.1580
  228POPC   NC3 3098   9.388   1.345   4.100  0.0535  0.0503  0.0981
  228POPC   PO4 3099   9.832   1.383   4.039  0.0154  0.1406 -0.0235
  228POPC   GL1 3100   9.906   1.363   4.378  0.0109 -0.1414  0.0152
  228POPC   GL2 3101  10.163   1.412   4.547  0.1832  0.3760 -0.0139
  228POPC   C1A 3102   9.798   1.213   4.821  0.1334  0.0912 -0.0879
  228POPC   D2A 3103   9.600   1.337   5.231 -0.0758 -0.3102 -0.2414
  228POPC   C3A 3104   9.464   1.769   5.366 -0.4428 -0.0282 -0.0091
  228POPC   C4A 3105   9.088   1.962   5.385  0.2455 -0.3173  0.3515
  228POPC   C1B 3106  10.094   1.646   4.898  0.1205  0.0520 -0.0847
  228POPC   C2B 3107   9.963   1.630   5.468 -0.0862  0.1890  0.1366
  228POPC   C3B 3108   9.639   1.537   5.746 -0.2486 -0.0764 -0.2302
  228POPC   C4B 3109   9.469   1.486   6.189  0.0710  0.1805 -0.2747
  229POPC   NC3 3110   9.454   3.060   3.662  0.2256  0.0383 -0.1731
  229POPC   PO4 3111   9.041   2.767   3.901  0.0241  0.0551  0.0786
  229POPC   GL1 3112   9.062   2.672   4.306  0.0776  0.1890  0.1172
  229POPC   GL2 3113   8.782   2.495   4.401  0.0689  0.2065  0.1446
  229POPC   C1A 3114   9.363   2.610   4.670 -0.1565  0.0393  0.1035
  229POPC   D2A 3115   9.545   2.818   4.989 -0.2015  0.0250 -0.0133
  229POPC   C3A 3116   9.451   2.870   5.424  0.2647 -0.0858 -0.1645
  229POPC   C4A 3117   9.288   3.195   5.723 -0.0254  0.0144 -0.1606
  229POPC   C1B 3118   8.916   2.531   4.918 -0.0001  0.0501 -0.1434
  229POPC   C2B 3119   9.135   2.491   5.301  0.0783 -0.0796  0.0175
  229POPC   C3B 3120   9.096   2.484   5.665  0.0691  0.1508  0.1256
  229POPC   C4B 3121   9.233   2.573   6.007  0.1357 -0.1083  0.2144
  230POPC   NC3 3122   8.556   9.119   4.276  0.0499  0.1642 -0.2194
  230POPC   PO4 3123   8.869   8.918   4.597 -0.3496 -0.0795  0.0152
  230POPC   GL1 3124   8.949   9.008   5.006 -0.2441 -0.3411 -0.0125
  230POPC   GL2 3125   9.160   8.844   5.025 -0.4226  0.0032 -0.0647
  230POPC   C1A 3126   9.014   9.180   5.446  0.0917 -0.0125  0.2044
  230POPC   D2A 3127   8.658   9.258   5.728  0.3858 -0.2923  0.4879
  230POPC   C3A 3128   8.822   9.450   6.008 -0.2276 -0.1041  0.1145
  230POPC   C4A 3129   8.962   9.605   6.383  0.1704  0.2592 -0.0877
  230POPC   C1B 3130   9.115   8.656   5.388  0.1198  0.0814  0.0080
  230POPC   C2B 3131   8.896   8.263   5.596 -0.0147  0.0088  0.1480
  230POPC   C3B 3132   8.527   8.254   5.902  0.1363 -0.1526  0.0428
  230POPC   C4B 3133   8.348   8.108   6.245  0.0707  0.0771  0.0235
  231POPC   NC3 3134   4.108   4.741   4.201  0.1592 -0.0944  0.1080
  231POPC   PO4 3135   4.203   4.331   4.497  0.1238 -0.0228 -0.2096
  231POPC   GL1 3136   4.137   4.246   4.911 -0.0773 -0.1054  0.0206
  231POPC   GL2 3137   3.922   3.960   5.034  0.1271  0.1255 -0.0836
  231POPC   C1A 3138   3.918   4.418   5.239  0.0361  0.2154 -0.0449
  231POPC   D2A 3139   3.948   4.358   5.691 -0.3222 -0.0508 -0.0680
  231POPC   C3A 3140   3.646   4.184   5.942 -0.1746  0.0779  0.0499
  231POPC   C4A 3141   3.603   3.993   6.328  0.3056  0.4051  0.0673
  231POPC   C1B 3142   4.044   3.932   5.454 -0.1502  0.0505 -0.1036
  231POPC   C2B 3143   3.977   3.832   5.829 -0.0076 -0.0401 -0.3800
  231POPC   C3B 3144   3.572   3.674   5.944 -0.1041 -0.0292 -0.0622
  231POPC   C4B 3145   3.303   3.598   6.212 -0.0222 -0.1239 -0.0365
  232POPC   NC3 3146   0.064   3.513   4.634 -0.2066 -0.0419 -0.0321
  232POPC   PO4 3147   0.258   3.977   4.591  0.0964  0.1052 -0.0931
  232POPC   GL1 3148   0.416   4.106   5.071  0.0580 -0.0685 -0.2629
  232POPC   GL2 3149   0.462   4.409   5.140 -0.2878  0.3639 -0.1949
  232POPC   C1A 3150   0.217   4.012   5.445  0.2425  0.2241 -0.1538
  232POPC   D2A 3151   0.012   4.047   5.735  0.0568 -0.0927 -0.1153
  232POPC   C3A 3152   0.137   3.926   6.212 -0.1120  0.0567 -0.3447
  232POPC   C4A 3153   0.361   4.026   6.749 -0.1147 -0.1312 -0.2744
  232POPC   C1B 3154   0.524   4.343   5.579 -0.1602 -0.3134  0.4565
  232POPC   C2B 3155   0.448   4.266   5.907  0.0264  0.2195  0.1869
  232POPC   C3B 3156   0.365   4.334   6.323 -0.0853 -0.2084  0.2445
  232POPC   C4B 3157   0.109   4.524   6.617  0.1325 -0.1779  0.2107
  233POPC   NC3 3158   8.517   1.466   3.455 -0.5410  0.0038  0.1025
  233POPC   PO4 3159   8.291   1.635   3.667  0.1701  0.0271 -0.0453
  233POPC   GL1 3160   8.231   1.569   3.986 -0.1965 -0.2164  0.1540
  233POPC   GL2 3161   7.941   1.391   4.040 -0.0281 -0.1853 -0.0704
  233POPC   C1A 3162   8.228   1.671   4.379 -0.0130  0.1115 -0.1358
  233POPC   D2A 3163   8.488   1.655   4.774  0.2670  0.1990  0.1525
  233POPC   C3A 3164   8.766   1.927   4.898  0.2545  0.1940 -0.0767
  233POPC   C4A 3165   9.072   2.089   4.643 -0.0306 -0.2173  0.1705
  233POPC   C1B 3166   7.806   1.330   4.412 -0.0526  0.0206 -0.2262
  233POPC   C2B 3167   7.644   0.958   4.560 -0.3455 -0.1056 -0.0618
  233POPC   C3B 3168   7.642   0.559   4.697 -0.1218 -0.1756 -0.3338
  233POPC   C4B 3169   7.540   0.217   4.631 -0.0725  0.0073  0.1989
  234POPC   NC3 3170   7.647   4.444   4.114  0.1314 -0.0024  0.0825
  234POPC   PO4 3171   7.431   4.871   4.226  0.2354  0.1062 -0.3262
  234POPC   GL1 3172   7.517   4.557   4.595 -0.4180  0.0476 -0.0208
  234POPC   GL2 3173   7.522   4.173   4.664 -0.1264 -0.1335  0.3516
  234POPC   C1A 3174   7.437   4.625   5.037  0.3715 -0.0480 -0.0883
  234POPC   D2A 3175   7.504   4.933   5.437 -0.1073  0.2772  0.1205
  234POPC   C3A 3176   7.188   5.170   5.800  0.0010 -0.0815  0.0525
  234POPC   C4A 3177   7.202   5.135   6.237 -0.2149 -0.1419  0.0870
  234POPC   C1B 3178   7.544   4.161   5.159  0.1044  0.0194 -0.1450
  234POPC   C2B 3179   7.694   3.867   5.472  0.0221 -0.2608  0.2454
  234POPC   C3B 3180   7.475   3.720   5.934  0.0469  0.1378 -0.2623
  234POPC   C4B 3181   7.433   3.816   6.396  0.1234  0.0169 -0.0362
  235POPC   NC3 3182   4.501   0.062   4.053 -0.0185  0.0456  0.1250
  235POPC   PO4 3183   4.691  -0.308   4.016  0.3097  0.0963  0.0648
  235POPC   GL1 3184   4.784  -0.068   4.449 -0.2040  0.3419 -0.0747
  235POPC   GL2 3185   5.121  -0.078   4.535 -0.2802 -0.0335 -0.0648
  235POPC   C1A 3186   4.708   0.134   4.811 -0.1658  0.2457  0.2851
  235POPC   D2A 3187   4.616   0.076   5.172 -0.1569  0.0641 -0.0295
  235POPC   C3A 3188   4.671   0.385   5.452 -0.0855 -0.4567  0.0118
  235POPC   C4A 3189   4.310   0.577   5.729 -0.0435  0.0243 -0.2517
  235POPC   C1B 3190   5.176  -0.055   4.891  0.1465  0.2455  0.2883
  235POPC   C2B 3191   5.334  -0.300   5.189  0.2153  0.1418 -0.0709
  235POPC   C3B 3192   5.663  -0.661   5.312 -0.0055 -0.2874 -0.1893
  235POPC   C4B 3193   5.733  -1.049   5.245  0.0999 -0.1023  0.1064
  236POPC   NC3 3194   1.881   9.593   4.509  0.0773 -0.0788 -0.1451
  236POPC   PO4 3195   1.536   9.473   4.773  0.0622  0.0678 -0.1547
  236POPC   GL1 3196   1.437   9.494   5.201 -0.0137 -0.0555 -0.1616
  236POPC   GL2 3197   1.210   9.313   5.253 -0.0111 -0.3897 -0.0588
  236POPC   C1A 3198   1.636   9.807   5.453 -0.0191 -0.0551  0.0638
  236POPC   D2A 3199   1.401  10.143   5.681  0.1425  0.1112  0.1595
  236POPC   C3A 3200   1.290  10.004   6.013  0.3555 -0.0620  0.1879
  236POPC   C4A 3201   1.528   9.811   6.269  0.1871 -0.0499  0.0497
  236POPC   C1B 3202   1.214   9.597   5.628  0.0025 -0.1304 -0.1522
  236POPC   C2B 3203   1.142   9.510   6.118 -0.1535  0.1213  0.1530
  236POPC   C3B 3204   1.288   9.507   6.570 -0.1745 -0.1380 -0.0654
  236POPC   C4B 3205   1.591   9.728   6.968  0.2743 -0.0019  0.0237
  237POPC   NC3 3206   6.052   6.245   4.459  0.0727 -0.0772  0.3258
  237POPC   PO4 3207   6.256   5.845   4.584  0.1023  0.1506  0.1585
  237POPC   GL1 3208   6.207   6.151   5.067  0.2571  0.2953 -0.1919
  237POPC   GL2 3209   6.079   6.001   5.424  0.2079 -0.1768  0.0084
  237POPC   C1A 3210   6.121   6.498   5.399 -0.0591 -0.3155 -0.1639
  237POPC   D2A 3211   6.050   6.332   5.801  0.1197 -0.0662  0.0837
  237POPC   C3A 3212   6.363   6.070   5.983  0.1642 -0.1418  0.0835
  237POPC   C4A 3213   6.812   5.903   6.002  0.2929 -0.0680  0.0958
  237POPC   C1B 3214   6.426   5.734   5.653 -0.0520 -0.0938  0.2549
  237POPC   C2B 3215   6.816   5.473   5.799 -0.0496 -0.1166  0.0573
  237POPC   C3B 3216   6.691   5.095   6.029  0.0119  0.0997 -0.3097
  237POPC   C4B 3217   6.582   4.849   6.383 -0.0623 -0.0612  0.1079
  238POPC   NC3 3218   6.269   3.984   4.646  0.1002 -0.2805 -0.0423
  238POPC   PO4 3219   6.085   4.325   4.826  0.1278 -0.3000  0.0234
  238POPC   GL1 3220   5.884   4.352   5.176 -0.3854  0.0329 -0.0586
  238POPC   GL2 3221   6.124   4.465   5.339  0.0572  0.1639 -0.2106
  238POPC   C1A 3222   5.756   3.989   5.434 -0.0267 -0.0015 -0.5713
  238POPC   D2A 3223   5.744   4.044   5.880 -0.0376  0.1278  0.3152
  238POPC   C3A 3224   5.760   3.778   6.326 -0.1916 -0.1662 -0.1360
  238POPC   C4A 3225   6.030   3.594   6.631 -0.2993 -0.1342 -0.2747
  238POPC   C1B 3226   6.021   4.480   5.770 -0.2386  0.1217  0.1372
  238POPC   C2B 3227   5.648   4.682   6.101  0.0676 -0.2380 -0.0974
  238POPC   C3B 3228   5.261   4.641   6.292  0.0490  0.2068 -0.1158
  238POPC   C4B 3229   4.965   4.476   6.628  0.1160  0.1188  0.4178
  239POPC   NC3 3230   3.102   0.370   4.384 -0.0442 -0.0173  0.1081
  239POPC   PO4 3231   3.289  -0.059   4.305  0.0445  0.1785 -0.1142
  239POPC   GL1 3232   3.429   0.240   4.747 -0.0758 -0.0584  0.0016
  239POPC   GL2 3233   3.751   0.260   4.622 -0.0856 -0.0706 -0.0495
  239POPC   C1A 3234   3.263   0.447   5.135 -0.2175  0.0531 -0.0771
  239POPC   D2A 3235   3.086   0.610   5.529 -0.1090  0.0340  0.1374
  239POPC   C3A 3236   3.370   0.837   5.809  0.3091  0.3060  0.2654
  239POPC   C4A 3237   3.763   0.842   6.119  0.3894 -0.2907 -0.1069
  239POPC   C1B 3238   3.746   0.350   5.054  0.1402  0.1981 -0.2092
  239POPC   C2B 3239   3.662   0.483   5.541  0.0342  0.0605  0.3192
  239POPC   C3B 3240   3.706   0.328   5.971  0.0784  0.0364  0.0799
  239POPC   C4B 3241   3.867   0.075   6.213 -0.1194  0.1270 -0.0769
  240POPC   NC3 3242   4.318   5.196   4.541 -0.1967 -0.2102  0.1256
  240POPC   PO4 3243   4.028   5.204   4.349  0.0120 -0.0655 -0.2724
  240POPC   GL1 3244   3.859   5.324   4.820  0.3227  0.3746 -0.2876
  240POPC   GL2 3245   4.098   5.574   4.782 -0.0827 -0.0213 -0.2700
  240POPC   C1A 3246   3.695   5.486   5.114  0.2233  0.1884  0.0849
  240POPC   D2A 3247   3.432   5.670   5.303  0.0795  0.1305 -0.0415
  240POPC   C3A 3248   3.442   5.326   5.571 -0.0370  0.1845 -0.1455
  240POPC   C4A 3249   3.409   4.978   5.871  0.0010  0.2873  0.0149
  240POPC   C1B 3250   4.031   5.840   5.060  0.0669 -0.3259 -0.1988
  240POPC   C2B 3251   3.901   5.998   5.503 -0.2685  0.0105 -0.1587
  240POPC   C3B 3252   3.767   6.187   5.897  0.1523 -0.0503 -0.2552
  240POPC   C4B 3253   3.573   5.996   6.287 -0.0696 -0.3349 -0.0134
  241POPC   NC3 3254   5.045   0.803   4.130  0.5159 -0.3247  0.6463
  241POPC   PO4 3255   4.641   0.532   4.336  0.4174 -0.0309 -0.2115
  241POPC   GL1 3256   4.663   0.646   4.726  0.2399 -0.0049 -0.0785
  241POPC   GL2 3257   4.457   0.691   4.970 -0.0506 -0.0349 -0.1296
  241POPC   C1A 3258   4.932   0.598   5.027 -0.0094 -0.4609  0.1252
  241POPC   D2A 3259   5.176   0.285   5.243  0.2291 -0.0280 -0.4086
  241POPC   C3A 3260   5.045  -0.025   5.495 -0.1340 -0.1879 -0.1066
  241POPC   C4A 3261   5.127  -0.155   5.882  0.0968  0.0204  0.3481
  241POPC   C1B 3262   4.537   0.922   5.349  0.2195  0.3229  0.0523
  241POPC   C2B 3263   4.823   1.298   5.608  0.2060  0.0450  0.2882
  241POPC   C3B 3264   4.809   1.660   5.929 -0.0435  0.2059 -0.1019
  241POPC   C4B 3265   5.197   1.729   6.123  0.1476  0.0577  0.0052
  242POPC   NC3 3266   3.005   5.482   4.091  0.2812 -0.0045 -0.1279
  242POPC   PO4 3267   2.938   5.214   4.546  0.2592  0.0181 -0.1451
  242POPC   GL1 3268   2.770   5.020   5.010 -0.0103 -0.2781  0.2559
  242POPC   GL2 3269   2.384   5.126   5.169  0.2928 -0.1460  0.0502
  242POPC   C1A 3270   2.981   4.708   5.424  0.2887  0.2641 -0.1325
  242POPC   D2A 3271   3.406   4.461   5.547  0.2118  0.1063 -0.0438
  242POPC   C3A 3272   3.572   4.047   5.435  0.2695 -0.2035 -0.0711
  242POPC   C4A 3273   3.297   3.675   5.557  0.1649 -0.0221  0.2322
  242POPC   C1B 3274   2.523   5.005   5.524 -0.0912  0.0870  0.0031
  242POPC   C2B 3275   2.831   5.097   5.742  0.0089  0.1527 -0.0624
  242POPC   C3B 3276   3.129   5.414   5.977  0.2210  0.5185  0.0243
  242POPC   C4B 3277   3.383   5.745   5.909  0.1602  0.2483  0.2165
  243POPC   NC3 3278   0.249   2.186   3.801  0.0819 -0.0791 -0.3213
  243POPC   PO4 3279   0.296   2.468   4.135  0.2231  0.2112 -0.0043
  243POPC   GL1 3280   0.396   2.502   4.590  0.1878  0.0195  0.3635
  243POPC   GL2 3281   0.287   2.780   4.816  0.5379 -0.1421  0.2014
  243POPC   C1A 3282   0.036   2.366   4.909  0.0608 -0.1404 -0.1452
  243POPC   D2A 3283  -0.342   2.163   5.020 -0.0199  0.1513 -0.1581
  243POPC   C3A 3284  -0.297   1.769   4.913  0.2387 -0.1141  0.3130
  243POPC   C4A 3285  -0.357   1.338   4.752 -0.0172  0.1544 -0.0427
  243POPC   C1B 3286   0.286   2.584   5.275 -0.1537  0.2664 -0.2648
  243POPC   C2B 3287   0.635   2.230   5.520  0.2581  0.0443  0.1521
  243POPC   C3B 3288   0.938   2.337   5.797  0.0311  0.0871 -0.1178
  243POPC   C4B 3289   1.178   2.522   6.217 -0.4699  0.1972  0.0612
  244POPC   NC3 3290   1.116   8.645   4.399 -0.1877 -0.0104 -0.1802
  244POPC   PO4 3291   0.878   8.944   4.564 -0.0584 -0.0947 -0.4205
  244POPC   GL1 3292   0.811   8.972   4.958  0.1656 -0.1274 -0.2036
  244POPC   GL2 3293   1.098   8.773   5.168 -0.0846 -0.1416  0.2211
  244POPC   C1A 3294   0.757   9.127   5.359  0.0649 -0.0451 -0.2677
  244POPC   D2A 3295   0.534   9.341   5.749  0.2273 -0.2208 -0.0352
  244POPC   C3A 3296   0.476   9.538   6.120  0.1968 -0.0725  0.1713
  244POPC   C4A 3297   0.519   9.654   6.549  0.0561  0.3371 -0.0006
  244POPC   C1B 3298   1.357   8.832   5.495  0.0138  0.1328  0.1336
  244POPC   C2B 3299   1.345   8.732   5.925 -0.1372  0.2592 -0.0300
  244POPC   C3B 3300   1.244   8.410   6.348  0.2006 -0.2919  0.1051
  244POPC   C4B 3301   0.984   8.197   6.703 -0.0063 -0.0720 -0.0548
  245POPC   NC3 3302   1.354   3.310   4.565 -0.0999  0.1820 -0.1701
  245POPC   PO4 3303   1.003   3.278   4.405  0.2547 -0.1177  0.3088
  245POPC   GL1 3304   0.900   3.303   4.807 -0.2634 -0.2109 -0.0313
  245POPC   GL2 3305   1.025   3.555   4.997  0.1952  0.0179  0.1043
  245POPC   C1A 3306   0.575   3.070   5.110 -0.0604  0.2464 -0.1347
  245POPC   D2A 3307   0.172   3.092   5.319  0.0158 -0.0425 -0.1485
  245POPC   C3A 3308   0.075   3.116   5.762  0.5270  0.3208 -0.1080
  245POPC   C4A 3309   0.286   3.170   6.166  0.2862  0.0710  0.1003
  245POPC   C1B 3310   1.300   3.599   5.180 -0.0783  0.0904 -0.2597
  245POPC   C2B 3311   1.225   3.888   5.583  0.1664 -0.1786  0.0547
  245POPC   C3B 3312   0.986   4.145   5.882 -0.0793 -0.2230 -0.1605
  245POPC   C4B 3313   0.800   4.532   6.126 -0.2035 -0.0875  0.0729
  246POPC   NC3 3314   9.614   6.504   3.877  0.2281  0.0335 -0.1297
  246POPC   PO4 3315   9.861   6.307   4.155  0.0683 -0.1338  0.1058
  246POPC   GL1 3316  10.080   6.236   4.567 -0.0125  0.0864  0.1434
  246POPC   GL2 3317  10.036   5.866   4.706 -0.1035 -0.1890  0.3948
  246POPC   C1A 3318   9.926   6.366   5.005  0.0017  0.0163  0.1857
  246POPC   D2A 3319   9.902   6.742   5.220  0.1178 -0.1614  0.2404
  246POPC   C3A 3320   9.895   6.609   5.646  0.0095 -0.1873 -0.1690
  246POPC   C4A 3321   9.842   6.468   6.016 -0.3119  0.4197  0.0910
  246POPC   C1B 3322   9.972   5.770   5.147 -0.1381  0.0045 -0.1499
  246POPC   C2B 3323  10.052   5.980   5.553  0.2225  0.0078 -0.0777
  246POPC   C3B 3324  10.209   6.105   6.015 -0.5060 -0.1418  0.2336
  246POPC   C4B 3325  10.530   5.950   6.290  0.3678 -0.0331 -0.2098
  247POPC   NC3 3326   0.729   3.921   4.518 -0.0274 -0.1058  0.0131
  247POPC   PO4 3327   1.209   4.005   4.606  0.1779  0.2216  0.0042
  247POPC   GL1 3328   1.324   4.081   5.036  0.1856  0.1248  0.2198
  247POPC   GL2 3329   1.186   4.292   5.226 -0.1669  0.1746  0.1046
  247POPC   C1A 3330   1.669   3.901   5.279 -0.0331  0.1791 -0.0413
  247POPC   D2A 3331   1.628   3.666   5.711  0.0357 -0.0971 -0.2296
  247POPC   C3A 3332   1.488   3.875   6.069  0.1886 -0.0189  0.3310
  247POPC   C4A 3333   1.304   4.178   6.421 -0.4222  0.0744  0.1022
  247POPC   C1B 3334   0.878   4.118   5.322  0.0502 -0.3101 -0.0407
  247POPC   C2B 3335   0.716   3.864   5.574  0.2124 -0.0946  0.0763
  247POPC   C3B 3336   0.494   3.661   5.942  0.0054 -0.5734 -0.1198
  247POPC   C4B 3337   0.484   3.612   6.409  0.2226  0.1049  0.0569
  248POPC   NC3 3338   4.533   3.949   4.458 -0.2067 -0.3463 -0.3132
  248POPC   PO4 3339   4.180   3.733   4.602 -0.0498  0.2344  0.0287
  248POPC   GL1 3340   4.482   3.879   5.002 -0.1808 -0.1563 -0.0460
  248POPC   GL2 3341   4.411   3.526   5.178  0.2062 -0.1787  0.0409
  248POPC   C1A 3342   4.769   4.083   5.265 -0.2930  0.0295 -0.0629
  248POPC   D2A 3343   4.947   4.483   5.434  0.0031 -0.2876  0.1281
  248POPC   C3A 3344   5.254   4.722   5.295 -0.1078 -0.3985 -0.3863
  248POPC   C4A 3345   5.411   5.128   5.368 -0.2376 -0.2206  0.2058
  248POPC   C1B 3346   4.594   3.716   5.532  0.2712 -0.0914 -0.1948
  248POPC   C2B 3347   4.806   4.124   5.806  0.0514  0.0963 -0.0485
  248POPC   C3B 3348   5.078   4.158   6.223  0.1036 -0.4486  0.0850
  248POPC   C4B 3349   5.252   3.961   6.581  0.0831 -0.1369 -0.0103
  249POPC   NC3 3350   5.522   8.903   4.693 -0.3014  0.0903  0.1153
  249POPC   PO4 3351   5.802   8.608   4.538 -0.0729 -0.0515  0.1171
  249POPC   GL1 3352   6.121   8.823   4.758  0.1485 -0.3361 -0.0404
  249POPC   GL2 3353   6.007   9.170   4.719  0.3725 -0.1151 -0.2223
  249POPC   C1A 3354   6.237   9.035   5.111 -0.0941  0.2492  0.1335
  249POPC   D2A 3355   6.352   9.084   5.520 -0.2407 -0.1838  0.0646
  249POPC   C3A 3356   6.371   9.384   5.931 -0.0184  0.0330  0.2211
  249POPC   C4A 3357   6.543   9.604   6.367  0.0084 -0.0646 -0.1765
  249POPC   C1B 3358   5.905   9.406   5.113  0.1494  0.2007  0.1391
  249POPC   C2B 3359   5.972   9.342   5.591 -0.1471 -0.1601  0.2983
  249POPC   C3B 3360   5.916   9.205   6.078  0.3297  0.0367 -0.2352
  249POPC   C4B 3361   6.057   9.112   6.436  0.1417  0.2212 -0.0437
  250POPC   NC3 3362   3.788   6.484   4.287  0.0173 -0.1698 -0.4210
  250POPC   PO4 3363   3.589   6.132   4.376 -0.3709  0.1558  0.0577
  250POPC   GL1 3364   3.906   6.306   4.777  0.3481  0.0720  0.1286
  250POPC   GL2 3365   3.791   6.665   4.750  0.0724 -0.1869  0.3567
  250POPC   C1A 3366   3.787   6.462   5.220  0.1743  0.1741 -0.0501
  250POPC   D2A 3367   3.634   6.774   5.540 -0.0718  0.0241 -0.0177
  250POPC   C3A 3368   3.464   6.636   5.778  0.1923  0.2461 -0.0459
  250POPC   C4A 3369   3.246   6.375   6.135  0.3144  0.0079  0.0578
  250POPC   C1B 3370   4.089   6.788   5.065 -0.2575 -0.0383 -0.1142
  250POPC   C2B 3371   4.180   7.056   5.426 -0.1973  0.1579 -0.2424
  250POPC   C3B 3372   4.390   7.259   5.799  0.0055  0.2290  0.0119
  250POPC   C4B 3373   4.499   7.198   6.251  0.1776 -0.4004 -0.3341
  251POPC   NC3 3374   4.663   6.573   4.049  0.2822 -0.5921 -0.1193
  251POPC   PO4 3375   4.344   6.833   4.210 -0.0175  0.0027 -0.2466
  251POPC   GL1 3376   4.430   6.729   4.655 -0.2830 -0.2212 -0.0570
  251POPC   GL2 3377   4.542   6.925   4.778 -0.3391 -0.1237  0.2337
  251POPC   C1A 3378   4.390   6.386   4.922 -0.0167 -0.1385 -0.0602
  251POPC   D2A 3379   4.239   6.330   5.386  0.5156  0.0516 -0.2394
  251POPC   C3A 3380   4.099   6.562   5.648  0.0644 -0.1531 -0.0844
  251POPC   C4A 3381   3.963   6.911   5.879 -0.0994 -0.2660  0.4860
  251POPC   C1B 3382   4.584   6.825   5.115 -0.1883 -0.1045  0.0589
  251POPC   C2B 3383   4.603   6.837   5.607 -0.0555  0.0065  0.1194
  251POPC   C3B 3384   4.806   6.811   5.995 -0.4804 -0.2581  0.4320
  251POPC   C4B 3385   5.069   6.517   6.248 -0.0577 -0.0904 -0.1663
  252POPC   NC3 3386   8.481   4.348   4.559 -0.0680  0.0115 -0.2117
  252POPC   PO4 3387   8.052   4.466   4.415 -0.2041 -0.0677 -0.1987
  252POPC   GL1 3388   8.008   4.291   4.811  0.0153  0.2501 -0.1467
  252POPC   GL2 3389   7.912   4.487   5.019  0.2578 -0.0381 -0.1030
  252POPC   C1A 3390   8.069   3.946   5.085 -0.2505 -0.0570 -0.0199
  252POPC   D2A 3391   8.244   3.940   5.474 -0.1053  0.1209  0.3936
  252POPC   C3A 3392   7.995   3.896   5.949 -0.0592 -0.1614  0.1473
  252POPC   C4A 3393   7.627   4.157   6.116 -0.2957  0.0848 -0.0694
  252POPC   C1B 3394   7.942   4.375   5.411  0.2584  0.3593  0.1221
  252POPC   C2B 3395   8.171   4.361   5.866 -0.4834 -0.1221 -0.1010
  252POPC   C3B 3396   7.942   4.562   6.264  0.0217  0.0682  0.1397
  252POPC   C4B 3397   7.477   4.720   6.217 -0.0656 -0.2719 -0.3937
  253POPC   NC3 3398   5.660   3.637   4.060  0.0178 -0.2480 -0.0528
  253POPC   PO4 3399   5.922   3.259   4.094 -0.3594 -0.1118 -0.2996
  253POPC   GL1 3400   5.730   2.912   4.308 -0.0482  0.0152 -0.0398
  253POPC   GL2 3401   5.881   3.117   4.605  0.0279  0.3919  0.2539
  253POPC   C1A 3402   5.796   2.611   4.546 -0.3749 -0.0879  0.2651
  253POPC   D2A 3403   5.578   2.358   4.848  0.4044 -0.2406  0.1303
  253POPC   C3A 3404   5.516   1.880   4.817  0.1900 -0.0149 -0.1008
  253POPC   C4A 3405   5.452   1.428   4.776 -0.3836  0.1030  0.0047
  253POPC   C1B 3406   5.484   2.972   4.868 -0.1071 -0.2121 -0.1582
  253POPC   C2B 3407   5.242   3.077   5.218  0.2437 -0.1590  0.1617
  253POPC   C3B 3408   4.952   2.872   5.488  0.2029 -0.0259  0.0178
  253POPC   C4B 3409   4.612   2.673   5.573 -0.0469  0.0307 -0.3523
  254POPC   NC3 3410   6.339   9.161   4.294  0.4087 -0.2547  0.0427
  254POPC   PO4 3411   6.735   9.013   4.002  0.0499  0.0130  0.1242
  254POPC   GL1 3412   6.935   8.737   4.332  0.0740  0.0012 -0.0991
  254POPC   GL2 3413   7.186   8.448   4.495 -0.0009 -0.3644  0.0101
  254POPC   C1A 3414   7.115   8.827   4.733 -0.1903  0.0910 -0.0493
  254POPC   D2A 3415   7.213   8.949   5.177 -0.0377  0.0440 -0.2078
  254POPC   C3A 3416   7.377   9.258   5.371 -0.0755  0.1262 -0.0418
  254POPC   C4A 3417   7.734   9.289   5.648  0.2035  0.2453  0.0781
  254POPC   C1B 3418   7.108   8.343   4.870 -0.2028  0.1994  0.2432
  254POPC   C2B 3419   7.089   8.417   5.309 -0.2679  0.1750 -0.0678
  254POPC   C3B 3420   7.376   8.662   5.556  0.3665 -0.0463 -0.2297
  254POPC   C4B 3421   7.699   8.883   5.868 -0.0567  0.0056 -0.2717
  255POPC   NC3 3422   6.907   2.788   3.548  0.0758 -0.1963  0.0897
  255POPC   PO4 3423   6.804   2.959   3.969 -0.1263 -0.0853  0.0970
  255POPC   GL1 3424   6.743   2.847   4.450 -0.3960  0.2161  0.1484
  255POPC   GL2 3425   6.940   3.008   4.535 -0.2410 -0.0782 -0.2657
  255POPC   C1A 3426   6.331   2.904   4.719  0.3306 -0.1502  0.1313
  255POPC   D2A 3427   5.947   2.874   5.041  0.2997 -0.1365  0.0305
  255POPC   C3A 3428   5.735   3.069   5.439 -0.0427 -0.3268 -0.0930
  255POPC   C4A 3429   5.427   3.076   5.667  0.1260 -0.2800  0.1826
  255POPC   C1B 3430   6.983   3.087   4.950 -0.3463  0.1300  0.1091
  255POPC   C2B 3431   7.042   3.228   5.383 -0.2000 -0.2607 -0.0907
  255POPC   C3B 3432   7.293   3.194   5.799 -0.0952 -0.2693  0.3745
  255POPC   C4B 3433   7.470   3.154   6.254  0.1012 -0.0318  0.2094
  256POPC   NC3 3434   3.289   2.881   4.163 -0.2157 -0.0515 -0.0576
  256POPC   PO4 3435   2.979   2.630   4.251 -0.1224  0.4135 -0.1052
  256POPC   GL1 3436   2.802   2.519   4.729  0.1499  0.6683  0.0957
  256POPC   GL2 3437   2.566   2.679   4.901 -0.3915  0.1512 -0.1669
  256POPC   C1A 3438   2.809   2.258   5.008 -0.2172  0.1179  0.2775
  256POPC   D2A 3439   2.858   2.227   5.521 -0.0802 -0.0332  0.1389
  256POPC   C3A 3440   2.956   2.420   5.895  0.1110 -0.0063 -0.4760
  256POPC   C4A 3441   2.703   2.503   6.247  0.1575  0.0182 -0.2511
  256POPC   C1B 3442   2.751   2.873   5.280  0.2849  0.1384  0.0767
  256POPC   C2B 3443   2.544   2.744   5.671  0.1846  0.1427 -0.0149
  256POPC   C3B 3444   2.502   2.944   6.080 -0.0366 -0.1319 -0.1469
  256POPC   C4B 3445   2.788   2.935   6.555 -0.0061 -0.1954  0.1029
  257POPC   NC3 3446   1.322   5.365   4.269 -0.2392  0.4507  0.1252
  257POPC   PO4 3447   1.093   5.409   4.531  0.0342 -0.1164  0.1394
  257POPC   GL1 3448   1.045   5.405   4.971 -0.4257  0.0686 -0.1425
  257POPC   GL2 3449   1.068   5.733   5.096  0.0545 -0.3647  0.0897
  257POPC   C1A 3450   0.655   5.526   5.268  0.1547  0.1647  0.2584
  257POPC   D2A 3451   0.385   5.483   5.583 -0.1100  0.1337  0.2076
  257POPC   C3A 3452  -0.079   5.328   5.606  0.0214  0.1432 -0.0398
  257POPC   C4A 3453  -0.196   4.899   5.698 -0.0691 -0.0329 -0.2636
  257POPC   C1B 3454   1.257   5.843   5.434 -0.0492  0.2281 -0.1217
  257POPC   C2B 3455   1.567   5.828   5.785  0.1161 -0.3211  0.1476
  257POPC   C3B 3456   2.035   5.868   5.832  0.0736  0.1044  0.0370
  257POPC   C4B 3457   2.398   5.987   5.893 -0.3618  0.1190 -0.1396
  258POPC   NC3 3458   9.313   4.430   4.572  0.0692  0.0728  0.0717
  258POPC   PO4 3459   8.950   4.157   4.628 -0.2422 -0.0231 -0.1147
  258POPC   GL1 3460   8.939   4.321   5.007  0.3180 -0.0593 -0.2901
  258POPC   GL2 3461   9.244   4.370   5.093  0.2119  0.0002  0.1033
  258POPC   C1A 3462   8.865   4.707   5.238 -0.2716 -0.0051  0.0483
  258POPC   D2A 3463   9.071   4.962   5.480  0.1412  0.1887 -0.1045
  258POPC   C3A 3464   9.076   5.110   6.010  0.0939 -0.0097  0.2324
  258POPC   C4A 3465   9.201   5.178   6.539  0.1312  0.0620  0.2520
  258POPC   C1B 3466   9.140   4.365   5.519  0.0421  0.3022  0.0908
  258POPC   C2B 3467   9.243   4.549   6.035 -0.1259 -0.2314  0.0539
  258POPC   C3B 3468   9.352   4.585   6.448 -0.2540 -0.0608 -0.3664
  258POPC   C4B 3469   9.366   4.622   6.854 -0.0711  0.2334  0.0790
  259POPC   NC3 3470   1.396   2.604   4.103 -0.1921 -0.0845  0.1582
  259POPC   PO4 3471   1.244   2.776   4.474  0.1054  0.0091  0.0439
  259POPC   GL1 3472   1.123   2.829   4.951  0.2173  0.4511  0.0034
  259POPC   GL2 3473   1.294   3.105   5.129 -0.0436 -0.0960  0.0820
  259POPC   C1A 3474   1.210   2.619   5.376  0.1038  0.2984 -0.1705
  259POPC   D2A 3475   1.166   2.766   5.774  0.3122  0.0167 -0.0665
  259POPC   C3A 3476   0.776   2.743   6.081  0.3332 -0.2844  0.2223
  259POPC   C4A 3477   0.366   2.650   6.282 -0.0048  0.2703  0.3898
  259POPC   C1B 3478   1.063   3.135   5.342 -0.1038  0.0258 -0.1874
  259POPC   C2B 3479   1.096   3.412   5.748 -0.0030  0.0516 -0.2980
  259POPC   C3B 3480   1.022   3.691   6.130  0.2352 -0.0287  0.0388
  259POPC   C4B 3481   0.767   4.021   6.327 -0.0733 -0.2957 -0.1291
  260POPC   NC3 3482   8.339   6.753   4.746  0.0326  0.0073 -0.3325
  260POPC   PO4 3483   8.611   7.082   4.715  0.0202  0.0681  0.2232
  260POPC   GL1 3484   8.632   6.826   5.117  0.3227  0.0787 -0.0368
  260POPC   GL2 3485   8.795   6.670   5.261 -0.2922  0.1020 -0.4921
  260POPC   C1A 3486   8.365   7.030   5.480  0.1175  0.0319  0.0787
  260POPC   D2A 3487   8.055   7.189   5.786  0.2530  0.0892 -0.0452
  260POPC   C3A 3488   7.922   7.388   6.173 -0.0738  0.4581 -0.0132
  260POPC   C4A 3489   7.601   7.536   6.584 -0.2949 -0.0092  0.1411
  260POPC   C1B 3490   8.975   6.546   5.650  0.1401 -0.0015 -0.0437
  260POPC   C2B 3491   9.074   6.503   6.152  0.2646 -0.1590 -0.0788
  260POPC   C3B 3492   9.444   6.520   6.315  0.0744 -0.2552  0.3786
  260POPC   C4B 3493   9.756   6.517   6.650 -0.0558  0.2178 -0.1961
  261POPC   NC3 3494   1.449   7.859   4.773 -0.2326  0.2100  0.0503
  261POPC   PO4 3495   1.770   7.630   4.636  0.2101 -0.2738 -0.0613
  261POPC   GL1 3496   1.857   7.679   5.089  0.3134 -0.2346 -0.0280
  261POPC   GL2 3497   2.033   7.566   5.174  0.1318  0.0217  0.0399
  261POPC   C1A 3498   1.959   8.017   5.361  0.0704 -0.0039 -0.0747
  261POPC   D2A 3499   2.141   8.315   5.634  0.3666 -0.3450 -0.0928
  261POPC   C3A 3500   2.293   8.730   5.630  0.1934 -0.0106 -0.0906
  261POPC   C4A 3501   2.630   8.890   5.908  0.0613  0.0197 -0.0074
  261POPC   C1B 3502   2.422   7.314   5.335 -0.0386 -0.1260  0.1781
  261POPC   C2B 3503   2.490   7.135   5.785 -0.4146  0.0557 -0.2157
  261POPC   C3B 3504   2.534   6.858   6.135 -0.0727 -0.4444  0.1226
  261POPC   C4B 3505   2.720   6.422   6.267  0.1131 -0.4790 -0.2129
  262POPC   NC3 3506   9.072   5.553   4.814  0.0153  0.0037 -0.0411
  262POPC   PO4 3507   8.897   5.897   4.928 -0.0391 -0.0731 -0.0464
  262POPC   GL1 3508   8.968   5.860   5.305  0.2860  0.1077  0.1665
  262POPC   GL2 3509   9.155   5.519   5.337 -0.1403  0.1454  0.0627
  262POPC   C1A 3510   9.182   6.008   5.646  0.0792 -0.1631  0.2585
  262POPC   D2A 3511   9.142   5.968   6.092 -0.1033  0.1426  0.1073
  262POPC   C3A 3512   9.423   6.007   6.287  0.1348  0.0218 -0.0362
  262POPC   C4A 3513   9.725   6.105   6.399  0.1533 -0.1312  0.0668
  262POPC   C1B 3514   9.190   5.536   5.753 -0.1960  0.3552 -0.2741
  262POPC   C2B 3515   9.452   5.423   6.126 -0.2973 -0.1061 -0.1309
  262POPC   C3B 3516   9.604   5.502   6.508 -0.0739 -0.0503  0.0889
  262POPC   C4B 3517   9.934   5.837   6.709  0.1412  0.1827  0.0671
  263POPC   NC3 3518   3.605   0.414   4.167 -0.0547 -0.1361  0.0728
  263POPC   PO4 3519   3.915   0.809   4.164  0.2763  0.0120  0.1827
  263POPC   GL1 3520   4.166   0.627   4.501 -0.1557  0.2460 -0.1957
  263POPC   GL2 3521   4.067   0.875   4.769 -0.1849  0.1448 -0.2610
  263POPC   C1A 3522   4.189   0.272   4.733 -0.1250  0.2018 -0.1580
  263POPC   D2A 3523   4.187   0.274   5.216 -0.1142  0.2927  0.1331
  263POPC   C3A 3524   4.025   0.711   5.321  0.0841  0.2194  0.3464
  263POPC   C4A 3525   3.833   0.969   5.573 -0.0530 -0.0258 -0.2631
  263POPC   C1B 3526   4.077   1.087   5.023 -0.2154  0.2476  0.3115
  263POPC   C2B 3527   4.249   1.313   5.376 -0.2170  0.4383  0.0038
  263POPC   C3B 3528   4.385   1.187   5.808  0.1595 -0.1040 -0.0768
  263POPC   C4B 3529   4.327   0.961   6.191 -0.1207  0.0739 -0.2924
  264POPC   NC3 3530   1.315   0.807   4.281 -0.0420 -0.3075  0.0922
  264POPC   PO4 3531   0.908   0.727   4.200  0.2237 -0.1175 -0.2310
  264POPC   GL1 3532   0.673   0.907   4.563 -0.0110  0.2793  0.2823
  264POPC   GL2 3533   0.900   0.875   4.682  0.0542 -0.1209  0.1268
  264POPC   C1A 3534   0.572   1.075   4.956 -0.1048  0.1832  0.0701
  264POPC   D2A 3535   0.588   1.295   5.292 -0.1228  0.0909  0.0465
  264POPC   C3A 3536   0.750   1.135   5.663  0.2371  0.2445  0.0322
  264POPC   C4A 3537   0.506   0.841   6.035 -0.2580 -0.1581 -0.3311
  264POPC   C1B 3538   0.927   0.768   5.082  0.0173 -0.1114  0.0767
  264POPC   C2B 3539   1.044   0.693   5.593  0.2643 -0.0656  0.3196
  264POPC   C3B 3540   1.002   0.802   6.014  0.2057  0.0391 -0.1941
  264POPC   C4B 3541   0.804   1.143   6.229  0.2235  0.0585 -0.0225
  265POPC   NC3 3542   7.248   9.097   4.054  0.2263  0.2628 -0.3963
  265POPC   PO4 3543   7.694   8.860   4.070  0.3118  0.2599  0.0631
  265POPC   GL1 3544   7.504   8.845   4.441 -0.0812  0.0089 -0.2777
  265POPC   GL2 3545   7.658   8.575   4.639 -0.3023  0.0482  0.0750
  265POPC   C1A 3546   7.565   9.063   4.815  0.0163  0.0907 -0.0893
  265POPC   D2A 3547   7.517   9.541   4.893 -0.1328  0.1693  0.0145
  265POPC   C3A 3548   7.646   9.828   5.192  0.1384 -0.0584 -0.0178
  265POPC   C4A 3549   7.830   9.879   5.542 -0.2280  0.1498 -0.0778
  265POPC   C1B 3550   7.597   8.572   5.045 -0.2808  0.1448  0.2270
  265POPC   C2B 3551   7.832   8.629   5.439 -0.1058  0.1008 -0.0840
  265POPC   C3B 3552   8.175   8.561   5.839  0.1770  0.1489  0.1673
  265POPC   C4B 3553   8.379   8.628   6.191 -0.2287  0.0132 -0.1899
  266POPC   NC3 3554   1.376   2.412   4.827 -0.0290 -0.1032 -0.3553
  266POPC   PO4 3555   1.670   2.719   4.820  0.0021  0.1598  0.0009
  266POPC   GL1 3556   1.690   2.898   5.234 -0.1095  0.0472 -0.4266
  266POPC   GL2 3557   1.667   3.259   5.398 -0.3047 -0.0145 -0.0630
  266POPC   C1A 3558   1.691   2.666   5.633  0.0656 -0.1482  0.0169
  266POPC   D2A 3559   2.007   2.526   6.026 -0.2081 -0.0690  0.1634
  266POPC   C3A 3560   1.946   2.095   6.197 -0.0498  0.1594 -0.2507
  266POPC   C4A 3561   2.027   1.664   6.370 -0.1193  0.1234 -0.0059
  266POPC   C1B 3562   1.578   3.157   5.823 -0.0111  0.0796  0.1667
  266POPC   C2B 3563   1.603   2.805   6.157  0.0332 -0.0023  0.0482
  266POPC   C3B 3564   1.652   2.421   6.409  0.0541  0.3156 -0.1984
  266POPC   C4B 3565   1.574   2.295   6.792  0.0289 -0.2007  0.0597
  267POPC   NC3 3566   8.609   8.153   4.706  0.1845  0.3592 -0.1161
  267POPC   PO4 3567   8.107   7.910   4.872 -0.0932 -0.1560 -0.0260
  267POPC   GL1 3568   8.039   7.737   5.175  0.0467 -0.0694  0.0652
  267POPC   GL2 3569   8.199   7.406   5.091  0.4128 -0.0843 -0.0616
  267POPC   C1A 3570   7.815   7.340   5.393  0.3969  0.0207  0.2241
  267POPC   D2A 3571   7.899   6.852   5.196  0.0313  0.1454 -0.2939
  267POPC   C3A 3572   7.915   6.739   5.590 -0.0082  0.2372  0.3917
  267POPC   C4A 3573   7.702   6.744   5.970  0.0243  0.3860  0.2403
  267POPC   C1B 3574   8.348   7.521   5.584  0.3546  0.0965  0.2231
  267POPC   C2B 3575   8.390   7.590   6.033  0.0922  0.1577 -0.0455
  267POPC   C3B 3576   8.392   7.235   6.440  0.0555  0.1416 -0.0686
  267POPC   C4B 3577   8.645   6.803   6.404 -0.0221 -0.1060 -0.1214
  268POPC   NC3 3578   0.573   8.096   4.490  0.0968 -0.0632 -0.1844
  268POPC   PO4 3579   0.995   8.209   4.576 -0.0896  0.0100  0.5861
  268POPC   GL1 3580   0.880   8.012   4.889 -0.0714 -0.0519 -0.0456
  268POPC   GL2 3581   0.654   7.807   4.943 -0.1391 -0.0527 -0.1289
  268POPC   C1A 3582   0.876   8.065   5.306 -0.1019 -0.1419 -0.0381
  268POPC   D2A 3583   0.710   7.929   5.692 -0.0672  0.0532  0.0720
  268POPC   C3A 3584   0.723   8.187   6.080 -0.1472 -0.3628  0.0909
  268POPC   C4A 3585   0.414   8.439   6.331 -0.0780  0.0844  0.3583
  268POPC   C1B 3586   0.321   7.717   5.232  0.1931 -0.1089 -0.3078
  268POPC   C2B 3587   0.149   7.884   5.598  0.3082  0.1388  0.4713
  268POPC   C3B 3588   0.026   8.136   5.981 -0.2278 -0.0461  0.0326
  268POPC   C4B 3589  -0.084   8.395   6.341 -0.0318  0.1036 -0.1987
  269POPC   NC3 3590   3.192   2.020   4.248  0.1494  0.3152  0.0777
  269POPC   PO4 3591   2.739   2.124   4.432 -0.0374 -0.1356  0.3919
  269POPC   GL1 3592   2.838   1.776   4.729  0.2816 -0.1093  0.2214
  269POPC   GL2 3593   2.618   1.582   4.643  0.2180  0.0412 -0.1386
  269POPC   C1A 3594   2.858   1.754   5.156 -0.0883 -0.2430  0.0727
  269POPC   D2A 3595   2.824   1.691   5.622 -0.2365  0.0829  0.3509
  269POPC   C3A 3596   3.128   1.846   5.887 -0.1307 -0.1509  0.1870
  269POPC   C4A 3597   3.534   1.832   6.077  0.1399 -0.0542 -0.1354
  269POPC   C1B 3598   2.983   1.322   4.850 -0.2523  0.3303 -0.1498
  269POPC   C2B 3599   3.403   1.355   4.995  0.0901  0.0469 -0.4468
  269POPC   C3B 3600   3.739   1.367   5.143  0.0304  0.3319 -0.0540
  269POPC   C4B 3601   3.895   1.782   5.182  0.2267 -0.2887  0.2347
  270POPC   NC3 3602   5.789   8.033   4.477 -0.2181 -0.0910 -0.1988
  270POPC   PO4 3603   6.061   7.718   4.494 -0.1487  0.1104 -0.2833
  270POPC   GL1 3604   5.837   7.841   4.916  0.1491  0.1624  0.0101
  270POPC   GL2 3605   5.807   8.102   5.005 -0.1847 -0.1079 -0.0029
  270POPC   C1A 3606   6.152   7.818   5.386 -0.0612 -0.4777  0.3267
  270POPC   D2A 3607   6.132   7.655   5.789 -0.2966 -0.2029 -0.3784
  270POPC   C3A 3608   6.349   7.299   6.040  0.0433 -0.2784  0.5186
  270POPC   C4A 3609   6.342   7.027   6.376  0.3259 -0.1904  0.1474
  270POPC   C1B 3610   5.799   8.177   5.392 -0.1877 -0.0779  0.3207
  270POPC   C2B 3611   6.066   8.151   5.841  0.0162  0.0622 -0.1088
  270POPC   C3B 3612   6.403   8.063   6.180  0.1226  0.0131  0.0897
  270POPC   C4B 3613   6.351   7.994   6.644 -0.0245 -0.2005 -0.0885
  271POPC   NC3 3614   9.107   0.449   4.006  0.0776 -0.1174 -0.2460
  271POPC   PO4 3615   9.348   0.870   4.019 -0.4204  0.0446 -0.4784
  271POPC   GL1 3616   9.441   0.863   4.471  0.0106 -0.1594 -0.1774
  271POPC   GL2 3617   9.796   0.835   4.508  0.0896  0.2184 -0.2279
  271POPC   C1A 3618   9.016   0.850   4.778 -0.0300  0.1659  0.1436
  271POPC   D2A 3619   8.848   0.867   5.228  0.0818 -0.1092  0.1273
  271POPC   C3A 3620   8.578   0.472   5.298 -0.0641 -0.1715 -0.1520
  271POPC   C4A 3621   8.254   0.453   5.153 -0.0808 -0.0183  0.0401
  271POPC   C1B 3622   9.565   0.719   4.873  0.0435 -0.1172 -0.1114
  271POPC   C2B 3623   9.366   0.836   5.163  0.0065 -0.1687  0.2024
  271POPC   C3B 3624   9.464   0.827   5.575  0.0956  0.1344 -0.1332
  271POPC   C4B 3625   9.630   0.957   5.944  0.0504 -0.1022  0.0025
  272POPC   NC3 3626   1.408   4.982   4.556 -0.1614  0.1789  0.0050
  272POPC   PO4 3627   1.763   4.720   4.622 -0.1730  0.2267  0.1957
  272POPC   GL1 3628   1.901   4.681   4.960  0.1190  0.0978 -0.0439
  272POPC   GL2 3629   1.753   4.450   5.161  0.3767  0.2841  0.1854
  272POPC   C1A 3630   2.307   4.650   5.206  0.1247 -0.0072 -0.4036
  272POPC   D2A 3631   2.550   4.511   5.557 -0.0941  0.0625 -0.2430
  272POPC   C3A 3632   2.582   4.729   5.907 -0.2716  0.0435  0.1031
  272POPC   C4A 3633   2.243   4.954   6.012 -0.0773  0.1844  0.2280
  272POPC   C1B 3634   1.535   4.305   5.612  0.1046  0.0238 -0.0946
  272POPC   C2B 3635   1.797   4.252   5.943  0.0143 -0.0760  0.0093
  272POPC   C3B 3636   2.262   4.313   5.992  0.1659 -0.0861 -0.0228
  272POPC   C4B 3637   2.653   4.154   5.891 -0.1555 -0.1166 -0.0237
  273POPC   NC3 3638   3.963   2.387   3.947 -0.0205 -0.0577  0.4219
  273POPC   PO4 3639   4.246   2.177   4.274 -0.5352 -0.1400  0.0287
  273POPC   GL1 3640   4.116   2.245   4.747  0.1461  0.0776  0.0952
  273POPC   GL2 3641   4.375   2.175   4.951  0.2072 -0.0097 -0.2170
  273POPC   C1A 3642   3.911   2.333   5.105  0.0532 -0.2402  0.0248
  273POPC   D2A 3643   3.839   2.326   5.532  0.1346 -0.0806 -0.1523
  273POPC   C3A 3644   3.859   1.926   5.745 -0.1679  0.2035 -0.1281
  273POPC   C4A 3645   3.676   1.536   5.649  0.5396  0.1482 -0.0937
  273POPC   C1B 3646   4.303   2.273   5.355 -0.0115 -0.2499 -0.4196
  273POPC   C2B 3647   4.278   2.322   5.749 -0.1175  0.0506  0.0805
  273POPC   C3B 3648   4.549   2.480   6.097 -0.3990  0.2624  0.0412
  273POPC   C4B 3649   4.585   2.433   6.505 -0.0070  0.1150 -0.1698
  274POPC   NC3 3650   0.328   8.859   4.644  0.0540 -0.0823  0.0508
  274POPC   PO4 3651   0.132   8.375   4.586 -0.1332  0.0068  0.4333
  274POPC   GL1 3652   0.386   8.441   4.893 -0.2642  0.1512  0.3487
  274POPC   GL2 3653   0.746   8.511   4.835  0.0088 -0.1282  0.1176
  274POPC   C1A 3654   0.419   8.220   5.237 -0.2743  0.1484 -0.1926
  274POPC   D2A 3655   0.459   8.329   5.737  0.2844 -0.0275  0.2251
  274POPC   C3A 3656   0.676   8.766   6.049  0.1657 -0.0439  0.3653
  274POPC   C4A 3657   0.859   8.768   6.537  0.1654 -0.3152 -0.4019
  274POPC   C1B 3658   0.721   8.580   5.347  0.2146  0.3752  0.2579
  274POPC   C2B 3659   0.979   8.380   5.664 -0.1324 -0.3985 -0.0299
  274POPC   C3B 3660   1.252   7.992   5.718 -0.1106 -0.1071 -0.1472
  274POPC   C4B 3661   1.626   7.970   5.928  0.0898 -0.0251 -0.2513
  275POPC   NC3 3662   6.562   8.532   3.960  0.2003  0.0234  0.1954
  275POPC   PO4 3663   6.895   8.337   4.125  0.0783 -0.1105  0.2147
  275POPC   GL1 3664   6.685   8.318   4.580  0.1007  0.0700 -0.0091
  275POPC   GL2 3665   6.678   8.586   4.808  0.0384  0.0906 -0.0519
  275POPC   C1A 3666   6.642   8.238   5.137 -0.0889 -0.1153 -0.3712
  275POPC   D2A 3667   6.611   8.141   5.633  0.0343 -0.1017 -0.0320
  275POPC   C3A 3668   6.689   8.415   5.860 -0.0153 -0.3290  0.3316
  275POPC   C4A 3669   6.514   8.768   6.032 -0.3528 -0.1905  0.0438
  275POPC   C1B 3670   6.719   8.729   5.099 -0.2274  0.4412  0.0272
  275POPC   C2B 3671   6.834   8.801   5.477 -0.0822 -0.0039  0.1502
  275POPC   C3B 3672   7.006   8.899   5.935  0.3130  0.2643  0.0838
  275POPC   C4B 3673   7.316   9.228   5.953  0.2371  0.0905  0.0033
  276POPC   NC3 3674   5.322   8.438   4.350  0.1116 -0.0706 -0.2750
  276POPC   PO4 3675   5.285   7.914   4.343 -0.0381  0.0098  0.5025
  276POPC   GL1 3676   5.359   8.002   4.802 -0.0313  0.4059 -0.1112
  276POPC   GL2 3677   5.458   8.394   4.808 -0.0658  0.1974  0.0780
  276POPC   C1A 3678   5.412   7.807   5.164 -0.4838 -0.1522 -0.3213
  276POPC   D2A 3679   5.657   7.662   5.452  0.1727  0.0006 -0.1505
  276POPC   C3A 3680   5.663   7.831   5.868  0.0016 -0.0569 -0.0111
  276POPC   C4A 3681   5.914   8.000   6.314  0.0363 -0.1567  0.0190
  276POPC   C1B 3682   5.323   8.301   5.221  0.1305 -0.1662  0.1650
  276POPC   C2B 3683   5.341   8.098   5.624  0.0148  0.2634  0.2332
  276POPC   C3B 3684   5.624   8.401   5.858  0.0744 -0.1267 -0.0747
  276POPC   C4B 3685   5.509   8.716   5.728 -0.3431 -0.0009  0.1317
  277POPC   NC3 3686   0.741   6.735   4.321  0.1358 -0.1593  0.3804
  277POPC   PO4 3687   1.090   6.891   4.606 -0.3374 -0.0421 -0.0758
  277POPC   GL1 3688   1.014   6.871   5.038  0.1334  0.1436 -0.3260
  277POPC   GL2 3689   1.322   6.921   5.169  0.0526 -0.3165 -0.2633
  277POPC   C1A 3690   0.725   6.940   5.327  0.1076 -0.1906  0.2162
  277POPC   D2A 3691   0.618   6.910   5.750 -0.1469  0.0718  0.0082
  277POPC   C3A 3692   0.559   7.239   6.118 -0.0109 -0.1444 -0.0493
  277POPC   C4A 3693   0.555   7.689   6.116  0.0051 -0.1460  0.1223
  277POPC   C1B 3694   1.647   7.130   5.440 -0.1194  0.0845  0.2047
  277POPC   C2B 3695   2.061   7.282   5.676  0.0772  0.0601  0.0541
  277POPC   C3B 3696   2.206   7.791   5.781  0.0548  0.2234  0.4094
  277POPC   C4B 3697   2.230   8.101   6.081 -0.1344  0.0673 -0.2847
  278POPC   NC3 3698   2.307   1.519   3.839  0.0022  0.0722 -0.0350
  278POPC   PO4 3699   2.287   1.449   4.267  0.1890  0.0582  0.4206
  278POPC   GL1 3700   2.167   1.333   4.752 -0.1903  0.0492 -0.0558
  278POPC   GL2 3701   2.022   0.977   4.894  0.1758 -0.2415  0.2124
  278POPC   C1A 3702   1.912   1.610   4.972  0.0966  0.0263 -0.1093
  278POPC   D2A 3703   2.033   1.806   5.360 -0.1611 -0.2119  0.0209
  278POPC   C3A 3704   2.427   1.931   5.602 -0.0624  0.3606  0.1086
  278POPC   C4A 3705   2.494   2.189   5.921 -0.0560 -0.0414  0.4133
  278POPC   C1B 3706   2.056   1.157   5.315  0.2763 -0.2080 -0.1665
  278POPC   C2B 3707   2.318   1.183   5.615 -0.0888  0.0206  0.1339
  278POPC   C3B 3708   2.332   1.181   6.103  0.0317 -0.0666 -0.1625
  278POPC   C4B 3709   2.649   1.225   6.432  0.3758 -0.0368  0.1089
  279POPC   NC3 3710   0.385   7.110   4.283  0.2611 -0.3046  0.0449
  279POPC   PO4 3711   0.766   7.239   4.325 -0.0625  0.1119  0.2834
  279POPC   GL1 3712   0.626   7.005   4.766  0.3941 -0.1280  0.3847
  279POPC   GL2 3713   0.590   6.690   4.824 -0.1977 -0.2293  0.0137
  279POPC   C1A 3714   0.275   7.115   4.971 -0.1680  0.1581  0.1610
  279POPC   D2A 3715  -0.156   7.147   5.038 -0.0988  0.2605 -0.0100
  279POPC   C3A 3716  -0.327   7.441   5.371  0.1875 -0.0096 -0.1132
  279POPC   C4A 3717  -0.513   7.369   5.681  0.2056 -0.0832  0.0600
  279POPC   C1B 3718   0.596   6.495   5.248  0.1325  0.0971 -0.1735
  279POPC   C2B 3719   0.728   6.415   5.666 -0.0558 -0.0926 -0.1424
  279POPC   C3B 3720   0.638   6.591   6.106  0.0320  0.2025 -0.2968
  279POPC   C4B 3721   0.383   6.720   6.360  0.0319 -0.1266 -0.2932
  280POPC   NC3 3722   2.367   9.682   4.249 -0.1663 -0.2308  0.4038
  280POPC   PO4 3723   2.737   9.799   4.158 -0.2572  0.0876  0.1498
  280POPC   GL1 3724   2.778   9.798   4.573 -0.1399  0.0609  0.0365
  280POPC   GL2 3725   3.058   9.616   4.766  0.5555  0.1139  0.2563
  280POPC   C1A 3726   2.836  10.049   4.940 -0.0930  0.0857  0.3172
  280POPC   D2A 3727   2.676  10.119   5.287  0.3423 -0.0027  0.2575
  280POPC   C3A 3728   2.538  10.499   5.457  0.1425 -0.0789  0.0686
  280POPC   C4A 3729   2.810  10.689   5.851  0.0336 -0.0777  0.1530
  280POPC   C1B 3730   3.078   9.697   5.194 -0.0523  0.1233 -0.4300
  280POPC   C2B 3731   3.195   9.863   5.604 -0.2539 -0.1052 -0.3616
  280POPC   C3B 3732   3.222  10.089   5.978  0.5927 -0.0108 -0.2619
  280POPC   C4B 3733   3.396  10.053   6.394  0.0226  0.0742 -0.1558
  281POPC   NC3 3734   1.988   8.039   4.419 -0.3924 -0.0119 -0.2680
  281POPC   PO4 3735   1.980   8.601   4.518 -0.2100 -0.1518 -0.1522
  281POPC   GL1 3736   2.084   8.643   4.929  0.0944  0.1146 -0.3127
  281POPC   GL2 3737   1.855   8.582   5.143  0.0826  0.0982 -0.1449
  281POPC   C1A 3738   2.303   8.285   5.116 -0.0348 -0.2875 -0.3384
  281POPC   D2A 3739   2.420   7.831   5.311  0.4961 -0.1732 -0.1238
  281POPC   C3A 3740   2.657   7.920   5.763  0.0346  0.0845 -0.1317
  281POPC   C4A 3741   2.905   7.731   6.076 -0.0601  0.2900  0.2099
  281POPC   C1B 3742   1.833   8.870   5.455 -0.0988 -0.2476 -0.0594
  281POPC   C2B 3743   1.758   9.111   5.760 -0.3859  0.2309 -0.1085
  281POPC   C3B 3744   1.459   9.230   5.861  0.3284  0.1065  0.2099
  281POPC   C4B 3745   0.955   9.123   5.828  0.3798  0.1830  0.1091
  282POPC   NC3 3746   4.193   2.632   4.345  0.0918 -0.5611 -0.0976
  282POPC   PO4 3747   4.657   2.798   4.363  0.1803 -0.0473 -0.0137
  282POPC   GL1 3748   4.599   2.612   4.725  0.1701  0.0307 -0.0073
  282POPC   GL2 3749   4.312   2.779   4.770 -0.0486  0.1784  0.4563
  282POPC   C1A 3750   4.700   2.556   5.062  0.1532 -0.0835 -0.0028
  282POPC   D2A 3751   4.841   2.254   5.168  0.1309 -0.1084  0.0258
  282POPC   C3A 3752   4.809   2.193   5.584  0.2432 -0.0872 -0.1027
  282POPC   C4A 3753   4.970   2.171   5.961 -0.2045  0.1934 -0.0411
  282POPC   C1B 3754   4.248   2.774   5.200 -0.1054  0.0006  0.4881
  282POPC   C2B 3755   3.968   2.831   5.570 -0.0746 -0.2484  0.0511
  282POPC   C3B 3756   4.174   2.824   6.030 -0.2621  0.0042  0.2702
  282POPC   C4B 3757   4.636   2.979   6.146  0.0413 -0.0949  0.1127
  283POPC   NC3 3758   9.143   3.951   4.202  0.0298 -0.3539 -0.1853
  283POPC   PO4 3759   9.474   3.722   4.344  0.2072 -0.1589  0.2347
  283POPC   GL1 3760   9.267   3.559   4.686 -0.0848 -0.2358 -0.0749
  283POPC   GL2 3761   9.322   3.819   4.874 -0.1426 -0.1525  0.0775
  283POPC   C1A 3762   8.946   3.496   4.981 -0.2132 -0.0606 -0.1194
  283POPC   D2A 3763   8.946   3.506   5.445 -0.1201 -0.1671 -0.0490
  283POPC   C3A 3764   8.928   3.478   5.907 -0.1404 -0.1597  0.1395
  283POPC   C4A 3765   9.027   3.501   6.265 -0.0180 -0.0543 -0.0674
  283POPC   C1B 3766   9.413   3.837   5.293  0.1753  0.1410  0.0768
  283POPC   C2B 3767   9.280   3.773   5.739 -0.1875  0.1159 -0.2498
  283POPC   C3B 3768   9.353   4.105   6.070  0.3179 -0.2616 -0.0654
  283POPC   C4B 3769   9.525   4.115   6.498  0.0712  0.1077 -0.2237
  284POPC   NC3 3770   5.617   2.620   3.941  0.1599 -0.0194 -0.2411
  284POPC   PO4 3771   5.231   2.786   4.164  0.2266 -0.1210  0.1848
  284POPC   GL1 3772   5.149   2.745   4.584 -0.2708  0.1041 -0.1159
  284POPC   GL2 3773   4.922   3.016   4.756 -0.0213 -0.2732  0.1077
  284POPC   C1A 3774   5.175   2.635   5.029 -0.1165 -0.2622 -0.0804
  284POPC   D2A 3775   5.444   2.680   5.387  0.0121 -0.1457 -0.0270
  284POPC   C3A 3776   5.204   2.657   5.850 -0.0903  0.0329  0.3269
  284POPC   C4A 3777   4.990   2.632   6.289 -0.1752 -0.0755  0.1911
  284POPC   C1B 3778   4.628   3.129   5.183 -0.4477  0.3205  0.0851
  284POPC   C2B 3779   4.468   3.150   5.546 -0.0132 -0.0282 -0.1997
  284POPC   C3B 3780   4.262   3.381   5.764  0.0391  0.1228 -0.2758
  284POPC   C4B 3781   3.889   3.322   5.859  0.1348  0.2063 -0.2431
  285POPC   NC3 3782   6.091   4.812   4.719  0.1417  0.0220 -0.0654
  285POPC   PO4 3783   5.752   5.060   4.664  0.0294 -0.1802 -0.4542
  285POPC   GL1 3784   6.002   5.278   5.050 -0.0002  0.1940  0.0062
  285POPC   GL2 3785   6.267   5.583   5.008  0.2666  0.2006 -0.0779
  285POPC   C1A 3786   5.842   5.433   5.435  0.0678 -0.2058  0.3368
  285POPC   D2A 3787   5.832   5.604   5.832 -0.4170 -0.3255 -0.0511
  285POPC   C3A 3788   6.194   5.600   6.165 -0.0819  0.1124 -0.0398
  285POPC   C4A 3789   6.577   5.534   6.213  0.0610  0.0617 -0.1174
  285POPC   C1B 3790   6.385   5.397   5.319  0.0245  0.0791  0.0270
  285POPC   C2B 3791   6.303   5.252   5.717 -0.1431  0.0080 -0.1109
  285POPC   C3B 3792   6.218   4.907   5.924 -0.2621  0.1876  0.3530
  285POPC   C4B 3793   6.097   4.723   6.281 -0.2990  0.3063 -0.1098
  286POPC   NC3 3794   3.225   7.860   4.384  0.3745 -0.0271 -0.0643
  286POPC   PO4 3795   3.307   8.165   4.651  0.1133 -0.2147 -0.1294
  286POPC   GL1 3796   3.336   8.545   4.889 -0.2983 -0.0199 -0.1071
  286POPC   GL2 3797   3.086   8.796   4.916 -0.0889 -0.2987  0.0043
  286POPC   C1A 3798   3.468   8.835   5.277  0.0456  0.1533 -0.0197
  286POPC   D2A 3799   3.488   8.956   5.766 -0.5896 -0.1766  0.0033
  286POPC   C3A 3800   3.862   8.842   5.997  0.3651 -0.0361  0.3453
  286POPC   C4A 3801   4.290   8.806   6.087 -0.0175  0.0249 -0.2480
  286POPC   C1B 3802   3.044   8.509   5.286 -0.0695  0.2554 -0.1730
  286POPC   C2B 3803   3.019   8.760   5.567  0.3464  0.2654 -0.0556
  286POPC   C3B 3804   3.134   8.633   6.015  0.0705 -0.0388 -0.0370
  286POPC   C4B 3805   3.293   8.658   6.385 -0.0923  0.0155  0.0583
  287W        W 3806   3.984   8.653   9.352 -0.0990 -0.0352  0.0290
  288W        W 3807   1.874   4.527   4.007 -0.2412 -0.1797 -0.0708
  289W        W 3808   5.165   1.563   1.174  0.1107 -0.0964 -0.1840
  290W        W 3809   0.143   9.347   1.112  0.0990  0.0596 -0.0218
  291W        W 3810   8.485   4.020  10.447  0.0791  0.0320 -0.0666
  292W        W 3811   3.579   5.587   9.420 -0.0246 -0.0971 -0.0761
  293W        W 3812   8.917   0.008   0.029 -0.3844 -0.0155 -0.0991
  294W        W 3813   3.951   4.537   2.741  0.1737  0.2541 -0.0766
  295W        W 3814   9.562   7.876  11.829  0.1687  0.1708  0.0481
  296W        W 3815   4.133   6.200   9.625 -0.0095  0.0874 -0.0870
  297W        W 3816   4.895   3.789  11.388 -0.1320  0.0770  0.2250
  298W        W 3817   7.298   0.969   1.952 -0.0340  0.2189  0.0916
  299W        W 3818   3.247   2.485   9.350  0.0961  0.0870  0.0110
  300W        W 3819   0.516   7.127   1.781 -0.2229 -0.2868  0.0853
  301W        W 3820   2.258   0.532   3.967  0.3661  0.0426  0.0641
  302W        W 3821   3.780   7.067   8.769 -0.0173 -0.1325 -0.0709
  303W        W 3822   8.042   8.200   3.971  0.1096  0.2162 -0.2049
  304W        W 3823   3.133   9.424   2.296  0.3310  0.1679  0.4375
  305W        W 3824   4.083   3.542  11.054 -0.2235 -0.0499  0.2134
  306W        W 3825   5.705   1.089   3.629  0.2540  0.0946 -0.2343
  307W        W 3826   0.598   1.137   4.071 -0.3561  0.0971 -0.2569
  308W        W 3827   7.941   8.411  11.419 -0.1851 -0.0164 -0.0799
  309W        W 3828   4.154   5.297  12.171 -0.2085  0.0498  0.2817
  310W        W 3829   5.004   8.783  11.955  0.1395  0.0358 -0.0849
  311W        W 3830   2.119   4.599   2.859 -0.2396 -0.0713  0.1160
  312W        W 3831   7.895   8.748   9.109 -0.1363 -0.0379  0.0272
  313W        W 3832   7.813   2.485   3.503  0.0597 -0.1105  0.2498
  314W        W 3833   8.005   5.920  10.152  0.1239  0.2107 -0.1076
  315W        W 3834   8.089   1.059   1.646  0.3688 -0.0441  0.2465
  316W        W 3835   6.875   4.010  11.109 -0.3382  0.0497  0.1119
  317W        W 3836   2.234   6.074   9.946 -0.0499 -0.2713 -0.1076
  318W        W 3837   4.773   7.217  10.180  0.2103 -0.1349 -0.0526
  319W        W 3838   7.707   7.197   4.290 -0.1665 -0.2341 -0.1141
  320W        W 3839   3.259   4.422   3.182  0.3056  0.1583  0.0028
  321W        W 3840   2.533   3.385   1.385  0.1025 -0.0835 -0.0368
  322W        W 3841   6.319   3.040   2.332  0.1836  0.3941 -0.1436
  323W        W 3842   7.764   4.019   0.956 -0.1021 -0.0934  0.1442
  324W        W 3843   8.570   5.220   9.437  0.1218 -0.0875  0.0349
  325W        W 3844   9.442   6.253   2.943 -0.0931 -0.2868  0.2541
  326W        W 3845   0.662   4.611   3.863  0.1092 -0.1329  0.2225
  327W        W 3846   5.798   0.642  11.986 -0.2479 -0.0437 -0.3258
  328W        W 3847   4.675   1.985   1.688  0.0549  0.0100  0.0578
  329W        W 3848   8.497   8.696  11.408  0.1456  0.1707 -0.0167
  330W        W 3849   2.581   4.793   8.831 -0.5212  0.2944  0.0241
  331W        W 3850   3.596   1.449   2.686  0.1615 -0.2147  0.0350
  332W        W 3851   4.156   1.654   0.584  0.3223 -0.1096  0.2398
  333W        W 3852   3.035   9.577   8.742 -0.0186 -0.2563 -0.3754
  334W        W 3853   6.167   1.545  11.960 -0.1622 -0.3548 -0.2109
  335W        W 3854   7.063   9.671   3.316  0.1455  0.1695  0.0232
  336W        W 3855   3.941   2.572   0.712 -0.0797 -0.0343  0.2388
  337W        W 3856   7.737   7.730  10.723  0.0669  0.1292  0.1941
  338W        W 3857   4.821   5.336   9.748 -0.2926 -0.0286  0.0447
  339W        W 3858   9.151   0.042   3.642 -0.0616  0.1752 -0.0899
  340W        W 3859   0.128   7.523  10.414 -0.0786  0.1181 -0.1132
  341W        W 3860   2.521   0.633  11.767 -0.0343  0.0566  0.0329
  342W        W 3861   5.949   8.205   2.707  0.5803 -0.1026 -0.2007
  343W        W 3862   2.414   4.160   2.572 -0.1552  0.1338 -0.0436
  344W        W 3863   1.014   5.856  10.072  0.2722 -0.0174 -0.0234
  345W        W 3864   3.113   1.986   9.336 -0.1995  0.1652  0.0189
  346W        W 3865   3.454   8.235   4.149  0.0586  0.1719  0.0276
  347W        W 3866   0.806   7.169   1.275  0.0641  0.2295  0.0582
  348W        W 3867   4.258   9.511   4.413  0.1535 -0.1800  0.0233
  349W        W 3868   7.596   1.922   2.128 -0.2761 -0.0517  0.0247
  350W        W 3869   6.891   4.471   3.158 -0.2304 -0.3607  0.1164
  351W        W 3870   9.132   8.191  10.436 -0.1936 -0.0140  0.4387
  352W        W 3871   7.594   8.876   0.408  0.2473  0.6328 -0.1991
  353W        W 3872   6.451   0.690   9.498  0.1843  0.2034 -0.0724
  354W        W 3873   0.705   5.942   1.346 -0.3022 -0.0829 -0.2052
  355W        W 3874   6.654   0.817  11.702  0.1514 -0.3072 -0.1936
  356W        W 3875   4.719   7.252  11.310  0.1629 -0.0315 -0.2122
  357W        W 3876   3.454   3.860   2.562  0.1415  0.3177 -0.2176
  358W        W 3877   2.521   6.679   4.154 -0.1168  0.4516 -0.0288
  359W        W 3878   3.794   6.736   3.389  0.0858  0.1570  0.0580
  360W        W 3879   3.748   0.800  11.851  0.3506  0.1734 -0.0878
  361W        W 3880   2.391   9.284   3.937 -0.2399  0.0432  0.0903
  362W        W 3881   0.202   4.816  10.894  0.1366 -0.0578 -0.0961
  363W        W 3882   6.215   4.731   1.396 -0.3143 -0.0202 -0.0089
  364W        W 3883   6.342   1.947   9.613  0.1520  0.0928  0.0259
  365W        W 3884   5.076   0.125   2.154  0.1830 -0.0848 -0.2661
  366W        W 3885   9.393   6.577   4.418 -0.1479  0.3438  0.1316
  367W        W 3886   4.128   5.762   0.517  0.1446 -0.0758 -0.0983
  368W        W 3887   8.102   9.113  11.579  0.2657  0.2841  0.1354
  369W        W 3888   9.606   8.694   1.855 -0.1214 -0.1857  0.0572
  370W        W 3889   6.301   4.944   0.042 -0.1654  0.1018 -0.1138
  371W        W 3890   2.081   1.319   0.169 -0.0307  0.3226  0.2722
  372W        W 3891   9.609   7.569   9.361 -0.0988 -0.1590  0.0220
  373W        W 3892   5.787   6.318  10.980 -0.3433 -0.0487 -0.2941
  374W        W 3893   1.311   3.183  12.004  0.1137 -0.0194  0.1968
  375W        W 3894   7.081   5.283  11.967 -0.2287  0.2121 -0.0222
  376W        W 3895   9.496   8.177  11.124 -0.2582  0.3212  0.1110
  377W        W 3896   7.269   7.382   1.444 -0.1721  0.2259 -0.3122
  378W        W 3897   6.716   6.517   1.484 -0.2301  0.0619 -0.3829
  379W        W 3898   9.181   1.828   4.136 -0.2222 -0.2228 -0.0458
  380W        W 3899   9.411   5.795   0.895 -0.5086  0.0545  0.0191
  381W        W 3900   5.480   7.361   2.712 -0.1576  0.1213  0.1419
  382W        W 3901   1.780   1.460   4.470 -0.2403  0.4129  0.1352
  383W        W 3902   4.891   3.303  11.155  0.0319  0.1174 -0.2845
  384W        W 3903   2.609   0.826   1.961 -0.1104 -0.0083  0.1075
  385W        W 3904   4.952   3.297  12.347  0.2899 -0.1341 -0.1981
  386W        W 3905   7.587   0.741   2.357 -0.1223 -0.0384  0.1255
  387W        W 3906   2.508   1.414  11.426 -0.1447 -0.0024 -0.1033
  388W        W 3907   4.851   0.522   9.079  0.1279  0.0596  0.1667
  389W        W 3908   0.179   4.009   2.566 -0.1839 -0.3237  0.3839
  390W        W 3909   4.190   4.092   3.718  0.1362 -0.1061 -0.1373
  391W        W 3910   5.235   9.153   0.735  0.1911 -0.0453 -0.1192
  392W        W 3911   2.162   6.107   3.478  0.0647  0.0833  0.2048
  393W        W 3912   2.008   6.640   3.302 -0.0885 -0.1660 -0.1086
  394W        W 3913   7.826   4.970   0.636 -0.3212 -0.0778 -0.0855
  395W        W 3914   7.193   8.375   3.409 -0.0596 -0.0989 -0.0454
  396W        W 3915   3.569   1.943   0.118 -0.4010 -0.3236 -0.0689
  397W        W 3916   6.428   3.295   3.928  0.1711 -0.0334  0.1667
  398W        W 3917   3.942   4.861   0.453 -0.0923 -0.0886  0.0871
  399W        W 3918   8.398   8.344   1.357 -0.2726  0.0292  0.0709
  400W        W 3919   0.665   8.622   2.170 -0.1319 -0.0357 -0.0529
  401W        W 3920   0.098   8.961   9.394  0.0354 -0.1364 -0.0548
  402W        W 3921   0.104   1.268   1.124 -0.3898  0.0423 -0.5175
  403W        W 3922   4.283   0.932  10.059 -0.0132 -0.0066 -0.1942
  404W        W 3923   6.910   3.213   2.923 -0.1189 -0.1719  0.0214
  405W        W 3924   6.666   8.854  10.093 -0.0275 -0.0332  0.3427
  406W        W 3925   2.476   5.058   0.552  0.4977 -0.3036  0.0289
  407W        W 3926   8.668   6.117   3.512 -0.0487 -0.1580  0.1001
  408W        W 3927   4.250   2.258  12.193  0.0114  0.1159 -0.0759
  409W        W 3928   9.713   6.728   0.910 -0.0727  0.0803  0.1066
  410W        W 3929   5.212   5.534   2.915 -0.0636 -0.1270  0.4592
  411W        W 3930   8.074   6.540   1.936 -0.2897  0.2740  0.0688
  412W        W 3931   5.750   0.706   2.269 -0.3484 -0.1672 -0.0229
  413W        W 3932   0.078   0.533  11.827  0.2923 -0.3987  0.2233
  414W        W 3933   1.029   3.726   2.184  0.4302  0.3585 -0.1630
  415W        W 3934   3.975   2.679  10.288  0.0797 -0.1165  0.1556
  416W        W 3935   9.218   6.399  11.184  0.2434  0.1350  0.0141
  417W        W 3936   1.410   8.137   8.572  0.2457 -0.0468 -0.0498
  418W        W 3937   1.782   3.616  10.409 -0.3703 -0.1751  0.0060
  419W        W 3938   8.614   5.237  12.234 -0.0242 -0.1031 -0.3264
  420W        W 3939   3.783   7.821   9.086 -0.2244  0.0847  0.1161
  421W        W 3940   7.681   3.961   2.252 -0.2855  0.1517 -0.1161
  422W        W 3941   4.082   9.446   3.703 -0.1003  0.1165  0.0384
  423W        W 3942   4.452   1.279   1.313  0.2361 -0.0049  0.0192
  424W        W 3943   6.098   0.576  10.263  0.4311  0.0163  0.1098
  425W        W 3944   5.018   3.765  10.007 -0.1761  0.1411 -0.0021
  426W        W 3945   5.465   8.176   2.896 -0.2763 -0.1110  0.1258
  427W        W 3946   6.889   6.714   9.754 -0.0449 -0.2538 -0.0329
  428W        W 3947   0.843   8.473   0.234 -0.2346  0.1077  0.0244
  429W        W 3948   5.843   1.030  11.179  0.2127  0.1134  0.0189
  430W        W 3949   7.943   9.247   0.488  0.0698 -0.1326 -0.0066
  431W        W 3950   4.254   6.373  11.126 -0.2695 -0.1870  0.1795
  432W        W 3951   2.100   4.951  10.084 -0.0324  0.1096  0.0227
  433W        W 3952   5.018   4.461  11.985  0.0043  0.2376  0.0772
  434W        W 3953   2.216   3.810  10.788  0.0205  0.1462 -0.4878
  435W        W 3954   6.214   5.949   9.664  0.1864  0.3753 -0.0413
  436W        W 3955   3.721   6.377   3.835 -0.0312 -0.1221 -0.3361
  437W        W 3956   9.215   8.218  11.916  0.0569  0.0360  0.2248
  438W        W 3957   5.729   8.027   8.808 -0.1082  0.1731  0.1558
  439W        W 3958   7.094   1.792   9.227 -0.1999  0.1481  0.1837
  440W        W 3959   8.559   4.635   2.961  0.4583 -0.1480 -0.0689
  441W        W 3960   7.791   6.995   3.305  0.0751  0.1677  0.0918
  442W        W 3961   4.596   2.943  11.410 -0.0214  0.1185  0.2650
  443W        W 3962   9.063   3.797   9.191  0.1525 -0.0451  0.1893
  444W        W 3963   2.353   0.049   0.398 -0.1624 -0.1472 -0.0121
  445W        W 3964   3.785   3.679   2.207 -0.1954  0.0263 -0.3691
  446W        W 3965   3.667   9.635  11.421  0.3268  0.1922  0.0240
  447W        W 3966   7.856   5.333   3.008 -0.1378 -0.0781  0.1609
  448W        W 3967   5.719   3.143  10.092  0.1337 -0.0048  0.1606
  449W        W 3968   5.616   1.568  10.005  0.0755  0.0686 -0.0132
  450W        W 3969   5.111   5.073   9.422 -0.2794  0.2308  0.0322
  451W        W 3970   6.264   3.423  11.808  0.1320 -0.1783  0.2162
  452W        W 3971   0.580   6.050   9.881 -0.0854 -0.2784  0.1731
  453W        W 3972   0.804   3.434   1.797  0.0459  0.1662  0.0765
  454W        W 3973   1.648   5.751   4.319 -0.3693 -0.4262 -0.1895
  455W        W 3974   7.544   2.266   4.137  0.1170 -0.0259 -0.1413
  456W        W 3975   5.794   0.377  12.505  0.4009  0.2786  0.0184
  457W        W 3976   0.344   8.392   2.428 -0.0149 -0.1220 -0.2283
  458W        W 3977   5.793   5.346   1.844 -0.0095 -0.1353 -0.0298
  459W        W 3978   8.425   6.879   1.759  0.1904 -0.0547  0.3281
  460W        W 3979   5.134   2.134   1.728 -0.0964  0.1372 -0.0410
  461W        W 3980   0.658   7.605   1.041  0.3110 -0.0025  0.1202
  462W        W 3981   0.232   2.887   3.831 -0.1326  0.3483 -0.3681
  463W        W 3982   2.475   9.027  12.136  0.1669 -0.0925 -0.0957
  464W        W 3983   9.424   0.260   0.834 -0.1894 -0.0641 -0.1461
  465W        W 3984   9.092   0.322  10.655 -0.0105 -0.0555  0.0717
  466W        W 3985   9.433   7.420   3.618  0.1886  0.1198 -0.1932
  467W        W 3986   7.244   4.953   1.020 -0.1355 -0.1120  0.3146
  468W        W 3987   2.357   3.789   3.483  0.1227  0.0062  0.3568
  469W        W 3988   3.333   4.607   4.968  0.0539 -0.0832  0.0748
  470W        W 3989   0.285   5.543   9.747  0.0024  0.1931  0.2054
  471W        W 3990   1.288   7.185   0.028  0.1570  0.0483  0.0004
  472W        W 3991   0.073   0.076   2.818 -0.0611  0.4028  0.1388
  473W        W 3992   8.666   3.011  10.848 -0.0692  0.2461 -0.0726
  474W        W 3993   7.380   9.100   9.562  0.3174 -0.0910 -0.0475
  475W        W 3994   1.291   5.748  10.952  0.2242  0.1770  0.3308
  476W        W 3995   7.894   2.354   2.146  0.0996  0.1707  0.2831
  477W        W 3996   0.733   7.810   9.788 -0.0461 -0.0775  0.0751
  478W        W 3997   0.290   7.510   4.601 -0.0986  0.0289 -0.1885
  479W        W 3998   9.390   3.308   1.974 -0.0922 -0.1299  0.4527
  480W        W 3999   0.528   3.735  10.922 -0.3909  0.1321  0.0337
  481W        W 4000   2.199   1.727   0.497 -0.1016  0.6060 -0.1912
  482W        W 4001   4.369   4.822   2.725 -0.0988  0.0653  0.1340
  483W        W 4002   4.402   1.923   8.785 -0.0390 -0.1813 -0.1523
  484W        W 4003   6.885   3.953  12.498 -0.0698 -0.1438 -0.1305
  485W        W 4004   3.490   0.558   2.532 -0.2990 -0.0434  0.0411
  486W        W 4005   2.284   8.107   0.687 -0.2430  0.1511 -0.1447
  487W        W 4006   7.493   5.299   9.044  0.6300  0.1395 -0.0747
  488W        W 4007   7.629   9.378   2.183 -0.0929 -0.2216  0.2567
  489W        W 4008   9.612   1.194  10.387  0.1967  0.1990  0.0370
  490W        W 4009   1.764   0.422   3.086 -0.2253 -0.2272 -0.1366
  491W        W 4010   2.439   5.302   8.628  0.1438  0.3881  0.0361
  492W        W 4011   1.536   8.201   1.592 -0.1108 -0.4320 -0.2034
  493W        W 4012   3.425   1.822   8.576  0.1956  0.2036  0.1453
  494W        W 4013   7.738   8.502  10.129  0.0443 -0.0381 -0.2943
  495W        W 4014   1.891   2.070   8.809 -0.3597 -0.1111 -0.0074
  496W        W 4015   3.472   8.690   9.142 -0.0728  0.1203 -0.2232
  497W        W 4016   5.428   1.737   8.813  0.2300  0.3728 -0.1501
  498W        W 4017   6.413   6.569   0.649 -0.1071  0.0123  0.1023
  499W        W 4018   5.935   3.854   0.823  0.2455 -0.2110 -0.3504
  500W        W 4019   2.945   5.630   9.646  0.1325  0.3294  0.0040
  501W        W 4020   2.112   3.169   0.600 -0.1472 -0.1803 -0.0008
  502W        W 4021   5.361   1.303   9.609  0.0206 -0.0753  0.3132
  503W        W 4022   0.402   0.622   2.535  0.3782 -0.0634  0.3502
  504W        W 4023   4.222   2.985   0.320  0.0117 -0.1908  0.2440
  505W        W 4024   1.645   0.498   3.596  0.1343 -0.1691 -0.1925
  506W        W 4025   2.548   7.294  10.791  0.1961 -0.0853 -0.0607
  507W        W 4026   0.471   6.247   1.642  0.3367  0.0423 -0.0727
  508W        W 4027   4.432   5.294   8.572  0.2715 -0.0687 -0.0963
  509W        W 4028   2.026   8.936  12.353 -0.0805  0.2332 -0.0469
  510W        W 4029   5.597   7.176   3.189 -0.1661 -0.1259  0.2221
  511W        W 4030   2.812   6.627   9.846 -0.1977  0.0018 -0.3407
  512W        W 4031   2.782   4.995   2.177  0.7580 -0.0978 -0.1696
  513W        W 4032   3.119   0.954   9.416 -0.2174  0.0962  0.2068
  514W        W 4033   6.392   8.875   0.716  0.1844  0.0961  0.0242
  515W        W 4034   3.116   9.150   4.512 -0.0844 -0.2022  0.0455
  516W        W 4035   7.313   2.257   1.603  0.2087 -0.1660 -0.0144
  517W        W 4036   7.980   1.792  10.729  0.0395  0.1735  0.0556
  518W        W 4037   4.264   4.829   9.304  0.2630  0.1684  0.1566
  519W        W 4038   5.771   0.235   0.489 -0.1071  0.1903 -0.1033
  520W        W 4039   4.425   5.780   8.841 -0.1203  0.1721 -0.0131
  521W        W 4040   6.401   8.685   4.393 -0.0194 -0.2337 -0.1448
  522W        W 4041   8.420   5.748   3.700 -0.0081 -0.1854 -0.3951
  523W        W 4042   2.699   0.024   2.257  0.5859 -0.0214  0.0397
  524W        W 4043   2.050   8.046   1.543  0.0912  0.0138  0.0035
  525W        W 4044   8.427   3.180   2.517 -0.0182  0.0372  0.4396
  526W        W 4045   0.948   8.396   8.486 -0.3578  0.0739 -0.1213
  527W        W 4046   9.247   7.473   1.568 -0.1596  0.1038  0.0775
  528W        W 4047   9.367   3.859   0.543 -0.0925  0.2376  0.4061
  529W        W 4048   2.988   3.588   4.740 -0.3271 -0.2926 -0.2089
  530W        W 4049   8.076   3.534   2.374  0.2107  0.2047 -0.1418
  531W        W 4050   0.243   2.026   1.476  0.0270  0.0763  0.0087
  532W        W 4051   7.164   8.912  10.114  0.1015  0.2168  0.2023
  533W        W 4052   5.036   1.212   0.260  0.1167 -0.1447  0.2370
  534W        W 4053   5.670   9.321   8.841  0.1103  0.2528  0.0905
  535W        W 4054   1.263   5.923   4.683 -0.3587 -0.0299  0.1432
  536W        W 4055   7.838   7.436   9.511 -0.0694 -0.1218  0.1734
  537W        W 4056   5.335   9.121  12.228 -0.0486 -0.1226  0.1512
  538W        W 4057   9.310   2.674   1.712  0.0973  0.1228 -0.3900
  539W        W 4058   0.833   2.962   1.982  0.0074 -0.0273  0.0794
  540W        W 4059   5.445   8.852   2.055 -0.0968 -0.1711 -0.1954
  541W        W 4060   5.429   1.899  10.910  0.0739 -0.1530 -0.3945
  542W        W 4061   7.305   7.390  11.967  0.0967  0.1408 -0.0451
  543W        W 4062   3.339   2.951  11.431 -0.2842  0.1909  0.3669
  544W        W 4063   5.732   2.501   8.992  0.0030  0.0257 -0.1637
  545W        W 4064   5.111   0.887   9.771 -0.1308 -0.1491  0.0684
  546W        W 4065   7.889   4.403   1.325  0.0169  0.1350  0.0293
  547W        W 4066   4.692   7.900   2.845  0.1631  0.0143  0.0315
  548W        W 4067   1.114   4.944  10.131 -0.0645 -0.1730 -0.2816
  549W        W 4068   0.177   4.384   2.962  0.2236  0.0309 -0.0164
  550W        W 4069   3.251   2.345   8.408  0.1349  0.0103 -0.1030
  551W        W 4070   0.296   5.906   0.634  0.0612 -0.1852 -0.1087
  552W        W 4071   4.119   3.136  10.139 -0.4846  0.1003 -0.1163
  553W        W 4072   6.658   7.985  11.491 -0.0422 -0.1108 -0.3107
  554W        W 4073   9.133   6.663   4.032  0.1435  0.2152 -0.0332
  555W        W 4074   4.782   5.343   2.361 -0.2284 -0.0492 -0.0750
  556W        W 4075   6.412   9.333   0.247  0.1128  0.1190 -0.0374
  557W        W 4076   1.282   6.833  12.217 -0.2370  0.0629 -0.0845
  558W        W 4077   3.223   8.916   2.604  0.0617 -0.2062 -0.0638
  559W        W 4078   9.632   8.648  10.964  0.0641  0.2777 -0.3449
  560W        W 4079   5.285   3.295  10.310  0.0542  0.0211  0.2067
  561W        W 4080   2.200   8.616   0.701 -0.2165 -0.1180 -0.2329
  562W        W 4081   3.792   3.463   8.143  0.3734 -0.0593 -0.2140
  563W        W 4082   6.798   8.519   0.460 -0.0144  0.0804 -0.0788
  564W        W 4083   7.113   6.445  12.135  0.3731 -0.0105  0.3915
  565W        W 4084   0.465   7.301   3.835 -0.0327  0.1232  0.2156
  566W        W 4085   0.362   3.329   2.128 -0.1739 -0.0246 -0.0873
  567W        W 4086   9.595   3.606   2.440 -0.0602  0.0297  0.3296
  568W        W 4087   2.495   1.196   0.464  0.0018  0.3083  0.0329
  569W        W 4088   2.087   2.870   9.000  0.0584  0.0998  0.1653
  570W        W 4089   9.422   3.688  11.190 -0.0917 -0.2451  0.0036
  571W        W 4090   0.978   2.659  10.887 -0.0632 -0.0507  0.2144
  572W        W 4091   6.573   4.903   2.235 -0.0141  0.1590 -0.0540
  573W        W 4092   9.066   6.186   3.786  0.1888  0.3039 -0.3448
  574W        W 4093   5.629   6.667  10.688 -0.1072 -0.1511 -0.1475
  575W        W 4094   7.853   2.120   2.589 -0.0384 -0.0264  0.0042
  576W        W 4095   5.588   8.361   3.443 -0.1288 -0.0370 -0.0205
  577W        W 4096   6.122   9.638   0.748 -0.1017 -0.2224 -0.2599
  578W        W 4097   3.290   4.790   2.181  0.2127  0.0749 -0.2510
  579W        W 4098   4.708   4.422   0.172 -0.1534 -0.0399  0.1294
  580W        W 4099   1.037   1.764   9.939  0.0093  0.1124 -0.1477
  581W        W 4100   8.154   1.550  12.106 -0.2347  0.2119 -0.0505
  582W        W 4101   9.544   1.418   3.254 -0.2231  0.0719 -0.2138
  583W        W 4102   8.602   2.137  11.433  0.2552  0.3060 -0.0622
  584W        W 4103   0.706   2.590   0.222  0.3351  0.2517 -0.3302
  585W        W 4104   4.967   9.579   0.614 -0.2972  0.1906  0.0473
  586W        W 4105   7.677   3.555  12.027  0.3183 -0.0293 -0.2057
  587W        W 4106   4.438   9.542  12.045  0.2357 -0.0713 -0.0867
  588W        W 4107   6.260   7.167   9.031 -0.0502  0.2287 -0.2293
  589W        W 4108   7.396   7.640   3.490 -0.4386 -0.1386 -0.0713
  590W        W 4109   2.663   9.240  10.745 -0.0305 -0.0507 -0.1414
  591W        W 4110   4.636   6.278   1.912 -0.1172 -0.5990  0.0075
  592W        W 4111   5.286   3.202  10.812 -0.3064 -0.1613  0.1988
  593W        W 4112   7.852   1.310  10.585 -0.0543  0.2264 -0.1345
  594W        W 4113   8.055   5.560  11.266  0.1251  0.3650  0.1256
  595W        W 4114   8.010   9.545   1.201 -0.1467  0.3014 -0.0798
  596W        W 4115   8.364   0.592  11.863 -0.2168  0.0575 -0.1094
  597W        W 4116   7.372   3.835   0.627  0.0440 -0.2174  0.0798
  598W        W 4117   8.664   6.008   2.062  0.2096 -0.0492 -0.0989
  599W        W 4118   4.155   2.595  10.889  0.1055  0.0064 -0.0190
  600W        W 4119   6.270   1.677   2.400 -0.1369 -0.2924 -0.0668
  601W        W 4120   2.248   9.535   2.326  0.2625 -0.0419 -0.1859
  602W        W 4121   6.971   5.808   0.484 -0.0841  0.0493 -0.1008
  603W        W 4122   8.804   4.463   4.206  0.1817 -0.1981 -0.1681
  604W        W 4123   2.995   6.481   0.924 -0.0348 -0.2977 -0.0977
  605W        W 4124   0.488   2.237   9.808 -0.5440 -0.3471 -0.0460
  606W        W 4125   1.108   5.997   0.856  0.3549 -0.3305 -0.0251
  607W        W 4126   0.052   5.218   4.854 -0.0050  0.0386  0.1846
  608W        W 4127   9.253   8.735  10.185 -0.1935  0.0064 -0.1711
  609W        W 4128   3.070   2.424   2.733 -0.2461 -0.4573  0.1172
  610W        W 4129   5.619   8.158   4.017  0.1027 -0.1317  0.1220
  611W        W 4130   4.938   5.713  11.744 -0.1329 -0.1713  0.3382
  612W        W 4131   5.960   0.457   0.892 -0.1731  0.0436  0.2086
  613W        W 4132   4.870   4.055   2.344 -0.1439 -0.0088  0.1140
  614W        W 4133   5.542   7.243   1.182 -0.0239  0.2034  0.1936
  615W        W 4134   6.627   6.233   9.601  0.2717  0.3957 -0.2375
  616W        W 4135   4.181   2.665   2.587  0.0054  0.0882  0.0563
  617W        W 4136   2.295   4.276   3.998  0.0627  0.0355 -0.1627
  618W        W 4137   7.659   1.393   1.327 -0.2505 -0.0424  0.1533
  619W        W 4138   4.765   9.404  12.380 -0.0816 -0.2869  0.0635
  620W        W 4139   2.508   5.546   2.531 -0.0163 -0.0203 -0.1040
  621W        W 4140   9.072   2.135   0.479  0.1482 -0.4183  0.2644
  622W        W 4141   1.063   4.011   3.743  0.0668 -0.3337  0.0436
  623W        W 4142   1.632   6.970  11.859 -0.6325 -0.0880 -0.0708
  624W        W 4143   9.164   7.472   9.536  0.0953 -0.0065  0.1009
  625W        W 4144   0.875   3.425   1.303  0.3644  0.1559 -0.0912
  626W        W 4145   9.407   1.456  11.742 -0.1146 -0.2079  0.1163
  627W        W 4146   1.275   5.474   1.172 -0.1058  0.3270  0.0141
  628W        W 4147   9.114   3.697  12.159  0.2855 -0.0409 -0.0487
  629W        W 4148   6.447   1.627  11.294  0.0989  0.0286  0.1367
  630W        W 4149   1.041   2.153   0.796  0.1516  0.1185 -0.1756
  631W        W 4150   0.512   1.405   0.248 -0.1965 -0.1489  0.0777
  632W        W 4151   5.192   8.599   9.185  0.3206 -0.1019  0.1377
  633W        W 4152   6.416   1.186   9.732 -0.1515  0.0926  0.1863
  634W        W 4153   1.045   3.601   9.799  0.1994  0.0492  0.0752
  635W        W 4154   4.641   8.832   0.923 -0.2979  0.2203 -0.0888
  636W        W 4155   7.636   4.160   1.652  0.0240 -0.1121 -0.0564
  637W        W 4156   3.585   6.947   3.924  0.0237  0.0572 -0.0523
  638W        W 4157   2.469   1.238  12.298  0.0201 -0.0542 -0.1763
  639W        W 4158   5.082   6.571   1.171 -0.0950 -0.3758 -0.2961
  640W        W 4159   1.438   6.337   0.673 -0.0762 -0.0773 -0.0123
  641W        W 4160   5.941   8.518  11.103  0.3748 -0.1599 -0.0651
  642W        W 4161   2.385   4.788   3.858  0.0315  0.1061 -0.0647
  643W        W 4162   4.806   3.888   8.627 -0.0141 -0.1279 -0.1043
  644W        W 4163   6.215   6.464   1.491  0.1593 -0.1451 -0.1008
  645W        W 4164   8.657   3.902  12.194  0.0282  0.1063 -0.1079
  646W        W 4165   3.487   2.926   1.642  0.1039 -0.2888 -0.2273
  647W        W 4166   1.821   7.634   0.610 -0.2045 -0.0094  0.0845
  648W        W 4167   5.886   3.463   3.142  0.0642 -0.0799 -0.1113
  649W        W 4168   3.851   7.293   1.079  0.0696 -0.0440  0.0263
  650W        W 4169   1.928   6.608   0.139  0.3190 -0.0362  0.1401
  651W        W 4170   4.669   8.320   0.912  0.0711 -0.2283 -0.0145
  652W        W 4171   2.570   1.056   4.548  0.0013 -0.0814 -0.0548
  653W        W 4172   1.643   4.809  12.092 -0.3376  0.1060 -0.0121
  654W        W 4173   3.032   4.607   0.021 -0.1995  0.0054  0.1552
  655W        W 4174   0.428   6.036  12.141  0.0242 -0.0537  0.0570
  656W        W 4175   5.240   2.587   1.327  0.1440 -0.2335  0.1105
  657W        W 4176   8.701   8.234   3.477 -0.2768  0.1427  0.1123
  658W        W 4177   6.950   6.936  10.389  0.0555  0.0636  0.1911
  659W        W 4178   6.933   8.435  10.062  0.2064  0.0035  0.0292
  660W        W 4179   8.653   4.243  11.858  0.1301 -0.0638 -0.1656
  661W        W 4180   8.258   9.028  12.236 -0.0998  0.4193  0.0117
  662W        W 4181   0.497   9.663   1.985  0.0526 -0.2003  0.1727
  663W        W 4182   2.428   4.337   4.865 -0.0794 -0.1641  0.2169
  664W        W 4183   0.360   5.346   2.287  0.2167 -0.2113  0.0781
  665W        W 4184   2.221   4.607  11.882 -0.0974  0.2436 -0.2958
  666W        W 4185   4.897   7.570  11.796 -0.0170 -0.3737  0.3703
  667W        W 4186   5.832   9.229   1.262 -0.1105 -0.1453  0.0674
  668W        W 4187   4.312   8.416  11.564  0.1366  0.1951 -0.2758
  669W        W 4188   3.131   9.697   3.160  0.0954 -0.0669  0.0260
  670W        W 4189   8.996   7.083  11.651 -0.0354 -0.2080  0.0954
  671W        W 4190   7.031   3.548  12.232  0.1604  0.0928 -0.0036
  672W        W 4191   9.475   0.479   3.683 -0.1917  0.1572 -0.2223
  673W        W 4192   6.163   9.424   1.771 -0.0200  0.1055 -0.0273
  674W        W 4193   6.973   8.583   2.273  0.2086 -0.1933  0.0633
  675W        W 4194   4.984   4.788  12.395  0.0734 -0.0189  0.0573
  676W        W 4195   8.682   6.982  10.119  0.2337 -0.0258 -0.2238
  677W        W 4196   5.673   8.356   8.306 -0.0088  0.0558  0.1624
  678W        W 4197   8.452   3.320   2.022  0.2484 -0.1089  0.0382
  679W        W 4198   8.553   2.815   9.913 -0.2944  0.0849  0.0714
  680W        W 4199   4.591   8.629   1.371 -0.0581 -0.0789  0.0786
  681W        W 4200   0.270   1.534   2.356 -0.3644  0.2263 -0.1483
  682W        W 4201   9.057   8.600   2.460 -0.2607 -0.1356 -0.0760
  683W        W 4202   0.171   6.008  11.735  0.1650 -0.1636  0.0851
  684W        W 4203   7.040   3.388  10.328  0.0273 -0.1072  0.0793
  685W        W 4204   3.494   8.385   2.766 -0.0046 -0.2251  0.1587
  686W        W 4205   5.060   0.574   1.101 -0.3154  0.1801 -0.2694
  687W        W 4206   1.441   6.690   0.280  0.4391  0.1984  0.1446
  688W        W 4207   5.954   7.541   9.153  0.1139 -0.1086  0.1028
  689W        W 4208   8.907   4.627   8.965  0.3429  0.2389  0.0772
  690W        W 4209   7.106   7.693   0.769 -0.0414  0.0600  0.0283
  691W        W 4210   6.647   1.625   9.898 -0.2143  0.2516 -0.1481
  692W        W 4211   0.821   8.394   3.833  0.0570  0.1717 -0.0520
  693W        W 4212   4.660   6.187  12.254  0.1244  0.1657 -0.2097
  694W        W 4213   8.450   0.752  11.416  0.0875  0.1139 -0.0243
  695W        W 4214   1.038   0.666   9.547 -0.2011  0.2695 -0.1944
  696W        W 4215   2.724   6.261   8.861  0.4067 -0.0230 -0.2607
  697W        W 4216   1.608   1.281  11.833 -0.1248  0.0126  0.2175
  698W        W 4217   6.523   4.552   0.961 -0.0330  0.1936  0.2684
  699W        W 4218   1.289   2.471   8.518 -0.1032  0.2320 -0.0891
  700W        W 4219   0.131   9.057  10.024 -0.0656  0.1875  0.2689
  701W        W 4220   9.217   7.039   9.714  0.2823  0.3852 -0.1189
  702W        W 4221   8.893   3.600   9.889  0.0435  0.1567 -0.3611
  703W        W 4222   1.087   2.422  11.851 -0.0513 -0.0635 -0.0762
  704W        W 4223   1.078   2.224   2.796  0.0667 -0.0564 -0.0242
  705W        W 4224   4.224   1.742  12.017  0.2211 -0.0971 -0.1433
  706W        W 4225   5.008   4.030   0.031  0.4541 -0.0824  0.1406
  707W        W 4226   8.204   2.916  11.518  0.0757 -0.0827  0.3245
  708W        W 4227   3.548   6.093   5.112 -0.2069 -0.0168 -0.1287
  709W        W 4228   6.566   2.675   9.016  0.2408 -0.1223 -0.0120
  710W        W 4229   5.450   4.123   3.564 -0.2018  0.1184  0.3604
  711W        W 4230   2.803   6.468   5.108 -0.0694 -0.2078 -0.4405
  712W        W 4231   6.610   7.911  10.859 -0.2460  0.1750 -0.1403
  713W        W 4232   6.789   3.416   9.817 -0.1552  0.0447 -0.3442
  714W        W 4233   2.283   2.868   3.134  0.1517 -0.2976 -0.1897
  715W        W 4234   6.670   4.562   2.670  0.1664 -0.1292 -0.0937
  716W        W 4235   6.702   7.576   9.634  0.3130  0.0377  0.1146
  717W        W 4236   9.549   7.074   1.315  0.1334  0.1713 -0.0830
  718W        W 4237   7.642   6.195   1.695  0.0819 -0.0888  0.1713
  719W        W 4238   8.462   4.575  11.385 -0.3512 -0.1649  0.0715
  720W        W 4239   1.243   0.207   9.285 -0.0670 -0.0257 -0.0259
  721W        W 4240   1.875   9.021   0.712  0.0867 -0.2415  0.0954
  722W        W 4241   7.417   0.632  10.193  0.1674 -0.3688  0.1999
  723W        W 4242   7.286   9.545  12.473 -0.1120 -0.1370  0.2433
  724W        W 4243   6.848   2.693   0.502 -0.4307 -0.0638  0.1933
  725W        W 4244   5.460   1.015  10.829  0.0721 -0.1574 -0.1610
  726W        W 4245   0.947   1.738   1.102 -0.0910  0.0796 -0.1242
  727W        W 4246   3.005   8.324  11.976 -0.1906 -0.2247 -0.0326
  728W        W 4247   5.717   5.655   3.988  0.1043 -0.1163  0.0502
  729W        W 4248   8.158   4.335   1.758  0.2298 -0.4101 -0.3197
  730W        W 4249   5.441   3.380   2.901  0.0722 -0.4934  0.1281
  731W        W 4250   9.328   8.584   2.875  0.2003  0.1111  0.0680
  732W        W 4251   9.574   8.205   3.083 -0.0959  0.0929  0.0253
  733W        W 4252   3.814   4.860   1.592 -0.0643 -0.2230 -0.0553
  734W        W 4253   6.336   1.154  11.423  0.2698  0.0266 -0.2223
  735W        W 4254   6.349   0.085   9.161 -0.1843 -0.2717  0.0112
  736W        W 4255   2.793   2.158   2.388  0.0487 -0.0247 -0.2512
  737W        W 4256   0.908   5.383  11.032 -0.3698 -0.2644 -0.0499
  738W        W 4257   7.504   5.383  11.108  0.1442 -0.0487  0.2453
  739W        W 4258   9.652   4.682   9.602  0.1065  0.2145 -0.0640
  740W        W 4259   6.985   2.748  11.544  0.4263 -0.0260  0.0844
  741W        W 4260   9.065   2.714  12.067 -0.0050  0.3518  0.1434
  742W        W 4261   2.879   5.259   3.236 -0.3076 -0.1060  0.0472
  743W        W 4262   3.117   8.527   2.241 -0.1123 -0.0966 -0.0010
  744W        W 4263   7.622   2.097   1.200  0.2703 -0.0565  0.1148
  745W        W 4264   5.150   8.095   3.349 -0.1184 -0.3145  0.1959
  746W        W 4265   6.838   5.986   2.355  0.3430 -0.0915 -0.2346
  747W        W 4266   9.539   8.537   2.337  0.2810 -0.1508  0.1442
  748W        W 4267   2.864   2.827  11.490  0.0138 -0.1127  0.0289
  749W        W 4268   1.257   7.627  11.231  0.1897 -0.0033  0.0970
  750W        W 4269   1.977   0.708   2.711  0.0409  0.0380 -0.3436
  751W        W 4270   4.945   5.824   9.075 -0.1379 -0.2824 -0.1740
  752W        W 4271   0.949   3.130   3.280  0.4229  0.1475 -0.6220
  753W        W 4272   0.787   8.138   2.177 -0.0731 -0.1133 -0.1988
  754W        W 4273   6.838   9.569   0.152 -0.0317 -0.0948 -0.2653
  755W        W 4274   7.514   8.261   1.266  0.0114 -0.3693 -0.3046
  756W        W 4275   5.531   4.995   9.167  0.1800 -0.0744  0.0753
  757W        W 4276   2.203   0.164  11.102 -0.3545  0.2000 -0.2131
  758W        W 4277   3.384   6.154   2.689 -0.0103 -0.0791 -0.3458
  759W        W 4278   9.645   3.961   8.935 -0.0149  0.0041  0.2697
  760W        W 4279   0.724   3.715   3.981 -0.0584 -0.2335  0.4067
  761W        W 4280   2.746   5.126  10.653 -0.1916  0.0915  0.1765
  762W        W 4281   7.927   0.250   3.358 -0.0808  0.3433 -0.3164
  763W        W 4282   6.658   5.211  11.741 -0.2024 -0.2516  0.1048
  764W        W 4283   7.750   5.370   4.516  0.0046  0.0560  0.0318
  765W        W 4284   8.861   5.932   9.741  0.3398 -0.0888 -0.3217
  766W        W 4285   0.711   6.652  10.856 -0.2738  0.0359  0.2866
  767W        W 4286   2.634   4.107   9.335  0.4073  0.1496  0.0143
  768W        W 4287   4.506   6.665   8.924  0.1271 -0.4410  0.2209
  769W        W 4288   4.331   2.203   0.690 -0.0008  0.1851  0.1139
  770W        W 4289   3.391   2.236   9.846 -0.0140  0.0887  0.1668
  771W        W 4290   4.606   8.971   3.088  0.2411  0.1143  0.1013
  772W        W 4291   1.456   2.521   0.142  0.1508 -0.2250  0.2067
  773W        W 4292   6.661   9.517  10.442  0.1443 -0.0126  0.2123
  774W        W 4293   5.361   3.161  11.381  0.2315 -0.0498  0.0755
  775W        W 4294   1.527   4.250  11.208 -0.0571 -0.2439 -0.1477
  776W        W 4295   5.801   8.471   9.034  0.0591  0.3021  0.1944
  777W        W 4296   4.850   2.800   1.062 -0.1329 -0.2051 -0.1465
  778W        W 4297   6.076   6.988   1.338 -0.0536  0.0416 -0.0696
  779W        W 4298   2.867   1.936  11.257  0.0180 -0.0031  0.2701
  780W        W 4299   7.606   3.896  11.627  0.2063 -0.0363 -0.1189
  781W        W 4300   3.563   9.170   0.544 -0.2850  0.3952 -0.0553
  782W        W 4301   8.575   9.482  12.226  0.1702 -0.1669 -0.1870
  783W        W 4302   4.257   7.082   0.792  0.2173 -0.0014 -0.2903
  784W        W 4303   2.786   4.638  10.518  0.2199  0.2168  0.0176
  785W        W 4304   7.695   2.780  12.091 -0.2964  0.1508  0.1047
  786W        W 4305   0.539   9.356  10.733 -0.1783 -0.0172 -0.0429
  787W        W 4306   2.147   2.031   4.109 -0.1945 -0.0301 -0.1035
  788W        W 4307   4.107   6.287   1.981  0.1626 -0.2259  0.1660
  789W        W 4308   5.546   9.425   4.494  0.1209 -0.0595 -0.0243
  790W        W 4309   3.105   3.629   8.588 -0.0784 -0.2120 -0.0507
  791W        W 4310   4.008   1.934   0.976 -0.1485  0.1550 -0.2997
  792W        W 4311   2.220   3.005   3.662 -0.1148 -0.0961 -0.1098
  793W        W 4312   5.934   7.202   2.770 -0.3026  0.1389 -0.2322
  794W        W 4313   4.896   6.851   1.968  0.2673  0.0161  0.1066
  795W        W 4314   2.264   8.984   0.391 -0.1702  0.0125 -0.0721
  796W        W 4315   6.443   0.220   8.479 -0.1505 -0.0139 -0.0167
  797W        W 4316   8.826   2.218   2.295 -0.3245  0.2018 -0.1701
  798W        W 4317   8.193   9.291   3.497  0.3524 -0.0990 -0.0639
  799W        W 4318   1.151   1.477  11.852 -0.0898  0.1499  0.0175
  800W        W 4319   7.532   9.701   3.532 -0.1994 -0.0500 -0.2041
  801W        W 4320   7.428   9.477   9.909 -0.2268 -0.0987 -0.0245
  802W        W 4321   4.271   6.552   3.293  0.1320  0.3521 -0.0836
  803W        W 4322   1.143   5.088   1.561 -0.3275 -0.1337 -0.2513
  804W        W 4323   3.781   9.693   1.993  0.0589  0.0292 -0.2669
  805W        W 4324   5.954   3.949   3.210  0.1707 -0.1501  0.0959
  806W        W 4325   0.986   2.433   8.967 -0.1381 -0.0773 -0.0205
  807W        W 4326   2.980   9.291  12.410 -0.1766 -0.0072  0.0457
  808W        W 4327   0.510   8.254   8.785  0.0768 -0.1420  0.2797
  809W        W 4328   1.499   1.312   2.014 -0.1674 -0.0144  0.0174
  810W        W 4329   3.865   3.670   0.257  0.0918  0.0208  0.0117
  811W        W 4330   1.624   3.705   1.112 -0.0351  0.1106 -0.1499
  812W        W 4331   9.243   6.986  12.313 -0.1120  0.0946  0.2688
  813W        W 4332   6.296   7.591  11.296 -0.0765  0.0092  0.0938
  814W        W 4333   1.100   8.948   1.542 -0.1715  0.2970 -0.0398
  815W        W 4334   6.230   1.264   1.281  0.0085  0.3046 -0.1242
  816W        W 4335   2.695   2.058  10.283 -0.0965  0.0771 -0.0357
  817W        W 4336   1.707   1.353   3.127  0.0760 -0.2814 -0.2764
  818W        W 4337   0.520   1.484   0.905 -0.3401  0.0654  0.2082
  819W        W 4338   8.188   2.043  12.282 -0.0877  0.0442 -0.0144
  820W        W 4339   0.450   7.699  11.661 -0.2390 -0.0109  0.1608
  821W        W 4340   2.299   8.699   2.090 -0.1640 -0.0195  0.0117
  822W        W 4341   8.399   7.363  10.412 -0.3352  0.0397 -0.2680
  823W        W 4342   4.065   0.585   0.628 -0.1238 -0.2466  0.0432
  824W        W 4343   4.544   5.939   0.176 -0.0035  0.2368 -0.5647
  825W        W 4344   6.641   7.837  12.154  0.1938 -0.0088  0.0321
  826W        W 4345   3.384   2.617   2.023  0.3246 -0.2297  0.1510
  827W        W 4346   7.204   5.921  10.376 -0.0925 -0.2721  0.1320
  828W        W 4347   5.998   5.297   0.603 -0.1398  0.1113 -0.3314
  829W        W 4348   5.162   2.054  11.597  0.0920 -0.0586  0.2031
  830W        W 4349   8.255   0.669   3.493 -0.0424 -0.2535  0.2660
  831W        W 4350   9.286   0.157   8.540  0.0629 -0.0619 -0.0115
  832W        W 4351   5.379   5.309   4.279 -0.3653 -0.2202  0.2656
  833W        W 4352   8.098   3.103   0.402 -0.1966  0.0001 -0.3312
  834W        W 4353   0.329   6.684   3.985 -0.2470 -0.1530  0.2171
  835W        W 4354   9.607   7.186  11.055  0.0980  0.1495  0.2694
  836W        W 4355   8.780   1.982  10.014  0.0445  0.1883  0.1498
  837W        W 4356   4.739   0.600   8.586  0.0054  0.0994 -0.2081
  838W        W 4357   8.527   6.734   0.365  0.2033  0.0126  0.1007
  839W        W 4358   2.013   9.643  11.467  0.0732  0.1118  0.1240
  840W        W 4359   0.765   6.700  10.250 -0.1708  0.1741  0.3242
  841W        W 4360   7.430   3.186  12.401  0.1883 -0.0851 -0.3236
  842W        W 4361   0.884   5.069   0.513 -0.0336  0.0285 -0.1169
  843W        W 4362   7.746   3.116  10.742  0.4144 -0.0726 -0.3529
  844W        W 4363   7.209   6.549  11.588 -0.2230  0.1990  0.0467
  845W        W 4364   2.332   7.495  12.290  0.2721 -0.0415  0.1536
  846W        W 4365   7.887   5.036   5.131 -0.1809 -0.1182 -0.3306
  847W        W 4366   1.711   1.789   0.870  0.0511 -0.1291  0.0898
  848W        W 4367   8.141   6.575   9.312 -0.2112 -0.0460  0.0905
  849W        W 4368   8.256   5.275  10.855  0.0754  0.0650 -0.1445
  850W        W 4369   9.199   9.693   0.410  0.0863 -0.0059 -0.1260
  851W        W 4370   1.423   8.631  11.506  0.1369 -0.2101 -0.3487
  852W        W 4371   2.582   8.531  12.158  0.0124 -0.1349 -0.2380
  853W        W 4372   6.006   8.558   0.783  0.0925  0.3085  0.1088
  854W        W 4373   7.883   4.369   0.003  0.2396 -0.0931  0.2895
  855W        W 4374   6.409   3.662   3.276 -0.1322  0.0880  0.0397
  856W        W 4375   2.110   8.992   9.717 -0.1987 -0.1614 -0.0012
  857W        W 4376   7.551   6.973   1.392 -0.2644  0.0729 -0.1187
  858W        W 4377   2.961   2.000  11.725 -0.1356 -0.3986  0.3105
  859W        W 4378   2.077   0.158  10.664  0.1297 -0.0721 -0.1341
  860W        W 4379   5.467   5.472   9.603 -0.0060  0.3282  0.1118
  861W        W 4380   3.233   1.584   0.100  0.0927  0.0884 -0.0080
  862W        W 4381   9.191   7.213   2.637 -0.0479  0.4939  0.0131
  863W        W 4382   9.708   7.359   8.854 -0.0784  0.2861  0.0342
  864W        W 4383   1.075   7.894   0.220  0.1913 -0.2418 -0.1668
  865W        W 4384   6.600   1.504   2.738 -0.1120  0.0115  0.2266
  866W        W 4385   0.146   8.343   1.385  0.2635 -0.1112 -0.0519
  867W        W 4386   1.168   8.768   3.524  0.0950 -0.3195 -0.0116
  868W        W 4387   0.577   6.999  11.758  0.0444 -0.2364 -0.0082
  869W        W 4388   0.961   8.043   4.131 -0.1839  0.2081  0.0843
  870W        W 4389   2.700   1.156   9.626  0.3500  0.1925  0.1755
  871W        W 4390   7.402   9.560  11.178  0.1322 -0.1089  0.4282
  872W        W 4391   8.421   1.251  11.393 -0.0113  0.0968 -0.0057
  873W        W 4392   3.367   0.734   8.098 -0.1358  0.1483 -0.1640
  874W        W 4393   1.375   5.189   0.598  0.0110  0.0380 -0.0509
  875W        W 4394   9.635   0.583   8.788 -0.1276  0.1450  0.2689
  876W        W 4395   0.152   3.507   2.883 -0.2928 -0.3782 -0.2649
  877W        W 4396   2.074   3.232   2.900  0.0585 -0.1635 -0.1009
  878W        W 4397   5.213   0.786   8.749  0.1212 -0.2161  0.1171
  879W        W 4398   7.113   5.661  11.120 -0.0505 -0.2215 -0.1526
  880W        W 4399   6.674   6.668   2.959 -0.2028 -0.0553 -0.0559
  881W        W 4400   1.822   8.827   2.240 -0.3382  0.1612  0.3229
  882W        W 4401   4.767   0.003   9.162 -0.3552 -0.2322 -0.3321
  883W        W 4402   3.926   3.160   9.199  0.1761 -0.2591  0.1239
  884W        W 4403   9.274   6.806  10.749  0.0208  0.2852 -0.3157
  885W        W 4404   2.325   9.436   0.846  0.2102 -0.1053  0.2551
  886W        W 4405   0.157   6.695   4.534  0.1854  0.0241 -0.2531
  887W        W 4406   6.956   7.012   1.431 -0.1700  0.0930 -0.3209
  888W        W 4407   6.462   9.158  10.715  0.0679  0.0815 -0.1792
  889W        W 4408   5.231   4.454   9.339 -0.1974  0.1731  0.1574
  890W        W 4409   7.276   9.713  10.300  0.0419 -0.0525  0.0740
  891W        W 4410   8.103   9.546   9.313  0.0071 -0.0214  0.1098
  892W        W 4411   2.422   1.873   2.095  0.0355 -0.2559  0.1117
  893W        W 4412   1.883   7.308   8.729 -0.1185  0.2122 -0.0909
  894W        W 4413   4.223   6.043   0.906 -0.4123  0.0553 -0.4039
  895W        W 4414   6.178   7.715  12.334 -0.0656  0.1343  0.1344
  896W        W 4415   1.309   8.476   9.899 -0.1527  0.0504 -0.1795
  897W        W 4416   7.805   2.822   0.142 -0.0080  0.1871  0.2147
  898W        W 4417   9.593   3.959   1.579 -0.0352 -0.1351 -0.1793
  899W        W 4418   3.312   4.237   0.313  0.1948 -0.1939 -0.0295
  900W        W 4419   1.297   4.369   3.335 -0.0144  0.0297  0.1206
  901W        W 4420   4.217   7.586   1.474  0.3894 -0.0169 -0.2987
  902W        W 4421   6.030   6.810   1.794 -0.1546 -0.2746 -0.0059
  903W        W 4422   0.622   6.104   3.314  0.4896  0.2655 -0.0440
  904W        W 4423   7.877   8.423   1.645  0.1676 -0.3405  0.1695
  905W        W 4424   4.247   8.612   3.117  0.0153 -0.0370 -0.1276
  906W        W 4425   2.971   8.230   4.196  0.0983  0.0961 -0.1262
  907W        W 4426   1.778   7.131   9.749 -0.3674  0.2727 -0.5500
  908W        W 4427   1.539   7.995   3.913 -0.0272 -0.1857  0.1259
  909W        W 4428   3.115   7.764  10.038 -0.0877 -0.0835 -0.0828
  910W        W 4429   0.859   0.171  10.583  0.0260 -0.0149  0.1718
  911W        W 4430   3.101   7.912   3.364  0.0767  0.2977  0.0941
  912W        W 4431   2.486   8.798  10.023 -0.2805 -0.0544 -0.1449
  913W        W 4432   4.282   4.131  10.935  0.0325 -0.2191  0.0955
  914W        W 4433   4.243   3.580   0.998  0.0030  0.0830  0.2675
  915W        W 4434   5.593   6.915   9.409 -0.2314 -0.0118 -0.1365
  916W        W 4435   6.225   8.049   8.940  0.0076  0.0542 -0.2429
  917W        W 4436   4.138   4.266  12.499 -0.1462  0.1820  0.1971
  918W        W 4437   1.549   3.449  12.411  0.1782  0.1513 -0.3963
  919W        W 4438   5.886   7.037   0.916 -0.3837 -0.0032  0.1825
  920W        W 4439   3.137   9.603  11.513 -0.0030 -0.0607 -0.0418
  921W        W 4440   5.783   7.873  11.358 -0.0989  0.3778  0.2102
  922W        W 4441   6.422   2.625  10.261 -0.1104  0.2655  0.2842
  923W        W 4442   7.321   6.648  10.147 -0.0458  0.2002  0.2023
  924W        W 4443   3.613   6.296   8.959 -0.2132 -0.0498  0.2885
  925W        W 4444   3.685   0.889  12.368 -0.1420 -0.1438 -0.0605
  926W        W 4445   6.584   6.568  11.685 -0.1102  0.0973 -0.0560
  927W        W 4446   5.582   9.502   0.700  0.0524  0.0143 -0.0309
  928W        W 4447   2.761   9.702  11.060 -0.0751 -0.0637 -0.0057
  929W        W 4448   7.541   7.089   4.888  0.2519  0.0223 -0.1091
  930W        W 4449   9.603   1.546   1.477  0.1750 -0.0908 -0.1468
  931W        W 4450   3.855   4.056   4.249  0.1708  0.0302  0.2669
  932W        W 4451   5.074   9.155   3.318 -0.2205 -0.0825  0.2899
  933W        W 4452   2.467   4.314   3.566 -0.0723  0.0526  0.6761
  934W        W 4453   4.259   1.621   9.937 -0.5092  0.1790  0.0127
  935W        W 4454   7.087   9.165   1.422 -0.2403 -0.3985 -0.0776
  936W        W 4455   3.249   1.596   3.943 -0.0658  0.0383  0.1407
  937W        W 4456   9.707   2.149  10.491 -0.2400 -0.0906  0.0958
  938W        W 4457   5.893   1.493   3.300 -0.3851 -0.2381  0.2712
  939W        W 4458   0.142   5.662  10.778 -0.1541  0.3276 -0.2891
  940W        W 4459   6.915   6.327   0.520  0.0866 -0.0709  0.0077
  941W        W 4460   3.431   5.563  11.578 -0.1002 -0.0074 -0.1358
  942W        W 4461   9.317   6.432  12.460  0.0224  0.0586  0.2444
  943W        W 4462   2.729   8.342   9.909 -0.1026  0.4296  0.1422
  944W        W 4463   8.517   5.980  10.231  0.6124  0.0952  0.1426
  945W        W 4464   4.286   0.064   2.764 -0.0479 -0.2114  0.2879
  946W        W 4465   3.967   0.790  10.460 -0.2151  0.2534  0.2804
  947W        W 4466   3.413   8.152   8.813  0.2022 -0.0749 -0.0289
  948W        W 4467   4.621   6.828   3.623 -0.0900 -0.0545 -0.2185
  949W        W 4468   7.814   4.405   2.093  0.1820  0.1436 -0.1735
  950W        W 4469   1.457   0.002   3.460 -0.2898 -0.0256 -0.0826
  951W        W 4470   8.622   1.585   1.156  0.1123  0.1601 -0.1859
  952W        W 4471   0.268   8.153  11.054 -0.0002 -0.1737 -0.0648
  953W        W 4472   8.773   7.642   8.895  0.5107 -0.1909  0.0018
  954W        W 4473   6.367   8.843   8.352  0.1225 -0.2992  0.0173
  955W        W 4474   3.678   0.983  10.790  0.3946  0.0503  0.1752
  956W        W 4475   3.248   9.081   8.734  0.2147  0.1198 -0.0702
  957W        W 4476   0.307   7.301  11.326  0.2000 -0.1272  0.1021
  958W        W 4477   7.621   1.732  12.252  0.3668 -0.2860 -0.0179
  959W        W 4478   8.085   1.984   0.311 -0.1781  0.2177  0.0606
  960W        W 4479   0.114   9.261   1.576 -0.0816  0.0925  0.1409
  961W        W 4480   1.685   6.776   2.665 -0.2091 -0.0465 -0.1881
  962W        W 4481   7.510   4.655  10.884  0.3128 -0.4386  0.1894
  963W        W 4482   5.164   7.477   0.975  0.0540  0.3134 -0.4594
  964W        W 4483   2.220   6.614  10.029  0.1250 -0.1767 -0.2484
  965W        W 4484   6.866   7.928  10.264  0.1496 -0.0611  0.0563
  966W        W 4485   3.241   5.471   2.956  0.2633 -0.0693  0.2949
  967W        W 4486   1.550   0.301  11.945 -0.0210 -0.2167 -0.1541
  968W        W 4487   9.451   4.228   2.353 -0.1513  0.0375  0.0955
  969W        W 4488   4.476   1.950   0.033 -0.0427 -0.1055 -0.1592
  970W        W 4489   5.244   3.809   3.857 -0.1071 -0.1864  0.3193
  971W        W 4490   7.382   0.293   9.728 -0.2634  0.1991 -0.2332
  972W        W 4491   5.994   1.961  12.163 -0.0443  0.1194  0.4011
  973W        W 4492   9.004   7.635   2.748 -0.1006 -0.5582 -0.3038
  974W        W 4493   6.882   5.155   4.100 -0.0310  0.0691  0.2498
  975W        W 4494   2.569   6.541   2.534  0.0460 -0.2130 -0.0777
  976W        W 4495   6.650   8.533   9.619  0.2033 -0.0077 -0.0464
  977W        W 4496   3.347   5.632   3.420  0.0248 -0.2150  0.1476
  978W        W 4497   1.885   4.119   1.230  0.2406  0.0179 -0.2580
  979W        W 4498   0.655   2.421  11.660  0.2457 -0.3342  0.2912
  980W        W 4499   3.935   7.335   3.214 -0.0029  0.0336 -0.1753
  981W        W 4500   4.550   4.510  10.748 -0.2698 -0.0148 -0.0352
  982W        W 4501   5.002   0.349   0.567  0.4224  0.1121  0.2341
  983W        W 4502   6.815   6.019   0.085 -0.0664 -0.0591 -0.0568
  984W        W 4503   5.480   8.779  10.733 -0.0558 -0.3226 -0.1452
  985W        W 4504   4.001   0.708  11.292  0.0132 -0.4843  0.0499
  986W        W 4505   6.897   6.306   4.847 -0.1077 -0.1141 -0.0496
  987W        W 4506   8.449   4.799  11.820  0.1398  0.1958  0.1486
  988W        W 4507   2.862   6.758   0.090 -0.1797 -0.1126 -0.1391
  989W        W 4508   9.057   0.764   0.949 -0.2665 -0.0914 -0.0110
  990W        W 4509   2.919   1.680   2.093  0.2384  0.2582 -0.1182
  991W        W 4510   0.009   0.263   1.386  0.0257 -0.3586 -0.1211
  992W        W 4511   7.104   5.037   9.420  0.3674 -0.0023 -0.0056
  993W        W 4512   5.831   6.344   4.036 -0.0400 -0.3450  0.2042
  994W        W 4513   0.016   9.382   2.502 -0.3079 -0.2399  0.2704
  995W        W 4514   8.949   6.050  11.690 -0.1555  0.1466  0.3293
  996W        W 4515   0.352   2.101   3.352  0.1033 -0.0634 -0.2160
  997W        W 4516   2.458   2.032  12.128  0.2131 -0.0411  0.2748
  998W        W 4517   2.569   5.854   8.638 -0.1106  0.0155 -0.0056
  999W        W 4518   8.789   5.664   9.248 -0.0317 -0.1315  0.2241
 1000W        W 4519   5.924   6.330   9.783 -0.1922 -0.1993 -0.1626
 1001W        W 4520   9.464   7.533   4.772  0.1898 -0.0970 -0.3595
 1002W        W 4521   4.542   4.339  12.238 -0.1230  0.0091 -0.0366
 1003W        W 4522   7.872   3.616   0.642 -0.0617  0.1253 -0.0310
 1004W        W 4523   7.653   3.576   0.021  0.3005 -0.2407 -0.1933
 1005W        W 4524   0.232   4.663   1.871 -0.1090 -0.1324 -0.2834
 1006W        W 4525   7.445   4.015   0.105 -0.4187 -0.1727  0.3501
 1007W        W 4526   3.932   3.105   1.789 -0.0826 -0.0209  0.2547
 1008W        W 4527   1.357   9.068  12.322 -0.0191 -0.0677  0.1473
 1009W        W 4528   3.264   1.424   9.217  0.0876 -0.1916 -0.0976
 1010W        W 4529   6.876   2.391   2.895 -0.0534  0.2038  0.0849
 1011W        W 4530   8.861   7.811   0.187  0.0072  0.1782  0.0155
 1012W        W 4531   4.305   5.135   3.980  0.1374 -0.2264 -0.0605
 1013W        W 4532   4.756   9.151   0.490 -0.1914  0.1233  0.1898
 1014W        W 4533   0.187   6.970  12.096 -0.1264 -0.2172 -0.1469
 1015W        W 4534   2.714   6.996   1.667  0.2514 -0.2739 -0.0494
 1016W        W 4535   3.018   4.012   8.311 -0.3220 -0.0218 -0.2070
 1017W        W 4536   6.295   0.262   9.877 -0.1486 -0.0412 -0.1172
 1018W        W 4537   2.737   0.067   2.808 -0.0699 -0.0096  0.0213
 1019W        W 4538   9.530   2.469   3.854  0.1009  0.3670  0.0677
 1020W        W 4539   6.680   2.768   2.575 -0.3472 -0.0128 -0.0494
 1021W        W 4540   2.077   4.258   1.721 -0.0348  0.0368  0.0091
 1022W        W 4541   7.289   8.511   0.271  0.1070 -0.0248 -0.2658
 1023W        W 4542   3.403   3.384   0.110 -0.1786  0.0235 -0.0561
 1024W        W 4543   9.675   6.768   0.021 -0.3255  0.1500  0.2025
 1025W        W 4544   7.096   0.288   2.828 -0.1108 -0.2687 -0.2037
 1026W        W 4545   8.156   9.645  10.970 -0.0151 -0.0454  0.0678
 1027W        W 4546   3.478   7.405  10.364  0.5461 -0.2601 -0.0967
 1028W        W 4547   7.278   6.282   2.520 -0.1321  0.4034 -0.3366
 1029W        W 4548   6.420   2.369   1.727 -0.2562  0.0095 -0.5346
 1030W        W 4549   4.274   8.054  10.180  0.0255 -0.0844 -0.1254
 1031W        W 4550   6.353   6.221  10.974 -0.1424 -0.0479 -0.0610
 1032W        W 4551   7.383   4.744   1.985  0.0831  0.5098 -0.1562
 1033W        W 4552   4.136   7.755  12.377 -0.0622 -0.0483  0.0183
 1034W        W 4553   1.699   2.919  12.421  0.0932  0.0040  0.2185
 1035W        W 4554   1.770   3.203   3.906 -0.2594 -0.0463  0.0732
 1036W        W 4555   6.051   9.142   8.564  0.0777  0.0409  0.2763
 1037W        W 4556   2.214   9.357  10.577 -0.1630  0.0658 -0.1710
 1038W        W 4557   2.535   7.947   0.104  0.1989 -0.1877 -0.1667
 1039W        W 4558   8.750   2.784  10.416  0.1292 -0.1285  0.5073
 1040W        W 4559   1.115   9.491   1.257  0.1287 -0.3108  0.1701
 1041W        W 4560   5.059   4.350   3.349  0.1309  0.0266  0.1294
 1042W        W 4561   6.689   3.804  11.988 -0.3402  0.2973  0.1416
 1043W        W 4562   1.505   8.168   0.124  0.5697 -0.3407 -0.0462
 1044W        W 4563   6.897   0.915  10.324 -0.3037  0.2969  0.1920
 1045W        W 4564   1.944   7.195   0.862  0.3356  0.1369  0.0440
 1046W        W 4565   0.287   4.490   0.136 -0.1780 -0.0038  0.0324
 1047W        W 4566   4.240   3.447   0.443  0.0145 -0.0616 -0.0837
 1048W        W 4567   4.818   8.784   8.929  0.1460  0.1934 -0.1643
 1049W        W 4568   7.970   6.854  11.250 -0.2018  0.3251  0.0744
 1050W        W 4569   9.539   2.820   4.152  0.1411 -0.0389  0.0077
 1051W        W 4570   0.283   6.376   2.685  0.0699  0.2926 -0.1412
 1052W        W 4571   9.072   6.126   9.292 -0.3341 -0.1344  0.2424
 1053W        W 4572   7.909   7.476   0.594  0.1096 -0.1586  0.2565
 1054W        W 4573   0.888   3.168   8.972 -0.4682 -0.0312 -0.0394
 1055W        W 4574   6.202   2.083  10.121 -0.1376  0.2512  0.0096
 1056W        W 4575   8.695   5.124   2.923 -0.0635 -0.2629  0.1649
 1057W        W 4576   9.646   6.731   9.652  0.0899  0.0193  0.0462
 1058W        W 4577   5.846   9.017   4.248  0.0708 -0.1027  0.2532
 1059W        W 4578   1.686   9.653   9.907 -0.1987 -0.0088  0.0290
 1060W        W 4579   1.242   1.053   2.799 -0.0571 -0.1101 -0.2617
 1061W        W 4580   7.051   4.460   9.971  0.1766 -0.0033  0.2165
 1062W        W 4581   5.903   4.748   2.998 -0.1174 -0.1057 -0.1501
 1063W        W 4582   2.462   6.387   9.667 -0.2433  0.0115  0.0301
 1064W        W 4583   3.179   0.299   8.158 -0.1448 -0.2388 -0.1112
 1065W        W 4584   7.279   1.363   2.887 -0.0406  0.1651 -0.2580
 1066W        W 4585   6.919   0.542   3.202 -0.1966 -0.1604 -0.3778
 1067W        W 4586   5.568   5.514  10.837  0.1986  0.1262 -0.2220
 1068W        W 4587   9.666   8.112   0.155  0.1799  0.1510  0.1334
 1069W        W 4588   6.285   1.697   0.007  0.1424 -0.0493 -0.1525
 1070W        W 4589   6.878   2.465  12.259 -0.1907  0.2090  0.3196
 1071W        W 4590   0.696   5.144   4.274  0.5608  0.0430  0.1283
 1072W        W 4591   3.392   7.376   8.741 -0.0256  0.3059  0.3202
 1073W        W 4592   1.919   5.610   1.802 -0.0412 -0.1272 -0.0133
 1074W        W 4593   8.608   3.040   4.050  0.0525 -0.0524 -0.3597
 1075W        W 4594   7.493   5.606   1.311  0.2389 -0.3284  0.1715
 1076W        W 4595   2.708   6.618   8.505  0.0379  0.1169  0.1830
 1077W        W 4596   2.011   2.503  10.767  0.3559  0.0880 -0.0978
 1078W        W 4597   8.932   8.976   0.690 -0.2023  0.0991 -0.0453
 1079W        W 4598   5.077   4.303  10.567 -0.2558 -0.0257 -0.4583
 1080W        W 4599   3.432   8.135   0.187 -0.1708 -0.0048  0.1706
 1081W        W 4600   1.545   2.415  10.077 -0.0092 -0.2080 -0.3527
 1082W        W 4601   8.829   7.779  11.222  0.3320 -0.2624 -0.2570
 1083W        W 4602   2.421   5.549   1.662  0.1460 -0.1765 -0.0981
 1084W        W 4603   4.463   3.289   1.807 -0.1883 -0.0995 -0.0824
 1085W        W 4604   3.133   9.387   2.778  0.1465  0.2099 -0.2952
 1086W        W 4605   4.924   3.488  10.648  0.1774 -0.4522 -0.2322
 1087W        W 4606   1.778   3.237   1.541 -0.0685 -0.0053  0.0227
 1088W        W 4607   2.768   6.060   1.550 -0.0829  0.0253 -0.1101
 1089W        W 4608   8.442   1.734  10.398 -0.1128  0.0090 -0.1533
 1090W        W 4609   2.984   4.663  12.023  0.1627  0.0881  0.1314
 1091W        W 4610   4.202   4.706  12.308 -0.2434  0.0429 -0.1971
 1092W        W 4611   3.431   0.228   8.688  0.0965  0.1368 -0.0218
 1093W        W 4612   1.440   7.311   1.449 -0.0034  0.3164 -0.1092
 1094W        W 4613   0.154   9.215   8.960 -0.0411 -0.0299  0.0183
 1095W        W 4614   3.077   4.880   9.830  0.2262 -0.2267 -0.1909
 1096W        W 4615   3.405   6.454   3.077 -0.0909 -0.1424  0.1577
 1097W        W 4616   4.326   0.011   8.887  0.1365 -0.2828  0.1276
 1098W        W 4617   1.875   2.216   9.666 -0.0599  0.0185  0.2685
 1099W        W 4618   4.462   0.073  10.710  0.1991  0.0402  0.2434
 1100W        W 4619   0.001   8.809  11.490  0.1052  0.0868  0.1987
 1101W        W 4620   8.087   3.930  12.419 -0.0275 -0.0235 -0.0730
 1102W        W 4621   1.115   7.147  10.159  0.1440  0.2050 -0.3677
 1103W        W 4622   8.890   9.381   4.060 -0.1597  0.0306 -0.2495
 1104W        W 4623   9.437   9.391   8.621  0.0854  0.0333  0.1874
 1105W        W 4624   1.294   3.319   8.711 -0.1001 -0.1790 -0.2313
 1106W        W 4625   6.283   9.049   9.694 -0.1138  0.2077  0.0580
 1107W        W 4626   6.663   5.794   9.884  0.2164 -0.3895  0.0550
 1108W        W 4627   8.279   1.392   2.101  0.0820 -0.0781 -0.0615
 1109W        W 4628   9.496   1.875  12.525 -0.3321  0.0574  0.0021
 1110W        W 4629   2.321   4.828   4.731 -0.0941  0.0742  0.1573
 1111W        W 4630   7.784   6.221   2.272  0.0951 -0.2114  0.3495
 1112W        W 4631   4.959   1.455   3.040 -0.1948 -0.4070 -0.1455
 1113W        W 4632   2.861   2.492   0.404  0.0772 -0.2557 -0.0101
 1114W        W 4633   4.288   2.804   1.572  0.1806 -0.0246  0.0683
 1115W        W 4634   2.902   1.463   3.670  0.1036  0.0725  0.2245
 1116W        W 4635   1.165   2.792   3.697  0.1324 -0.1612 -0.1329
 1117W        W 4636   9.306   0.404   9.787  0.0295  0.1649  0.0737
 1118W        W 4637   0.143   5.772   2.439 -0.0878 -0.2200 -0.0672
 1119W        W 4638   0.449   1.052  10.322  0.1811 -0.2386  0.1370
 1120W        W 4639   0.546   1.875   1.901  0.0290 -0.1790  0.3184
 1121W        W 4640   8.846   4.257  11.365  0.1270 -0.1874 -0.3950
 1122W        W 4641   3.931   0.163  10.039 -0.0205 -0.0712 -0.2801
 1123W        W 4642   8.767   5.050   0.872  0.0486  0.3256  0.1640
 1124W        W 4643   6.992   7.966   3.592  0.0042  0.1736  0.1734
 1125W        W 4644   6.923   9.296  10.063  0.1237 -0.1744 -0.0581
 1126W        W 4645   2.951   2.246   3.186  0.0770 -0.0666 -0.0854
 1127W        W 4646   9.254   6.968   1.758  0.1425  0.0367  0.2587
 1128W        W 4647   9.284   5.128  11.303  0.0952 -0.0033 -0.1194
 1129W        W 4648   5.352   2.639  11.512  0.1054  0.3761 -0.2887
 1130W        W 4649   6.369   8.476   2.659 -0.1210 -0.7104 -0.0612
 1131W        W 4650   5.408   6.261   9.738  0.0478 -0.0015 -0.1233
 1132W        W 4651   0.711   0.753   1.481  0.4284 -0.4201 -0.1378
 1133W        W 4652   1.921   0.268   0.416 -0.2935 -0.0799 -0.0987
 1134W        W 4653   7.339   9.612   1.804  0.2225  0.1312  0.2466
 1135W        W 4654   4.638   2.422   2.944 -0.2401  0.1535 -0.1166
 1136W        W 4655   4.799   1.637   8.369  0.2516  0.0428  0.0088
 1137W        W 4656   0.930   6.509   9.763  0.0949 -0.2566  0.2146
 1138W        W 4657   7.628   7.923   8.683  0.0488  0.1459  0.1390
 1139W        W 4658   8.885   7.851   4.403 -0.0366  0.3273  0.2016
 1140W        W 4659   9.562   7.519   9.897 -0.2975  0.0686 -0.1533
 1141W        W 4660   7.598   5.573  10.281  0.0702  0.0787 -0.0918
 1142W        W 4661   4.043   5.687   2.870 -0.0715  0.0610  0.0246
 1143W        W 4662   5.967   8.364  10.342  0.0452  0.2500 -0.0321
 1144W        W 4663   9.261   3.390   3.311 -0.0699  0.0453  0.1149
 1145W        W 4664   6.387   0.712  12.137 -0.2141  0.1062  0.0257
 1146W        W 4665   9.092   5.794   2.857 -0.0777 -0.0766 -0.0718
 1147W        W 4666   8.308   2.519   9.338  0.0220  0.0613  0.0841
 1148W        W 4667   9.383   9.222  10.308 -0.1750  0.1190  0.0676
 1149W        W 4668   8.700   1.676  11.327 -0.3692 -0.3502  0.1239
 1150W        W 4669   5.686   1.705   2.433  0.1172  0.0557 -0.1957
 1151W        W 4670   1.074   3.950   2.619 -0.0564 -0.1218  0.3997
 1152W        W 4671   6.976   1.521  10.271  0.4394  0.2778 -0.0222
 1153W        W 4672   6.177   7.509  11.877  0.0787 -0.2496  0.0768
 1154W        W 4673   8.280   2.364  11.861 -0.3931 -0.1735 -0.0719
 1155W        W 4674   6.259   9.112  10.273 -0.0763  0.0852 -0.1798
 1156W        W 4675   2.415   3.750   0.195  0.3762 -0.0701  0.0408
 1157W        W 4676   8.523   7.514   0.044  0.0504  0.4605 -0.1210
 1158W        W 4677   0.855   4.694  12.330  0.4350 -0.0155  0.1426
 1159W        W 4678   5.413   8.145   9.170  0.0368  0.2831 -0.0956
 1160W        W 4679   2.765   4.179   0.149 -0.0869 -0.2223  0.1032
 1161W        W 4680   6.034   2.998  10.938  0.1962  0.4536  0.3622
 1162W        W 4681   1.949   5.702  10.191 -0.1172  0.3309 -0.2605
 1163W        W 4682   1.227   9.365   0.788  0.3186  0.0143  0.2647
 1164W        W 4683   7.298   0.921  12.332 -0.1716 -0.2338  0.0409
 1165W        W 4684   0.760   7.427  10.822  0.0306  0.1685  0.1336
 1166W        W 4685   1.161   5.514  12.148  0.1477 -0.2589  0.0272
 1167W        W 4686   8.704   0.126   3.995 -0.0154  0.0059  0.2349
 1168W        W 4687   9.254   7.223  10.208 -0.0039  0.1142 -0.1702
 1169W        W 4688   0.021   8.249  11.585 -0.0635  0.0618  0.3674
 1170W        W 4689   6.143   5.165   3.105  0.2139  0.1623  0.2478
 1171W        W 4690   7.490   9.128   1.739 -0.0129  0.0871 -0.0623
 1172W        W 4691   5.948   1.967  10.963  0.0751  0.1814  0.1837
 1173W        W 4692   5.412   4.542   1.672 -0.0799 -0.3263  0.2879
 1174W        W 4693   7.004   8.963   2.765 -0.0330  0.2280  0.0290
 1175W        W 4694   5.038   6.853   3.967 -0.2398  0.1762 -0.0755
 1176W        W 4695   2.193   6.074   4.412 -0.1072  0.3888  0.0732
 1177W        W 4696   7.025   4.689   2.327  0.0540 -0.2529 -0.1002
 1178W        W 4697   9.338   6.486  11.673  0.2367 -0.0319 -0.0435
 1179W        W 4698   1.818   9.321   2.207 -0.1198  0.4031  0.0003
 1180W        W 4699   3.706   8.621   0.244 -0.1258 -0.2928 -0.0408
 1181W        W 4700   9.257   7.886   9.852 -0.2652 -0.2666  0.2093
 1182W        W 4701   8.028   4.741  10.781 -0.1581 -0.2543 -0.1247
 1183W        W 4702   7.653   1.238  12.104  0.0087  0.0208 -0.1291
 1184W        W 4703   7.668   2.376   0.175  0.0558 -0.2108 -0.1800
 1185W        W 4704   9.542   1.688   4.437  0.0283 -0.2313 -0.0127
 1186W        W 4705   6.915   8.029   0.448  0.1923 -0.2551 -0.2347
 1187W        W 4706   8.457   8.241  11.235 -0.2372  0.1172 -0.1801
 1188W        W 4707   9.598   3.042   0.859  0.0823  0.1873  0.2208
 1189W        W 4708   2.932   8.224  12.490 -0.0480 -0.0419 -0.1101
 1190W        W 4709   6.982   8.358   1.342 -0.1691  0.3214 -0.0809
 1191W        W 4710   0.659   6.214   0.829 -0.0038 -0.0822  0.2768
 1192W        W 4711   1.019   1.232   9.467  0.0670  0.0391 -0.0754
 1193W        W 4712   8.261   4.389   9.167 -0.0285  0.0587  0.3409
 1194W        W 4713   3.150   4.558  10.174 -0.0387  0.2088 -0.2475
 1195W        W 4714   5.685   9.161   2.621 -0.2008 -0.0445  0.2024
 1196W        W 4715   0.113   7.741  12.299  0.0337 -0.2847 -0.0404
 1197W        W 4716   2.603   2.799   8.742 -0.1273  0.0044  0.1255
 1198W        W 4717   9.309   7.053   0.800 -0.1423 -0.3441  0.1189
 1199W        W 4718   8.975   3.289   2.854 -0.0206 -0.0541 -0.0475
 1200W        W 4719   2.400   3.761   2.843 -0.1283 -0.0704 -0.3901
 1201W        W 4720   7.327   8.748  11.817 -0.0526  0.0722 -0.1893
 1202W        W 4721   7.734   2.239  12.191 -0.0262  0.0639 -0.0723
 1203W        W 4722   3.856   9.639  12.418  0.2688 -0.3595 -0.4875
 1204W        W 4723   0.343   2.332  10.803  0.1868 -0.2163 -0.2649
 1205W        W 4724   0.309   0.297  10.159  0.1186  0.3184  0.1415
 1206W        W 4725   9.367   4.243   9.806  0.0830  0.1878 -0.3482
 1207W        W 4726   6.551   7.023   9.400  0.1574  0.1768  0.1652
 1208W        W 4727   8.738   0.487   3.625  0.2929 -0.0528 -0.0531
 1209W        W 4728   7.018   7.180   4.806 -0.0208  0.1765  0.1771
 1210W        W 4729   8.038   3.202  12.374 -0.0553  0.2079 -0.0570
 1211W        W 4730   9.213   2.717   1.145  0.0382 -0.1585 -0.1397
 1212W        W 4731   9.651   7.894   3.475 -0.1822  0.0255  0.1712
 1213W        W 4732   0.173   8.609   0.875  0.0076 -0.0840  0.2351
 1214W        W 4733   0.458   1.788  11.084  0.0872 -0.3102  0.0896
 1215W        W 4734   2.573   5.834  11.514 -0.0189  0.4418 -0.1439
 1216W        W 4735   7.249   3.316  10.787  0.1396 -0.3082 -0.0470
 1217W        W 4736   5.919   4.560   3.945  0.1956  0.3658 -0.1177
 1218W        W 4737   4.161   3.098   8.201  0.0114 -0.2434 -0.0331
 1219W        W 4738   3.125   8.853   3.932  0.0585 -0.1259  0.1047
 1220W        W 4739   4.078   8.466  10.480 -0.0146  0.1129  0.0188
 1221W        W 4740   7.770   2.579   2.550  0.1170  0.0238 -0.2975
 1222W        W 4741   6.997   5.733   1.332 -0.0993  0.1619 -0.0159
 1223W        W 4742   0.900   0.553   2.854  0.0118 -0.3438  0.2620
 1224W        W 4743   3.496   6.851   9.119  0.0979 -0.0296 -0.1902
 1225W        W 4744   4.098   2.968   9.603 -0.1600  0.0019  0.0507
 1226W        W 4745   8.827   5.505   3.234  0.1137  0.5194 -0.2762
 1227W        W 4746   4.150   6.211   9.057  0.0277 -0.0117 -0.0600
 1228W        W 4747   1.398   3.960   0.146  0.2686  0.0157  0.1494
 1229W        W 4748   4.953   2.608   9.172  0.2150  0.0482 -0.0956
 1230W        W 4749   8.539   6.599   3.367 -0.0639 -0.1142 -0.2842
 1231W        W 4750   5.324   3.131   1.620 -0.2592 -0.0623  0.2034
 1232W        W 4751   4.098   5.756   9.438  0.1023  0.1449  0.0333
 1233W        W 4752   1.988   0.923  11.656  0.1348 -0.0075  0.0989
 1234W        W 4753   1.619   4.960   4.094  0.1275  0.0586 -0.2269
 1235W        W 4754   7.730   3.386   3.242  0.1854  0.0510 -0.0792
 1236W        W 4755   2.770   7.439   3.615 -0.1015  0.0963 -0.1136
 1237W        W 4756   7.831   8.550   3.692 -0.0073  0.1940  0.1476
 1238W        W 4757   2.911   6.290  12.272 -0.0756 -0.0972  0.1781
 1239W        W 4758   7.274   3.389   4.255  0.0320  0.1164 -0.0598
 1240W        W 4759   4.607   7.601   9.495  0.0776 -0.2340 -0.3036
 1241W        W 4760   8.472   6.091  12.018  0.2313 -0.2269 -0.0880
 1242W        W 4761   5.841   8.390  12.074 -0.2383  0.2201 -0.1095
 1243W        W 4762   1.491   7.717   3.212 -0.0627  0.1350 -0.0993
 1244W        W 4763   6.674   1.094   1.874 -0.2486  0.1958  0.0679
 1245W        W 4764   8.012   8.627   1.153 -0.3078 -0.1431  0.4449
 1246W        W 4765   3.009   9.256   9.209 -0.2052 -0.1502 -0.3438
 1247W        W 4766   6.804   2.405   1.338  0.0569  0.3459 -0.1614
 1248W        W 4767   2.908   7.516   4.170  0.2421 -0.1597 -0.1438
 1249W        W 4768   2.323   9.266  11.705  0.1734 -0.2398  0.0349
 1250W        W 4769   2.978   3.721   1.401 -0.1873  0.1183 -0.0517
 1251W        W 4770   1.269   7.387  10.698  0.0843  0.1028 -0.3738
 1252W        W 4771   9.541   6.326   9.407 -0.0101 -0.1484  0.2079
 1253W        W 4772   4.260   8.055   3.422 -0.0918 -0.0772  0.0224
 1254W        W 4773   8.569   8.775   0.432  0.0485 -0.1476 -0.2634
 1255W        W 4774   2.187   5.141   1.639  0.2995  0.0435  0.2829
 1256W        W 4775   7.899   5.659   9.222  0.3407  0.1547  0.3585
 1257W        W 4776   0.295   7.841   1.783  0.3258  0.2239 -0.1032
 1258W        W 4777   2.154   9.158   1.810 -0.0277 -0.1683 -0.2986
 1259W        W 4778   0.884   3.927   8.318  0.1490  0.2402 -0.2556
 1260W        W 4779   9.630   9.166  12.074 -0.3107  0.0855 -0.0568
 1261W        W 4780   1.652   9.454  10.420  0.0181  0.3296 -0.0544
 1262W        W 4781   1.775   4.358   3.174  0.1987  0.2495  0.0949
 1263W        W 4782   3.516   4.618   8.553 -0.3156  0.1314 -0.0444
 1264W        W 4783   2.388   8.880  11.396  0.1552  0.1463  0.2592
 1265W        W 4784   3.435   2.278   8.883  0.1125 -0.0577  0.1091
 1266W        W 4785   0.211   9.125   3.550 -0.0602 -0.2927 -0.0019
 1267W        W 4786   1.010   4.593   9.809 -0.1502  0.1749 -0.0737
 1268W        W 4787   6.836   8.055   9.746  0.2258  0.0563  0.0813
 1269W        W 4788   6.835   8.012   1.030  0.0471 -0.0532 -0.1933
 1270W        W 4789   3.662   4.547   0.721  0.0597 -0.1505 -0.2668
 1271W        W 4790   2.767   3.468   1.915 -0.0961  0.0535  0.0868
 1272W        W 4791   6.338   6.230   1.047 -0.0173  0.1745  0.2272
 1273W        W 4792   1.904   4.464  12.448  0.0907  0.0329 -0.0231
 1274W        W 4793   3.057   8.479   9.566 -0.1669  0.3552  0.4034
 1275W        W 4794   3.329   1.988  12.120  0.3051  0.1401  0.0475
 1276W        W 4795   7.084   0.209   1.506 -0.1883 -0.0588 -0.1092
 1277W        W 4796   2.852   6.199  11.256 -0.0963  0.3268 -0.2052
 1278W        W 4797   1.054   7.067   9.281 -0.4256  0.0441 -0.0593
 1279W        W 4798   2.555   7.846   9.819  0.3992 -0.2172 -0.0435
 1280W        W 4799   8.170   8.393  10.453 -0.2196 -0.1869  0.0396
 1281W        W 4800   5.276   5.670   8.651  0.2576  0.0770 -0.0955
 1282W        W 4801   1.893   1.690   9.792  0.0664 -0.1034 -0.1420
 1283W        W 4802   4.770   9.394   1.033 -0.2029 -0.0200  0.2042
 1284W        W 4803   1.625   3.515   2.134  0.5695  0.0222 -0.5186
 1285W        W 4804   8.993   9.245   0.290 -0.3116 -0.1472 -0.0650
 1286W        W 4805   2.138   0.870   4.428  0.1284  0.2665  0.4650
 1287W        W 4806   4.004   2.902   3.535  0.1903 -0.2592 -0.3259
 1288W        W 4807   9.077   6.045   1.174  0.0237  0.1535 -0.2193
 1289W        W 4808   3.824   6.309   2.874  0.0199  0.0974  0.0515
 1290W        W 4809   4.258   3.956   0.567 -0.1754  0.2318  0.1750
 1291W        W 4810   2.566   2.840   9.709 -0.0364  0.0197  0.0206
 1292W        W 4811   0.426   8.948   1.222 -0.2064 -0.0992  0.4195
 1293W        W 4812   6.408   5.464   4.128 -0.0106 -0.1675  0.2813
 1294W        W 4813   5.052   0.832   0.608  0.3541 -0.0322  0.3260
 1295W        W 4814   6.287   7.824   3.477  0.0063  0.1425  0.1734
 1296W        W 4815   5.929   7.068   7.797  0.0676  0.2995  0.2247
 1297W        W 4816   5.516   3.725  10.049 -0.1138 -0.4096 -0.0250
 1298W        W 4817   6.396   0.754   1.063  0.0946 -0.1218 -0.2477
 1299W        W 4818   4.637   4.499   3.007 -0.2632  0.0762 -0.0219
 1300W        W 4819   1.261   1.951   4.078 -0.1432 -0.0095  0.1615
 1301W        W 4820   3.575   1.351  12.319 -0.2781  0.1208  0.2102
 1302W        W 4821   7.935   6.917   1.096  0.0124  0.3062 -0.1903
 1303W        W 4822   2.790   2.880  11.003  0.0114  0.4314  0.3977
 1304W        W 4823   0.104   7.596  10.912  0.0102  0.0060 -0.0238
 1305W        W 4824   8.942   1.141   9.134 -0.4251 -0.0220 -0.0373
 1306W        W 4825   8.081   3.819  11.882  0.0818 -0.0376 -0.2456
 1307W        W 4826   1.756   1.751   3.505  0.1299  0.1762  0.3695
 1308W        W 4827   2.616   6.169   1.101  0.0256  0.1754  0.0328
 1309W        W 4828   5.804   2.979   9.536  0.0595  0.0731  0.0655
 1310W        W 4829   7.130   4.350   0.254  0.0863  0.0423 -0.0645
 1311W        W 4830   5.237   3.249   9.840 -0.5188 -0.3570  0.0317
 1312W        W 4831   1.402   5.046   9.645 -0.2179 -0.1235  0.3676
 1313W        W 4832   1.618   0.068  12.405  0.3476 -0.0008 -0.0288
 1314W        W 4833   9.078   5.378   9.661  0.2694 -0.2740 -0.2566
 1315W        W 4834   4.137   0.180   0.934  0.1192  0.0460  0.1789
 1316W        W 4835   2.270   8.402   9.737 -0.2265 -0.0511  0.0902
 1317W        W 4836   8.068   9.677   2.920  0.2056  0.2295 -0.1249
 1318W        W 4837   0.327   9.517   0.591 -0.1879  0.1215  0.3519
 1319W        W 4838   2.883   4.650   3.399  0.1654  0.1474 -0.2742
 1320W        W 4839   9.276   3.688   2.902 -0.1973 -0.0640 -0.1694
 1321W        W 4840   0.920   4.455  11.006 -0.1034 -0.0318  0.2361
 1322W        W 4841   4.177   8.419  10.990 -0.0679 -0.3123  0.1851
 1323W        W 4842   4.364   5.585   3.814 -0.1579 -0.3163 -0.3520
 1324W        W 4843   1.701   5.255  10.417  0.1941 -0.0010  0.0051
 1325W        W 4844   0.080   1.731   1.918  0.1474 -0.1118 -0.0327
 1326W        W 4845   8.941   0.861  12.461  0.4366 -0.0082 -0.0425
 1327W        W 4846   1.856   1.805   1.432  0.2116  0.0185  0.2761
 1328W        W 4847   2.092   6.032   2.522  0.1366  0.2482 -0.1134
 1329W        W 4848   1.886   4.428  11.511 -0.1416  0.2447  0.2427
 1330W        W 4849   5.371   3.844   4.455 -0.0302  0.0921  0.0369
 1331W        W 4850   9.210   3.098   1.505  0.2301  0.2510 -0.0977
 1332W        W 4851   7.653   0.912   0.594  0.2026  0.2091  0.0649
 1333W        W 4852   3.315   3.118   2.858  0.3545 -0.1268 -0.2340
 1334W        W 4853   0.252   9.051  11.073  0.2146  0.0322 -0.0868
 1335W        W 4854   1.567   8.679   3.156 -0.1189 -0.3349 -0.1043
 1336W        W 4855   0.565   2.201   0.535 -0.0309 -0.1318 -0.2049
 1337W        W 4856   1.726   5.301   3.402 -0.3899  0.1534 -0.2285
 1338W        W 4857   3.752   6.851   2.895 -0.1731  0.4651  0.2107
 1339W        W 4858   5.939   7.431   2.361  0.0401 -0.1142 -0.0025
 1340W        W 4859   6.085   0.345   1.361  0.0784 -0.0772 -0.1403
 1341W        W 4860   3.824   0.226   9.028  0.1370  0.0234  0.0393
 1342W        W 4861   3.523   3.809   8.414  0.0286 -0.0333  0.1963
 1343W        W 4862   6.258   9.144  11.868 -0.3492  0.2972  0.1894
 1344W        W 4863   1.850   6.396   9.016  0.1845  0.3722  0.1869
 1345W        W 4864   9.012   2.133  11.109 -0.0100 -0.0687  0.3016
 1346W        W 4865   0.401   3.414  12.149  0.0571 -0.1200 -0.2346
 1347W        W 4866   4.999   3.413   8.498  0.1845 -0.0166  0.2369
 1348W        W 4867   0.933   5.981  12.409 -0.0507 -0.2194  0.1891
 1349W        W 4868   3.415   0.601   1.373 -0.1966  0.0024 -0.0348
 1350W        W 4869   5.439   6.938   7.829  0.2483  0.1430  0.4223
 1351W        W 4870   2.866   9.662   3.567  0.0379  0.1790 -0.2286
 1352W        W 4871   0.593   5.616  11.646 -0.1299  0.1553 -0.0687
 1353W        W 4872   3.789   7.765   0.765 -0.2004  0.2141  0.1781
 1354W        W 4873   5.365   9.560  11.779  0.0111  0.2718 -0.1331
 1355W        W 4874   1.124   5.088   2.938 -0.0100 -0.0363 -0.1482
 1356W        W 4875   6.866   1.974   1.046 -0.1559 -0.0679 -0.0457
 1357W        W 4876   3.419   1.773   9.736 -0.0672 -0.0239 -0.2663
 1358W        W 4877   9.463   2.844  12.375  0.1353 -0.0489 -0.0476
 1359W        W 4878   3.823   3.747   3.801  0.1108  0.0871 -0.0642
 1360W        W 4879   5.607   1.568   3.756  0.1765 -0.0466 -0.0863
 1361W        W 4880   8.489   1.958   3.304  0.0942  0.0243 -0.0937
 1362W        W 4881   1.263   5.380   8.930 -0.4841  0.1539  0.0756
 1363W        W 4882   1.678   5.655  12.011 -0.1844  0.0568 -0.2187
 1364W        W 4883   0.004   1.426   0.296 -0.0331 -0.1103 -0.2060
 1365W        W 4884   7.616   8.598   0.825 -0.1604  0.1548  0.0964
 1366W        W 4885   0.516   7.164   0.704  0.1727 -0.0640  0.0446
 1367W        W 4886   5.428   6.400  11.409 -0.3312 -0.0549  0.0143
 1368W        W 4887   9.260   2.562   3.467  0.2090 -0.3538 -0.2680
 1369W        W 4888   2.209   8.145  10.241  0.2828  0.0553  0.1804
 1370W        W 4889   6.824   4.893   0.154  0.0472  0.3093 -0.0585
 1371W        W 4890   1.734   3.015   1.998  0.1207 -0.0006 -0.2541
 1372W        W 4891   0.260   4.320   9.944 -0.3201  0.2757  0.4089
 1373W        W 4892   9.235   8.875   2.080  0.0543 -0.0172 -0.0965
 1374W        W 4893   2.750   4.893  11.499 -0.4109 -0.0562 -0.0176
 1375W        W 4894   3.007   3.265   1.490  0.0687 -0.0313  0.1697
 1376W        W 4895   7.030   1.134   2.360  0.0477  0.2718 -0.0762
 1377W        W 4896   5.797   8.121   0.479 -0.2175  0.0315 -0.0097
 1378W        W 4897   2.282   1.024  10.863  0.1195  0.4217  0.0265
 1379W        W 4898   6.594   5.245   9.818  0.0345 -0.1880  0.2699
 1380W        W 4899   0.418   9.651   4.187  0.2816  0.0652 -0.0952
 1381W        W 4900   0.800   4.086  10.644  0.1462  0.1287  0.2016
 1382W        W 4901   3.145   9.291  10.647  0.0223 -0.1963 -0.2687
 1383W        W 4902   4.141   6.970   9.127  0.1905  0.2768  0.2761
 1384W        W 4903   1.900   0.091   4.971 -0.0870  0.1597  0.0449
 1385W        W 4904   4.416   3.163   1.250  0.2377 -0.1060 -0.0227
 1386W        W 4905   5.095   5.024   3.286 -0.0874  0.4080  0.0592
 1387W        W 4906   4.958   6.205  11.840 -0.1854  0.2053  0.0441
 1388W        W 4907   7.192   6.929   2.384  0.2575  0.1800 -0.1286
 1389W        W 4908   8.496   4.303   0.480 -0.0704 -0.0001  0.1198
 1390W        W 4909   5.834   3.891  12.278 -0.0773  0.0246  0.0294
 1391W        W 4910   3.163   1.823   3.002 -0.2760  0.1463  0.1557
 1392W        W 4911   7.916   2.843   3.099  0.0050  0.0268  0.0138
 1393W        W 4912   6.276   1.767   1.443  0.1465 -0.2589  0.0957
 1394W        W 4913   9.547   5.088   3.953  0.4122  0.0493 -0.1953
 1395W        W 4914   3.543   0.743   0.756  0.0123 -0.2509  0.0703
 1396W        W 4915   2.816   3.567   3.541  0.2794 -0.0396 -0.0846
 1397W        W 4916   9.620   5.325   1.252 -0.1081 -0.1887 -0.1276
 1398W        W 4917   4.396   8.826   1.811  0.0635  0.0054  0.2204
 1399W        W 4918   1.729   3.149   8.807 -0.2520  0.3004  0.1254
 1400W        W 4919   2.556   3.858   1.118 -0.2846 -0.3719 -0.0339
 1401W        W 4920   7.495   6.056   9.940  0.0166 -0.5546  0.0259
 1402W        W 4921   6.761   8.568   8.323 -0.0428  0.4015  0.0099
 1403W        W 4922   9.418   7.647   0.140 -0.1126 -0.0194  0.1664
 1404W        W 4923   6.796   7.257   2.345  0.2788 -0.0446 -0.2112
 1405W        W 4924   0.205   5.279   4.303  0.2445  0.0723  0.3256
 1406W        W 4925   8.751   5.146   5.015  0.0333 -0.4106  0.4260
 1407W        W 4926   8.111   5.756   4.594  0.4084  0.2192 -0.0468
 1408W        W 4927   1.967   4.028   3.706 -0.0749 -0.1828  0.0181
 1409W        W 4928   0.696   7.931   9.154  0.1349 -0.0594  0.1675
 1410W        W 4929   3.430   2.393   0.494  0.3343 -0.0088 -0.0154
 1411W        W 4930   2.020   3.469  11.145 -0.1377  0.3511  0.2067
 1412W        W 4931   4.465   6.699   8.365 -0.0504  0.1119  0.0687
 1413W        W 4932   4.157   0.641   1.987  0.0300 -0.1797 -0.2905
 1414W        W 4933   4.747   1.419  10.495  0.0705  0.0878  0.0528
 1415W        W 4934   4.571   7.290   9.005 -0.2462 -0.2500  0.0012
 1416W        W 4935   8.366   0.115   3.551 -0.0414 -0.2449 -0.0256
 1417W        W 4936   9.064   4.027   1.644  0.0208 -0.2724  0.2214
 1418W        W 4937   3.546   1.871   0.644  0.0952  0.2253 -0.1390
 1419W        W 4938   0.592   6.633   1.990 -0.1872 -0.0507 -0.1826
 1420W        W 4939   1.628   1.144  11.331  0.0183  0.2956  0.2210
 1421W        W 4940   5.465   3.397   2.384  0.0467  0.2419 -0.1814
 1422W        W 4941   3.198   5.972  11.687 -0.1648  0.1101  0.0154
 1423W        W 4942   3.634   2.148   9.410 -0.4050 -0.5870 -0.0608
 1424W        W 4943   1.260   5.462   9.430  0.1314 -0.0220 -0.0254
 1425W        W 4944   4.170   8.573   4.379  0.0967 -0.1391  0.0140
 1426W        W 4945   0.769   5.571   0.946 -0.0470  0.2510 -0.4262
 1427W        W 4946   4.105   1.726   9.162  0.3125  0.0103  0.2774
 1428W        W 4947   8.289   5.877   5.001  0.2241 -0.2396 -0.0362
 1429W        W 4948   0.097   3.031  12.032 -0.1739 -0.2184  0.0694
 1430W        W 4949   4.218   0.446   9.744  0.3074 -0.1282  0.0338
 1431W        W 4950   3.550   2.286  10.317 -0.3503 -0.2809  0.0585
 1432W        W 4951   4.571   5.641  12.167  0.1081  0.0410  0.0236
 1433W        W 4952   3.819   2.733  11.424 -0.1210  0.0800  0.0792
 1434W        W 4953   1.786   6.084  11.701 -0.1476 -0.1487  0.2171
 1435W        W 4954   4.205   7.769   2.541 -0.3978  0.1772 -0.0594
 1436W        W 4955   0.780   9.687  11.032 -0.0408 -0.2968  0.1242
 1437W        W 4956   5.053   6.877  12.376  0.2226  0.2373 -0.2372
 1438W        W 4957   2.856   0.463   2.418 -0.0266  0.1223  0.1701
 1439W        W 4958   0.789   8.423   9.952  0.2938 -0.1198 -0.1966
 1440W        W 4959   2.527   5.157   9.151 -0.2015 -0.2272 -0.0077
 1441W        W 4960   3.219   9.009   2.024 -0.0564 -0.0631 -0.0776
 1442W        W 4961   2.919   9.623   1.825  0.2190 -0.3502  0.4613
 1443W        W 4962   4.256   7.019   3.109  0.0640 -0.0202  0.0315
 1444W        W 4963   9.089   5.221  10.329  0.2949  0.2506 -0.2853
 1445W        W 4964   8.254   5.020  11.300  0.1256 -0.1481  0.1887
 1446W        W 4965   7.866   1.079  10.026  0.0092 -0.1068  0.1067
 1447W        W 4966   5.040   4.424   1.318 -0.1010  0.0794 -0.3164
 1448W        W 4967   1.688   8.323   9.035  0.0542  0.0825 -0.0733
 1449W        W 4968   6.756   8.455   2.935  0.1041 -0.1388 -0.0495
 1450W        W 4969   1.905   5.900   9.136 -0.5022  0.1526 -0.0040
 1451W        W 4970   8.483   7.158   8.935 -0.1183 -0.1417 -0.0167
 1452W        W 4971   2.254   1.980   8.527  0.0888  0.2168  0.1766
 1453W        W 4972   7.842   6.390   8.949 -0.0397 -0.1237  0.2618
 1454W        W 4973   8.538   3.369   9.079 -0.1779 -0.3088  0.0557
 1455W        W 4974   8.377   7.324   1.406 -0.0113 -0.2681 -0.1088
 1456W        W 4975   8.736   1.662   9.394  0.0236  0.2091 -0.2822
 1457W        W 4976   0.212   2.017   4.538 -0.0919  0.1587 -0.1469
 1458W        W 4977   5.788   8.704   2.867  0.0265 -0.0824  0.0813
 1459W        W 4978   8.804   7.361   1.083 -0.0176 -0.1663 -0.3288
 1460W        W 4979   1.327   4.743  10.979  0.0447  0.0143 -0.1425
 1461W        W 4980   2.316   1.024   1.511 -0.1154 -0.0149 -0.1027
 1462W        W 4981   9.249   1.639   0.552 -0.3103 -0.0633  0.1652
 1463W        W 4982   3.368   8.431  12.331 -0.0215 -0.0907 -0.3744
 1464W        W 4983   4.236   4.708   3.716 -0.2034  0.0917  0.2151
 1465W        W 4984   7.515   5.830   2.832 -0.1287 -0.0752  0.1293
 1466W        W 4985   3.887   6.608  11.970  0.0566 -0.4443  0.4258
 1467W        W 4986   3.894   8.201   9.489 -0.0401  0.0056  0.1486
 1468W        W 4987   1.879   0.204   2.587  0.3886 -0.1437 -0.3974
 1469W        W 4988   2.238   4.744  11.351 -0.1329 -0.3079 -0.0652
 1470W        W 4989   8.729   8.033   3.942  0.1965 -0.0909 -0.2432
 1471W        W 4990   8.107   3.477   1.123 -0.1746  0.0794  0.1330
 1472W        W 4991   5.914   6.919  12.004  0.0549 -0.0616  0.1895
 1473W        W 4992   5.339   0.285  11.467 -0.0578  0.1689  0.0388
 1474W        W 4993   7.124   1.354   0.467 -0.0096 -0.1513 -0.1081
 1475W        W 4994   8.678   7.128   3.447  0.2425 -0.0834 -0.0435
 1476W        W 4995   2.977   5.960   0.684  0.3374  0.0934  0.0838
 1477W        W 4996   6.268   2.906   4.216 -0.0955  0.1867  0.1358
 1478W        W 4997   5.931   5.880  11.788  0.0566 -0.2675  0.1040
 1479W        W 4998   2.808   0.949  10.858 -0.5013  0.0628  0.0879
 1480W        W 4999   3.976   4.224   0.938  0.5029 -0.0426  0.0870
 1481W        W 5000   5.558   0.773  11.569  0.1821 -0.0232 -0.2106
 1482W        W 5001   8.179   3.231   9.957  0.1275  0.2940  0.2951
 1483W        W 5002   5.079   5.860  12.255 -0.0632  0.1572 -0.0622
 1484W        W 5003   0.539   9.104   8.338  0.0683 -0.2319 -0.0181
 1485W        W 5004   0.936   1.897  12.088  0.0937  0.0073  0.1677
 1486W        W 5005   0.484   1.140  11.240 -0.3093  0.1250 -0.1390
 1487W        W 5006   2.306   5.612   4.230 -0.1041  0.3034 -0.0976
 1488W        W 5007   9.407   0.817   9.391  0.0763  0.0490 -0.1863
 1489W        W 5008   3.192   9.551   0.733 -0.0214 -0.1115 -0.4995
 1490W        W 5009   2.102   2.252   3.676  0.1970 -0.2626  0.1546
 1491W        W 5010   2.240   1.592   3.323  0.0811 -0.2676  0.0515
 1492W        W 5011   6.892   3.901   0.482  0.2147 -0.0470  0.0364
 1493W        W 5012   4.110   7.561  10.293  0.2118  0.1315 -0.0117
 1494W        W 5013   0.114   7.919   4.355  0.1802  0.0765 -0.1125
 1495W        W 5014   3.257   5.255  10.837  0.2181  0.0944  0.0697
 1496W        W 5015   2.069   7.789   0.985  0.0928  0.1032 -0.0039
 1497W        W 5016   3.940   2.812  12.053 -0.1659  0.0046 -0.2741
 1498W        W 5017   0.792   3.159  11.300  0.2149 -0.0885 -0.3724
 1499W        W 5018   3.501   4.000  11.619 -0.0450  0.0610 -0.2130
 1500W        W 5019   9.087   9.584  10.951  0.2066  0.2088 -0.1691
 1501W        W 5020   2.794   5.489   2.073 -0.0302  0.2776 -0.1056
 1502W        W 5021   1.603   8.948   9.107  0.0554 -0.0083 -0.0181
 1503W        W 5022   8.621   7.581   9.390  0.1348  0.0074  0.2538
 1504W        W 5023   0.117   4.307  11.448 -0.3515 -0.0801 -0.1947
 1505W        W 5024   1.681   8.976   1.738  0.1847  0.3965  0.0207
 1506W        W 5025   9.447   9.588   1.259 -0.1571  0.1123  0.3921
 1507W        W 5026   1.805   1.196   8.560  0.1611 -0.1845  0.1433
 1508W        W 5027   8.937   0.433   4.469  0.0938 -0.2315 -0.0043
 1509W        W 5028   4.123   9.196  12.193 -0.1343 -0.2460 -0.1220
 1510W        W 5029   3.148   0.773   2.162 -0.0675  0.1921  0.1854
 1511W        W 5030   4.065   8.514   2.055 -0.0388  0.0517  0.1803
 1512W        W 5031   2.854   1.338   2.814  0.0018 -0.0969 -0.1636
 1513W        W 5032   7.222   0.831   0.357  0.0412  0.3587  0.2397
 1514W        W 5033   0.709   3.301   0.186 -0.2241  0.2379 -0.3253
 1515W        W 5034   3.239   3.447  11.657 -0.1286 -0.2036 -0.0055
 1516W        W 5035   8.721   5.219  11.141 -0.1081  0.0735 -0.0091
 1517W        W 5036   4.769   4.674   9.311  0.0550 -0.0258 -0.5112
 1518W        W 5037   5.885   2.378   9.629 -0.3713 -0.2856 -0.2058
 1519W        W 5038   8.321   5.728   0.935 -0.1780  0.0586 -0.0862
 1520W        W 5039   9.351   5.692   1.385  0.1536 -0.1955  0.1990
 1521W        W 5040   2.359   0.311   2.469  0.0178 -0.2680  0.0797
 1522W        W 5041   3.082   4.885   4.201 -0.2423  0.1657 -0.2107
 1523W        W 5042   2.577   5.933  10.986  0.0105 -0.1884  0.2055
 1524W        W 5043   7.117   9.357   0.963  0.1014  0.2716 -0.0569
 1525W        W 5044   4.946   8.963   3.810  0.0513  0.0923  0.0137
 1526W        W 5045   7.267   7.719   1.790  0.0220 -0.0009  0.2788
 1527W        W 5046   2.048   3.814   0.805 -0.0822 -0.1514  0.1919
 1528W        W 5047   8.409   4.033   3.616  0.3785 -0.0298 -0.1063
 1529W        W 5048   9.638   0.404  10.693 -0.0052  0.2042 -0.0179
 1530W        W 5049   5.889   5.997   3.660  0.4153 -0.2352 -0.1121
 1531W        W 5050   2.107   6.504   2.364 -0.1266 -0.1458  0.0822
 1532W        W 5051   6.733   4.284   4.193 -0.1799  0.0516 -0.1677
 1533W        W 5052   5.916   3.952  11.024 -0.0371 -0.1737 -0.5484
 1534W        W 5053   3.452   6.402   1.226  0.1249  0.3243  0.1293
 1535W        W 5054   0.557   4.327  12.199  0.0342  0.1355 -0.1832
 1536W        W 5055   5.422   9.550   9.898 -0.1210 -0.0649  0.0095
 1537W        W 5056   8.321   2.756   3.279 -0.4284  0.1726  0.3481
 1538W        W 5057   3.961   1.885   9.618 -0.0742  0.0515  0.1249
 1539W        W 5058   1.431   2.052   0.486  0.0770 -0.1118  0.0837
 1540W        W 5059   4.084   7.602   3.660  0.1275 -0.0351 -0.1982
 1541W        W 5060   4.375   6.322   0.474  0.0270 -0.2535  0.0326
 1542W        W 5061   2.727   4.269   1.482  0.2930  0.0628  0.2112
 1543W        W 5062   7.662   9.126   0.003  0.0379 -0.4039  0.1780
 1544W        W 5063   8.577   6.008   1.329 -0.1350  0.0616  0.2299
 1545W        W 5064   8.189   4.284   0.868 -0.1615  0.2763  0.0640
 1546W        W 5065   8.372   7.543   4.672  0.1523 -0.1789  0.2600
 1547W        W 5066   6.883   2.983  10.607 -0.1374  0.3239  0.1149
 1548W        W 5067   6.183   6.120  12.186  0.2358  0.0785 -0.4865
 1549W        W 5068   3.837   8.214  12.390 -0.1487  0.0095  0.0742
 1550W        W 5069   9.306   5.852   9.633  0.1072  0.2016 -0.1852
 1551W        W 5070   8.696   8.839  10.889 -0.2237  0.1542  0.0938
 1552W        W 5071   7.983   7.949  11.851 -0.2427  0.3063 -0.0516
 1553W        W 5072   8.950   3.698   3.823 -0.0072  0.3314  0.0242
 1554W        W 5073   3.977   7.522  11.129 -0.1073 -0.3045 -0.3613
 1555W        W 5074   1.981   8.509   1.639  0.1158  0.3602  0.1088
 1556W        W 5075   3.821   5.356   0.408  0.0048 -0.1227 -0.1032
 1557W        W 5076   0.118   6.816  11.607 -0.1221  0.2318  0.0167
 1558W        W 5077   6.474   4.993   1.757  0.1601 -0.1230  0.1443
 1559W        W 5078   7.459   6.188   8.646 -0.1967  0.1213 -0.0211
 1560W        W 5079   2.422   7.627  11.693 -0.1731 -0.2790  0.1159
 1561W        W 5080   2.492   4.714   9.686  0.1691 -0.1056  0.0302
 1562W        W 5081   5.896   3.988   2.333  0.1146  0.4478 -0.0247
 1563W        W 5082   0.600   4.274   2.798  0.0250 -0.0621 -0.2260
 1564W        W 5083   8.715   7.371   4.232  0.2642  0.3017 -0.1355
 1565W        W 5084   9.416   5.667   3.497 -0.4383 -0.2160  0.1256
 1566W        W 5085   0.921   6.157   8.953 -0.4154  0.0244 -0.1307
 1567W        W 5086   3.575   7.354   0.609 -0.0391 -0.1976  0.1645
 1568W        W 5087   2.734   1.301   8.335  0.1869  0.2522 -0.1150
 1569W        W 5088   2.382   1.731  10.181  0.0501  0.0088 -0.1224
 1570W        W 5089   6.442   0.266   0.985  0.0053  0.3301  0.1903
 1571W        W 5090   6.468   6.943   1.687 -0.0797  0.3697  0.1611
 1572W        W 5091   1.955   9.457   0.441  0.0834  0.0549 -0.1533
 1573W        W 5092   7.274   6.098   9.108  0.0948 -0.4097 -0.1307
 1574W        W 5093   9.208   5.639   0.487  0.0573  0.1518 -0.0396
 1575W        W 5094   2.488   7.796   2.128  0.0125  0.0118  0.3101
 1576W        W 5095   7.863   3.172  11.820 -0.0570  0.0506  0.1861
 1577W        W 5096   5.884   7.769   9.819 -0.1878  0.0748  0.3667
 1578W        W 5097   9.019   3.097   9.862  0.0856  0.2576 -0.2256
 1579W        W 5098   5.538   3.467   1.938 -0.1734  0.0704 -0.1500
 1580W        W 5099   3.524   9.175  10.361 -0.0711  0.2059 -0.1272
 1581W        W 5100   9.305   5.564   9.173  0.0530  0.2285 -0.0481
 1582W        W 5101   7.309   8.551   2.656 -0.1801 -0.2240 -0.2946
 1583W        W 5102   8.048   6.536   3.163  0.2400 -0.2489  0.1225
 1584W        W 5103   3.595   1.547   3.264  0.0716  0.0389 -0.3658
 1585W        W 5104   6.348   3.311   4.469 -0.1082  0.1605 -0.2038
 1586W        W 5105   8.167   7.740   1.276  0.0063 -0.4764  0.1638
 1587W        W 5106   2.658   2.680  10.188 -0.0501 -0.0042 -0.0409
 1588W        W 5107   8.450   4.692   3.508  0.4255  0.3881  0.2569
 1589W        W 5108   1.293   8.241  11.894  0.2508  0.1060 -0.1923
 1590W        W 5109   0.195   0.130   3.351 -0.0382  0.1227  0.4487
 1591W        W 5110   6.801   1.084   2.875  0.0714  0.1612 -0.3637
 1592W        W 5111   2.524   6.508   3.482 -0.2031 -0.0610  0.3027
 1593W        W 5112   6.506   0.746  10.026  0.0151  0.1359  0.1607
 1594W        W 5113   1.808   6.080  12.182  0.1719  0.3212 -0.2154
 1595W        W 5114   0.583   2.426   2.588  0.0537  0.1183 -0.2535
 1596W        W 5115   7.796   2.205  10.342 -0.0111 -0.1389  0.0884
 1597W        W 5116   1.404   3.303   1.266  0.2318 -0.0507 -0.2038
 1598W        W 5117   0.688   0.464  12.455  0.1259 -0.2059  0.2540
 1599W        W 5118   7.532   2.876   2.193 -0.0397 -0.1592  0.0470
 1600W        W 5119   9.203   1.280  10.690 -0.1212 -0.2798 -0.0420
 1601W        W 5120   2.747   0.470   3.834  0.0434  0.2796 -0.2208
 1602W        W 5121   6.920   7.183   2.842 -0.3053  0.5756 -0.0315
 1603W        W 5122   7.215   5.497   3.235  0.0956  0.2372  0.0372
 1604W        W 5123   5.004   5.734   9.536 -0.0066 -0.0858 -0.1290
 1605W        W 5124   4.088   3.331   3.863  0.1849  0.0851 -0.0401
 1606W        W 5125   0.753   9.708  10.107  0.2102 -0.1138 -0.1633
 1607W        W 5126   0.107   2.930  10.999  0.2978 -0.0527 -0.2100
 1608W        W 5127   7.667   4.071  12.152 -0.0018  0.0062  0.0740
 1609W        W 5128   7.599   0.237   1.240  0.1031  0.0858  0.3058
 1610W        W 5129   6.658   1.550  12.128  0.2072 -0.1526 -0.1995
 1611W        W 5130   4.782   1.017   3.707  0.1830 -0.2405 -0.1335
 1612W        W 5131   4.834   0.784   3.303 -0.0382  0.1749  0.2848
 1613W        W 5132   1.379   5.712   0.501 -0.1160  0.0486 -0.2972
 1614W        W 5133   5.586   2.349   2.400 -0.2026 -0.0276 -0.2077
 1615W        W 5134   8.180   8.036   1.824 -0.0993 -0.3703 -0.0225
 1616W        W 5135   8.277   4.310   9.987  0.0577  0.0139  0.0863
 1617W        W 5136   3.641   0.380  11.006  0.2921 -0.1558 -0.3731
 1618W        W 5137   9.273   3.449   0.995  0.1505  0.3441  0.2172
 1619W        W 5138   8.212   4.107   2.231  0.0081 -0.0315 -0.1524
 1620W        W 5139   9.671   4.403  12.193  0.0928 -0.0145 -0.0279
 1621W        W 5140   7.598   9.028  11.516  0.1168  0.1026 -0.1685
 1622W        W 5141   2.058   6.044   0.980  0.1787 -0.0374 -0.3315
 1623W        W 5142   2.791   7.523   9.282 -0.0135 -0.0919 -0.0530
 1624W        W 5143   0.730   8.535   3.376 -0.1749 -0.0795 -0.1395
 1625W        W 5144   5.188   1.185   1.660 -0.0186  0.1523  0.1761
 1626W        W 5145   4.420   0.540   2.578  0.1660 -0.1401  0.3230
 1627W        W 5146   7.044   8.693   3.803  0.1670  0.0897  0.4469
 1628W        W 5147   5.339   9.683   1.618  0.1492  0.1779  0.3300
 1629W        W 5148   2.351   2.640  11.354  0.0388  0.3095 -0.1486
 1630W        W 5149   0.741   6.938  12.236  0.0160  0.1412  0.1045
 1631W        W 5150   6.759   0.114   2.487 -0.3277 -0.2667 -0.1088
 1632W        W 5151   0.038   0.214   2.270  0.3727  0.0797 -0.3177
 1633W        W 5152   7.363   2.773  10.959 -0.1954  0.4459  0.3592
 1634W        W 5153   1.788   6.012   1.519  0.1043 -0.1574 -0.0116
 1635W        W 5154   6.485   2.063   3.854  0.1357  0.1193 -0.1905
 1636W        W 5155   2.513   4.949   2.922 -0.1096 -0.0522  0.0614
 1637W        W 5156   5.835   5.324   0.157 -0.0313 -0.1007 -0.0905
 1638W        W 5157   3.228   1.645  11.035  0.1240  0.1159 -0.1207
 1639W        W 5158   6.504   3.109   0.424  0.2834 -0.0426 -0.0560
 1640W        W 5159   9.379   6.083  11.969  0.1190  0.3595 -0.2172
 1641W        W 5160   3.611   6.908  12.230 -0.1111  0.0338  0.4686
 1642W        W 5161   5.880   4.838  10.436 -0.0852 -0.1201  0.0221
 1643W        W 5162   0.047   7.456   1.576  0.2520  0.0691 -0.0953
 1644W        W 5163   8.920   8.839   9.570 -0.3307  0.0602 -0.2547
 1645W        W 5164   7.276   4.245  11.316 -0.0906 -0.0840 -0.0350
 1646W        W 5165   8.132   1.167   0.398  0.1827  0.2218 -0.0350
 1647W        W 5166   8.836   2.495  10.828 -0.1709  0.1557  0.0979
 1648W        W 5167   9.311   5.026   9.334  0.1823 -0.0470  0.3462
 1649W        W 5168   4.138   1.215  11.380 -0.0154  0.0351  0.0679
 1650W        W 5169   4.741   9.568  11.084 -0.1021 -0.2864  0.0346
 1651W        W 5170   4.068   6.287   8.087 -0.0004  0.1829  0.2179
 1652W        W 5171   6.445   2.392  11.784 -0.2084 -0.0394 -0.0718
 1653W        W 5172   5.584   1.999   0.554  0.2778  0.2824 -0.2682
 1654W        W 5173   4.028   9.410   2.503  0.1431 -0.3323  0.0869
 1655W        W 5174   0.012   3.495   8.635 -0.1656 -0.3017 -0.0281
 1656W        W 5175   6.782   9.477   1.779 -0.0977 -0.0792 -0.1815
 1657W        W 5176   6.009   8.892   2.028  0.0299 -0.0970  0.0592
 1658W        W 5177   8.578   6.941  11.986 -0.0072 -0.0917 -0.0089
 1659W        W 5178   8.745   8.181  11.642 -0.0689  0.1145 -0.0017
 1660W        W 5179   2.363   3.290   9.685  0.2098  0.3814 -0.4403
 1661W        W 5180   3.393   2.281   1.648  0.3149 -0.1554 -0.0495
 1662W        W 5181   2.705   4.314   8.839 -0.0189  0.3726 -0.3310
 1663W        W 5182   5.462   4.001   9.165  0.0429 -0.2629 -0.0759
 1664W        W 5183   9.115   9.324   2.308 -0.0292  0.0720 -0.3630
 1665W        W 5184   9.289   1.099   3.595  0.0669 -0.0791 -0.2069
 1666W        W 5185   2.531   5.274  11.849 -0.4031 -0.0892 -0.0092
 1667W        W 5186   8.568   9.589   3.102  0.1905 -0.2539  0.1513
 1668W        W 5187   7.979   5.547   0.527  0.3130  0.1624 -0.2341
 1669W        W 5188   2.643   8.288   2.345 -0.2463 -0.2873 -0.0989
 1670W        W 5189   6.357   6.284   2.983  0.0651  0.3682 -0.0488
 1671W        W 5190   5.484   1.667  11.376  0.1204 -0.3880  0.3500
 1672W        W 5191   2.925   1.620   1.560  0.1026  0.0266  0.2187
 1673W        W 5192   4.719   6.956  10.896 -0.1946  0.2472 -0.3230
 1674W        W 5193   5.399   3.711   1.454 -0.2411 -0.0463 -0.1053
 1675W        W 5194   6.903   0.642   1.767  0.0058  0.1818 -0.1504
 1676W        W 5195   0.621   9.207   2.166  0.2212 -0.1106  0.0118
 1677W        W 5196   4.695   4.404   4.557 -0.5937  0.0346 -0.2161
 1678W        W 5197   4.624   8.268  10.525 -0.0667 -0.2359 -0.4325
 1679W        W 5198   1.701   7.169   4.392  0.0752 -0.1048 -0.0363
 1680W        W 5199   2.001   4.422  11.045 -0.1892 -0.2440 -0.1992
 1681W        W 5200   2.928   2.751   3.180 -0.0613  0.1134  0.4160
 1682W        W 5201   0.063   7.473   4.062 -0.0909 -0.0670 -0.1690
 1683W        W 5202   9.037   5.276   1.300 -0.0541 -0.1181 -0.1516
 1684W        W 5203   7.773   8.130  10.475 -0.0120  0.0047 -0.1396
 1685W        W 5204   4.609   2.283   9.067  0.2076  0.0801  0.1560
 1686W        W 5205   5.434   5.901  11.674 -0.0423  0.1679  0.3723
 1687W        W 5206   4.682   4.877   9.848  0.3732  0.2319  0.2493
 1688W        W 5207   0.982   7.013  10.611  0.0798  0.1225  0.1720
 1689W        W 5208   7.784   1.553   9.747  0.2026 -0.1119 -0.1623
 1690W        W 5209   3.810   3.334   3.353  0.0055  0.1446 -0.1114
 1691W        W 5210   7.367   8.795   9.127 -0.0097  0.2647  0.0063
 1692W        W 5211   2.727   8.715   4.358 -0.2101  0.0898 -0.0341
 1693W        W 5212   1.920   2.769  10.326  0.1106 -0.2277  0.3646
 1694W        W 5213   6.889   8.739  11.296 -0.3421 -0.0282  0.0606
 1695W        W 5214   5.816   3.451  12.016  0.1802 -0.2360 -0.1706
 1696W        W 5215   7.761   1.841   0.735  0.1139  0.1796  0.0038
 1697W        W 5216   3.849   4.168   8.517  0.1342  0.2416 -0.2646
 1698W        W 5217   0.092   8.688   4.174 -0.1105  0.4374  0.4267
 1699W        W 5218   1.682   6.198   4.542 -0.0510 -0.0222  0.1519
 1700W        W 5219   2.154   5.236   0.177  0.0498 -0.0045  0.1310
 1701W        W 5220   3.620   8.117   3.628 -0.1922  0.0202  0.0302
 1702W        W 5221   3.912   3.243  12.482  0.1715 -0.0048  0.4018
 1703W        W 5222   4.201   2.192   9.387  0.0919 -0.2365 -0.3762
 1704W        W 5223   9.635   3.525  11.898 -0.3995 -0.2399 -0.0321
 1705W        W 5224   6.478   4.965   0.501 -0.3662  0.1343 -0.3063
 1706W        W 5225   7.198   0.799   2.869 -0.1616 -0.0719  0.0739
 1707W        W 5226   9.259   6.497   1.392  0.2077  0.2575 -0.2528
 1708W        W 5227   0.900   3.110   9.975 -0.0612 -0.2600 -0.0389
 1709W        W 5228   7.068   7.331  10.833  0.1247  0.1287  0.2060
 1710W        W 5229   6.421   5.756  12.363 -0.0810  0.2839 -0.1269
 1711W        W 5230   9.170   7.783  12.247  0.2076 -0.1028  0.1801
 1712W        W 5231   0.957   7.106   0.387 -0.2535 -0.2601 -0.0300
 1713W        W 5232   6.842   1.860   8.724  0.2990 -0.0668  0.0586
 1714W        W 5233   8.870   8.587   1.769  0.1134  0.1990 -0.1272
 1715W        W 5234   3.765   1.043   3.309  0.3270 -0.1872 -0.0099
 1716W        W 5235   3.348   0.365  11.463 -0.0114 -0.0730  0.0248
 1717W        W 5236   5.726   2.565   1.024  0.1282  0.0395  0.1177
 1718W        W 5237   1.932   1.393  10.835  0.0636 -0.1041 -0.0712
 1719W        W 5238   5.285   0.550  11.970  0.0406 -0.3155 -0.0208
 1720W        W 5239   9.190   3.421   9.553 -0.2948 -0.1386  0.2309
 1721W        W 5240   6.126   5.270  12.286  0.0391  0.2726  0.0505
 1722W        W 5241   3.952   2.345   2.264  0.1856 -0.1104  0.1186
 1723W        W 5242   3.497   5.752   1.411  0.1586  0.2612  0.1622
 1724W        W 5243   3.761   6.806   1.338  0.1718  0.0203 -0.1502
 1725W        W 5244   7.798   0.649   9.782 -0.0033 -0.0334 -0.2942
 1726W        W 5245   9.131   1.750  12.159  0.2238 -0.0448  0.0161
 1727W        W 5246   5.549   0.584   9.769 -0.0030 -0.1245  0.0420
 1728W        W 5247   5.621   6.758   9.952 -0.0719 -0.0843 -0.0528
 1729W        W 5248   7.664   6.985   3.789 -0.0859 -0.2982  0.1615
 1730W        W 5249   4.059   5.949   3.903 -0.0605 -0.1012  0.1156
 1731W        W 5250   7.870   7.778   3.380 -0.2348  0.1866 -0.1184
 1732W        W 5251   1.758   7.574  10.629  0.0061  0.1080  0.1437
 1733W        W 5252   4.611   0.964   0.415 -0.1345  0.0173 -0.1865
 1734W        W 5253   1.208   9.287   9.496  0.2044 -0.3566 -0.0102
 1735W        W 5254   1.460   4.719   1.520 -0.0345  0.0182  0.0708
 1736W        W 5255   0.160   3.569   0.092 -0.0649  0.0832  0.2900
 1737W        W 5256   2.579   2.897   0.602 -0.2435  0.2310 -0.0122
 1738W        W 5257   3.276   7.874  10.534 -0.1123  0.1477 -0.1337
 1739W        W 5258   6.867   2.839   9.618 -0.1525  0.0737 -0.3006
 1740W        W 5259   1.043   1.397   2.393  0.1775  0.2912  0.0256
 1741W        W 5260   3.728   2.583   4.476 -0.0383  0.0895  0.1763
 1742W        W 5261   6.302   8.289  10.798 -0.1280  0.1878  0.0795
 1743W        W 5262   0.336   3.882   3.246 -0.1497  0.0099 -0.0048
 1744W        W 5263   2.742   0.031   0.775  0.5204  0.2221 -0.0130
 1745W        W 5264   4.702   2.158  11.947  0.2601 -0.0268 -0.1109
 1746W        W 5265   8.327   5.225   3.292 -0.1902  0.0983 -0.0195
 1747W        W 5266   9.652   3.410   1.309 -0.2028 -0.0976 -0.1533
 1748W        W 5267   2.901   8.167  10.960  0.2905  0.0033  0.4187
 1749W        W 5268   5.189   6.241   0.831 -0.3066  0.0057  0.2931
 1750W        W 5269   4.104   3.766  12.370 -0.3102  0.0269 -0.1558
 1751W        W 5270   5.687   5.619  11.306  0.3429  0.0338  0.2876
 1752W        W 5271   6.319   4.345   2.379  0.0326 -0.3807 -0.0966
 1753W        W 5272   9.003   8.328   9.422 -0.1022  0.0348  0.0888
 1754W        W 5273   6.469   1.152   2.358 -0.2412  0.1777 -0.1244
 1755W        W 5274   9.184   2.931   3.135  0.2467 -0.1894 -0.2379
 1756W        W 5275   1.479   4.509   4.281 -0.2737 -0.0889 -0.0823
 1757W        W 5276   1.260   6.137  10.560  0.0276  0.0478  0.0590
 1758W        W 5277   2.705   1.924   1.234  0.0533 -0.1991 -0.4063
 1759W        W 5278   3.336   4.511   4.336 -0.0065 -0.3136 -0.0155
 1760W        W 5279   2.958   3.345  11.232 -0.0244  0.1893 -0.0392
 1761W        W 5280   2.662   0.485  11.271 -0.2480 -0.0601  0.1858
 1762W        W 5281   8.248   6.288   0.563 -0.1833 -0.1687  0.0292
 1763W        W 5282   6.531   3.474  10.250  0.1331 -0.2912 -0.1582
 1764W        W 5283   5.442   1.118   1.028  0.3446  0.2078 -0.2270
 1765W        W 5284   7.798   0.777   3.270 -0.1246  0.1762 -0.1949
 1766W        W 5285   4.040   5.635  10.243 -0.0952  0.1012  0.0360
 1767W        W 5286   3.125   7.080  12.288  0.2061 -0.1619  0.0422
 1768W        W 5287   0.414   3.726   1.441  0.2172 -0.0389 -0.0486
 1769W        W 5288   7.472   8.817   3.488  0.0815 -0.0226 -0.1374
 1770W        W 5289   1.819   8.755   1.260 -0.1329  0.1058  0.0097
 1771W        W 5290   2.727   0.016   9.108 -0.0213 -0.0199  0.0451
 1772W        W 5291   3.794   2.097   8.444 -0.2488 -0.1769 -0.2717
 1773W        W 5292   1.490   8.141   4.389 -0.3290  0.1599  0.0578
 1774W        W 5293   8.590   0.472   1.181  0.3106 -0.1708  0.1793
 1775W        W 5294   2.095   1.339  11.866  0.0247  0.0751  0.0530
 1776W        W 5295   6.223   5.698  11.367 -0.0339  0.0987  0.0334
 1777W        W 5296   1.875   0.520   2.219  0.1422 -0.0220 -0.0125
 1778W        W 5297   4.473   3.394  12.387  0.4444 -0.0337 -0.0902
 1779W        W 5298   7.922   3.100   0.854 -0.1823 -0.2222 -0.2942
 1780W        W 5299   4.709   3.331   0.343  0.1548  0.0733 -0.2641
 1781W        W 5300   3.843   4.926  12.037 -0.0036  0.0572  0.4485
 1782W        W 5301   3.749   2.058   1.933 -0.2048 -0.0975  0.0646
 1783W        W 5302   4.903   5.629   0.163 -0.3455  0.4420  0.0152
 1784W        W 5303   7.742   1.959  11.349  0.0857 -0.1335 -0.4035
 1785W        W 5304   2.118   7.428   0.169 -0.3000  0.0045 -0.1640
 1786W        W 5305   8.314   1.902   9.140 -0.1036 -0.1749  0.0076
 1787W        W 5306   4.094   1.414   2.452 -0.0146 -0.1643 -0.2726
 1788W        W 5307   2.699   2.973   3.985  0.2563 -0.1019 -0.0130
 1789W        W 5308   0.269   4.821   4.060 -0.1538 -0.1043 -0.3887
 1790W        W 5309   0.283   0.591   0.771  0.1141 -0.1301  0.4252
 1791W        W 5310   9.524   6.860   3.521 -0.0572  0.1402  0.3481
 1792W        W 5311   0.536   0.679  11.458  0.1867 -0.2508 -0.0828
 1793W        W 5312   7.780   8.765   9.617 -0.2949  0.1356 -0.1316
 1794W        W 5313   0.215   8.848   2.334  0.2034  0.0763  0.0991
 1795W        W 5314   0.264   8.101  12.015 -0.0340  0.0608  0.1291
 1796W        W 5315   4.133   6.604   1.116 -0.2233  0.0533 -0.2254
 1797W        W 5316   5.167   9.343   0.232  0.1093 -0.0487 -0.2648
 1798W        W 5317   5.183   2.293   3.413 -0.0391  0.0410  0.0467
 1799W        W 5318   1.918   1.161   4.083  0.0084 -0.1392  0.1811
 1800W        W 5319   4.287   8.140   2.874 -0.0260 -0.2633 -0.2507
 1801W        W 5320   7.009   7.649   2.606 -0.3778 -0.1135  0.0637
 1802W        W 5321   7.002   3.775   0.964  0.4593 -0.1170  0.0816
 1803W        W 5322   5.722   5.651   1.440 -0.2531  0.0175 -0.0312
 1804W        W 5323   7.316   4.780   0.523 -0.2416 -0.0691  0.1736
 1805W        W 5324   0.994   3.646  12.402 -0.1186  0.1995 -0.2064
 1806W        W 5325   0.389   9.215  12.114 -0.3399 -0.0628  0.2469
 1807W        W 5326   5.655   3.506  10.617 -0.0331  0.1090 -0.1614
 1808W        W 5327   0.723   1.098   0.566  0.1609 -0.1469 -0.0158
 1809W        W 5328   9.537   6.176   2.464 -0.1758 -0.0052  0.1687
 1810W        W 5329   7.393   7.052  10.504 -0.1252 -0.1197 -0.0018
 1811W        W 5330   7.320   7.987  10.023 -0.0646  0.0264  0.0348
 1812W        W 5331   8.024   7.030   2.119 -0.0232 -0.0107  0.1291
 1813W        W 5332   4.541   5.533   3.256 -0.1156 -0.1338  0.0457
 1814W        W 5333   4.149   8.355  12.068  0.0721  0.1944  0.3668
 1815W        W 5334   0.835   3.413  11.911  0.1818 -0.0935 -0.3117
 1816W        W 5335   3.883   1.835   2.922  0.2627  0.1371 -0.1728
 1817W        W 5336   9.478   2.339   3.067 -0.3035  0.1049 -0.0253
 1818W        W 5337   5.586   4.539   8.915 -0.2608 -0.1978  0.0518
 1819W        W 5338   1.614   1.462   2.627 -0.3418  0.0928  0.2784
 1820W        W 5339   2.443   3.225   0.252 -0.1368 -0.3032 -0.3143
 1821W        W 5340   6.287   1.055   9.151  0.1800  0.1635  0.1087
 1822W        W 5341   8.676   6.094   0.793 -0.0364  0.1214 -0.2092
 1823W        W 5342   2.904   4.188  12.142  0.0410 -0.0436 -0.0127
 1824W        W 5343   8.887   2.469   0.164  0.0385  0.1565 -0.2843
 1825W        W 5344   5.844   5.426  11.700 -0.0263  0.3088  0.2183
 1826W        W 5345   2.227   1.173   2.840 -0.0403  0.1200 -0.1416
 1827W        W 5346   6.403   2.126   1.047 -0.1512 -0.0654 -0.0084
 1828W        W 5347   9.491   1.085   9.870 -0.1966 -0.2468 -0.0090
 1829W        W 5348   0.770   2.879   4.627 -0.4116 -0.0819 -0.3084
 1830W        W 5349   4.783   1.092   8.446 -0.0574 -0.0217  0.2763
 1831W        W 5350   7.007   9.153   3.585  0.0961  0.2399  0.1562
 1832W        W 5351   3.685   9.142   8.413 -0.0592 -0.3641  0.2182
 1833W        W 5352   0.884   4.692   2.464  0.0970  0.2365 -0.2060
 1834W        W 5353   9.543   9.413   0.717 -0.0691 -0.1420 -0.2068
 1835W        W 5354   8.456   4.326  12.495  0.2431  0.2274 -0.1086
 1836W        W 5355   7.324   5.573   2.366  0.1970 -0.0224 -0.2767
 1837W        W 5356   0.357   1.811   0.446 -0.1988  0.1704 -0.0068
 1838W        W 5357   1.805   7.489  12.146 -0.2236  0.0169 -0.0736
 1839W        W 5358   6.121   6.266   9.281  0.0754  0.1661  0.1229
 1840W        W 5359   6.840   4.159   3.558 -0.2293  0.0215  0.2558
 1841W        W 5360   9.236   3.790   8.687  0.0791  0.2372 -0.1043
 1842W        W 5361   0.620   7.831   3.722  0.2341 -0.2795  0.0232
 1843W        W 5362   5.144   6.392  12.331 -0.0475  0.1183 -0.3318
 1844W        W 5363   3.565   4.844  10.083 -0.1268 -0.1531 -0.1202
 1845W        W 5364   2.862   6.918   2.202 -0.2253  0.0150  0.0268
 1846W        W 5365   3.369   7.483  12.428 -0.5466 -0.1413  0.0323
 1847W        W 5366   4.260   7.555   0.935 -0.1336  0.0883 -0.0202
 1848W        W 5367   8.977   0.859   9.586  0.0871  0.0172 -0.0232
 1849W        W 5368   1.137   8.109   1.393  0.0076 -0.2108  0.2893
 1850W        W 5369   2.012   0.715   1.786  0.3731  0.0639 -0.0062
 1851W        W 5370   8.975   8.398   9.937  0.3360  0.1595 -0.1060
 1852W        W 5371   4.423   7.262  10.591 -0.0066  0.2434  0.2648
 1853W        W 5372   1.449   2.739   3.245  0.0340  0.0798 -0.0466
 1854W        W 5373   4.299   9.474  11.499 -0.1817  0.2058  0.1904
 1855W        W 5374   0.972   6.559   0.587  0.0442  0.0987  0.1270
 1856W        W 5375   3.201   3.452   9.283 -0.0092 -0.0985  0.0308
 1857W        W 5376   6.805   2.949  11.119 -0.0960  0.4402 -0.2077
 1858W        W 5377   3.557   5.396  10.373 -0.0749 -0.0084  0.1794
 1859W        W 5378   5.078   1.845   0.238 -0.1539  0.2341 -0.1996
 1860W        W 5379   2.555   4.313  11.764 -0.2444  0.1120 -0.0270
 1861W        W 5380   7.300   7.557  10.415  0.1714 -0.2340  0.1333
 1862W        W 5381   4.055   4.192  11.444 -0.5325 -0.2219  0.1178
 1863W        W 5382   1.437   6.499  11.854  0.0499 -0.0645  0.3229
 1864W        W 5383   5.485   8.042   9.840 -0.0905 -0.0175  0.3034
 1865W        W 5384   7.549   6.227   1.172  0.3889 -0.1195 -0.2560
 1866W        W 5385   4.370   8.370   9.663  0.0615  0.1262 -0.1499
 1867W        W 5386   6.665   7.449  11.752  0.0246 -0.2839  0.1075
 1868W        W 5387   5.032   0.149   1.267  0.0920 -0.3882 -0.1572
 1869W        W 5388   7.886   1.970   9.457  0.1462 -0.0558  0.0552
 1870W        W 5389   9.562   1.475  12.232  0.2195 -0.0020  0.1516
 1871W        W 5390   0.548   4.157  11.157 -0.0345 -0.0278 -0.0549
 1872W        W 5391   6.490   1.268  10.256  0.0412 -0.0230  0.2560
 1873W        W 5392   0.878   6.086   9.489 -0.0075 -0.2204 -0.1186
 1874W        W 5393   3.473   7.469  10.951  0.0550  0.0390 -0.1686
 1875W        W 5394   2.357   0.357   1.979  0.1102 -0.0182  0.0408
 1876W        W 5395   9.384   5.571  11.669 -0.0585  0.0844 -0.1820
 1877W        W 5396   0.133   3.910   3.699 -0.0338 -0.3756  0.3813
 1878W        W 5397   7.230   1.856   0.627 -0.1051 -0.0400  0.0545
 1879W        W 5398   4.088   3.283  12.027  0.2151 -0.3183 -0.1977
 1880W        W 5399   5.430   5.105   1.591  0.0671 -0.0004  0.2496
 1881W        W 5400   3.798   1.635   8.180 -0.0179  0.2602  0.0251
 1882W        W 5401   8.600   2.522  12.283 -0.3579 -0.2818  0.1610
 1883W        W 5402   4.090   0.459  10.843  0.4212 -0.0066 -0.0002
 1884W        W 5403   9.564   4.910  12.305  0.4919  0.0535  0.1562
 1885W        W 5404   5.843   4.335  12.045  0.0907  0.0362 -0.1070
 1886W        W 5405   4.245   2.236   1.708  0.0683  0.0895 -0.0983
 1887W        W 5406   5.087   3.937  11.834 -0.0291  0.0919 -0.0581
 1888W        W 5407   7.476   6.624  11.156  0.3748  0.0373  0.0642
 1889W        W 5408   1.591   3.368  10.820 -0.2210 -0.0580 -0.1282
 1890W        W 5409   9.235   1.184  11.237 -0.0458  0.0946  0.2171
 1891W        W 5410   7.981   2.240   1.545 -0.0844  0.0229 -0.0297
 1892W        W 5411   5.078   5.665   1.107  0.0519 -0.1047  0.1487
 1893W        W 5412   0.127   6.925   0.502 -0.2443 -0.2796 -0.0591
 1894W        W 5413   4.070   0.334   3.804 -0.1451  0.2070 -0.0579
 1895W        W 5414   6.224   2.963  11.875  0.1124 -0.0004  0.1380
 1896W        W 5415   7.680   6.710   2.300  0.0453 -0.1148 -0.2471
 1897W        W 5416   8.607   3.289  10.219 -0.1384  0.0992 -0.1096
 1898W        W 5417   5.329   6.638  11.865  0.0472  0.3451 -0.1544
 1899W        W 5418   8.933   8.271   8.119  0.1152 -0.2073 -0.3036
 1900W        W 5419   3.511   0.960  10.293 -0.1640 -0.0234 -0.1009
 1901W        W 5420   2.859   0.838  12.083 -0.1202 -0.0736 -0.2959
 1902W        W 5421   7.388   0.489   3.228 -0.0357  0.0965  0.2188
 1903W        W 5422   2.995   9.712  10.073 -0.0209 -0.0037  0.2511
 1904W        W 5423   1.101   4.043  10.226  0.6213  0.3808 -0.2062
 1905W        W 5424   0.709   4.324   9.375  0.1419 -0.0850 -0.0310
 1906W        W 5425   3.081   1.956   0.367  0.1396 -0.0744 -0.1907
 1907W        W 5426   5.077   9.462   8.779  0.3529  0.0085  0.0604
 1908W        W 5427   3.245   2.115  10.978  0.1233 -0.0876  0.1477
 1909W        W 5428   8.208   4.281  10.859 -0.0779 -0.1543 -0.0295
 1910W        W 5429   8.684   8.382   2.216  0.0189  0.3488  0.2048
 1911W        W 5430   1.676   8.146   2.430  0.2893  0.2399  0.0678
 1912W        W 5431   4.936   1.776   2.152  0.0431 -0.1423 -0.1362
 1913W        W 5432   0.027   2.970   8.798 -0.1351 -0.0317  0.2408
 1914W        W 5433   6.159   3.087  10.427  0.0436  0.1759  0.1980
 1915W        W 5434   2.888   0.262  11.770 -0.1040  0.1693 -0.1434
 1916W        W 5435   3.237   1.837   3.511 -0.1596 -0.1398 -0.0316
 1917W        W 5436   7.597   1.367   0.352 -0.2666 -0.0625  0.1503
 1918W        W 5437   1.406   2.900  10.151 -0.3778  0.1058 -0.0829
 1919W        W 5438   8.289   5.025   2.505 -0.0902  0.2016  0.1639
 1920W        W 5439   0.981   5.296  11.564  0.3652  0.0218 -0.2863
 1921W        W 5440   6.844   2.378   2.317 -0.1169  0.1610  0.3369
 1922W        W 5441   5.067   7.654   1.439  0.1517  0.2611 -0.3652
 1923W        W 5442   2.436   6.544   0.837 -0.1775  0.1817 -0.2471
 1924W        W 5443   0.051   3.137  10.540  0.0937  0.0154 -0.5469
 1925W        W 5444   0.188   1.155   3.600 -0.0239 -0.0364  0.1835
 1926W        W 5445   7.009   4.691   1.680  0.0122 -0.0893 -0.3093
 1927W        W 5446   4.563   6.855  11.646  0.0806  0.2730  0.3251
 1928W        W 5447   1.604   0.636  11.463  0.0870 -0.1905 -0.0223
 1929W        W 5448   5.028   0.909   4.641  0.1768 -0.2476 -0.1187
 1930W        W 5449   8.165   4.797   9.645 -0.0665  0.1650  0.0830
 1931W        W 5450   7.602   0.954   1.589 -0.1075  0.0674  0.1012
 1932W        W 5451   9.395   6.233   9.979 -0.1794  0.1129 -0.3091
 1933W        W 5452   3.950   0.056  10.541 -0.3930 -0.1849 -0.4661
 1934W        W 5453   3.558   1.010   2.355  0.0633  0.0129  0.0100
 1935W        W 5454   1.128   1.046   1.412 -0.0634 -0.0520 -0.1595
 1936W        W 5455   8.674   0.481   9.742  0.0818 -0.1869 -0.3131
 1937W        W 5456   9.125   0.780   0.435 -0.2054 -0.3162 -0.1383
 1938W        W 5457   1.413   7.312  11.572  0.2743 -0.1073 -0.0111
 1939W        W 5458   8.851   5.966   0.320 -0.0031  0.2562 -0.1230
 1940W        W 5459   0.462   4.661  11.288 -0.0082  0.1659 -0.0800
 1941W        W 5460   0.918   2.014  11.587 -0.1869  0.4788 -0.0287
 1942W        W 5461   6.556   3.450   1.916  0.2795  0.1041 -0.1513
 1943W        W 5462   9.406   8.690  11.890  0.0827 -0.2223 -0.1547
 1944W        W 5463   0.172   5.263  12.445 -0.1764 -0.0812 -0.1607
 1945W        W 5464   0.068   9.674   1.797  0.3245  0.1737 -0.1528
 1946W        W 5465   3.755   2.834   0.239  0.1684 -0.3754  0.1037
 1947W        W 5466   8.252   1.121   3.115  0.2162  0.2942 -0.0098
 1948W        W 5467   5.491   1.328   2.768  0.1279  0.0625  0.1984
 1949W        W 5468   6.331   8.145   9.541  0.2709  0.1014  0.2514
 1950W        W 5469   1.068   2.646  12.406 -0.1301  0.0811 -0.3743
 1951W        W 5470   6.936   8.781  10.562 -0.0853 -0.4443  0.0987
 1952W        W 5471   7.707   2.411  11.655  0.1685  0.0320 -0.0945
 1953W        W 5472   2.426   7.156   9.373 -0.0368 -0.0653  0.0028
 1954W        W 5473   3.318   5.384   9.901 -0.1515  0.5408 -0.1172
 1955W        W 5474   2.503   1.581   9.696  0.0724  0.2143 -0.1939
 1956W        W 5475   1.509   9.629   2.370 -0.0431  0.1709 -0.2191
 1957W        W 5476   8.441   9.213   0.656 -0.1262  0.0757 -0.1932
 1958W        W 5477   8.061   9.007   4.512 -0.0855  0.1784 -0.2325
 1959W        W 5478   3.850   8.052   2.269 -0.0946 -0.0154 -0.0054
 1960W        W 5479   6.164   1.605  10.068 -0.0428 -0.0054  0.3944
 1961W        W 5480   1.494   9.644  10.865  0.0690  0.2751 -0.1684
 1962W        W 5481   3.423   9.057  12.518  0.0382 -0.1236  0.0838
 1963W        W 5482   4.027   6.559  10.124  0.0531  0.1045 -0.2057
 1964W        W 5483   8.993   6.429   3.057 -0.1388  0.0249 -0.1270
 1965W        W 5484   0.826   8.933  10.843  0.1794  0.0584 -0.2215
 1966W        W 5485   8.977   7.831   1.345  0.1067  0.0448  0.1375
 1967W        W 5486   4.274   1.392   9.435  0.0255 -0.0548 -0.0375
 1968W        W 5487   3.254   2.963   8.500  0.1031 -0.0802  0.1180
 1969W        W 5488   9.167   1.154   2.110  0.3014 -0.0911  0.0866
 1970W        W 5489   6.154   2.853   0.699 -0.1221 -0.1511 -0.0262
 1971W        W 5490   3.705   5.303   3.158 -0.0490  0.0084 -0.0883
 1972W        W 5491   3.352   9.511   0.175  0.2060 -0.2475  0.4055
 1973W        W 5492   3.856   7.230  10.647 -0.1432  0.1651  0.1626
 1974W        W 5493   6.894   2.205  11.840  0.3022 -0.2881  0.1836
 1975W        W 5494   1.555   0.888   3.285  0.1668 -0.0928 -0.0092
 1976W        W 5495   8.672   0.929   2.788  0.1679  0.0525 -0.4319
 1977W        W 5496   4.774   8.421   3.105  0.1321 -0.1286  0.0561
 1978W        W 5497   7.963   3.139   2.082 -0.0682  0.0230  0.3055
 1979W        W 5498   7.927   6.063   8.334 -0.0409 -0.0113 -0.1578
 1980W        W 5499   2.738   6.482   8.012  0.2260  0.1255  0.0095
 1981W        W 5500   6.405   6.949   2.599 -0.1363 -0.1815  0.2687
 1982W        W 5501   2.964   5.205   8.807  0.0077 -0.1882 -0.4219
 1983W        W 5502   5.415   9.276  10.589 -0.0745 -0.1130 -0.0691
 1984W        W 5503   0.074   3.543   1.816  0.2172  0.0222 -0.0707
 1985W        W 5504   4.553   7.315  11.967  0.1501  0.2968  0.1414
 1986W        W 5505   1.927   1.166   7.957  0.2239  0.1469 -0.2553
 1987W        W 5506   4.886   8.588   4.156  0.0898  0.2452 -0.0481
 1988W        W 5507   0.233   5.413   3.768  0.2560  0.2285 -0.1294
 1989W        W 5508   9.512   3.595  10.621  0.1365  0.0677  0.0173
 1990W        W 5509   3.460   8.898  10.764  0.2233  0.1849  0.1325
 1991W        W 5510   2.024   2.429   2.801  0.3498 -0.2709 -0.0660
 1992W        W 5511   7.433   5.354   0.817 -0.1314 -0.3274 -0.4150
 1993W        W 5512   1.760   4.145   8.854 -0.0363  0.0487  0.0896
 1994W        W 5513   5.451   7.653  10.732  0.1235  0.0200  0.0592
 1995W        W 5514   6.608   7.716   2.083 -0.2388  0.5900 -0.1931
 1996W        W 5515   5.451   7.525   8.612  0.1520 -0.1107  0.0962
 1997W        W 5516   0.249   2.204   0.107 -0.1437  0.3316 -0.0051
 1998W        W 5517   6.932   8.573   9.197  0.1310  0.1769 -0.0486
 1999W        W 5518   3.867   4.985   2.496 -0.1352  0.1637  0.0765
 2000W        W 5519   1.339   3.815   3.387  0.2769  0.2636  0.0161
 2001W        W 5520   8.966   5.518   0.023 -0.2673  0.0051 -0.0355
 2002W        W 5521   8.099   6.835  11.780 -0.0581 -0.1703 -0.1370
 2003W        W 5522   6.719   1.423   1.478  0.0275 -0.3417 -0.1363
 2004W        W 5523   0.218   0.813  10.801 -0.1586 -0.0575  0.1751
 2005W        W 5524   8.622   4.102   1.933 -0.0831 -0.2998 -0.0979
 2006W        W 5525   2.521   8.721   3.282 -0.3762 -0.2654  0.2221
 2007W        W 5526   8.661   6.083   4.028 -0.0945 -0.0309  0.1777
 2008W        W 5527   0.337   6.295   1.202 -0.0598 -0.0753 -0.0410
 2009W        W 5528   9.512   7.891   1.478 -0.0802  0.3804 -0.0906
 2010W        W 5529   6.867   4.792   0.700  0.0094  0.2503 -0.1560
 2011W        W 5530   2.751   9.109   8.759 -0.1800 -0.1345  0.2384
 2012W        W 5531   9.207   1.402   9.512 -0.1264  0.1732  0.0910
 2013W        W 5532   4.569   1.826   9.296 -0.0427  0.2058  0.0102
 2014W        W 5533   7.782   6.945   0.628  0.0846 -0.0985  0.0510
 2015W        W 5534   0.362   4.813  12.219  0.0865 -0.2942  0.0744
 2016W        W 5535   0.918   1.435   8.499 -0.1471 -0.1977  0.0426
 2017W        W 5536   9.226   6.566   9.137 -0.0073  0.0826  0.1142
 2018W        W 5537   5.049   4.842  10.614  0.0576  0.1132 -0.1997
 2019W        W 5538   6.810   9.176   0.520 -0.1082  0.0295 -0.2608
 2020W        W 5539   8.163   4.833  10.257  0.0785 -0.3554 -0.2661
 2021W        W 5540   0.140   6.227   1.976  0.2868  0.0524 -0.1940
 2022W        W 5541   2.638   3.107   2.238  0.1937 -0.3537 -0.0862
 2023W        W 5542   7.688   3.601  10.946  0.0810 -0.2990  0.0088
 2024W        W 5543   1.892   7.402   1.319 -0.0457 -0.2617  0.0377
 2025W        W 5544   6.080   8.849   8.931 -0.2725 -0.0369 -0.0030
 2026W        W 5545   7.706   9.283   4.388  0.1334 -0.3356  0.0583
 2027W        W 5546   1.543   8.903  10.159 -0.0938 -0.1841  0.0918
 2028W        W 5547   4.642   0.524  10.813 -0.0636 -0.3944 -0.4071
 2029W        W 5548   6.647   5.429  11.217 -0.1582 -0.1450  0.3486
 2030W        W 5549   3.101   0.153  12.300 -0.4016 -0.0359  0.0975
 2031W        W 5550   9.150   0.697  11.109 -0.0537 -0.2943 -0.2079
 2032W        W 5551   4.529   0.401   3.122 -0.1497  0.0857 -0.1667
 2033W        W 5552   7.028   4.191   1.642 -0.4187  0.0573 -0.2559
 2034W        W 5553   5.517   6.294   1.245 -0.0850 -0.2395 -0.0275
 2035W        W 5554   1.288   6.125  11.528  0.3687 -0.0792  0.1543
 2036W        W 5555   1.260   3.042  11.010  0.1632  0.1246  0.2149
 2037W        W 5556   7.058   6.826   9.297 -0.0047 -0.0869  0.2569
 2038W        W 5557   4.588   5.959   4.087 -0.0214 -0.2250  0.1015
 2039W        W 5558   5.901   0.424   8.778  0.0681 -0.1515 -0.2456
 2040W        W 5559   1.727   5.358   9.835 -0.3379 -0.3729 -0.2787
 2041W        W 5560   1.921   3.755   2.648  0.1142  0.1250 -0.0038
 2042W        W 5561   2.934   3.300   3.073  0.2044  0.0072  0.1486
 2043W        W 5562   7.808   5.379   2.497 -0.0700 -0.1965  0.1035
 2044W        W 5563   3.963   0.186   3.304  0.2765  0.0492  0.2923
 2045W        W 5564   0.121   9.600  12.278  0.2896 -0.0622  0.2316
 2046W        W 5565   8.033   4.475   2.573  0.0259  0.1595 -0.1482
 2047W        W 5566   4.730   3.525   2.330  0.0132 -0.0670  0.0409
 2048W        W 5567   4.552   5.279   0.023 -0.2090  0.1277 -0.0814
 2049W        W 5568   3.240   4.722  11.427  0.2923  0.0339 -0.0447
 2050W        W 5569   3.976   1.256   9.046 -0.1555  0.0186 -0.2638
 2051W        W 5570   4.665   8.711   0.311  0.1130  0.2023 -0.2239
 2052W        W 5571   8.702   2.722  11.295  0.0424 -0.2695 -0.0885
 2053W        W 5572   1.634   7.322   1.912  0.1207 -0.1896  0.0681
 2054W        W 5573   4.173   0.905   1.580  0.1199 -0.0179 -0.1334
 2055W        W 5574   4.018   9.694  11.060 -0.0613 -0.1684  0.1638
 2056W        W 5575   7.237   1.183  11.813 -0.0974  0.3423 -0.1740
 2057W        W 5576   7.545   7.129  10.978  0.2356  0.1472 -0.1554
 2058W        W 5577   6.977   2.283   3.799 -0.1414 -0.3119  0.0267
 2059W        W 5578   6.221   0.134   2.598 -0.0770 -0.0365 -0.1720
 2060W        W 5579   7.845   8.428   0.220 -0.3238  0.0255  0.4362
 2061W        W 5580   3.133   0.413   3.434 -0.1691  0.2492  0.5736
 2062W        W 5581   6.725   3.780   2.815 -0.0171 -0.4139  0.0967
 2063W        W 5582   1.722   8.626   3.612 -0.0034  0.3322  0.0065
 2064W        W 5583   7.552   6.713  11.915  0.0257 -0.1474  0.0458
 2065W        W 5584   3.618   9.181   2.244  0.1295  0.2341 -0.2747
 2066W        W 5585   2.375   4.313   1.124  0.0159 -0.1155 -0.1140
 2067W        W 5586   2.999   0.731  11.554 -0.2928  0.4903 -0.0022
 2068W        W 5587   9.368   8.978   2.555 -0.1995 -0.3268  0.0979
 2069W        W 5588   7.226   3.247   3.285 -0.0229 -0.2358  0.2896
 2070W        W 5589   8.317   5.217   0.765 -0.0637 -0.0376  0.2365
 2071W        W 5590   1.652   4.834   2.650  0.0201  0.0780 -0.5149
 2072W        W 5591   4.849   2.471  10.245  0.0888  0.1348  0.2727
 2073W        W 5592   8.334   0.160  12.120 -0.0944 -0.1245 -0.0742
 2074W        W 5593   6.399   8.717  12.126  0.2265  0.2170  0.0140
 2075W        W 5594   8.975   1.375   0.933 -0.1216 -0.4511  0.0786
 2076W        W 5595   1.767   5.211  12.302 -0.7057  0.2665  0.1547
 2077W        W 5596   7.969   7.935   9.402  0.0605 -0.0973 -0.0412
 2078W        W 5597   3.720   0.399   1.011  0.0490  0.1025 -0.0950
 2079W        W 5598   7.293   1.706   3.338  0.2843 -0.1203 -0.0401
 2080W        W 5599   9.503   7.591   3.046  0.0194  0.1504  0.1485
 2081W        W 5600   1.194   1.332   3.225 -0.1316 -0.1302 -0.0908
 2082W        W 5601   1.959   1.051  12.278 -0.0843  0.1216  0.2010
 2083W        W 5602   0.122   8.375   9.120  0.2117  0.0977 -0.1764
 2084W        W 5603   1.424   5.222  11.828 -0.0803 -0.2354  0.3499
 2085W        W 5604   4.807   2.626   1.997  0.0402  0.3411  0.2452
 2086W        W 5605   6.049   2.616   0.182 -0.0785  0.4425 -0.0144
 2087W        W 5606   2.918   5.617   3.589 -0.0482 -0.0027 -0.0536
 2088W        W 5607   7.670   1.302   1.876  0.0112  0.0730  0.0346
 2089W        W 5608   8.185   2.750   2.236 -0.0057 -0.1176  0.1219
 2090W        W 5609   9.254   4.541   3.439 -0.0286  0.3432  0.0300
 2091W        W 5610   9.426   5.623  11.063  0.1252  0.3378  0.2265
 2092W        W 5611   0.555   8.716   2.739  0.0305  0.3776 -0.0231
 2093W        W 5612   5.736   1.864   1.391 -0.0375 -0.1795  0.3339
 2094W        W 5613   0.589   0.444  11.948  0.0954  0.3833  0.0322
 2095W        W 5614   7.933   9.229   9.688  0.2090 -0.0296  0.2985
 2096W        W 5615   5.141   4.388   2.099  0.0379 -0.2015  0.0532
 2097W        W 5616   1.574   2.165   3.427  0.0790 -0.0026 -0.0770
 2098W        W 5617   5.278   7.714  12.344 -0.0061 -0.1062 -0.2402
 2099W        W 5618   8.879   0.912   3.808 -0.0036 -0.1323 -0.0059
 2100W        W 5619   6.624   4.467   1.522 -0.2186  0.2217 -0.2444
 2101W        W 5620   4.813   6.599   0.611 -0.0125 -0.0514  0.0806
 2102W        W 5621   6.757   9.406  11.788 -0.0942  0.0182 -0.3153
 2103W        W 5622   1.889   4.892  10.939 -0.1397 -0.0278 -0.1158
 2104W        W 5623   4.047   9.462   0.572 -0.0737  0.0810 -0.0173
 2105W        W 5624   5.694   5.031  11.375 -0.1085 -0.2614  0.0461
 2106W        W 5625   4.192   6.939  10.910  0.1200  0.2360  0.0269
 2107W        W 5626   1.817   0.540   4.795  0.1150 -0.1445 -0.3494
 2108W        W 5627   2.737   2.357   8.538 -0.0519  0.1737 -0.1516
 2109W        W 5628   5.408   4.131   2.510  0.0943  0.1311  0.1556
 2110W        W 5629   1.014   0.466  10.111  0.1050  0.0313  0.2633
 2111W        W 5630   4.390   2.178   1.237  0.0735 -0.0071 -0.1866
 2112W        W 5631   7.174   0.298  11.142 -0.0358  0.2952  0.2725
 2113W        W 5632   4.424   7.275   2.698 -0.0938 -0.1153  0.0634
 2114W        W 5633   4.923   0.616   0.174 -0.0906  0.2145  0.2152
 2115W        W 5634   9.598   9.504   9.384  0.2432 -0.2547 -0.2130
 2116W        W 5635   3.466   3.476   1.643 -0.2282 -0.0495 -0.1573
 2117W        W 5636   9.000   6.258   4.386  0.0335  0.1528  0.0501
 2118W        W 5637   7.400   2.445  10.521  0.0417  0.1787 -0.1662
 2119W        W 5638   1.501   2.919   8.364 -0.3100 -0.2141  0.1243
 2120W        W 5639   2.687   9.226   1.933 -0.0894 -0.0206  0.2620
 2121W        W 5640   5.597   7.625   3.992  0.1318  0.0119  0.0346
 2122W        W 5641   8.916   8.533   3.076  0.0789  0.0627 -0.3243
 2123W        W 5642   2.428   8.337   4.104 -0.0586  0.3543 -0.0655
 2124W        W 5643   1.798   5.303   4.401 -0.2512  0.1355  0.0875
 2125W        W 5644   2.366   5.066   8.012 -0.0331 -0.1209  0.2264
 2126W        W 5645   2.798   3.806  10.936 -0.3641  0.0663 -0.3438
 2127W        W 5646   4.482   3.170   3.300  0.1778 -0.0552  0.2477
 2128W        W 5647   5.093   8.290   0.456 -0.0765 -0.2013  0.0901
 2129W        W 5648   2.236   2.463   8.611 -0.1618 -0.1634  0.0343
 2130W        W 5649   8.013   3.576  11.435 -0.0721 -0.0704 -0.1009
 2131W        W 5650   2.037   3.811   1.987 -0.1256  0.0726  0.1832
 2132W        W 5651   7.505   9.470   1.290 -0.2601 -0.0415  0.1759
 2133W        W 5652   1.941   8.222   0.302 -0.2779 -0.2442 -0.2914
 2134W        W 5653   1.078   9.015   9.126  0.0757  0.1605  0.2993
 2135W        W 5654   2.835   8.519  11.384 -0.3231 -0.2207  0.0295
 2136W        W 5655   9.667   8.352   3.758 -0.2043  0.1710 -0.3251
 2137W        W 5656   6.868   1.035  12.107  0.2209 -0.2377  0.0452
 2138W        W 5657   0.915   2.298  10.092  0.1344 -0.1453 -0.0993
 2139W        W 5658   9.419   3.377  12.497  0.1247 -0.0645  0.1115
 2140W        W 5659   6.304   3.250   2.918 -0.3251 -0.0421 -0.0783
 2141W        W 5660   5.814   6.895   3.555  0.0644 -0.0049  0.1982
 2142W        W 5661   5.529   7.590   9.448 -0.2687  0.0714 -0.2233
 2143W        W 5662   6.607   3.318  12.123  0.1337 -0.6008  0.3185
 2144W        W 5663   5.849   3.519   9.671  0.3454  0.0091  0.1772
 2145W        W 5664   9.435   9.508   9.906 -0.0615  0.2444  0.0424
 2146W        W 5665   9.538   9.694  11.644  0.0274  0.2050  0.0571
 2147W        W 5666   3.030   3.800  11.453 -0.0007  0.0019 -0.1276
 2148W        W 5667   1.735   8.212  10.090 -0.1912 -0.2393  0.1783
 2149W        W 5668   2.224   7.537  11.219 -0.4714  0.1441  0.1166
 2150W        W 5669   6.362   1.184  12.310  0.3929  0.1414 -0.0573
 2151W        W 5670   3.704   9.459   4.549 -0.0454  0.0049  0.1521
 2152W        W 5671   5.816   1.179   2.451  0.1099  0.3379  0.3609
 2153W        W 5672   0.420   5.897   3.770  0.1785  0.1911 -0.0242
 2154W        W 5673   6.794   8.329   0.013 -0.0026 -0.3025  0.0342
 2155W        W 5674   7.922   1.466   2.753  0.3019  0.1022  0.1400
 2156W        W 5675   8.767   2.559   3.325 -0.0834 -0.1241 -0.1335
 2157W        W 5676   8.745   2.168  10.448  0.6274 -0.2551 -0.3238
 2158W        W 5677   1.426   4.461  10.154 -0.4652  0.0350  0.1269
 2159W        W 5678   2.112   8.714   9.263 -0.3132  0.0887 -0.1850
 2160W        W 5679   5.133   4.932  11.858  0.0064 -0.4777  0.1117
 2161W        W 5680   9.427   4.915   0.596 -0.0140  0.2222 -0.1456
 2162W        W 5681   4.839   1.947   1.260  0.2135  0.1372 -0.0131
 2163W        W 5682   1.055   3.103  10.530 -0.3538 -0.2504 -0.2188
 2164W        W 5683   1.490   6.187   3.478  0.2215 -0.0263  0.0212
 2165W        W 5684   5.887   2.033   0.134 -0.0479 -0.2805  0.2284
 2166W        W 5685   3.676   0.983   1.666 -0.1881 -0.2366  0.1178
 2167W        W 5686   0.022   1.995   1.077 -0.2990 -0.0821 -0.3343
 2168W        W 5687   3.624   5.069   9.517  0.0132  0.2547  0.0963
 2169W        W 5688   3.076   6.348   0.298  0.1113 -0.3203  0.0657
 2170W        W 5689   8.647   1.057   1.236  0.1030 -0.3749  0.0944
 2171W        W 5690   3.636   6.040  10.221  0.5070  0.0046  0.0262
 2172W        W 5691   7.567   1.806   2.876 -0.1777  0.0652 -0.3262
 2173W        W 5692   6.293   1.800   3.470 -0.0242 -0.0533 -0.0200
 2174W        W 5693   2.694   8.715  10.861  0.1176 -0.2042  0.1899
 2175W        W 5694   3.950   0.715   8.992  0.0473 -0.3313 -0.4268
 2176W        W 5695   0.876   9.584   0.486 -0.0960 -0.0467  0.2236
 2177W        W 5696   1.356   2.637   2.448  0.0294  0.0034 -0.1256
 2178W        W 5697   4.121   1.232  12.376  0.0919 -0.1135  0.1995
 2179W        W 5698   3.775   6.887   0.753  0.1704 -0.1374 -0.1282
 2180W        W 5699   6.885   7.786   4.668 -0.2503 -0.1764 -0.1894
 2181W        W 5700   2.185   1.517   7.712  0.0597  0.1842  0.0796
 2182W        W 5701   4.055   7.832   8.214 -0.2144  0.2140  0.0956
 2183W        W 5702   7.740   9.001  10.068 -0.1150 -0.1959  0.1787
 2184W        W 5703   6.190   1.267   3.663 -0.1295  0.1284 -0.0926
 2185W        W 5704   9.372   7.832   1.954  0.0170 -0.1428 -0.1548
 2186W        W 5705   0.397   1.780   4.112  0.0066 -0.1459 -0.1021
 2187W        W 5706   1.684   4.694   2.184 -0.0383 -0.1778  0.1305
 2188W        W 5707   3.485   0.001   3.571  0.2380  0.0799 -0.1085
 2189W        W 5708   8.989   3.928   2.535  0.4051 -0.2936  0.0543
 2190W        W 5709   7.685   3.250   9.622  0.0585  0.0147 -0.0264
 2191W        W 5710   5.564   2.798  11.052  0.1142 -0.2540  0.1998
 2192W        W 5711   1.188   3.082   2.768  0.2202  0.1534  0.2290
 2193W        W 5712   9.576   0.902   3.118  0.1853 -0.0240 -0.2315
 2194W        W 5713   8.444   6.567   2.873  0.0970 -0.1487  0.1318
 2195W        W 5714   5.969   6.467   3.580 -0.0335  0.1181  0.3605
 2196W        W 5715   4.335   0.781  11.620 -0.1132  0.0742  0.3653
 2197W        W 5716   6.870   3.084  12.506  0.1953  0.2066  0.2000
 2198W        W 5717   7.868   6.312  11.967  0.4460 -0.0768  0.2116
 2199W        W 5718   4.085   6.668  11.502  0.0999  0.0323 -0.0474
 2200W        W 5719   2.607   5.194   4.158 -0.2005  0.0318  0.0135
 2201W        W 5720   4.316   0.408  10.336  0.0161 -0.0651  0.3497
 2202W        W 5721   6.197   7.479   3.135 -0.2608 -0.1404  0.2345
 2203W        W 5722   7.117   9.157  11.504 -0.1244  0.0340  0.2163
 2204W        W 5723   6.867   6.741   0.870 -0.0277  0.3165 -0.1559
 2205W        W 5724   5.114   7.140   2.332  0.0767 -0.1142 -0.1504
 2206W        W 5725   4.267   6.555  12.464  0.2141 -0.0017 -0.1398
 2207W        W 5726   1.192   6.577   2.732  0.3619 -0.1271 -0.0439
 2208W        W 5727   5.223   7.444   0.495  0.0756  0.1159 -0.1713
 2209W        W 5728   1.449   6.190   4.007 -0.2253  0.1616 -0.1542
 2210W        W 5729   3.749   4.186  10.358  0.0725  0.1724 -0.1953
 2211W        W 5730   5.333   8.414   8.709  0.0784  0.2851  0.2685
 2212W        W 5731   9.482   3.584   3.771  0.2195 -0.1096  0.0463
 2213W        W 5732   3.838   8.905   8.819 -0.0065 -0.1999 -0.0250
 2214W        W 5733   6.109   1.072  11.873 -0.0851  0.1174  0.0835
 2215W        W 5734   3.495   6.921   4.425  0.0209 -0.1431  0.0021
 2216W        W 5735   0.600   0.456  10.983  0.0519  0.2461 -0.0903
 2217W        W 5736   9.156   7.230   3.245  0.2568 -0.2375  0.0292
 2218W        W 5737   2.950   5.550   1.581 -0.3026  0.2916  0.2321
 2219W        W 5738   7.606   4.950   3.168  0.1094  0.0200 -0.0277
 2220W        W 5739   9.127   9.363   9.486  0.0480 -0.3458 -0.4547
 2221W        W 5740   8.667   6.013   8.865  0.2668 -0.2379 -0.5257
 2222W        W 5741   8.353   5.549   9.007  0.0902  0.0499  0.0988
 2223W        W 5742   1.845   5.725   0.511  0.0404 -0.3847  0.0665
 2224W        W 5743   7.905   5.858   1.339 -0.3374 -0.0176 -0.2237
 2225W        W 5744   7.837   4.767   1.747  0.0639 -0.1507  0.1422
 2226W        W 5745   7.325   6.217   3.692 -0.0148  0.1691 -0.2845
 2227W        W 5746   9.154   0.047   4.239 -0.1495 -0.0955  0.1356
 2228W        W 5747   8.195   0.575  10.926  0.3505 -0.0172 -0.1045
 2229W        W 5748   4.831   3.769  12.195  0.2130  0.1141 -0.1339
 2230W        W 5749   5.029   2.108  10.670  0.0394  0.1102 -0.1852
 2231W        W 5750   7.231   8.162   9.411  0.1384  0.0125 -0.0093
 2232W        W 5751   8.035   3.959   2.658  0.0355 -0.0569 -0.2785
 2233W        W 5752   4.131   0.789   0.114  0.3274 -0.0685  0.1121
 2234W        W 5753   8.709   2.732   2.406  0.3120  0.0770 -0.0223
 2235W        W 5754   5.116   4.703  10.157 -0.0505  0.1395 -0.1360
 2236W        W 5755   5.898   9.392  10.004 -0.0753  0.1700 -0.1985
 2237W        W 5756   1.341   3.273   1.798 -0.1570 -0.0881 -0.2125
 2238W        W 5757   1.173   1.989  10.951 -0.2204 -0.0001  0.2286
 2239W        W 5758   7.700   7.576   4.895 -0.2363 -0.0947  0.0140
 2240W        W 5759   2.243   1.514   8.261  0.0416  0.3281 -0.0737
 2241W        W 5760   9.443   6.503   1.858  0.2754 -0.2037 -0.2031
 2242W        W 5761   5.179   2.725   2.338 -0.1626 -0.4548 -0.1070
 2243W        W 5762   9.109   5.304  10.850 -0.2385 -0.3070  0.2467
 2244W        W 5763   5.714   1.594   0.965 -0.0160  0.0892 -0.0005
 2245W        W 5764   1.631   8.768   4.222 -0.2250  0.0895  0.1601
 2246W        W 5765   8.209   0.835   9.655  0.0769 -0.1298 -0.0912
 2247W        W 5766   0.754   1.368   3.559 -0.2004  0.0590  0.1422
 2248W        W 5767   3.235   3.268   0.651  0.2540  0.1362  0.2217
 2249W        W 5768   4.985   4.706   0.527 -0.0186 -0.0719  0.2396
 2250W        W 5769   8.545   2.303   0.577 -0.0123  0.0886 -0.1364
 2251W        W 5770   7.542   8.358   3.079 -0.2702  0.1730  0.0561
 2252W        W 5771   2.959   2.363  12.155  0.1973 -0.0082 -0.0883
 2253W        W 5772   2.006   8.702  10.120  0.3388 -0.0491 -0.1073
 2254W        W 5773   7.413   5.039   4.788 -0.2154  0.3635  0.0337
 2255W        W 5774   1.534   2.378   2.964  0.0100  0.0518 -0.1051
 2256W        W 5775   4.791   5.770   3.714  0.2264  0.0059 -0.1216
 2257W        W 5776   3.005   6.366   3.348 -0.1147  0.2131 -0.3123
 2258W        W 5777   3.436   3.921  10.767 -0.4790 -0.0749 -0.1460
 2259W        W 5778   8.814   9.212  11.275  0.0861  0.0205  0.1665
 2260W        W 5779   0.511   1.725   8.690 -0.3336  0.4756  0.3150
 2261W        W 5780   4.982   6.471   3.564  0.3626 -0.1041 -0.0846
 2262W        W 5781   4.664   2.215   8.487 -0.1293  0.2522  0.0571
 2263W        W 5782   7.026   3.904   3.961 -0.2865  0.3879 -0.0756
 2264W        W 5783   6.869   7.287   9.118  0.2062  0.1956 -0.2165
 2265W        W 5784   6.104   7.735   2.739 -0.2442  0.2175  0.5089
 2266W        W 5785   4.848   1.052   9.011 -0.1546  0.3319  0.1288
 2267W        W 5786   2.467   9.481   8.791  0.0946 -0.0391  0.0047
 2268W        W 5787   1.921   0.620   1.248 -0.1869  0.0108 -0.3456
 2269W        W 5788   8.765   4.181  10.012  0.1570  0.0914  0.6334
 2270W        W 5789   7.712   3.556   2.795 -0.0514  0.0331 -0.1401
 2271W        W 5790   2.712   9.396   3.115  0.2669 -0.3724  0.0477
 2272W        W 5791   7.710   1.011   2.834  0.0960 -0.3034  0.0701
 2273W        W 5792   1.049   9.509  11.413  0.3599 -0.1905  0.1815
 2274W        W 5793   5.022   8.315   2.675 -0.1418  0.2183 -0.2240
 2275W        W 5794   2.123   2.645   0.690  0.2340 -0.1160  0.1363
 2276W        W 5795   4.724   5.774   2.806 -0.1774  0.0751  0.0265
 2277W        W 5796   1.838   1.522   8.938  0.2011 -0.2679  0.2902
 2278W        W 5797   5.300   6.157   9.242 -0.2607  0.2434  0.0602
 2279W        W 5798   5.486   4.310   2.976  0.0497  0.2202 -0.0871
 2280W        W 5799   8.577   3.896   0.186  0.1953  0.3323  0.0246
 2281W        W 5800   6.085   2.243   1.415  0.2567  0.2256 -0.0789
 2282W        W 5801   3.719   2.624   9.238  0.0107 -0.2579 -0.0418
 2283W        W 5802   3.326   6.861   0.554  0.1100 -0.2475 -0.4177
 2284W        W 5803   2.717   9.684   0.051  0.1313  0.3887 -0.1278
 2285W        W 5804   2.341   6.750   8.179 -0.1633 -0.2578 -0.1123
 2286W        W 5805   2.319   5.351  10.334 -0.1838  0.2288  0.3155
 2287W        W 5806   1.323   5.968  12.055 -0.1818 -0.1756  0.0251
 2288W        W 5807   2.054   5.627   3.541  0.3508  0.1251 -0.0512
 2289W        W 5808   6.532   6.550   9.228  0.0435 -0.0276 -0.0248
 2290W        W 5809   2.766   7.405  11.286 -0.0282 -0.1398  0.1544
 2291W        W 5810   3.156   8.334   3.755 -0.0673 -0.2264  0.1263
 2292W        W 5811   6.139   6.301   2.008 -0.0462  0.0457 -0.0056
 2293W        W 5812   3.559   7.060   2.369  0.0213  0.0973 -0.1323
 2294W        W 5813   4.551   3.428  11.461 -0.1446 -0.0685  0.0719
 2295W        W 5814   1.735   9.297   0.003  0.2231  0.0535 -0.1168
 2296W        W 5815   0.665   4.252   1.253 -0.0439 -0.0176 -0.1248
 2297W        W 5816   2.113   4.920   4.297  0.0264  0.1527  0.4001
 2298W        W 5817   7.733   4.666   9.909 -0.2259 -0.0466  0.1244
 2299W        W 5818   2.416   6.750   1.965  0.0117  0.1122 -0.1022
 2300W        W 5819   3.982   9.617   1.358 -0.0532 -0.3185  0.2336
 2301W        W 5820   2.984   5.186   0.897  0.1791 -0.4075 -0.1369
 2302W        W 5821   4.465   0.051   3.541  0.0943 -0.1581  0.0084
 2303W        W 5822   4.662   1.572   0.469  0.2117 -0.2135  0.0082
 2304W        W 5823   3.500   3.213   2.048 -0.0103 -0.0334  0.0858
 2305W        W 5824   8.483   3.428  10.675  0.1165  0.0870 -0.1890
 2306W        W 5825   4.935   3.889   3.457  0.0049  0.3345  0.3961
 2307W        W 5826   1.790   8.345  11.857  0.4105  0.1126  0.0337
 2308W        W 5827   6.697   3.012  10.134 -0.2194 -0.1422  0.2433
 2309W        W 5828   0.965   6.588   0.058  0.3286  0.0241  0.0943
 2310W        W 5829   1.747   6.704  11.082  0.2197  0.1580 -0.0830
 2311W        W 5830   4.805   4.533   2.456  0.0697  0.0299  0.1170
 2312W        W 5831   8.168   0.752   1.297 -0.5035  0.3499 -0.2256
 2313W        W 5832   5.740   8.328  11.603 -0.3381 -0.1997 -0.3146
 2314W        W 5833   7.713   5.266   9.783  0.3027 -0.3138 -0.1051
 2315W        W 5834   5.429   5.164  10.439 -0.3269 -0.1216  0.4065
 2316W        W 5835   1.550   4.242   3.759 -0.3402 -0.1198 -0.2792
 2317W        W 5836   6.235   7.960  10.426 -0.0993 -0.4463  0.1485
 2318W        W 5837   1.164   0.777   0.050 -0.2792  0.0775 -0.2295
 2319W        W 5838   8.988   9.389   3.204 -0.1872 -0.0125  0.0769
 2320W        W 5839   4.781   2.951   1.538 -0.0629 -0.0459 -0.3084
 2321W        W 5840   4.327   6.081   2.642  0.3772 -0.3580  0.1272
 2322W        W 5841   9.431   3.231  10.985  0.1235  0.0401  0.0802
 2323W        W 5842   7.459   7.667  11.100  0.0967 -0.1017 -0.1764
 2324W        W 5843   6.143   5.310   1.458  0.0293 -0.1409  0.0472
 2325W        W 5844   2.647   6.752   3.066  0.0098 -0.1633  0.2010
 2326W        W 5845   6.372   0.192   0.407  0.0817 -0.0202  0.2467
 2327W        W 5846   3.576   8.682  10.313 -0.1547  0.1034  0.0116
 2328W        W 5847   1.916   4.903   3.188  0.0954  0.0571  0.0003
 2329W        W 5848   5.405   8.701   8.022 -0.2325 -0.0156  0.1951
 2330W        W 5849   8.260   6.196   9.806 -0.0274 -0.2834 -0.1308
 2331W        W 5850   8.274   7.298   0.886 -0.0679 -0.0855  0.0705
 2332W        W 5851   9.685   5.248   2.555 -0.1212  0.1934  0.0531
 2333W        W 5852   2.419   7.843   3.442 -0.0831  0.1502 -0.2021
 2334W        W 5853   8.622   0.642   4.079 -0.2604  0.0443 -0.4757
 2335W        W 5854   1.424   2.415   9.317 -0.0350 -0.0715  0.2095
 2336W        W 5855   5.884   0.728   0.407 -0.2779  0.0923  0.1444
 2337W        W 5856   1.720   4.926   8.612  0.1135 -0.2009 -0.0474
 2338W        W 5857   5.329   6.655   0.294 -0.1871 -0.0953  0.1388
 2339W        W 5858   8.513   4.171   2.628 -0.0076  0.2055 -0.1393
 2340W        W 5859   8.078   9.501  12.454 -0.0138 -0.1467 -0.0114
 2341W        W 5860   8.754   7.362   2.436  0.1077 -0.0442 -0.3791
 2342W        W 5861   3.370   6.046   2.196 -0.1430 -0.2185  0.1023
 2343W        W 5862   1.266   6.903   1.179  0.0518  0.0204 -0.1090
 2344W        W 5863   3.895   2.487   9.671 -0.2426 -0.5531 -0.4020
 2345W        W 5864   0.374   7.217   9.172 -0.0395  0.2188 -0.1629
 2346W        W 5865   8.352   3.807   0.712  0.4135 -0.0774  0.0603
 2347W        W 5866   4.649   3.687   0.742 -0.0525  0.0719  0.3396
 2348W        W 5867   6.154   7.622   0.929 -0.0146  0.2303 -0.0964
 2349W        W 5868   3.033   4.298   9.210 -0.1304  0.0696  0.0450
 2350W        W 5869   7.743   9.319   3.187 -0.0801 -0.3241 -0.0497
 2351W        W 5870   5.779   5.530   4.527 -0.0751  0.0657  0.0379
 2352W        W 5871   7.801   7.389  12.049 -0.0640  0.1787  0.1605
 2353W        W 5872   4.870   4.233   9.023  0.0813 -0.0226  0.0216
 2354W        W 5873   6.168   3.692   1.759 -0.1641  0.0212 -0.0082
 2355W        W 5874   6.977   4.785  11.763 -0.0829 -0.0561 -0.0565
 2356W        W 5875   5.907   5.471  10.419 -0.0178 -0.0581  0.1487
 2357W        W 5876   0.632   0.279   0.563  0.1276 -0.1267 -0.2584
 2358W        W 5877   8.985   4.178   0.577 -0.2187 -0.1079  0.1365
 2359W        W 5878   1.647   5.719  10.625 -0.0154  0.3257 -0.0056
 2360W        W 5879   6.509   7.359   0.183  0.3358 -0.1601  0.0402
 2361W        W 5880   8.244   3.159  11.039  0.2846 -0.3178 -0.0259
 2362W        W 5881   3.930   7.977  11.732 -0.2863  0.0617  0.0945
 2363W        W 5882   6.500   5.487   0.669  0.1683  0.1297 -0.0766
 2364W        W 5883   7.020   9.689  11.526 -0.0146 -0.3072 -0.0873
 2365W        W 5884   8.266   6.364   1.031  0.3162 -0.2110 -0.2774
 2366W        W 5885   0.597   0.095   2.993 -0.1922 -0.0824  0.1393
 2367W        W 5886   4.315   4.194   2.624 -0.0157 -0.0518 -0.3004
 2368W        W 5887   4.829   0.216   2.753 -0.0844  0.2188  0.5893
 2369W        W 5888   1.699   7.205   4.935 -0.2213  0.1334  0.1677
 2370W        W 5889   6.673   3.355   2.431 -0.0745 -0.1759 -0.2044
 2371W        W 5890   2.896   6.572   3.794  0.1471  0.1498 -0.2205
 2372W        W 5891   4.325   8.240   1.255  0.0190  0.2621 -0.0882
 2373W        W 5892   8.850   6.977   2.100 -0.1878 -0.0275  0.1373
 2374W        W 5893   2.079   5.279   9.409 -0.1937  0.0071 -0.3833
 2375W        W 5894   3.866   5.411   3.900 -0.2938  0.0366  0.0100
 2376W        W 5895   3.871   8.312  10.022 -0.1185 -0.0964  0.3600
 2377W        W 5896   3.955   4.141   9.051 -0.1245  0.0337 -0.1627
 2378W        W 5897   1.425   4.112  12.227 -0.0346  0.1041  0.1799
 2379W        W 5898   5.177   1.391  12.345  0.0299  0.2984 -0.0612
 2380W        W 5899   3.403   3.716   4.064  0.1027  0.0345 -0.3323
 2381W        W 5900   5.852   3.200  11.530 -0.0165  0.3686 -0.2830
 2382W        W 5901   5.531   4.843   4.141  0.0714 -0.0872  0.1958
 2383W        W 5902   8.977   5.491   2.059 -0.0481  0.0177 -0.0037
 2384W        W 5903   9.695   5.842  10.241 -0.0252 -0.1902 -0.2456
 2385W        W 5904   4.920   4.644   4.924 -0.1398 -0.1958  0.0489
 2386W        W 5905   5.175   5.660  10.522 -0.0345  0.0722 -0.1964
 2387W        W 5906   8.787   5.635  12.036 -0.2233 -0.0153 -0.1979
 2388W        W 5907   2.903   3.321   0.137 -0.2368 -0.3988 -0.1342
 2389W        W 5908   2.004   5.527   2.445  0.1007  0.1557  0.0615
 2390W        W 5909   0.164   0.454  12.364  0.1032  0.0479 -0.3660
 2391W        W 5910   7.031   1.893   2.954 -0.0327  0.0614  0.0825
 2392W        W 5911   8.732   7.048   0.767 -0.0825 -0.0693  0.0960
 2393W        W 5912   4.365   0.253  11.786 -0.1223 -0.0189  0.0886
 2394W        W 5913   5.567   1.063   3.176 -0.0214  0.0221  0.4467
 2395W        W 5914   0.362   6.024  10.521  0.0051  0.0202 -0.3361
 2396W        W 5915   9.512   6.676   4.883 -0.1283 -0.2387 -0.0686
 2397W        W 5916   2.638   4.591   0.426 -0.1573  0.4267 -0.3352
 2398W        W 5917   4.624   3.017   2.295 -0.2198 -0.1672 -0.1279
 2399W        W 5918   4.013   5.175  10.440  0.0708 -0.1098  0.1308
 2400W        W 5919   1.990   7.065   1.683  0.3288 -0.1997  0.2724
 2401W        W 5920   5.347   0.512   2.366 -0.1724 -0.0220  0.2494
 2402W        W 5921   8.566   7.788   2.601 -0.0437  0.1001 -0.0267
 2403W        W 5922   6.471   3.945   0.772 -0.0452 -0.0826  0.0216
 2404W        W 5923   6.236   2.077  11.403 -0.1258  0.0160 -0.1116
 2405W        W 5924   2.368   7.037  11.454  0.0989 -0.1318  0.1964
 2406W        W 5925   0.122   7.442   2.091  0.1215 -0.1491  0.2057
 2407W        W 5926   2.314   2.328   4.636  0.2610 -0.4005  0.1306
 2408W        W 5927   4.378   9.215  10.983 -0.1154 -0.0813 -0.3786
 2409W        W 5928   6.979   6.971  11.823  0.1906 -0.2287 -0.0342
 2410W        W 5929   8.274   6.549  10.171  0.1802 -0.0608  0.3000
 2411W        W 5930   5.937   1.290   9.626  0.1645  0.0232  0.1593
 2412W        W 5931   8.152   3.981   1.316  0.1219 -0.0076  0.0139
 2413W        W 5932   5.426   6.425   3.277  0.1034  0.1389 -0.3498
 2414W        W 5933   7.640   8.296  11.801 -0.3231 -0.0841  0.1555
 2415W        W 5934   1.813   8.099  10.573 -0.0052 -0.1019  0.0596
 2416W        W 5935   6.126   5.845   0.809  0.3459 -0.0923  0.2591
 2417W        W 5936   2.827   1.552  10.115  0.3289 -0.0469  0.1128
 2418W        W 5937   3.898   1.253   9.954  0.1165  0.0626  0.0132
 2419W        W 5938   9.226   5.023   2.527 -0.1091 -0.1569  0.1208
 2420W        W 5939   0.954   1.758   0.461  0.1383  0.1020  0.1751
 2421W        W 5940   8.291   4.916   1.616  0.0041  0.2102  0.1548
 2422W        W 5941   4.685   3.665   8.159 -0.1626 -0.0711  0.0457
 2423W        W 5942   5.307   9.681   3.197 -0.0080 -0.0027 -0.0942
 2424W        W 5943   2.849   8.056  11.593 -0.0729 -0.2296 -0.1813
 2425W        W 5944   8.300   2.707   0.815  0.0835 -0.2366 -0.4599
 2426W        W 5945   4.432   1.558   2.845  0.1021  0.3168  0.0166
 2427W        W 5946   6.486   0.718   3.125 -0.2165  0.2044  0.1113
 2428W        W 5947   6.332   6.642   8.072 -0.1177  0.0953 -0.0126
 2429W        W 5948   3.600   8.645   2.313  0.2171 -0.1620  0.0583
 2430W        W 5949   0.814   5.459   3.092  0.2186  0.0040  0.1396
 2431W        W 5950   6.289   2.732   1.444 -0.0940 -0.1874  0.0382
 2432W        W 5951   0.872   5.058   9.634 -0.3438  0.0721  0.1191
 2433W        W 5952   2.605   4.012   8.035 -0.1933 -0.2999  0.4837
 2434W        W 5953   8.542   2.143   0.079 -0.3478 -0.0938 -0.2062
 2435W        W 5954   7.647   3.755   9.600  0.0747 -0.0394  0.2614
 2436W        W 5955   2.273   1.006   8.409 -0.1409 -0.1082  0.2849
 2437W        W 5956   6.144   8.763   3.951 -0.0069 -0.0509 -0.0595
 2438W        W 5957   0.929   5.808  11.323 -0.3353 -0.2235 -0.1465
 2439W        W 5958   1.120   7.867   2.429  0.1518  0.1620  0.3069
 2440W        W 5959   8.836   1.029  11.565 -0.1059 -0.0030  0.1094
 2441W        W 5960   4.604   5.126  12.078  0.1668 -0.1064  0.0744
 2442W        W 5961   7.268   4.678   3.409 -0.0316  0.5293 -0.1846
 2443W        W 5962   3.687   2.612   8.572 -0.1476 -0.0198 -0.1345
 2444W        W 5963   0.573   2.702  11.119 -0.2061 -0.0841  0.2046
 2445W        W 5964   2.240   4.872   8.442 -0.0873 -0.2634  0.5978
 2446W        W 5965   0.405   7.052   2.258 -0.1784 -0.1461  0.1751
 2447W        W 5966   7.293   0.318   4.168  0.0726 -0.2070  0.1070
 2448W        W 5967   3.602   2.225   0.985 -0.0548  0.0147 -0.0178
 2449W        W 5968   3.516   5.827   8.641  0.3655 -0.2087  0.0632
 2450W        W 5969   5.927   6.043   2.445  0.1367  0.0101  0.0934
 2451W        W 5970   7.597   5.180  12.207  0.3284 -0.0423 -0.0068
 2452W        W 5971   5.892   3.895   1.363 -0.3343  0.1335  0.0248
 2453W        W 5972   1.807   6.445   3.800 -0.1223  0.1716  0.0407
 2454W        W 5973   1.825   3.312   9.570 -0.3799  0.0207 -0.0501
 2455W        W 5974   2.088   7.210  11.832 -0.1389 -0.0652 -0.1096
 2456W        W 5975   6.529   7.825   4.310  0.1368  0.2380  0.1631
 2457W        W 5976   6.366   6.206  10.074  0.2290 -0.0579 -0.1039
 2458W        W 5977   4.247   6.255   4.300 -0.1973  0.1698  0.4089
 2459W        W 5978   1.100   2.200   0.155 -0.1220  0.0716 -0.0946
 2460W        W 5979   6.373   4.242  10.725  0.4811  0.0802  0.2333
 2461W        W 5980   3.499   7.149   3.338 -0.2307  0.0636 -0.0919
 2462W        W 5981   0.568   5.765  10.981 -0.0069 -0.2119 -0.1565
 2463W        W 5982   1.239   1.209  12.246  0.2383 -0.2769 -0.0047
 2464W        W 5983   3.366   4.613   9.498  0.2648 -0.1040 -0.2525
 2465W        W 5984   6.963   1.844  10.787  0.1748  0.3153  0.2024
 2466W        W 5985   8.097   6.111  12.494 -0.0328 -0.1242  0.1332
 2467W        W 5986   7.853   0.001   1.668  0.0693 -0.2509 -0.3876
 2468W        W 5987   7.263   2.360  11.431 -0.1138  0.1104 -0.0304
 2469W        W 5988   4.603   1.896   4.544  0.0398 -0.2937 -0.0140
 2470W        W 5989   9.300   9.529   1.860 -0.0648 -0.1839 -0.0425
 2471W        W 5990   7.757   1.313   0.809 -0.2819 -0.1881 -0.3123
 2472W        W 5991   6.464   9.608   2.191  0.0418  0.1217 -0.1840
 2473W        W 5992   4.942   0.770   8.009  0.1081  0.0673 -0.0504
 2474W        W 5993   5.505   8.575  10.116 -0.1572  0.0338  0.0654
 2475W        W 5994   1.314   2.110   9.732 -0.1035  0.2374 -0.1006
 2476W        W 5995   8.239   2.153   3.652  0.1613 -0.1619  0.0616
 2477W        W 5996   1.253   6.684  10.984  0.1129  0.0622 -0.0453
 2478W        W 5997   0.120   3.343  10.093  0.1527  0.2669 -0.0229
 2479W        W 5998   7.548   9.255   2.673 -0.0178  0.0475  0.2811
 2480W        W 5999   5.564   8.646   0.508  0.0746 -0.1628 -0.3034
 2481W        W 6000   4.295   7.660   3.075 -0.0585 -0.0989  0.1230
 2482W        W 6001   5.052   4.529  11.030 -0.0112 -0.3681 -0.2238
 2483W        W 6002   0.760   7.206   8.869  0.3128 -0.2473 -0.1526
 2484W        W 6003   4.827   0.084   0.106 -0.0094 -0.2739 -0.1800
 2485W        W 6004   6.715   4.523  10.988 -0.0091  0.0900 -0.1035
 2486W        W 6005   4.424   1.675  11.364 -0.1568  0.1166 -0.1164
 2487W        W 6006   0.808   2.725  10.332 -0.1150  0.3523 -0.4322
 2488W        W 6007   6.539   8.820   3.519  0.0401  0.0856  0.2329
 2489W        W 6008   3.145   7.930   1.443 -0.0790  0.2603  0.0949
 2490W        W 6009   0.538   7.211  10.388 -0.0001  0.0602  0.0956
 2491W        W 6010   6.149   2.464  11.066  0.1434 -0.2492  0.0556
 2492W        W 6011   7.252   3.101   9.872 -0.2207  0.3455  0.1557
 2493W        W 6012   9.535   8.858   3.741  0.1548  0.2885 -0.0543
 2494W        W 6013   5.991   4.337   1.647 -0.0135  0.1103  0.2539
 2495W        W 6014   2.290   6.901   1.309 -0.0758 -0.0974  0.1888
 2496W        W 6015   3.241   1.040   1.138 -0.3587 -0.2565 -0.0508
 2497W        W 6016   6.798   5.432  10.269  0.0336 -0.0569 -0.0827
 2498W        W 6017   0.993   6.138   3.759 -0.4126 -0.0370  0.1368
 2499W        W 6018   7.731   0.248   2.116  0.0619  0.1823 -0.3946
 2500W        W 6019   7.361   5.240   2.824  0.2730  0.0263  0.0885
 2501W        W 6020   5.221   1.813   2.553 -0.0066  0.1621 -0.1244
 2502W        W 6021   7.903   7.428   3.019  0.2804  0.3112 -0.3024
 2503W        W 6022   5.078   8.609   0.847  0.1548  0.2217 -0.2087
 2504W        W 6023   7.246   5.454   4.338  0.0796 -0.0125  0.0362
 2505W        W 6024   4.521   6.174   3.604  0.3405 -0.1996  0.0139
 2506W        W 6025   6.143   8.711  10.005 -0.3306  0.2038  0.0503
 2507W        W 6026   0.844   5.196  10.518  0.5490 -0.0228  0.0666
 2508W        W 6027   5.732   0.313   2.570 -0.2491 -0.0774  0.0510
 2509W        W 6028   5.417   5.966  11.104 -0.1579  0.0585  0.1904
 2510W        W 6029   3.104   7.229   0.231  0.3316 -0.0491 -0.2347
 2511W        W 6030   0.567   6.768   0.366  0.2710 -0.3226 -0.2415
 2512W        W 6031   7.107   6.955  11.320  0.2527 -0.1352  0.6543
 2513W        W 6032   1.679   5.443   9.141 -0.0090  0.2848  0.1670
 2514W        W 6033   4.253   0.900  10.931  0.2370  0.1778  0.0670
 2515W        W 6034   0.564   9.027  10.348 -0.2803  0.0598 -0.1786
 2516W        W 6035   7.221   8.011  10.673  0.2566  0.1430 -0.2008
 2517W        W 6036   2.957   1.720  10.628  0.0787  0.2999 -0.0623
 2518W        W 6037   0.725   1.949   3.793  0.1987  0.4976  0.0855
 2519W        W 6038   2.310   4.843  10.519 -0.1327  0.1219 -0.0375
 2520W        W 6039   1.304   6.945   9.785  0.0164 -0.2576  0.2374
 2521W        W 6040   1.124   0.631   3.738 -0.0244 -0.1051 -0.0805
 2522W        W 6041   7.309   5.072   2.359 -0.3697  0.0847  0.0661
 2523W        W 6042   2.810   3.266   8.461  0.1508  0.1636 -0.0247
 2524W        W 6043   1.171   7.478   9.786  0.0106 -0.1462 -0.0093
 2525W        W 6044   6.362   1.398   3.185  0.0777  0.0401  0.1131
 2526W        W 6045   4.885   7.349   3.753  0.0041  0.1118 -0.1192
 2527W        W 6046   2.641   7.944  12.111  0.1144 -0.0683 -0.1241
 2528W        W 6047   2.269   9.411   0.039  0.0552  0.0335 -0.1730
 2529W        W 6048   3.836   3.985   8.096 -0.1409  0.0302 -0.1816
 2530W        W 6049   6.225   4.222   1.201  0.1695 -0.0747 -0.1045
 2531W        W 6050   6.062   0.274   2.133 -0.1716 -0.0986  0.3571
 2532W        W 6051   3.421   1.221   0.672 -0.3871 -0.0305 -0.0455
 2533W        W 6052   2.286   5.453  12.264  0.0724  0.0258 -0.0067
 2534W        W 6053   5.089   7.690   8.288  0.1030  0.0665  0.1545
 2535W        W 6054   2.466   1.402  10.568  0.2392  0.1943 -0.1441
 2536W        W 6055   5.349   2.305   4.358 -0.1627  0.1315 -0.0841
 2537W        W 6056   0.320   0.108  10.623  0.2683  0.2658  0.0961
 2538W        W 6057   9.049   7.081   4.407 -0.3644  0.0896  0.1816
 2539W        W 6058   8.982   8.825  11.611  0.1668  0.4207  0.1981
 2540W        W 6059   8.898   5.131   9.064  0.2647  0.0148 -0.2572
 2541W        W 6060   1.748   1.868   2.895  0.2517 -0.0781 -0.4428
 2542W        W 6061   6.296   3.420  11.280  0.1355  0.1114 -0.1052
 2543W        W 6062   5.925   9.049   0.758 -0.2280 -0.3262 -0.5489
 2544W        W 6063   9.612   1.008  12.088  0.1643 -0.2280 -0.2976
 2545W        W 6064   1.754   3.731  12.072  0.1420 -0.4220 -0.0876
 2546W        W 6065   1.370   6.420   1.199 -0.1965  0.0522  0.3073
 2547W        W 6066   6.339   8.345   1.230 -0.0043  0.2383  0.0595
 2548W        W 6067   1.217   0.994   0.513 -0.0473 -0.1995  0.1328
 2549W        W 6068   5.274   1.801   9.529 -0.0085  0.0862 -0.0841
 2550W        W 6069   8.660   3.766  11.585 -0.1477 -0.1545  0.0760
 2551W        W 6070   6.808   6.531  11.242 -0.0416  0.0716  0.0692
 2552W        W 6071   0.623   0.396   1.178  0.0560  0.2701 -0.0704
 2553W        W 6072   3.500   3.092   9.579  0.1607 -0.0493 -0.0306
 2554W        W 6073   8.235   0.260   1.607  0.2222  0.1000 -0.1042
 2555W        W 6074   3.957   1.599   8.657 -0.1863 -0.2696  0.0920
 2556W        W 6075   2.605   4.937  12.526  0.0454 -0.0557  0.2244
 2557W        W 6076   6.424   7.845   9.983  0.4146  0.0460 -0.2201
 2558W        W 6077   0.889   6.435   1.227 -0.0830  0.1366  0.2452
 2559W        W 6078   3.099   0.619  12.489 -0.2221  0.0793  0.1189
 2560W        W 6079   4.752   8.197   3.672 -0.2359 -0.3970  0.0034
 2561W        W 6080   8.959   4.372   1.288  0.1182  0.0120  0.0660
 2562W        W 6081   9.295   8.917  11.244  0.1367  0.0926  0.1502
 2563W        W 6082   1.111   4.720   1.957  0.4958  0.0098  0.5177
 2564W        W 6083   6.683   5.415   4.504  0.1377  0.3192  0.0735
 2565W        W 6084   2.476   1.100  11.781 -0.3051  0.0348 -0.1370
 2566W        W 6085   4.948   0.655   2.589  0.3215 -0.1417  0.1072
 2567W        W 6086   4.931   1.012   1.302  0.1856  0.0163  0.2161
 2568W        W 6087   6.735   0.985   0.420 -0.0778  0.0686 -0.2078
 2569W        W 6088   9.164   4.209  12.182 -0.1146  0.0907  0.0075
 2570W        W 6089   5.275   9.138  10.144  0.2773 -0.0226  0.1743
 2571W        W 6090   1.384   8.572   1.342  0.1992 -0.1080  0.0325
 2572W        W 6091   1.650   7.940  12.082 -0.0691 -0.1709 -0.0773
 2573W        W 6092   5.136   6.644   9.841 -0.1198  0.1209 -0.1816
 2574W        W 6093   9.427   3.178   2.802  0.1372 -0.3580  0.1119
 2575W        W 6094   7.894   4.207   3.777  0.0637  0.2834 -0.0167
 2576W        W 6095   8.829   4.700   4.690 -0.3239  0.2195  0.0569
 2577W        W 6096   2.640   7.872   8.979 -0.1225 -0.1418  0.0463
 2578W        W 6097   5.267   4.754  11.424  0.0185  0.0498 -0.2177
 2579W        W 6098   8.091   6.051   3.443  0.0665 -0.2247 -0.1125
 2580W        W 6099   3.896   2.237  10.643  0.4116  0.1432 -0.0319
 2581W        W 6100   9.428   1.562  10.031  0.0292  0.0614 -0.3210
 2582W        W 6101   6.117   5.348   8.017  0.1451  0.0117  0.2432
 2583W        W 6102   8.824   9.171   1.817 -0.0346 -0.0411  0.3430
 2584W        W 6103   6.149   3.396   0.768  0.2791 -0.1293 -0.0348
 2585W        W 6104   1.667   7.165   3.906  0.1533  0.0298  0.1323
 2586W        W 6105   7.159   8.134   8.906  0.2614  0.1769  0.0648
 2587W        W 6106   3.768   1.939   1.420 -0.2225 -0.1255 -0.1429
 2588W        W 6107   2.691   9.213   9.719 -0.3244  0.0768 -0.1455
 2589W        W 6108   1.036   1.236   0.968  0.3727 -0.1294 -0.1079
 2590W        W 6109   9.573   1.683  10.482 -0.1392 -0.2811  0.1047
 2591W        W 6110   2.063   9.181  10.142  0.2879  0.0305  0.1867
 2592W        W 6111   2.364   6.279   9.165 -0.0106 -0.1331  0.0907
 2593W        W 6112   0.814   2.449   1.854  0.0093  0.0318 -0.1952
 2594W        W 6113   4.876   4.969   8.546 -0.1690 -0.1930  0.4577
 2595W        W 6114   8.569   4.766   9.300  0.0924 -0.0770  0.0857
 2596W        W 6115   1.992   1.833  11.905 -0.0806  0.2006  0.0537
 2597W        W 6116   4.381   2.594   3.535 -0.2348  0.1188  0.0539
 2598W        W 6117   8.219   7.874   0.698  0.2338  0.2409  0.1422
 2599W        W 6118   4.068   8.550   1.530 -0.2327  0.0297  0.2130
 2600W        W 6119   5.096   6.115  10.096  0.0208 -0.0299 -0.4292
 2601W        W 6120   1.888   8.135   4.882 -0.0249 -0.1753 -0.0659
 2602W        W 6121   8.853   3.706  10.435 -0.1323  0.0732 -0.1875
 2603W        W 6122   1.707   0.289   8.405 -0.0731  0.3015  0.0459
 2604W        W 6123   9.425   1.145   8.996 -0.1738 -0.0813  0.2955
 2605W        W 6124   5.071   7.145   9.059 -0.0624 -0.0226 -0.1425
 2606W        W 6125   4.464   9.654  10.217 -0.1500  0.2351  0.1577
 2607W        W 6126   9.071   8.927   4.118  0.0392 -0.1027 -0.0305
 2608W        W 6127   4.210   6.341  10.570  0.1613 -0.0511 -0.2773
 2609W        W 6128   7.930   0.638  11.603  0.3585  0.0898 -0.2944
 2610W        W 6129   8.801   8.616   3.817 -0.2996  0.4036 -0.0669
 2611W        W 6130   8.814   3.628   0.657  0.1375  0.3594  0.0795
 2612W        W 6131   9.108   6.525   9.692  0.1125  0.2834 -0.0492
 2613W        W 6132   1.275   3.672  11.946 -0.2325  0.0964 -0.2100
 2614W        W 6133   8.086   5.770   2.384  0.4230  0.2086 -0.1865
 2615W        W 6134   3.257   8.640   4.356  0.3580 -0.2973 -0.4130
 2616W        W 6135   6.975   7.491  10.018 -0.5174  0.1970 -0.1673
 2617W        W 6136   4.605   3.496   8.925  0.1525 -0.4445 -0.1715
 2618W        W 6137   2.772   1.767   4.074  0.1234 -0.1807  0.1122
 2619W        W 6138   5.581   5.329   3.547  0.3493  0.1097 -0.3064
 2620W        W 6139   6.085   1.681   2.840  0.0244  0.3463  0.0449
 2621W        W 6140   1.837   9.450   1.617  0.0167  0.3548 -0.0962
 2622W        W 6141   3.252   7.139   7.691 -0.0183  0.4210  0.1549
 2623W        W 6142   5.962   5.818  10.834 -0.2164 -0.1498 -0.0055
 2624W        W 6143   1.141   9.314  10.952  0.2983 -0.1150  0.1350
 2625W        W 6144   0.391   6.385   9.445  0.4107  0.2680 -0.1774
 2626W        W 6145   2.160   2.601   9.962 -0.1604 -0.1008 -0.2614
 2627W        W 6146   8.258   4.096  11.452  0.0250 -0.2495 -0.2930
 2628W        W 6147   5.758   4.597   9.394 -0.0156 -0.0518  0.1739
 2629W        W 6148   0.299   0.534   3.056 -0.2852 -0.0102 -0.3553
 2630W        W 6149   8.132   6.854  10.735  0.3021  0.2444  0.1337
 2631W        W 6150   8.338   5.360  11.735 -0.1602 -0.0874 -0.0345
 2632W        W 6151   3.754   3.570   9.450  0.0061  0.1336  0.0959
 2633W        W 6152   6.306   6.832   0.208 -0.1419 -0.0794  0.2046
 2634W        W 6153   6.130   2.252  10.569  0.1703  0.2508 -0.2619
 2635W        W 6154   0.293   1.409  11.949 -0.0782 -0.3897 -0.0117
 2636W        W 6155   5.449   4.816   2.157 -0.1762  0.0146  0.1383
 2637W        W 6156   9.168   2.247   1.855 -0.1112  0.0383 -0.1033
 2638W        W 6157   0.848   7.392  11.485 -0.0640  0.0577  0.2051
 2639W        W 6158   3.086   3.753   0.845 -0.3125  0.3176  0.2083
 2640W        W 6159   8.900   8.496   4.294 -0.0963  0.1028 -0.0662
 2641W        W 6160   0.195   8.838  12.413  0.1185  0.0344  0.0212
 2642W        W 6161   1.309   5.255   2.541 -0.1725  0.1282 -0.2085
 2643W        W 6162   4.816   8.069  11.664 -0.0025 -0.1295  0.0834
 2644W        W 6163   6.298   8.706   1.619  0.0892  0.0065 -0.2646
 2645W        W 6164   3.601   3.992   1.818 -0.1830  0.1822  0.1123
 2646W        W 6165   4.644   7.702   2.274  0.0141  0.1222 -0.2108
 2647W        W 6166   9.620   7.820   0.586 -0.1089 -0.2240  0.0127
 2648W        W 6167   4.523   6.062   9.362  0.1280  0.2585  0.0752
 2649W        W 6168   5.682   3.986   1.869 -0.1268  0.1498 -0.0678
 2650W        W 6169   5.324   3.649  10.986 -0.1623 -0.2657  0.3114
 2651W        W 6170   2.381   5.909   9.481  0.1795  0.2878  0.0331
 2652W        W 6171   3.827   3.520   4.255  0.2105 -0.1425 -0.0848
 2653W        W 6172   6.051   9.267   9.196 -0.2089 -0.1016  0.0888
 2654W        W 6173   7.480   3.686   9.109 -0.2959  0.0506  0.1611
 2655W        W 6174   8.186   3.555   0.205 -0.1412 -0.0630 -0.1750
 2656W        W 6175   3.350   6.859  11.057  0.2044  0.2721  0.2481
 2657W        W 6176   0.580   9.194   2.635  0.0210  0.1766 -0.2107
 2658W        W 6177   6.164   4.786   2.581  0.2564 -0.2599  0.1302
 2659W        W 6178   7.562   4.896   3.776 -0.0418  0.1876  0.0634
 2660W        W 6179   1.656   1.877   9.311 -0.0989  0.2639  0.2346
 2661W        W 6180   6.980   2.844   2.168 -0.1659 -0.1550  0.0838
 2662W        W 6181   2.518   3.154   4.772  0.0999 -0.0144  0.2437
 2663W        W 6182   1.813   3.227  12.032  0.2508  0.0141  0.2096
 2664W        W 6183   4.173   7.958   8.727  0.1053  0.1709  0.1568
 2665W        W 6184   6.538   3.272  10.808  0.4656 -0.1243  0.0603
 2666W        W 6185   1.383   2.590   0.605  0.0909  0.0560  0.0045
 2667W        W 6186   7.794   7.423  10.293  0.0463 -0.0513  0.1824
 2668W        W 6187   3.253   8.672  11.687  0.1021  0.1495  0.2266
 2669W        W 6188   0.282   2.058   2.327  0.1886  0.0597  0.0662
 2670W        W 6189   4.573   3.812   9.784 -0.1270  0.0738 -0.1207
 2671W        W 6190   8.521   0.818   1.707  0.0958 -0.0729 -0.1917
 2672W        W 6191   1.062   3.994  11.081  0.1212 -0.0145  0.0153
 2673W        W 6192   6.216   3.750   2.844 -0.3823 -0.1081 -0.2423
 2674W        W 6193   0.890   2.791   2.486 -0.2537 -0.0700 -0.2158
 2675W        W 6194   6.756   8.773   1.468  0.1247 -0.4166  0.1788
 2676W        W 6195   4.069   6.838   9.735  0.0180  0.2086  0.1366
 2677W        W 6196   2.441   0.542  10.820 -0.0917  0.1733 -0.1066
 2678W        W 6197   5.724   1.822  10.483 -0.0463  0.3456 -0.3454
 2679W        W 6198   6.743   7.751   8.803  0.1495 -0.2903 -0.1930
 2680W        W 6199   0.385   8.207   3.570 -0.0051 -0.2680  0.0075
 2681W        W 6200   1.311   1.482   0.592  0.0918  0.2613 -0.0091
 2682W        W 6201   5.200   3.204   3.336 -0.3019  0.1086  0.0038
 2683W        W 6202   3.714   4.421   1.306  0.1196  0.2046 -0.0632
 2684W        W 6203   0.511   8.028   1.379 -0.0223 -0.1274 -0.1153
 2685W        W 6204   4.949   1.316   2.601 -0.1834  0.0829 -0.0810
 2686W        W 6205   0.713   4.425  10.236  0.0450 -0.0598 -0.1216
 2687W        W 6206   1.554   7.700  12.509  0.1011  0.2174  0.1627
 2688W        W 6207   1.749   1.197   9.926  0.0018 -0.3107 -0.0479
 2689W        W 6208   0.597   3.795   2.820  0.0204 -0.0316 -0.1489
 2690W        W 6209   2.738   6.932   3.495  0.0718 -0.0366 -0.0218
 2691W        W 6210   5.342   9.325   2.301  0.1004  0.2838  0.0737
 2692W        W 6211   3.573   5.138   2.020  0.2752 -0.2245  0.1854
 2693W        W 6212   2.685   6.710   9.309  0.0208 -0.0186 -0.1655
 2694W        W 6213   7.920   8.817  11.171  0.0343 -0.1701 -0.0628
 2695W        W 6214   5.498   5.654  12.077 -0.0997  0.5102  0.1534
 2696W        W 6215   7.949   0.070   4.310 -0.1844 -0.0285  0.2275
 2697W        W 6216   1.177   1.810   3.591  0.0237 -0.2020  0.1261
 2698W        W 6217   2.142   5.675  10.661  0.1495 -0.0904 -0.1119
 2699W        W 6218   1.696   1.064   9.086 -0.0990  0.2933 -0.4286
 2700W        W 6219   2.330   4.058  12.178 -0.0328 -0.2506  0.1139
 2701W        W 6220   1.336   8.972  10.628 -0.0106 -0.1679  0.1160
 2702W        W 6221   6.663   2.201  10.036 -0.1782  0.1083  0.0925
 2703W        W 6222   4.640   9.628   8.486  0.1092 -0.2252 -0.1352
 2704W        W 6223   1.643   6.882   9.330 -0.1766 -0.2683  0.0020
 2705W        W 6224   0.845   1.562   9.100 -0.1007 -0.0310 -0.0579
 2706W        W 6225   5.473   5.522   5.090  0.0624  0.1212 -0.0231
 2707W        W 6226   6.245   8.558   3.107  0.0609  0.1365 -0.2459
 2708W        W 6227   3.325   0.122  11.877 -0.2944  0.0163  0.1141
 2709W        W 6228   3.746   8.243   0.591 -0.0384  0.0151  0.2496
 2710W        W 6229   8.488   0.604  10.498  0.1646 -0.2882  0.0249
 2711W        W 6230   5.323   2.268  10.298  0.2186 -0.1989  0.3925
 2712W        W 6231   8.715   8.484  10.361 -0.1646  0.0733  0.1021
 2713W        W 6232   2.600   3.267  12.169  0.0570  0.1486  0.0043
 2714W        W 6233   9.470   5.942  12.492  0.1090  0.1710  0.2902
 2715W        W 6234   8.354   9.125   1.953  0.2694  0.1727  0.0384
 2716W        W 6235   4.231   3.455   9.713  0.1202  0.1832 -0.4470
 2717W        W 6236   8.200   9.651   0.674 -0.2108 -0.0945 -0.1736
 2718W        W 6237   8.637   6.149  11.259 -0.1625 -0.0152 -0.0582
 2719W        W 6238   1.636   4.738   0.660  0.0214 -0.1670 -0.4506
 2720W        W 6239   6.346   6.749  11.178 -0.1504 -0.0988 -0.0238
 2721W        W 6240   4.781   9.026   9.807 -0.0441  0.1794 -0.4497
 2722W        W 6241   1.864   1.467  10.318 -0.0981 -0.2125 -0.1426
 2723W        W 6242   9.394   4.103   3.773  0.1423 -0.0032  0.0850
 2724W        W 6243   2.074   0.994  10.422  0.0476 -0.3656  0.0675
 2725W        W 6244   0.719   4.725   2.985 -0.0083 -0.0212 -0.1810
 2726W        W 6245   4.566   9.351   2.709  0.0327 -0.0422  0.0378
 2727W        W 6246   5.412   4.108   1.124  0.3734 -0.1636  0.0343
 2728W        W 6247   9.517   4.405   1.892  0.0949 -0.3069 -0.0560
 2729W        W 6248   1.701   2.412   0.961 -0.2197 -0.1370 -0.4958
 2730W        W 6249   3.909   7.366   2.721 -0.0619 -0.2032 -0.0686
 2731W        W 6250   8.124   0.633   1.961 -0.1985  0.2650 -0.2666
 2732W        W 6251   1.460   5.016   1.087 -0.1767 -0.2768  0.2255
 2733W        W 6252   0.015   4.029   8.437  0.0796 -0.2618  0.1753
 2734W        W 6253   3.086   4.062   1.736  0.2768  0.0613 -0.1084
 2735W        W 6254   5.960   2.335  11.752 -0.1431 -0.1979 -0.2882
 2736W        W 6255   9.617   0.581   2.660  0.0192  0.1868 -0.1662
 2737W        W 6256   9.451   5.522   2.285 -0.2638 -0.1918  0.0286
 2738W        W 6257   5.102   9.370   2.879 -0.0447  0.2676  0.0348
 2739W        W 6258   8.782   6.760  12.465 -0.1273 -0.1620  0.3345
 2740W        W 6259   8.333   2.662  11.014  0.2090 -0.0602  0.3004
 2741W        W 6260   8.880   7.159  10.643 -0.0150  0.1227 -0.0218
 2742W        W 6261   6.580   5.103   4.921 -0.0018  0.1334 -0.1245
 2743W        W 6262   4.978   4.880   1.931  0.0973 -0.0513  0.2491
 2744W        W 6263   0.929   1.994   1.572 -0.1811 -0.0918  0.1191
 2745W        W 6264   0.616   1.079   2.499 -0.2998 -0.1492  0.2962
 2746W        W 6265   3.974   8.955  10.319 -0.0066  0.1563 -0.0203
 2747W        W 6266   3.437   4.772  11.908 -0.0264  0.0444 -0.0112
 2748W        W 6267   8.194   9.482  11.862 -0.1358 -0.2130  0.2686
 2749W        W 6268   7.749   9.691   2.559  0.2541 -0.1099 -0.3350
 2750W        W 6269   7.013   6.304   1.107 -0.0072  0.0536 -0.0287
 2751W        W 6270   6.799   1.408  11.674 -0.0226 -0.1368  0.0129
 2752W        W 6271   6.480   8.979   9.258  0.2070 -0.0034  0.5551
 2753W        W 6272   9.016   3.694   0.152  0.1033 -0.3650  0.0085
 2754W        W 6273   6.732   9.251   3.207 -0.0560 -0.0074 -0.0012
 2755W        W 6274   9.708   3.875  10.044 -0.1473  0.4066  0.0985
 2756W        W 6275   4.390   4.104   1.702 -0.2161  0.1987 -0.4227
 2757W        W 6276   8.775   0.424   0.216  0.1354 -0.0125  0.1955
 2758W        W 6277   9.054   2.655   2.750 -0.1654  0.1545  0.2397
 2759W        W 6278   6.487   6.046   0.591 -0.0807 -0.2562  0.0940
 2760W        W 6279   7.407   7.796   0.398  0.1899  0.0116  0.0328
 2761W        W 6280   3.747   4.434   3.936 -0.0831  0.3381 -0.0512
 2762W        W 6281   8.633   6.339   9.410  0.1351  0.0908 -0.0186
 2763W        W 6282   3.592   2.589   2.627  0.1994  0.3398 -0.0251
 2764W        W 6283   6.184   5.669   8.525  0.0892  0.0448  0.0847
 2765W        W 6284   7.701   6.352  10.294  0.2352  0.0186 -0.4226
 2766W        W 6285   6.088   2.800   3.757 -0.0410  0.0009 -0.1166
 2767W        W 6286   3.302   6.556  12.413  0.1610 -0.0951 -0.0795
 2768W        W 6287   4.644   5.801   1.630  0.4552 -0.2855 -0.0879
 2769W        W 6288   7.797   6.435   3.778  0.2176  0.0778 -0.0170
 2770W        W 6289   1.229   7.007   2.510 -0.3307 -0.3849 -0.0343
 2771W        W 6290   7.166   5.166   3.647 -0.1998  0.1597 -0.0097
 2772W        W 6291   7.235   1.522   0.007 -0.1752  0.2088 -0.0544
 2773W        W 6292   4.261   4.761   1.836 -0.1903  0.0424  0.1682
 2774W        W 6293   4.765   5.222   3.706 -0.0056  0.3090 -0.1699
 2775W        W 6294   8.349   5.476   2.724 -0.0885 -0.2093 -0.2040
 2776W        W 6295   8.588   2.497   3.822  0.2114 -0.1647 -0.0724
 2777W        W 6296   3.631   4.921   4.116 -0.2980 -0.0320  0.0297
 2778W        W 6297   6.970   3.388   3.732  0.2848  0.1043  0.0973
 2779W        W 6298   8.803   2.751   1.486 -0.1621  0.0646  0.1295
 2780W        W 6299   1.597   0.955   9.553  0.1855 -0.1394 -0.0355
 2781W        W 6300   1.201   9.106  11.639  0.2582  0.1404 -0.2835
 2782W        W 6301   3.584   8.668   3.591  0.0777  0.2512 -0.0084
 2783W        W 6302   1.505   9.656   0.357 -0.0321  0.0532 -0.3474
 2784W        W 6303   8.734   8.290   0.209 -0.1554 -0.2513 -0.2061
 2785W        W 6304   1.407   7.612   4.221  0.1704  0.0221  0.0381
 2786W        W 6305   6.952   7.473   3.872 -0.0910 -0.0196  0.0114
 2787W        W 6306   1.044   4.582   1.280  0.0254  0.1036 -0.1530
 2788W        W 6307   0.733   8.266  10.874 -0.0148  0.0369  0.1512
 2789W        W 6308   4.826   2.342   0.888 -0.0270  0.1580 -0.0130
 2790W        W 6309   9.639   7.898  10.230 -0.0144  0.0697 -0.0048
 2791W        W 6310   9.558   9.645  10.653 -0.0414 -0.0093  0.0552
 2792W        W 6311   2.860   0.558   0.902  0.1834  0.2356  0.2058
 2793W        W 6312   7.434   5.788   0.434 -0.1867  0.2613  0.1118
 2794W        W 6313   1.819   7.022  12.382  0.1197 -0.0338 -0.1185
 2795W        W 6314   3.580   5.624   2.614  0.1835 -0.0697 -0.2409
 2796W        W 6315   3.675   9.050   2.736  0.1152  0.0424  0.4088
 2797W        W 6316   6.310   9.487   3.260 -0.0353 -0.0342  0.0065
 2798W        W 6317   0.721   7.991  12.191 -0.4543  0.3425  0.2296
 2799W        W 6318   0.130   1.052  11.619  0.0877 -0.1545  0.2081
 2800W        W 6319   6.595   0.260  12.381 -0.0446 -0.1186  0.3014
 2801W        W 6320   7.340   2.414  11.993 -0.1775  0.1298  0.0203
 2802W        W 6321   1.867   2.235   4.932 -0.2074 -0.0047  0.2247
 2803W        W 6322   2.712   1.543   0.105 -0.0679  0.1773  0.0896
 2804W        W 6323   1.518   0.996   1.054  0.2050 -0.0308 -0.0845
 2805W        W 6324   3.199   5.388   4.899  0.1078 -0.3264 -0.1519
 2806W        W 6325   5.767   3.110   3.593 -0.1345 -0.1263 -0.3100
 2807W        W 6326   2.559   2.058   7.678  0.1981 -0.0286 -0.4094
 2808W        W 6327   4.167   1.807  10.478  0.2692  0.1957  0.0021
 2809W        W 6328   8.190   8.698  10.026  0.0509 -0.1426  0.3622
 2810W        W 6329   8.268   6.800   0.767  0.1675  0.0646  0.1802
 2811W        W 6330   3.343   4.993  12.367  0.1302  0.0124 -0.0839
 2812W        W 6331   4.302   5.976   3.164 -0.0701  0.2046  0.0310
 2813W        W 6332   8.787   0.250   1.599  0.0862  0.1424  0.0993
 2814W        W 6333   0.680   2.325   3.093 -0.0308  0.2336  0.0894
 2815W        W 6334   4.180   0.766  12.129 -0.0808  0.3024 -0.2038
 2816W        W 6335   3.494   9.670  10.308 -0.0166 -0.0056  0.2975
 2817W        W 6336   6.295   5.057   1.012  0.1286 -0.3823 -0.1746
 2818W        W 6337   6.650   3.508   0.140 -0.1527  0.0791  0.2250
 2819W        W 6338   2.049   4.359   2.267  0.1209  0.0790  0.1892
 2820W        W 6339   4.959   9.046   2.519  0.2913  0.0270 -0.2015
 2821W        W 6340   8.512   8.997   3.815 -0.0643  0.3784  0.3250
 2822W        W 6341   1.007   0.548  11.642  0.0165 -0.0461  0.1562
 2823W        W 6342   5.273   2.679   0.773 -0.1998  0.2535 -0.1139
 2824W        W 6343   4.564   4.905   3.261 -0.1700  0.1636 -0.0473
 2825W        W 6344   0.122   6.652   2.175 -0.0161 -0.1641  0.0090
 2826W        W 6345   7.530   0.033   3.037  0.3412 -0.0542  0.5050
 2827W        W 6346   3.528   5.366  12.085  0.1808  0.0355  0.1104
 2828W        W 6347   4.120   5.614  12.523  0.0850  0.1302  0.1620
 2829W        W 6348   0.165   4.041   2.012  0.4243 -0.0135  0.3475
 2830W        W 6349   5.430   7.262   0.060 -0.1331 -0.1518  0.0349
 2831W        W 6350   5.373   3.188   9.278 -0.0317  0.2614 -0.3435
 2832W        W 6351   1.319   8.593   8.774 -0.1687  0.0339 -0.1602
 2833W        W 6352   9.469   0.691   2.084 -0.1785  0.0835 -0.2901
 2834W        W 6353   8.641   3.392   0.255  0.1016  0.0187  0.2528
 2835W        W 6354   7.494   7.429   3.901 -0.3285  0.1912  0.4422
 2836W        W 6355   6.164   0.872   2.068 -0.0397  0.0937 -0.1603
 2837W        W 6356   2.148   0.459   3.476 -0.1599  0.3559 -0.1249
 2838W        W 6357   7.978   1.030   2.169  0.2005  0.0813 -0.0091
 2839W        W 6358   7.860   2.590   1.186  0.1481  0.1620  0.2904
 2840W        W 6359   5.729   0.613   3.328 -0.1798  0.0093 -0.0081
 2841W        W 6360   5.420   3.524  11.712 -0.0917  0.0637 -0.3144
 2842W        W 6361   5.956   3.049   1.156  0.0461 -0.0538  0.1551
 2843W        W 6362   9.063   6.178   2.598 -0.1343 -0.0089  0.0122
 2844W        W 6363   3.452   6.650   8.593  0.0582 -0.1802 -0.1845
 2845W        W 6364   4.504   1.161   3.274  0.1443  0.1911  0.0904
 2846W        W 6365   9.219   8.321   2.074  0.4009 -0.3491  0.2500
 2847W        W 6366   0.031   2.877   3.008 -0.0434  0.2683  0.3186
 2848W        W 6367   1.113   1.915  10.412  0.2463 -0.1751 -0.0392
 2849W        W 6368   1.877   7.162  11.353 -0.0608  0.1141 -0.0465
 2850W        W 6369   4.047   1.862   2.414  0.0081  0.1555 -0.1493
 2851W        W 6370   7.784   5.356  11.695 -0.0769 -0.0284  0.0405
 2852W        W 6371   7.584   9.254   3.706  0.1446  0.0527 -0.1755
 2853W        W 6372   8.702   4.223   9.343 -0.0821  0.2798 -0.1342
 2854W        W 6373   2.304   0.522   8.463 -0.0701  0.0827  0.0498
 2855W        W 6374   1.238   4.764   0.250 -0.0519  0.1526 -0.5390
 2856W        W 6375   6.066   8.983  11.263 -0.3065  0.0663  0.0209
 2857W        W 6376   6.278   3.944  10.276 -0.1287 -0.4458 -0.4163
 2858W        W 6377   7.055   7.874  11.805 -0.0302  0.1694 -0.0267
 2859W        W 6378   3.927   5.607   0.966  0.1821  0.1115 -0.0334
 2860W        W 6379   7.054   6.808  10.869 -0.2808  0.5224 -0.1748
 2861W        W 6380   7.019   2.592  10.283  0.0037 -0.0217  0.0155
 2862W        W 6381   5.699   5.700   0.500  0.0787  0.1140  0.0347
 2863W        W 6382   0.679   0.780   9.076  0.0104  0.3672  0.0970
 2864W        W 6383   7.421   7.270   0.980  0.1213 -0.0489  0.0227
 2865W        W 6384   5.874   4.403   3.462  0.1286  0.0015  0.1854
 2866W        W 6385   1.132   3.836  11.521  0.0773  0.0733 -0.1925
 2867W        W 6386   1.222   8.709   0.067  0.1060 -0.0798 -0.1376
 2868W        W 6387   2.577   3.301   2.718  0.0347  0.0519 -0.5502
 2869W        W 6388   2.690   3.701  11.846 -0.2455  0.0443 -0.0174
 2870W        W 6389   1.640   6.191   2.562  0.0587  0.2437 -0.0285
 2871W        W 6390   0.134   1.363   8.856 -0.0229  0.1061  0.2111
 2872W        W 6391   5.632   5.897   0.942  0.0705  0.4393 -0.2038
 2873W        W 6392   0.692   9.548   1.002  0.0495  0.1134  0.0403
 2874W        W 6393   9.313   0.322   1.702 -0.1010  0.5249  0.1642
 2875W        W 6394   8.010   6.700   2.665 -0.4806 -0.4415 -0.3912
 2876W        W 6395   4.467   4.327   4.061 -0.2167  0.2158 -0.1784
 2877W        W 6396   1.445   6.277   5.006 -0.0018 -0.0368  0.4058
 2878W        W 6397   0.073   0.714  10.306  0.3497 -0.1995 -0.0351
 2879W        W 6398   0.817   4.330   4.836 -0.2245  0.4454  0.3264
 2880W        W 6399   4.003   7.330   8.303 -0.2299 -0.0476 -0.0417
 2881W        W 6400   6.699   8.430   0.925 -0.0156  0.0818 -0.0586
 2882W        W 6401   1.308   5.433   3.286 -0.1998 -0.0859 -0.1946
 2883W        W 6402   4.930   8.146   1.492  0.5058 -0.3439  0.0411
 2884W        W 6403   2.864   3.784   0.401 -0.0046 -0.0068 -0.1131
 2885W        W 6404   7.520   5.987  12.430  0.1071  0.1974  0.1658
 2886W        W 6405   3.706   9.563   4.047  0.1964 -0.3275  0.0614
 2887W        W 6406   6.702   8.375   3.436 -0.0368 -0.1037 -0.1602
 2888W        W 6407   0.935   9.536   9.131  0.0626 -0.4904 -0.0913
 2889W        W 6408   2.122   6.168   0.087 -0.2719  0.0092 -0.2016
 2890W        W 6409   0.658   6.222   0.298  0.2135 -0.0206  0.0596
 2891W        W 6410   8.597   8.223  10.763  0.1118  0.1386  0.1871
 2892W        W 6411   2.788   1.225   1.289  0.0280  0.0327  0.0608
 2893W        W 6412   1.802   6.207  10.173  0.1542  0.1473  0.0101
 2894W        W 6413   7.950   6.554   1.455 -0.2871 -0.0127 -0.0948
 2895W        W 6414   9.332   0.426  11.550 -0.0877 -0.0149  0.0705
 2896W        W 6415   4.745   9.194  11.459  0.2474 -0.0317  0.1669
 2897W        W 6416   4.457   8.159  12.458 -0.0784 -0.1640 -0.1527
 2898W        W 6417   9.529   6.280   1.029  0.0887 -0.0156  0.3574
 2899W        W 6418   6.792   5.704  11.644 -0.2606 -0.0223  0.2521
 2900W        W 6419   7.453   8.538   2.210  0.3278 -0.0004  0.0953
 2901W        W 6420   0.968   7.941   8.469  0.1589  0.2062 -0.0907
 2902W        W 6421   6.342   0.170   1.756 -0.0065  0.0659  0.0632
 2903W        W 6422   0.364   1.485   3.117  0.0415 -0.1088 -0.0415
 2904W        W 6423   3.164   5.131  11.767 -0.3352 -0.3346  0.3920
 2905W        W 6424   9.584   0.772   0.984  0.0677  0.2298 -0.0278
 2906W        W 6425   3.553   5.395   8.928  0.3612  0.0403  0.2273
 2907W        W 6426   6.603   9.424   9.451  0.2456  0.1359  0.2581
 2908W        W 6427   6.338   7.017  10.429 -0.0657  0.0869  0.3201
 2909W        W 6428   2.182   6.190  11.418 -0.0882  0.0022  0.2206
 2910W        W 6429   0.929   3.559  10.345 -0.0585  0.0980 -0.1224
 2911W        W 6430   0.582   1.625  11.519 -0.0825  0.0788 -0.0530
 2912W        W 6431   3.752   9.223   3.235  0.0945 -0.0761 -0.0676
 2913W        W 6432   3.302   8.373  11.294  0.0635  0.5108  0.1166
 2914W        W 6433   0.047   7.295   0.833 -0.1630  0.1115  0.0186
 2915W        W 6434   4.389   0.382  12.285  0.2540 -0.1516 -0.1696
 2916W        W 6435   1.748   7.594  11.161  0.1499  0.0826 -0.3500
 2917W        W 6436   6.422   9.558  12.145  0.0107  0.1054 -0.0246
 2918W        W 6437   8.047   5.735  12.062  0.0703  0.2633  0.1387
 2919W        W 6438   0.941   6.272  11.101  0.1407 -0.0913  0.2404
 2920W        W 6439   7.518   6.707   9.195  0.0487  0.0422 -0.1967
 2921W        W 6440   1.202   8.339  10.642  0.0098 -0.0051 -0.3125
 2922W        W 6441   8.203   7.858  10.396 -0.2521  0.0432  0.0096
 2923W        W 6442   9.400   8.985   3.225  0.0642 -0.1214  0.1417
 2924W        W 6443   0.013   1.591   0.756 -0.2003 -0.2440 -0.4823
 2925W        W 6444   8.007   7.745  12.296 -0.0636  0.2614  0.4108
 2926W        W 6445   3.511   4.086   0.798  0.1409  0.0442  0.2647
 2927W        W 6446   9.568   3.826   3.286  0.0718 -0.0951  0.1120
 2928W        W 6447   8.990   9.055  12.119 -0.2173  0.0427  0.0543
 2929W        W 6448   7.587   5.898  11.184  0.2204 -0.1019  0.2246
 2930W        W 6449   4.018   9.239   9.611  0.0983 -0.1598 -0.2285
 2931W        W 6450   8.997   4.238   2.886 -0.0982  0.0078  0.0262
 2932W        W 6451   1.532   9.007  11.101  0.1353  0.0876 -0.1986
 2933W        W 6452   6.187   5.874   4.045 -0.3145  0.0978 -0.0557
 2934W        W 6453   4.898   2.963  10.176  0.0591 -0.1556 -0.1219
 2935W        W 6454   3.172   5.005   1.730  0.5180 -0.1768 -0.2699
 2936W        W 6455   2.511   9.194   9.274  0.0648  0.1119  0.1999
 2937W        W 6456   4.515   3.111   2.763  0.1792 -0.2945  0.0380
 2938W        W 6457   9.251   6.624   5.320  0.1116 -0.4152  0.1743
 2939W        W 6458   1.681   8.155   2.947  0.0435  0.2687 -0.2389
 2940W        W 6459   2.750   0.938   0.100 -0.0674  0.0914 -0.1380
 2941W        W 6460   6.748   0.541  10.814  0.0535 -0.0140  0.1501
 2942W        W 6461   8.291   1.831   2.790 -0.1127  0.4580 -0.0174
 2943W        W 6462   5.869   8.433   0.090  0.2110  0.2180 -0.0951
 2944W        W 6463   1.651   2.916   0.939 -0.2547 -0.1737 -0.2212
 2945W        W 6464   6.474   2.068  10.939 -0.1558 -0.0866 -0.2745
 2946W        W 6465   6.164   0.752   8.486 -0.0560  0.0593  0.1009
 2947W        W 6466   1.791   8.692   0.309 -0.1490 -0.0902 -0.0458
 2948W        W 6467   3.613   7.482   3.713  0.0360  0.2829  0.0599
 2949W        W 6468   8.044   2.756  10.107  0.0978 -0.0134 -0.0419
 2950W        W 6469   9.200   2.856  10.772 -0.0109 -0.0759 -0.0631
 2951W        W 6470   4.220   4.618  11.811 -0.3290  0.1542 -0.1964
 2952W        W 6471   2.834   4.529   3.906 -0.1063  0.0444  0.0669
 2953W        W 6472   0.774   0.290   9.275  0.0923 -0.1664  0.2812
 2954W        W 6473   3.812   0.722   9.980 -0.0201 -0.1836  0.1072
 2955W        W 6474   8.561   0.800   9.232 -0.0018  0.0190 -0.2219
 2956W        W 6475   9.671   1.887   3.175 -0.3234  0.3663  0.2195
 2957W        W 6476   6.419   7.228   1.110 -0.0004 -0.1839 -0.2076
 2958W        W 6477   6.794   6.283   3.339 -0.1100 -0.0904  0.2501
 2959W        W 6478   4.073   7.498  11.770  0.2469 -0.1526  0.1281
 2960W        W 6479   5.444   0.028   3.706 -0.1506 -0.0836  0.2655
 2961W        W 6480   8.726   7.511   9.965 -0.1867  0.0482  0.0841
 2962W        W 6481   5.763   2.957  12.389 -0.1914 -0.2230 -0.0606
 2963W        W 6482   6.146   4.918   9.594 -0.3289 -0.1578  0.0902
 2964W        W 6483   1.219   2.644   1.116 -0.0156 -0.0404  0.0634
 2965W        W 6484   7.695   5.726   1.975  0.0402  0.1510  0.2345
 2966W        W 6485   4.106   8.028  11.265 -0.4497 -0.1399  0.2684
 2967W        W 6486   9.403   4.516   3.998 -0.1527 -0.0546  0.0387
 2968W        W 6487   2.039   6.481   1.699  0.0275  0.5357 -0.1785
 2969W        W 6488   3.136   9.212  10.053  0.0505  0.1626 -0.1877
 2970W        W 6489   9.369   6.868   2.238 -0.1430 -0.1343 -0.2917
 2971W        W 6490   2.248   2.117   1.433 -0.2376  0.1032  0.2258
 2972W        W 6491   6.657   3.195   9.337  0.3406  0.2417 -0.0288
 2973W        W 6492   3.588   9.673   7.908  0.3971 -0.0957  0.0029
 2974W        W 6493   7.523   4.698  11.446 -0.0466  0.0417 -0.3512
 2975W        W 6494   1.900   4.841   9.505  0.0911 -0.3088  0.1042
 2976W        W 6495   5.307   0.772   3.573 -0.1709  0.1838 -0.4116
 2977W        W 6496   7.592   1.979   9.972  0.0216 -0.0113 -0.3824
 2978W        W 6497   6.147   6.618   8.914  0.1411  0.0847  0.0796
 2979W        W 6498   4.837   5.257   2.945 -0.1248  0.0774 -0.1493
 2980W        W 6499   8.530   5.383   1.291  0.1312  0.1476 -0.0992
 2981W        W 6500   8.511   1.315   0.762  0.1784  0.1468 -0.2455
 2982W        W 6501   3.890   4.460  10.717 -0.1681  0.2844 -0.1703
 2983W        W 6502   5.409   0.411   2.958  0.0189 -0.3027  0.2018
 2984W        W 6503   7.032   7.937  11.139 -0.0188 -0.3159  0.1681
 2985W        W 6504   1.929   9.384  11.019  0.1508 -0.2211  0.1695
 2986W        W 6505   9.419   8.899   0.652  0.0750  0.2337  0.3250
 2987W        W 6506   1.853   8.987  10.558  0.0863 -0.0786 -0.2736
 2988W        W 6507   5.720   5.075   9.938  0.0962  0.1352 -0.4624
 2989W        W 6508   6.613   8.869   0.138  0.1496 -0.1642  0.0779
 2990W        W 6509   2.233   3.751   9.451  0.1442 -0.0007  0.3708
 2991W        W 6510   9.114   0.178   2.214 -0.1822 -0.3647  0.2950
 2992W        W 6511   7.265   3.835  10.789 -0.1249 -0.0356 -0.0615
 2993W        W 6512   2.302   2.183  11.018 -0.0490  0.1428  0.2348
 2994W        W 6513   2.813   2.402  10.665 -0.0348  0.1014  0.2443
 2995W        W 6514   5.061   5.510   3.397 -0.1068  0.0537 -0.0172
 2996W        W 6515   0.287   3.577  10.553 -0.2798  0.0937 -0.1418
 2997W        W 6516   2.505   5.885  10.410  0.1820  0.0398 -0.0646
 2998W        W 6517   2.928   1.213   2.311 -0.1287 -0.0354 -0.1580
 2999W        W 6518   0.675   4.036   2.358  0.0227 -0.2460 -0.0463
 3000W        W 6519   7.819   2.194  10.914 -0.2546 -0.2944  0.0070
 3001W        W 6520   8.121   1.958   1.200  0.2115 -0.1732 -0.0843
 3002W        W 6521   5.061   2.350   3.887  0.0483 -0.0515  0.0510
 3003W        W 6522   5.526   7.495   9.971  0.0392 -0.1336  0.0290
 3004W        W 6523   5.852   1.500   0.446  0.0367  0.1061 -0.3596
 3005W        W 6524   1.409   9.232   3.373  0.0704 -0.1015 -0.2059
 3006W        W 6525   4.166   8.978   3.435 -0.1971 -0.1163 -0.1574
 3007W        W 6526   1.647   4.361   0.297  0.0439  0.5698 -0.0093
 3008W        W 6527   6.036   3.090   1.865  0.0862  0.2637 -0.2520
 3009W        W 6528   9.373   4.151  11.323 -0.0322 -0.1434 -0.1139
 3010W        W 6529   6.125   4.314   0.615  0.0954  0.1695  0.1602
 3011W        W 6530   3.793   2.875   2.266  0.2762 -0.2703 -0.0608
 3012W        W 6531   7.452   2.816  11.587 -0.2250  0.0075 -0.0755
 3013W        W 6532   0.286   4.241   1.594 -0.1414  0.1599 -0.2060
 3014W        W 6533   4.339   7.035   1.340 -0.0996 -0.1702  0.0979
 3015W        W 6534   0.547   3.920  10.258 -0.1198  0.3073  0.3575
 3016W        W 6535   2.512   2.516   3.465  0.1452 -0.0642  0.0979
 3017W        W 6536   0.164   5.332  10.223 -0.0804 -0.0242 -0.2890
 3018W        W 6537   2.718   8.285   0.455 -0.3668  0.1411 -0.0793
 3019W        W 6538   9.392   6.375   3.422  0.3905 -0.3184 -0.0632
 3020W        W 6539   5.324   8.642  11.214 -0.4613 -0.1945  0.0059
 3021W        W 6540   3.450   6.425  10.594  0.1131  0.0616 -0.1922
 3022W        W 6541   2.910   0.474   9.670  0.1432 -0.0465  0.1606
 3023W        W 6542   3.259   6.103   1.656  0.0519  0.1235  0.0059
 3024W        W 6543   1.224   9.662   4.355  0.2337  0.0601  0.2344
 3025W        W 6544   1.125   8.306   2.583 -0.0150  0.1537 -0.1358
 3026W        W 6545   7.246   0.018   2.408  0.1553 -0.1482 -0.4063
 3027W        W 6546   0.405   3.450   3.731 -0.1438  0.1405  0.1278
 3028W        W 6547   5.245   8.378  11.606  0.1268 -0.4295  0.0898
 3029W        W 6548   3.372   2.936   9.035  0.1408 -0.1254 -0.0768
 3030W        W 6549   7.635   4.494   2.928 -0.0318  0.2985 -0.3210
 3031W        W 6550   8.009   7.020   1.608 -0.0696 -0.3528 -0.0036
 3032W        W 6551   4.771   7.133   4.335 -0.1690  0.0003  0.1700
 3033W        W 6552   7.957   5.188   9.261  0.0753  0.0253  0.2620
 3034W        W 6553   2.685   5.993   3.420  0.0904 -0.0864  0.1996
 3035W        W 6554   7.565   3.427   1.001  0.1699 -0.0061  0.0053
 3036W        W 6555   2.839   8.303   1.433  0.1450  0.0038  0.0681
 3037W        W 6556   0.766   8.599  10.508 -0.0786 -0.2902  0.1215
 3038W        W 6557   3.966   4.320   1.744 -0.1153 -0.2157  0.2885
 3039W        W 6558   0.976   5.105   1.051  0.0988  0.2691 -0.0559
 3040W        W 6559   2.969   3.634  10.202 -0.0300  0.1358  0.3479
 3041W        W 6560   6.489   1.762  10.399  0.1108 -0.3184  0.0889
 3042W        W 6561   3.424   6.428  11.969 -0.0589 -0.1232 -0.0905
 3043W        W 6562   7.829   4.551   3.430 -0.3009 -0.1475  0.0649
 3044W        W 6563   1.717   2.910   4.353  0.5193 -0.0611  0.0889
 3045W        W 6564   4.235   4.537   1.401 -0.2307 -0.0049  0.2787
 3046W        W 6565   6.472   2.179   0.128  0.1563 -0.0537  0.1139
 3047W        W 6566   6.921   2.476   1.839  0.1927 -0.2290 -0.1343
 3048W        W 6567   0.912   9.182  12.093  0.1244 -0.0827  0.0986
 3049W        W 6568   9.563   2.917   0.352  0.2227 -0.0138  0.1794
 3050W        W 6569   3.370   8.030  11.634 -0.0445 -0.0862 -0.0852
 3051W        W 6570   3.771   5.065  11.515  0.2127 -0.1136  0.1214
 3052W        W 6571   6.346   0.693   0.598  0.1747 -0.0820 -0.2511
 3053W        W 6572   0.321   1.647   3.622 -0.0370 -0.0187  0.2175
 3054W        W 6573   1.681   2.860   9.281  0.4748  0.1259  0.0504
 3055W        W 6574   1.546   8.216   9.550  0.2661 -0.1960  0.2237
 3056W        W 6575   0.426   5.314  11.148  0.0544 -0.3183 -0.0275
 3057W        W 6576   6.036   9.093   2.987 -0.2662  0.2612  0.1864
 3058W        W 6577   3.190   7.751   9.045  0.0029  0.2730  0.1137
 3059W        W 6578   0.619   5.571  12.258  0.1044 -0.0724  0.3565
 3060W        W 6579   2.061   3.933   4.536 -0.1372 -0.0423  0.2326
 3061W        W 6580   2.630   7.314   3.082 -0.2143 -0.2747  0.0624
 3062W        W 6581   2.845   3.296   1.016  0.1625  0.0646  0.1917
 3063W        W 6582   3.914   6.599   9.308  0.1421  0.1432 -0.3601
 3064W        W 6583   6.792   3.864   2.094 -0.0204  0.0894 -0.0848
 3065W        W 6584   4.502   9.096   2.245  0.0448 -0.1499  0.1484
 3066W        W 6585   4.311   9.651   0.069 -0.1018 -0.1207  0.0704
 3067W        W 6586   7.849   2.682   0.602  0.1255 -0.2328  0.2918
 3068W        W 6587   8.660   1.312  10.537 -0.2285 -0.2356  0.1152
 3069W        W 6588   3.799   2.441  12.358  0.1052 -0.2443 -0.1162
 3070W        W 6589   0.898   7.989  11.666 -0.2466  0.2107 -0.1866
 3071W        W 6590   7.942   8.166   4.466 -0.4266 -0.3642 -0.0876
 3072W        W 6591   3.497   4.085   9.472 -0.0352  0.1059 -0.1304
 3073W        W 6592   1.464   9.573   8.496 -0.1713 -0.0193 -0.0168
 3074W        W 6593   8.717   2.203   9.025 -0.0835  0.0020  0.3252
 3075W        W 6594   8.444   3.701   1.627 -0.2483  0.0264  0.2206
 3076W        W 6595   6.121   0.057   3.723 -0.3993  0.1458  0.0985
 3077W        W 6596   6.964   4.066   9.156  0.0478  0.1388 -0.1466
 3078W        W 6597   3.597   7.583  11.490 -0.1138 -0.0926 -0.1513
 3079W        W 6598   4.084   3.030  10.699 -0.2754 -0.1105 -0.0263
 3080W        W 6599   0.712   6.055   8.376  0.3443  0.0399 -0.0929
 3081W        W 6600   5.964   1.592  11.437  0.1167 -0.1707 -0.0487
 3082W        W 6601   0.847   1.628  10.901 -0.2451  0.2440 -0.0610
 3083W        W 6602   6.554   3.780   3.731  0.0839  0.2666 -0.3819
 3084W        W 6603   2.818   4.793   9.291  0.1461  0.0157 -0.2905
 3085W        W 6604   9.611   8.369  12.242  0.2078  0.0546  0.0677
 3086W        W 6605   7.576   3.304   1.793  0.0072  0.0208  0.1455
 3087W        W 6606   9.320   8.508   4.079 -0.0401  0.0590  0.0177
 3088W        W 6607   0.167   9.043   0.545  0.3893  0.0080 -0.0298
 3089W        W 6608   8.822   1.271  10.980 -0.1267  0.1541  0.1486
 3090W        W 6609   7.239   3.674   1.434 -0.2012 -0.1732 -0.0849
 3091W        W 6610   5.060   9.013   1.177  0.0423 -0.0398  0.0614
 3092W        W 6611   1.980   7.702  10.204 -0.0616 -0.1002 -0.0564
 3093W        W 6612   7.515   9.510  11.804 -0.3877  0.2498  0.2742
 3094W        W 6613   3.352   4.616   3.770 -0.2240 -0.4831 -0.1373
 3095W        W 6614   2.103   8.691  11.848  0.3025  0.2145 -0.1130
 3096W        W 6615   2.482   3.662   2.322  0.2479 -0.1665 -0.0248
 3097W        W 6616   1.698   4.875   0.189 -0.1602 -0.1517  0.1096
 3098W        W 6617   0.488   5.689  10.192  0.0659  0.1536 -0.2253
 3099W        W 6618   7.659   1.334   3.263 -0.0949  0.1172  0.0450
 3100W        W 6619   1.384   9.098   8.614  0.2066  0.0335  0.1253
 3101W        W 6620   6.518   7.520   2.700  0.2825 -0.0797  0.1265
 3102W        W 6621   9.189   2.173   2.669 -0.0412  0.1208  0.0010
 3103W        W 6622   1.535   4.071   0.706 -0.0210  0.4046 -0.1720
 3104W        W 6623   8.974   6.447   0.303  0.1092 -0.0507  0.2650
 3105W        W 6624   8.717   7.168   9.625 -0.0820  0.0436  0.0407
 3106W        W 6625   4.128   7.817   9.812  0.0560  0.4087 -0.0078
 3107W        W 6626   0.694   6.185   2.146 -0.0537 -0.0337 -0.0782
 3108W        W 6627   4.668   7.360   0.672 -0.1041  0.0054 -0.0354
 3109W        W 6628   3.006   3.034   9.444  0.1139  0.0533  0.2522
 3110W        W 6629   4.534   8.319   1.843  0.1523  0.0521 -0.0146
 3111W        W 6630   8.750   0.334  11.335  0.1666  0.1879 -0.1299
 3112W        W 6631   0.205   1.127   0.643 -0.0766 -0.0246  0.0756
 3113W        W 6632   2.044   5.100   8.984 -0.2339  0.2638  0.1295
 3114W        W 6633   2.946   9.289  11.913  0.1227  0.1474 -0.0125
 3115W        W 6634   8.537   4.903   4.124  0.1411  0.1600 -0.0518
 3116W        W 6635   4.539   3.307   4.085 -0.1948  0.0704 -0.3242
 3117W        W 6636   4.540   8.638  10.061 -0.0177 -0.1514 -0.0358
 3118W        W 6637   3.502   2.182   3.054  0.1244  0.1932 -0.1692
 3119W        W 6638   2.010   6.240   4.945  0.2134 -0.1386  0.1120
 3120W        W 6639   7.819   9.705   0.328  0.0186 -0.3237 -0.1939
 3121W        W 6640   7.355   1.165   9.871 -0.0441 -0.1251  0.1332
 3122W        W 6641   4.929   0.013  10.457  0.3637  0.0421  0.0077
 3123W        W 6642   5.093   5.978   2.535 -0.0929  0.3505 -0.1816
 3124W        W 6643   5.201   2.380   2.762 -0.2097  0.2102 -0.2452
 3125W        W 6644   5.723   4.529   4.501 -0.0126  0.0506 -0.1226
 3126W        W 6645   4.167   8.839  11.350  0.1256 -0.2836  0.2845
 3127W        W 6646   0.433   2.731   2.200 -0.1904 -0.0252 -0.5048
 3128W        W 6647   2.816   5.410  10.119 -0.0251 -0.3345 -0.2153
 3129W        W 6648   4.481   9.405   1.812 -0.1237 -0.5225 -0.3714
 3130W        W 6649   6.331   6.609   9.788  0.1234  0.3288  0.2818
 3131W        W 6650   3.866   4.184   2.377  0.1774  0.1584  0.0484
 3132W        W 6651   9.357   7.407  12.023  0.0808 -0.0503  0.0077
 3133W        W 6652   3.324   3.567   9.736  0.1688 -0.1722 -0.2493
 3134W        W 6653   3.886   1.914   3.436  0.2704 -0.1695 -0.0735
 3135W        W 6654   8.010   1.651   1.590  0.1978 -0.0835  0.2066
 3136W        W 6655   9.233   3.928  10.198  0.0659  0.0861 -0.1242
 3137W        W 6656   8.532   0.318   2.036  0.0489 -0.1658  0.3168
 3138W        W 6657   7.278   5.899   0.901 -0.2203  0.1842  0.2246
 3139W        W 6658   3.925   2.424   1.348 -0.0429  0.0912 -0.1860
 3140W        W 6659   8.450   1.945   1.550  0.0881  0.2399  0.0638
 3141W        W 6660   8.071   1.464   9.353 -0.1520 -0.0502  0.0909
 3142W        W 6661   9.075   2.969   0.155 -0.1152  0.0371  0.1099
 3143W        W 6662   1.357   5.301  11.254 -0.0030  0.1459  0.2430
 3144W        W 6663   4.955   8.043  12.170  0.0796 -0.2857  0.1760
 3145W        W 6664   9.518   9.125   0.212  0.1955  0.0603 -0.0404
 3146W        W 6665   3.331   6.317  11.083 -0.1783  0.0783 -0.1586
 3147W        W 6666   7.623   3.380   2.331 -0.2119  0.1155  0.1069
 3148W        W 6667   7.508   9.620   4.094  0.0961  0.2723  0.3526
 3149W        W 6668   6.876   0.584   0.937  0.1689  0.2078  0.1845
 3150W        W 6669   5.636   3.540   1.073 -0.0805 -0.0047 -0.1346
 3151W        W 6670   5.273   2.750  12.390  0.0149  0.0411 -0.0291
 3152W        W 6671   7.946   4.969   0.124 -0.0999  0.1401  0.1590
 3153W        W 6672   7.567   4.932   9.384 -0.1454  0.0612  0.0868
 3154W        W 6673   0.649   0.214  11.468  0.1860 -0.3144 -0.1309
 3155W        W 6674   7.270   7.163   3.241  0.1143 -0.1155 -0.1529
 3156W        W 6675   5.628   2.928   2.165 -0.0053 -0.0241 -0.0044
 3157W        W 6676   3.437   4.829   1.211  0.2736 -0.0125 -0.3271
 3158W        W 6677   8.659   9.411  10.856 -0.0516  0.0376  0.0579
 3159W        W 6678   1.931   2.021   1.864 -0.0974 -0.0376 -0.0155
 3160W        W 6679   6.759   4.350   2.100 -0.0247  0.2004 -0.0786
 3161W        W 6680   1.101   4.192   2.179  0.1561  0.0165  0.0277
 3162W        W 6681   3.078   2.718   0.777  0.0931  0.1318  0.1085
 3163W        W 6682   5.353   5.313  11.648 -0.0299 -0.0814 -0.1317
 3164W        W 6683   6.370   5.252   2.599  0.3648 -0.0360 -0.0581
 3165W        W 6684   8.113   8.804   0.678  0.0099 -0.4390  0.0045
 3166W        W 6685   1.880   4.267  12.004 -0.2633 -0.0200 -0.3456
 3167W        W 6686   2.371   4.649   1.529 -0.0056 -0.1657  0.1286
 3168W        W 6687   0.526   5.106  11.577  0.1726  0.1915 -0.0356
 3169W        W 6688   8.221   1.067  10.798 -0.0397  0.4664 -0.1656
 3170W        W 6689   5.791   4.433   2.134 -0.0873  0.1550 -0.2866
 3171W        W 6690   0.385   8.869   1.767 -0.3214  0.1753  0.1151
 3172W        W 6691   0.685   9.120  11.283  0.0261  0.0480  0.0732
 3173W        W 6692   2.744   2.639   2.087  0.1490 -0.2294  0.0336
 3174W        W 6693   9.469   7.920  10.664  0.0344 -0.0261  0.0860
 3175W        W 6694   8.996   9.024   2.892 -0.1214  0.1059 -0.3215
 3176W        W 6695   8.612   4.738  10.926  0.0247 -0.1417  0.2133
 3177W        W 6696   0.604   5.699   2.569  0.2524  0.0504 -0.0003
 3178W        W 6697   0.881   2.338   9.471 -0.1615  0.0284 -0.1166
 3179W        W 6698   2.702   1.741   3.272 -0.2656  0.0850 -0.0519
 3180W        W 6699   5.126   5.617  11.307  0.0197  0.0760  0.2137
 3181W        W 6700   8.585   7.868   1.065 -0.0604  0.1738  0.3193
 3182W        W 6701   9.359   1.167   0.616 -0.1095  0.1317  0.0599
 3183W        W 6702   5.567   1.988   2.034 -0.0037  0.3487 -0.0414
 3184W        W 6703   3.504   7.032   9.591  0.1354  0.1094  0.2169
 3185W        W 6704   8.997   6.129   1.686  0.0241  0.3346  0.1854
 3186W        W 6705   4.154   3.358   2.978 -0.0388  0.3732 -0.2269
 3187W        W 6706   3.938   2.365  11.795 -0.1595  0.1880 -0.2778
 3188W        W 6707   6.183   2.122   3.115  0.2663 -0.2450  0.0617
 3189W        W 6708   6.598   4.693   9.774 -0.2371  0.2223 -0.1588
 3190W        W 6709   7.233   5.544   1.819 -0.0545 -0.0027 -0.1091
 3191W        W 6710   9.463   8.091   9.408 -0.1002  0.0584 -0.1439
 3192W        W 6711   9.171   2.166   0.961  0.4106  0.3691  0.1209
 3193W        W 6712   9.686   1.971  12.066  0.1460  0.1714  0.0836
 3194W        W 6713   8.839   8.219   2.645  0.1226  0.2121 -0.3283
 3195W        W 6714   4.275   5.348   1.519  0.0794 -0.1956  0.0595
 3196W        W 6715   3.785   9.332  10.728  0.0901  0.1744 -0.0424
 3197W        W 6716   1.692   3.417   0.679  0.0949  0.1911 -0.4792
 3198W        W 6717   3.353   7.785   1.992 -0.1237 -0.0790 -0.0033
 3199W        W 6718   5.379   6.974   1.965  0.1009 -0.2832 -0.1500
 3200W        W 6719   8.132   6.278  10.615  0.1049 -0.0664  0.2706
 3201W        W 6720   2.997   8.739   9.985 -0.2217 -0.3272  0.1818
 3202W        W 6721   2.328   2.423   9.492 -0.0269 -0.0693 -0.2823
 3203W        W 6722   2.454   8.370  11.737 -0.1988 -0.1809  0.1758
 3204W        W 6723   4.084   7.069  10.165  0.1427 -0.1155 -0.2113
 3205W        W 6724   5.850   6.215   3.122 -0.3346  0.1725  0.2513
 3206W        W 6725   1.104   4.582   9.261 -0.2351  0.0670  0.0555
 3207W        W 6726   4.920   7.438   2.710  0.0082 -0.2597  0.1012
 3208W        W 6727   1.132   0.259   0.110  0.0934 -0.0733  0.2273
 3209W        W 6728   2.521   7.587  10.320  0.4124 -0.0683  0.0288
 3210W        W 6729   1.005   0.111   3.663 -0.0877 -0.0567  0.1836
 3211W        W 6730   4.602   4.380  11.243 -0.0601 -0.0914  0.1401
 3212W        W 6731   4.731   1.645  11.747 -0.2460 -0.1909 -0.0005
 3213W        W 6732   0.395   7.102  10.858  0.3305 -0.3251 -0.1887
 3214W        W 6733   8.235   2.588   0.307 -0.1848 -0.2610  0.1008
 3215W        W 6734   2.007   7.983   9.760 -0.2601  0.0745  0.0525
 3216W        W 6735   1.392   9.060   2.859  0.0108  0.0550  0.0090
 3217W        W 6736   2.907   1.148  10.418 -0.3254 -0.1506 -0.3462
 3218W        W 6737   2.441   7.377   1.305 -0.1452  0.1277  0.2937
 3219W        W 6738   7.326   4.104   1.209  0.0441  0.2708 -0.1645
 3220W        W 6739   5.179   2.419  11.988  0.0606  0.2704 -0.0131
 3221W        W 6740   3.401   6.567   2.185 -0.0004  0.0403  0.3569
 3222W        W 6741   5.172   7.355   4.196  0.0591 -0.2805  0.0528
 3223W        W 6742   3.633   6.919  10.093 -0.0504  0.0601 -0.0833
 3224W        W 6743   2.685   7.799   0.579 -0.2428  0.1660 -0.1334
 3225W        W 6744   2.597   8.447  10.355  0.0499  0.0084 -0.2632
 3226W        W 6745   2.412   9.583   1.733 -0.0747 -0.0280  0.3295
 3227W        W 6746   3.431   4.298  11.198 -0.0308  0.3953  0.0034
 3228W        W 6747   0.198   9.445   8.428  0.2398 -0.6550  0.0709
 3229W        W 6748   3.630   9.274   1.471 -0.0177 -0.0078  0.1756
 3230W        W 6749   5.498   8.199   1.469  0.2974  0.1126 -0.3262
 3231W        W 6750   2.898   6.053   8.344  0.2575 -0.2886 -0.1515
 3232W        W 6751   3.943   1.088   8.584  0.0535  0.0435 -0.1356
 3233W        W 6752   9.485   0.361   3.189  0.0953  0.2505 -0.2521
 3234W        W 6753   1.813   3.235  10.113  0.1315 -0.1906 -0.0132
 3235W        W 6754   4.193   4.455   0.586 -0.0773  0.0494 -0.1683
 3236W        W 6755   1.000   4.849  11.328 -0.1868 -0.2126 -0.3510
 3237W        W 6756   0.772   6.215  10.330  0.2454 -0.1633 -0.1154
 3238W        W 6757   4.544   4.858   8.867  0.1234  0.2347  0.1146
 3239W        W 6758   6.264   7.471  10.806  0.0826  0.0663  0.1953
 3240W        W 6759   9.623   2.461   1.362 -0.0588  0.3290 -0.0868
 3241W        W 6760   7.272   0.147   0.470  0.1084 -0.0646 -0.2109
 3242W        W 6761   8.964   6.085  10.308  0.0769  0.0997 -0.0622
 3243W        W 6762   1.190   4.435   2.766  0.0421 -0.1399 -0.0439
 3244W        W 6763   2.555   7.305   2.027  0.0278 -0.0823 -0.0894
 3245W        W 6764   5.471   5.551   2.537  0.1226  0.0492 -0.0744
 3246W        W 6765   8.293   8.315  11.854 -0.0175 -0.0235 -0.0246
 3247W        W 6766   5.449   4.951   0.139 -0.1610  0.2364 -0.0509
 3248W        W 6767   4.727   2.252   3.428 -0.1725  0.0142 -0.0847
 3249W        W 6768   5.880   7.518  10.518 -0.1749  0.1125  0.0508
 3250W        W 6769   9.665   8.815  10.464  0.0140  0.0725  0.0428
 3251W        W 6770   3.158   8.304  10.192  0.0219 -0.4176 -0.2713
 3252W        W 6771   8.165   1.308   1.194  0.0849 -0.2065  0.0877
 3253W        W 6772   1.777   0.273  10.277 -0.0115  0.0515 -0.1967
 3254W        W 6773   9.269   9.138   1.134 -0.3372  0.0112  0.2434
 3255W        W 6774   3.711   0.421  12.208  0.1696  0.0920 -0.1877
 3256W        W 6775   6.409   3.240   1.466  0.0217  0.2866  0.2719
 3257W        W 6776   3.274   3.683   2.094 -0.0991 -0.0002 -0.0280
 3258W        W 6777   5.358   6.886  11.139  0.1122  0.3742  0.2738
 3259W        W 6778   8.220   3.517   4.237 -0.1987 -0.0636 -0.2340
 3260W        W 6779   3.833   2.907   1.296 -0.0718  0.1193  0.2395
 3261W        W 6780   3.087   5.220  11.289 -0.0225 -0.4127 -0.0760
 3262W        W 6781   6.748   5.395  12.332 -0.0275 -0.0998 -0.1469
 3263W        W 6782   9.244   2.071  10.214 -0.0628  0.0521  0.1476
 3264W        W 6783   6.138   3.550  10.674 -0.1243 -0.0760 -0.1165
 3265W        W 6784   1.149   9.440   3.883  0.0727  0.3649 -0.1535
 3266W        W 6785   1.443   3.377   9.180 -0.0328 -0.1144 -0.1586
 3267W        W 6786   4.661   3.746   1.909  0.1560 -0.1821  0.1357
 3268W        W 6787   7.286   5.697  11.573 -0.3169  0.1666  0.3943
 3269W        W 6788   6.430   2.458   0.557 -0.0639 -0.0916  0.1241
 3270W        W 6789   5.535   7.334   9.055  0.2240 -0.1773  0.2503
 3271W        W 6790   6.268   4.283  11.195 -0.0963  0.2241  0.0970
 3272W        W 6791   5.492   1.631   0.116 -0.0826  0.1926 -0.2513
 3273W        W 6792   4.720   5.265   1.816 -0.0468  0.1090 -0.2075
 3274W        W 6793   8.285   9.086  11.107 -0.0932 -0.4469  0.0801
 3275W        W 6794   1.766   4.041  10.811  0.2796  0.0322  0.2825
 3276W        W 6795   1.358   0.334   2.136 -0.2236  0.0004  0.0112
 3277W        W 6796   6.510   0.522   2.186 -0.0759  0.0179  0.3076
 3278W        W 6797   3.078   1.536   1.087  0.1276  0.1959  0.3762
 3279W        W 6798   1.683   0.153   8.931 -0.0723 -0.0663  0.0545
 3280W        W 6799   2.795   6.985   1.102  0.1034  0.1803  0.0666
 3281W        W 6800   5.701   1.929  11.782  0.1017  0.2200  0.1234
 3282W        W 6801   0.585   6.467   8.636  0.0716  0.1913 -0.1738
 3283W        W 6802   7.730   9.676  10.747 -0.0481  0.1683 -0.0142
 3284W        W 6803   7.527   8.686  12.346 -0.0980  0.0151  0.1327
 3285W        W 6804   1.385   6.942   2.040  0.1375  0.1919  0.0878
 3286W        W 6805   8.931   8.070   1.759  0.0935  0.0915 -0.0399
 3287W        W 6806   3.865   5.971   2.404 -0.3042  0.1999 -0.1853
 3288W        W 6807   1.228   1.730  12.462  0.1899 -0.2452  0.0572
 3289W        W 6808   1.803   8.082   3.434  0.2165 -0.2163  0.0567
 3290W        W 6809   2.916   4.397   2.422 -0.2063 -0.2773  0.1654
 3291W        W 6810   2.362   8.391  11.245 -0.0213 -0.2653 -0.0224
 3292W        W 6811   9.594   3.065   4.542  0.0905  0.2437 -0.3568
 3293W        W 6812   9.467   4.377   0.780  0.0415 -0.0448  0.2032
 3294W        W 6813   3.793   8.351  11.421 -0.0146 -0.1977  0.0694
 3295W        W 6814   0.429   8.091  10.158  0.0202 -0.3226 -0.1947
 3296W        W 6815   7.996   3.941   9.158  0.0766  0.3804 -0.1126
 3297W        W 6816   4.982   5.156   0.341  0.0784 -0.3278 -0.2268
 3298W        W 6817   9.007   5.283   4.030 -0.0816  0.4311  0.1093
 3299W        W 6818   7.083   1.714  12.000  0.0456  0.0862  0.0516
 3300W        W 6819   5.554   6.025   0.089 -0.1398 -0.1754  0.3304
 3301W        W 6820   6.485   5.285   3.443 -0.0399 -0.0409 -0.0108
 3302W        W 6821   8.754   5.599  10.600 -0.1268  0.2546 -0.3110
 3303W        W 6822   9.182   0.606   9.016 -0.0506 -0.0528 -0.0514
 3304W        W 6823   1.440   6.382   9.350 -0.1155  0.1466  0.1866
 3305W        W 6824   7.671   0.887   1.115 -0.1414  0.2717 -0.0870
 3306W        W 6825   7.777   3.689   1.393 -0.1305 -0.1243 -0.0589
 3307W        W 6826   8.056   5.346   2.000  0.0293 -0.0505 -0.1573
 3308W        W 6827   6.783   8.972   1.000 -0.0656 -0.0458 -0.0467
 3309W        W 6828   3.003   7.761   0.118 -0.0670  0.1040  0.0881
 3310W        W 6829   1.457   2.027  11.413 -0.1127 -0.2771  0.1010
 3311W        W 6830   4.318   7.669   0.442 -0.3777 -0.2750 -0.0335
 3312W        W 6831   2.182   2.134   0.083 -0.3680  0.3266 -0.3412
 3313W        W 6832   7.205   3.247   2.409  0.3665  0.3478 -0.0353
 3314W        W 6833   7.265   6.779   0.540  0.1984 -0.0372  0.0159
 3315W        W 6834   9.501   4.646  11.252  0.2212 -0.3240  0.3245
 3316W        W 6835   3.739   3.302   9.927  0.1899 -0.2447  0.1012
 3317W        W 6836   2.471   5.788   3.815  0.1132 -0.0844  0.0639
 3318W        W 6837   1.865   2.430   4.428  0.0715 -0.3096  0.4992
 3319W        W 6838   8.305   5.266   0.186 -0.0928  0.0563 -0.1060
 3320W        W 6839   7.836   4.943   2.189  0.3022 -0.2004  0.3224
 3321W        W 6840   0.517   0.154   3.757  0.1440  0.0945 -0.1115
 3322W        W 6841   1.673   9.172   9.595 -0.0576  0.0603  0.0502
 3323W        W 6842   0.678   5.228  10.049  0.1550  0.0242 -0.0101
 3324W        W 6843   1.314   4.290  10.629  0.0737 -0.1248 -0.0912
 3325W        W 6844   4.817   1.185  11.541  0.2851  0.2612 -0.0359
 3326W        W 6845   8.483   5.493   2.215 -0.2429  0.1451 -0.1882
 3327W        W 6846   3.963   3.638  11.589 -0.1706 -0.3020  0.1282
 3328W        W 6847   4.472   6.563   9.449 -0.0056 -0.2416  0.0451
 3329W        W 6848   1.012   8.258   9.548  0.1558  0.1730  0.0590
 3330W        W 6849   6.261   8.319   0.425  0.1230 -0.1456  0.0373
 3331W        W 6850   9.317   4.459  11.748  0.2099  0.0500  0.1368
 3332W        W 6851   2.202   1.839   4.590 -0.3781  0.0326  0.1422
 3333W        W 6852   9.387   0.272   0.055  0.3046  0.1979 -0.1606
 3334W        W 6853   7.605   5.800   4.296 -0.0532 -0.2127 -0.0659
 3335W        W 6854   1.544   6.445   2.102 -0.0137  0.0664  0.2416
 3336W        W 6855   7.879   2.717  11.128 -0.2007 -0.0763  0.1079
 3337W        W 6856   5.797   5.011   1.249 -0.0411  0.2430  0.2373
 3338W        W 6857   1.304   5.188  10.764 -0.3930 -0.1159 -0.1757
 3339W        W 6858   2.671   5.116   1.711 -0.1915 -0.0991  0.1814
 3340W        W 6859   4.619   3.444  10.099 -0.2059 -0.1135  0.1580
 3341W        W 6860   6.138   5.865   0.260 -0.1929 -0.0089  0.2006
 3342W        W 6861   4.826   5.960   0.648  0.1315  0.2182 -0.1968
 3343W        W 6862   3.063   5.379  12.340 -0.1368  0.1528 -0.1483
 3344W        W 6863   9.424   3.349   9.081  0.0465 -0.1627 -0.0130
 3345W        W 6864   6.859   4.953  10.091  0.0436 -0.1271 -0.0842
 3346W        W 6865   2.853   7.503  12.245 -0.0812  0.2030 -0.3320
 3347W        W 6866   0.314   8.731   8.884 -0.0141  0.1557  0.1061
 3348W        W 6867   4.099   8.501   3.581  0.0234 -0.0986  0.1576
 3349W        W 6868   0.733   9.594   9.578  0.1017 -0.2691  0.3439
 3350W        W 6869   3.626   1.326  11.163  0.2057 -0.0384 -0.1635
 3351W        W 6870   9.472   4.422   0.284  0.0854 -0.0172  0.2898
 3352W        W 6871   9.450   8.151   8.297 -0.1813 -0.1293 -0.2274
 3353W        W 6872   5.469   6.834   1.400 -0.0218  0.1104 -0.0455
 3354W        W 6873   7.220   8.527  10.927 -0.1105  0.0033  0.1285
 3355W        W 6874   1.477   7.435   0.923  0.0297 -0.1097  0.0866
 3356W        W 6875   7.174   5.146   1.499 -0.0082 -0.1473  0.0204
 3357W        W 6876   3.373   0.401   7.740 -0.1994  0.1346  0.1421
 3358W        W 6877   5.675   2.758   1.481  0.1870  0.0738 -0.0302
 3359W        W 6878   0.441   3.626   0.485  0.1011  0.0864 -0.0636
 3360W        W 6879   7.629   4.169  10.775  0.4126 -0.0019  0.1575
 3361W        W 6880   5.830   0.207  11.636 -0.0715  0.3502  0.2038
 3362W        W 6881   1.919   4.657   1.264  0.2136 -0.0522 -0.1131
 3363W        W 6882   7.154   4.295  10.755  0.0032  0.0543 -0.0349
 3364W        W 6883   5.363   8.584  12.299  0.2090  0.1372  0.0994
 3365W        W 6884   0.206   9.280  11.616  0.1682  0.1771 -0.1389
 3366W        W 6885   4.439   6.757  10.463 -0.0678 -0.1678 -0.3825
 3367W        W 6886   4.533   3.898   9.241 -0.0963  0.0563 -0.1062
 3368W        W 6887   1.000   0.872   3.284 -0.2222 -0.1009  0.3532
 3369W        W 6888   2.177   4.770   0.807  0.0092 -0.1383  0.0209
 3370W        W 6889   9.386   5.954   8.341 -0.1179  0.4335 -0.2738
 3371W        W 6890   3.622   5.859   0.512  0.0390 -0.2370 -0.0254
 3372W        W 6891   8.792   1.769  10.758 -0.0710  0.1351 -0.0056
 3373W        W 6892   5.650   8.908   9.187 -0.2601 -0.2312  0.0511
 3374W        W 6893   1.071   6.599   2.135 -0.2285  0.0335  0.1244
 3375W        W 6894   3.338   3.361   4.435  0.1372 -0.1665  0.0859
 3376W        W 6895   8.178   2.344  11.392  0.2610 -0.1460  0.1218
 3377W        W 6896   2.579   1.163   3.197 -0.1853  0.2947 -0.0679
 3378W        W 6897   5.639   8.811   8.670  0.0496  0.1036 -0.0239
 3379W        W 6898   9.300   4.225   9.237  0.3795  0.2396  0.2460
 3380W        W 6899   5.380   7.906   0.599  0.0314 -0.1956  0.0284
 3381W        W 6900   1.603   5.375   0.201  0.0622 -0.1775 -0.1374
 3382W        W 6901   2.418   2.660   0.207  0.4102 -0.0112  0.0112
 3383W        W 6902   5.690   2.866   8.521 -0.0083  0.0959  0.1095
 3384W        W 6903   1.378   7.768  11.724 -0.3284  0.0800  0.1166
 3385W        W 6904   1.021   1.688   2.015 -0.1000 -0.1243 -0.1562
 3386W        W 6905   6.430   8.751  11.017 -0.0447  0.0586  0.0481
 3387W        W 6906   8.333   6.422   2.403 -0.2632 -0.1020  0.0734
 3388W        W 6907   5.221   9.408   4.065  0.0663 -0.0729 -0.3836
 3389W        W 6908   3.417   5.850  10.648 -0.0986  0.0373  0.0254
 3390W        W 6909   7.984   8.392   2.200 -0.1519  0.2218 -0.1488
 3391W        W 6910   3.124   0.747   0.480  0.0591  0.0613 -0.4497
 3392W        W 6911   2.924   0.674   2.894  0.0787 -0.0801  0.1714
 3393W        W 6912   1.347   8.431   8.203  0.1277 -0.1680  0.2897
 3394W        W 6913   9.715   2.263   1.868  0.0371 -0.0871 -0.0325
 3395W        W 6914   0.476   5.786   9.309 -0.2780 -0.1094  0.0968
 3396W        W 6915   8.470   7.324   2.027 -0.1906  0.0965  0.2681
 3397W        W 6916   1.088   0.105   8.256  0.0769 -0.0879  0.1826
 3398W        W 6917   2.321   5.707   0.279 -0.0050  0.1821 -0.1596
 3399W        W 6918   1.936   5.182   4.896 -0.3103  0.0441 -0.0888
 3400W        W 6919   2.459   8.524   2.849 -0.0315  0.1307  0.2708
 3401W        W 6920   4.866   5.228  11.427 -0.1116  0.0613  0.2977
 3402W        W 6921   1.650   5.220   1.539  0.1374 -0.0498 -0.2794
 3403W        W 6922   5.008   2.518   9.726 -0.0734 -0.2576  0.1076
 3404W        W 6923   0.956   4.332  11.476  0.2188  0.0110  0.0756
 3405W        W 6924   7.696   3.171  10.119  0.0842 -0.0507 -0.2215
 3406W        W 6925   4.132   1.520  10.864  0.2305 -0.2718  0.1117
 3407W        W 6926   3.344   9.414   9.621  0.0488  0.1567  0.0186
 3408W        W 6927   1.475   0.575   2.618 -0.0200 -0.4092 -0.1234
 3409W        W 6928   7.279   8.372  10.395 -0.2402  0.0458 -0.0249
 3410W        W 6929   3.395   9.445   1.864 -0.2168  0.0685  0.1879
 3411W        W 6930   2.482   4.648   2.453 -0.1518 -0.2775 -0.2798
 3412W        W 6931   5.133   4.168   0.615  0.2667 -0.2876 -0.0255
 3413W        W 6932   7.168   7.495  11.448 -0.2477 -0.1334 -0.0865
 3414W        W 6933   0.369   9.646   9.236  0.0664  0.1016 -0.0279
 3415W        W 6934   5.655   7.818   2.582 -0.2160  0.2616 -0.2715
 3416W        W 6935   8.338   0.431   0.698  0.1052  0.2263  0.0271
 3417W        W 6936   6.212   5.269   4.605 -0.0169  0.0519 -0.0272
 3418W        W 6937   3.036   0.958   9.982 -0.0438 -0.5595  0.5865
 3419W        W 6938   9.629   6.153   1.565 -0.0922 -0.1797  0.2568
 3420W        W 6939   2.354   4.443  10.229 -0.4657  0.1602 -0.1475
 3421W        W 6940   3.148   5.276   9.319  0.0253 -0.1403 -0.2476
 3422W        W 6941   8.964   3.300  11.107  0.2065 -0.0570 -0.1006
 3423W        W 6942   5.303   7.349  11.341 -0.0201 -0.2568 -0.0425
 3424W        W 6943   0.440   1.914   2.838  0.3914  0.0047  0.1007
 3425W        W 6944   2.135   2.898   9.489  0.2419  0.0086  0.1010
 3426W        W 6945   3.337   4.040  10.013  0.0207 -0.1908 -0.1430
 3427W        W 6946   0.158   7.660   1.158  0.0339 -0.2128  0.1425
 3428W        W 6947   8.419   7.029   2.506  0.1981  0.1808  0.0298
 3429W        W 6948   3.655   8.588   8.466 -0.2152  0.1206 -0.2376
 3430W        W 6949   8.372   9.689   2.544  0.1120  0.0125 -0.1136
 3431W        W 6950   7.194   6.500   2.080 -0.3951  0.0948  0.0438
 3432W        W 6951   0.312   7.910   2.271  0.0570 -0.0316  0.0986
 3433W        W 6952   0.542   9.471   3.269  0.0990  0.1439  0.1817
 3434W        W 6953   2.579   0.775   9.339 -0.1980 -0.0495  0.0673
 3435W        W 6954   0.574   6.572   3.086  0.0127 -0.0773  0.0975
 3436W        W 6955   0.347   0.777   8.567  0.0845 -0.3730 -0.0511
 3437W        W 6956   4.063   1.233   2.901 -0.2543  0.0340  0.2101
 3438W        W 6957   7.403   6.951   8.307 -0.1930 -0.2173 -0.0392
 3439W        W 6958   6.706   8.090   2.541  0.0568 -0.0566  0.2248
 3440W        W 6959   7.332   2.557   1.220 -0.0345  0.0544 -0.1346
 3441W        W 6960   9.139   0.681   3.387  0.1140  0.2018  0.1054
 3442W        W 6961   3.220   5.277   2.368 -0.2005 -0.3581  0.0506
 3443W        W 6962   0.813   6.975   3.882  0.2868  0.2646  0.0241
 3444W        W 6963   4.873   0.220  12.117  0.1091  0.4100 -0.1021
 3445W        W 6964   2.645   5.427  11.088 -0.1362 -0.0965  0.0566
 3446W        W 6965   2.633   7.851   1.587 -0.0765  0.0958 -0.0584
 3447W        W 6966   3.276   4.948   3.391  0.1678 -0.1498 -0.1319
 3448W        W 6967   3.581   4.876  10.594  0.0256  0.3918 -0.0337
 3449W        W 6968   6.257   8.868   1.172 -0.2278 -0.0852  0.1794
 3450W        W 6969   2.997   6.341   2.358 -0.0474 -0.0354  0.2077
 3451W        W 6970   6.128   5.001  11.840 -0.1596 -0.1361  0.0756
 3452W        W 6971   2.443   8.237  10.792  0.0623  0.2141  0.5252
 3453W        W 6972   7.959   4.514  11.241 -0.2134  0.1332 -0.1856
 3454W        W 6973   6.769   7.510  11.201  0.0539 -0.1253 -0.0298
 3455W        W 6974   7.889   5.926  11.602  0.0116  0.3388 -0.0854
 3456W        W 6975   1.877   2.597  11.248  0.0364  0.1350 -0.1571
 3457W        W 6976   3.232   6.443   9.514 -0.1660 -0.4456  0.1784
 3458W        W 6977   5.042   3.227   2.551 -0.2312  0.1207 -0.1711
 3459W        W 6978   4.120   8.101   0.320 -0.1253 -0.0837  0.2762
 3460W        W 6979   4.629   1.895  10.327 -0.0485 -0.0834 -0.0408
 3461W        W 6980   7.187   3.742   2.367  0.2559 -0.1357  0.2690
 3462W        W 6981   6.085   7.432   5.039 -0.0254  0.0724  0.0625
 3463W        W 6982   0.389   9.288   0.064 -0.1351 -0.0278  0.2265
 3464W        W 6983   6.162   3.563   0.320 -0.2182  0.0326 -0.3774
 3465W        W 6984   0.900   7.569  11.956  0.1040  0.0341  0.0733
 3466W        W 6985   2.241   9.033   2.437 -0.3381  0.4431 -0.0872
 3467W        W 6986   2.272   9.539   2.869  0.2459 -0.1199 -0.2003
 3468W        W 6987   5.516   9.077   3.161  0.2559  0.1560  0.0404
 3469W        W 6988   4.901   5.851  10.893 -0.3218  0.1202 -0.0633
 3470W        W 6989   9.335   7.641  11.104 -0.0949  0.2694 -0.2388
 3471W        W 6990   3.122   8.756  11.070  0.1091 -0.2421  0.1678
 3472W        W 6991   3.478   1.075   9.760  0.0970  0.0747 -0.1667
 3473W        W 6992   4.376   2.007   3.675  0.1932 -0.0179 -0.2924
 3474W        W 6993   7.444   7.297   0.429  0.0058  0.2586 -0.1518
 3475W        W 6994   3.886   7.390  12.203 -0.1675  0.1452  0.1817
 3476W        W 6995   6.756   3.798   1.630 -0.0480 -0.2996 -0.0296
 3477W        W 6996   3.116   5.051  10.350 -0.0110  0.3286  0.4364
 3478W        W 6997   3.994   8.911  10.828 -0.0352 -0.0062  0.2046
 3479W        W 6998   3.361   1.321   1.497 -0.0498  0.2433  0.1026
 3480W        W 6999   8.395   3.535   3.769 -0.2822  0.0710  0.1738
 3481W        W 7000   8.186   5.977   4.165  0.2116  0.2092  0.0067
 3482W        W 7001   3.545   3.682  10.325  0.0001  0.4444 -0.0153
 3483W        W 7002   0.695   3.689  11.390  0.2236  0.2171  0.0416
 3484W        W 7003   4.066   4.866   3.176 -0.1830  0.2803  0.0350
 3485W        W 7004   0.856   6.883   3.373 -0.1386  0.0020 -0.0947
 3486W        W 7005   9.310   9.154  10.767 -0.0337 -0.0334  0.3764
 3487W        W 7006   6.592   1.864   3.089 -0.2510  0.2835 -0.0155
 3488W        W 7007   8.623   5.705  11.051  0.1836  0.0117  0.1074
 3489W        W 7008   5.333   3.120   1.145 -0.2085  0.0950 -0.1439
 3490W        W 7009   6.305   4.113   4.021  0.0394  0.2350  0.2219
 3491W        W 7010   5.924   9.378  10.613 -0.4964  0.0714  0.1907
 3492W        W 7011   9.340   8.511   1.088  0.0922  0.2586 -0.1568
 3493W        W 7012   2.918   9.700   9.556 -0.0003  0.2537  0.3827
 3494W        W 7013   8.115   3.349   1.653 -0.0326 -0.3955 -0.1772
 3495W        W 7014   2.452   3.414   3.860 -0.0051 -0.1704 -0.2554
 3496W        W 7015   8.046   6.013   1.842  0.2254 -0.1259 -0.0468
 3497W        W 7016   2.294   2.370   1.998  0.0805  0.0154 -0.1465
 3498W        W 7017   3.680   0.837   2.868 -0.1237 -0.2047 -0.2096
 3499W        W 7018   1.082   8.681   2.995 -0.0881  0.0370  0.3948
 3500W        W 7019   3.691   8.715   0.732 -0.6266  0.0057  0.0320
 3501W        W 7020   9.623   2.934   9.809  0.0767 -0.0775 -0.1591
 3502W        W 7021   8.259   6.437   3.814  0.0597  0.0532  0.0664
 3503W        W 7022   7.633   7.395   8.851 -0.0965  0.0792  0.1495
 3504W        W 7023   1.898   8.588  11.389 -0.3736 -0.0709 -0.1225
 3505W        W 7024   4.818   1.196   9.543 -0.1568 -0.2432  0.1008
 3506W        W 7025   4.139   3.178   4.379 -0.3800 -0.4150  0.1678
 3507W        W 7026   5.398   8.717   2.557  0.0513 -0.2762 -0.2076
 3508W        W 7027   6.399   5.738  10.297  0.4426 -0.0129 -0.4253
 3509W        W 7028   1.878   6.900   2.183  0.0377  0.3143  0.2471
 3510W        W 7029   4.760   3.035  10.737  0.2942 -0.0982  0.0115
 3511W        W 7030   5.524   5.209   0.587 -0.1090  0.1229  0.0560
 3512W        W 7031   6.440   6.370   0.161  0.1894  0.0076 -0.0160
 3513W        W 7032   1.371   0.647   9.195 -0.0125  0.1728  0.3668
 3514W        W 7033   0.574   4.911   2.147  0.0200 -0.2621 -0.1377
 3515W        W 7034   5.304   7.881  11.603  0.1298  0.1358 -0.0189
 3516W        W 7035   3.283   7.957   2.812 -0.0971  0.0811 -0.0562
 3517W        W 7036   0.604   3.163  10.861  0.1205  0.3324 -0.0468
 3518W        W 7037   1.334   6.323  10.083  0.2579  0.2337 -0.0601
 3519W        W 7038   2.673   8.789   0.614 -0.1486  0.0184 -0.1346
 3520W        W 7039   5.086   0.881  12.306  0.0699  0.2773 -0.1666
 3521W        W 7040   0.370   1.024   1.692  0.0466 -0.2977  0.0900
 3522W        W 7041   2.785   8.288   3.339  0.3516 -0.1524  0.0656
 3523W        W 7042   5.321   2.615   1.839 -0.0415  0.1533 -0.3303
 3524W        W 7043   9.405   2.415   0.204  0.1081  0.0272  0.0133
 3525W        W 7044   3.930   3.405   1.361 -0.3935  0.0797  0.1002
 3526W        W 7045   7.602   6.050  10.743  0.1792  0.0163 -0.1691
 3527W        W 7046   5.236   7.739   2.970  0.4809 -0.0132  0.1629
 3528W        W 7047   5.512   0.656   0.842  0.2972  0.3028 -0.0052
 3529W        W 7048   1.194   3.083   0.907 -0.0046  0.0042  0.2221
 3530W        W 7049   7.369   2.414   2.131 -0.0645  0.2415 -0.1628
 3531W        W 7050   1.063   1.159   1.903 -0.2046  0.0415 -0.2324
 3532W        W 7051   4.794   7.746   3.339 -0.1238  0.0195  0.0511
 3533W        W 7052   9.091   4.865   4.280 -0.4619  0.0617  0.0746
 3534W        W 7053   9.560   6.642   2.653 -0.0558  0.0596 -0.0975
 3535W        W 7054   0.130   4.020   0.358 -0.0180 -0.2106 -0.0380
 3536W        W 7055   0.916   1.463   1.535 -0.2175  0.2073 -0.0631
 3537W        W 7056   5.139   7.028   0.828  0.1680 -0.0519  0.3526
 3538W        W 7057   0.205   7.920   9.070  0.0241 -0.1139 -0.2365
 3539W        W 7058   3.160   1.064   8.377  0.3029 -0.0906 -0.0951
 3540W        W 7059   7.388   8.220   1.784 -0.3473  0.5508 -0.1008
 3541W        W 7060   1.883   6.585  12.109  0.2154  0.0291  0.2560
 3542W        W 7061   2.710   2.053   1.752 -0.2771  0.0912  0.0160
 3543W        W 7062   4.475   5.041   1.153  0.2451 -0.0164 -0.2654
 3544W        W 7063   0.627   9.106   0.762 -0.0134 -0.1461 -0.0092
 3545W        W 7064   4.888   4.407   9.737  0.0430 -0.1502  0.0013
 3546W        W 7065   3.040   3.084   1.968  0.1352 -0.1755 -0.5132
 3547W        W 7066   2.098   0.470  12.103 -0.5155  0.0908  0.0399
 3548W        W 7067   2.209   4.134   3.139 -0.0262 -0.0315 -0.0629
 3549W        W 7068   5.858   3.385   1.498 -0.3252 -0.0629  0.0162
 3550W        W 7069   8.049   3.237   3.589  0.0603  0.4896 -0.2386
 3551W        W 7070   0.177   1.161  12.470 -0.1469 -0.1347 -0.1087
 3552W        W 7071   0.778   1.383  12.248  0.0938 -0.0440 -0.1275
 3553W        W 7072   9.252   3.585   1.529 -0.1201 -0.1595 -0.3688
 3554W        W 7073   0.461   3.048   3.442 -0.2114 -0.1878 -0.0995
 3555W        W 7074   4.735   7.271   1.166  0.1419  0.1733  0.0402
 3556W        W 7075   3.603   2.084   2.560  0.0680 -0.0423  0.2153
 3557W        W 7076   3.586   5.866   3.079 -0.2501 -0.1640  0.1483
 3558W        W 7077   6.422   6.020  11.737  0.0671  0.0603 -0.2076
 3559W        W 7078   7.870   6.357  11.032  0.2332 -0.3973  0.2280
 3560W        W 7079   3.134   3.327  12.193  0.0330  0.0566  0.0382
 3561W        W 7080   0.738   0.439   3.372  0.0906 -0.0719  0.1414
 3562W        W 7081   2.553   5.222   1.169 -0.1949  0.0787  0.0410
 3563W        W 7082   0.662   9.428  11.721 -0.4906  0.0033 -0.0694
 3564W        W 7083   1.654   2.052   0.048 -0.3278  0.0575  0.3092
 3565W        W 7084   5.847   5.106  10.819 -0.2642 -0.0776  0.2555
 3566W        W 7085   3.272   0.606  11.984  0.0814 -0.1525 -0.0054
 3567W        W 7086   7.596   3.933   4.228  0.1339  0.2813  0.0926
 3568W        W 7087   8.235   2.815   3.744  0.1758 -0.0797  0.1472
 3569W        W 7088   0.340   2.635   1.611  0.1272 -0.1533 -0.2816
 3570W        W 7089   1.137   0.404   4.531  0.1503 -0.0734  0.1181
 3571W        W 7090   7.910   7.937  11.329  0.0549  0.4252  0.2636
 3572W        W 7091   1.563   3.700   4.759  0.0436 -0.1065 -0.1127
 3573W        W 7092   4.255   3.606   7.983 -0.0598 -0.2426 -0.2422
 3574W        W 7093   0.265   6.464   0.585  0.2210 -0.1258 -0.1221
 3575W        W 7094   0.199   0.517   1.878 -0.2006  0.0114  0.0796
 3576W        W 7095   2.294   7.489   3.800  0.1737 -0.1194  0.0932
 3577W        W 7096   4.842   1.306   2.047  0.0535 -0.0031 -0.2173
 3578W        W 7097   4.042   0.954   9.576  0.3007 -0.2145 -0.1591
 3579W        W 7098   2.057   7.166  10.884 -0.1620  0.0366 -0.1797
 3580W        W 7099   3.716   5.812  12.293 -0.0857  0.1109  0.0832
 3581W        W 7100   4.564   9.262   3.552  0.0472  0.1451 -0.2030
 3582W        W 7101   6.607   6.050   1.389 -0.1202 -0.2127 -0.2226
 3583W        W 7102   8.317   7.167   9.374 -0.0777 -0.2265 -0.0931
 3584W        W 7103   4.772   8.512   8.130 -0.3743 -0.1939  0.0275
 3585W        W 7104   0.225   5.474   8.942 -0.0136 -0.2099  0.3083
 3586W        W 7105   2.403   3.341   3.244  0.0064  0.3702  0.1091
 3587W        W 7106   7.516   6.028   5.445 -0.1611  0.1674 -0.0573
 3588W        W 7107   2.217   1.679  12.345 -0.2047  0.0011 -0.1738
 3589W        W 7108   3.655   8.901   1.814 -0.2123  0.0635  0.1054
 3590W        W 7109   6.751   6.734   7.818 -0.4123 -0.1959  0.4116
 3591W        W 7110   7.895   7.065   9.163  0.0439 -0.0051 -0.1478
 3592W        W 7111   2.291   3.152   8.636  0.3921 -0.2568 -0.0510
 3593W        W 7112   5.813   8.823   3.465 -0.0353  0.0313 -0.1008
 3594W        W 7113   4.768   1.982   2.635  0.0165  0.0403 -0.2100
 3595W        W 7114   6.088   9.671   8.690  0.0784 -0.2222 -0.1001
 3596W        W 7115   4.731   2.544  10.884  0.1039  0.2485  0.3408
 3597W        W 7116   5.361   1.968  12.200  0.1517  0.2265 -0.0666
 3598W        W 7117   3.640   7.955  11.179  0.2590 -0.0381  0.1324
 3599W        W 7118   3.847   0.323  11.562  0.1044 -0.1934  0.2680
 3600W        W 7119   4.360   6.422  11.897 -0.3252 -0.0066 -0.1039
 3601W        W 7120   0.117   8.516   9.592 -0.2225  0.0593  0.0511
 3602W        W 7121   6.646   4.398   0.511 -0.2766 -0.0176  0.3548
 3603W        W 7122   5.027   6.681  11.400 -0.0709 -0.1828  0.0767
 3604W        W 7123   2.537   3.104   9.248 -0.3152 -0.0783 -0.0693
 3605W        W 7124   7.204   1.618   9.662 -0.0892  0.0061 -0.0949
 3606W        W 7125   3.872   4.389  12.122  0.1971  0.0801  0.1593
 3607W        W 7126   6.247   1.533   9.352 -0.0382  0.0183  0.2308
 3608W        W 7127   6.239   5.343  10.919  0.1942  0.0419 -0.0205
 3609W        W 7128   7.218   1.378  10.698 -0.1917 -0.0602 -0.0849
 3610W        W 7129   6.417   6.715   2.162 -0.1424 -0.1469  0.0229
 3611W        W 7130   8.096   0.295   1.139  0.3299 -0.1531  0.1132
 3612W        W 7131   7.514   1.672  10.987 -0.0505 -0.0942  0.1631
 3613W        W 7132   8.167   5.256   9.899 -0.0178  0.0668 -0.0163
 3614W        W 7133   9.392   0.204  11.105 -0.0325  0.0069  0.0053
 3615W        W 7134   6.119   6.826   3.111  0.3639  0.0591 -0.2995
 3616W        W 7135   3.071   3.285   3.952  0.1171  0.0706  0.0295
 3617W        W 7136   5.703   2.163  11.342 -0.1576 -0.1224  0.0103
 3618W        W 7137   0.049   2.600   3.392  0.0382  0.0769  0.1658
 3619W        W 7138   5.361   0.190   0.837  0.0480 -0.2212 -0.1552
 3620W        W 7139   5.545   0.973   1.972 -0.3470 -0.2589  0.0847
 3621W        W 7140   3.778   7.910   2.742 -0.0668 -0.0993  0.1326
 3622W        W 7141   2.875   9.117  11.348  0.1661  0.0186  0.2366
 3623W        W 7142   5.350   7.533   3.416 -0.1797  0.1549  0.1055
 3624W        W 7143   4.129   4.048  11.945  0.1767  0.1055  0.1091
 3625W        W 7144   8.546   7.744   1.621 -0.0875  0.0197 -0.0564
 3626W        W 7145   0.554   7.222   3.095  0.1482  0.1423 -0.1010
 3627W        W 7146   5.621   5.923  10.514  0.1379  0.0714  0.2525
 3628W        W 7147   3.979   8.755  11.843  0.0474  0.1415  0.0614
 3629W        W 7148   3.085   6.581   9.025 -0.1179  0.2282  0.0793
 3630W        W 7149   7.904   5.442   1.006 -0.1760  0.0048  0.8542
 3631W        W 7150   7.034   8.610   8.706 -0.1137 -0.2614 -0.1082
 3632W        W 7151   9.406   7.974   4.017 -0.1831  0.0572 -0.1229
 3633W        W 7152   6.093   8.628   9.539  0.0566 -0.0921  0.5750
 3634W        W 7153   1.564   3.980   2.211 -0.2289 -0.3898 -0.0864
 3635W        W 7154   6.415   5.411   2.079 -0.0355  0.0389 -0.1692
 3636W        W 7155   7.694   8.112   0.612 -0.1634 -0.0864 -0.3263
 3637W        W 7156   6.923   3.517   9.001 -0.1042  0.0610 -0.1496
 3638W        W 7157   0.622   0.312   1.671 -0.1056 -0.1106  0.0629
 3639W        W 7158   1.554   3.360   2.978  0.0333  0.0458 -0.0802
 3640W        W 7159   2.522   2.531   3.976 -0.1316  0.3864  0.0274
 3641W        W 7160   1.448   2.490  11.047  0.2779 -0.2876  0.1170
 3642W        W 7161   2.449   8.027   8.461 -0.2814 -0.1485 -0.0519
 3643W        W 7162   6.181   0.253   3.101 -0.0015 -0.0531 -0.3652
 3644W        W 7163   8.950   4.196   0.067 -0.1038  0.0860 -0.1151
 3645W        W 7164   5.596   2.751   0.350  0.1091 -0.0100  0.0669
 3646W        W 7165   5.351   0.791   1.459  0.0226  0.1089 -0.1446
 3647W        W 7166   1.013   4.169   0.920 -0.3615 -0.1332 -0.0614
 3648W        W 7167   4.099   6.091  11.490  0.0132 -0.2564  0.2171
 3649W        W 7168   0.254   4.428   8.886 -0.1893 -0.0395  0.0666
 3650W        W 7169   2.429   1.385   1.972 -0.4209  0.0630 -0.0624
 3651W        W 7170   0.076   9.226  10.642  0.1205  0.2417  0.2803
 3652W        W 7171   8.977   7.262   9.132  0.0320  0.0880  0.1123
 3653W        W 7172   9.202   4.785   1.027 -0.2343  0.2944 -0.2825
 3654W        W 7173   7.227   2.701   2.585  0.1498 -0.1305  0.2933
 3655W        W 7174   3.890   5.042   0.001  0.0092 -0.0350 -0.1218
 3656W        W 7175   6.719   2.286  10.517  0.0630 -0.0750 -0.0002
 3657W        W 7176   1.469   1.367   3.611  0.1110 -0.0282  0.1025
 3658W        W 7177   1.684   3.979  11.646  0.1439 -0.0838 -0.0254
 3659W        W 7178   4.195   5.213   0.768 -0.1256  0.1194 -0.0392
 3660W        W 7179   1.143   5.702   2.801 -0.1439  0.0328 -0.1913
 3661W        W 7180   6.070   5.040   2.179 -0.0702  0.0047 -0.1994
 3662W        W 7181   0.329   3.374  11.660  0.1683  0.0590 -0.0477
 3663W        W 7182   3.644   8.346  11.928  0.0622  0.0539 -0.0614
 3664W        W 7183   5.619   1.843   2.913 -0.2934 -0.0029  0.1614
 3665W        W 7184   4.332   6.214   1.425  0.2129 -0.0437 -0.0492
 3666W        W 7185   3.572   2.968   0.796  0.0830 -0.1752  0.1484
 3667W        W 7186   1.534   7.590   8.956 -0.1127  0.2652  0.0150
 3668W        W 7187   6.397   4.340  11.737  0.1519  0.1726 -0.1268
 3669W        W 7188   1.138   6.151   2.436  0.0623  0.1593  0.0220
 3670W        W 7189   5.066   5.341  12.257  0.3943 -0.0174 -0.0948
 3671W        W 7190   8.624   3.196   1.528  0.0846 -0.2299 -0.2207
 3672W        W 7191   6.269   1.591   0.892 -0.0818  0.0335  0.0871
 3673W        W 7192   4.673   5.506  10.547 -0.1752 -0.1551 -0.0184
 3674W        W 7193   9.040   1.235  10.232 -0.2713  0.1426 -0.4434
 3675W        W 7194   6.462   8.635   2.168 -0.0832  0.2014 -0.1803
 3676W        W 7195   3.865   9.215   0.125  0.0423  0.1314 -0.0639
 3677W        W 7196   5.541   3.581   3.507 -0.0306  0.2092  0.1552
 3678W        W 7197   2.291   4.793   2.062  0.3425 -0.2387  0.0678
 3679W        W 7198   3.121   7.294   4.602  0.3123 -0.0258  0.2041
 3680W        W 7199   0.155   4.385   3.814  0.0068 -0.3114  0.1276
 3681W        W 7200   6.827   4.384  11.473  0.0026  0.0368 -0.0007
 3682W        W 7201   8.244   5.844   8.625 -0.0199  0.1727  0.1608
 3683W        W 7202   1.713   1.116   1.580  0.0116 -0.1888  0.0309
 3684W        W 7203   3.843   5.783   9.003  0.0679 -0.1962  0.1312
 3685W        W 7204   2.312   7.003   2.419 -0.3192 -0.1779 -0.1999
 3686W        W 7205   1.084   7.614   1.300  0.2418  0.1285  0.1052
 3687W        W 7206   6.265   7.154   3.530 -0.0428  0.0152 -0.3846
 3688W        W 7207   7.152   1.667   2.504 -0.1949  0.0877 -0.1723
 3689W        W 7208   5.464   5.678   9.118 -0.0678  0.1534  0.0339
 3690W        W 7209   4.115   5.219   2.008 -0.0084  0.2243  0.1275
 3691W        W 7210   5.640   9.248  11.143  0.1318 -0.1327  0.1440
 3692W        W 7211   6.335   3.225   9.701  0.0265  0.2407 -0.0006
 3693W        W 7212   9.371   7.349  10.653  0.3464 -0.0096 -0.4297
 3694W        W 7213   3.974   6.118   0.209 -0.0788 -0.0394  0.0924
 3695W        W 7214   1.005   7.453   3.928 -0.2037  0.1401 -0.2249
 3696W        W 7215   8.860   6.375  12.133  0.1963 -0.0619  0.2788
 3697W        W 7216   7.292   4.040   9.819 -0.2009  0.2054  0.1992
 3698W        W 7217   9.621   1.920   4.007  0.1700  0.1786  0.0503
 3699W        W 7218   7.396   7.187  10.034  0.3970 -0.2927  0.0065
 3700W        W 7219   4.879   2.289   4.335 -0.0176  0.0341 -0.2550
 3701W        W 7220   1.588   1.104  10.618 -0.0504  0.0162  0.3063
 3702W        W 7221   3.569   6.540   0.289 -0.1163  0.0100 -0.3083
 3703W        W 7222   9.072   3.462  11.585 -0.1127  0.0998  0.2194
 3704W        W 7223   8.629   4.583   0.885 -0.2090  0.2105 -0.3260
 3705W        W 7224   9.138   2.504  10.470  0.1518  0.2465  0.2980
 3706W        W 7225   1.464   1.462   1.139  0.0555  0.0480  0.1883
 3707W        W 7226   8.850   5.641   1.558 -0.2371 -0.0280  0.1732
 3708W        W 7227   4.492   4.894   0.467  0.3267  0.1251  0.1002
 3709W        W 7228   3.949   9.371  10.081 -0.0926  0.0312 -0.1230
 3710W        W 7229   5.847   3.429  12.501 -0.0412 -0.2936  0.0307
 3711W        W 7230   8.427   1.915  11.815 -0.4077  0.2487  0.3978
 3712W        W 7231   5.857   3.699  11.529  0.0121  0.1084 -0.1406
 3713W        W 7232   3.676   3.613  12.104  0.2218  0.1995 -0.0278
 3714W        W 7233   3.495   6.543   1.699  0.3356 -0.2777  0.3179
 3715W        W 7234   8.408   3.708  11.100 -0.0037 -0.0331 -0.0248
 3716W        W 7235   4.676   6.804   1.004 -0.1098 -0.2696  0.1723
 3717W        W 7236   3.240   6.343  10.111  0.0657  0.1019  0.0391
 3718W        W 7237   6.290   1.475   1.943  0.0133 -0.2355 -0.2319
 3719W        W 7238   9.415   0.128  12.102 -0.1557  0.0609 -0.1283
 3720W        W 7239   4.919   9.518   9.975 -0.1495 -0.2397 -0.2931
 3721W        W 7240   9.357   9.205  11.643 -0.1872 -0.0435  0.1918
 3722W        W 7241   6.136   3.910  11.880  0.0968 -0.0338 -0.0913
 3723W        W 7242   9.655   5.223  10.944  0.3089 -0.1373 -0.2222
 3724W        W 7243   0.681   7.790  11.204 -0.0264  0.1394  0.1608
 3725W        W 7244   5.148   6.547   2.283  0.0881  0.2736 -0.1111
 3726W        W 7245   6.776   0.718  12.513  0.1578 -0.3251 -0.0874
 3727W        W 7246   7.956   7.981   2.866 -0.0268 -0.1029 -0.3548
 3728W        W 7247   2.503   3.558   0.735 -0.1118 -0.0462  0.0772
 3729W        W 7248   3.248   7.245  11.416  0.0391 -0.0671  0.2681
 3730W        W 7249   3.157   7.205   3.691 -0.0324 -0.1045 -0.1384
 3731W        W 7250   9.670   4.888   0.999  0.0093 -0.3101 -0.1337
 3732W        W 7251   1.602   6.730   4.166  0.2567  0.1173 -0.3098
 3733W        W 7252   9.067   3.478   2.369 -0.2425  0.2276  0.1396
 3734W        W 7253   0.981   0.852  11.209 -0.4873  0.3420 -0.1166
 3735W        W 7254   2.375   8.311   4.615 -0.3234 -0.1198  0.0801
 3736W        W 7255   0.551   6.726   9.077 -0.1429  0.0029 -0.3002
 3737W        W 7256   5.608   4.412   0.505  0.2588  0.0672 -0.0801
 3738W        W 7257   8.676   9.617   0.500 -0.0180  0.1489 -0.0669
 3739W        W 7258   1.494   7.338   9.431  0.0753 -0.0908  0.0973
 3740W        W 7259   4.117   4.594   2.274  0.1068  0.0029 -0.0771
 3741W        W 7260   3.447   8.069   1.026  0.0200  0.2054 -0.0223
 3742W        W 7261   3.711   8.633   4.052 -0.4389 -0.0516 -0.1347
 3743W        W 7262   4.963   4.005   4.759  0.0895 -0.1942 -0.1958
 3744W        W 7263   7.100   3.346   0.864  0.0837 -0.0259  0.2632
 3745W        W 7264   9.714   5.290   3.332 -0.2813  0.0385  0.2221
 3746W        W 7265   7.299   6.380   9.496 -0.2339  0.0118 -0.1045
 3747W        W 7266   5.259   3.838  10.491  0.0232  0.0526 -0.0700
 3748W        W 7267   8.043   5.409  10.400 -0.1648  0.1255  0.1009
 3749W        W 7268   5.348   6.718   8.362  0.1403 -0.2721  0.1028
 3750W        W 7269   5.961   4.303   2.811  0.0159 -0.2461 -0.3872
 3751W        W 7270   5.601   0.134   9.532  0.1485 -0.0778  0.1081
 3752W        W 7271   8.967   5.720   3.798 -0.0234  0.1244 -0.0357
 3753W        W 7272   6.987   2.312   0.171 -0.1170 -0.4363 -0.1411
 3754W        W 7273   8.647   8.055   0.619 -0.1662  0.1184  0.1884
 3755W        W 7274   8.754   8.979   2.323 -0.0405 -0.1060  0.0098
 3756W        W 7275   9.323   5.928  10.603 -0.3413 -0.1514  0.1853
 3757W        W 7276   0.222   7.404   0.365  0.1476  0.1579 -0.0219
 3758W        W 7277   0.644   6.242   4.106  0.1983 -0.0224 -0.3803
 3759W        W 7278   6.316   0.722  11.115  0.0660 -0.0110  0.0058
 3760W        W 7279   0.048   2.525  11.286  0.3505  0.0655  0.3470
 3761W        W 7280   7.129   9.256  10.533  0.1552  0.3122  0.0298
 3762W        W 7281   2.930   7.521   1.780 -0.0218 -0.4553 -0.1643
 3763W        W 7282   9.243   2.683   9.637  0.0568 -0.0846  0.1676
 3764W        W 7283   6.482   4.346  10.060 -0.1335 -0.1828  0.3776
 3765W        W 7284   8.030   3.385  10.439  0.0434 -0.3330  0.1049
 3766W        W 7285   6.462   7.423   3.949  0.0654 -0.0515  0.0128
 3767W        W 7286   2.624   7.123   3.956 -0.0464 -0.0691 -0.1872
 3768W        W 7287   1.868   5.289   2.870 -0.2794 -0.0742  0.0545
 3769W        W 7288   3.321   0.241   1.762  0.2310 -0.5325  0.3092
 3770W        W 7289   4.225   7.171  11.401 -0.1890  0.1262 -0.1143
 3771W        W 7290   7.008   5.023   3.145  0.1571 -0.0079 -0.0595
 3772W        W 7291   8.604   9.255   9.602  0.1036 -0.1002 -0.4237
 3773W        W 7292   9.411   4.954  11.772  0.0499  0.0056  0.1953
 3774W        W 7293   1.077   5.895   3.323  0.1062 -0.0533 -0.0391
 3775W        W 7294   8.118   1.629   3.189  0.1574  0.5017  0.1898
 3776W        W 7295   5.547   4.707   2.642  0.4195 -0.3292 -0.0317
 3777W        W 7296   4.098   5.154  10.949  0.0096  0.1958 -0.0238
 3778W        W 7297   5.198   7.003   2.865 -0.0494  0.2900 -0.2913
 3779W        W 7298   1.233   5.398   9.969  0.0042 -0.2278  0.3265
 3780W        W 7299   0.211   2.427  11.851 -0.2157 -0.0094  0.0868
 3781W        W 7300   5.010   4.260  11.464 -0.0520  0.0335 -0.0290
 3782W        W 7301   9.544   3.783   9.446 -0.3159  0.1106 -0.0985
 3783W        W 7302   8.828   9.101  10.501  0.3104  0.3334 -0.1385
 3784W        W 7303   1.025   7.500   3.110  0.0362 -0.0750 -0.0675
 3785W        W 7304   7.118   2.344   9.855 -0.0944  0.3111 -0.0502
 3786W        W 7305   6.105   1.498  10.545  0.1718 -0.1913 -0.3868
 3787W        W 7306   0.306   8.317   0.440  0.1225  0.1111 -0.2883
 3788W        W 7307   6.820   2.891   1.523 -0.1180 -0.2155 -0.1689
 3789W        W 7308   8.346   8.513   3.624 -0.0652 -0.3139 -0.1801
 3790W        W 7309   1.183   7.838  12.245  0.1096 -0.0940  0.0295
 3791W        W 7310   3.013   1.428   8.741 -0.0510  0.0422  0.3074
 3792W        W 7311   7.471   1.117  11.122  0.1533 -0.0514  0.2253
 3793W        W 7312   6.198   6.964   8.499 -0.3825  0.2615  0.2209
 3794W        W 7313   7.293   6.227   4.159 -0.1594  0.3511 -0.0986
 3795W        W 7314   2.148   2.885   1.557  0.2016 -0.0131  0.1944
 3796W        W 7315   3.836   6.253   1.485 -0.1137 -0.0337 -0.1818
 3797W        W 7316   3.218   0.165   2.713  0.1623  0.1291  0.0562
 3798W        W 7317   4.455   5.314  10.107  0.1356  0.1327 -0.0847
 3799W        W 7318   3.515   0.551   0.247 -0.3004 -0.0585  0.0222
 3800W        W 7319   9.279   1.328   0.070  0.3739  0.1269  0.0598
 3801W        W 7320   6.939   0.485  12.081 -0.3388 -0.3283  0.0291
 3802W        W 7321   0.725   1.009   0.023  0.1693 -0.2541  0.0197
 3803W        W 7322   3.805   5.321   9.932  0.2536 -0.0554  0.1242
 3804W        W 7323   1.315   7.511   0.455  0.0648 -0.0067  0.1619
 3805W        W 7324   9.470   6.718  10.137 -0.0773  0.3900  0.0292
 3806W        W 7325   6.774   5.867   0.936  0.0726 -0.0626 -0.0123
 3807W        W 7326   2.718   6.127  11.867 -0.3344 -0.0359 -0.3202
 3808W        W 7327   9.608   3.406   0.447  0.1485  0.2191 -0.2623
 3809W        W 7328   0.765   9.204   9.919  0.3129  0.0338 -0.0562
 3810W        W 7329   3.610   4.751  11.065 -0.1697  0.1498 -0.1491
 3811W        W 7330   5.599   0.054  10.440  0.1757  0.0350 -0.3150
 3812W        W 7331   5.581   7.639   1.710 -0.3518 -0.0391 -0.2003
 3813W        W 7332   9.625   0.758  11.281  0.0128 -0.0894  0.0968
 3814W        W 7333   0.838   7.438  12.460  0.0516  0.3421  0.0080
 3815W        W 7334   5.196   5.105   2.533 -0.1263 -0.0645 -0.1719
 3816W        W 7335   1.260   9.350  10.069 -0.3720  0.3713  0.3259
 3817W        W 7336   7.984   0.967  11.232  0.0227  0.2265 -0.0889
 3818W        W 7337   2.639   0.339   8.162  0.0215 -0.1238 -0.0384
 3819W        W 7338   8.111   7.857   2.379  0.2183  0.1618  0.0089
 3820W        W 7339   6.010   8.095   1.520 -0.1490 -0.1223 -0.3047
 3821W        W 7340   0.596   3.785   0.974 -0.0852 -0.0292 -0.2536
 3822W        W 7341   8.492   2.096  10.964 -0.2152  0.0119 -0.1201
 3823W        W 7342   5.462   4.240  10.181 -0.1143  0.1202 -0.2131
 3824W        W 7343   2.631   4.945  10.125  0.0848 -0.0040 -0.2430
 3825W        W 7344   2.676   0.599   4.323  0.1026  0.0967  0.3865
 3826W        W 7345   4.018   8.917   2.361 -0.0210  0.0337 -0.1578
 3827W        W 7346   6.804   0.484   9.125  0.2661 -0.1608 -0.1697
 3828W        W 7347   9.297   7.321   2.097 -0.2932  0.1409  0.1569
 3829W        W 7348   7.818   7.388   1.376  0.1538  0.1120  0.0224
 3830W        W 7349   0.028   0.616   9.781  0.0793  0.1498 -0.1423
 3831W        W 7350   1.676   0.999   2.375 -0.3110 -0.0082 -0.2281
 3832W        W 7351   1.328   8.299   3.404 -0.1954 -0.0643 -0.1033
 3833W        W 7352   8.980   1.779   1.448  0.0915 -0.3943 -0.1140
 3834W        W 7353   6.218   3.055   3.375  0.0320  0.1740 -0.0827
 3835W        W 7354   5.661   6.238   0.560  0.2754 -0.1517 -0.3187
 3836W        W 7355   5.494   8.344   0.872  0.0389  0.0006  0.0996
 3837W        W 7356   4.890   8.163  10.118  0.3218 -0.1311 -0.1802
 3838W        W 7357   2.005   4.523   3.548 -0.2126  0.2346  0.1244
 3839W        W 7358   7.974   0.686  12.189  0.0321 -0.0078  0.0760
 3840W        W 7359   8.385   4.891   8.359 -0.0834  0.1800  0.1574
 3841W        W 7360   6.838   0.114  10.051  0.0412  0.1552  0.1213
 3842W        W 7361   2.388   0.401   0.816 -0.1884 -0.0736  0.1170
 3843W        W 7362   4.053   9.137   4.138  0.0924  0.2830 -0.0457
 3844W        W 7363   8.241   1.461   9.882 -0.1450  0.0619  0.0414
 3845W        W 7364   0.329   4.850   2.701  0.1449  0.1896  0.1056
 3846W        W 7365   1.383   4.535   8.843  0.3498  0.2266 -0.2353
 3847W        W 7366   3.739   3.227  11.264  0.0561 -0.2328 -0.0329
 3848W        W 7367   1.406   4.023   2.973  0.2594 -0.2884  0.0617
 3849W        W 7368   4.660   7.785   8.967  0.0982 -0.0794  0.1304
 3850W        W 7369   2.668   5.714   3.000  0.1557  0.0830  0.2456
 3851W        W 7370   1.360   8.841   0.816 -0.2676 -0.1290  0.2278
 3852W        W 7371   8.701   0.068  11.757  0.0740 -0.2693 -0.1377
 3853W        W 7372   8.328   6.537  11.047  0.1546  0.3216 -0.0754
 3854W        W 7373   5.110   1.479  10.880  0.0262  0.0669 -0.0319
 3855W        W 7374   4.503   3.997   3.132 -0.0616 -0.1870  0.2364
 3856W        W 7375   8.141   0.914   2.647  0.0749 -0.1322  0.2860
 3857W        W 7376   3.127   6.874   3.177  0.2848 -0.1277  0.0390
 3858W        W 7377   8.801   6.425   1.174 -0.0662 -0.2187 -0.3331
 3859W        W 7378   1.729   6.483  10.637  0.1633  0.2346  0.1229
 3860W        W 7379   3.849   5.822   8.191 -0.1402 -0.0829 -0.1395
 3861W        W 7380   3.960   1.100   2.026 -0.2413 -0.2078 -0.3412
 3862W        W 7381   4.411   3.161  11.023 -0.0919 -0.2720 -0.0020
 3863W        W 7382   9.310   1.654   1.849 -0.1915 -0.2579  0.1147
 3864W        W 7383   2.307   3.505  10.313 -0.2688  0.0458 -0.0933
 3865W        W 7384   4.771   2.221   0.390 -0.0973 -0.2372  0.0118
 3866W        W 7385   1.632   2.357  11.765  0.0131  0.0108  0.1156
 3867W        W 7386   3.164   3.799  12.003 -0.1269 -0.0185  0.1569
 3868W        W 7387   1.150   4.506   3.771  0.0068 -0.2037 -0.0960
 3869W        W 7388   3.744   7.054  11.727 -0.1908  0.2191 -0.0867
 3870W        W 7389   0.036   3.387   3.374 -0.3322  0.2108 -0.0014
 3871W        W 7390   7.000   8.987   1.899  0.1657  0.1035 -0.1232
 3872W        W 7391   6.357   5.495   9.486  0.1446  0.0214 -0.0588
 3873W        W 7392   5.747   4.442   0.008  0.1321  0.0456 -0.2437
 3874W        W 7393   4.159   9.018   0.591  0.1214  0.1939  0.2725
 3875W        W 7394   1.064   0.727   1.011 -0.1049 -0.0316 -0.0810
 3876W        W 7395   1.433   5.298   8.471  0.1978 -0.0523  0.0457
 3877W        W 7396   1.069   3.608   2.962 -0.2697 -0.0172  0.1013
 3878W        W 7397   0.820   7.449   2.544  0.0432  0.1242 -0.2259
 3879W        W 7398   8.126   2.530  12.334  0.0684 -0.1160 -0.0175
 3880W        W 7399   0.523   4.092  11.722 -0.1031  0.4476  0.1219
 3881W        W 7400   8.037   1.886  10.107 -0.2991  0.3695 -0.3489
 3882W        W 7401   7.269   1.141   1.004  0.1231 -0.5513 -0.1874
 3883W        W 7402   7.976   5.320   1.513 -0.0619  0.0941 -0.2938
 3884W        W 7403   6.569   5.046   9.344 -0.1587 -0.0197 -0.0741
 3885W        W 7404   6.718   4.868  12.187  0.2575 -0.3363  0.0824
 3886W        W 7405   1.111   3.135  12.437 -0.1038 -0.0485 -0.2251
 3887W        W 7406   1.048   1.358   0.162 -0.2436 -0.1774  0.1571
 3888W        W 7407   9.121   4.471  11.003 -0.0456 -0.0784  0.2854
 3889W        W 7408   5.557   0.109   8.697 -0.1503  0.1337 -0.3287
 3890W        W 7409   5.826   5.154   2.640  0.0404 -0.1662  0.0090
 3891W        W 7410   4.892   3.915   1.200 -0.0799 -0.2859 -0.0438
 3892W        W 7411   1.691   1.554  12.284  0.4594  0.0712 -0.2251
 3893W        W 7412   4.446   8.855  10.602 -0.2300 -0.1481  0.0448
 3894W        W 7413   1.673   6.543   9.737 -0.2326  0.1648 -0.5514
 3895W        W 7414   5.026   1.965   3.037 -0.0887 -0.1622 -0.2881
 3896W        W 7415   2.786   1.124   9.050 -0.1197 -0.1787 -0.3746
 3897W        W 7416   5.087   0.425   9.530 -0.2149  0.0488 -0.2429
 3898W        W 7417   3.829   5.183   1.153  0.2190 -0.0465 -0.2327
 3899W        W 7418   5.058   7.164   1.608 -0.1279  0.1175 -0.0036
 3900W        W 7419   3.828   7.708  10.681 -0.0847 -0.0691 -0.2973
 3901W        W 7420   7.666   5.067   1.246 -0.1901  0.0719  0.1522
 3902W        W 7421   0.178   4.179   1.037  0.0364 -0.1567  0.1162
 3903W        W 7422   0.390   8.052   8.332  0.2911  0.0724  0.1369
 3904W        W 7423   0.987   6.547  11.587  0.0608 -0.0517  0.2748
 3905W        W 7424   6.190   1.140   2.752 -0.1175 -0.0521 -0.3654
 3906W        W 7425   5.814   6.980   8.902  0.0750 -0.1387 -0.0953
 3907W        W 7426   0.642   5.146   3.762 -0.2723  0.0310  0.2439
 3908W        W 7427   3.383   4.600   1.655  0.3817 -0.1822 -0.4767
 3909W        W 7428   6.850   7.297   4.316  0.0125  0.1170 -0.0459
 3910W        W 7429   6.496   4.560   3.833 -0.0415  0.0278 -0.0444
 3911W        W 7430   1.983   1.180   1.092 -0.2438 -0.1953  0.0013
 3912W        W 7431   5.842   0.053   1.676 -0.0579 -0.2275 -0.3921
 3913W        W 7432   2.729   6.009   9.901  0.2631 -0.0638 -0.0297
 3914W        W 7433   9.229   8.103   0.373 -0.3213  0.1300 -0.0988
 3915W        W 7434   0.771   1.837   3.259  0.1731 -0.1098  0.4312
 3916W        W 7435   4.368   1.350   1.835  0.3260 -0.0610  0.2199
 3917W        W 7436   1.916   5.754   9.617  0.1260  0.2379  0.0725
 3918W        W 7437   7.837   3.617  10.017 -0.1464  0.2791 -0.2349
 3919W        W 7438   6.503   7.033  11.917  0.1538  0.1502 -0.3026
 3920W        W 7439   6.544   2.529   3.908 -0.0383 -0.1579  0.2396
 3921W        W 7440   6.149   6.629  10.679 -0.1347  0.1714  0.2777
 3922W        W 7441   0.726   3.165   3.962  0.1223  0.0411  0.0308
 3923W        W 7442   1.792   5.199   2.087  0.0819 -0.3061  0.0252
 3924W        W 7443   8.151   0.410   2.457  0.1807 -0.1800  0.2326
 3925W        W 7444   0.691   4.676  11.814  0.0777  0.1987  0.1600
 3926W        W 7445   0.904   8.657  11.397 -0.0223 -0.0790 -0.3639
 3927W        W 7446   7.405   7.413   2.797  0.2661  0.0159 -0.1377
 3928W        W 7447   5.089   4.774   8.922  0.0192 -0.3346  0.0340
 3929W        W 7448   9.009   2.329   1.411 -0.1179 -0.0372 -0.3005
 3930W        W 7449   7.967   7.296  10.717 -0.2314  0.0800 -0.0155
 3931W        W 7450   6.597   7.558   0.672  0.2678 -0.2397 -0.0405
 3932W        W 7451   9.505   6.200   8.841  0.1307  0.0335  0.3017
 3933W        W 7452   4.057   3.113   0.886 -0.2569  0.1810 -0.3287
 3934W        W 7453   4.346   2.673   0.997  0.2583  0.3394 -0.0910
 3935W        W 7454   4.738   4.723   3.806 -0.1018 -0.0242  0.0387
 3936W        W 7455   7.266   1.695   1.201  0.0831 -0.1168  0.1602
 3937W        W 7456   6.505   9.205   1.474 -0.1430  0.2036 -0.1865
 3938W        W 7457   3.532   9.455   8.865 -0.2814 -0.0174 -0.1092
 3939W        W 7458   0.017   5.105   8.420 -0.1440  0.1192  0.1064
 3940W        W 7459   8.497   8.179   2.982  0.2645  0.0339  0.0779
 3941W        W 7460   7.262   4.376  12.295  0.0308  0.0488  0.0183
 3942W        W 7461   1.195   3.414   0.388  0.1113 -0.1404  0.1865
 3943W        W 7462   3.115   7.386   3.206  0.0539 -0.2845  0.3113
 3944W        W 7463   5.735   1.461   1.965  0.0004 -0.0725  0.2959
 3945W        W 7464   2.012   8.060   2.081  0.0455  0.3652 -0.0963
 3946W        W 7465   3.407   8.145   9.317  0.1802  0.0412  0.0631
 3947W        W 7466   0.222   6.285  10.038  0.2178 -0.1017  0.1884
 3948W        W 7467   4.567   9.123   1.459  0.0305  0.5391  0.2506
 3949W        W 7468   8.862   5.984   8.331 -0.0182 -0.0323 -0.2133
 3950W        W 7469   0.675   7.942   2.639 -0.1464 -0.4219 -0.2089
 3951W        W 7470   5.403   0.535   0.377 -0.0125  0.3933 -0.0196
 3952W        W 7471   7.753   0.837  10.803 -0.1733 -0.3547 -0.0089
 3953W        W 7472   8.671   2.379   2.799 -0.4171 -0.0757  0.0763
 3954W        W 7473   2.989   4.260  11.510  0.0208 -0.0093  0.1843
 3955W        W 7474   3.187   6.233   8.699  0.2716  0.1497 -0.1988
 3956W        W 7475   9.179   5.236   3.542  0.1356  0.1517 -0.0740
 3957W        W 7476   6.512   1.398   8.910 -0.1717  0.0871 -0.0193
 3958W        W 7477   8.295   2.983  10.496 -0.1337  0.0278 -0.1454
 3959W        W 7478   5.424   5.306   1.052  0.1266  0.1109 -0.1303
 3960W        W 7479   4.245   7.944  10.800 -0.1667  0.2153  0.0061
 3961W        W 7480   0.981   3.494  10.894 -0.2516  0.0405  0.0045
 3962W        W 7481   4.068   5.803   1.375 -0.1974 -0.1118  0.0162
 3963W        W 7482   2.706   3.059   3.521 -0.0525  0.1143 -0.0894
 3964W        W 7483   4.273   2.702   2.074 -0.0969  0.0962  0.1294
 3965W        W 7484   5.532   7.167  10.662  0.1049  0.2357 -0.0180
 3966W        W 7485   8.161   9.644   2.063 -0.1966 -0.2144  0.1905
 3967W        W 7486   1.743   0.568  12.429 -0.3813  0.1658  0.1788
 3968W        W 7487   2.154   4.422   4.446 -0.1699 -0.1651 -0.1498
 3969W        W 7488   3.048   8.730   3.419 -0.2710 -0.0716 -0.2502
 3970W        W 7489   4.284   2.197   2.722  0.4986 -0.1740 -0.1398
 3971W        W 7490   0.690   2.684   9.857 -0.1864 -0.3653 -0.1323
 3972W        W 7491   8.167   5.360   3.881  0.4063 -0.1048  0.2201
 3973W        W 7492   7.048   1.955   2.136 -0.3437  0.0357 -0.0307
 3974W        W 7493   5.111   7.620   9.092 -0.0169 -0.1075 -0.3765
 3975W        W 7494   4.090   8.084   1.671 -0.1579  0.1176  0.4424
 3976W        W 7495   7.489   7.507  12.458 -0.2010 -0.1637 -0.1547
 3977W        W 7496   7.906   8.324  12.240 -0.2595  0.1999 -0.1721
 3978W        W 7497   1.551   3.635   9.801 -0.0423 -0.0931  0.0253
 3979W        W 7498   1.732   1.647   0.318 -0.2955  0.0469  0.0582
 3980W        W 7499   7.197   8.742   1.121 -0.1046 -0.4011  0.0521
 3981W        W 7500   8.447   9.575  11.364 -0.0092 -0.0194 -0.3405
 3982W        W 7501   9.640   2.065   0.520  0.2893  0.0488  0.2320
 3983W        W 7502   7.351   5.124  10.313 -0.2570 -0.0904  0.0981
 3984W        W 7503   0.795   3.310   0.717  0.1474 -0.1299  0.1811
 3985W        W 7504   6.613   7.104  10.003 -0.0886  0.1589  0.0069
 3986W        W 7505   7.171   0.148   0.984  0.4177  0.1728  0.0778
 3987W        W 7506   2.280   5.460   0.784  0.1540 -0.1366 -0.2211
 3988W        W 7507   0.029   5.175  11.442 -0.0271 -0.1817 -0.0300
 3989W        W 7508   4.634   6.290   1.014 -0.1674 -0.0583 -0.0109
 3990W        W 7509   5.893   5.716  12.322  0.0989  0.1070 -0.2137
 3991W        W 7510   8.522   3.003  12.461  0.3683 -0.2874  0.1774
 3992W        W 7511   4.540   7.806   3.880 -0.0289 -0.1522 -0.2471
 3993W        W 7512   1.230   7.061   4.148  0.0348 -0.1569  0.0772
 3994W        W 7513   7.159   9.017   0.164 -0.0688 -0.0096  0.0904
 3995W        W 7514   4.343   8.178   2.333  0.2851 -0.3200  0.0754
 3996W        W 7515   7.012   1.819  11.506 -0.0429 -0.0978  0.0297
 3997W        W 7516   8.672   9.510   2.197  0.0650  0.1213  0.1557
 3998W        W 7517   5.686   6.303  10.220  0.0532 -0.1693  0.2008
 3999W        W 7518   2.729   8.851  11.727 -0.4153  0.2629 -0.2212
 4000W        W 7519   9.518   0.886   0.081  0.0523  0.4279  0.0398
 4001W        W 7520   7.956   8.970   8.637 -0.1521  0.0573 -0.0955
 4002W        W 7521   4.589   5.617   1.059  0.4349  0.0579  0.0009
 4003W        W 7522   2.468   4.256   2.032 -0.1172  0.2438  0.2834
 4004W        W 7523   5.056   6.146   4.069  0.1596  0.0144 -0.1034
 4005W        W 7524   1.732   2.546   8.706  0.2044 -0.1250 -0.3404
 4006W        W 7525   4.487   2.115   2.197 -0.0023  0.0513 -0.1258
 4007W        W 7526   2.463   6.208   3.049  0.0706 -0.0461 -0.2497
 4008W        W 7527   2.639   6.030   2.548  0.0111 -0.2692 -0.3034
 4009W        W 7528   4.503   0.439   0.362 -0.0342  0.0698  0.0328
 4010W        W 7529   9.487   1.087   2.587 -0.0256  0.1439 -0.0140
 4011W        W 7530   3.043   6.042   3.818  0.0963  0.1149 -0.0808
 4012W        W 7531   1.751   2.276   1.444 -0.1798 -0.2440 -0.1929
 4013W        W 7532   1.387   1.635   8.687  0.1428 -0.2155  0.1166
 4014W        W 7533   4.835   8.150   2.210 -0.2376 -0.2019 -0.2756
 4015W        W 7534   3.310   2.350   4.623  0.1220  0.0959  0.0047
 4016W        W 7535   9.315   6.830   3.023 -0.0290 -0.2174 -0.2876
 4017W        W 7536   8.608   5.183   3.707 -0.2209  0.5525  0.0319
 4018W        W 7537   3.790   1.004   1.157 -0.0833  0.0095  0.0623
 4019W        W 7538   4.447   3.889  11.414  0.2062 -0.1759  0.0004
 4020W        W 7539   4.594   2.167   9.809 -0.3205  0.0778  0.3015
 4021W        W 7540   2.372   6.290   3.909  0.1578  0.1100  0.0212
 4022W        W 7541   8.799   6.898   2.998 -0.2020 -0.2574 -0.1449
 4023W        W 7542   5.813   3.390  11.088 -0.0968 -0.0616  0.0367
 4024W        W 7543   3.398   9.658  10.850 -0.0004  0.0040 -0.1173
 4025W        W 7544   2.151   7.115   4.151 -0.0675 -0.0841  0.1247
 4026W        W 7545   2.037   0.115   0.968 -0.2303  0.3422 -0.2150
 4027W        W 7546   7.183   5.074  10.866  0.1461 -0.2098 -0.1272
 4028W        W 7547   3.876   9.230  11.187 -0.0260 -0.0090 -0.0565
 4029W        W 7548   8.550   8.010   5.199 -0.1436  0.1354  0.2099
 4030W        W 7549   4.842   7.864   0.121  0.0021  0.3503 -0.0288
 4031W        W 7550   6.653   4.893   8.859  0.0991  0.2309  0.1303
 4032W        W 7551   8.166   1.658   0.640 -0.3564  0.2519 -0.0364
 4033W        W 7552   0.692   4.678   8.877  0.1413  0.0584  0.0432
 4034W        W 7553   2.545   3.918   1.699 -0.0083 -0.2004  0.1338
 4035W        W 7554   6.063   4.398  10.340  0.0367  0.0879 -0.2437
 4036W        W 7555   8.291   0.470  10.041 -0.0793 -0.0608  0.1282
 4037W        W 7556   0.954   6.422  12.072 -0.2275  0.1298  0.0952
 4038W        W 7557   3.799   2.963   2.824  0.3467 -0.1597  0.3419
 4039W        W 7558   4.304   5.883  10.800  0.1017 -0.1740 -0.1848
 4040W        W 7559   7.374   2.011  11.754 -0.3240  0.1587 -0.0964
 4041W        W 7560   5.885   1.290   4.094  0.3003  0.0629 -0.0119
 4042W        W 7561   7.316   3.594   9.960 -0.1621 -0.1555 -0.2141
 4043W        W 7562   1.402   4.203   9.216  0.0075  0.1109  0.0005
 4044W        W 7563   6.565   2.304   3.338  0.1573  0.0072 -0.1543
 4045W        W 7564   7.439   5.598   9.436 -0.0593 -0.0367 -0.2861
 4046W        W 7565   2.156   9.512   9.686  0.0392  0.5709  0.0102
 4047W        W 7566   0.734   8.812  12.402 -0.0860  0.2756 -0.3093
 4048W        W 7567   7.899   6.958   9.679 -0.2302 -0.0837 -0.0809
 4049W        W 7568   3.208   8.521   1.053 -0.2544 -0.4184  0.0268
 4050W        W 7569   6.667   6.217  12.144 -0.0713 -0.3606 -0.2733
 4051W        W 7570   7.968   1.495   0.051 -0.1793 -0.1811 -0.2775
 4052W        W 7571   7.942   6.878  12.241  0.1498 -0.1860 -0.5281
 4053W        W 7572   5.026   6.741   9.313  0.1384 -0.2297 -0.0874
 4054W        W 7573   3.866   5.582  10.795  0.0406 -0.0966  0.0279
 4055W        W 7574   4.392   3.458  10.546 -0.0075  0.1465  0.1045
 4056W        W 7575   1.912   4.499  10.442  0.2664 -0.2534  0.2093
 4057W        W 7576   2.661   0.821   8.708 -0.1771  0.1319 -0.0849
 4058W        W 7577   7.916   8.993  10.622 -0.2400  0.0480  0.0644
 4059W        W 7578   8.058   9.264   2.368  0.0582 -0.0170 -0.1860
 4060W        W 7579   5.310   0.031   9.144  0.2668  0.2867 -0.3003
 4061W        W 7580   2.613   0.952   2.596 -0.0124  0.0490  0.0174
 4062W        W 7581   0.343   7.612  10.004  0.1270  0.0627  0.1124
 4063W        W 7582   4.530   2.223   7.983 -0.0070  0.2153 -0.0283
 4064W        W 7583   1.849   0.581   9.201  0.2649 -0.0279 -0.2130
 4065W        W 7584   7.236   6.146   3.108 -0.0077  0.1066 -0.1107
 4066W        W 7585   9.474   7.611   2.431  0.0265 -0.0898 -0.3587
 4067W        W 7586   1.197   0.405   3.254 -0.2047  0.1165  0.1933
 4068W        W 7587   3.317   6.957   1.034 -0.0102  0.1808  0.2622
 4069W        W 7588   6.007   1.834   3.851  0.2918  0.3670  0.1776
 4070W        W 7589   8.240   0.297  11.393  0.0083 -0.3838  0.0610
 4071W        W 7590   3.736   3.607   0.869 -0.2145 -0.0443  0.2498
 4072W        W 7591   7.839   2.691   1.754  0.0360 -0.2997  0.0678
 4073W        W 7592   0.865   0.862  12.101 -0.4273  0.0101 -0.1878
 4074W        W 7593   6.644   5.730  10.754  0.1587 -0.0610 -0.2291
 4075W        W 7594   1.945   2.543   0.039 -0.0201 -0.1421  0.0866
 4076W        W 7595   7.011   7.724   9.289  0.1602 -0.0003 -0.1879
 4077W        W 7596   5.378   2.259   0.122 -0.3278  0.2007  0.3351
 4078W        W 7597   6.755   3.302  11.579 -0.1370  0.2914 -0.3971
 4079W        W 7598   3.590   8.343   1.939  0.2359  0.3252  0.4820
 4080W        W 7599   0.071   1.666  11.547 -0.2528 -0.2150 -0.0240
 4081W        W 7600   8.227   2.916  12.038  0.2489  0.2166 -0.2598
 4082W        W 7601   8.047   7.173   4.664 -0.0554 -0.1280  0.2528
 4083W        W 7602   5.157   8.801   0.240  0.0667 -0.2046 -0.1053
 4084W        W 7603   5.245   0.389  12.419 -0.0365  0.0443 -0.0216
 4085W        W 7604   1.531   5.450   4.765  0.1779  0.0926 -0.0794
 4086W        W 7605   3.214   8.964   9.590 -0.3586 -0.0752 -0.1888
 4087W        W 7606   0.326   6.810  10.050  0.0860 -0.0211  0.0985
 4088W        W 7607   3.463   6.142   3.510 -0.1194 -0.3141  0.2184
 4089W        W 7608   2.573   3.937  10.464 -0.0175 -0.2031  0.1382
 4090W        W 7609   6.924   5.767   8.942  0.1437  0.0367  0.0308
 4091W        W 7610   5.261   4.489   0.160  0.2936  0.1049  0.1523
 4092W        W 7611   9.328   0.196   2.698 -0.1423 -0.1181  0.3855
 4093W        W 7612   1.059   9.384   2.658 -0.0386 -0.0541  0.1176
 4094W        W 7613   2.422   6.267   8.321  0.1234 -0.0069  0.0964
 4095W        W 7614   2.414   2.895  10.604  0.1093  0.1421  0.0872
 4096W        W 7615   7.714   3.107   1.365 -0.3006 -0.0190 -0.1408
 4097W        W 7616   9.299   1.687   1.087 -0.1999 -0.1273 -0.2480
 4098W        W 7617   2.544   6.950  10.403 -0.2900  0.2064  0.1056
 4099W        W 7618   3.565   2.698   3.679  0.1243  0.0123  0.2908
 4100W        W 7619   3.765   1.551   1.756  0.0592 -0.1849 -0.1353
 4101W        W 7620   2.361   6.500   0.338  0.1259 -0.1564  0.2669
 4102W        W 7621   5.968   1.123  10.220 -0.1002 -0.1453  0.2202
 4103W        W 7622   5.964   9.521   2.277  0.2035  0.1941  0.0256
 4104W        W 7623   3.251   0.337   0.858  0.0872  0.1367 -0.3451
 4105W        W 7624   6.436   0.118  10.866 -0.1087 -0.2156  0.5716
 4106W        W 7625   1.413   9.081   2.356 -0.2755  0.0048 -0.0978
 4107W        W 7626   0.713   8.102   0.922 -0.1285  0.1008  0.2105
 4108W        W 7627   1.380   5.784   0.005 -0.1895  0.0392 -0.2742
 4109W        W 7628   1.649   8.448  10.964 -0.0987 -0.0452 -0.0544
 4110W        W 7629   9.522   1.520   2.268  0.0235 -0.0161 -0.3396
 4111W        W 7630   0.840   8.784   8.734  0.1132  0.0324 -0.0793
 4112W        W 7631   0.461   8.385   1.756 -0.1590  0.3474  0.2121
 4113W        W 7632   9.552   5.396   9.784  0.0113  0.2788  0.0726
 4114W        W 7633   7.133   8.841   0.652 -0.2562 -0.3249  0.1416
 4115W        W 7634   3.397   4.981   2.762 -0.0236 -0.0359 -0.2120
 4116W        W 7635   2.421   0.098   3.744  0.0240  0.4939  0.3338
 4117W        W 7636   8.543   9.697   1.110 -0.1434  0.1999 -0.0621
 4118W        W 7637   5.506   0.917   0.092  0.2349 -0.0695 -0.0754
 4119W        W 7638   6.148   4.373   9.629  0.2002  0.1003  0.0386
 4120W        W 7639   8.149   0.478   3.012  0.0408  0.3717 -0.1252
 4121W        W 7640   4.343   1.275  11.886 -0.1147  0.1615  0.0890
 4122W        W 7641   8.189   3.734   3.204 -0.0938 -0.1813  0.0821
 4123W        W 7642   6.893   7.443   1.146 -0.0669  0.0568 -0.0975
 4124W        W 7643   6.524   4.882   2.993 -0.5508 -0.1782  0.2241
 4125W        W 7644   9.054   1.759   2.328 -0.1446 -0.3264  0.1833
 4126W        W 7645   2.223   0.082  11.886 -0.2955 -0.1028 -0.1441
 4127W        W 7646   9.663   4.281   3.376  0.1309 -0.0573  0.0541
 4128W        W 7647   8.434   1.117   3.856  0.1913 -0.5993 -0.2227
 4129W        W 7648   2.054   0.174   1.493 -0.2667 -0.1172  0.1178
 4130W        W 7649   9.053   6.612   0.790 -0.3871 -0.1391 -0.2047
 4131W        W 7650   3.109   8.826   8.236  0.4612 -0.0224 -0.1846
 4132W        W 7651   1.586   7.368  10.198 -0.1080 -0.0110  0.1155
 4133W        W 7652   3.332   6.412   4.740 -0.0819 -0.1317 -0.0448
 4134W        W 7653   7.377   2.664   0.408 -0.4490  0.0357 -0.0730
 4135W        W 7654   1.448   9.005   3.812  0.0023  0.0350 -0.0586
 4136W        W 7655   3.491   1.340   8.710  0.0833  0.0751  0.1665
 4137W        W 7656   3.223   5.374   0.451  0.2223  0.0344  0.0316
 4138W        W 7657   6.720   0.236   9.571  0.0995 -0.1096 -0.3388
 4139W        W 7658   4.252   7.056   8.617 -0.2827 -0.0695  0.1302
 4140W        W 7659   0.008   3.301   4.102  0.0409 -0.0583  0.1743
 4141W        W 7660   5.051   0.778   2.127  0.1021  0.2103 -0.0500
 4142W        W 7661   6.166   3.686   4.160 -0.0861  0.1155 -0.1235
 4143W        W 7662   1.035   8.821   9.692 -0.0965  0.1608  0.0785
 4144W        W 7663   1.961   3.958  11.234  0.1884 -0.0672  0.2312
 4145W        W 7664   2.552   6.436  10.775 -0.2180  0.1670  0.2664
 4146W        W 7665   3.023   0.209  10.654  0.1279 -0.0917 -0.1397
 4147W        W 7666   3.694   1.832  10.147  0.1305 -0.4022  0.2592
 4148W        W 7667   4.528   0.918   2.275 -0.1709 -0.1012  0.5461
 4149W        W 7668   4.832   6.494  10.232  0.2301  0.1074  0.3820
 4150W        W 7669   0.171   7.914   2.794 -0.0052 -0.0832 -0.2512
 4151W        W 7670   3.562   7.634   2.420 -0.1686 -0.0493 -0.0415
 4152W        W 7671   2.064   8.529   3.149 -0.2320  0.0190 -0.2328
 4153W        W 7672   4.553   7.290   1.731  0.1178  0.1074  0.1187
 4154W        W 7673   0.243   3.384  11.097 -0.4475 -0.1846  0.1036
 4155W        W 7674   6.070   9.230  12.418  0.1835  0.2122  0.1164
 4156W        W 7675   5.844   8.898  12.164  0.0799 -0.2394 -0.0665
 4157W        W 7676   7.650   8.228   9.683  0.2853  0.1863  0.2876
 4158W        W 7677   4.678   2.736   8.805  0.2677 -0.0809  0.0359
 4159W        W 7678   3.916   1.269   0.771  0.1989  0.0414  0.1215
 4160W        W 7679   3.864   6.686  10.603  0.1357  0.0421  0.1073
 4161W        W 7680   1.742   2.046  10.991  0.0423  0.2232  0.0233
 4162W        W 7681   0.006   5.635   0.300  0.0685  0.0230  0.1176
 4163W        W 7682   8.647   0.722  10.954  0.2967 -0.0834  0.0165
 4164W        W 7683   4.864   3.373   1.113  0.4903 -0.0423 -0.1567
 4165W        W 7684   6.120   7.351   8.173 -0.2049 -0.0046  0.0809
 4166W        W 7685   7.030   9.711  10.771 -0.2687  0.4429  0.0914
 4167W        W 7686   7.247   4.147   3.211 -0.1266  0.2106 -0.1944
 4168W        W 7687   4.976   3.398  11.823 -0.2817 -0.2776 -0.2559
 4169W        W 7688   5.565   0.200  12.067  0.0333  0.1699 -0.1420
 4170W        W 7689   7.526   1.287   2.409 -0.0837 -0.2947 -0.1406
 4171W        W 7690   1.267   4.080   1.308 -0.2616 -0.2767 -0.1348
 4172W        W 7691   7.161   1.236   1.582  0.4417 -0.2518  0.0364
 4173W        W 7692   8.387   5.662   1.750  0.0319  0.1307  0.0600
 4174W        W 7693   3.615   9.144   9.299  0.0259  0.2069  0.0455
 4175W        W 7694   1.580   6.628   1.605 -0.0796 -0.1868 -0.0150
 4176W        W 7695   3.828   6.117  10.802  0.0539  0.1985 -0.0287
 4177W        W 7696   3.052   2.979   9.950 -0.0338  0.1555  0.0880
 4178W        W 7697   4.907   7.438   8.671 -0.2766 -0.0056 -0.1357
 4179W        W 7698   2.994   1.300  12.317 -0.1047  0.2186  0.2025
 4180W        W 7699   2.426   2.477   2.476 -0.2591  0.1294  0.3166
 4181W        W 7700   5.764   7.492  12.248  0.2100  0.0249 -0.2130
 4182W        W 7701   3.572   9.624   2.471 -0.0388 -0.0810 -0.2138
 4183W        W 7702   9.471   3.932   0.066  0.1300 -0.3313  0.0906
 4184W        W 7703   5.737   7.683   3.093  0.1470 -0.2007 -0.2842
 4185W        W 7704   0.603   7.553   1.533 -0.0030 -0.0197  0.0302
 4186W        W 7705   1.350   5.687  11.663  0.0104  0.1152  0.0518
 4187W        W 7706   3.728   1.210   4.621  0.2743 -0.0365  0.0047
 4188W        W 7707   8.219   9.364  10.589 -0.0290  0.0011  0.2707
 4189W        W 7708   3.581   5.413  11.169 -0.4568  0.0296  0.1828
 4190W        W 7709   0.182   0.160   0.941  0.0659 -0.1418  0.2860
 4191W        W 7710   8.087   7.346  11.672  0.0586 -0.0280  0.2293
 4192W        W 7711   5.196   4.879   1.233  0.0503 -0.0649 -0.0307
 4193W        W 7712   0.414   7.157   0.034  0.0410 -0.1186  0.2614
 4194W        W 7713   1.932   1.555  11.412  0.0458 -0.2957  0.1738
 4195W        W 7714   0.597   1.892  10.112  0.1112  0.1709  0.0170
 4196W        W 7715   5.424   3.132  12.009  0.3092 -0.5247 -0.0087
 4197W        W 7716   0.724   1.138   2.982 -0.2166 -0.2149  0.1336
 4198W        W 7717   8.857   6.596   1.712 -0.0926 -0.0639 -0.0302
 4199W        W 7718   0.186   3.557   9.110  0.1980  0.4620 -0.0272
 4200W        W 7719   1.289   4.072   9.713 -0.1025  0.0957 -0.1764
 4201W        W 7720   6.367   8.042   0.804 -0.0188  0.2621  0.1429
 4202W        W 7721   1.520   0.500   9.743 -0.3379 -0.0104  0.1541
 4203W        W 7722   1.856   9.287   2.690  0.0085 -0.2658  0.2626
 4204W        W 7723   1.120   8.374   0.932 -0.0140  0.0413  0.0451
 4205W        W 7724   6.994   7.529   0.283 -0.0132 -0.3023  0.0011
 4206W        W 7725   3.160   6.024   1.193  0.2811  0.0504 -0.0396
 4207W        W 7726   8.574   8.806  11.886 -0.4482  0.3369  0.0246
 4208W        W 7727   1.181   3.807   9.324 -0.0820  0.2828 -0.0017
 4209W        W 7728   5.910   9.442   0.326 -0.0867  0.0060 -0.2061
 4210W        W 7729   8.237   8.816   2.381  0.1300  0.0839  0.1077
 4211W        W 7730   4.539   3.134   0.767 -0.0232  0.0649  0.1407
 4212W        W 7731   8.099   4.616   0.431 -0.1262 -0.0283 -0.1247
 4213W        W 7732   4.597   8.078  11.122  0.0882  0.2192  0.1385
 4214W        W 7733   1.277   6.732  10.360  0.2077 -0.1353 -0.0616
 4215W        W 7734   7.902   7.871   0.241 -0.1004 -0.1300 -0.0462
 4216W        W 7735   4.989   8.908   1.664  0.1673 -0.0067 -0.0759
 4217W        W 7736   0.600   3.308   2.951  0.0093 -0.1155 -0.3200
 4218W        W 7737   5.366   8.123   0.092  0.1614 -0.2402  0.1631
 4219W        W 7738   7.684   0.395   3.773 -0.0048  0.1336  0.0883
 4220W        W 7739   3.202   3.873   3.096  0.0566  0.1765 -0.0427
 4221W        W 7740   2.822   4.095  10.079 -0.3413 -0.0602 -0.0424
 4222W        W 7741   6.495   4.675  10.528  0.3600  0.0237  0.0615
 4223W        W 7742   3.699   4.160   2.982 -0.0481  0.0908 -0.1957
 4224W        W 7743   0.611   9.237   8.850 -0.2675  0.2248  0.3213
 4225W        W 7744   0.253   2.368   2.931  0.1296  0.1877 -0.0147
 4226W        W 7745   9.063   6.367  10.722  0.1680 -0.1582 -0.2125
 4227W        W 7746   4.373   9.001   9.440  0.1311  0.3345  0.0391
 4228W        W 7747   1.473   4.886   9.182  0.2030  0.2795  0.2238
 4229W        W 7748   7.261   4.249   2.062 -0.0795  0.0359  0.0040
 4230W        W 7749   9.151   9.571   8.974  0.1792 -0.0146 -0.1002
 4231W        W 7750   5.502   7.490   7.938 -0.1896  0.3740  0.1222
 4232W        W 7751   3.180   1.934  10.249 -0.2061  0.0747  0.0547
 4233W        W 7752   8.012   8.761  11.901  0.0521  0.0452 -0.3335
 4234W        W 7753   6.790   9.686   0.673 -0.0301  0.0202 -0.0157
 4235W        W 7754   0.924   8.093  10.292 -0.3735  0.3881 -0.1219
 4236W        W 7755   3.436   4.848   0.333 -0.0479 -0.2001 -0.0159
 4237W        W 7756   1.468   4.519   9.607 -0.1559 -0.0530  0.1986
 4238W        W 7757   0.301   1.525   9.679 -0.1289  0.0914  0.1664
 4239W        W 7758   3.001   4.275  10.944 -0.2256  0.0285  0.0260
 4240W        W 7759   5.396   0.476   1.902 -0.2211  0.1149  0.2317
 4241W        W 7760   5.703   4.810  11.822 -0.0210  0.1155  0.0227
 4242W        W 7761   4.187   0.755   3.013  0.2318 -0.5687 -0.0477
 4243W        W 7762   9.411   3.954   1.114 -0.1525  0.3136  0.1320
 4244W        W 7763   9.596   1.756   9.549  0.2881  0.4018  0.1154
 4245W        W 7764   3.566   7.071   0.155 -0.0761 -0.0174 -0.1465
 4246W        W 7765   1.232   0.024  10.364 -0.0485 -0.2672 -0.0604
 4247W        W 7766   5.912   5.300   9.322 -0.0647 -0.2476  0.1538
 4248W        W 7767   6.281   6.603  12.186 -0.2020  0.0719 -0.2478
 4249W        W 7768   2.673   1.886   2.792 -0.2013 -0.0960  0.0684
 4250W        W 7769   0.015   0.372   0.415  0.2674  0.0512 -0.0450
 4251W        W 7770   4.757   3.796   3.905  0.3474 -0.1589  0.0732
 4252W        W 7771   5.333   8.125  11.157  0.0506  0.4271 -0.1695
 4253W        W 7772   0.306   3.347   0.916  0.0468 -0.1317 -0.1376
 4254W        W 7773   3.161   3.497  10.709  0.2293  0.0554  0.0793
 4255W        W 7774   2.027   9.213   9.257  0.3152 -0.4170 -0.0117
 4256W        W 7775   2.678   5.378   0.156 -0.0866 -0.2275 -0.1000
 4257W        W 7776   1.521   1.618  10.646  0.2781 -0.4225  0.0356
 4258W        W 7777   4.873   5.247   1.333  0.1390  0.1370  0.1462
 4259W        W 7778   6.395   4.586   9.289  0.0810  0.0343  0.3603
 4260W        W 7779   2.378   2.504  12.242  0.2495 -0.1161 -0.0632
 4261W        W 7780   1.087   8.272  12.364 -0.1568 -0.1147 -0.1613
 4262W        W 7781   6.937   5.076   1.990 -0.2650 -0.3473 -0.0249
 4263W        W 7782   7.718   4.636  12.097  0.2352 -0.1063 -0.2169
 4264W        W 7783   1.173   0.185   2.630  0.1555 -0.0986  0.1099
 4265W        W 7784   4.895   3.037   9.523  0.1264 -0.2387 -0.1977
 4266W        W 7785   1.018   4.679  10.579  0.4204 -0.0988  0.0710
 4267W        W 7786   3.367   3.721   0.443  0.1742 -0.0428 -0.1185
 4268W        W 7787   5.877   6.706  11.368 -0.1665  0.0615  0.0446
 4269W        W 7788   2.002   5.011   3.712 -0.1276  0.0754 -0.1323
 4270W        W 7789   1.838   3.076   3.279 -0.3287  0.1085 -0.2374
 4271W        W 7790   3.068   9.207   0.382  0.3894  0.3680 -0.0566
 4272W        W 7791   4.574   8.781   2.611  0.1439  0.2457  0.1182
 4273W        W 7792   1.018   2.672   3.008 -0.0136 -0.0161  0.1677
 4274W        W 7793   5.380   4.730   9.735  0.0419 -0.1673 -0.3447
 4275W        W 7794   1.864   9.133  11.478  0.0575  0.0123 -0.0483
 4276W        W 7795   9.621   9.626   3.897  0.0515 -0.1353 -0.2203
 4277W        W 7796   4.425   3.657   3.447 -0.0621  0.4678 -0.0444
 4278W        W 7797   7.144   3.697   9.477  0.1221  0.0141 -0.2743
 4279W        W 7798   2.032   7.832   8.918 -0.0521  0.0921  0.0790
 4280W        W 7799   2.127   8.008  11.470 -0.0960  0.0040 -0.0983
 4281W        W 7800   5.990   5.649   2.782 -0.0348 -0.1241  0.3825
 4282W        W 7801   5.897   2.396   0.587 -0.1960  0.2711 -0.1156
 4283W        W 7802   1.711   0.270  11.145  0.1688 -0.0658 -0.2202
 4284W        W 7803   5.381   8.183  12.011  0.2054 -0.1854 -0.3295
 4285W        W 7804   9.603   1.231   1.891 -0.1548  0.0583 -0.0485
 4286W        W 7805   8.069   6.570   0.222 -0.3203  0.1511  0.0449
 4287W        W 7806   9.389   8.968   9.784  0.2045 -0.0167  0.1344
 4288W        W 7807   8.282   6.941   3.650  0.0506 -0.2044  0.2029
 4289W        W 7808   5.593   0.084   2.109  0.2286  0.3602  0.0937
 4290W        W 7809   2.223   7.307   4.812 -0.1387 -0.3747  0.2411
 4291W        W 7810   7.697   5.115  10.665  0.1640  0.4470  0.1549
 4292W        W 7811   6.334   3.636   1.131 -0.0184 -0.3348  0.0728
 4293W        W 7812   3.321   1.758   1.757 -0.2351 -0.1068  0.0330
 4294W        W 7813   3.529   8.880   8.014  0.4071 -0.0605  0.2253
 4295W        W 7814   3.784   1.726  11.477  0.0001  0.4112  0.0927
 4296W        W 7815   1.981   3.538   3.585  0.4148 -0.0375 -0.1579
 4297W        W 7816   1.446   1.851  11.892  0.2378  0.0890  0.0003
 4298W        W 7817   6.847   6.612   3.814 -0.0950  0.0366 -0.3326
 4299W        W 7818   8.760   0.358   8.955 -0.2120 -0.0065  0.1545
 4300W        W 7819   4.685   6.403  10.785 -0.1186 -0.1602  0.1488
 4301W        W 7820   6.636   5.820   3.174  0.0139  0.2307  0.0364
 4302W        W 7821   1.941   8.035  11.007 -0.0447 -0.1562 -0.0440
 4303W        W 7822   6.440   0.862  10.539  0.0510 -0.1031  0.1796
 4304W        W 7823   6.216   4.817  11.016 -0.0048 -0.3591  0.3432
 4305W        W 7824   1.226   1.096   9.864  0.0095 -0.0448  0.1788
 4306W        W 7825   4.898   8.925  12.377  0.2459 -0.0656  0.0954
 4307W        W 7826   3.407   5.291   3.815 -0.1994 -0.2597 -0.0815
 4308W        W 7827   3.140   4.763  10.910 -0.1852 -0.3316  0.1134
 4309W        W 7828   9.185   7.596   0.567  0.0006  0.3583  0.0594
 4310W        W 7829   6.583   2.775   3.158  0.2080 -0.3768 -0.0811
 4311W        W 7830   0.750   4.104   9.821  0.0930 -0.1149  0.1428
 4312W        W 7831   5.833   5.897   1.939 -0.1271  0.0551  0.1655
 4313W        W 7832   8.468   8.292   4.257  0.2801 -0.1796  0.1478
 4314W        W 7833   6.064   8.803   0.333 -0.4356 -0.2174  0.0629
 4315W        W 7834   3.952   3.841  10.633  0.0330  0.0506 -0.0856
 4316W        W 7835   5.614   6.931   4.188  0.0160  0.0314 -0.1673
 4317W        W 7836   5.244   7.803  10.251 -0.1734 -0.1391  0.1568
 4318W        W 7837   4.165   9.001   2.840 -0.2564 -0.3630 -0.2142
 4319W        W 7838   2.583   7.243   0.244  0.0568  0.1147 -0.0488
 4320W        W 7839   8.152   1.979   1.966 -0.0591  0.0846 -0.0773
 4321W        W 7840   3.504   9.412  12.156  0.0416 -0.0570 -0.2656
 4322W        W 7841   1.523   9.556   2.986 -0.0750 -0.2466  0.1197
 4323W        W 7842   6.577   2.029   2.611 -0.2199  0.2114  0.0218
 4324W        W 7843   0.682   1.173  11.727  0.0311  0.2374  0.1713
 4325W        W 7844   1.004   4.316   1.714  0.0898  0.0037 -0.0926
 4326W        W 7845   8.917   4.755   3.812  0.0936 -0.1217 -0.1422
 4327W        W 7846   5.594   1.341  10.469  0.3152  0.0823 -0.0462
 4328W        W 7847   8.002   9.045   2.842  0.1219  0.0223 -0.0057
 4329W        W 7848   6.911   9.007   9.669  0.0335  0.3995  0.0580
 4330W        W 7849   5.818   7.411   3.578  0.1695  0.1034  0.0741
 4331W        W 7850   9.488   2.480   0.824 -0.3090 -0.4228 -0.1130
 4332W        W 7851   4.532   5.852   2.216  0.0429  0.1263  0.0959
 4333W        W 7852   2.184   2.100   0.952 -0.2475  0.0895  0.1586
 4334W        W 7853   1.938   4.360   0.771 -0.0518 -0.1130  0.2211
 4335W        W 7854   3.580   0.759   8.545  0.1601  0.0487  0.2544
 4336W        W 7855   2.769   9.126   3.541  0.1777  0.0475 -0.3245
 4337W        W 7856   2.129   4.876  12.293 -0.2748  0.3133 -0.0190
 4338W        W 7857   5.314   1.681   1.706 -0.1991  0.0018  0.0939
 4339W        W 7858   7.055   5.258   0.450  0.0894  0.1010 -0.1046
 4340W        W 7859   1.494   0.738  10.216  0.2669 -0.1143  0.0528
 4341W        W 7860   8.419   6.807   1.291 -0.5707 -0.3601 -0.2130
 4342W        W 7861   9.007   9.514   1.432 -0.0111  0.2636  0.1734
 4343W        W 7862   2.435   2.207   0.504 -0.2451 -0.3308  0.0993
 4344W        W 7863   1.404   6.342  12.357 -0.1192  0.0348 -0.0798
 4345W        W 7864   6.439   6.702   3.539  0.1314  0.0829 -0.0134
 4346W        W 7865   2.813   9.218   0.831  0.1580 -0.1950  0.0717
 4347W        W 7866   1.281   2.508  10.529 -0.0565  0.1585  0.1607
 4348W        W 7867   1.923   0.065   2.060 -0.2964 -0.1661 -0.2065
 4349W        W 7868   3.941   2.209   8.974  0.0191  0.2664 -0.4203
 4350W        W 7869   9.029   5.939  11.026 -0.1819 -0.0609  0.1683
 4351W        W 7870   5.940   5.131   4.187  0.0534  0.2372  0.3216
 4352W        W 7871   4.109   4.463   8.174  0.0770  0.0590  0.2514
 4353W        W 7872   6.529   0.288  10.380  0.0103  0.0329 -0.0976
 4354W        W 7873   1.307   7.517   2.719  0.0187 -0.0987 -0.2886
 4355W        W 7874   2.192   8.378   8.813  0.0195 -0.2489 -0.1881
 4356W        W 7875   0.314   8.621  10.208  0.0366 -0.2256  0.3441
 4357W        W 7876   3.021   8.777  12.203  0.1129  0.3147 -0.0108
 4358W        W 7877   3.341   8.974   3.076 -0.1100 -0.1878 -0.0941
 4359W        W 7878   0.863   7.059   2.172 -0.0414 -0.2114  0.1627
 4360W        W 7879   0.718   7.270   9.792 -0.3405  0.2466 -0.2571
 4361W        W 7880   6.737   7.328  12.263  0.0502 -0.3784 -0.0482
 4362W        W 7881   0.300   9.399   9.692  0.1791 -0.1482 -0.0388
 4363W        W 7882   7.851   2.692  10.594  0.1219 -0.3183  0.1014
 4364W        W 7883   3.165   2.412  11.401 -0.0839  0.2609 -0.1381
 4365W        W 7884   9.060   0.276   1.214  0.2250 -0.2879  0.2441
 4366W        W 7885   5.986   3.526  10.152  0.0089  0.0854  0.0316
 4367W        W 7886   5.547   1.049   9.979  0.2578  0.2158 -0.1199
 4368W        W 7887   4.925   4.096   1.670  0.1765  0.4035  0.1130
 4369W        W 7888   5.902   4.045   9.874  0.1761 -0.4456  0.1894
 4370W        W 7889   2.504   6.281   2.106  0.0913 -0.0127 -0.0259
 4371W        W 7890   5.827   0.196  10.001 -0.1534 -0.3293 -0.2744
 4372W        W 7891   8.272   7.165   0.414 -0.0745  0.2031 -0.1350
 4373W        W 7892   1.385   0.294   3.983 -0.0194 -0.1329  0.0912
 4374W        W 7893   9.079   1.196   3.119  0.1426 -0.0123  0.1177
 4375W        W 7894   4.080   7.081   2.298 -0.2351  0.1821  0.0269
 4376W        W 7895   5.502   7.445   2.191 -0.3184 -0.1382  0.0305
 4377W        W 7896   1.108   5.649   2.276  0.1208  0.1299  0.1318
 4378W        W 7897   8.568   5.935   2.992 -0.2712 -0.0036  0.2218
 4379W        W 7898   5.275   7.210   8.254 -0.0414 -0.1259 -0.3635
 4380W        W 7899   8.606   3.234   9.587  0.2353  0.2080  0.2220
 4381W        W 7900   5.909   5.544   2.274 -0.1821 -0.0932 -0.2351
 4382W        W 7901   3.158   7.785  11.227  0.2114 -0.2165 -0.0306
 4383W        W 7902   4.318   4.399   8.626  0.1961 -0.1660  0.2297
 4384W        W 7903   3.537   5.695   4.721 -0.2693  0.0863  0.1432
 4385W        W 7904   6.225   7.411   9.638 -0.3446 -0.2927  0.1304
 4386W        W 7905   8.991   9.191   9.965 -0.0643  0.2297  0.0340
 4387W        W 7906   0.593   5.758   8.749  0.0597 -0.2973 -0.0904
 4388W        W 7907   2.538   3.591  11.340  0.1985  0.1006 -0.1535
 4389W        W 7908   1.351   9.178   4.350  0.0181 -0.3391 -0.3479
 4390W        W 7909   2.165   8.427   2.467 -0.1499 -0.3956 -0.1800
 4391W        W 7910   7.554   1.523  10.180 -0.0009 -0.1740  0.0838
 4392W        W 7911   1.098   6.826   1.627 -0.2117 -0.0818  0.1314
 4393W        W 7912   2.802   6.734  12.001  0.2936  0.0187  0.1860
 4394W        W 7913   7.672   9.679   0.780  0.0147  0.4336 -0.0063
 4395W        W 7914   5.380   8.292   2.330  0.3492  0.1781  0.1925
 4396W        W 7915   4.551   2.416   3.957  0.1222 -0.0356 -0.4787
 4397W        W 7916   4.660   0.799   0.976  0.0400 -0.3642  0.4802
 4398W        W 7917   4.300   2.710  11.744 -0.1355  0.0772 -0.0540
 4399W        W 7918   6.457   9.418   2.713  0.0194  0.1036  0.0101
 4400W        W 7919   0.183   0.334  11.295 -0.0925 -0.0051 -0.0401
 4401W        W 7920   4.923   9.289  11.964 -0.1795  0.0012  0.2558
 4402W        W 7921   3.908   6.089   8.621 -0.1808 -0.1479 -0.2316
 4403W        W 7922   1.365   2.070   1.210 -0.0251 -0.0891 -0.2106
 4404W        W 7923   8.016   1.197   3.546 -0.2748 -0.2221 -0.3993
 4405W        W 7924   2.315   0.443   2.949  0.2787 -0.0330  0.3717
 4406W        W 7925   3.305   6.905  11.861  0.1945  0.0593 -0.0109
 4407W        W 7926   6.435   9.306   0.930 -0.3232 -0.1045 -0.0344
 4408W        W 7927   2.780   8.020  10.454 -0.0187 -0.1277  0.0339
 4409W        W 7928   4.524   1.596   2.288  0.1020 -0.2717 -0.0563
 4410W        W 7929   6.084   7.271   0.478  0.2590 -0.2582  0.0442
 4411W        W 7930   7.186   5.962   5.070 -0.2764  0.2204 -0.0158
 4412W        W 7931   0.466   3.078   2.594  0.1747  0.1605  0.1016
 4413W        W 7932   9.622   4.194   4.271 -0.0836 -0.1071 -0.0257
 4414W        W 7933   0.008   6.982  10.472 -0.0281 -0.2415 -0.2129
 4415W        W 7934   1.357   4.557  12.347 -0.1692  0.2185  0.1798
 4416W        W 7935   4.577   6.209   9.877 -0.2134  0.1673 -0.0615
 4417W        W 7936   8.828   6.740  11.066 -0.1424 -0.4969  0.0102
 4418W        W 7937   1.535   4.764   3.572 -0.2549  0.1145 -0.0882
 4419W        W 7938   8.449   0.265   4.376  0.1762  0.1218 -0.3944
 4420W        W 7939   7.622   6.705   1.835  0.1055  0.4442  0.0518
 4421W        W 7940   7.407   7.964  11.496 -0.1054  0.0609  0.0551
 4422W        W 7941   2.942   1.942   9.837  0.1013  0.1518  0.0626
 4423W        W 7942   7.239   8.632   9.637 -0.0813 -0.1645 -0.2082
 4424W        W 7943   7.236   3.648   2.951 -0.0451  0.1141 -0.1610
 4425W        W 7944   5.195   8.329   3.864 -0.0257  0.2888 -0.0914
 4426W        W 7945   2.059   5.117  11.843 -0.1202  0.2789  0.1315
 4427W        W 7946   5.521   6.639   0.859 -0.0993  0.1034  0.0955
 4428W        W 7947   6.084   8.288   3.629 -0.2765 -0.1495 -0.1152
 4429W        W 7948   5.139   2.241   2.203  0.0741  0.0121  0.0257
 4430W        W 7949   0.075   7.961   9.759  0.0701  0.0126 -0.2870
 4431W        W 7950   4.654   6.387  11.471  0.1033 -0.1204 -0.1132
 4432W        W 7951   4.970   8.453  10.881 -0.1391  0.2328  0.0482
 4433W        W 7952   3.581   0.979   9.199  0.1812 -0.0977 -0.0070
 4434W        W 7953   2.416   8.455   0.121  0.4190  0.0873  0.0332
 4435W        W 7954   7.431   0.275  12.199  0.1036 -0.5395  0.1666
 4436W        W 7955   1.465   6.809  11.449  0.0683 -0.1331  0.3098
 4437W        W 7956   4.088   0.228   4.261 -0.1171  0.1953 -0.0156
 4438W        W 7957   3.649   8.448  10.946  0.0717  0.0675  0.1239
 4439W        W 7958   9.276   0.756  10.203  0.2235 -0.0761  0.0660
 4440W        W 7959   7.795   5.029  11.147  0.0424 -0.0707 -0.0264
 4441W        W 7960   9.703   7.112   3.040 -0.2003  0.0403  0.0520
 4442W        W 7961   9.532   4.073   2.835  0.0408  0.3735  0.0665
 4443W        W 7962   1.862   9.414   8.755 -0.0512  0.1107  0.0010
 4444W        W 7963   8.995   3.243   3.699  0.3847 -0.3130  0.0539
 4445W        W 7964   4.641   5.509   0.585  0.1052  0.0717 -0.0900
 4446W        W 7965   9.286   3.864   2.036  0.1167 -0.1480 -0.0334
 4447W        W 7966   8.475   9.269   0.164  0.0259  0.3870 -0.0843
 4448W        W 7967   1.943   1.164   3.535 -0.0377  0.3104 -0.1773
 4449W        W 7968   3.933   2.068   0.398 -0.1109 -0.0979 -0.1052
 4450W        W 7969   3.213   0.210   3.927  0.1208 -0.0635 -0.0950
 4451W        W 7970   1.019   8.857  10.196  0.0715 -0.1868  0.2556
 4452W        W 7971   8.362   2.022   9.650 -0.4582  0.2456  0.2001
 4453W        W 7972   5.354   2.771  10.050 -0.1116  0.0974  0.0822
 4454W        W 7973   5.938   0.196  10.766  0.1869  0.2927 -0.0829
 4455W        W 7974   0.394   9.642   1.384  0.2033 -0.5204 -0.2186
 4456W        W 7975   2.106   0.136   8.652  0.2801  0.0179 -0.2183
 4457W        W 7976   0.026   7.758  11.386 -0.0454  0.1495 -0.2287
 4458W        W 7977   1.962   0.759   9.993 -0.0987  0.2193  0.2112
 4459W        W 7978   1.180   0.116   9.740 -0.1134 -0.0716 -0.1274
 4460W        W 7979   4.666   4.179   0.659  0.4405 -0.1843 -0.1489
 4461W        W 7980   2.895   1.227   1.833  0.4410 -0.0554  0.0271
 4462W        W 7981   2.989   6.610  10.785 -0.0282  0.6363 -0.1957
 4463W        W 7982   1.793   3.748   9.191 -0.0152  0.0123 -0.0849
 4464W        W 7983   4.690   0.944   1.721  0.0836 -0.0852 -0.3069
 4465W        W 7984   7.494   8.851   2.977 -0.0536  0.2838  0.4007
 4466W        W 7985   9.698   2.744   1.968  0.3007 -0.2399 -0.2003
 4467W        W 7986   5.956   1.063   1.684  0.1644 -0.2573  0.3865
 4468W        W 7987   7.725   7.998   2.059 -0.2919  0.1488  0.0500
 4469W        W 7988   9.235   3.207   4.118  0.1497 -0.1199 -0.0853
 4470W        W 7989   0.938   3.813   0.542  0.1094  0.0088 -0.2501
 4471W        W 7990   9.714   1.951  10.952 -0.1668  0.2326  0.0979
 4472W        W 7991   2.949   2.451   9.707 -0.0842  0.0543  0.1578
 4473W        W 7992   0.748   5.465   1.443 -0.3208 -0.1029 -0.2219
 4474W        W 7993   1.644   4.037   4.264 -0.1050 -0.1273  0.3224
 4475W        W 7994   5.829   2.966   3.064  0.0816  0.0899 -0.1994
 4476W        W 7995   7.583   9.338  10.389 -0.0158 -0.0859 -0.0029
 4477W        W 7996   6.314   4.605  12.180 -0.3503 -0.0474 -0.0892
 4478W        W 7997   3.744   9.631   9.463 -0.1229 -0.0863 -0.1251
 4479W        W 7998   4.983   6.109   1.374  0.0923 -0.1470  0.0399
 4480W        W 7999   4.449   3.143   9.309 -0.1630 -0.0435 -0.1895
 4481W        W 8000   5.877   4.888   3.521 -0.0386 -0.0146 -0.3275
 4482W        W 8001   4.174   4.801   9.809 -0.2225  0.0057  0.1081
 4483W        W 8002   4.794   8.603   9.504  0.0038 -0.2845 -0.2221
 4484W        W 8003   4.945   1.623  11.298  0.0926  0.3735 -0.2295
 4485W        W 8004   8.697   0.983   3.388  0.1012 -0.0106 -0.0055
 4486W        W 8005   1.093   0.786   2.375 -0.0979 -0.0721  0.2261
 4487W        W 8006   5.236   2.318  11.137 -0.1015 -0.3067 -0.2788
 4488W        W 8007   6.685   8.358  11.121 -0.5421 -0.1565 -0.0114
 4489W        W 8008   0.028   5.320   0.734  0.1120 -0.0102  0.3054
 4490W        W 8009   6.131   7.770   0.371  0.1935  0.0032  0.1406
 4491W        W 8010   9.463   2.033   2.256  0.2578  0.0942  0.1260
 4492W        W 8011   2.950   7.877   2.373  0.0589 -0.4082 -0.0883
 4493W        W 8012   5.052   5.684   4.289  0.1937 -0.2879  0.1803
 4494W        W 8013   8.594   6.705  10.616 -0.2129 -0.1607  0.2009
 4495W        W 8014   3.741   6.085  11.897  0.2755 -0.1721 -0.0032
 4496W        W 8015   6.856   1.469   0.961  0.0205 -0.1833 -0.0363
 4497W        W 8016   6.243   5.183  11.385  0.1978  0.2511 -0.1912
 4498W        W 8017   9.668   2.622  10.609 -0.3635  0.1263 -0.1772
 4499W        W 8018   9.675   5.016  10.499  0.1091  0.0898 -0.0855
 4500W        W 8019   3.214   1.366   4.474 -0.2833 -0.0900 -0.0583
 4501W        W 8020   7.423   8.790  10.525  0.0053 -0.4122  0.1119
 4502W        W 8021   6.356   0.581   8.928 -0.3302  0.0247 -0.0573
 4503W        W 8022   7.075   4.255   2.604  0.2089 -0.0261  0.1924
 4504W        W 8023   0.979   8.856   2.514  0.1769 -0.1115 -0.0682
 4505W        W 8024   3.783   1.026   0.340  0.1250  0.0338  0.1253
 4506W        W 8025   4.561   4.944   2.245 -0.0370  0.2899 -0.3835
 4507W        W 8026   9.326   0.907  11.649 -0.0182  0.0835  0.4828
 4508W        W 8027   1.636   7.263   2.400  0.4099 -0.0634 -0.0412
 4509W        W 8028   8.873   4.669   2.564 -0.4432 -0.2163 -0.0167
 4510W        W 8029   7.678   1.138  11.556  0.1158 -0.3097 -0.1178
 4511W        W 8030   3.031   6.793  10.284 -0.0599  0.2940  0.0951
 4512W        W 8031   7.193   7.616   8.787 -0.1559 -0.3698 -0.0441
 4513W        W 8032   8.917   7.561   1.910 -0.0653  0.1382  0.1801
 4514W        W 8033   7.137   8.114   2.204  0.1555  0.1141 -0.2348
 4515W        W 8034   5.478   8.727  11.851  0.0528 -0.0101 -0.0148
 4516W        W 8035   8.941   4.675  10.067 -0.0354 -0.1375  0.0231
 4517W        W 8036   5.570   0.384   1.364 -0.0833  0.1169  0.1219
 4518W        W 8037   5.856   7.188   9.767  0.0894  0.1057  0.0127
 4519W        W 8038   0.202   0.590   3.524 -0.1138  0.2136 -0.1823
 4520W        W 8039   1.940   2.076  11.475 -0.1038 -0.3244  0.1625
 4521W        W 8040   4.746   9.235  10.404  0.0782 -0.0654 -0.4383
 4522W        W 8041   2.534   2.013   3.732  0.2784  0.0293 -0.2679
 4523W        W 8042   1.795   7.820   9.358  0.0673  0.2383  0.0422
 4524W        W 8043   2.165   8.060   3.017  0.2187 -0.0285  0.2149
 4525W        W 8044   9.347   3.422  10.032  0.0135  0.0966  0.2329
 4526W        W 8045   3.831   1.968  12.181  0.0550  0.1899 -0.1096
 4527W        W 8046   6.701   1.318   0.103 -0.0275 -0.2905 -0.2928
 4528W        W 8047   9.277   1.729   2.944  0.1498  0.0917 -0.2428
 4529W        W 8048   2.091   7.250  10.394  0.1746  0.0742  0.4275
 4530W        W 8049   2.396   1.438   1.028  0.0322 -0.4205 -0.1332
 4531W        W 8050   0.547   6.706   0.935 -0.2564 -0.0011 -0.2458
 4532W        W 8051   0.485   3.123   1.521  0.0591  0.0064 -0.3994
 4533W        W 8052   8.745   3.081   1.030  0.0202 -0.2023 -0.0399
 4534W        W 8053   4.763   0.095   1.782 -0.1266  0.0134  0.1141
 4535W        W 8054   3.798   9.154   1.045 -0.0670  0.3005  0.1052
 4536W        W 8055   1.517   9.425  11.956  0.0450  0.0801  0.0790
 4537W        W 8056   8.868   1.538   9.881 -0.2554  0.2893  0.1518
 4538W        W 8057   2.346   8.921   1.027 -0.1113  0.1426 -0.2055
 4539W        W 8058   3.682   5.945  11.257 -0.2809 -0.1790 -0.0643
 4540W        W 8059   0.401   8.360  12.426 -0.0075  0.0357 -0.3678
 4541W        W 8060   3.355   1.166   3.612  0.1587 -0.1122 -0.0255
 4542W        W 8061   1.400   9.417   9.012 -0.1359 -0.2987 -0.0036
 4543W        W 8062   0.959   2.878  11.763 -0.0317 -0.1749  0.0031
 4544W        W 8063   8.076   4.822   3.052 -0.2529  0.2052  0.1935
 4545W        W 8064   4.927   6.280   9.513  0.0913  0.1826  0.2602
 4546W        W 8065   2.037   9.272   1.187 -0.1049  0.2398 -0.1148
 4547W        W 8066   5.128   1.014   2.958  0.0115 -0.3735  0.3504
 4548W        W 8067   7.019   7.193   9.624 -0.0138 -0.0939 -0.1983
 4549W        W 8068   6.173   0.213  11.233 -0.3689  0.3027 -0.2748
 4550W        W 8069   8.424   2.461   1.320  0.3625 -0.4791 -0.1168
 4551W        W 8070   6.396   7.822   1.292 -0.0152  0.0826 -0.2068
 4552W        W 8071   9.335   1.141   1.217 -0.2105 -0.2315 -0.0780
 4553W        W 8072   8.973   5.167   0.428  0.0964 -0.0184 -0.0005
 4554W        W 8073   6.998   8.769   3.206  0.2554  0.0468  0.0494
 4555W        W 8074   2.772   5.663   9.211 -0.1766 -0.1826  0.1250
 4556W        W 8075   5.769   9.184  11.635 -0.2309  0.1896 -0.1830
 4557W        W 8076   7.202   4.271   4.298  0.1955  0.0217  0.2325
 4558W        W 8077   2.217   6.569  11.145 -0.2675  0.3088  0.0800
 4559W        W 8078   0.859   8.046   3.362  0.3603  0.0478  0.1403
 4560W        W 8079   4.597   8.192   0.429 -0.3126  0.1423 -0.1250
 4561W        W 8080   3.064   2.008   8.855  0.0219 -0.0773  0.3895
 4562W        W 8081   5.269   7.975   1.895  0.0313 -0.1042  0.3000
 4563W        W 8082   7.177   3.164   9.357 -0.0903  0.1608 -0.0328
 4564W        W 8083   7.607   3.217   0.446 -0.1377 -0.2314  0.1296
 4565W        W 8084   8.916   0.608   1.971 -0.1730 -0.3827  0.2023
 4566W        W 8085   1.260   2.401   1.595 -0.1589 -0.2020  0.0283
 4567W        W 8086   8.487   1.332   1.620 -0.1409 -0.0025  0.0576
 4568W        W 8087   0.986   4.188  11.990  0.4060 -0.1053 -0.1480
 4569W        W 8088   8.164   4.339  12.106  0.2371  0.0924 -0.2078
 4570W        W 8089   6.550   7.841   0.164 -0.1903  0.2055  0.1237
 4571W        W 8090   0.300   0.081  11.767 -0.0711  0.0411 -0.0651
 4572W        W 8091   1.339   3.091   4.091 -0.2230  0.0022 -0.0790
 4573W        W 8092   0.324   3.756   9.566 -0.2289 -0.0209 -0.1163
 4574W        W 8093   4.580   7.870   1.236  0.0486  0.2157  0.2957
 4575W        W 8094   8.562   5.772  12.457 -0.0966 -0.0265  0.0330
 4576W        W 8095   1.231   6.357   4.427  0.0360 -0.0222  0.0009
 4577W        W 8096   3.362   4.328  12.057  0.1018 -0.1539  0.2176
 4578W        W 8097   5.042   7.454  10.581  0.3403 -0.1565 -0.0422
 4579W        W 8098   6.231   4.821  10.075  0.1109 -0.0021 -0.0113
 4580W        W 8099   2.371   4.179   9.786 -0.1318  0.0183 -0.0503
 4581W        W 8100   9.649   4.796   4.401  0.0669  0.1154 -0.1678
 4582W        W 8101   8.521   8.741   0.950 -0.1086  0.1335 -0.4638
 4583W        W 8102   0.988   6.550   9.267  0.3344 -0.1471 -0.0116
 4584W        W 8103   1.631   0.817  12.025  0.0549  0.2529 -0.0235
 4585W        W 8104   4.551   5.484  11.024  0.1764  0.0127 -0.2548
 4586W        W 8105   4.715   8.086   9.387 -0.0443 -0.0350 -0.1887
 4587W        W 8106   2.839   7.682  10.811  0.0764 -0.0118  0.0056
 4588W        W 8107   4.028   1.836   4.002 -0.2362 -0.2963  0.0356
 4589W        W 8108   3.789   2.100   4.332 -0.1448  0.0178 -0.1325
 4590W        W 8109   1.880   5.150   0.628  0.0500 -0.1145  0.0768
 4591W        W 8110   9.695   1.268   9.399  0.2943 -0.5493  0.1009
 4592W        W 8111   6.868   0.926   9.410  0.2345 -0.0756 -0.2117
 4593W        W 8112   8.254   7.687   9.767  0.3086 -0.2237  0.2102
 4594W        W 8113   7.542   2.694  10.039  0.1387 -0.0082 -0.0361
 4595W        W 8114   9.424   8.078   2.534  0.4516 -0.1543  0.5128
 4596W        W 8115   4.521   0.019   1.368  0.0995  0.0931 -0.2021
 4597W        W 8116   8.124   2.919   9.569  0.1502 -0.0817 -0.0457
 4598W        W 8117   0.856   7.490   9.322  0.2676  0.1190  0.0179
 4599W        W 8118   3.790   6.593   2.473 -0.3307  0.0415 -0.1183
 4600W        W 8119   9.031   1.327   2.624 -0.2218  0.1793  0.0057
 4601W        W 8120   9.099   3.940  11.726 -0.0091 -0.1413 -0.3397
 4602W        W 8121   4.027   9.250   1.950  0.1391  0.0161 -0.1780
 4603W        W 8122   3.181   5.782  10.181 -0.1264  0.2535 -0.1525
 4604W        W 8123   4.090   3.948   9.515 -0.0672  0.1108 -0.3267
 4605W        W 8124   4.897   8.259   8.944  0.0553  0.2212 -0.0276
 4606W        W 8125   6.390   3.809   2.338  0.1304 -0.0991 -0.0510
 4607W        W 8126   6.468   2.721  10.764  0.1456 -0.2811  0.1459
 4608W        W 8127   6.808   3.740  10.609  0.1072 -0.2440 -0.0814
 4609W        W 8128   4.143   6.080  10.085 -0.0769  0.0528 -0.3752
 4610W        W 8129   5.585   6.608  12.307  0.3400  0.2256  0.4476
 4611W        W 8130   0.497   8.207  11.500  0.0969 -0.1208 -0.0965
 4612W        W 8131   2.891   4.730   1.355  0.0740 -0.1438  0.4786
 4613W        W 8132   6.992   5.744   2.823  0.1261  0.0107  0.0443
 4614W        W 8133   6.283   5.526  11.853 -0.0050  0.2535  0.0980
 4615W        W 8134   4.921   9.336   2.052  0.1844  0.1447  0.0222
 4616W        W 8135   4.551   9.429   9.614  0.2166  0.3365 -0.2546
 4617W        W 8136   5.670   2.357  12.245  0.1234  0.1344 -0.0950
 4618W        W 8137   6.870   1.138   9.852 -0.4966  0.0720 -0.1628
 4619W        W 8138   0.184   7.978   4.873  0.2163  0.1435 -0.1727
 4620W        W 8139   4.642   7.215   8.222  0.1919  0.0753  0.0397
 4621W        W 8140   0.293   9.572  11.171  0.3076  0.0403  0.2814
 4622W        W 8141   5.421   4.006  11.338 -0.4898  0.1236 -0.2777
 4623W        W 8142   1.129   6.353   8.451 -0.1137  0.3062  0.1424
 4624W        W 8143   0.187   7.207   9.634  0.0911  0.0917  0.2138
 4625W        W 8144   4.665   1.219  10.000 -0.3765 -0.3032 -0.0658
 4626W        W 8145   6.392   7.423   1.629  0.0104 -0.2412 -0.1511
 4627W        W 8146   9.102   1.906  11.535  0.1795  0.0663  0.0129
 4628W        W 8147   2.415   8.252   1.811 -0.0189  0.0273 -0.0254
 4629W        W 8148   1.435   8.553   2.176  0.1301  0.2601  0.2743
 4630W        W 8149   0.746   2.142  11.127 -0.2374 -0.2383  0.0452
 4631W        W 8150   8.934   7.750  11.767  0.0771  0.0810  0.0121
 4632W        W 8151   5.934   2.033   0.956 -0.1225  0.2277 -0.2396
 4633W        W 8152   8.951   1.805   0.121 -0.0304 -0.0887  0.1269
 4634W        W 8153   8.992   1.648   3.325 -0.3022 -0.1160  0.1884
 4635W        W 8154   9.259   1.658  11.109  0.3165 -0.1576 -0.1606
 4636W        W 8155   5.104   2.650   0.315 -0.1502 -0.0664 -0.0364
 4637W        W 8156   1.776   5.351  10.888  0.0535 -0.0398 -0.2650
 4638W        W 8157   5.517   3.913   0.635 -0.1045  0.4060 -0.1106
 4639W        W 8158   6.206   9.578  11.662 -0.0307  0.1101 -0.1880
 4640W        W 8159   8.177   5.991  11.108  0.2833 -0.1426  0.0542
 4641W        W 8160   1.256   2.770   1.909 -0.0517 -0.1408  0.0285
 4642W        W 8161   4.970   0.998  10.886 -0.0317 -0.0956 -0.2730
 4643W        W 8162   3.422   7.233   1.446 -0.2479  0.2149  0.0628
 4644W        W 8163   4.106   2.235  10.161 -0.1570  0.2349 -0.0240
 4645W        W 8164   8.400   8.873  10.477 -0.1636  0.0459 -0.2409
 4646W        W 8165   7.604   1.589   9.264  0.2058 -0.1781 -0.4075
 4647W        W 8166   0.699   9.269   3.727 -0.0057  0.1535  0.0430
 4648W        W 8167   5.121   6.531   2.867 -0.1353  0.3831 -0.2989
 4649W        W 8168   0.504   5.783   0.165 -0.1512  0.4087  0.0652
 4650W        W 8169   2.592   7.894  11.201 -0.0077 -0.0921  0.2173
 4651W        W 8170   3.423   2.433   4.063  0.0924 -0.0764  0.0880
 4652W        W 8171   3.299   3.107   3.415 -0.1511 -0.1243 -0.0418
 4653W        W 8172   3.607   9.671   2.999 -0.0543 -0.1381 -0.2230
 4654W        W 8173   1.556   6.558   3.157  0.2807  0.4430  0.2813
 4655W        W 8174   4.133   3.132  11.509  0.1672  0.1788  0.2216
 4656W        W 8175   3.217   8.331   0.628 -0.1046 -0.1646 -0.0903
 4657W        W 8176   4.659   4.598   0.956  0.0762 -0.0788 -0.1257
 4658W        W 8177   8.386   7.684  10.859  0.2861 -0.0473 -0.3305
 4659W        W 8178   8.907   9.679   2.726 -0.1343  0.1411 -0.1867
 4660W        W 8179   0.632   2.620   3.635 -0.0185 -0.0805 -0.1467
 4661W        W 8180   4.237   6.957  11.984 -0.2642  0.1026 -0.0793
 4662W        W 8181   9.215   2.005  10.702  0.1376  0.1658  0.1129
 4663W        W 8182   9.011   0.177   3.169 -0.1020 -0.3813 -0.1339
 4664W        W 8183   1.983   3.345   1.083 -0.0110 -0.0629 -0.4126
 4665W        W 8184   6.463   6.263   2.497 -0.0266 -0.0162 -0.0428
 4666W        W 8185   6.036   0.988   3.194  0.2239  0.0386 -0.1064
 4667W        W 8186   5.120   6.157   0.332 -0.1329 -0.0622 -0.2385
 4668W        W 8187   6.882   3.669   3.348 -0.0362  0.4370  0.2509
 4669W        W 8188   8.016   4.055   0.425 -0.0382  0.0931  0.0306
 4670W        W 8189   4.500   0.456   1.555  0.2893 -0.1543 -0.0857
 4671W        W 8190   8.792   3.566   1.208  0.3017 -0.2684  0.1711
 4672W        W 8191   2.037   8.895  11.018  0.1984 -0.0608 -0.0311
 4673W        W 8192   9.135   2.768   0.652 -0.1486  0.0707 -0.1628
 4674W        W 8193   3.973   5.652   3.451 -0.0172  0.0303 -0.2513
 4675W        W 8194   7.014   5.830  12.109  0.0899  0.3085 -0.3808
 4676W        W 8195   8.915   0.309   0.694 -0.0908 -0.3634  0.0116
 4677W        W 8196   8.798   8.101  12.248 -0.1085  0.2512  0.1457
 4678W        W 8197   9.206   8.002  11.468 -0.1891 -0.0255  0.1698
 4679W        W 8198   6.711   2.326  11.380  0.1579 -0.0045 -0.0919
 4680W        W 8199   7.382   6.315   0.594 -0.0531  0.0357  0.2905
 4681W        W 8200   0.084   7.346  11.764 -0.0614  0.1181  0.1311
 4682W        W 8201   8.862   0.343  12.236  0.3449  0.1209  0.1013
 4683W        W 8202   9.063   3.953   9.656  0.3366 -0.0711 -0.0528
 4684W        W 8203   3.756   3.809   9.886  0.0925 -0.3175  0.0402
 4685W        W 8204   5.674   2.392   2.907 -0.2270  0.0044  0.1139
 4686W        W 8205   2.716   5.703  12.304 -0.4702 -0.0325 -0.1261
 4687W        W 8206   2.084   7.885  12.503  0.1758  0.4259 -0.2542
 4688W        W 8207   4.967   5.169   0.850 -0.1366 -0.2307 -0.5555
 4689W        W 8208   7.609   7.719   2.510 -0.0700  0.1887 -0.1253
 4690W        W 8209   5.025   7.046  11.728 -0.1011 -0.0669 -0.1380
 4691W        W 8210   2.161   7.007   0.442 -0.1982  0.1336 -0.0894
 4692W        W 8211   2.491   0.069   1.214 -0.3223  0.0116  0.3196
 4693W        W 8212   6.426   8.038   2.983 -0.4312 -0.0138 -0.0470
 4694W        W 8213   1.153   1.929   9.278 -0.0555 -0.3352 -0.0320
 4695W        W 8214   4.292   9.361   1.015 -0.1940  0.3226  0.1148
 4696W        W 8215   0.842   2.448   1.303 -0.1206 -0.0114  0.0192
 4697W        W 8216   7.121   4.273   0.768  0.1001 -0.0928  0.3205
 4698W        W 8217   4.400   3.653  11.928 -0.2244 -0.1806  0.0038
 4699W        W 8218   7.161   5.621   0.039  0.1200 -0.1057 -0.0233
 4700W        W 8219   3.577   2.887  10.542 -0.2665 -0.0716  0.0531
 4701W        W 8220   2.292   6.796  11.935  0.0767 -0.0638  0.0167
 4702W        W 8221   6.193   0.580  11.630  0.0532 -0.0697 -0.2447
 4703W        W 8222   2.936   4.674   4.624 -0.3750  0.2976  0.0071
 4704W        W 8223   3.065   4.055  10.477 -0.1918  0.1628  0.0701
 4705W        W 8224   2.781   0.411  10.169  0.0274  0.0608  0.0614
 4706W        W 8225   0.921   9.145   3.144  0.2586 -0.0873  0.0663
 4707W        W 8226   2.126   7.950   3.863  0.2386  0.0057  0.0158
 4708W        W 8227   3.106   5.940   3.129 -0.0239 -0.0065  0.3392
 4709W        W 8228   5.584   3.940  11.894 -0.0890  0.0756  0.1969
 4710W        W 8229   0.054   4.104  10.468 -0.1118  0.1623 -0.0280
 4711W        W 8230   6.977   4.620   3.860 -0.2381 -0.2725  0.0575
 4712W        W 8231   2.485   2.825  11.854 -0.0894  0.3147 -0.0606
 4713W        W 8232   3.707   2.080  11.080  0.2844 -0.0762  0.1311
 4714W        W 8233   2.158   1.966   7.962 -0.2877 -0.0017  0.1060
 4715W        W 8234   4.806   5.922   8.522  0.0471 -0.0623 -0.0330
 4716W        W 8235   9.276   8.046   1.005  0.0098 -0.1630 -0.3122
 4717W        W 8236   0.220   8.642  11.951 -0.1565  0.1778  0.3878
 4718W        W 8237   4.359   2.501  11.322  0.0626 -0.1608  0.2527
 4719W        W 8238   2.865   5.614  10.603  0.0905  0.0480 -0.3377
 4720W        W 8239   4.093   3.267   2.264  0.2085 -0.1002 -0.2268
 4721W        W 8240   1.621   4.858  11.509  0.0367  0.2191 -0.0164
 4722W        W 8241   0.325   6.875   2.719  0.2088  0.0572 -0.2996
 4723W        W 8242   6.224   1.171  10.863 -0.0263  0.0524  0.0856
 4724W        W 8243   3.412   3.651  11.190  0.0844  0.0546  0.1256
 4725W        W 8244   0.018   5.319   9.315 -0.1264 -0.1038 -0.3369
 4726W        W 8245   6.354   5.671   1.168  0.2186  0.0937 -0.0977
 4727W        W 8246   5.640   7.685   0.244 -0.0392 -0.1058  0.0896
 4728W        W 8247   2.241   5.585   9.013 -0.0481 -0.0422  0.1007
 4729W        W 8248   8.618   3.035   3.516  0.0248 -0.4907  0.3053
 4730W        W 8249   5.919   4.452  10.793  0.3934 -0.0269  0.1328
 4731W        W 8250   1.301   5.049  12.361  0.1295  0.4854 -0.2367
 4732W        W 8251   5.545   2.394  10.751 -0.0224 -0.3258  0.1775
 4733W        W 8252   9.140   7.712  10.280  0.1986 -0.0679 -0.1442
 4734W        W 8253   6.298   5.024   3.816  0.2202 -0.1825 -0.0336
 4735W        W 8254   3.391   6.300   0.693  0.2858 -0.1130  0.0885
 4736W        W 8255   2.683   3.609   9.359 -0.1333  0.1879  0.0158
 4737W        W 8256   7.652   8.284   9.129  0.1855  0.2400  0.1603
 4738W        W 8257   1.391   9.397   1.779 -0.1664  0.1815  0.4284
 4739W        W 8258   8.308   0.007   9.761  0.0943 -0.2237  0.1924
 4740W        W 8259   2.699   9.333   2.531  0.1076  0.1153 -0.0575
 4741W        W 8260   9.171   4.833   2.957  0.0854  0.1247 -0.0717
 4742W        W 8261   4.984   3.515   1.640 -0.2364  0.2382  0.0248
 4743W        W 8262   8.324   5.825   0.370  0.1088  0.2161  0.2497
 4744W        W 8263   4.233   6.647   1.695 -0.1170  0.0613 -0.1713
 4745W        W 8264   5.899   5.432   1.052 -0.0878 -0.2147 -0.0391
 4746W        W 8265   3.128   9.145   1.563 -0.3016  0.1568  0.1261
 4747W        W 8266   8.658   0.969  12.047 -0.0488 -0.1347 -0.2026
 4748W        W 8267   5.052   1.499   9.167  0.1589 -0.1636 -0.2005
 4749W        W 8268   0.033   8.317  10.549 -0.0045  0.1128 -0.2654
 4750W        W 8269   6.923   6.172  11.712  0.3410  0.0745  0.0105
 4751W        W 8270   5.324   1.713   3.337  0.1259  0.0031 -0.1703
 4752W        W 8271   9.531   2.088  11.368 -0.1968 -0.0756  0.0723
 4753W        W 8272   6.779   0.459   0.456 -0.0593  0.1485 -0.1498
 4754W        W 8273   4.225   8.046   0.830  0.0910  0.0257  0.0544
 4755W        W 8274   4.383   0.990   9.191 -0.2533 -0.2660  0.2037
 4756W        W 8275   7.284   2.780   1.711 -0.0753  0.3502  0.0342
 4757W        W 8276   1.526   9.458  11.363  0.1702 -0.0063 -0.1772
 4758W        W 8277   2.777   1.887   8.416  0.0122  0.2816  0.0046
 4759W        W 8278   0.609   0.331   9.736  0.0828 -0.1607  0.2808
 4760W        W 8279   4.394   6.771   2.154 -0.0232 -0.2508  0.0631
 4761W        W 8280   0.218   2.553   0.463 -0.1137 -0.1198  0.0813
 4762W        W 8281   3.329   5.620   1.923 -0.2660  0.0713  0.1169
 4763W        W 8282   5.130   3.759   2.045  0.2032 -0.1359 -0.2616
 4764W        W 8283   7.470   8.556  11.337  0.1517 -0.2491 -0.1056
 4765W        W 8284   5.000   0.555   1.677 -0.1177  0.0080 -0.0473
 4766W        W 8285   1.045   2.954   0.372 -0.0849  0.1742  0.0915
 4767W        W 8286   4.848   5.446   8.345  0.2672  0.0641  0.1790
 4768W        W 8287   1.681   5.814  11.272 -0.1097 -0.3406 -0.0672
 4769W        W 8288   6.697   5.981  11.249  0.0275 -0.2832 -0.0616
 4770W        W 8289   0.747   7.556   0.423 -0.0312  0.1715  0.2629
 4771W        W 8290   4.505   3.713   2.698  0.0705  0.1139  0.1697
 4772W        W 8291   0.984   4.179  12.509 -0.0126  0.4522 -0.0370
 4773W        W 8292   2.118   6.804   9.566 -0.1290 -0.0205  0.1331
 4774W        W 8293   5.947   8.286   9.849 -0.0534 -0.0316 -0.0160
 4775W        W 8294   9.109   9.487  11.902  0.5216  0.0042  0.0859
 4776W        W 8295   8.270   4.759  12.318  0.0772 -0.0499 -0.0391
 4777W        W 8296   0.363   7.674   9.464  0.0563  0.2430 -0.0489
 4778W        W 8297   4.571   3.681  10.982  0.0273  0.2497  0.1672
 4779W        W 8298   0.284   1.522  10.217 -0.3078 -0.2285  0.1505
 4780W        W 8299   0.923   8.868   1.091  0.0124  0.1068 -0.2552
 4781W        W 8300   3.522   0.822  11.322  0.2686  0.0327 -0.1994
 4782W        W 8301   6.870   6.125   3.867  0.0331 -0.0196 -0.1764
 4783W        W 8302   9.013   7.879   2.287  0.1833  0.0583  0.4251
 4784W        W 8303   0.042   0.026   8.876 -0.1559  0.0124  0.1886
 4785W        W 8304   9.066   7.888   9.202 -0.1296 -0.0020  0.0222
 4786W        W 8305   7.517   0.672  11.273  0.1431 -0.1541  0.1431
 4787W        W 8306   4.209   0.671   1.121 -0.3331  0.2685  0.0362
 4788W        W 8307   6.167   0.267  12.097 -0.0043 -0.0237  0.1362
 4789W        W 8308   9.670   6.505  12.069 -0.4670  0.4495 -0.3312
 4790W        W 8309   1.296   5.120   3.782  0.0151 -0.1049  0.1406
 4791W        W 8310   1.088   0.172   0.828  0.0481 -0.0185  0.0575
 4792W        W 8311   5.343   5.733   4.673 -0.1788 -0.2865  0.1314
 4793W        W 8312   9.077   6.863   8.280 -0.0373 -0.0839  0.2065
 4794W        W 8313   3.412   1.294   1.999  0.0015  0.1729  0.0125
 4795W        W 8314   9.408   2.032   1.506  0.2202 -0.2383  0.1668
 4796W        W 8315   6.066   6.623  10.204 -0.0971 -0.0298  0.2703
 4797W        W 8316   3.970   4.601  10.234 -0.3119  0.0276  0.3056
 4798W        W 8317   0.546   6.700   1.478 -0.1521 -0.1105 -0.3217
 4799W        W 8318   2.223   0.931   8.987  0.0249 -0.4211  0.1196
 4800W        W 8319   1.366   6.987   0.683 -0.1320 -0.0798  0.2359
 4801W        W 8320   3.452   0.177   9.771 -0.0538  0.0390 -0.0614
 4802W        W 8321   4.086   7.046  12.467  0.0706 -0.1944  0.1688
 4803W        W 8322   6.376   0.856   1.548  0.0273 -0.2879 -0.0614
 4804W        W 8323   7.712   0.224  10.112 -0.3567 -0.0452 -0.2031
 4805W        W 8324   1.129   3.824   1.679  0.2371 -0.3310  0.1480
 4806W        W 8325   5.967   1.091   0.778  0.1286 -0.1610  0.0054
 4807W        W 8326   1.392   9.106   0.325  0.1041 -0.0395 -0.1841
 4808W        W 8327   5.926   6.401   0.049 -0.2116 -0.3525  0.0023
 4809W        W 8328   4.618   5.198   9.301  0.2325  0.0816 -0.0840
 4810W        W 8329   5.728   7.937  10.317 -0.0656  0.1599 -0.0283
 4811W        W 8330   4.418   4.346   9.652  0.1139 -0.0942 -0.3984
 4812W        W 8331   0.046   7.007   1.848 -0.2229 -0.0828 -0.3095
 4813W        W 8332   9.331   8.493  11.450  0.1096  0.2680 -0.2706
 4814W        W 8333   1.621   7.011  10.612  0.2291 -0.1127  0.0686
 4815W        W 8334   4.678   5.995  10.422 -0.1164  0.0274  0.1098
 4816W        W 8335   2.131   8.777   3.998  0.1201 -0.0929 -0.1651
 4817W        W 8336   1.860   7.614  11.656  0.0970 -0.1500  0.1635
 4818W        W 8337   8.671   6.648   3.875 -0.3040 -0.0610 -0.2710
 4819W        W 8338   0.356   5.950   2.900 -0.1578 -0.0057 -0.0812
 4820W        W 8339   2.321   5.940  12.201  0.2333 -0.2330 -0.2486
 4821W        W 8340   9.387   2.051   3.542  0.1228  0.1429  0.1019
 4822W        W 8341   7.175   2.248   3.322 -0.3147 -0.0328  0.0091
 4823W        W 8342   3.086   4.693   8.808  0.0664 -0.0754 -0.0750
 4824W        W 8343   6.031   5.448   3.672  0.0712  0.1897  0.0120
 4825W        W 8344   2.874   5.230   2.699  0.0734 -0.1262 -0.3252
 4826W        W 8345   5.575   6.954  11.604  0.2581  0.3632  0.0179
 4827W        W 8346   0.293   7.032   1.193 -0.0538 -0.0661  0.3765
 4828W        W 8347   5.606   2.290   1.588 -0.0491  0.1307 -0.1809
 4829W        W 8348   3.828   4.994   3.672  0.0336  0.0163 -0.0209
 4830W        W 8349   4.687   8.438  11.989 -0.4812 -0.0010 -0.0851
 4831W        W 8350   9.006   4.299   2.142  0.5245  0.0456  0.1082
 4832W        W 8351   7.805   9.185  12.015  0.0022  0.0988  0.0086
 4833W        W 8352   6.343   3.772   9.813  0.2385  0.0687 -0.1313
 4834W        W 8353   2.001   8.312  12.286 -0.0697 -0.0637  0.2904
 4835W        W 8354   9.144   2.243  12.355 -0.2160  0.2826  0.2391
 4836W        W 8355   4.584   8.664   3.475  0.1505  0.2561  0.0351
 4837W        W 8356   2.612   8.777   8.447 -0.3182 -0.0958  0.3676
 4838W        W 8357   2.245   7.540   2.824  0.0278 -0.0076  0.0472
 4839W        W 8358   8.354   2.868   1.802 -0.0015 -0.1582 -0.1766
 4840W        W 8359   1.888   7.151   2.872 -0.0350  0.1929 -0.1009
 4841W        W 8360   9.529   4.617   2.686  0.2500 -0.2314 -0.4098
 4842W        W 8361   4.307   5.019  11.484 -0.0186  0.0624  0.0230
 4843W        W 8362   5.606   1.560  12.087 -0.0772  0.3840 -0.0367
 4844W        W 8363   8.436   3.480  12.315 -0.1220  0.0544 -0.1308
 4845W        W 8364   2.457   0.540   1.416  0.0203  0.0652 -0.0508
 4846W        W 8365   5.954   7.453   1.346 -0.3357 -0.0189 -0.0961
 4847W        W 8366   5.672   3.467   0.466 -0.1597 -0.0986  0.4028
 4848W        W 8367   1.075   9.624   3.201 -0.0090  0.2457  0.2245
 4849W        W 8368   0.394   6.605  12.430  0.1206  0.2929 -0.3049
 4850W        W 8369   1.045   1.094   3.852 -0.2884  0.2226 -0.2528
 4851W        W 8370   7.115   5.401   9.806  0.4154  0.6042  0.1728
 4852W        W 8371   0.347   4.756   9.293  0.0367 -0.1226  0.2542
 4853W        W 8372   4.251   1.287  10.443  0.0061  0.0973 -0.4665
 4854W        W 8373   5.109   4.698   2.867  0.0938  0.1222 -0.0195
 4855W        W 8374   0.863   6.194   2.857 -0.0157 -0.3441  0.0321
 4856W        W 8375   7.530   1.775   1.617 -0.0752 -0.0377 -0.0183
 4857W        W 8376   8.524   4.521  10.383  0.1239 -0.0294  0.0100
 4858W        W 8377   5.009   3.986   9.404  0.4487  0.2298  0.0213
 4859W        W 8378   5.909   2.696   2.551 -0.1186  0.2141  0.0561
 4860W        W 8379   9.335   4.956   9.909  0.1121  0.2148  0.0220
 4861W        W 8380   9.141   4.733   1.591  0.1058 -0.3148  0.1008
 4862W        W 8381   0.506   7.759   3.145 -0.2729  0.3333 -0.1219
 4863W        W 8382   5.557   7.787   1.205  0.2181  0.0024  0.0043
 4864W        W 8383   9.636   7.132   2.505 -0.4399 -0.1738  0.0916
 4865W        W 8384   2.836   0.395   1.910 -0.1001  0.3078 -0.0980
 4866W        W 8385   2.872   8.930   2.951  0.0633  0.0256 -0.3225
 4867W        W 8386   1.945   2.419   9.177 -0.0884  0.1144 -0.2608
 4868W        W 8387   2.729   5.552   0.607  0.1059  0.0999 -0.1316
 4869W        W 8388   5.730   7.961   3.601 -0.2564  0.1824 -0.2024
 4870W        W 8389   0.363   2.848  11.632  0.1374 -0.0265 -0.0619
 4871W        W 8390   3.118   7.153   9.116 -0.1975  0.0504 -0.0539
 4872W        W 8391   1.248   7.268   3.503  0.0970  0.0806 -0.0723
 4873W        W 8392   8.282   1.040  10.289 -0.0950 -0.0682 -0.0451
 4874W        W 8393   5.923   6.912   2.257 -0.0433 -0.0386 -0.4233
 4875W        W 8394   7.343   9.368   0.468 -0.0001 -0.0344  0.1613
 4876W        W 8395   7.346   3.006  10.413  0.0389  0.0037  0.2103
 4877W        W 8396   4.963   9.398   1.510 -0.0318  0.1389 -0.1095
 4878W        W 8397   4.828   3.511   9.433  0.0798  0.3325 -0.4230
 4879W        W 8398   1.655   7.590   3.683 -0.2280 -0.0493  0.4104
 4880W        W 8399   1.143   0.310  10.996  0.1391 -0.1634 -0.1377
 4881W        W 8400   7.959   9.592  11.411 -0.0088 -0.5068  0.2948
 4882W        W 8401   0.167   2.661   9.524  0.1041  0.0739 -0.1800
 4883W        W 8402   0.501   0.026   2.482  0.0614 -0.0208 -0.1275
 4884W        W 8403   5.133   3.710   0.412  0.1225 -0.0891  0.1082
 4885W        W 8404   2.587   1.785   8.857  0.1341  0.1488  0.1265
 4886W        W 8405   2.985   8.404   2.843  0.2275 -0.2066  0.2869
 4887W        W 8406   8.084   8.191   9.914 -0.0106  0.1278  0.0504
 4888W        W 8407   6.450   4.971   4.323  0.1910 -0.0894  0.3811
 4889W        W 8408   5.216   9.599  10.851 -0.3011  0.0568  0.0367
 4890W        W 8409   3.489   8.908  12.062 -0.0071  0.2788  0.2071
 4891W        W 8410   2.389   8.886  10.487 -0.1817 -0.3607  0.1060
 4892W        W 8411   3.293   1.674  11.501  0.1131  0.0556 -0.0294
 4893W        W 8412   8.553   8.655   2.705  0.1325  0.1942  0.0427
 4894W        W 8413   7.172   0.324   3.623 -0.0194  0.0168  0.2442
 4895W        W 8414   5.192   5.597   0.597 -0.0169  0.4042 -0.2999
 4896W        W 8415   4.626   0.954  10.523 -0.0271 -0.3646 -0.0500
 4897W        W 8416   8.357   7.779   4.226 -0.1568 -0.2347 -0.0264
 4898W        W 8417   8.415   6.763   9.728  0.2962  0.1769 -0.1664
 4899W        W 8418   5.161   0.997  11.824 -0.0467 -0.5599 -0.1120
 4900W        W 8419   4.985   6.109  11.305  0.0117 -0.1687  0.4771
 4901W        W 8420   1.099   4.888   4.169 -0.1723  0.4328 -0.0453
 4902W        W 8421   8.073   2.242   0.812  0.2343 -0.0002 -0.3124
 4903W        W 8422   9.550   9.415  11.179  0.0110 -0.1102 -0.0344
 4904W        W 8423   8.508   1.787   2.294 -0.1617  0.0334 -0.0509
 4905W        W 8424   6.869   7.359   1.806  0.1758 -0.5377 -0.3160
 4906W        W 8425   4.449   7.301   3.977 -0.0451 -0.1714  0.1658
 4907W        W 8426   6.460   2.234   8.816  0.0391  0.3656 -0.1949
 4908W        W 8427   1.818   5.350  11.438  0.1014  0.1530 -0.1791
 4909W        W 8428   6.141   9.715  10.329  0.1425  0.1151  0.0233
 4910W        W 8429   4.915   4.118   2.872 -0.0392 -0.1820 -0.2677
 4911W        W 8430   7.027   0.626   9.806 -0.2255  0.1262 -0.1254
 4912W        W 8431   7.171   0.168   9.215  0.1943 -0.0878 -0.1705
 4913W        W 8432   4.068   3.699   1.811  0.0313 -0.2198  0.1397
 4914W        W 8433   5.441   6.583   3.723 -0.2364  0.0670 -0.2087
 4915W        W 8434   3.052   2.746   1.614  0.1873  0.0002  0.0416
 4916W        W 8435   5.377   0.067   0.274 -0.1177  0.2948 -0.1045
 4917W        W 8436   8.427   8.645   4.644  0.1566  0.2730 -0.2224
 4918W        W 8437   4.725   3.918  10.476 -0.3304 -0.0753  0.5264
 4919W        W 8438   5.200   9.631  12.284  0.0542  0.0512 -0.0445
 4920W        W 8439   2.126   0.838   3.191  0.0043  0.0073 -0.0434
 4921W        W 8440   0.152   4.783  10.127  0.1256 -0.0384 -0.0657
 4922W        W 8441   4.011   5.678  11.801 -0.2186  0.1603  0.1278
 4923W        W 8442   8.815   5.150   1.708  0.0116 -0.1533  0.0331
 4924W        W 8443   1.854   2.560   1.868 -0.0674  0.2987 -0.0681
 4925W        W 8444   5.225   9.056   8.960 -0.0422  0.2182 -0.3677
 4926W        W 8445   9.452   2.231   4.378 -0.1767 -0.3408 -0.0916
 4927W        W 8446   8.217   7.242   9.925  0.0195  0.3014  0.1100
 4928W        W 8447   8.012   1.723   2.359 -0.0286 -0.1962  0.1936
 4929W        W 8448   6.483   5.786   2.611 -0.0817  0.5534  0.0411
 4930W        W 8449   3.512   5.103   0.773 -0.1107 -0.1632 -0.1328
 4931W        W 8450   1.440   0.647   1.377  0.0463  0.0239  0.0501
 4932W        W 8451   7.644   7.740   1.023  0.2943 -0.0244  0.0734
 4933W        W 8452   8.363   8.026   0.022  0.0318  0.2447 -0.0547
 4934W        W 8453   5.415   6.109   2.149  0.0339 -0.0704 -0.1640
 4935W        W 8454   3.743   7.764   1.689  0.1795  0.1040  0.1592
 4936W        W 8455   9.029   3.832   3.359  0.0126  0.2017  0.1874
 4937W        W 8456   4.586   6.816   9.910  0.0693 -0.2356  0.0698
 4938W        W 8457   0.430   4.966   0.718  0.1365 -0.4011  0.1178
 4939W        W 8458   7.341   4.245   3.753  0.2614  0.0338 -0.1143
 4940W        W 8459   8.198   0.110  10.450 -0.2684 -0.2342 -0.1556
 4941W        W 8460   6.442   6.763   1.117 -0.0588 -0.1379  0.1606
 4942W        W 8461   2.521   0.125   9.870  0.2066  0.0826 -0.2950
 4943W        W 8462   9.504   2.909   9.245 -0.3591  0.1447 -0.0137
 4944W        W 8463   2.467   7.040   9.901 -0.1380 -0.0353 -0.1115
 4945W        W 8464   7.076   0.458  11.618 -0.1486 -0.3928  0.0932
 4946W        W 8465   4.962   1.259   0.841  0.1786 -0.1590 -0.1352
 4947W        W 8466   6.514   6.519   8.556 -0.0063 -0.1394  0.0102
 4948W        W 8467   5.365   5.318   2.071 -0.1310 -0.0020  0.0370
 4949W        W 8468   9.471   5.467  10.524  0.3511  0.1732 -0.4466
 4950W        W 8469   0.883   1.455  10.439 -0.0951 -0.0175  0.3610
 4951W        W 8470   5.869   6.469  11.841 -0.1567 -0.0917 -0.2488
 4952W        W 8471   5.737   5.940   9.497  0.1956 -0.1874  0.0004
 4953W        W 8472   5.797   1.869   9.667 -0.3543 -0.2816  0.3252
 4954W        W 8473   2.479   0.073   3.234 -0.1367 -0.1241 -0.1623
 4955W        W 8474   2.029   5.603   1.285 -0.0843  0.1976 -0.2734
 4956W        W 8475   2.917   4.395   9.689 -0.0601  0.1112  0.0877
 4957W        W 8476   1.989   0.417  11.567 -0.1191  0.3453 -0.0953
 4958W        W 8477   8.708   4.736   0.065  0.1970 -0.2776 -0.0713
 4959W        W 8478   2.551   0.803  10.387  0.1938 -0.4059  0.2496
 4960W        W 8479   9.592   2.558   2.568 -0.0196  0.2141 -0.1636
 4961W        W 8480   7.397   0.560   0.855 -0.0451  0.0800  0.1430
 4962W        W 8481   5.792   1.726   9.215 -0.1463 -0.0071 -0.0332
 4963W        W 8482   1.854   5.398   3.919  0.1232 -0.2390  0.1712
 4964W        W 8483   3.779   5.416   1.636  0.3559  0.0437  0.4455
 4965W        W 8484   2.193   3.887  11.690  0.1379 -0.0606 -0.0216
 4966W        W 8485   7.239   3.120   1.339 -0.0911  0.2569  0.3329
 4967W        W 8486   7.128   2.586   4.144 -0.0267 -0.2385 -0.0823
 4968W        W 8487   9.064   4.574   9.486  0.1274 -0.2102 -0.0840
 4969W        W 8488   1.101   7.806   0.800  0.0288 -0.0284  0.0003
 4970W        W 8489   0.507   4.870  10.444  0.1097 -0.2978  0.1332
 4971W        W 8490   5.743   0.837   2.800  0.2488 -0.0051  0.2571
 4972W        W 8491   6.374   3.859  11.467 -0.2608  0.2518  0.1411
 4973W        W 8492   9.311   9.021   1.616  0.1137 -0.0184 -0.1410
 4974W        W 8493   4.693   0.766  11.982  0.0847  0.2265  0.0751
 4975W        W 8494   7.270   5.519  10.660  0.2791 -0.1326 -0.3093
 4976W        W 8495   7.886   5.759   9.682 -0.1039  0.1703 -0.0381
 4977W        W 8496   4.573   6.981  12.393 -0.1441 -0.0738  0.0655
 4978W        W 8497   1.192   3.189   2.281  0.0445 -0.2021  0.1559
 4979W        W 8498   5.161   3.694   0.893 -0.0382  0.0354  0.5940
 4980W        W 8499   8.671   7.894  10.299  0.0182  0.1229  0.2124
 4981W        W 8500   9.658   4.223   4.993  0.1279 -0.0432  0.4199
 4982W        W 8501   7.102   6.102   1.644  0.0093  0.1579 -0.1218
 4983W        W 8502   1.055   6.449   3.236  0.0849  0.1953 -0.1214
 4984W        W 8503   4.783   6.684  12.037  0.0742 -0.0252  0.0064
 4985W        W 8504   0.727   2.788   9.309 -0.2989 -0.0258 -0.0057
 4986W        W 8505   3.261   3.220  10.296 -0.0201  0.4308 -0.1758
 4987W        W 8506   1.021   0.129   5.015 -0.1891 -0.0773 -0.2004
 4988W        W 8507   8.773   5.189   4.513  0.0481  0.3013 -0.1401
 4989W        W 8508   9.449   0.869  10.760 -0.1433  0.0015  0.2266
 4990W        W 8509   8.879   0.571  11.801  0.0137 -0.0319  0.2152
 4991W        W 8510   5.658   5.689   3.231  0.1356 -0.2427  0.0449
 4992W        W 8511   9.161   1.907   9.690  0.2789  0.1345  0.1671
 4993W        W 8512   5.745   9.639   2.897 -0.0121  0.1653 -0.0097
 4994W        W 8513   7.833   0.405   0.649 -0.0024 -0.0128 -0.4099
 4995W        W 8514   3.250   5.915   9.198  0.0528 -0.2355 -0.0374
 4996W        W 8515   6.625   9.416   3.743 -0.0604 -0.1496  0.1200
 4997W        W 8516   9.680   1.494   2.755  0.1172 -0.0892  0.2046
 4998W        W 8517   0.497   8.908   3.185  0.1441  0.3516  0.1365
 4999W        W 8518   7.563   8.162  11.054  0.1184 -0.0205 -0.0479
 5000W        W 8519   8.611   0.968   0.281  0.0396  0.2092 -0.3648
 5001W        W 8520   4.302   3.951   8.807 -0.2012  0.0328 -0.2229
 5002W        W 8521   8.601   1.437   2.987 -0.2339  0.1964  0.0868
 5003W        W 8522   5.968   4.720   0.851 -0.1818 -0.0114 -0.3527
 5004W        W 8523   6.254   5.836   1.653  0.0231 -0.3535 -0.2383
 5005W        W 8524   4.253   6.655   2.740 -0.0418 -0.1074 -0.0117
 5006W        W 8525   4.976   4.107   4.263 -0.2614  0.0512  0.2156
 5007W        W 8526   2.441   4.497  12.407 -0.0535 -0.0660  0.5201
 5008W        W 8527   8.079   0.685   0.281 -0.3182 -0.1975  0.1252
 5009W        W 8528   3.665   8.191  10.550  0.0245  0.1230 -0.0703
 5010W        W 8529   3.472   2.687   3.116  0.0161  0.4171 -0.3101
 5011W        W 8530   6.257   8.989   2.439 -0.0127 -0.0327  0.1493
 5012W        W 8531   5.900   4.039   0.285 -0.1786 -0.1966 -0.0155
 5013W        W 8532   7.735   8.824   2.499  0.2333  0.2024  0.1890
 5014W        W 8533   5.210   5.541   1.650  0.1167  0.1546  0.2172
 5015W        W 8534   6.870   5.507   2.239 -0.2464  0.0421  0.2201
 5016W        W 8535   7.034   0.435  10.412 -0.1790 -0.0111  0.0568
 5017W        W 8536   0.052   1.932  10.043  0.2842 -0.2848 -0.0510
 5018W        W 8537   0.618   2.422  12.229 -0.0600 -0.1219  0.1366
 5019W        W 8538   0.705   6.635   2.484 -0.2432 -0.2068  0.1567
 5020W        W 8539   7.815   6.453   0.805  0.1654 -0.0087  0.0738
 5021W        W 8540   2.287   5.211  10.868  0.0078 -0.0602  0.0333
 5022W        W 8541   2.079   8.526  10.652  0.1590 -0.2289 -0.2283
 5023W        W 8542   4.820   4.438   7.996  0.0960 -0.0845 -0.2893
 5024W        W 8543   1.722   3.171   2.485 -0.1656  0.3216 -0.0984
 5025W        W 8544   8.730   8.876   0.010 -0.0748 -0.2214  0.1738
 5026W        W 8545   4.728   0.707  10.099 -0.2575 -0.1557  0.0730
 5027W        W 8546   4.323   2.856   3.926 -0.0584  0.0555 -0.1410
 5028W        W 8547   2.618   3.014   1.750  0.3465 -0.1052 -0.1337
 5029W        W 8548   3.363   1.104  11.695 -0.1267  0.2999 -0.1790
 5030W        W 8549   1.323   5.960   9.608 -0.1228  0.0079 -0.1954
 5031W        W 8550   5.256   0.672  11.164  0.0743  0.2259  0.1344
 5032W        W 8551   8.608   5.584   4.124 -0.0981  0.3715 -0.4868
 5033W        W 8552   3.899   2.455   2.996 -0.1959 -0.0708  0.0481
 5034W        W 8553   6.266   3.123  12.427  0.1445 -0.1494 -0.1309
 5035W        W 8554   2.491   2.315   9.028  0.2834  0.1541 -0.1902
 5036W        W 8555   5.919   3.367   8.542 -0.1858 -0.3240 -0.2466
 5037W        W 8556   4.123   4.136   9.977  0.0568 -0.1398  0.2066
 5038W        W 8557   0.161   9.491  10.249 -0.1049  0.0412  0.2495
 5039W        W 8558   9.481   4.651   9.021  0.2715 -0.0630 -0.3158
 5040W        W 8559   1.339   5.594   1.635 -0.2497 -0.0299 -0.0640
 5041W        W 8560   5.152   0.257  10.039 -0.1021  0.2546 -0.0118
 5042W        W 8561   9.577   4.484  10.765  0.0780 -0.0448 -0.1547
 5043W        W 8562   8.075   6.123   2.815 -0.3678  0.0527 -0.0438
 5044W        W 8563   6.170   5.828   3.278  0.1713 -0.0177  0.4421
 5045W        W 8564   6.622   6.877   8.891  0.0055 -0.2535  0.4479
 5046W        W 8565   0.413   8.621  11.229  0.1670  0.0800 -0.1379
 5047W        W 8566   0.004   6.046   3.233  0.1238  0.2165  0.2769
 5048W        W 8567   6.358   8.659  10.496  0.2042  0.1599  0.0870
 5049W        W 8568   4.820   7.848   0.726 -0.2388  0.1388  0.0166
 5050W        W 8569   8.996   0.751   1.510  0.4006  0.0409  0.1981
 5051W        W 8570   8.627   0.843   0.753 -0.0920  0.0097 -0.1836
 5052W        W 8571   8.993   0.344   9.400 -0.0744 -0.4144 -0.1708
 5053W        W 8572   5.215   1.736  10.425 -0.0583 -0.1391 -0.0598
 5054W        W 8573   6.529   1.591   0.456  0.2404 -0.0368 -0.2698
 5055W        W 8574   8.427   3.784  10.038  0.0551  0.3215 -0.0331
 5056W        W 8575   7.739   4.904   2.689  0.3309 -0.0896  0.0389
 5057W        W 8576   5.309   3.651  12.185 -0.0785 -0.1264 -0.2627
 5058W        W 8577   2.803   3.229  11.721 -0.2190 -0.4201 -0.0785
 5059W        W 8578   0.835   5.816  10.571  0.1191 -0.1599 -0.0993
 5060W        W 8579   0.775   4.594   0.348 -0.1796 -0.0923  0.0583
 5061W        W 8580   0.083   9.201   2.971 -0.1880 -0.0231  0.1892
 5062W        W 8581   6.452   8.326  10.124  0.0405  0.4803  0.1696
 5063W        W 8582   0.596   4.193   0.649  0.3024  0.0182 -0.4675
 5064W        W 8583   5.584   9.715  11.170 -0.0681  0.0913 -0.2544
 5065W        W 8584   6.971   2.852   0.991  0.1858 -0.0074 -0.0511
 5066W        W 8585   4.900   7.299   3.159  0.0890 -0.1681 -0.2369
 5067W        W 8586   8.828   5.062   8.558 -0.1887 -0.1771  0.0897
 5068W        W 8587   0.153   3.780  11.446  0.1817  0.0900  0.2609
 5069W        W 8588   7.000   8.295  11.582 -0.0946  0.0321 -0.0745
 5070W        W 8589   7.378   7.318   9.272  0.0951  0.1232  0.2524
 5071W        W 8590   4.767   2.916   0.012  0.0444  0.3285 -0.0251
 5072W        W 8591   8.451   8.898   1.534  0.1281 -0.1766 -0.1570
 5073W        W 8592   4.489   3.644   1.401 -0.0179 -0.1809  0.2701
 5074W        W 8593   7.341   5.093   8.585  0.0998  0.1067  0.3933
 5075W        W 8594   4.981   7.735  11.243 -0.2657  0.1400  0.1060
 5076W        W 8595   1.107   6.982  11.775  0.0350  0.0861 -0.1356
 5077W        W 8596   6.726   4.881   3.516 -0.0259 -0.0740  0.2714
 5078W        W 8597   2.953   7.456   1.244 -0.1507 -0.1262  0.1441
 5079W        W 8598   7.960   8.142   1.038 -0.0830 -0.2405 -0.3638
 5080W        W 8599   0.539   3.184  10.381  0.0596  0.0387  0.3415
 5081W        W 8600   2.076   3.363   9.172  0.2377  0.0054  0.0265
 5082W        W 8601   5.879   0.597   1.790 -0.0641 -0.1087 -0.2779
 5083W        W 8602   3.635   3.595   2.950  0.4800  0.1167 -0.0264
 5084W        W 8603   4.630   7.713  10.434 -0.0492  0.0289 -0.0874
 5085W        W 8604   2.997   7.337   0.747  0.0349 -0.0358 -0.2955
 5086W        W 8605   5.667   4.743   4.990  0.0242  0.1697 -0.0562
 5087W        W 8606   8.139   2.943   9.031 -0.0295  0.0287 -0.3621
 5088W        W 8607   1.134   7.944   2.925  0.1769  0.0342 -0.1110
 5089W        W 8608   3.596   1.625   1.048 -0.3000 -0.1645  0.0007
 5090W        W 8609   5.381   4.172  12.267  0.2696 -0.0096 -0.0573
 5091W        W 8610   7.787   6.472  11.514  0.0193 -0.0506  0.0082
 5092W        W 8611   6.388   4.126  12.294 -0.0178 -0.0081  0.0825
 5093W        W 8612   7.200   1.477   1.995 -0.2570  0.0510  0.3725
 5094W        W 8613   4.667   4.773   1.530  0.1525 -0.0752  0.2855
 5095W        W 8614   0.406   0.813   9.539 -0.1900  0.0681 -0.1214
 5096W        W 8615   3.903   6.403   0.695 -0.0348  0.0540 -0.2982
 5097W        W 8616   0.893   4.023   3.173 -0.0864  0.1291 -0.1024
 5098W        W 8617   2.665   7.516   2.528  0.2721 -0.3494 -0.2351
 5099W        W 8618   5.659   6.693   2.929  0.2441  0.0898  0.0813
 5100W        W 8619   3.202   2.086   2.099  0.1223 -0.1223  0.0156
 5101W        W 8620   1.799   4.070   9.761  0.1155  0.1175  0.0589
 5102W        W 8621   8.803   6.538  11.486  0.0913 -0.1795 -0.0393
 5103W        W 8622   5.905   5.853   8.062  0.5008 -0.1732 -0.0075
 5104W        W 8623   9.116   5.868   8.811 -0.0480  0.1793 -0.0813
 5105W        W 8624   1.093   3.462   3.779 -0.2544 -0.3128 -0.0020
 5106W        W 8625   8.288   8.870   9.564  0.0050 -0.0811  0.2221
 5107W        W 8626   7.181   9.271   4.542 -0.1487 -0.0299  0.1093
 5108W        W 8627   8.378   7.215  11.004  0.1088 -0.1213  0.0755
 5109W        W 8628   3.093   4.110   3.687  0.0297 -0.0374 -0.0451
 5110W        W 8629   0.410   4.399  10.775 -0.2993 -0.2018 -0.3677
 5111W        W 8630   4.090   4.770   1.010  0.0026  0.0391  0.0017
 5112W        W 8631   5.303   1.389   2.224 -0.1317  0.2684  0.1874
 5113W        W 8632   1.666   9.609   9.377 -0.2544 -0.1969  0.0991
 5114W        W 8633   5.464   4.409  11.702  0.0953  0.1706  0.0504
 5115W        W 8634   7.600   0.489   0.203  0.2229 -0.0655  0.0737
 5116W        W 8635   1.778   7.568   8.293 -0.2042 -0.2318 -0.1681
 5117W        W 8636   1.709   1.747   3.997  0.0819  0.0721  0.3581
 5118W        W 8637   4.692   7.798   9.934 -0.2955  0.3888 -0.0898
 5119W        W 8638   3.893   8.714  12.325 -0.0945  0.3501 -0.1832
 5120W        W 8639   0.473   8.742   3.799  0.2793  0.0730  0.2658
 5121W        W 8640   2.923   5.565  11.879 -0.1686 -0.1959  0.1466
 5122W        W 8641   3.819   5.831   9.839 -0.1166  0.4562  0.1926
 5123W        W 8642   0.457   4.184   4.138 -0.1108 -0.0778 -0.0180
 5124W        W 8643   0.329   3.028   0.425  0.2156 -0.0483  0.1556
 5125W        W 8644   3.500   8.116   9.805  0.2727  0.1449  0.0226
 5126W        W 8645   8.150   7.406   3.528 -0.4707 -0.1202  0.3913
 5127W        W 8646   1.992   4.513   9.863  0.1467 -0.1218  0.3398
 5128W        W 8647   5.566   6.290   2.658  0.0586  0.1511 -0.0374
 5129W        W 8648   0.043   7.844   8.591 -0.0737 -0.2448 -0.1102
 5130W        W 8649   8.187   5.684   3.154  0.1258  0.0578  0.2762
 5131W        W 8650   9.611   6.093  10.967  0.1416 -0.3564  0.2622
 5132W        W 8651   9.101   3.258  10.565 -0.1297  0.1583  0.1129
 5133W        W 8652   9.637   7.143   4.492 -0.1513  0.2380  0.1083
 5134W        W 8653   7.502   7.081  11.618 -0.0670 -0.1159  0.1281
 5135W        W 8654   4.950   8.741  10.424  0.1986  0.2614  0.0243
 5136W        W 8655   4.043   7.262   0.384  0.0199  0.0405 -0.0695
 5137W        W 8656   4.612   3.161  11.994 -0.0129  0.1248 -0.0263
 5138W        W 8657   2.844   3.364   9.770 -0.1598 -0.0354 -0.2034
 5139W        W 8658   4.018   8.522   2.659  0.0936 -0.0858  0.4085
 5140W        W 8659   8.132   0.905   0.792 -0.2026  0.1148  0.1434
 5141W        W 8660   0.125   5.992   9.647  0.0282 -0.3220  0.1159
 5142W        W 8661   3.066   1.470   0.545  0.3234  0.1106  0.1947
 5143W        W 8662   6.135   7.730   1.889  0.1666 -0.0760 -0.1706
 5144W        W 8663   1.588   5.998   1.042  0.0420  0.0832 -0.0325
 5145W        W 8664   6.437   3.806  10.999 -0.0218  0.1846  0.0894
 5146W        W 8665   1.437   0.418  10.619  0.0428 -0.0514  0.0713
 5147W        W 8666   0.661   8.591   9.164  0.0469 -0.2293 -0.2450
 5148W        W 8667   1.438   1.274   4.187  0.1561  0.0799 -0.1969
 5149W        W 8668   7.967   3.092   2.672 -0.2245 -0.2039 -0.4099
 5150W        W 8669   1.679   3.143  11.238 -0.0107  0.1932 -0.2135
 5151W        W 8670   4.592   7.049   9.428 -0.0037 -0.0697  0.3671
 5152W        W 8671   3.504   4.437   9.060  0.0918 -0.1163  0.3162
 5153W        W 8672   8.796   4.009   1.001  0.2510 -0.1241  0.2391
 5154W        W 8673   5.070   8.789   2.972 -0.1236 -0.2235  0.1652
 5155W        W 8674   7.302   2.208   2.615 -0.1424  0.0622  0.2081
 5156W        W 8675   3.177   4.313   1.248 -0.0663 -0.0653  0.0024
 5157W        W 8676   2.610   8.941   0.061 -0.0878 -0.1266 -0.1777
 5158W        W 8677   8.743   1.399   2.007 -0.2888  0.2495 -0.1544
 5159W        W 8678   4.406   4.060   1.068 -0.1160  0.1730 -0.1246
 5160W        W 8679   8.393   5.062   8.953  0.2218 -0.3931  0.1294
 5161W        W 8680   0.336   9.106   4.162 -0.1749 -0.0365  0.0085
 5162W        W 8681   4.836   6.286   8.929  0.0264  0.1412 -0.1413
 5163W        W 8682   9.344   5.135   8.839  0.0876 -0.1206  0.1825
 5164W        W 8683   2.349   1.378   8.748  0.1582  0.2921 -0.0844
 5165W        W 8684   1.874   2.594   2.385  0.2107  0.0960  0.1951
 5166W        W 8685   4.068   9.078   1.442  0.0255  0.1680 -0.0846
 5167W        W 8686   1.981   2.098  10.150  0.0375  0.1250 -0.1989
 5168W        W 8687   1.155   9.657  12.231 -0.1151 -0.1231  0.2034
 5169W        W 8688   9.646   8.843   1.328 -0.0373  0.1074  0.1694
 5170W        W 8689   0.696   3.957   1.851 -0.0361  0.3674 -0.0473
 5171W        W 8690   6.894   5.667   4.079  0.4298 -0.1704  0.2386
 5172W        W 8691   6.458   8.162   1.715  0.0845  0.0396 -0.2252
 5173W        W 8692   0.294   3.021   9.192  0.0898  0.0220 -0.1213
 5174W        W 8693   9.651   2.406  12.277 -0.1435  0.0509  0.0375
 5175W        W 8694   7.621   2.375   3.028 -0.0055 -0.1635  0.2994
 5176W        W 8695   2.168   6.716   2.797 -0.0428 -0.0323 -0.2456
 5177W        W 8696   4.364   7.366   9.895  0.1026  0.2428 -0.1301
 5178W        W 8697   6.876   4.621   9.316  0.2616 -0.0921  0.0981
 5179W        W 8698   9.335   7.402  11.538  0.1055  0.1114  0.0126
 5180W        W 8699   6.069   5.773   9.148 -0.1249  0.1562 -0.0527
 5181W        W 8700   5.943   9.556  12.058 -0.1181  0.2783 -0.2393
 5182W        W 8701   3.022   6.082   4.939  0.2635  0.0227  0.0978
 5183W        W 8702   0.450   3.265   8.657 -0.0083  0.1215  0.0459
 5184W        W 8703   3.409   7.210   2.853 -0.1197  0.1104 -0.0939
 5185W        W 8704   0.292   0.790   0.272 -0.2569  0.4245  0.3680
 5186W        W 8705   2.605   7.183  11.972 -0.0923 -0.2717 -0.0335
 5187W        W 8706   2.873   6.912  11.533 -0.0486 -0.0992 -0.1827
 5188W        W 8707   5.538   5.153   3.062  0.1709 -0.0257  0.1263
 5189W        W 8708   5.363   7.474  11.882  0.2982  0.0053 -0.0455
 5190W        W 8709   1.978   3.363   0.135 -0.0404 -0.1910  0.1172
 5191W        W 8710   4.679   4.887  11.059  0.1950  0.0975 -0.3017
 5192W        W 8711   4.747   9.587   3.146  0.0798 -0.2374 -0.3582
 5193W        W 8712   6.753   4.966   1.261 -0.2102 -0.1737 -0.0454
 5194W        W 8713   8.893   1.501   3.807 -0.0645  0.2270 -0.2397
 5195W        W 8714   2.390   5.287   3.679 -0.1509  0.1776  0.0689
 5196W        W 8715   5.367   1.484   0.650 -0.2653 -0.1450 -0.1802
 5197W        W 8716   1.940   2.676  12.001 -0.1428 -0.0839  0.1246
 5198W        W 8717   5.526   0.496  10.761  0.0094 -0.0242 -0.1434
 5199W        W 8718   2.284   3.369  11.722 -0.4105  0.1877 -0.1730
 5200W        W 8719   4.787   2.829   3.772  0.1553  0.2370 -0.1539
 5201W        W 8720   2.434   1.930  11.504  0.0120 -0.3813 -0.0962
 5202W        W 8721   2.155   6.796  10.605 -0.1388  0.3060 -0.0985
 5203W        W 8722   5.831   4.541   9.949  0.0184 -0.0121 -0.3396
 5204W        W 8723   8.347   7.788  11.532 -0.3017  0.0208 -0.3483
 5205W        W 8724   3.808   1.393  11.880 -0.3479  0.1753 -0.1728
 5206W        W 8725   6.750   4.081   1.219  0.0330 -0.0416 -0.2498
 5207W        W 8726   5.609   6.140  12.141  0.0974  0.0054 -0.4435
 5208W        W 8727   6.465   1.155   0.824 -0.3636 -0.2917  0.1623
 5209W        W 8728   0.128   4.997   8.874 -0.0548  0.3218 -0.0745
 5210W        W 8729   3.260   1.925   1.291 -0.0525 -0.1795  0.0938
 5211W        W 8730   8.042   6.827   4.159  0.1052 -0.1646 -0.0444
 5212W        W 8731   0.343   1.671  12.396  0.1250  0.1873  0.2293
 5213W        W 8732   3.032   6.461  11.632 -0.0961 -0.1987 -0.2262
 5214W        W 8733   2.664   0.584   3.299 -0.0706  0.0762 -0.0266
 5215W        W 8734   8.787   2.608   0.929 -0.1017 -0.1500 -0.0909
 5216W        W 8735   9.214   9.257   3.690 -0.1771 -0.0234  0.1570
 5217W        W 8736   1.317   3.391  10.176 -0.1984  0.1050 -0.0127
 5218W        W 8737   6.079   4.654  11.503 -0.0309  0.1369 -0.1174
 5219W        W 8738   0.961   9.261   0.094  0.1927  0.2690 -0.0259
 5220W        W 8739   8.163   7.428   2.624 -0.0905  0.1803  0.0258
 5221W        W 8740   0.239   6.385   3.539 -0.0340  0.2387  0.1619
 5222W        W 8741   7.000   1.420  11.172  0.3654 -0.0176 -0.2804
 5223W        W 8742   4.525   3.843   0.154  0.3945  0.1032  0.1112
 5224W        W 8743   2.519   8.710   8.951 -0.2528 -0.0031 -0.2122
 5225W        W 8744   5.513   4.186  10.814  0.3736 -0.0626  0.1733
 5226W        W 8745   8.021   4.976   3.599  0.0872 -0.0909 -0.1320
 5227W        W 8746   4.264   5.193   3.516 -0.1183  0.1126 -0.2692
 5228W        W 8747   1.311   7.346  12.067  0.1005  0.3349  0.0079
 5229W        W 8748   8.280   6.345  11.583  0.2266 -0.2604  0.0214
 5230W        W 8749   3.781   0.519   9.482 -0.0431  0.1185 -0.0216
 5231W        W 8750   2.551   9.559  12.127  0.1514 -0.0591 -0.0380
 5232W        W 8751   0.306   3.707   4.153  0.1507 -0.0054 -0.1084
 5233W        W 8752   1.018   0.571   0.464  0.2028 -0.1931  0.1197
 5234W        W 8753   6.577   4.843  11.368  0.2691  0.3020  0.1228
 5235W        W 8754   2.631   2.045   9.433 -0.1067  0.0936  0.0823
 5236W        W 8755   6.888   6.834   1.909 -0.4678 -0.1266  0.2323
 5237W        W 8756   7.396   6.146  11.803 -0.0662 -0.0178 -0.0160
 5238W        W 8757   6.986   6.238  10.038  0.1094 -0.1379  0.2803
 5239W        W 8758   5.016   1.848   0.745  0.2690 -0.1642 -0.0682
 5240W        W 8759   9.073   7.674   3.846 -0.0864 -0.1004  0.0912
 5241W        W 8760   6.829   1.456   3.222  0.2329  0.2267 -0.1682
 5242W        W 8761   4.620   7.198   2.253 -0.3364 -0.1974 -0.3171
 5243W        W 8762   2.163   7.500   9.762 -0.1316  0.0813  0.0552
 5244W        W 8763   3.145   1.354   3.203 -0.0348 -0.1351 -0.3149
 5245W        W 8764   2.138   6.879   9.037  0.0415 -0.2296  0.1520
 5246W        W 8765   8.266   6.360   8.580 -0.1058 -0.1287  0.1644
 5247W        W 8766   6.787   6.843   0.364  0.4378 -0.1433 -0.2725
 5248W        W 8767   7.827   4.200   9.865  0.0786  0.2994 -0.3301
 5249W        W 8768   0.348   6.865   3.444  0.0467 -0.2395 -0.1825
 5250W        W 8769   5.629   1.330   1.462 -0.1394  0.1006 -0.1485
 5251W        W 8770   0.526   3.972   0.039  0.0516  0.1855 -0.0824
 5252W        W 8771   2.186   7.219   3.360  0.2480 -0.0446 -0.2002
 5253W        W 8772   6.797   9.636   1.246 -0.1804 -0.0169  0.0026
 5254W        W 8773   0.713   4.937  10.924  0.0281  0.2680 -0.0521
 5255W        W 8774   7.014   4.518   1.190  0.0089 -0.0270 -0.0697
 5256W        W 8775   9.400   2.396  10.976 -0.0025 -0.1216 -0.0835
 5257W        W 8776   5.724   4.512   1.271  0.2479 -0.1045  0.0763
 5258W        W 8777   7.029   7.195   0.706 -0.0097 -0.1834  0.2354
 5259W        W 8778   4.446   4.719  10.295  0.0648 -0.0133  0.1702
 5260W        W 8779   2.784   8.715   1.921  0.0986  0.2785 -0.0251
 5261W        W 8780   2.189   6.277  10.464  0.2054  0.0532  0.1799
 5262W        W 8781   0.749   8.407  11.959  0.1004 -0.1697  0.0343
 5263W        W 8782   2.928   4.257   0.813 -0.0462  0.1691  0.2415
 5264W        W 8783   3.710   1.408   9.446 -0.1294 -0.0310  0.0153
 5265W        W 8784   7.826   5.601  10.825  0.0234  0.0181  0.0344
 5266W        W 8785   4.890   0.530  11.591 -0.0977 -0.3077  0.0470
 5267W        W 8786   8.939   0.822  10.587  0.1180 -0.2667 -0.1953
 5268W        W 8787   7.645   6.918   0.127  0.0591  0.1692  0.2196
 5269W        W 8788   7.141   3.828   4.481 -0.2972 -0.0480 -0.3058
 5270W        W 8789   8.609   1.448  11.815 -0.0394 -0.0158 -0.0872
 5271W        W 8790   2.301   9.317   3.387 -0.0324 -0.0034 -0.0630
 5272W        W 8791   1.255   5.161   2.046 -0.1548 -0.1305 -0.0411
 5273W        W 8792   1.190   5.990   1.376  0.0932  0.1056  0.2872
 5274W        W 8793   7.051   3.302   1.763 -0.1973  0.1563 -0.2175
 5275W        W 8794   1.192   5.536  10.483  0.2144 -0.1072 -0.2852
 5276W        W 8795   1.212   2.630   9.753 -0.1282  0.2654 -0.1621
 5277W        W 8796   0.195   7.466   3.403  0.0831  0.0080  0.2581
 5278W        W 8797   2.974   7.919   9.590  0.0952 -0.3781  0.1476
 5279W        W 8798   9.088   0.743   2.421 -0.0883 -0.1002 -0.0174
 5280W        W 8799   6.748   5.770   1.793  0.1104 -0.3739  0.0052
 5281W        W 8800   5.996   3.528   2.205 -0.1911 -0.2276 -0.0098
 5282W        W 8801   7.135   8.113   2.797 -0.0417 -0.0342  0.0294
 5283W        W 8802   6.033   0.849   9.808 -0.3655  0.3263 -0.0356
 5284W        W 8803   4.166   6.037  12.194 -0.1119  0.3176  0.2673
 5285W        W 8804   3.655   8.793   1.333 -0.2640  0.3788 -0.1088
 5286W        W 8805   6.597   0.446   1.392  0.1718 -0.1054 -0.1601
 5287W        W 8806   5.173   2.709  10.569  0.2482 -0.2562  0.0722
 5288W        W 8807   3.252   2.916   2.391 -0.0496 -0.0311 -0.1677
 5289W        W 8808   2.725   3.194  10.393  0.2275 -0.0046  0.0968
 5290W        W 8809   7.526   4.709   0.063  0.1774  0.0717  0.0313
 5291W        W 8810   8.912   3.805  11.122 -0.4024  0.1845 -0.1872
 5292W        W 8811   6.171   4.924   9.047 -0.0584 -0.1189 -0.0188
 5293W        W 8812   4.799   0.045  11.594 -0.0407  0.1123  0.3640
 5294W        W 8813   4.812   2.744   3.277  0.1743  0.0202 -0.1210
 5295W        W 8814   5.413   4.651  12.178  0.0715  0.0007 -0.1774
 5296W        W 8815   5.532   2.134   3.843 -0.1557 -0.0096  0.0449
 5297W        W 8816   3.261   9.272   3.497 -0.1643  0.0929  0.1589
 5298W        W 8817   5.771   7.874  11.903 -0.0613 -0.0061  0.1421
 5299W        W 8818   2.509   6.505   1.512  0.0436  0.3904 -0.1342
 5300W        W 8819   8.477   4.891   0.460 -0.2513 -0.2272 -0.1691
 5301W        W 8820   8.805   5.161  11.695 -0.1707 -0.0044  0.1023
 5302W        W 8821   3.327   8.354   3.262 -0.1690 -0.3217 -0.1231
 5303W        W 8822   5.367   0.966   2.486 -0.1903 -0.0991 -0.2104
 5304W        W 8823   7.300   3.649  11.265 -0.1640 -0.2669  0.2769
 5305W        W 8824   5.586   9.380   9.415 -0.1169  0.4494  0.1921
 5306W        W 8825   0.447   0.118   0.171  0.2368  0.2576 -0.4375
 5307W        W 8826   0.687   1.983  12.497 -0.0178 -0.1448 -0.2441
 5308W        W 8827   7.787   0.503   1.567  0.0318 -0.1915 -0.2681
 5309W        W 8828   1.970   6.257   9.507  0.1887 -0.0098  0.0429
 5310W        W 8829   5.364   1.162   4.380 -0.0703 -0.1085  0.0881
 5311W        W 8830   6.695   7.515   3.384 -0.3190 -0.0671  0.1944
 5312W        W 8831   5.990   7.287   4.060  0.0529 -0.0170  0.0686
 5313W        W 8832   9.037   6.704   2.607 -0.0708 -0.0350 -0.3285
 5314W        W 8833   6.497   0.945   4.062  0.0743 -0.3441 -0.0936
 5315W        W 8834   9.630   5.091   2.082 -0.0374  0.1290  0.0498
 5316W        W 8835   0.817   5.283   1.946  0.1291 -0.2439 -0.3156
 5317W        W 8836   4.451   2.764  10.487  0.1689 -0.0808 -0.0665
 5318W        W 8837   0.713   1.805   2.426 -0.0809 -0.2215 -0.0214
 5319W        W 8838   2.038   3.618   9.937 -0.1924 -0.0782  0.0672
 5320W        W 8839   6.479   9.514   9.935  0.0968  0.1397 -0.2613
 5321W        W 8840   1.136   3.704   0.991 -0.0612  0.0618  0.0142
 5322W        W 8841   3.561   3.349   2.504 -0.2445 -0.1923  0.0047
 5323W        W 8842   7.807   6.125   0.351 -0.2624 -0.0083  0.0649
 5324W        W 8843   5.761   0.132   3.356 -0.0503 -0.2263 -0.0125
 5325W        W 8844   7.276   3.011   3.905 -0.1619  0.2184 -0.2174
 5326W        W 8845   4.269   5.257   2.923  0.3108 -0.1412 -0.3164
 5327W        W 8846   1.757   2.890   0.361  0.1437  0.0533 -0.1634
 5328W        W 8847   6.600   0.175  11.775  0.1290  0.2903 -0.2596
 5329W        W 8848   2.233   3.183   4.232 -0.1073  0.2405  0.3247
 5330W        W 8849   6.401   6.377   4.064  0.0632  0.1545 -0.1853
 5331W        W 8850   7.519   7.752   9.220  0.1632 -0.0836  0.5735
 5332W        W 8851   5.774   0.518  11.169  0.0516  0.3902 -0.1315
 5333W        W 8852   5.539   8.845   1.016 -0.3473 -0.1452  0.1677
 5334W        W 8853   8.824   7.349  12.073 -0.1499 -0.1764  0.0379
 5335W        W 8854   2.835   1.611   9.219 -0.0561  0.3021 -0.0354
 5336W        W 8855   2.190   0.765   0.353 -0.1491 -0.1576 -0.0360
 5337W        W 8856   7.190   1.030   3.288 -0.1388  0.0341  0.0314
 5338W        W 8857   2.099   0.895   9.517 -0.0321 -0.1349  0.0320
 5339W        W 8858   4.189   8.743   1.033 -0.3165  0.1044 -0.4713
 5340W        W 8859   6.698   6.138  10.454 -0.0460 -0.0056 -0.3074
 5341W        W 8860   2.034   0.281   9.604  0.1809 -0.3274 -0.3164
 5342W        W 8861   2.222   5.307   3.226  0.1313 -0.0070 -0.0603
 5343W        W 8862   4.306   2.885  12.372  0.1679  0.1014  0.0547
 5344W        W 8863   6.161   0.043   0.018 -0.0694  0.0309  0.0834
 5345W        W 8864   9.332   2.823  11.242 -0.0369 -0.1568 -0.2017
 5346W        W 8865   7.068   9.531   9.614  0.1693 -0.0523 -0.0859
 5347W        W 8866   1.480   0.767  11.001  0.2323 -0.0497  0.1937
 5348W        W 8867   1.188   7.780   3.621  0.2966  0.0927  0.1546
 5349W        W 8868   5.754   2.759  11.891  0.2233  0.0959 -0.2762
 5350W        W 8869   1.876   4.783   1.762 -0.2653 -0.0307 -0.0112
 5351W        W 8870   7.122   7.062   0.139  0.0187 -0.0015  0.2558
 5352W        W 8871   7.688   0.621   4.245 -0.0414 -0.0402 -0.2385
 5353W        W 8872   7.759   7.889   1.544  0.1031  0.0051  0.2723
 5354W        W 8873   4.578   4.323   3.535 -0.2563  0.0861 -0.3708
 5355W        W 8874   2.159   7.920  11.987  0.3138  0.0425 -0.2180
 5356W        W 8875   8.438   4.623   8.763  0.2729 -0.0578  0.1445
 5357W        W 8876   9.530   8.402   0.629 -0.0882  0.1633 -0.0830
 5358W        W 8877   5.912   2.723  11.407  0.1645  0.3331  0.0743
 5359W        W 8878   8.947   8.788   1.326  0.2156 -0.1145  0.1248
 5360W        W 8879   1.562   0.295   4.438 -0.1168  0.0311 -0.2904
 5361W        W 8880   4.250   1.279   0.317  0.1274  0.4564  0.0069
 5362W        W 8881   3.374   3.624   3.539  0.0193  0.3072 -0.2958
 5363W        W 8882   9.137   8.572   0.287  0.4281 -0.2246  0.3062
 5364W        W 8883   0.641   8.917  11.787  0.1563  0.0097 -0.1027
 5365W        W 8884   7.844   9.300  11.015  0.1475  0.0565  0.0269
 5366W        W 8885   2.885   1.075   0.811  0.1256  0.2384 -0.0545
 5367W        W 8886   3.673   4.590   3.341 -0.3538 -0.3170 -0.2853
 5368W        W 8887   2.995   7.342  10.379 -0.0950  0.0526  0.0166
 5369W        W 8888   9.328   5.289   3.046 -0.0835  0.0125 -0.3377
 5370W        W 8889   5.759   6.023   8.788  0.0876  0.0504 -0.0605
 5371W        W 8890   7.239   0.672   1.355 -0.0595  0.0177 -0.0787
 5372W        W 8891   5.926   8.442   2.273 -0.1284  0.1262  0.0048
 5373W        W 8892   1.964   9.682   3.271  0.5204  0.5358 -0.2084
 5374W        W 8893   5.332   6.010   2.986  0.0772  0.1608 -0.1685
 5375W        W 8894   4.920   0.282  11.144 -0.1834  0.2780 -0.2103
 5376W        W 8895   4.310   8.834   8.957 -0.2972 -0.1585 -0.0752
 5377W        W 8896   4.407   0.297  11.270 -0.0466 -0.0630  0.1744
 5378W        W 8897   6.637   0.119   2.954 -0.2057  0.0513  0.1215
 5379W        W 8898   7.651   6.504  12.367 -0.2456  0.1346  0.2793
 5380W        W 8899   3.222   7.814   3.848 -0.1060  0.2312  0.1139
 5381W        W 8900   3.035   7.157  10.899 -0.0872 -0.1235 -0.0224
 5382W        W 8901   8.111   7.296   4.025 -0.0927 -0.2250 -0.0657
 5383W        W 8902   1.405   7.784  10.331 -0.1120 -0.1103  0.1234
 5384W        W 8903   5.057   2.832  11.155  0.2314  0.0716 -0.1141
 5385W        W 8904   7.675   6.822   8.710 -0.1798 -0.2447 -0.0658
 5386W        W 8905   5.705   2.872  10.488 -0.0830  0.0264  0.2057
 5387W        W 8906   2.719   8.805   2.392  0.0418  0.0677  0.1301
 5388W        W 8907   0.356   6.935   8.710  0.0646  0.3098  0.1892
 5389W        W 8908   3.152   2.943  11.877  0.0579 -0.1187  0.1006
 5390W        W 8909   1.223   1.695   8.150  0.0524 -0.0104  0.1842
 5391W        W 8910   6.931   0.190   1.987 -0.2839  0.0398 -0.0562
 5392W        W 8911   6.159   2.525  12.186 -0.1615 -0.1570  0.1920
 5393W        W 8912   2.977   5.794   0.185 -0.2561  0.3494  0.1249
 5394W        W 8913   2.549   3.566   8.833 -0.1583  0.1650 -0.3071
 5395W        W 8914   3.329   5.313   1.332  0.3191 -0.1212 -0.1653
 5396W        W 8915   9.189   2.995   2.385 -0.3323  0.2001  0.0989
 5397W        W 8916   6.328   8.210  12.345  0.0747 -0.0844 -0.2971
 5398W        W 8917   2.773   2.660   9.270  0.1405 -0.3974  0.0181
 5399W        W 8918   7.717   4.043   3.120  0.0087 -0.1585 -0.3194
 5400W        W 8919   1.362   2.228  12.225  0.4004  0.3291 -0.1547
 5401W        W 8920   7.350   3.771   1.886  0.1548 -0.1337 -0.1903
 5402W        W 8921   6.824   4.251  10.417 -0.3542 -0.1238  0.1674
 5403W        W 8922   3.296   1.428  10.165  0.0620 -0.1781  0.0479
 5404W        W 8923   8.248   2.652   2.703 -0.0462 -0.4250 -0.1777
 5405W        W 8924   1.655   2.186  10.502 -0.1605 -0.1528  0.0019
 5406W        W 8925   0.465   0.447   4.279 -0.1284  0.2352  0.0137
 5407W        W 8926   2.692   4.667  11.079 -0.1583 -0.1311 -0.2084
 5408W        W 8927   3.411   3.411   8.853  0.0474  0.1049 -0.0324
 5409W        W 8928   6.571   7.203   8.130  0.3817 -0.2603  0.0003
 5410W        W 8929   3.563   6.567  11.512 -0.0101  0.1695 -0.0769
 5411W        W 8930   3.786   1.467   3.726 -0.2136 -0.0183  0.1375
 5412W        W 8931   5.379   5.495   0.143 -0.1686 -0.1628  0.1316
 5413W        W 8932   0.947   1.587   2.832  0.0311  0.0872  0.1921
 5414W        W 8933   4.604   0.931  12.435 -0.5903 -0.2087  0.0149
 5415W        W 8934   9.682   6.037   3.788  0.1070 -0.0269  0.1029
 5416W        W 8935   0.065   4.226   9.337  0.2621 -0.2538  0.1395
 5417W        W 8936   7.269   2.070  12.347 -0.1904 -0.4070 -0.0942
 5418W        W 8937   8.335   1.167  12.361  0.0156  0.1057 -0.4089
 5419W        W 8938   7.925   0.255  12.434 -0.1182 -0.2800  0.2770
 5420W        W 8939   7.926   7.437  11.192  0.0083  0.3951  0.1082
 5421W        W 8940   4.464   9.652   0.536  0.1106 -0.1546 -0.1413
 5422W        W 8941   7.948   9.219   1.604  0.0330  0.1145  0.1428
 5423W        W 8942   2.497   0.277   9.440 -0.1938  0.3393  0.0349
 5424W        W 8943   7.746   8.528  10.797 -0.0167  0.1235  0.2706
 5425W        W 8944   3.309   0.550  10.050  0.0650  0.0897 -0.0456
 5426W        W 8945   0.882   6.002  11.826  0.1621 -0.1509  0.5781
 5427W        W 8946   4.222   8.588   0.137  0.1561  0.4819  0.2025
 5428W        W 8947   1.657   8.841  11.902 -0.3793 -0.1050 -0.0912
 5429W        W 8948   8.617   6.176  10.740  0.1886  0.0590  0.3998
 5430W        W 8949   5.877   4.804  12.280 -0.3033 -0.2789 -0.2984
 5431W        W 8950   9.463   0.251   9.209  0.2044 -0.3077  0.1353
 5432W        W 8951   5.130   7.251   9.686 -0.2655  0.1682  0.2537
 5433W        W 8952   6.356   2.459   9.766  0.0337 -0.1114 -0.0292
 5434W        W 8953   1.958   7.598   3.212  0.0440  0.1781  0.1444
 5435W        W 8954   0.310   5.149   1.761  0.2140  0.0891 -0.0554
 5436W        W 8955   5.240   5.235   9.969 -0.2813 -0.1232  0.1495
 5437W        W 8956   3.768   5.934   1.853  0.1346 -0.0535 -0.0682
 5438W        W 8957   4.854   1.754  12.228 -0.0483 -0.0312  0.1642
 5439W        W 8958   5.654   9.331   1.877  0.2561 -0.1656  0.2784
 5440W        W 8959   5.239   9.013   9.597  0.0277  0.3174  0.3260
 5441W        W 8960   0.613   1.337   2.002  0.0919  0.1622  0.2400
 5442W        W 8961   7.139   3.873  10.296 -0.4399 -0.1087  0.5553
 5443W        W 8962   1.746   3.567   4.307 -0.3127 -0.0997 -0.1082
 5444W        W 8963   2.698   6.410  10.254 -0.0654 -0.1677  0.1635
 5445W        W 8964   5.493   0.190   4.232 -0.2473 -0.3898 -0.1546
 5446W        W 8965   1.711   7.048   3.375 -0.1766 -0.2049 -0.1010
 5447W        W 8966   5.867   1.356  12.428 -0.1198 -0.0047 -0.3681
 5448W        W 8967   5.815   4.911   8.711  0.1270 -0.2179 -0.0168
 5449W        W 8968   6.551   2.619   0.990  0.1754  0.0399 -0.3347
 5450W        W 8969   9.091   5.088  12.234  0.2710  0.0440 -0.0857
 5451W        W 8970   5.962   3.082   0.329 -0.1013 -0.0089  0.3456
 5452W        W 8971   6.645   6.029   4.328  0.0717 -0.0303 -0.4397
 5453W        W 8972   7.880   0.656  10.307  0.2247 -0.1330 -0.3936
 5454W        W 8973   2.025   3.595   8.702  0.0983 -0.0809 -0.0649
 5455W        W 8974   9.680   9.596   0.255  0.0449  0.1131  0.1259
 5456W        W 8975   5.546   2.161   9.325 -0.0041 -0.2765  0.0386
 5457W        W 8976   1.879   0.637  10.675 -0.1162  0.1450  0.1427
 5458W        W 8977   8.758   5.061   9.860  0.3904 -0.0556  0.0637
 5459W        W 8978   8.718   0.847  10.138 -0.0260  0.3910 -0.0700
 5460W        W 8979   5.804   7.995  12.368  0.2371 -0.1006  0.0135
 5461W        W 8980   3.854   9.220  11.770  0.4018 -0.1106 -0.0454
 5462W        W 8981   5.538   1.326   9.098  0.1150  0.1392 -0.0602
 5463W        W 8982   6.357   8.476   9.092 -0.1050 -0.0619  0.3277
 5464W        W 8983   7.281   4.926   9.860  0.4064 -0.1520 -0.0291
 5465W        W 8984   0.583   2.923  12.141 -0.0980  0.0479  0.0632
 5466W        W 8985   2.602   0.038  10.546 -0.3801  0.1015  0.1919
 5467W        W 8986   4.905   4.072  10.963  0.2339  0.0510  0.2908
 5468W        W 8987   4.764   8.616  11.488 -0.1998 -0.1202 -0.0422
 5469W        W 8988   8.992   1.056   4.274 -0.0161 -0.1900 -0.0587
 5470W        W 8989   7.576   2.304   0.772  0.4050  0.0822 -0.0381
 5471W        W 8990   3.691   9.635   0.875  0.1175 -0.1136  0.1146
 5472W        W 8991   3.315   6.688   3.590 -0.3312 -0.2225 -0.2037
 5473W        W 8992   1.883   3.973  12.464  0.1042  0.0280 -0.1993
 5474W        W 8993   6.289   4.102   8.560  0.0644 -0.0493 -0.0468
 5475W        W 8994   4.073   0.303   2.348  0.1181  0.0505 -0.0593
 5476W        W 8995   6.917   2.470  10.906  0.0132 -0.0396 -0.2007
 5477W        W 8996   8.440   9.194   2.660  0.0529  0.3136 -0.0414
 5478W        W 8997   2.006   2.928  11.577 -0.2012 -0.1922  0.0517
 5479W        W 8998   1.378   6.779   3.625 -0.0801 -0.0018 -0.0825
 5480W        W 8999   4.562   7.561  10.949  0.0688  0.3822 -0.0717
 5481W        W 9000   2.049   2.693   4.035  0.1679 -0.3310  0.0525
 5482W        W 9001   8.265   6.523  12.213  0.1700  0.0941  0.1082
 5483W        W 9002   6.294   6.173   8.841  0.1252  0.0466  0.1021
 5484W        W 9003   7.542   5.196   1.922  0.2602  0.1317 -0.3693
 5485W        W 9004   4.608   1.250  11.083 -0.0123 -0.1369 -0.2819
 5486W        W 9005   0.546   4.695   9.769  0.2494  0.0400  0.3804
 5487W        W 9006   2.133   8.907   3.510 -0.0290  0.1626  0.0655
 5488W        W 9007   8.379   5.677   9.585  0.1407  0.2224  0.2184
 5489W        W 9008   0.363   5.262  10.680 -0.3056  0.4110 -0.0994
 5490W        W 9009   1.076   1.153   8.926 -0.2464  0.3235  0.2427
 5491W        W 9010   5.052   0.262   4.070 -0.1128  0.0917  0.4022
 5492W        W 9011   7.764   7.782   9.995  0.0183 -0.0768  0.1773
 5493W        W 9012   5.631   1.278  11.662  0.1779 -0.3240 -0.1749
 5494W        W 9013   1.778   8.616   9.716  0.1416  0.2242  0.0076
 5495W        W 9014   2.363   7.382   8.944  0.0290  0.3148  0.0169
 5496W        W 9015   2.908   3.951   2.680  0.0017 -0.0597  0.0761
 5497W        W 9016   5.022   9.029  11.087 -0.1132 -0.1519  0.1262
 5498W        W 9017   6.881   8.408   1.832 -0.0219 -0.1356 -0.2951
 5499W        W 9018   3.426   6.105   0.087 -0.1354 -0.1351  0.1344
 5500W        W 9019   5.242   0.908   9.301  0.0185 -0.0077 -0.0980
 5501W        W 9020   0.144   0.889   9.079  0.1868  0.0360 -0.2770
 5502W        W 9021   6.113   9.446  11.079 -0.2562  0.1782  0.1139
 5503W        W 9022   9.481   7.175   0.307  0.1940  0.0539 -0.1420
 5504W        W 9023   0.161   5.864   1.182  0.0257 -0.5658  0.1692
 5505W        W 9024   0.655   4.438   2.021  0.1520 -0.2217  0.1144
 5506W        W 9025   6.863   6.234   2.831  0.0157  0.2344 -0.0248
 5507W        W 9026   6.108   6.813   4.395  0.1020 -0.2811  0.2057
 5508W        W 9027   3.139   4.687   0.766 -0.2613 -0.0407  0.0855
 5509W        W 9028   1.379   6.525   8.896 -0.1585  0.2754  0.0252
 5510W        W 9029   0.886   3.249   9.486  0.0951  0.0390 -0.2445
 5511W        W 9030   5.727   6.474   9.082  0.0044 -0.0342 -0.1050
 5512W        W 9031   3.428   7.563   1.072  0.0355 -0.0860  0.2323
 5513W        W 9032   9.698   4.902   3.050  0.0902 -0.0861  0.0119
 5514W        W 9033   8.244   4.026   9.572 -0.0764  0.0159 -0.1012
 5515W        W 9034   3.873   0.367   2.817 -0.1007  0.1215 -0.0839
 5516W        W 9035   3.911   4.446   9.463 -0.1449  0.0989 -0.2199
 5517W        W 9036   3.221   5.837  12.223 -0.5264  0.1866 -0.2532
 5518W        W 9037   5.259   5.576   3.849  0.1071  0.1478  0.0029
 5519W        W 9038   7.603   4.371   0.472 -0.1009  0.0972  0.0946
 5520W        W 9039   6.084   2.589   3.219 -0.1741 -0.3832  0.2025
 5521W        W 9040   4.392   2.260  10.571  0.0963  0.1192  0.6146
 5522W        W 9041   9.369   9.420   2.878  0.0316  0.0608 -0.3027
 5523W        W 9042   2.325   6.966  12.463 -0.0387  0.0153 -0.0509
 5524W        W 9043   5.147   1.340   8.721  0.0449  0.0204  0.2809
 5525W        W 9044   3.282   1.525  11.986 -0.3968 -0.0461  0.2419
 5526W        W 9045   1.084   0.313   1.328 -0.2184  0.0459 -0.3363
 5527W        W 9046   3.695   4.466  11.622  0.0109 -0.1034  0.1058
 5528W        W 9047   5.968   7.850  10.858 -0.1257 -0.3529 -0.2969
 5529W        W 9048   6.765   9.178  12.271 -0.0008  0.1162 -0.1353
 5530W        W 9049   4.432   6.257   8.608 -0.1457 -0.2256 -0.0392
 5531W        W 9050   3.794   6.353  12.365  0.2299  0.0221 -0.1949
 5532W        W 9051   2.182   4.201   0.287  0.0259  0.0027 -0.0704
 5533W        W 9052   9.554   3.179  11.529  0.0008  0.1220 -0.0874
 5534W        W 9053   2.833   6.143   9.420 -0.0004 -0.3757  0.0506
 5535W        W 9054   1.495   9.187   1.277  0.1515  0.1301  0.0084
 5536W        W 9055   3.492   1.834  10.628  0.0956 -0.0500 -0.0041
 5537W        W 9056   2.886   8.920  10.445 -0.0493 -0.1387 -0.0380
 5538W        W 9057   5.420   2.300   9.791  0.0849  0.5835  0.0850
 5539W        W 9058   2.699   6.928   8.888  0.5146  0.0421 -0.1313
 5540W        W 9059   0.440   4.590   3.372  0.3296  0.1414 -0.1799
 5541W        W 9060   5.916   6.656   0.579 -0.0101 -0.2005 -0.5348
 5542W        W 9061   1.213   3.322  11.512 -0.1110 -0.2545  0.1641
 5543W        W 9062   2.411   6.059   0.588  0.0766 -0.0729  0.3986
 5544W        W 9063   2.107   4.001  10.251  0.1839  0.1661 -0.1874
 5545W        W 9064   0.882   5.710   0.480 -0.1542  0.0929 -0.0944
 5546W        W 9065   9.362   5.353   1.740 -0.3747  0.0863  0.2486
 5547W        W 9066   9.538   6.346  10.528 -0.0477 -0.2862  0.0639
 5548W        W 9067   2.955   8.140   1.929 -0.0395  0.2140 -0.0803
 5549W        W 9068   4.766   1.500   1.610  0.2623 -0.1855  0.0473
 5550W        W 9069   0.312   4.691   1.318  0.1534  0.0072  0.1226
 5551W        W 9070   3.162   2.872   0.313 -0.3570  0.1469 -0.0185
 5552W        W 9071   7.845   4.510   9.394  0.1591  0.0254 -0.0829
 5553W        W 9072   3.616   1.650   4.250  0.0569 -0.4470 -0.0599
 5554W        W 9073   8.905   4.208   3.801 -0.0344 -0.2487  0.2541
 5555W        W 9074   2.351   1.359   9.286  0.0235 -0.3990  0.2870
 5556W        W 9075   6.173   9.165   3.671 -0.1209 -0.3459  0.0140
 5557W        W 9076   6.691   3.191   3.402  0.2227  0.1973 -0.0761
 5558W        W 9077   0.032   0.137   9.739 -0.3908 -0.0369  0.2635
 5559W        W 9078   8.518   8.078   9.242  0.1150 -0.0576  0.0316
 5560W        W 9079   5.971   7.230   4.615 -0.2344 -0.1143 -0.0907
 5561W        W 9080   5.677   7.490   0.720 -0.2374 -0.0174 -0.3406
 5562W        W 9081   3.310   5.970   9.723 -0.3025 -0.0968  0.0392
 5563W        W 9082   3.293   1.070   0.123  0.0143  0.2252  0.2421
 5564W        W 9083   4.052   1.043   3.697  0.1327  0.1209 -0.2078
 5565W        W 9084   5.663   8.309  10.738 -0.3147 -0.4041 -0.0611
 5566W        W 9085   2.021   3.219  10.603  0.1285  0.0659 -0.0685
 5567W        W 9086   1.681   8.329   0.982 -0.0521 -0.1489  0.0884
 5568W        W 9087   3.698   6.066   9.404  0.1151 -0.2076  0.0140
 5569W        W 9088   4.112   0.485   8.587 -0.0605  0.0556 -0.0938
 5570W        W 9089   9.418   6.674   0.429  0.1661 -0.0836  0.0343
 5571W        W 9090   2.652   8.609   3.747 -0.0910  0.4120  0.0394
 5572W        W 9091   2.887   4.549   1.905 -0.2068 -0.0988 -0.3717
 5573W        W 9092   1.568   2.224   2.457 -0.0857 -0.0505  0.0056
 5574W        W 9093   4.515   5.963  11.829 -0.2755 -0.0782 -0.0406
 5575W        W 9094   0.285   7.480   2.640  0.0208  0.0075  0.1020
 5576W        W 9095   1.188   2.902   9.346  0.2638  0.0186 -0.2985
 5577W        W 9096   4.939   1.869   8.860  0.0078  0.1652 -0.0840
 5578W        W 9097   1.582   0.235   1.705 -0.2451 -0.1619  0.1143
 5579W        W 9098   4.526   8.898   4.107  0.2252 -0.2164  0.0027
 5580W        W 9099   5.080   8.631   9.939 -0.1615 -0.0078  0.2075
 5581W        W 9100   5.445   7.055  12.106  0.1068  0.0699 -0.3242
 5582W        W 9101   7.142   2.969  12.052 -0.0405 -0.3521  0.1546
 5583W        W 9102   3.331   5.608   0.915 -0.2404  0.1607 -0.0923
 5584W        W 9103   7.811   4.025  11.214  0.5107 -0.1718 -0.0520
 5585W        W 9104   8.325   2.254   2.458  0.0076  0.1435  0.1500
 5586W        W 9105   5.058   0.239   8.659  0.0821 -0.2751 -0.0727
 5587W        W 9106   6.725   6.339   1.985 -0.0162  0.0151  0.1146
 5588W        W 9107   8.781   1.354  12.393 -0.1620  0.0082  0.1111
 5589W        W 9108   5.841   8.092   9.368  0.0916  0.2938 -0.0298
 5590W        W 9109   8.129   2.261   3.022  0.1139 -0.2191  0.1143
 5591W        W 9110   8.112   3.790  10.751  0.3136  0.0631  0.1164
 5592W        W 9111   5.030   5.762   2.081  0.0120 -0.2818  0.1592
 5593W        W 9112   9.021   9.522   0.950 -0.5187  0.1566  0.2552
 5594W        W 9113   7.052   0.572   2.359 -0.1786  0.0745  0.1308
 5595W        W 9114   8.193   1.824  11.324 -0.4254  0.2260  0.1280
 5596W        W 9115   0.512   6.738  11.297  0.4559  0.1968  0.2368
 5597W        W 9116   2.887   1.768  12.185  0.2760 -0.0494 -0.0943
 5598W        W 9117   0.595   0.647   3.833 -0.0096  0.1317 -0.0072
 5599W        W 9118   3.776   4.848   8.108  0.3769  0.2281 -0.0287
 5600W        W 9119   7.900   2.360   9.791  0.1776 -0.3567  0.2233
 5601W        W 9120   0.883   5.568   9.103  0.1462  0.1998  0.0139
 5602W        W 9121   1.727   2.809   9.797 -0.3037 -0.2537 -0.1568
 5603W        W 9122   0.702   1.369   9.973  0.1368  0.2161  0.3015
 5604W        W 9123   2.286   1.653  11.081 -0.1299  0.0490  0.0048
 5605W        W 9124   1.941   8.804   2.765 -0.2262 -0.0567 -0.0138
 5606W        W 9125   2.558   6.514  11.546  0.0922  0.0564 -0.0291
 5607W        W 9126   0.098   5.670  11.330  0.1218 -0.2598  0.1926
 5608W        W 9127   6.500   9.040   1.942  0.0651  0.1769 -0.0401
 5609W        W 9128   1.541   0.580   0.384  0.2185  0.0764  0.0352
 5610W        W 9129   0.118   6.556   8.552 -0.3149 -0.0427  0.2294
 5611W        W 9130   6.792   8.336  10.593 -0.2271 -0.0692 -0.3027
 5612W        W 9131   5.039   7.984  10.709  0.1432 -0.1149  0.2824
 5613W        W 9132   3.653   7.751   9.545 -0.2794  0.0689  0.0901
 5614W        W 9133   0.183   8.157   0.930 -0.3381  0.2401  0.2352
 5615W        W 9134   5.888   7.294   1.855  0.2783  0.1497  0.1048
 5616W        W 9135   5.647   6.533   4.458 -0.0947  0.2142 -0.0629
 5617W        W 9136   7.490   3.993   2.685 -0.2773  0.2332  0.0690
 5618W        W 9137   2.352   0.747  12.416 -0.1787  0.2093  0.1691
 5619W        W 9138   5.925   8.118   0.990  0.3053 -0.0065 -0.1105
 5620W        W 9139   2.119   9.653  10.155 -0.0350  0.2152 -0.1357
 5621W        W 9140   0.825   1.185   8.084  0.0661 -0.1080 -0.1647
 5622W        W 9141   1.936   0.737   0.752 -0.0406  0.3296  0.1259
 5623W        W 9142   7.740   3.194  11.259 -0.1308  0.6213  0.4320
 5624W        W 9143   5.164   8.437   1.838 -0.0548 -0.4095 -0.2411
 5625W        W 9144   5.086   3.722   2.617  0.3025  0.0025  0.1469
 5626W        W 9145   8.983   5.440   2.572  0.3531  0.1580  0.4228
 5627W        W 9146   0.219   2.737  12.522  0.0419 -0.1394 -0.1690
 5628W        W 9147   6.509   2.036  12.189 -0.1114 -0.0667  0.0778
 5629W        W 9148   7.573   1.872   0.258 -0.1744 -0.0286  0.1490
 5630W        W 9149   8.349   1.530  10.941 -0.0552 -0.0032  0.0944
 5631W        W 9150   3.910   0.027  11.957 -0.3328  0.2551  0.0918
 5632W        W 9151   6.077   2.129   9.240 -0.3109 -0.1637  0.1271
 5633W        W 9152   8.671   6.821   9.241  0.0722 -0.1618  0.0503
 5634W        W 9153   3.046   2.612   8.824 -0.1915 -0.3005 -0.0024
 5635W        W 9154   1.035   4.796   3.347 -0.1163 -0.1312 -0.1732
 5636W        W 9155   1.551   7.871   1.212 -0.1226 -0.0454  0.1068
 5637W        W 9156   5.197   1.526  11.790  0.0628 -0.1704  0.1696
 5638W        W 9157   4.503   9.674   2.263  0.1727 -0.1162 -0.1265
 5639W        W 9158   4.417   2.704   9.963 -0.2513  0.2340  0.0246
 5640W        W 9159   4.630   4.463   1.968 -0.2024  0.2763 -0.0463
 5641W        W 9160   5.006   2.867  11.811  0.3912  0.0832  0.0009
 5642W        W 9161   1.127   0.458  12.155  0.0558  0.2140  0.3204
 5643W        W 9162   7.270   7.482   4.449 -0.2298  0.1244  0.1505
 5644W        W 9163   4.202   2.061  11.029 -0.2067 -0.1518  0.0095
 5645W        W 9164   2.233   2.074   3.111  0.0935  0.0722  0.1483
 5646W        W 9165   0.875   6.977   2.853  0.0185 -0.4051 -0.3719
 5647W        W 9166   6.856   0.672   4.266 -0.1531  0.1497 -0.1498
 5648W        W 9167   4.922   3.137   8.996  0.0495  0.0196  0.2367
 5649W        W 9168   1.516   8.621   2.667  0.1996  0.2594  0.1200
 5650W        W 9169   2.119   5.635  11.762 -0.4315  0.0182  0.3799
 5651W        W 9170   0.639   2.087   9.048  0.2600  0.0678 -0.3057
 5652W        W 9171   6.655   7.097  11.421  0.2771  0.0452 -0.1269
 5653W        W 9172   7.733   6.141   9.383 -0.0294 -0.0003  0.2097
 5654W        W 9173   8.466   7.819  12.031  0.0890 -0.0289 -0.0017
 5655W        W 9174   9.672   1.974   2.690  0.2464  0.1424  0.1812
 5656W        W 9175   9.008   2.947  11.588 -0.1098 -0.0555  0.0284
 5657W        W 9176   3.992   0.347   0.074  0.1071 -0.1146 -0.1967
 5658W        W 9177   9.354   7.502   1.075 -0.0388 -0.2716 -0.0077
 5659W        W 9178   7.956   9.480  10.152  0.1564  0.0549  0.0138
 5660W        W 9179   0.809   0.355   2.171 -0.0083  0.1596  0.0132
 5661W        W 9180   2.992   6.133  10.547  0.1967 -0.0075 -0.1127
 5662W        W 9181   0.441   2.321  10.287  0.1728 -0.1966  0.0521
 5663W        W 9182   3.048   3.481   2.479  0.3021 -0.0753 -0.1397
 5664W        W 9183   2.947   3.869   9.011  0.3217  0.2447  0.0546
 5665W        W 9184   9.059   0.839   8.634  0.0230  0.0231 -0.2267
 5666W        W 9185   4.589   7.810   1.725 -0.1291 -0.0797 -0.0782
 5667W        W 9186   4.732   6.785   3.162  0.0409 -0.0820  0.1558
 5668W        W 9187   7.987   9.621   3.797  0.0597 -0.1429  0.1842
 5669W        W 9188   4.951   2.172   9.419 -0.0013  0.1066  0.0757
 5670W        W 9189   7.511   4.532   0.958 -0.1593  0.1781 -0.0554
 5671W        W 9190   0.948   4.830   4.734  0.0183 -0.2254  0.2157
 5672W        W 9191   0.562   6.189  11.485  0.1315 -0.0178  0.0914
 5673W        W 9192   5.130   7.810   3.848  0.0371 -0.2530 -0.0786
 5674W        W 9193   1.421   3.798   8.860  0.3093  0.1025 -0.2939
 5675W        W 9194   3.140   0.612  11.047 -0.0030 -0.0582 -0.0409
 5676W        W 9195   8.779   9.599   4.505 -0.1558  0.1162  0.0397
 5677W        W 9196   6.679   4.365   8.882 -0.0129  0.0348  0.1063
 5678W        W 9197   5.763   2.003   3.375 -0.0827  0.2657 -0.0615
 5679W        W 9198   8.684   5.549   0.520  0.3750 -0.2849  0.0699
 5680W        W 9199   1.305   1.422  10.229  0.0654 -0.1406 -0.3002
 5681W        W 9200   5.294   6.270   8.656 -0.0804 -0.1352 -0.1989
 5682W        W 9201   3.966   6.139   3.446  0.3975  0.3654 -0.1554
 5683W        W 9202   0.830   5.188  12.041  0.1622 -0.2712 -0.2784
 5684W        W 9203   4.151   3.681  10.213  0.1265 -0.1094 -0.0939
 5685W        W 9204   9.458   6.961  11.872  0.0596 -0.2085 -0.0382
 5686W        W 9205   7.447   1.068  10.374  0.2602 -0.2173  0.0732
 5687W        W 9206   1.936   2.546   3.328  0.1287 -0.1156  0.2726
 5688W        W 9207   3.450   4.915   9.066 -0.2772 -0.0823  0.3647
 5689W        W 9208   4.214   6.521   3.783  0.1533  0.0607 -0.0930
 5690W        W 9209   3.035   6.640   1.435  0.0927 -0.1561 -0.1125
 5691W        W 9210   0.680   3.835  12.125 -0.1207 -0.1714  0.2671
 5692W        W 9211   9.104   0.583   2.904 -0.2343 -0.2453 -0.0488
 5693W        W 9212   3.072   2.680   3.684  0.2269 -0.1605 -0.3742
 5694W        W 9213   5.762   7.437  11.618 -0.2736 -0.2105 -0.2715
 5695W        W 9214   2.606   4.427   8.378  0.0712  0.3093  0.0453
 5696W        W 9215   3.667   6.360   9.818 -0.2602 -0.0242  0.2077
 5697W        W 9216   4.937   5.644  10.109  0.4482 -0.2245 -0.1266
 5698W        W 9217   1.700   7.205   0.380  0.1175  0.1278 -0.0881
 5699W        W 9218   9.252   3.061   8.673  0.1478 -0.0309 -0.0789
 5700W        W 9219   0.486   1.879  10.573 -0.1802  0.1007 -0.2681
 5701W        W 9220   6.829   7.901   1.616 -0.0351  0.3593 -0.3037
 5702W        W 9221   9.077   8.114  10.918  0.1491  0.2199  0.3694
 5703W        W 9222   0.294   6.557  10.512 -0.0342 -0.0204  0.1369
 5704W        W 9223   5.808   4.814   1.727  0.2203 -0.0984  0.0225
 5705W        W 9224   1.116   2.311   3.389 -0.1293  0.1444  0.0390
 5706W        W 9225   1.016   2.331   3.844  0.0801  0.1421  0.2392
 5707W        W 9226   9.242   9.431  12.376  0.1278 -0.0870  0.1955
 5708W        W 9227   1.147   4.834  11.936 -0.0544  0.1171 -0.0250
 5709W        W 9228   5.981   0.458   9.408 -0.2160  0.2491  0.0594
 5710W        W 9229   1.692   5.808   4.985  0.1370 -0.4149 -0.1198
 5711W        W 9230   1.973   6.274   0.573  0.5093 -0.0175  0.0516
 5712W        W 9231   9.687   8.648   0.259  0.2638  0.2637  0.1523
 5713W        W 9232   9.176   4.765   2.120 -0.0176 -0.1418  0.1747
 5714W        W 9233   1.884   2.219  12.165 -0.0000  0.2211  0.0968
 5715W        W 9234   1.932   0.122   3.867 -0.1522  0.0503 -0.1506
 5716W        W 9235   8.684   2.208   8.490  0.0082  0.0545  0.1256
 5717W        W 9236   3.634   4.388   9.874  0.3006 -0.0106 -0.0733
 5718W        W 9237   6.466   2.751  11.430  0.1489  0.1026 -0.0724
 5719W        W 9238   2.972   3.696   4.256  0.0242 -0.1558  0.0696
 5720W        W 9239   7.176   4.908  12.273  0.0372  0.2515 -0.1948
 5721W        W 9240   5.122   8.578   3.460  0.1234  0.0241 -0.4687
 5722W        W 9241   6.035   9.625   9.591 -0.0053 -0.2487 -0.0702
 5723W        W 9242   8.285   8.259   2.552 -0.2993 -0.2721  0.3699
 5724W        W 9243   5.023   0.313   3.431 -0.0872  0.2632  0.0873
 5725W        W 9244   4.818   1.282  12.030  0.0515 -0.1697  0.2149
 5726W        W 9245   4.476   8.997  11.839 -0.0438 -0.1809 -0.1083
 5727W        W 9246   8.460   5.823  11.603  0.2156  0.0923  0.0454
 5728W        W 9247   1.410   2.705  12.098 -0.3111  0.1450 -0.1194
 5729W        W 9248   2.797   2.864  12.348 -0.1991  0.2272  0.2713
 5730W        W 9249   5.107   1.402  10.036 -0.5328 -0.1367 -0.3771
 5731W        W 9250   7.448   1.897  10.527  0.0731  0.2163  0.1661
 5732W        W 9251   2.530   1.911  10.693 -0.0019  0.0078 -0.1744
 5733W        W 9252   6.400   4.131   1.831 -0.1585  0.2056 -0.0068
 5734W        W 9253   9.664   2.469  10.104  0.1872 -0.1387 -0.1292
 5735W        W 9254   6.818   3.511  11.144  0.0148  0.2607  0.1068
 5736W        W 9255   2.257   0.414  10.275  0.0177 -0.3217 -0.1302
 5737W        W 9256   7.756   6.476   9.814 -0.0509 -0.0910  0.1042
 5738W        W 9257   1.410   2.760  11.572 -0.1035 -0.2554 -0.3078
 5739W        W 9258   1.186   1.210  10.892 -0.0926  0.0169  0.3251
 5740W        W 9259   0.078   3.765   0.859 -0.0170 -0.2158 -0.1119
 5741W        W 9260   5.557   0.669  10.288 -0.1956 -0.1367  0.1325
 5742W        W 9261   7.561   9.100   0.835 -0.2139 -0.0618 -0.1336
 5743W        W 9262   3.065   5.726  11.123 -0.0529 -0.0980 -0.0746
 5744W        W 9263   1.503   3.657  11.200  0.3636 -0.2212  0.0603
 5745W        W 9264   9.072   7.939   8.567 -0.0565 -0.0352 -0.0164
 5746W        W 9265   5.003   7.493   2.028 -0.0188 -0.0089 -0.0304
 5747W        W 9266   2.027   1.858  10.603  0.0522  0.1402  0.0251
 5748W        W 9267   8.208   2.936   1.297  0.3214  0.2905 -0.1802
 5749W        W 9268   1.150   8.734  12.005  0.0546  0.0770  0.1116
 5750W        W 9269   3.555   2.149  11.671  0.3041 -0.1016 -0.0606
 5751W        W 9270   1.159   5.816   4.160 -0.0105 -0.1813 -0.3645
 5752W        W 9271   8.752   3.209  11.908  0.0597 -0.0719 -0.1672
 5753W        W 9272   3.618   1.689   2.231 -0.0165  0.1088  0.2440
 5754W        W 9273   8.340   7.742   3.137  0.1146 -0.1819  0.0250
 5755W        W 9274   7.834   4.345  11.742 -0.0504  0.4140  0.1409
 5756W        W 9275   4.215   0.043   9.436  0.0463 -0.0548 -0.0098
 5757W        W 9276   8.345   9.645   8.912  0.1689 -0.0249  0.0801
 5758W        W 9277   3.639   3.432  10.789 -0.1449 -0.2376 -0.1618
 5759W        W 9278   4.479   5.453  11.672  0.2252  0.2637 -0.1081
 5760W        W 9279   8.981   4.307  10.442  0.1410  0.3489  0.0536
 5761W        W 9280   1.934   6.114   2.052  0.2308  0.0917 -0.0388
 5762W        W 9281   5.089   3.212   0.681 -0.0999  0.2556  0.0214
 5763W        W 9282   6.843   3.420   1.299  0.1406 -0.1301 -0.0533
 5764W        W 9283   1.967   6.675  11.572 -0.0799  0.2181  0.1212
 5765W        W 9284   3.540   2.619  11.863 -0.2048  0.1060 -0.1982
 5766W        W 9285   2.278   3.069  10.113 -0.0324 -0.1126 -0.2611
 5767W        W 9286   0.524   8.851   0.335 -0.0052 -0.2207 -0.0210
 5768W        W 9287   7.546   0.209  11.517  0.3451  0.1331  0.2434
 5769W        W 9288   3.748   7.080  11.192 -0.1377 -0.2746  0.1717
 5770W        W 9289   7.448   2.974   0.877 -0.1921 -0.1162 -0.3159
 5771W        W 9290   6.820   0.934   1.405 -0.0262  0.4111  0.1797
 5772W        W 9291   4.087   1.517   3.297  0.1711  0.1023  0.0326
 5773W        W 9292   7.621   4.053  10.275 -0.3564 -0.0676 -0.1219
 5774W        W 9293   5.944   6.092   1.323 -0.0806  0.0122  0.0097
 5775W        W 9294   4.588   1.469  12.507  0.0038  0.1023 -0.1041
 5776W        W 9295   4.042   6.749   0.336  0.0486  0.0620 -0.0432
 5777W        W 9296   2.198   3.777   4.078  0.4131  0.1964 -0.1068
 5778W        W 9297   2.362   2.358  10.496  0.3474  0.0638  0.1288
 5779W        W 9298   2.670   8.413   0.946 -0.0707 -0.0281 -0.0162
 5780W        W 9299   9.209   4.766   0.099 -0.0071  0.3547  0.0202
 5781W        W 9300   8.199   9.097   1.144 -0.4156  0.2388  0.0725
 5782W        W 9301   1.589   3.676   1.678  0.2091 -0.3281 -0.0802
 5783W        W 9302   7.092   0.335   0.027  0.2320  0.0554  0.0949
 5784W        W 9303   9.343   8.780  12.391  0.0469  0.1086  0.0039
 5785W        W 9304   3.045   1.173  11.262  0.4195 -0.1734  0.0117
 5786W        W 9305   9.021   6.603  10.192  0.3556  0.1101  0.0461
 5787W        W 9306   0.081   3.895  10.937 -0.1927 -0.1897 -0.1856
 5788W        W 9307   2.157   3.326   2.372 -0.4078  0.3603 -0.2376
 5789W        W 9308   2.956   3.164   8.961 -0.0158 -0.0671  0.1939
 5790W        W 9309   8.690   3.465   3.251 -0.0089 -0.0557  0.0526
 5791W        W 9310   3.464   3.839   1.246 -0.1000 -0.1182  0.0964
 5792W        W 9311   8.471   6.347   1.676  0.0725  0.0195  0.1318
 5793W        W 9312   7.217   5.966   2.088  0.0970  0.3563  0.0814
 5794W        W 9313   8.964   5.609  11.463 -0.0213 -0.0392 -0.1041
 5795W        W 9314   1.172   4.304   0.448  0.3124  0.0543  0.0249
 5796W        W 9315   7.252   2.671  12.461 -0.1850 -0.1092 -0.0340
 5797W        W 9316   5.158   9.523  11.321 -0.1149 -0.0238 -0.0000
 5798W        W 9317   4.171   4.613  11.166 -0.3013 -0.2442 -0.1627
 5799W        W 9318   3.563   8.237   1.471 -0.1313 -0.0126  0.0731
 5800W        W 9319   8.196   8.774   0.126 -0.1242 -0.1133 -0.2475
 5801W        W 9320   2.148   5.760   2.919 -0.2527 -0.0075  0.1685
 5802W        W 9321   0.575   4.137   3.562  0.0412 -0.0602  0.0191
 5803W        W 9322   8.385   9.428   1.561  0.3871 -0.1161  0.1275
 5804W        W 9323   8.358   8.539  12.275 -0.4281 -0.0467  0.1343
 5805W        W 9324   8.549   0.870   2.270  0.0503  0.0180 -0.0405
 5806W        W 9325   4.628   1.716   3.309 -0.0311  0.0206  0.2441
 5807W        W 9326   7.943   8.841   3.290  0.0311  0.0840  0.2637
 5808W        W 9327   4.481   7.392   0.095 -0.2136  0.0961  0.2148
 5809W        W 9328   0.027   3.301   9.533 -0.3021  0.1419  0.0294
 5810W        W 9329   2.594   8.758   9.525 -0.0481  0.3588  0.2645
 5811W        W 9330   2.177   6.886   3.740 -0.0282 -0.1031 -0.1043
 5812W        W 9331   7.163   5.189  11.427 -0.1268 -0.1468 -0.0313
 5813W        W 9332   5.826   7.040  10.316 -0.2681  0.1529 -0.1824
 5814W        W 9333   2.469   3.104  11.345 -0.1019  0.0348 -0.4414
 5815W        W 9334   1.601   8.551  10.458 -0.3584 -0.0400 -0.2549
 5816W        W 9335   6.608   7.088  10.876 -0.1176 -0.0267  0.3538
 5817W        W 9336   4.077   0.266   7.945  0.1383  0.0237 -0.2975
 5818W        W 9337   7.001   8.703  12.346  0.1275  0.0637 -0.0422
 5819W        W 9338   6.561   8.022   3.864  0.0794  0.1971  0.3908
 5820W        W 9339   6.771   7.088   3.620 -0.0125  0.0261  0.3040
 5821W        W 9340   8.394   2.344  10.078  0.3943  0.1693 -0.2047
 5822W        W 9341   2.224   6.292  11.868 -0.1243 -0.0570 -0.2258
 5823W        W 9342   4.545   8.752  11.099 -0.1883  0.0328 -0.2201
 5824W        W 9343   8.448   3.311   0.760  0.1256  0.0067  0.3066
 5825W        W 9344   9.061   6.779   3.507 -0.1176 -0.0719  0.0129
 5826W        W 9345   3.150   1.652   2.515  0.0876  0.0419  0.2028
 5827W        W 9346   6.329   2.466   2.769  0.2027  0.0698 -0.1380
 5828W        W 9347   0.121   8.579   3.281  0.3458  0.1442  0.0955
 5829W        W 9348   3.189   8.836   0.686 -0.1869 -0.0497  0.1380
 5830W        W 9349   3.945   2.003   7.963 -0.2433 -0.1343  0.2327
 5831W        W 9350   3.013   9.506   1.184  0.1545 -0.0891 -0.0098
 5832W        W 9351   6.387   2.436   2.238 -0.0473 -0.0373 -0.1077
 5833W        W 9352   4.210   0.138   1.817  0.0679 -0.0413  0.1661
 5834W        W 9353   0.385   8.218   4.061  0.1503  0.2207 -0.0020
 5835W        W 9354   6.151   0.717   2.526  0.3297 -0.0685 -0.0368
 5836W        W 9355   7.003   1.853   1.631  0.3104  0.0103 -0.1958
 5837W        W 9356   6.827   6.631   2.459  0.0590  0.1912  0.0213
 5838W        W 9357   5.105   9.503   9.514  0.0264  0.3918  0.3635
 5839W        W 9358   5.379   4.970  10.957 -0.1720  0.0012 -0.0959
 5840W        W 9359   5.041   3.095   2.007 -0.0629 -0.1867 -0.0627
 5841W        W 9360   9.135   6.367   8.536  0.1950  0.1766  0.3318
 5842W        W 9361   2.520   1.599  11.866 -0.3805  0.3074 -0.5195
 5843W        W 9362   5.343   2.133   0.998  0.2536 -0.1425 -0.0309
 5844W        W 9363   0.792   5.237   2.554  0.0250 -0.0107  0.1509
 5845W        W 9364   8.459   4.463   1.364  0.0016  0.0277 -0.3023
 5846W        W 9365   8.813   4.339   3.305  0.2042  0.0113  0.1887
 5847W        W 9366   7.819   1.960   3.414 -0.0393 -0.2545  0.0180
 5848W        W 9367   7.965   3.770   1.881  0.3950  0.1372 -0.0525
 5849W        W 9368   8.749   1.797   0.649 -0.0878 -0.0781  0.1325
 5850W        W 9369   4.966   9.158   4.429 -0.1684  0.3715 -0.2274
 5851W        W 9370   5.072   0.468  10.491  0.1345  0.2198 -0.1250
 5852W        W 9371   2.742   2.422  11.163 -0.2119  0.0262 -0.3754
 5853W        W 9372   1.633   4.879  10.064 -0.2549  0.1116  0.0505
 5854W        W 9373   0.986   8.927   0.471  0.1179 -0.2724  0.0134
 5855W        W 9374   3.379   9.155  11.635 -0.1333  0.1237 -0.2779
 5856W        W 9375   0.998   4.216   4.199  0.0861 -0.2921 -0.0613
 5857W        W 9376   2.888   5.977   2.029 -0.0949  0.1526  0.0970
 5858W        W 9377   7.491   8.114   0.040  0.0283  0.1961 -0.1749
 5859W        W 9378   8.510   6.944   4.251  0.2726  0.0864  0.1738
 5860W        W 9379   1.301   6.020   1.959  0.1674  0.0625  0.1986
 5861W        W 9380   0.770   2.567   0.771  0.0361 -0.1415  0.0099
 5862W        W 9381   2.324   7.479   0.684  0.1959  0.2002  0.2317
 5863W        W 9382   9.415   8.619   9.272 -0.1478 -0.3883 -0.0160
 5864W        W 9383   3.630   9.045   9.878  0.1417 -0.0948  0.2071
 5865W        W 9384   3.673   1.517   0.377 -0.1423 -0.0634  0.1910
 5866W        W 9385   3.579   1.966   3.843  0.0702 -0.1742  0.0303
 5867W        W 9386   5.144   1.190   3.422  0.2149 -0.0510 -0.0919
 5868W        W 9387   6.650   0.597   2.687 -0.0430 -0.2253  0.3059
 5869W        W 9388   0.600   0.590  10.466 -0.0794 -0.3589  0.1268
 5870W        W 9389   2.083   2.094   2.456 -0.3890 -0.1911  0.0408
 5871W        W 9390   3.010   3.884   9.536 -0.2935 -0.3035 -0.3213
 5872W        W 9391   8.264   8.601  10.891 -0.0407  0.2464  0.3417
 5873W        W 9392   1.716   5.487   0.919  0.1700  0.2179  0.2132
 5874W        W 9393   9.053   5.667   4.325  0.0383  0.0494 -0.0775
 5875W        W 9394   9.498   8.359   9.962 -0.4404  0.2614 -0.2519
 5876W        W 9395   6.686   0.360  11.314 -0.0883  0.0212  0.1284
 5877W        W 9396   3.111   7.373   2.266 -0.0212 -0.2050 -0.1926
 5878W        W 9397   4.340   1.485   3.742 -0.0130 -0.0656  0.0822
 5879W        W 9398   6.065   6.610   4.880 -0.3734 -0.2340  0.0017
 5880W        W 9399   9.040   6.921   1.232 -0.2453 -0.1083 -0.2752
 5881W        W 9400   4.072   1.684   0.072  0.2291  0.1258 -0.0394
 5882W        W 9401   0.819   9.372   4.219 -0.0732 -0.3117  0.0421
 5883W        W 9402   2.284   5.233  11.407  0.0700  0.0772 -0.2433
 5884W        W 9403   8.682   4.640   1.768 -0.1132  0.1337 -0.1824
 5885W        W 9404   1.457   7.965  10.914  0.2580  0.0896  0.3097
 5886W        W 9405   7.231   4.745   2.805  0.2973 -0.3582 -0.0730
 5887W        W 9406   8.989   7.156   3.875 -0.1813  0.0103 -0.0406
 5888W        W 9407   5.999   6.504   2.637  0.1126  0.0838  0.1114
 5889W        W 9408   4.395   8.359   9.141  0.0403  0.1858 -0.0390
 5890W        W 9409   4.369   9.144  10.077 -0.6874  0.1253  0.0335
 5891W        W 9410   6.549   0.154   3.454 -0.2379  0.3811 -0.2854
 5892W        W 9411   7.269   6.443  10.587 -0.2597 -0.1010  0.1403
 5893W        W 9412   4.442   9.685   7.853 -0.1078  0.2363 -0.0117
 5894W        W 9413   2.124   2.532   1.169 -0.2947 -0.2418 -0.0175
 5895W        W 9414   5.757   6.501   8.599  0.3973  0.1986 -0.0499
 5896W        W 9415   1.046   0.025   1.752  0.3774 -0.0677 -0.1008
 5897W        W 9416   7.508   0.740  11.860 -0.1001 -0.0671  0.4074
 5898W        W 9417   5.837   4.018   3.836 -0.1669  0.0642  0.0959
 5899W        W 9418   5.532   1.038   0.547  0.0838 -0.3293 -0.1220
 5900W        W 9419   7.861   0.232  11.922  0.2613  0.0315 -0.0231
 5901W        W 9420   5.406   3.190   3.863  0.0028 -0.0744 -0.1179
 5902W        W 9421   5.686   8.478   1.812  0.1755 -0.0441  0.0413
 5903W        W 9422   5.288   1.197  11.337  0.2597 -0.0610  0.2453
 5904W        W 9423   7.425   4.984  11.810  0.1543 -0.2773  0.0839
 5905W        W 9424   5.598   8.483   9.523 -0.1354 -0.0118 -0.1410
 5906W        W 9425   7.656   7.585  11.630 -0.1218  0.3251 -0.0110
 5907W        W 9426   1.502   4.475   1.038 -0.0563  0.2880  0.0601
 5908W        W 9427   2.761   6.881   0.617  0.2844 -0.0540  0.1354
 5909W        W 9428   6.681   5.073  10.836  0.1800 -0.0040  0.0794
 5910W        W 9429   4.455   7.689  11.478 -0.0100  0.1297  0.2720
 5911W        W 9430   8.247   3.222   3.078 -0.0073 -0.1191 -0.1262
 5912W        W 9431   9.352   1.602   3.698 -0.2921 -0.0614  0.1036
 5913W        W 9432   3.095   1.440   9.682  0.2590 -0.4420  0.3879
 5914W        W 9433   2.412   9.359  11.174  0.0852  0.2580 -0.1990
 5915W        W 9434   0.072   6.613   9.036 -0.0092  0.0088  0.0213
 5916W        W 9435   5.222   9.649   8.316  0.0154 -0.0124  0.1194
 5917W        W 9436   2.709   2.419  11.700 -0.4492 -0.1007 -0.0251
 5918W        W 9437   5.397   4.118   9.698  0.1784 -0.0059 -0.0149
 5919W        W 9438   7.350   5.679   3.882 -0.1235  0.1493 -0.0776
 5920W        W 9439   0.701   4.597   4.376 -0.1073  0.4526  0.1093
 5921W        W 9440   4.731   2.504   2.450  0.3254  0.2659 -0.0707
 5922W        W 9441   9.137   2.627   9.013  0.1316  0.2593  0.1024
 5923W        W 9442   7.043   7.748   3.099 -0.3800 -0.0586  0.3145
 5924W        W 9443   1.984   7.315   9.285  0.3389  0.0627 -0.2683
 5925W        W 9444   1.633   7.696   2.245 -0.1028  0.0932  0.0072
 5926W        W 9445   6.486   7.058   0.657 -0.1052  0.3074  0.0362
 5927W        W 9446   7.551   3.600  10.451 -0.1269 -0.0199  0.1324
 5928W        W 9447   5.453   5.745  10.088 -0.1086  0.0015 -0.1811
 5929W        W 9448   7.751   9.211   9.158  0.0609  0.0182 -0.3365
 5930W        W 9449   3.980   3.954   1.382 -0.0677 -0.1660 -0.4943
 5931W        W 9450   2.104   7.458   2.296 -0.0729 -0.0741 -0.1186
 5932W        W 9451   5.828   0.026   9.109 -0.1438  0.0282  0.0563
 5933W        W 9452   8.325   7.930   3.600  0.1612 -0.1549 -0.2014
 5934W        W 9453   0.581   9.102   9.357 -0.0155 -0.1955 -0.0645
 5935W        W 9454   8.374   8.502   1.885 -0.2561  0.0889  0.2266
 5936W        W 9455   8.824   2.206  11.878 -0.1136 -0.2109  0.1693
 5937W        W 9456   3.028   6.955   4.102 -0.3319  0.2218  0.0034
 5938W        W 9457   9.071   9.661  11.433  0.0894  0.0853 -0.0656
 5939W        W 9458   7.581   8.112   3.651 -0.3043 -0.1431 -0.3413
 5940W        W 9459   8.611   0.555   3.137  0.1606  0.2443 -0.0872
 5941W        W 9460   8.828   7.165   1.620  0.1044  0.0955  0.3363
 5942W        W 9461   5.979   8.929  10.757 -0.5264  0.0133 -0.2973
 5943W        W 9462   6.832   1.871  12.527 -0.0267  0.2144  0.0631
 5944W        W 9463   4.627   0.471   2.090  0.0318 -0.0205 -0.3842
 5945W        W 9464   0.412   5.626   3.288 -0.2477 -0.2665  0.2794
 5946W        W 9465   5.757   7.428  11.107  0.2830 -0.2963  0.1126
 5947W        W 9466   7.445   3.109   2.825  0.1472 -0.0789 -0.3847
 5948W        W 9467   3.126   0.713  10.477 -0.1291 -0.0707  0.1517
 5949W        W 9468   2.795   7.445   9.843 -0.0523  0.0714  0.0796
 5950W        W 9469   1.734   6.925   1.235  0.2239 -0.1805  0.1899
 5951W        W 9470   5.126   8.008   1.070  0.1117  0.0314  0.2886
 5952W        W 9471   7.201   3.954  12.019  0.1789  0.0065  0.1192
 5953W        W 9472   0.524   7.706   4.182  0.1183 -0.0753  0.1310
 5954W        W 9473   4.239   7.914   9.265  0.2380  0.0368  0.0129
 5955W        W 9474   1.577   1.073   0.088  0.0024  0.0216 -0.0260
 5956W        W 9475   4.078   8.758   9.871  0.1078 -0.0415 -0.0444
 5957W        W 9476   1.632   5.728   2.736  0.0251 -0.0068  0.0777
 5958W        W 9477   7.654   8.897   1.298  0.0669 -0.2880  0.1874
 5959W        W 9478   9.226   8.455   8.632 -0.0852  0.0593 -0.4350
 5960W        W 9479   2.286   7.743  10.761  0.0890 -0.0839 -0.2958
 5961W        W 9480   8.630   3.752   9.478 -0.0730  0.3349 -0.1803
 5962W        W 9481   6.534   8.933   2.859 -0.0496  0.2356  0.2337
 5963W        W 9482   7.250   9.221   3.185 -0.0129  0.0616 -0.0626
 5964W        W 9483   5.181   1.051  10.367  0.2043  0.3807  0.0676
 5965W        W 9484   1.855   3.505  11.616  0.2441 -0.1306  0.2854
 5966W        W 9485   3.935   2.377   3.468  0.0858 -0.2532 -0.0238
 5967W        W 9486   9.599   1.125   8.525 -0.3496  0.1000  0.3372
 5968W        W 9487   1.298   3.794  10.671 -0.2946  0.0393  0.0087
 5969W        W 9488   6.835   5.510   9.422 -0.3470  0.0157 -0.0662
 5970W        W 9489   8.602   6.302   0.054  0.1379 -0.1318 -0.4225
 5971W        W 9490   0.390   6.288  10.981  0.1508  0.0082 -0.1182
 5972W        W 9491   8.321   9.172  10.090 -0.1246  0.2872  0.1504
 5973W        W 9492   9.289   7.540   4.254 -0.2033 -0.0386  0.1363
 5974W        W 9493   5.486   4.731   3.211 -0.1345  0.1642 -0.1734
 5975W        W 9494   2.104   9.703   9.159  0.1944  0.0480  0.0727
 5976W        W 9495   2.991   8.781   9.159 -0.4279 -0.0854  0.2852
 5977W        W 9496   4.677   0.219   9.809  0.1113 -0.3079 -0.0901
 5978W        W 9497   8.550   5.471  10.175  0.0734 -0.0178  0.0149
 5979W        W 9498   8.522   8.652   9.196 -0.0305 -0.1142  0.5781
 5980W        W 9499   2.485   2.551   1.594  0.0324 -0.0054  0.3843
 5981W        W 9500   3.832   6.780   2.026  0.0743  0.1489 -0.1874
 5982W        W 9501   9.298   4.044  10.749 -0.1797 -0.2843 -0.0468
 5983W        W 9502   5.228   5.051   3.785  0.2600  0.1683 -0.1062
 5984W        W 9503   7.602   5.888   3.323  0.0130 -0.1275  0.2066
 5985W        W 9504   6.417   5.427   0.185  0.1530 -0.1994 -0.0090
 5986W        W 9505   4.730   1.696   9.748 -0.1513 -0.0146  0.1179
 5987W        W 9506   1.335   0.203  11.495  0.2656  0.0727 -0.1712
 5988W        W 9507   4.655   2.074  11.251  0.1049  0.2498  0.0245
 5989W        W 9508   2.276   7.715   9.355  0.0018  0.2506 -0.0907
 5990W        W 9509   9.055   7.396   0.016  0.1448  0.4440  0.1080
 5991W        W 9510   5.705   8.886   9.833 -0.0452  0.1500  0.2241
 5992W        W 9511   7.677   0.488   2.804  0.2067  0.0911 -0.0288
 5993W        W 9512   8.653   1.814  12.245  0.1067  0.0653  0.1485
 5994W        W 9513   9.483   2.695  11.711  0.4306 -0.2260 -0.1981
 5995W        W 9514   8.849   3.519   1.843 -0.0551 -0.1480 -0.2673
 5996W        W 9515   9.455   7.098   9.234 -0.1656  0.0393  0.1501
 5997W        W 9516   6.536   8.476  11.598  0.0775 -0.1621  0.0162
 5998W        W 9517   1.399   1.577  11.396 -0.3971  0.1080 -0.4689
 5999W        W 9518   3.967   1.337   4.140  0.1638 -0.0594 -0.1257
 6000W        W 9519   1.167   3.709   4.225  0.1013 -0.2259 -0.1450
 6001W        W 9520   7.431   1.572  11.516 -0.1008  0.0941  0.1995
 6002W        W 9521   0.295   5.431   2.817  0.2322 -0.2687  0.1935
 6003W        W 9522   0.454   1.591   1.388  0.0100 -0.0524 -0.2788
 6004W        W 9523   7.003   9.499   2.824 -0.2434 -0.1400 -0.1359
 6005W        W 9524   0.301   2.811  10.122 -0.0893 -0.0998 -0.1491
 6006W        W 9525   2.473   4.385  10.752  0.2909  0.3052 -0.3969
 6007W        W 9526   9.664   3.111   2.345  0.2288 -0.0587  0.0465
 6008W        W 9527   9.597   5.748   2.863 -0.2131  0.1307 -0.0636
 6009W        W 9528   9.314   8.320   1.567 -0.0131 -0.2736  0.1696
 6010W        W 9529   8.721   4.155  10.883 -0.0001  0.1098  0.2938
 6011W        W 9530   7.828   6.857  10.183  0.0868  0.2103  0.0391
 6012W        W 9531   0.925   0.085  11.836  0.1478  0.0436  0.1062
 6013W        W 9532   4.575   4.786   4.245 -0.2154  0.1239  0.2329
 6014W        W 9533   5.353   6.761   8.913  0.0160 -0.3405  0.0009
 6015W        W 9534   8.884   8.562  12.212  0.1065 -0.0906  0.2332
 6016W        W 9535   1.878   1.365   9.407  0.3737 -0.1021 -0.0443
 6017W        W 9536   5.159   6.177  10.577  0.0708  0.0358  0.1986
 6018W        W 9537   7.901   7.697   3.831 -0.1588  0.4558 -0.1144
 6019W        W 9538   1.598   4.219   1.751 -0.1387  0.0850  0.0108
 6020W        W 9539   9.662   3.078   1.670 -0.0848 -0.2624  0.2042
 6021W        W 9540   3.268   7.057   1.934 -0.0365  0.0102 -0.0719
 6022W        W 9541   7.851   5.957   0.843  0.0606 -0.1018 -0.0504
 6023W        W 9542   5.821   3.017   9.001  0.0382  0.0229  0.1395
 6024W        W 9543   1.550   0.398   0.905  0.0406  0.0110  0.0578
 6025W        W 9544   6.993   4.760  10.551  0.2297 -0.3647  0.0980
 6026W        W 9545   5.124   8.257   9.583  0.1739 -0.2466 -0.3915
 6027W        W 9546   1.997   5.280   8.254 -0.1932 -0.4002 -0.0602
 6028W        W 9547   7.358   0.457   1.866 -0.0133 -0.1466 -0.1435
 6029W        W 9548   8.579   9.098   3.274 -0.1020 -0.0961  0.1262
 6030W        W 9549   0.245   1.046   2.790 -0.0699 -0.0236 -0.1777
 6031W        W 9550   0.998   7.321   1.764  0.0117 -0.0898  0.1755
 6032W        W 9551   6.501   5.739   3.664 -0.1952  0.2393 -0.0391
 6033W        W 9552   3.660   7.863  12.096  0.0991  0.0679 -0.0392
 6034W        W 9553   1.208   7.496   2.157  0.0579 -0.2513 -0.2067
 6035W        W 9554   6.538   1.869  11.709 -0.2872  0.0257  0.4485
 6036W        W 9555   3.617   0.516   3.573  0.4833  0.0056 -0.1309
 6037W        W 9556   3.839   8.239   3.166  0.1847  0.0910 -0.0435
 6038W        W 9557   1.344   3.174   9.693 -0.1127  0.1932 -0.3115
 6039W        W 9558   6.511   7.363   8.626  0.1384  0.1870 -0.2546
 6040W        W 9559   8.661   9.476   3.628 -0.4122  0.0839 -0.1199
 6041W        W 9560   8.257   6.984   3.098  0.4725 -0.1881  0.1129
 6042W        W 9561   7.399   0.754   9.511 -0.0476  0.1055 -0.2308
 6043W        W 9562   7.228   9.187  12.093 -0.3928 -0.1273  0.2079
 6044W        W 9563   5.684   8.628   3.899  0.2263 -0.0392 -0.1074
 6045W        W 9564   5.656   9.488  12.421 -0.2173  0.6316  0.2214
 6046W        W 9565   2.119   4.979   2.559 -0.1124 -0.0744  0.0949
 6047W        W 9566   5.798   1.461  10.942 -0.2164  0.0977 -0.2722
 6048W        W 9567   2.694   1.778   0.670  0.0760  0.0499 -0.0368
 6049W        W 9568   5.164   6.956   3.381 -0.3709 -0.0075  0.0279
 6050W        W 9569   8.639   2.916   2.939 -0.3312 -0.2292  0.3487
 6051W        W 9570   6.699   1.040  11.027 -0.1183 -0.2043 -0.3589
 6052W        W 9571   7.498   5.637  12.034 -0.1019 -0.0282 -0.1479
 6053W        W 9572   4.655   4.099  11.821  0.4044  0.0675 -0.2451
 6054W        W 9573   1.912   7.621   4.128  0.3272  0.0015 -0.3294
 6055W        W 9574   7.241   6.590   1.509 -0.2721  0.0654 -0.1743
 6056W        W 9575   6.683   8.344  12.056 -0.0744  0.1677  0.1600
 6057W        W 9576   0.168   4.505   2.355 -0.0420  0.0343 -0.0018
 6058W        W 9577   1.116   8.179  11.251 -0.3481 -0.4494  0.0095
 6059W        W 9578   5.938   7.429   8.702 -0.0675 -0.1589  0.3571
 6060W        W 9579   5.393   2.683   9.393 -0.2804  0.1406  0.3527
 6061W        W 9580   6.377   7.223   2.103  0.0158 -0.0120 -0.0528
 6062W        W 9581   8.630   3.905   4.309 -0.1916 -0.0960  0.0774
 6063W        W 9582   7.500   6.561   3.354  0.1025  0.0447 -0.1758
 6064W        W 9583   2.199   5.682  11.256  0.1243 -0.0234 -0.0749
 6065W        W 9584   6.452   7.643   9.197  0.0868  0.0356  0.3098
 6066W        W 9585   2.203   2.832   2.077  0.3627 -0.2254  0.0113
 6067W        W 9586   1.474   3.323   3.485 -0.5186 -0.0506 -0.2007
 6068W        W 9587   9.026   6.990   0.312  0.3521 -0.1277 -0.2853
 6069W        W 9588   6.054   2.127   1.991 -0.1992  0.0200 -0.1447
 6070W        W 9589   0.699   0.819   2.015  0.3449 -0.0346  0.0961
 6071W        W 9590   4.743   6.892   2.653 -0.1909 -0.2752  0.1615
 6072W        W 9591   6.140   6.804   3.950  0.0512 -0.1333  0.2138
 6073W        W 9592   8.822   0.348  10.199 -0.1623  0.1169 -0.0899
 6074W        W 9593   4.834   3.438   2.946 -0.0171  0.0856 -0.1495
 6075W        W 9594   4.418   8.808  12.268 -0.0365 -0.2164  0.1111
 6076W        W 9595   2.900   0.975   3.618 -0.3925  0.0606  0.1572
 6077W        W 9596   6.426   5.424   9.015  0.1026  0.0914 -0.3280
 6078W        W 9597   8.811   1.842   2.787 -0.2210  0.0063 -0.0557
 6079W        W 9598   6.492   7.118   3.062 -0.1176 -0.0939  0.2013
 6080W        W 9599   4.295   2.045  11.638  0.0879 -0.2028  0.0516
 6081W        W 9600   2.197   7.551   1.735  0.0297  0.2938 -0.0738
 6082W        W 9601   4.896   7.371  12.319  0.0911 -0.0001  0.0591
 6083W        W 9602   4.281   1.758   1.487  0.1996 -0.0773 -0.0439
 6084W        W 9603   7.666   2.952   9.207 -0.0078  0.1016  0.0137
 6085W        W 9604   2.953   7.559  11.790 -0.0778  0.2861  0.3672
 6086W        W 9605   1.419   0.841   7.864 -0.1280  0.0308  0.0452
 6087W        W 9606   9.616   6.190   4.638  0.0084 -0.3514 -0.2948
 6088W        W 9607   3.280   6.477   4.125 -0.3999 -0.3676 -0.0109
 6089W        W 9608   2.911   0.503   9.093  0.1043 -0.1206 -0.0713
 6090W        W 9609   4.396   4.395   9.143  0.1323  0.2454 -0.1286
 6091W        W 9610   9.527   9.543   3.342 -0.1080  0.1313 -0.1594
 6092W        W 9611   0.033   4.825   3.546  0.2254 -0.0436  0.0292
 6093W        W 9612   9.293   3.197  12.018  0.0083 -0.0649  0.0893
 6094W        W 9613   6.634   5.408   1.511  0.1257  0.0191 -0.0161
 6095W        W 9614   6.676   7.472  10.473 -0.2042  0.1761  0.1675
 6096W        W 9615   4.430   1.207   0.789  0.2158  0.0687  0.0512
 6097W        W 9616   6.237   4.442   0.123 -0.3193 -0.2560 -0.1952
 6098W        W 9617   7.764   6.693   4.617 -0.0456  0.0213  0.0643
 6099W        W 9618   1.953   6.256   2.976 -0.0271 -0.2858 -0.0598
 6100W        W 9619   3.494   5.589   0.098  0.0678  0.2663  0.0905
 6101W        W 9620   2.690   2.056   0.027  0.2592 -0.1595 -0.0579
 6102W        W 9621   0.914   4.105   8.958 -0.1643  0.4706  0.0345
 6103W        W 9622   2.963   2.239   3.886  0.4417 -0.1309  0.2197
 6104W        W 9623   1.232   3.229   8.081 -0.0427 -0.1384 -0.3866
 6105W        W 9624   5.386   3.215   0.077 -0.2619 -0.1645  0.2679
 6106W        W 9625   3.458   9.711   1.360  0.2703  0.1281  0.1108
 6107W        W 9626   9.423   0.228  10.219  0.2877  0.1431 -0.4618
 6108W        W 9627   0.526   1.002   1.027  0.2219 -0.2111  0.0175
 6109W        W 9628   3.097   6.997   8.599  0.5341 -0.2107  0.0682
 6110W        W 9629   1.769   6.833  10.172 -0.1979 -0.1167 -0.0410
 6111W        W 9630   7.656   5.297   4.039 -0.1030  0.1341 -0.2576
 6112W        W 9631   6.248   1.133   0.288  0.0021  0.0557 -0.1590
 6113W        W 9632   8.605   7.404  11.572 -0.1562  0.0387 -0.0741
 6114W        W 9633   1.634   7.700   9.806  0.1279  0.2288  0.1507
 6115W        W 9634   5.853   0.368   4.492 -0.0657 -0.1014 -0.4319
 6116W        W 9635   2.395   4.775   3.376 -0.0228  0.0252 -0.0379
 6117W        W 9636   3.619   1.751   9.025 -0.3139 -0.1458 -0.0600
 6118W        W 9637   8.611   0.234  10.815  0.0940  0.1410  0.0897
 6119W        W 9638   7.494   5.247   0.343 -0.2979  0.1851  0.0719
 6120W        W 9639   6.069   8.697  11.696 -0.2362 -0.2461 -0.2294
 6121W        W 9640   9.353   8.039   4.542 -0.1509  0.0434 -0.3336
 6122W        W 9641   8.647   8.780  10.015  0.1609  0.0697  0.1115
 6123W        W 9642   4.287   4.132  10.436  0.0598 -0.4939 -0.1253
 6124W        W 9643   1.993   9.425  12.102  0.0331 -0.3130  0.2158
 6125W        W 9644   8.980   7.645  10.729 -0.0600  0.1285 -0.2507
 6126W        W 9645   1.852   4.636   9.038  0.1194  0.1094 -0.2045
 6127W        W 9646   2.272   1.193  10.005 -0.0609 -0.0749  0.3189
 6128W        W 9647   5.461   0.480   9.125 -0.0819  0.1620  0.3180
 6129W        W 9648   0.122   5.266  11.927 -0.3050  0.1691  0.0755
 6130W        W 9649   0.259   5.065   9.715 -0.3238 -0.2376  0.1451
 6131W        W 9650   1.140   6.558   3.970 -0.0483 -0.1338  0.1373
 6132W        W 9651   7.187   3.450  11.717  0.0748 -0.1630 -0.0598
 6133W        W 9652   2.242   8.495   8.247  0.0512  0.1203  0.0602
 6134W        W 9653   4.644   0.783  11.234 -0.0990 -0.0735 -0.1261
 6135W        W 9654   4.802   8.692   2.132 -0.0972  0.0860 -0.0759
 6136W        W 9655   3.441   4.419   2.573  0.2413 -0.0809 -0.2817
 6137W        W 9656   4.682   4.271  10.170  0.0293 -0.0432  0.4018
 6138W        W 9657   9.561   4.490   1.349  0.3634 -0.3981  0.0134
 6139W        W 9658   7.533   7.849   3.042  0.0229  0.0126 -0.2199
 6140W        W 9659   2.962   4.750   2.866  0.1982  0.0056  0.3361
 6141W        W 9660   9.048   4.774  10.559 -0.0515  0.1556 -0.3203
 6142W        W 9661   7.951   1.501  11.673 -0.0099  0.1832 -0.0099
 6143W        W 9662   4.893   8.440  12.519  0.1298  0.0706  0.0757
 6144W        W 9663   7.237   3.192  11.271  0.2692  0.0478 -0.1988
 6145W        W 9664   8.919   8.487   0.757  0.1639 -0.1163 -0.2309
 6146W        W 9665   2.782   7.080   2.673  0.0732 -0.1182  0.4332
 6147W        W 9666   5.264   1.221   3.912  0.1679  0.2150  0.0941
 6148W        W 9667   8.210   8.342   0.550 -0.1890  0.0368  0.1156
 6149W        W 9668   2.558   2.472   2.945 -0.0050  0.3220 -0.2843
 6150W        W 9669   1.654   6.128   0.254  0.2600  0.4642 -0.1209
 6151W        W 9670   6.361   6.199   3.633 -0.2186  0.0260  0.0409
 6152W        W 9671   7.208   6.175  11.291 -0.3162  0.0794 -0.1411
 6153W        W 9672   3.689   7.845  10.190  0.0016  0.0002  0.1161
 6154W        W 9673   8.860   8.285   1.217 -0.2277 -0.1814  0.0018
 6155W        W 9674   2.499   1.487   2.451 -0.1947  0.0519 -0.0782
 6156W        W 9675   5.962   7.002  10.922 -0.1334 -0.2402  0.2114
 6157W        W 9676   3.594   8.583   9.682  0.2479 -0.2490 -0.0072
 6158W        W 9677   0.657   4.600   0.919 -0.0123  0.1941  0.1243
 6159W        W 9678   6.532   2.684   0.034  0.0843 -0.1320 -0.0250
 6160W        W 9679   3.966   4.664   8.890 -0.0840  0.0147  0.2862
 6161W        W 9680   6.574   5.914   9.251 -0.1341  0.1231 -0.0808
 6162W        W 9681   4.026   0.936   2.505 -0.1195  0.2618  0.1390
 6163W        W 9682   8.611   7.408   2.951  0.0590  0.0916 -0.2309
 6164W        W 9683   6.667   2.781  11.934 -0.2726  0.1987 -0.1839
 6165W        W 9684   1.600   9.559   4.065 -0.1458  0.0098  0.1829
 6166W        W 9685   1.385   7.732   1.690 -0.2583 -0.2717  0.0083
 6167W        W 9686   8.310   3.377  11.874 -0.0516  0.2953 -0.0307
 6168W        W 9687   7.454   6.706   1.001  0.3140  0.2075  0.1034
 6169W        W 9688   2.206   2.325  11.775 -0.4142 -0.3098  0.0410
 6170W        W 9689   6.295   8.066   2.233 -0.3980  0.4627  0.1722
 6171W        W 9690   3.809   5.550   2.193 -0.2485 -0.1377 -0.0393
 6172W        W 9691   3.611   3.132  11.810  0.5642 -0.1268 -0.0361
 6173W        W 9692   8.366   6.957  12.484  0.0929  0.1350 -0.4667
 6174W        W 9693   1.620   8.141  11.395 -0.0573 -0.2087  0.1013
 6175W        W 9694   2.300   6.527   8.730  0.0738  0.1445 -0.2102
 6176W        W 9695   5.482   4.610  10.571  0.2629  0.1442  0.0298
 6177W        W 9696   9.387   2.882  10.253  0.0832 -0.0417 -0.0887
 6178W        W 9697   6.203   8.067  11.775 -0.0316 -0.1143  0.3090
 6179W        W 9698   2.603   9.356   0.395  0.0318  0.2080  0.1854
 6180W        W 9699   1.461   5.799  10.061 -0.0814  0.1359 -0.3224
 6181W        W 9700   2.242   6.000   1.667  0.1031  0.2745 -0.3122
 6182W        W 9701   5.252   9.056  11.515  0.1295 -0.0091  0.1066
 6183W        W 9702   8.822   4.484   8.435  0.0178  0.0087 -0.1572
 6184W        W 9703   5.822   3.963  10.508 -0.2109  0.4582 -0.2499
 6185W        W 9704   2.148   2.968  11.015  0.1998  0.1985 -0.1208
 6186W        W 9705   8.905   3.049   1.941 -0.0621  0.4386  0.0378
 6187W        W 9706   7.351   4.394  11.846  0.3651 -0.0823 -0.0208
 6188W        W 9707   0.007   1.270  11.136 -0.1345  0.1333 -0.2132
 6189W        W 9708   1.790   3.781   3.159 -0.0005 -0.0787 -0.0479
 6190W        W 9709   5.469   3.858   0.122  0.1542  0.2607 -0.2855
 6191W        W 9710   7.815   1.029   0.095 -0.0669  0.0656 -0.0830
 6192W        W 9711   6.578   6.619  10.267  0.1258  0.1459 -0.3817
 6193W        W 9712   8.469   6.889  11.421 -0.3103  0.1800 -0.2450
 6194W        W 9713   6.170   5.421   9.963 -0.0038  0.0163  0.0731
 6195W        W 9714   5.919   0.836  10.657 -0.0888 -0.0685  0.1766
 6196W        W 9715   6.290   4.141   3.555 -0.1400  0.1552 -0.2232
 6197W        W 9716   3.868   0.408   1.502  0.1918  0.1528  0.1420
 6198W        W 9717   7.809   0.298  11.095  0.0766  0.0602 -0.0119
 6199W        W 9718   5.207   6.445  10.961 -0.3597 -0.4725 -0.0731
 6200W        W 9719   2.342   0.437   8.996 -0.2521  0.0668  0.4437
 6201W        W 9720   3.983   6.600   8.791  0.0287 -0.2507 -0.3588
 6202W        W 9721   5.099   4.586   4.169 -0.0525 -0.3474 -0.0716
 6203W        W 9722   0.248   2.160   9.385  0.2977 -0.1465 -0.1004
 6204W        W 9723   2.933   6.381   2.840  0.0496  0.4099  0.3426
 6205W        W 9724   2.927   6.449   1.882 -0.0572  0.1424  0.0269
 6206W        W 9725   5.545   6.020   4.331 -0.1937  0.0293  0.1358
 6207W        W 9726   6.031   3.867   9.354  0.3116 -0.1695  0.0517
 6208W        W 9727   8.444   2.353   1.916  0.4620 -0.0850 -0.1288
 6209W        W 9728   7.505   7.872  12.088  0.0448  0.1422 -0.1212
 6210W        W 9729   4.801   6.558   0.123 -0.0534  0.2424 -0.4413
 6211W        W 9730   9.199   8.256  12.453  0.1938  0.1838  0.1528
 6212W        W 9731   6.882   5.101   2.640  0.0254  0.2739 -0.0866
 6213W        W 9732   4.698   6.222   4.513  0.5435  0.0575  0.3067
 6214W        W 9733   2.416   5.597   9.834  0.1212 -0.0843  0.1707
 6215W        W 9734   9.570   6.097   0.464  0.0839 -0.1065  0.1899
 6216W        W 9735   3.801   3.936  11.083  0.1687  0.1677 -0.0468
 6217W        W 9736   7.467   4.615   1.448  0.0965 -0.1065 -0.1733
 6218W        W 9737   6.634   9.548  11.261 -0.1590  0.4578  0.0706
 6219W        W 9738   8.352   0.960   8.749 -0.1257 -0.1451 -0.0675
 6220W        W 9739   2.575   4.692   4.302 -0.3373  0.0860  0.0039
 6221W        W 9740   0.986   9.327  10.475 -0.1057 -0.1364 -0.2164
 6222W        W 9741   4.794   6.766   1.527  0.3874 -0.1942 -0.1528
 6223W        W 9742   4.942   7.000   8.524 -0.0401  0.1238 -0.4584
 6224W        W 9743   9.015   2.132   3.161 -0.2088 -0.0237  0.0906
 6225W        W 9744   4.433   7.866  11.986  0.2440  0.2651 -0.1658
 6226W        W 9745   2.031   5.114   1.124 -0.0239 -0.1238  0.3210
 6227W        W 9746   8.294   9.102   9.146  0.1942  0.2348  0.2070
 6228W        W 9747   1.545   0.916   3.764  0.1931  0.0026  0.0240
 6229W        W 9748   5.312   6.026   3.666  0.1515  0.1579  0.1855
 6230W        W 9749   7.009   3.922  11.583  0.1068  0.2020 -0.2737
 6231W        W 9750   6.023   2.083   2.562 -0.0632 -0.1279  0.0915
 6232W        W 9751   2.681   7.850   3.028 -0.0001 -0.2253  0.3739
 6233W        W 9752   0.791   5.619   9.704 -0.0733 -0.0016 -0.0804
 6234W        W 9753   3.162   7.889  12.161 -0.1415 -0.2503  0.1842
 6235W        W 9754   0.444   8.261   3.002 -0.0482  0.3675  0.2722
 6236W        W 9755   6.284   4.615   3.302  0.4224 -0.0073 -0.2034
 6237W        W 9756   6.762   3.910  10.020  0.1927 -0.1744 -0.3286
 6238W        W 9757   1.801   6.692   0.703 -0.1922 -0.2863  0.3096
 6239W        W 9758   5.769   8.947  10.316  0.2328  0.1663 -0.2712
 6240W        W 9759   4.460   5.702   9.874 -0.3626 -0.4750  0.2460
 6241W        W 9760   3.103   2.168   0.865  0.2462  0.3499 -0.1950
 6242W        W 9761   7.356   9.017  10.982 -0.0387 -0.0013  0.2908
 6243W        W 9762   6.457   4.232   3.088  0.0123  0.2961 -0.1970
 6244W        W 9763   2.609   0.472   0.282 -0.2154  0.0098  0.2659
 6245W        W 9764   3.373   4.451  10.610  0.1172  0.1442  0.0129
 6246W        W 9765   8.726   4.999   2.186  0.1788 -0.0338 -0.1180
 6247W        W 9766   5.035   1.984   9.986  0.1867  0.1707  0.1807
 6248W        W 9767   0.926   7.848   1.782 -0.0457 -0.1842  0.0249
 6249W        W 9768   0.824   7.596  10.310  0.1013  0.1139 -0.2864
 6250W        W 9769   1.136   4.677   0.797  0.1860  0.1512 -0.2166
 6251W        W 9770   0.329   2.109  11.416 -0.1376  0.2952  0.1916
 6252W        W 9771   3.231   7.491   9.492 -0.1150 -0.3720 -0.3075
 6253W        W 9772   9.147   1.191  12.063 -0.0058  0.0751  0.1612
 6254W        W 9773   2.578   4.409   2.948 -0.1465 -0.0612  0.0455
 6255W        W 9774   8.612   9.263  11.722 -0.1332  0.1252 -0.0728
 6256W        W 9775   0.659   3.593   9.213 -0.2470  0.0240  0.0103
 6257W        W 9776   0.072   8.761   2.784  0.0057  0.0879 -0.1211
 6258W        W 9777   6.764   1.542   2.239 -0.0957 -0.0658  0.2314
 6259W        W 9778   0.327   1.690   9.236  0.2195 -0.1211 -0.0446
 6260W        W 9779   6.837   4.320  11.996 -0.1861  0.1142  0.3172
 6261W        W 9780   8.435   6.451   4.317  0.2992 -0.4687 -0.3019
 6262W        W 9781   1.273   8.625   9.353  0.0084  0.0286  0.2517
 6263W        W 9782   7.197   3.542   0.202  0.5617  0.1133  0.4609
 6264W        W 9783   3.985   3.867   3.222  0.2254  0.1727 -0.2379
 6265W        W 9784   2.006   0.682  11.117  0.0952  0.2772 -0.2257
 6266W        W 9785   3.116   2.779  10.617  0.1937 -0.0363 -0.1191
 6267W        W 9786   8.263   4.617   2.156 -0.2139  0.2970 -0.0220
 6268W        W 9787   3.225   0.053   9.159  0.0262  0.0031  0.0893
 6269W        W 9788   8.262   7.326  12.166  0.2423 -0.0964 -0.0070
 6270W        W 9789   2.258   2.877   2.633 -0.0196 -0.1214 -0.1324
 6271W        W 9790   7.297   9.023   2.299  0.0083 -0.0941  0.1673
 6272W        W 9791   6.075   2.835   9.943 -0.0535  0.1369  0.0352
 6273W        W 9792   8.802   1.926   1.873  0.0397  0.3015  0.3636
 6274W        W 9793   6.754   2.059   0.531 -0.0892  0.0444 -0.0725
 6275W        W 9794   7.283   8.693   1.593  0.1803  0.3202  0.1124
 6276W        W 9795   6.559   6.926   4.112  0.1090 -0.1898  0.2838
 6277W        W 9796   2.348   9.047   2.946  0.0552 -0.5124  0.2088
 6278W        W 9797   0.443   3.072   9.716  0.0618  0.0690 -0.0198
 6279W        W 9798   3.763   6.536  11.053  0.0471  0.0081  0.1500
 6280W        W 9799   2.011   1.484   1.766  0.1808  0.1709 -0.2370
 6281W        W 9800   3.494   2.973  12.324 -0.2674 -0.0622 -0.3855
 6282W        W 9801   6.931   5.520   8.476 -0.3342 -0.2066 -0.2666
 6283W        W 9802   9.113   2.422  11.481  0.2714  0.1093 -0.0032
 6284W        W 9803   1.898   5.685  12.477 -0.0979  0.1968 -0.1103
 6285W        W 9804   3.190   3.894   0.014  0.1359  0.1918  0.1754
 6286W        W 9805   1.429   3.604   2.592 -0.2482 -0.1811 -0.0653
 6287W        W 9806   0.947   7.031  11.149  0.0476 -0.1298  0.1178
 6288W        W 9807   2.435   4.098  11.187 -0.1246 -0.2014  0.1632
 6289W        W 9808   5.653   3.092   0.764 -0.0430  0.1778  0.2524
 6290W        W 9809   9.336   5.508  12.224 -0.1373 -0.0189 -0.1472
 6291W        W 9810   8.574   3.679   2.319  0.1787 -0.2801  0.1794
 6292W        W 9811   4.265   3.756   4.077  0.3413  0.1377  0.0508
 6293W        W 9812   9.406   5.966  11.450 -0.1103  0.2415  0.3807
 6294W        W 9813   3.302   2.744   1.222  0.2833  0.0128 -0.1060
 6295W        W 9814   5.887   3.280   2.661 -0.1869  0.0603  0.1186
 6296W        W 9815   4.689   4.746  11.620  0.0214 -0.1675 -0.2767
 6297W        W 9816   5.777   8.006   1.980  0.1876 -0.0546 -0.2345
 6298W        W 9817   9.599   2.433   9.116 -0.0389 -0.0707  0.0734
 6299W        W 9818   7.535   6.661   4.154 -0.0892  0.1840 -0.0854
 6300W        W 9819   3.352   7.813   0.544  0.2713 -0.1697 -0.2402
 6301W        W 9820   7.081   3.099   0.409  0.0077  0.0747 -0.1250
 6302W        W 9821   2.399   1.572   1.499  0.4191 -0.0117 -0.0690
 6303W        W 9822   6.106   6.816   9.379  0.0853  0.1394  0.1445
 6304W        W 9823   8.145   7.556   9.066  0.2286  0.2907 -0.0304
 6305W        W 9824   1.536   0.726   1.866  0.1553 -0.1461 -0.0994
 6306W        W 9825   4.864   2.476  11.563 -0.1402  0.0686 -0.1208
 6307W        W 9826   7.584   7.280   1.891  0.0373  0.2077 -0.0180
 6308W        W 9827   8.532   3.268  11.447  0.2153  0.3284  0.1207
 6309W        W 9828   7.900   3.664   3.828  0.0449 -0.2237  0.0513
 6310W        W 9829   5.035   4.253   3.807 -0.1102  0.0165 -0.0003
 6311W        W 9830   1.027   6.342   1.727 -0.1253  0.1508 -0.1011
 6312W        W 9831   3.981   1.429   1.288  0.0402 -0.3575  0.1400
 6313W        W 9832   7.635   6.361   2.927 -0.1327  0.1725  0.0699
 6314W        W 9833   7.039   5.805   3.550  0.0196 -0.2746 -0.1361
 6315W        W 9834   3.387   8.126   2.372 -0.0784 -0.1074  0.0554
 6316W        W 9835   2.525   3.729   9.907 -0.0413 -0.0482  0.0024
 6317W        W 9836   2.283   7.959   2.553 -0.2591 -0.2882 -0.2117
 6318W        W 9837   1.550   0.041   1.251  0.4324  0.0466 -0.0938
 6319W        W 9838   1.210   7.825   9.374  0.2455 -0.0520 -0.0251
 6320W        W 9839   5.936   8.135   3.189  0.2367 -0.0191  0.0035
 6321W        W 9840   8.985   3.219   0.589  0.3547 -0.4099  0.0412
 6322W        W 9841   2.141   1.646   2.805 -0.0997  0.0995 -0.0240
 6323W        W 9842   7.906   5.589   0.022  0.0754 -0.1846  0.2211
 6324W        W 9843   4.270   9.456   3.138 -0.1158  0.3495 -0.2839
 6325W        W 9844   7.481   0.374  10.720  0.0503  0.1790  0.0736
 6326W        W 9845   4.271   2.147   3.184 -0.1450 -0.2614 -0.2766
 6327W        W 9846   5.285   6.603  10.335 -0.0660  0.4612  0.0844
 6328W        W 9847   8.921   8.522  11.166  0.1180  0.1772  0.1855
 6329W        W 9848   9.056   1.266   1.555 -0.0677 -0.1365  0.0354
 6330W        W 9849   5.019   5.317  10.924  0.3087  0.0512 -0.2675
 6331W        W 9850   7.044   5.974   9.575 -0.1464  0.3795 -0.0699
 6332W        W 9851   8.304   4.857   1.121 -0.2809 -0.4742 -0.1462
 6333W        W 9852   4.309   2.777   3.070  0.0791 -0.0294  0.2390
 6334W        W 9853   2.545   2.452   0.921 -0.1697 -0.2149 -0.2238
 6335W        W 9854   0.823   3.447   2.540 -0.4671 -0.2103 -0.1924
 6336W        W 9855   6.527   9.078  11.435 -0.2448  0.2803 -0.3628
 6337W        W 9856   1.283   4.140   8.546 -0.1307 -0.1614 -0.2804
 6338W        W 9857   4.198   5.699   1.905 -0.2158  0.0715 -0.1036
 6339W        W 9858   8.706   9.163   1.146 -0.1969  0.0453 -0.1213
 6340W        W 9859   7.210   7.838   1.269  0.0604 -0.3695 -0.1446
 6341W        W 9860   4.881   5.155  10.260 -0.2095 -0.3063  0.2840
 6342W        W 9861   8.606   2.735  11.806 -0.3263 -0.3304  0.1481
 6343W        W 9862   8.497   1.357   2.536  0.0559  0.2773 -0.0609
 6344W        W 9863   1.887   6.461   1.192 -0.0632  0.1140 -0.0424
 6345W        W 9864   1.433   7.139  11.098 -0.4492  0.0433 -0.2728
 6346W        W 9865   1.224   7.950   9.883  0.1627  0.0294  0.0424
 6347W        W 9866   0.970   2.917   1.502 -0.1459  0.2706  0.2898
 6348W        W 9867   1.178   6.195   0.272 -0.0966 -0.0074  0.1531
 6349W        W 9868   2.525   4.054   0.649  0.2625 -0.0355  0.1325
 6350W        W 9869   8.957   2.499  10.019 -0.2740 -0.0236  0.0655
 6351W        W 9870   5.930   6.543   1.147 -0.1934 -0.1922  0.2008
 6352W        W 9871   3.775   3.272   0.472  0.1123 -0.2587  0.2169
 6353W        W 9872   4.620   1.746  10.805 -0.1744 -0.2718 -0.0664
 6354W        W 9873   8.726   7.926   9.687 -0.3148 -0.1629 -0.0018
 6355W        W 9874   5.629   8.975   0.158 -0.2399 -0.0290  0.1140
 6356W        W 9875   6.434   3.987   0.265 -0.1205  0.1544  0.0938
 6357W        W 9876   9.653   7.252  12.389 -0.1060  0.2843  0.0983
 6358W        W 9877   3.467   0.443   3.096 -0.2936 -0.0661  0.1418
 6359W        W 9878   1.236   8.142   1.998 -0.1142 -0.1204 -0.0894
 6360W        W 9879   2.156   3.026  12.346 -0.1277 -0.1896 -0.1287
 6361W        W 9880   4.583   3.410   4.701  0.3264 -0.0137 -0.1893
 6362W        W 9881   3.336   2.305   3.513  0.0360 -0.0646 -0.1781
 6363W        W 9882   2.518   7.943   1.087 -0.0318 -0.1334 -0.3211
 6364W        W 9883   3.524   2.809  10.055  0.0358 -0.0472  0.1591
 6365W        W 9884   2.675   4.672   0.924  0.0421  0.1237  0.2029
 6366W        W 9885   9.690   9.168   2.058 -0.2421 -0.3813 -0.3413
 6367W        W 9886   8.496   1.591   0.258  0.1615  0.4681  0.2151
 6368W        W 9887   4.265   8.543   0.616 -0.2715 -0.2234 -0.1096
 6369W        W 9888   6.854   9.251   2.355 -0.2331 -0.1724  0.0039
 6370W        W 9889   5.138   7.827   2.439  0.1281  0.0542 -0.0464
 6371W        W 9890   4.685   2.620  12.115 -0.1965 -0.0008  0.1245
 6372W        W 9891   4.146   3.019   8.694 -0.2258 -0.0520 -0.2810
 6373W        W 9892   3.338   3.348   1.132 -0.4757  0.1951 -0.1669
 6374W        W 9893   4.358   1.361   8.388 -0.1039  0.0202  0.3688
 6375W        W 9894   0.157   0.966   2.264 -0.1589  0.0942 -0.0952
 6376W        W 9895   2.402   0.888  11.328 -0.3417  0.0369 -0.1839
 6377W        W 9896   3.012   0.141   0.356  0.1561  0.1793 -0.4307
 6378W        W 9897   2.739   3.765  12.335 -0.0014  0.2411  0.4914
 6379W        W 9898   5.475   6.832   2.478  0.0418 -0.0500 -0.1189
 6380W        W 9899   9.093   5.999   3.287  0.0634 -0.0041 -0.1995
 6381W        W 9900   5.603   7.065   0.482  0.0111 -0.0180  0.0978
 6382W        W 9901   5.465   2.927   2.718 -0.0019 -0.0273 -0.0931
 6383W        W 9902   4.096   7.458   8.879  0.1933  0.1037  0.3757
 6384W        W 9903   0.559   2.827   3.025 -0.3133  0.1084  0.1864
 6385W        W 9904   1.395   4.456  11.754 -0.2909  0.0373  0.1080
 6386W        W 9905   1.576   3.710   3.834 -0.0664 -0.3380 -0.0983
 6387W        W 9906   1.078   0.589   1.787 -0.0876  0.1738 -0.0771
 6388W        W 9907   0.523   8.821   9.751 -0.0210  0.0332  0.1165
 6389W        W 9908   9.337   2.248  11.874 -0.0901  0.0620  0.1195
 6390W        W 9909   2.989   0.345   1.310 -0.3144  0.1314 -0.1821
 6391W        W 9910   5.554   1.045  12.138 -0.0366  0.2504 -0.0411
 6392W        W 9911   6.656   3.495   0.648 -0.0428 -0.3652  0.3106
 6393W        W 9912   3.081   2.422  10.238 -0.2192  0.2011  0.1022
 6394W        W 9913   0.622   5.022   0.087 -0.1774 -0.1337  0.0790
 6395W        W 9914   5.757   3.783   2.730 -0.0461  0.1990 -0.1306
 6396W        W 9915   6.590   1.912   1.941  0.2000 -0.0481 -0.1801
 6397W        W 9916   3.874   2.599   1.817  0.3058 -0.2053 -0.1616
 6398W        W 9917   7.199   6.836   4.536  0.0574  0.1032  0.0039
 6399W        W 9918   2.629   6.167   0.111 -0.0240  0.2118 -0.2356
 6400W        W 9919   1.254   1.898   3.115 -0.0451  0.1300 -0.0284
 6401W        W 9920   6.124   7.125  11.367 -0.1091  0.0070 -0.2619
 6402W        W 9921   8.865   3.433   4.373 -0.0524  0.0716  0.0189
 6403W        W 9922   6.649   8.900   8.845 -0.3498 -0.1426 -0.0339
 6404W        W 9923   8.635   7.547   0.556 -0.2037  0.1328  0.0341
 6405W        W 9924   0.983   1.367  11.308 -0.1108 -0.0100 -0.1085
 6406W        W 9925   1.789   7.728   2.729  0.1400  0.1767 -0.0703
 6407W        W 9926   4.801   2.422   1.462  0.1247  0.0398  0.0717
 6408W        W 9927   7.675   8.557   8.727  0.0381 -0.1801 -0.1281
 6409W        W 9928   4.234   9.335  10.524  0.0292  0.0733  0.2421
 6410W        W 9929   7.871   8.954   2.005 -0.0781 -0.1992 -0.1990
 6411W        W 9930   3.354   3.071  10.947 -0.1316  0.0094  0.3328
 6412W        W 9931   5.469   4.260   4.150  0.1351 -0.2208 -0.1398
 6413W        W 9932   8.285   5.777  10.681  0.0070  0.1378  0.0880
 6414W        W 9933   9.269   5.349   0.887  0.2782 -0.2502  0.1071
 6415W        W 9934   7.056   7.877  12.475  0.1760  0.2721 -0.2687
 6416W        W 9935   4.343   0.707   3.511 -0.4293  0.0725  0.1476
 6417W        W 9936   1.420   5.868   9.066 -0.1456 -0.2398  0.0331
 6418W        W 9937   1.588   4.006  10.195  0.2856  0.1117 -0.0160
 6419W        W 9938   5.255   8.587   1.331  0.0193 -0.0958  0.0207
 6420W        W 9939   2.016   6.524   4.266 -0.0314 -0.1875 -0.1259
 6421W        W 9940   8.621   5.864   2.514  0.0748 -0.0806 -0.0642
 6422W        W 9941   1.795   3.783   0.387  0.0042  0.2175 -0.0564
 6423W        W 9942   8.663   2.827   0.422  0.0033 -0.1274  0.0780
 6424W        W 9943   6.319   5.161  10.431 -0.3652  0.0999 -0.2054
 6425W        W 9944   8.207   8.717   4.127 -0.0231 -0.1029  0.0143
 6426W        W 9945   3.864   8.378   1.065 -0.0704 -0.1500  0.2647
 6427W        W 9946   0.749   6.524   3.678  0.2369  0.1574 -0.0118
 6428W        W 9947   1.754   1.163   0.541  0.0189  0.0188 -0.1389
 6429W        W 9948   3.293   2.368  12.501 -0.1724  0.1709  0.2312
 6430W        W 9949   5.896   4.204  11.505 -0.1103  0.1029 -0.1203
 6431W        W 9950   1.624   4.381   2.556  0.1658  0.1237 -0.0631
 6432W        W 9951   4.165   3.597   9.155  0.1991  0.0134  0.2212
 6433W        W 9952   6.175   1.789   8.891 -0.3691  0.0766 -0.1880
 6434W        W 9953   0.255   0.658   1.304 -0.1207  0.3187 -0.1611
 6435W        W 9954   4.712   0.513   3.793 -0.0767 -0.0365 -0.1633
 6436W        W 9955   5.999   2.610   1.893  0.0024  0.0435 -0.2115
 6437W        W 9956   8.598   3.969   3.069 -0.3117  0.2761 -0.2063
 6438W        W 9957   5.369   3.626   9.525  0.0507 -0.4336  0.0089
 6439W        W 9958   7.094   2.359   0.844 -0.0050  0.1866  0.2152
 6440W        W 9959   8.708   8.260   8.805  0.2331  0.2558 -0.0125
 6441W        W 9960   3.241   0.851   3.175 -0.0807 -0.0310 -0.0310
 6442W        W 9961   0.629   7.523   2.066  0.2144 -0.5642 -0.2289
 6443W        W 9962   0.537   5.277   9.302  0.0053  0.0027 -0.1153
 6444W        W 9963   1.460   4.757   3.084 -0.1790  0.2316  0.0942
 6445W        W 9964   6.249   7.182  12.293  0.1532  0.0165 -0.1639
 6446W        W 9965   6.777   6.845  12.319  0.1581 -0.1091 -0.1942
 6447W        W 9966   6.890   4.197   9.604 -0.0805 -0.2262 -0.3560
 6448W        W 9967   6.031   3.561   3.678  0.0944 -0.3551  0.5814
 6449W        W 9968   2.802   2.873   2.726  0.0157 -0.2583  0.0493
 6450W        W 9969   0.697   8.536   0.711 -0.4261  0.0160  0.1162
 6451W        W 9970   3.778   8.706   3.144 -0.0423 -0.0745 -0.3348
 6452W        W 9971   8.669   2.161   1.058 -0.0460  0.0593  0.1832
 6453W        W 9972   6.537   3.134   0.963 -0.2775  0.1255  0.0052
 6454W        W 9973   1.997   1.449   2.279  0.2865  0.0085 -0.1440
 6455W        W 9974   1.165   8.936   2.034  0.4291  0.0633 -0.1724
 6456W        W 9975   7.042   0.884  11.382 -0.1235 -0.1026  0.0108
 6457W        W 9976   0.630   8.584   4.312 -0.0789 -0.2447  0.0124
 6458W        W 9977   3.071   5.773   4.558  0.0531  0.0779 -0.1247
 6459W        W 9978   2.675   3.882   3.940 -0.3717  0.1926  0.0924
 6460W        W 9979   6.587   1.519  10.842  0.1300  0.0942  0.2258
 6461W        W 9980   2.764   4.947   8.324 -0.0202 -0.0984 -0.1145
 6462W        W 9981   3.266   1.277  10.707  0.0909  0.0787  0.3066
 6463W        W 9982   0.190   4.540   0.626  0.0392  0.0241  0.2908
 6464W        W 9983   2.237   8.693   6.137  0.1875  0.0599  0.0922
 6465W        W 9984   1.681   9.462   0.866 -0.2665  0.1958  0.0523
 6466W        W 9985   3.714   4.563   0.075  0.0468 -0.0912  0.0161
 6467W        W 9986   3.582   4.121   3.511 -0.2244 -0.2210  0.0171
 6468W        W 9987   2.568   9.677  11.594  0.1360 -0.0117  0.2310
 6469W        W 9988   1.390   7.081   8.892  0.2489  0.0039  0.1548
 6470W        W 9989   2.490   3.370  10.865 -0.2869  0.0435 -0.3931
 6471W        W 9990   5.412   4.779   0.818 -0.0999  0.0188 -0.0494
 6472W        W 9991   3.695   0.107   0.376 -0.0596  0.4050 -0.2339
 6473W        W 9992   6.664   8.116   9.186 -0.2151 -0.3592 -0.0923
 6474W        W 9993   3.402   6.970  10.571 -0.2715 -0.0884  0.0501
 6475W        W 9994   0.362   0.884  12.067 -0.0813  0.2236  0.4418
 6476W        W 9995   2.161   4.742   0.293 -0.0091  0.4058 -0.0631
 6477W        W 9996   3.979   3.771   2.675 -0.0891  0.3027  0.0075
 6478W        W 9997   4.139   5.578  11.296  0.3960 -0.0696 -0.0626
 6479W        W 9998   8.928   4.785  11.372  0.0846  0.0911 -0.0129
 6480W        W 9999   7.958   7.366   0.075 -0.0160  0.2682 -0.1810
 6481W        W10000   5.808   2.440  10.133 -0.3338  0.1017 -0.1551
 6482W        W10001   9.086   8.028   3.075 -0.2629  0.1740  0.0755
 6483W        W10002   3.393   0.478   9.174 -0.2046  0.1148 -0.0020
 6484W        W10003   2.784   5.693   1.137 -0.1654 -0.1698 -0.0238
 6485W        W10004   3.527   5.383   4.271  0.0090  0.0431  0.1533
 6486W        W10005   1.851   9.112   3.156  0.1461  0.3267 -0.1792
 6487W        W10006   1.678   2.787   3.688 -0.2184 -0.0310  0.1407
 6488W        W10007   0.964   5.358   0.044 -0.0615  0.2015  0.3155
 6489W        W10008   9.139   8.660  10.735  0.3745  0.4215 -0.2684
 6490W        W10009   2.170   0.902   2.237  0.2341  0.3136  0.1267
 6491W        W10010   7.202   6.440   0.111 -0.1142  0.1727  0.0890
 6492W        W10011   3.872   9.680   8.499 -0.2265 -0.3620  0.0423
 6493W        W10012   5.065   7.740   9.607  0.1355 -0.0082  0.0143
 6494W        W10013   8.637   5.104  10.503 -0.0166  0.0277  0.0517
 6495W        W10014   9.380   6.044   4.207  0.0160  0.1280  0.2280
 6496W        W10015   3.648   0.613   2.001 -0.1945  0.0097 -0.0913
 6497W        W10016   3.245   0.174   2.239 -0.1718 -0.2286  0.0052
 6498W        W10017   7.488   4.487   2.461  0.0351  0.0298 -0.0932
 6499W        W10018   1.870   8.060   8.465  0.1782  0.1835 -0.0555
 6500W        W10019   5.796   4.356   8.536 -0.3362 -0.0730  0.1993
 6501W        W10020   0.480   5.445   0.497 -0.3965  0.1068 -0.0294
 6502W        W10021   4.111   4.362   3.194 -0.0572  0.0178  0.1183
 6503W        W10022   2.747   1.506  11.010  0.3555  0.1397  0.5473
 6504W        W10023   2.429   7.496   4.348  0.2052 -0.3744  0.0096
 6505W        W10024   0.112   2.913   1.224  0.0570  0.3913  0.1018
 6506W        W10025   1.639   2.856  10.753 -0.1696 -0.1517 -0.2673
 6507W        W10026   1.238   0.996  11.731 -0.0508  0.3918 -0.2837
 6508W        W10027   8.741   4.877   1.319  0.3485 -0.0858  0.1224
 6509W        W10028   8.544   7.907   2.097 -0.1595  0.2421  0.2528
 6510W        W10029   0.360   8.757  10.728 -0.0749 -0.1903  0.2777
 6511W        W10030   7.972   4.858   4.114  0.1490  0.1343  0.2159
 6512W        W10031   9.207   5.968   2.166 -0.0626  0.0355 -0.1349
 6513W        W10032   3.046   5.751   2.508 -0.1405  0.1140  0.0151
 6514W        W10033   2.189   3.581  12.258 -0.0165 -0.1808  0.0679
 6515W        W10034   6.219   1.975   0.568  0.0931 -0.0961 -0.1237
 6516W        W10035   1.280   8.430   0.488  0.2403 -0.0878  0.0575
 6517W        W10036   3.254   8.625   1.599  0.1799 -0.1493 -0.0425
 6518W        W10037   5.453   4.591   3.744 -0.0598 -0.0227  0.3401
 6519W        W10038   7.533   4.537  10.422 -0.1765 -0.1581 -0.1299
 6520W        W10039   0.655   4.812   1.616 -0.2368 -0.0517 -0.2667
 6521W        W10040   3.749   1.407  10.450 -0.0890  0.0714  0.0438
 6522W        W10041   6.805   8.855  11.807  0.1541  0.2990  0.0948
 6523W        W10042   4.304   3.830   2.255 -0.2803  0.4452  0.2845
 6524W        W10043   3.742   7.408   9.896  0.0460 -0.0817 -0.1979
 6525W        W10044   2.986   7.948   0.953  0.2420  0.1797 -0.1602
 6526W        W10045   8.365   8.613   3.155 -0.2626 -0.0809  0.1723
 6527W        W10046   0.803   2.273  10.637 -0.1609  0.0631  0.1040
 6528W        W10047   8.330   0.166   0.205 -0.0892  0.2665  0.4421
 6529W        W10048   0.158   4.979   0.309  0.2223  0.0987  0.3357
 6530W        W10049   7.183   0.799  10.743  0.1370 -0.0082 -0.3340
 6531W        W10050   9.000   7.260  11.160  0.1813  0.0898 -0.2625
 6532W        W10051   8.418   0.594  12.402 -0.0508  0.3449 -0.1813
 6533W        W10052   3.586   7.737   3.211 -0.0880 -0.3026  0.2531
 6534W        W10053   5.235   7.061  10.134 -0.2486 -0.2653  0.0848
 6535W        W10054   8.715   0.426   2.611  0.1030  0.0457  0.0193
 6536W        W10055   9.155   6.154   0.696 -0.0972  0.0420  0.0973
 6537W        W10056   7.082   1.965  10.148  0.0774 -0.0484  0.1008
 6538W        W10057   8.387   3.615   2.774 -0.1001 -0.1281  0.0042
 6539W        W10058   4.596   2.721   0.518 -0.1260  0.1725 -0.1087
 6540W        W10059   7.635   8.223   2.514  0.1352 -0.2836 -0.4721
 6541W        W10060   4.879   2.311  12.439  0.0796 -0.2426  0.0825
 6542W        W10061   9.562   5.767   1.871  0.2105  0.0660  0.1646
 6543W        W10062   3.682   4.559   2.039 -0.1914  0.1202 -0.0854
 6544W        W10063   0.864   5.796   1.800  0.3085 -0.3332 -0.0638
 6545W        W10064   5.292   9.460   1.149 -0.0614 -0.0315  0.1361
 6546W        W10065   6.942   9.668  12.167 -0.0716 -0.0129  0.1419
 6547W        W10066   6.927   9.229  10.994 -0.4078 -0.1715  0.3695
 6548W        W10067   8.571   9.544  10.245  0.1436  0.1387 -0.1503
 6549W        W10068   7.349   2.131  10.923 -0.0682 -0.0794  0.1322
 6550W        W10069   0.027   6.607   3.170 -0.0122 -0.3142  0.4356
 6551W        W10070   0.050   5.727  12.233  0.3967  0.0242  0.4582
 6552W        W10071   3.272   6.760   2.643 -0.1404  0.0744  0.0151
 6553W        W10072   5.633   4.487  11.201 -0.2992 -0.1878 -0.2735
 6554W        W10073   5.359   3.861   3.022 -0.1532  0.1237  0.2977
 6555W        W10074   4.213   5.284   9.627 -0.1276  0.4279 -0.1202
 6556W        W10075   8.036   8.135  10.887  0.0826 -0.0992 -0.2138
 6557W        W10076   4.268   2.639   9.124 -0.2917 -0.0512 -0.0773
 6558W        W10077   0.585   3.496   9.968  0.2165 -0.2167  0.0124
 6559W        W10078   0.356   5.249   1.118  0.1575  0.1005 -0.0495
 6560W        W10079   2.901   5.012   0.426 -0.0823 -0.1584 -0.2397
 6561W        W10080   0.478   6.537  11.843  0.1385 -0.0238 -0.0578
 6562W        W10081   4.092   7.061   3.682  0.3215  0.4839  0.1588
 6563W        W10082   0.718   1.116  10.775  0.1423  0.0464 -0.1355
 6564W        W10083   2.317   4.588   9.205  0.2376  0.0800 -0.3271
 6565W        W10084   4.455   7.321   3.417  0.2335  0.0104 -0.0768
 6566W        W10085   8.963   6.473   2.199  0.0923  0.1710 -0.0039
 6567W        W10086   2.178   8.362   1.159  0.1050  0.1277  0.2090
 6568W        W10087   4.218   2.427   8.618  0.0396 -0.2752  0.3248
 6569W        W10088   4.108   7.117   1.781  0.2256  0.1157  0.1499
 6570W        W10089   3.282   9.138   1.099  0.3697  0.1725 -0.1155
 6571W        W10090   1.643   2.768   1.472 -0.4403  0.2340 -0.0045
 6572W        W10091   6.266   9.626   1.317  0.3070 -0.2389  0.1460
 6573W        W10092   8.836   4.922   3.348  0.0220 -0.1251  0.1088
 6574W        W10093   4.483   5.097  10.664  0.0312  0.3095 -0.1673
 6575W        W10094   4.831   9.128   9.288 -0.1189 -0.2436 -0.0988
 6576W        W10095   4.171   7.742   2.044  0.2338  0.0761  0.0290
 6577W        W10096   5.756   0.011   1.124 -0.2104  0.2950  0.0788
 6578W        W10097   1.917   9.330   3.707  0.1935 -0.0450  0.1549
 6579W        W10098   6.690   5.361   2.998  0.0836 -0.2404  0.2057
 6580W        W10099   5.875   4.083   4.326 -0.2327 -0.0055  0.2651
 6581W        W10100   4.008   9.361   9.113 -0.1692  0.0065 -0.2237
 6582W        W10101   1.530   7.993   0.667 -0.0957 -0.1254  0.1567
 6583W        W10102   0.476   8.203   9.523 -0.1447  0.4065  0.2137
 6584W        W10103   0.692   1.858   9.523 -0.1813 -0.3266 -0.0324
 6585W        W10104   3.440   7.441  11.952 -0.0761 -0.2325  0.0315
 6586W        W10105   5.267   8.391  10.472  0.2862  0.2034  0.1326
 6587W        W10106   6.870   5.335   0.987  0.3355  0.1560  0.2785
 6588W        W10107   7.184   7.015   4.037  0.0119 -0.0122  0.2906
 6589W        W10108   9.388   8.508   3.398  0.0294  0.0277  0.0401
 6590W        W10109   0.457   2.746  10.630 -0.1996  0.1504 -0.0815
 6591W        W10110   7.034   6.068  10.837  0.3322 -0.1331  0.1934
 6592W        W10111   8.896   9.704   9.795  0.0111  0.1760  0.3606
 6593W        W10112   7.077   4.720  11.243  0.1259 -0.0747  0.0437
 6594W        W10113   8.035   7.569   1.925 -0.0972 -0.3577 -0.1429
 6595W        W10114   8.937   4.641   0.477 -0.0126 -0.0117  0.1450
 6596W        W10115   9.410   5.255   0.228  0.1357  0.2818 -0.1579
 6597W        W10116   1.917   9.494   8.131  0.1319 -0.2209 -0.1194
 6598W        W10117   6.355   5.891   2.149 -0.1545  0.2135 -0.0724
 6599W        W10118   7.881   1.417  11.194 -0.2690 -0.2092  0.0976
 6600W        W10119   7.390   2.698   9.521  0.0291  0.1316 -0.1437
 6601W        W10120   3.905   8.340   8.974  0.2071  0.1370 -0.2510
 6602W        W10121   5.705   6.433   1.696  0.4367  0.0161  0.1781
 6603W        W10122   3.634   6.015   0.982 -0.4646 -0.2804  0.2988
 6604W        W10123   7.897   1.945  11.870 -0.0565  0.0266  0.1230
 6605W        W10124   9.232   2.535   2.221  0.0580  0.3168  0.1538
 6606W        W10125   9.605   4.926   1.589 -0.3530 -0.2465 -0.2358
 6607W        W10126   4.150   1.781   1.968  0.0177  0.1760  0.2098
 6608W        W10127   4.588   0.959   2.767 -0.1867 -0.2184 -0.1313
 6609W        W10128   5.394   7.159   3.790  0.1410 -0.2126 -0.0504
 6610W        W10129   1.471   5.690   3.763 -0.0524  0.0293  0.1294
 6611W        W10130   2.956   2.393   1.267  0.1710  0.0454 -0.1049
 6612W        W10131   7.274   7.415   2.248 -0.0371  0.3007 -0.2781
 6613W        W10132   8.042   4.350  10.412  0.0341  0.3166 -0.2637
 6614W        W10133   7.689   0.438   9.283  0.0723 -0.0717  0.1137
 6615W        W10134   9.335   6.850  11.334  0.1495  0.0447  0.1393
 6616W        W10135   7.199   8.261  12.148 -0.2018 -0.0626 -0.1850
 6617W        W10136   1.527   4.784  10.555  0.0563 -0.1436  0.0909
 6618W        W10137   7.516   9.059   8.775  0.1266 -0.4554 -0.1227
 6619W        W10138   3.829   4.173   0.419  0.0956  0.2508  0.0221
 6620W        W10139   3.574   0.398  10.447  0.2001  0.1138 -0.1950
 6621W        W10140   5.159   6.459   1.748 -0.0621 -0.2906  0.2222
 6622W        W10141   4.574   5.827  11.367  0.2093  0.1248  0.1406
 6623W        W10142   1.998   4.215   9.329 -0.0146 -0.1002 -0.0326
 6624W        W10143   0.595   5.447   4.715  0.2178  0.1674 -0.5040
 6625W        W10144   9.213   5.669  10.104  0.0176 -0.2457  0.0126
 6626W        W10145   4.415   9.154   0.139 -0.1807 -0.4385 -0.1174
 6627W        W10146   8.855   5.643   1.002  0.0735 -0.0242  0.1526
 6628W        W10147   3.728   5.072   8.576 -0.0090  0.2686 -0.0751
 6629W        W10148   0.462   1.964  11.902 -0.1771  0.0074  0.2119
 6630W        W10149   2.124   1.834   9.402 -0.3663  0.1795  0.0911
 6631W        W10150   0.551   0.933   3.404 -0.0827  0.1313 -0.2026
 6632W        W10151   8.700   6.382   9.905 -0.1799  0.1887 -0.0206
 6633W        W10152   5.411   3.292   4.450  0.0035 -0.1926 -0.0180
 6634W        W10153   0.037   6.646   1.397  0.3256 -0.0209  0.1395
 6635W        W10154   0.444   7.430  12.080  0.2065  0.0891  0.5536
 6636W        W10155   3.234   7.842   8.471  0.1887  0.1511 -0.0047
 6637W        W10156   5.724   0.891   9.396 -0.4031 -0.0739  0.2644
 6638W        W10157   1.010   0.681  10.693  0.0269 -0.0829  0.1161
 6639W        W10158   0.980   7.269   0.848  0.0764  0.2729 -0.2110
 6640W        W10159   0.993   9.609   2.225 -0.0783 -0.2184  0.2289
 6641W        W10160   4.922   3.326   3.762  0.0853 -0.0801 -0.2416
 6642W        W10161   1.603   5.757   2.276  0.1047  0.0948  0.4456
 6643W        W10162   3.235   1.003   2.726 -0.1311 -0.2149  0.0854
 6644W        W10163   9.441   4.518  10.278 -0.0146 -0.3244 -0.0756
 6645W        W10164   0.705   9.220   1.590 -0.3629  0.0070 -0.0532
 6646W        W10165   7.015   6.753   3.324 -0.1537 -0.5236  0.1158
 6647W        W10166   6.089   6.183  11.415 -0.1494 -0.1720 -0.0650
 6648W        W10167   6.636   6.554  10.773 -0.3838  0.0823  0.0781
 6649W        W10168   0.640   6.856   9.551 -0.1823  0.4342  0.0987
 6650W        W10169   1.213   8.646  10.997  0.1826  0.0846  0.0174
 6651W        W10170   0.001   8.217   2.013  0.0596  0.0513 -0.1172
 6652W        W10171   5.261   2.752   3.602 -0.2028 -0.1839  0.0194
 6653W        W10172   2.967   0.810   1.557  0.0535 -0.1982  0.0101
 6654W        W10173   7.344   6.983  12.235  0.4040  0.1739  0.0904
 6655W        W10174   8.523   8.410   9.659 -0.1292 -0.1822 -0.0624
 6656W        W10175   0.834   2.695   4.162  0.0829 -0.1178  0.1868
 6657W        W10176   4.500   1.753   0.940  0.0962 -0.0982 -0.2420
 6658W        W10177   8.602   4.560   9.709  0.2201  0.1532 -0.0209
 6659W        W10178   7.798   5.451   3.533 -0.0710  0.1913  0.2125
 6660W        W10179   3.205   0.713   3.896  0.0614 -0.1153  0.0254
 6661W        W10180   0.123   4.738  11.742 -0.1055  0.1139  0.2639
 6662W        W10181   2.771   4.081   3.285  0.0485 -0.0958  0.1005
 6663W        W10182   6.708   1.112   3.573 -0.0982 -0.2465  0.0221
 6664W        W10183   0.664   2.991   1.068  0.1915 -0.2349  0.0987
 6665W        W10184   5.006   9.535   3.638 -0.1039  0.0712  0.1381
 6666W        W10185   2.932   1.344  11.704 -0.3267 -0.0913 -0.1346
 6667W        W10186   8.092   5.152  12.091 -0.0037  0.0460 -0.2651
 6668W        W10187   3.678   7.399   2.004  0.1615  0.3550  0.0215
 6669W        W10188   8.895   1.359   0.371  0.0169 -0.4096 -0.0345
 6670W        W10189   2.575   9.325  10.165  0.0383 -0.1957  0.1472
 6671W        W10190   2.701   0.312   8.685  0.0307  0.4192 -0.1509
 6672W        W10191   2.301   5.278   2.137 -0.3803  0.0721  0.0872
 6673W        W10192   0.289   2.491   1.016 -0.2858  0.1068  0.0100
 6674W        W10193   2.431   6.502   4.615 -0.0049  0.0356 -0.2199
 6675W        W10194   2.334   7.821   4.845  0.2818  0.0932 -0.0188
 6676W        W10195   9.054   9.639  10.384  0.2339  0.3448 -0.0501
 6677W        W10196   1.027   2.525  11.352 -0.1375  0.0692  0.1055
 6678W        W10197   5.542   5.155  12.117  0.0750 -0.1477  0.2594
 6679W        W10198   7.964   8.511   2.818 -0.3957 -0.0474  0.0473
 6680W        W10199   5.371   6.013   1.649 -0.0123  0.0038  0.1757
 6681W        W10200   3.657   4.025  12.426 -0.3708 -0.0645 -0.2177
 6682W        W10201   0.704   3.588   3.343 -0.1286 -0.0199 -0.2459
 6683W        W10202   9.284   0.643  12.110 -0.0010  0.1135  0.1995
 6684W        W10203   1.128   8.151   8.995  0.0431 -0.2741 -0.2244
 6685W        W10204   3.921   7.859   1.196 -0.1701  0.0809 -0.0538
 6686W        W10205   0.754   7.397   3.489 -0.1263  0.3305 -0.0319
 6687W        W10206   2.179   7.221   8.093  0.2108 -0.2508 -0.1397
 6688W        W10207   4.190   7.389   9.417  0.2565  0.1080 -0.0433
 6689W        W10208   3.763   7.642   0.224  0.0651 -0.0344  0.1666
 6690W        W10209   5.868   6.949  12.522 -0.0641 -0.0986  0.0353
 6691W        W10210   2.392   2.070   9.846 -0.1569 -0.1494 -0.1790
 6692W        W10211   9.494   9.122   4.179  0.1350  0.0774 -0.4465
 6693W        W10212   8.240   6.037   9.165  0.0584 -0.2242  0.0567
 6694W        W10213   8.999   5.959  12.348  0.3312  0.0305 -0.0878
 6695W        W10214   7.660   6.681  10.703 -0.0467  0.2691  0.0691
 6696W        W10215   8.914   4.620  12.028  0.1497  0.0481 -0.0413
 6697W        W10216   1.369   7.014   3.024  0.0349 -0.1466 -0.2514
 6698W        W10217   9.000   8.844   3.490  0.2776 -0.0675  0.1752
 6699W        W10218   5.916   4.774   0.314  0.0674  0.1932  0.0174
 6700W        W10219   8.943   3.273  12.328  0.3080 -0.1462 -0.1239
 6701W        W10220   9.139   8.171   3.687  0.0388 -0.1575  0.0582
 6702W        W10221   6.203   8.095  11.265  0.2442 -0.0824  0.1560
 6703W        W10222   0.536   2.041   1.080 -0.2017 -0.0391 -0.0271
 6704W        W10223   5.117   3.865   8.245 -0.1380 -0.2085  0.5168
 6705ION    NA+10224   3.549   1.100   4.071 -0.2566 -0.2429 -0.1299
 6706ION    NA+10225   0.580   8.499   1.226 -0.0191  0.3646  0.0053
 6707ION    NA+10226   6.206   7.424  10.126  0.1150 -0.1582  0.1301
 6708ION    NA+10227   3.143   5.441   8.011  0.2091 -0.2132  0.1664
 6709ION    NA+10228   1.033   2.278   2.286 -0.3481  0.0745  0.2052
 6710ION    NA+10229   7.844   1.914   3.947 -0.1537 -0.0699  0.3910
 6711ION    NA+10230   1.888   8.353   4.013  0.2439 -0.0511  0.2511
 6712ION    NA+10231   7.317   7.597   9.655  0.1225 -0.1009 -0.1075
 6713ION    NA+10232   5.802   0.400   3.868 -0.1184  0.0136  0.0731
 6714ION    NA+10233   7.412   8.428   4.018 -0.0157  0.0011  0.2126
 6715ION    NA+10234   0.474   7.804  10.656  0.1586 -0.2949  0.1703
 6716ION    NA+10235   0.454   5.100   3.263 -0.1764 -0.3064 -0.1320
 6717ION    NA+10236   4.609   6.331   3.010  0.2172  0.1354  0.0840
 6718ION    NA+10237   4.912   7.036   0.309 -0.2186 -0.0800  0.0083
 6719ION    NA+10238   1.535   0.033   7.950  0.2738  0.0950 -0.1203
 6720ION    NA+10239   0.259   5.578   1.574 -0.0046 -0.0542  0.2909
 6721ION    NA+10240   5.726   6.449   2.208 -0.0353 -0.0798  0.1973
 6722ION    NA+10241   2.063   3.702   1.467 -0.2632  0.1390 -0.0596
 6723ION    NA+10242   2.078   8.219   9.322  0.0600  0.1757 -0.1311
 6724ION    NA+10243   6.597   1.874   9.167 -0.0506  0.0109  0.2449
 6725ION    NA+10244   4.943   2.834   2.832  0.0140 -0.1033 -0.0932
 6726ION    NA+10245   8.335   2.484  10.557  0.1076  0.0112 -0.1692
 6727ION    NA+10246   0.207   6.207   0.115 -0.0414  0.0707 -0.2312
 6728ION    NA+10247   1.722   5.808   3.215 -0.0800 -0.2937 -0.0604
 6729ION    NA+10248   2.777   2.881   1.239  0.1853  0.0094  0.2129
 6730ION    NA+10249   2.540   9.265   1.297  0.1557  0.1057 -0.1029
 6731ION    NA+10250   0.073   6.383  11.364 -0.1134 -0.1069 -0.0445
 6732ION    NA+10251   3.327   9.254  11.158  0.0520  0.0911  0.0926
 6733ION    NA+10252   8.562   7.533   3.745  0.1250  0.2011  0.2303
 6734ION    NA+10253   2.205   0.230  12.509  0.0802  0.2704  0.3751
 6735ION    NA+10254   1.317   3.625   8.300  0.1364  0.1128 -0.0611
 6736ION    NA+10255   9.526   0.807   1.564  0.0809  0.2570 -0.2199
 6737ION    NA+10256   0.156   3.920  12.238 -0.0322 -0.1538 -0.0498
 6738ION    NA+10257   2.875   3.954   2.173  0.0278  0.1983 -0.2302
 6739ION    NA+10258   1.038   0.988  10.313  0.0135 -0.2708 -0.0822
 6740ION    NA+10259   3.721   4.361   4.629 -0.0147 -0.1648 -0.2120
 6741ION    NA+10260   3.038   8.678   0.180  0.1763 -0.2648 -0.1015
 6742ION    NA+10261   9.173   9.300   4.509  0.1983  0.1826  0.2797
 6743ION    NA+10262   3.499   2.577  10.950  0.1913  0.0603  0.0773
 6744ION    NA+10263   7.175   8.280   0.783  0.0590  0.1861  0.0669
 6745ION    NA+10264   4.618   0.739   9.583 -0.3929  0.4037 -0.1269
 6746ION    NA+10265   7.933   7.627   4.415 -0.1332  0.0456  0.0281
 6747ION    NA+10266   4.688   1.927   4.021 -0.1620 -0.1753  0.1131
 6748ION    NA+10267   7.243   1.255   9.344 -0.1070  0.2098  0.1548
 6749ION    NA+10268   3.218   7.199   9.965  0.1109  0.1226  0.1207
 6750ION    NA+10269   5.891   8.578   1.310 -0.0824  0.1266 -0.3039
 6751ION    NA+10270   8.776   2.267   9.493  0.0394 -0.2994  0.0073
 6752ION    NA+10271   7.744   7.226   2.462 -0.1351  0.0396  0.4220
 6753ION    NA+10272   8.247   5.319   4.372  0.4559  0.1001 -0.1855
 6754ION    NA+10273   1.998   5.943   3.947  0.1071 -0.0941 -0.0124
 6755ION    NA+10274   0.392   7.785   0.647 -0.2615 -0.2422  0.0518
 6756ION    NA+10275   3.676   7.328   9.225  0.1459  0.2337 -0.1747
 6757ION    NA+10276   5.958   5.887  10.099  0.2858 -0.1324 -0.2639
 6758ION    NA+10277   2.442   0.951   1.004  0.1969 -0.0439 -0.1881
 6759ION    NA+10278   1.702   2.815   2.803  0.1665  0.0247 -0.0573
 6760ION    NA+10279   1.502   6.206  11.010  0.4100  0.2461 -0.1603
 6761ION    NA+10280   4.576   6.189   8.120  0.1456 -0.0030  0.0787
 6762ION    NA+10281   0.131   2.043   8.912  0.0119  0.1103  0.0476
 6763ION    NA+10282   2.689   5.192   9.667  0.1070 -0.2049 -0.1358
 6764ION    NA+10283   6.490   2.837   1.918 -0.0295  0.0011 -0.1157
 6765ION    NA+10284   2.492   0.737   9.889  0.2275  0.1995 -0.1494
 6766ION    NA+10285   7.142   6.597   2.851  0.1919 -0.1429 -0.1615
 6767ION    NA+10286   1.871   2.232   0.460 -0.2812 -0.2450 -0.1595
 6768ION    NA+10287   7.094   1.301   3.754  0.1586  0.0994 -0.0060
 6769ION    NA+10288   1.437   1.656   1.618  0.0691  0.2216  0.0576
 6770ION    NA+10289   5.295   0.025   2.592  0.2967  0.1543 -0.1266
 6771ION    NA+10290   7.977   4.832  11.651  0.1201  0.0343 -0.0257
 6772ION    NA+10291   1.415   1.554   9.646  0.1303 -0.3090  0.2055
 6773ION    NA+10292   4.250   5.551   2.478  0.0098  0.1760  0.0904
 6774ION    NA+10293   6.745   4.455  12.463  0.0082 -0.0765 -0.2290
 6775ION    NA+10294   5.943   0.881  12.448 -0.0071 -0.1964  0.0032
 6776ION    CL-10295   7.566   6.848   2.813  0.1881  0.4925 -0.2299
 6777ION    CL-10296   2.357   5.805   2.147  0.3994  0.0161  0.1473
 6778ION    CL-10297   1.401   2.109   8.883  0.0328 -0.2299  0.2408
 6779ION    CL-10298   4.366   0.499   9.125  0.0199  0.1332 -0.3294
 6780ION    CL-10299   2.406   6.456  12.288 -0.4980 -0.1798 -0.2131
 6781ION    CL-10300   1.399   2.009   1.973  0.0073 -0.0131 -0.0970
 6782ION    CL-10301   1.959   6.093  10.921  0.0392 -0.0239  0.2167
 6783ION    CL-10302   4.425   1.403   8.886 -0.0219  0.0250 -0.0508
 6784ION    CL-10303   1.563   8.516  12.289 -0.3389  0.1379 -0.0710
 6785ION    CL-10304   4.567   2.628   9.484  0.0344 -0.3338 -0.0863
 6786ION    CL-10305   3.332   4.206   2.192  0.1683  0.0417 -0.1026
 6787ION    CL-10306   3.216   0.929   8.861 -0.1375 -0.0807 -0.3147
 6788ION    CL-10307   2.369   0.941   3.607 -0.0463 -0.1580 -0.0398
 6789ION    CL-10308   1.055   7.645   8.877  0.3296 -0.3860 -0.0488
 6790ION    CL-10309   1.377   1.472   9.151 -0.0465 -0.0897 -0.0204
 6791ION    CL-10310   0.986   5.572   3.768  0.0810 -0.2301 -0.1834
 6792ION    CL-10311   1.362   6.084   2.986  0.0118 -0.0833 -0.0062
 6793ION    CL-10312   5.322   2.701   3.128 -0.1685  0.1130  0.1132
 6794ION    CL-10313   8.171   1.071  11.774  0.0207  0.1367 -0.4159
 6795ION    CL-10314   4.024   5.187   9.029  0.1426 -0.3236 -0.3174
 6796ION    CL-10315   9.500   6.995   3.998 -0.1652 -0.3251  0.2930
 6797ION    CL-10316   9.446   8.101   8.910 -0.0591 -0.2403  0.1725
 6798ION    CL-10317   3.574   5.841   3.828 -0.3187  0.0717 -0.1941
 6799ION    CL-10318   2.573   8.216   9.314  0.2749 -0.0575  0.0192
 6800ION    CL-10319   2.185   3.329   1.877 -0.1187 -0.2475  0.3386
 6801ION    CL-10320   7.763   5.912   3.820 -0.1387 -0.1668 -0.0929
 6802ION    CL-10321   6.316   0.620   0.114 -0.1058 -0.0681 -0.3110
 6803ION    CL-10322   1.303   8.489   3.914 -0.1786  0.0935 -0.0011
 6804ION    CL-10323   2.868   8.851   1.197  0.1627  0.2101 -0.2887
 6805ION    CL-10324   6.217   0.528   3.576  0.0497  0.0548  0.3128
 6806ION    CL-10325   0.020   6.698  10.940  0.1014 -0.1810 -0.0962
 6807ION    CL-10326   2.369   3.057   0.995 -0.0945  0.1349 -0.3158
 6808ION    CL-10327   0.719   0.856   9.917 -0.1199 -0.1067  0.2810
 6809ION    CL-10328   2.940   7.065   9.585  0.0330  0.1073 -0.3127
 6810ION    CL-10329   2.274   8.337   3.571  0.0989 -0.0427  0.2597
 6811ION    CL-10330   2.433   8.723   1.468  0.1965  0.2330  0.0631
 6812ION    CL-10331   3.851   3.637   8.770 -0.1328 -0.0111  0.1118
 6813ION    CL-10332   8.206   4.327   3.172 -0.0644  0.2131 -0.1050
 6814ION    CL-10333   4.667   0.287   0.909 -0.1659  0.2397  0.0546
 6815ION    CL-10334   4.883   5.944   3.235 -0.0179 -0.0172  0.2345
 6816ION    CL-10335   6.226   4.635   1.971 -0.2157  0.3871 -0.0481
 6817ION    CL-10336   1.547   1.842  10.121  0.1916  0.0595 -0.2592
 6818ION    CL-10337   5.933   0.836   1.251  0.0127  0.0986  0.1260
 6819ION    CL-10338   9.436   5.611   3.985  0.0890  0.0527  0.0971
 6820ION    CL-10339   4.474   6.951   0.376 -0.0204  0.1228  0.0858
 6821ION    CL-10340   6.136   6.148  10.525 -0.1198  0.1478  0.1353
 6822ION    CL-10341   7.307   2.765   3.175 -0.0206 -0.0055 -0.3213
 6823ION    CL-10342   0.447   7.908   0.170 -0.1044  0.3931  0.2170
 6824ION    CL-10343   9.662   5.882   9.167 -0.0798  0.1505  0.0691
 6825ION    CL-10344   4.669   6.390   2.462 -0.2241  0.1699  0.0294
 6826ION    CL-10345   8.882   7.657   3.352  0.1010  0.0036  0.1186
 6827ION    CL-10346   2.614   0.372  12.191 -0.0986 -0.1676  0.0922
 6828ION    CL-10347   3.092   8.505  10.629 -0.3850  0.4404  0.1083
 6829ION    CL-10348   1.664   2.262   3.913  0.0254  0.0250 -0.0473
 6830ION    CL-10349   9.622   4.015  11.816  0.0901 -0.3536 -0.0449
 6831ION    CL-10350   0.294   1.405  10.734  0.3557  0.0458 -0.0018
 6832ION    CL-10351   1.279   1.856   2.492  0.2373 -0.0235  0.0615
 6833ION    CL-10352   0.668   9.661  12.269 -0.3652 -0.0276  0.0642
 6834ION    CL-10353   3.618   8.813  11.307  0.1257 -0.0491 -0.2176
 6835ION    CL-10354   1.577   0.701   8.727 -0.0072  0.1075  0.0250
 6836ION    CL-10355   0.939   8.431   1.701  0.1781 -0.2198 -0.1451
 6837ION    CL-10356   0.986   7.865  10.787  0.0649 -0.0262 -0.2619
 6838ION    CL-10357   7.978   8.271   3.295 -0.4104 -0.0844  0.0618
 6839ION    CL-10358   4.325   2.423   0.158  0.0491  0.2516  0.0030
 6840ION    CL-10359   5.752   9.364   3.460  0.1415 -0.3285  0.3770
 6841ION    CL-10360   5.482   8.968   1.559 -0.4018  0.1657  0.1666
 6842ION    CL-10361   0.961   8.851   3.951  0.2779 -0.0252 -0.3007
 6843ION    CL-10362   0.372   5.784   2.009  0.2297 -0.0137  0.1690
 6844ION    CL-10363   7.411   6.849   9.669  0.2025  0.1934 -0.0277
 6845ION    CL-10364   6.290   3.633  12.319  0.2131 -0.0214  0.2885
 6846ION    CL-10365   2.859   5.032   3.762  0.1738  0.1648  0.2370
   9.71571   9.71571  12.52772
