Protein in INSANE! Membrane UpperLeaflet>POPC=1.0 LowerLeaflet>POPC=1.0
10365
    1AU     AUC    1   5.010   5.020   6.035
    1AU     AUC    2   5.262   5.025   5.869
    1AU     AUC    3   5.251   5.012   6.199
    1AU     AUC    4   4.740   5.028   5.880
    1AU     AUC    5   4.766   5.057   6.205
    1AU     AUC    6   4.849   5.273   6.013
    1AU     AUC    7   5.196   5.285   6.016
    1AU     AUC    8   4.831   4.766   6.043
    1AU     AUC    9   5.162   4.744   6.045
    1AU     AUC   10   5.004   4.860   6.298
    1AU     AUC   11   5.023   5.200   6.279
    1AU     AUC   12   4.997   4.847   5.787
    1AU     AUC   13   5.017   5.153   5.771
    1AU     AUC   14   5.565   5.016   5.704
    1AU     AUC   15   5.573   4.996   6.045
    1AU     AUC   16   5.531   4.983   6.399
    1AU     AUC   17   4.438   5.002   5.728
    1AU     AUC   18   4.437   5.061   6.056
    1AU     AUC   19   4.466   5.100   6.388
    1AU     AUC   20   4.684   5.586   5.974
    1AU     AUC   21   5.044   5.560   5.957
    1AU     AUC   22   5.410   5.548   5.987
    1AU     AUC   23   4.627   4.477   6.048
    1AU     AUC   24   4.978   4.453   6.029
    1AU     AUC   25   5.334   4.442   6.046
    1AU     AUC   26   4.963   4.694   6.601
    1AU     AUC   27   5.000   5.036   6.601
    1AU     AUC   28   5.057   5.400   6.562
    1AU     AUC   29   5.028   4.657   5.497
    1AU     AUC   30   4.976   4.998   5.473
    1AU     AUC   31   4.973   5.321   5.457
    1AU     AUC   32   5.245   4.798   6.513
    1AU     AUC   33   5.301   5.174   6.486
    1AU     AUC   34   5.300   4.860   5.572
    1AU     AUC   35   5.265   5.172   5.579
    1AU     AUC   36   4.711   4.918   6.500
    1AU     AUC   37   4.758   5.268   6.471
    1AU     AUC   38   4.722   4.817   5.603
    1AU     AUC   39   4.676   5.145   5.583
    1AU     AUC   40   5.503   5.288   5.846
    1AU     AUC   41   5.469   5.285   6.205
    1AU     AUC   42   4.544   5.300   5.883
    1AU     AUC   43   4.589   5.366   6.213
    1AU     AUC   44   5.466   4.737   5.907
    1AU     AUC   45   5.414   4.691   6.239
    1AU     AUC   46   4.545   4.714   5.873
    1AU     AUC   47   4.571   4.788   6.216
    1AU     AUC   48   4.909   5.518   6.282
    1AU     AUC   49   5.248   5.473   6.293
    1AU     AUC   50   4.796   4.585   6.317
    1AU     AUC   51   5.114   4.532   6.308
    1AU     AUC   52   4.819   5.451   5.715
    1AU     AUC   53   5.184   5.467   5.726
    1AU     AUC   54   4.850   4.553   5.758
    1AU     AUC   55   5.210   4.598   5.774
    1AU    AUSL   56   5.509   4.888   6.816
    1AU    AUSL   57   5.259   4.515   6.721
    1AU     AUL   58   5.566   4.516   6.889
    1AU    AUSL   59   5.094   4.830   6.960
    1AU    AUSL   60   4.856   5.239   6.952
    1AU     AUL   61   5.092   5.114   7.210
    1AU    AUSL   62   5.193   5.187   6.704
    1AU    AUSL   63   5.644   5.246   6.625
    1AU     AUL   64   5.462   5.211   6.936
    1AU    AUSL   65   5.417   5.048   5.340
    1AU    AUSL   66   5.278   5.444   5.481
    1AU     AUL   67   5.492   5.376   5.181
    1AU    AUSL   68   5.229   4.726   5.112
    1AU    AUSL   69   5.736   4.796   5.482
    1AU     AUL   70   5.604   4.870   5.165
    1AU    AUSL   71   5.061   5.230   5.170
    1AU    AUSL   72   4.883   4.844   5.329
    1AU     AUL   73   5.014   4.923   5.024
    1AU    AUSL   74   4.472   5.201   6.744
    1AU    AUSL   75   4.835   5.510   6.611
    1AU     AUL   76   4.672   5.478   6.912
    1AU    AUSL   77   4.773   4.888   6.691
    1AU    AUSL   78   4.324   4.811   6.606
    1AU     AUL   79   4.381   4.900   6.841
    1AU    AUSL   80   4.447   4.826   5.295
    1AU    AUSL   81   4.696   4.476   5.447
    1AU     AUL   82   4.720   4.562   5.141
    1AU    AUSL   83   4.633   5.194   5.175
    1AU    AUSL   84   4.353   5.175   5.550
    1AU     AUL   85   4.236   5.056   5.276
    1AU    AUSL   86   5.801   5.483   5.976
    1AU    AUSL   87   5.676   5.273   5.596
    1AU     AUL   88   5.971   5.478   5.627
    1AU    AUSL   89   5.966   5.087   5.867
    1AU    AUSL   90   5.915   4.789   6.268
    1AU     AUL   91   6.177   4.873   6.071
    1AU    AUSL   92   5.688   5.142   6.218
    1AU    AUSL   93   5.646   5.586   6.353
    1AU     AUL   94   5.894   5.326   6.378
    1AU    AUSL   95   4.435   5.663   6.022
    1AU    AUSL   96   4.472   5.415   6.377
    1AU     AUL   97   4.163   5.660   6.245
    1AU    AUSL   98   4.234   5.284   5.944
    1AU    AUSL   99   4.387   5.600   5.606
    1AU     AUL  100   4.151   5.525   5.763
    1AU    AUSL  101   4.107   5.206   6.388
    1AU    AUSL  102   4.074   4.900   5.849
    1AU     AUL  103   3.952   5.217   6.090
    1AU    AUSL  104   5.693   4.440   6.115
    1AU    AUSL  105   5.519   4.723   6.425
    1AU     AUL  106   5.826   4.629   6.500
    1AU    AUSL  107   5.651   4.810   5.897
    1AU    AUSL  108   5.641   4.408   5.688
    1AU     AUL  109   5.885   4.618   5.750
    1AU    AUSL  110   4.227   4.521   6.053
    1AU    AUSL  111   4.438   4.731   5.705
    1AU     AUL  112   4.088   4.624   5.713
    1AU    AUSL  113   4.344   4.922   6.194
    1AU    AUSL  114   4.534   4.538   6.349
    1AU     AUL  115   4.153   4.691   6.348
    1AU    AUSL  116   5.076   5.846   6.466
    1AU    AUSL  117   4.621   5.825   6.378
    1AU     AUL  118   4.843   5.870   6.694
    1AU    AUSL  119   4.908   5.701   6.091
    1AU    AUSL  120   5.159   5.834   5.747
    1AU     AUL  121   4.928   6.041   6.054
    1AU    AUSL  122   5.346   5.777   6.123
    1AU    AUSL  123   5.340   5.576   6.654
    1AU     AUL  124   5.459   5.866   6.441
    1AU    AUSL  125   4.934   4.380   6.470
    1AU    AUSL  126   5.358   4.321   6.349
    1AU     AUL  127   5.119   4.259   6.723
    1AU    AUSL  128   4.626   4.158   6.199
    1AU    AUSL  129   4.654   4.495   6.774
    1AU     AUL  130   4.662   4.197   6.550
    1AU    AUSL  131   5.058   4.083   6.167
    1AU    AUSL  132   4.851   4.328   5.862
    1AU     AUL  133   4.734   3.983   5.987
    1AU    AUSL  134   4.986   5.719   5.343
    1AU    AUSL  135   5.558   5.697   5.699
    1AU     AUL  136   5.302   5.807   5.436
    1AU    AUSL  137   4.737   5.813   5.710
    1AU    AUSL  138   4.760   5.402   5.514
    1AU     AUL  139   4.667   5.708   5.356
    1AU    AUSL  140   5.076   4.276   5.481
    1AU    AUSL  141   4.443   4.290   5.758
    1AU     AUL  142   4.739   4.142   5.543
    1AU    AUSL  143   5.283   4.300   5.881
    1AU    AUSL  144   5.306   4.633   5.518
    1AU     AUL  145   5.400   4.260   5.550
    1AU     S    146   5.531   4.065   6.728
    1AU     LIG  147   5.578   3.831   6.853
    1AU     LIG  148   5.700   3.671   6.979
    1AU     LIG  149   5.858   3.494   7.090
    1AU     S    150   5.565   4.855   7.219
    1AU     LIG  151   5.728   4.913   7.421
    1AU     LIG  152   5.818   4.969   7.646
    1AU     LIG  153   5.924   4.936   7.883
    1AU     S    154   5.243   4.662   7.224
    1AU     LIG  155   5.299   4.568   7.505
    1AU     LIG  156   5.465   4.584   7.703
    1AU     LIG  157   5.599   4.539   7.920
    1AU     S    158   4.618   5.152   7.256
    1AU     LIG  159   4.581   5.176   7.559
    1AU     LIG  160   4.463   5.161   7.761
    1AU     LIG  161   4.315   5.138   7.979
    1AU     S    162   5.143   5.586   7.066
    1AU     LIG  163   5.260   5.723   7.271
    1AU     LIG  164   5.473   5.643   7.433
    1AU     LIG  165   5.696   5.517   7.447
    1AU     S    166   5.835   5.478   6.833
    1AU     LIG  167   6.018   5.518   7.054
    1AU     LIG  168   6.158   5.675   7.170
    1AU     LIG  169   6.334   5.851   7.244
    1AU     S    170   5.436   5.107   4.806
    1AU     LIG  171   5.651   5.162   4.593
    1AU     LIG  172   5.785   4.996   4.455
    1AU     LIG  173   5.845   4.805   4.295
    1AU     S    174   5.651   5.807   5.152
    1AU     LIG  175   5.697   6.000   4.962
    1AU     LIG  176   5.860   6.090   4.788
    1AU     LIG  177   6.025   6.181   4.623
    1AU     S    178   5.911   4.518   5.268
    1AU     LIG  179   6.073   4.431   5.027
    1AU     LIG  180   6.087   4.212   4.888
    1AU     LIG  181   6.103   3.957   4.848
    1AU     S    182   5.357   4.812   4.740
    1AU     LIG  183   5.379   4.688   4.511
    1AU     LIG  184   5.366   4.615   4.271
    1AU     LIG  185   5.437   4.595   4.021
    1AU     S    186   4.623   4.872   4.803
    1AU     LIG  187   4.678   4.839   4.524
    1AU     LIG  188   4.684   4.785   4.295
    1AU     LIG  189   4.608   4.744   4.040
    1AU     S    190   5.193   5.253   4.764
    1AU     LIG  191   5.094   5.187   4.473
    1AU     LIG  192   5.236   5.112   4.280
    1AU     LIG  193   5.429   5.104   4.107
    1AU     S    194   4.342   5.240   7.143
    1AU     LIG  195   4.131   5.215   7.319
    1AU     LIG  196   4.077   4.999   7.478
    1AU     LIG  197   4.007   4.867   7.667
    1AU     S    198   4.373   5.798   6.768
    1AU     LIG  199   4.287   5.953   7.000
    1AU     LIG  200   4.146   5.964   7.194
    1AU     LIG  201   3.977   6.053   7.377
    1AU     S    202   4.096   4.532   6.784
    1AU     LIG  203   3.850   4.463   6.881
    1AU     LIG  204   3.705   4.271   6.957
    1AU     LIG  205   3.578   4.089   7.075
    1AU     S    206   4.667   4.860   7.184
    1AU     LIG  207   4.590   4.684   7.388
    1AU     LIG  208   4.477   4.664   7.606
    1AU     LIG  209   4.432   4.650   7.861
    1AU     S    210   4.361   4.784   4.918
    1AU     LIG  211   4.182   4.714   4.708
    1AU     LIG  212   4.171   4.785   4.457
    1AU     LIG  213   4.159   4.895   4.237
    1AU     S    214   4.395   4.236   5.245
    1AU     LIG  215   4.321   4.049   5.040
    1AU     LIG  216   4.163   4.007   4.854
    1AU     LIG  217   3.979   3.958   4.684
    1AU     S    218   4.025   5.462   5.298
    1AU     LIG  219   3.818   5.631   5.244
    1AU     LIG  220   3.766   5.830   5.088
    1AU     LIG  221   3.742   5.953   4.867
    1AU     S    222   4.523   5.140   4.893
    1AU     LIG  223   4.356   5.241   4.639
    1AU     LIG  224   4.439   5.278   4.413
    1AU     LIG  225   4.547   5.258   4.179
    1AU     S    226   5.882   5.621   5.208
    1AU     LIG  227   6.097   5.667   5.037
    1AU     LIG  228   6.254   5.779   4.889
    1AU     LIG  229   6.435   5.898   4.745
    1AU     S    230   6.134   5.597   6.056
    1AU     LIG  231   6.347   5.801   6.040
    1AU     LIG  232   6.591   5.845   6.011
    1AU     LIG  233   6.844   5.908   6.032
    1AU     S    234   6.310   5.298   5.888
    1AU     LIG  235   6.579   5.369   5.793
    1AU     LIG  236   6.819   5.435   5.806
    1AU     LIG  237   7.041   5.549   5.726
    1AU     S    238   6.174   4.419   6.290
    1AU     LIG  239   6.409   4.317   6.420
    1AU     LIG  240   6.662   4.312   6.359
    1AU     LIG  241   6.911   4.280   6.280
    1AU     S    242   5.871   5.726   6.627
    1AU     LIG  243   6.066   5.903   6.710
    1AU     LIG  244   6.111   6.102   6.856
    1AU     LIG  245   6.130   6.281   7.040
    1AU     S    246   6.281   5.330   6.163
    1AU     LIG  247   6.519   5.401   6.314
    1AU     LIG  248   6.756   5.468   6.311
    1AU     LIG  249   6.986   5.558   6.377
    1AU     S    250   4.207   5.575   6.702
    1AU     LIG  251   3.968   5.567   6.880
    1AU     LIG  252   3.782   5.706   6.944
    1AU     LIG  253   3.606   5.825   7.094
    1AU     S    254   4.374   5.999   5.963
    1AU     LIG  255   4.214   6.207   5.835
    1AU     LIG  256   3.968   6.187   5.739
    1AU     LIG  257   3.780   6.030   5.623
    1AU     S    258   3.810   5.218   5.639
    1AU     LIG  259   3.572   5.223   5.571
    1AU     LIG  260   3.317   5.299   5.641
    1AU     LIG  261   3.172   5.512   5.663
    1AU     S    262   4.240   5.872   5.429
    1AU     LIG  263   4.167   6.080   5.287
    1AU     LIG  264   4.025   6.259   5.202
    1AU     LIG  265   3.894   6.414   5.037
    1AU     S    266   3.721   4.814   5.949
    1AU     LIG  267   3.444   4.804   5.837
    1AU     LIG  268   3.201   4.786   5.832
    1AU     LIG  269   2.967   4.665   5.784
    1AU     S    270   3.912   5.133   6.596
    1AU     LIG  271   3.599   5.237   6.683
    1AU     LIG  272   3.482   5.449   6.593
    1AU     LIG  273   3.302   5.596   6.468
    1AU     S    274   5.904   4.249   6.106
    1AU     LIG  275   6.038   3.947   6.122
    1AU     LIG  276   6.266   3.881   6.197
    1AU     LIG  277   6.537   3.867   6.155
    1AU     S    278   5.748   4.188   6.566
    1AU     LIG  279   5.995   4.052   6.606
    1AU     LIG  280   6.125   3.964   6.787
    1AU     LIG  281   6.172   3.894   7.037
    1AU     S    282   6.161   4.399   6.019
    1AU     LIG  283   6.384   4.277   5.883
    1AU     LIG  284   6.625   4.278   5.843
    1AU     LIG  285   6.866   4.206   5.780
    1AU     S    286   5.853   4.256   5.425
    1AU     LIG  287   5.918   3.996   5.322
    1AU     LIG  288   5.791   3.773   5.274
    1AU     LIG  289   5.750   3.554   5.159
    1AU     S    290   4.218   4.431   5.317
    1AU     LIG  291   3.985   4.441   5.120
    1AU     LIG  292   3.808   4.324   5.027
    1AU     LIG  293   3.602   4.166   4.965
    1AU     S    294   3.803   4.523   6.083
    1AU     LIG  295   3.586   4.357   6.088
    1AU     LIG  296   3.359   4.309   5.982
    1AU     LIG  297   3.126   4.205   5.941
    1AU     S    298   4.215   4.302   6.582
    1AU     LIG  299   4.039   4.094   6.567
    1AU     LIG  300   3.919   3.908   6.673
    1AU     LIG  301   3.786   3.722   6.787
    1AU     S    302   3.745   4.818   6.213
    1AU     LIG  303   3.511   4.790   6.388
    1AU     LIG  304   3.272   4.698   6.335
    1AU     LIG  305   3.063   4.563   6.308
    1AU     S    306   4.414   6.017   6.489
    1AU     LIG  307   4.179   6.206   6.562
    1AU     LIG  308   3.954   6.169   6.705
    1AU     LIG  309   3.822   6.246   6.912
    1AU     S    310   5.157   6.203   6.553
    1AU     LIG  311   5.268   6.390   6.755
    1AU     LIG  312   5.156   6.580   6.880
    1AU     LIG  313   5.011   6.781   6.944
    1AU     S    314   4.919   6.338   6.425
    1AU     LIG  315   4.830   6.563   6.468
    1AU     LIG  316   4.804   6.822   6.484
    1AU     LIG  317   4.813   7.073   6.513
    1AU     S    318   5.084   6.181   5.631
    1AU     LIG  319   5.150   6.450   5.646
    1AU     LIG  320   5.184   6.682   5.630
    1AU     LIG  321   5.247   6.925   5.542
    1AU     S    322   5.594   5.693   6.864
    1AU     LIG  323   5.669   5.912   7.043
    1AU     LIG  324   5.770   5.993   7.236
    1AU     LIG  325   5.896   6.011   7.468
    1AU     S    326   5.296   6.254   6.234
    1AU     LIG  327   5.328   6.527   6.218
    1AU     LIG  328   5.303   6.737   6.375
    1AU     LIG  329   5.315   6.921   6.540
    1AU     S    330   5.017   3.844   6.562
    1AU     LIG  331   5.136   3.638   6.713
    1AU     LIG  332   5.124   3.431   6.833
    1AU     LIG  333   5.105   3.194   6.934
    1AU     S    334   5.500   4.077   6.402
    1AU     LIG  335   5.604   3.773   6.327
    1AU     LIG  336   5.764   3.639   6.425
    1AU     LIG  337   5.976   3.539   6.558
    1AU     S    338   4.765   3.758   6.396
    1AU     LIG  339   4.716   3.491   6.418
    1AU     LIG  340   4.738   3.273   6.532
    1AU     LIG  341   4.728   3.035   6.628
    1AU     S    342   4.359   4.384   6.886
    1AU     LIG  343   4.232   4.166   7.071
    1AU     LIG  344   4.095   3.992   7.141
    1AU     LIG  345   3.958   3.798   7.263
    1AU     S    346   5.083   3.854   5.721
    1AU     LIG  347   5.022   3.526   5.710
    1AU     LIG  348   5.007   3.330   5.590
    1AU     LIG  349   5.007   3.063   5.527
    1AU     S    350   5.097   3.807   6.258
    1AU     LIG  351   5.197   3.505   6.212
    1AU     LIG  352   5.210   3.308   6.338
    1AU     LIG  353   5.204   3.062   6.441
    1AU     S    354   4.936   6.101   5.335
    1AU     LIG  355   4.942   6.330   5.181
    1AU     LIG  356   5.065   6.546   5.141
    1AU     LIG  357   5.131   6.780   5.064
    1AU     S    358   5.775   5.877   5.458
    1AU     LIG  359   5.973   6.081   5.401
    1AU     LIG  360   6.132   6.155   5.221
    1AU     LIG  361   6.280   6.277   5.058
    1AU     S    362   4.733   6.122   5.611
    1AU     LIG  363   4.621   6.400   5.585
    1AU     LIG  364   4.678   6.626   5.498
    1AU     LIG  365   4.752   6.851   5.407
    1AU     S    366   4.295   5.532   5.154
    1AU     LIG  367   4.235   5.667   4.915
    1AU     LIG  368   4.245   5.897   4.819
    1AU     LIG  369   4.218   6.136   4.739
    1AU     S    370   4.240   4.200   5.529
    1AU     LIG  371   3.983   4.027   5.450
    1AU     LIG  372   3.896   3.885   5.284
    1AU     LIG  373   3.810   3.712   5.106
    1AU     S    374   5.153   3.893   5.441
    1AU     LIG  375   5.270   3.714   5.269
    1AU     LIG  376   5.243   3.504   5.146
    1AU     LIG  377   5.167   3.266   5.082
    1AU     S    378   5.346   3.894   5.824
    1AU     LIG  379   5.510   3.653   5.793
    1AU     LIG  380   5.517   3.447   5.627
    1AU     LIG  381   5.502   3.230   5.484
    1AU     S    382   5.607   4.403   5.173
    1AU     LIG  383   5.593   4.225   4.970
    1AU     LIG  384   5.583   3.997   4.876
    1AU     LIG  385   5.634   3.794   4.721
    2POPC   NC3  386   3.378   1.129   7.964
    2POPC   PO4  387   3.362   1.087   7.664
    2POPC   GL1  388   3.338   1.072   7.364
    2POPC   GL2  389   3.491   1.178   7.364
    2POPC   C1A  390   3.399   1.090   7.064
    2POPC   D2A  391   3.350   1.079   6.764
    2POPC   C3A  392   3.394   1.065   6.464
    2POPC   C4A  393   3.389   1.131   6.164
    2POPC   C1B  394   3.624   1.301   7.064
    2POPC   C2B  395   3.668   1.347   6.764
    2POPC   C3B  396   3.682   1.311   6.464
    2POPC   C4B  397   3.625   1.260   6.164
    3POPC   NC3  398   7.414   0.265   7.964
    3POPC   PO4  399   7.488   0.262   7.664
    3POPC   GL1  400   7.406   0.262   7.364
    3POPC   GL2  401   7.329   0.474   7.364
    3POPC   C1A  402   7.470   0.307   7.064
    3POPC   D2A  403   7.472   0.249   6.764
    3POPC   C3A  404   7.411   0.243   6.464
    3POPC   C4A  405   7.434   0.252   6.164
    3POPC   C1B  406   7.244   0.590   7.064
    3POPC   C2B  407   7.261   0.638   6.764
    3POPC   C3B  408   7.259   0.575   6.464
    3POPC   C4B  409   7.296   0.585   6.164
    4POPC   NC3  410   1.134   1.296   7.964
    4POPC   PO4  411   1.094   1.345   7.664
    4POPC   GL1  412   1.044   1.362   7.364
    4POPC   GL2  413   1.211   1.212   7.364
    4POPC   C1A  414   1.141   1.388   7.064
    4POPC   D2A  415   1.093   1.368   6.764
    4POPC   C3A  416   1.133   1.335   6.464
    4POPC   C4A  417   1.081   1.363   6.164
    4POPC   C1B  418   1.307   1.052   7.064
    4POPC   C2B  419   1.365   1.030   6.764
    4POPC   C3B  420   1.274   1.024   6.464
    4POPC   C4B  421   1.329   1.058   6.164
    5POPC   NC3  422   0.560   4.966   7.964
    5POPC   PO4  423   0.522   4.946   7.664
    5POPC   GL1  424   0.615   4.944   7.364
    5POPC   GL2  425   0.483   5.069   7.364
    5POPC   C1A  426   0.553   4.907   7.064
    5POPC   D2A  427   0.533   4.951   6.764
    5POPC   C3A  428   0.604   4.974   6.464
    5POPC   C4A  429   0.563   4.914   6.164
    5POPC   C1B  430   0.286   5.129   7.064
    5POPC   C2B  431   0.352   5.186   6.764
    5POPC   C3B  432   0.311   5.221   6.464
    5POPC   C4B  433   0.278   5.219   6.164
    6POPC   NC3  434   5.804   7.911   7.964
    6POPC   PO4  435   5.855   7.931   7.664
    6POPC   GL1  436   5.797   7.908   7.364
    6POPC   GL2  437   5.818   8.122   7.364
    6POPC   C1A  438   5.854   7.965   7.064
    6POPC   D2A  439   5.799   7.924   6.764
    6POPC   C3A  440   5.779   7.900   6.464
    6POPC   C4A  441   5.833   7.965   6.164
    6POPC   C1B  442   5.789   8.330   7.064
    6POPC   C2B  443   5.825   8.335   6.764
    6POPC   C3B  444   5.813   8.329   6.464
    6POPC   C4B  445   5.837   8.315   6.164
    7POPC   NC3  446   0.331   7.985   7.964
    7POPC   PO4  447   0.377   7.981   7.664
    7POPC   GL1  448   0.330   7.985   7.364
    7POPC   GL2  449   0.385   8.159   7.364
    7POPC   C1A  450   0.309   7.929   7.064
    7POPC   D2A  451   0.381   7.977   6.764
    7POPC   C3A  452   0.334   7.997   6.464
    7POPC   C4A  453   0.337   7.968   6.164
    7POPC   C1B  454   0.505   8.256   7.064
    7POPC   C2B  455   0.495   8.280   6.764
    7POPC   C3B  456   0.524   8.240   6.464
    7POPC   C4B  457   0.561   8.324   6.164
    8POPC   NC3  458   8.825   6.434   7.964
    8POPC   PO4  459   8.891   6.455   7.664
    8POPC   GL1  460   8.868   6.399   7.364
    8POPC   GL2  461   8.886   6.579   7.364
    8POPC   C1A  462   8.853   6.389   7.064
    8POPC   D2A  463   8.879   6.406   6.764
    8POPC   C3A  464   8.820   6.431   6.464
    8POPC   C4A  465   8.901   6.391   6.164
    8POPC   C1B  466   8.908   6.760   7.064
    8POPC   C2B  467   8.932   6.719   6.764
    8POPC   C3B  468   8.879   6.801   6.464
    8POPC   C4B  469   8.879   6.725   6.164
    9POPC   NC3  470   2.526   6.598   7.964
    9POPC   PO4  471   2.519   6.603   7.664
    9POPC   GL1  472   2.577   6.582   7.364
    9POPC   GL2  473   2.734   6.556   7.364
    9POPC   C1A  474   2.559   6.579   7.064
    9POPC   D2A  475   2.583   6.565   6.764
    9POPC   C3A  476   2.571   6.615   6.464
    9POPC   C4A  477   2.602   6.548   6.164
    9POPC   C1B  478   2.903   6.599   7.064
    9POPC   C2B  479   2.953   6.626   6.764
    9POPC   C3B  480   2.916   6.653   6.464
    9POPC   C4B  481   2.939   6.586   6.164
   10POPC   NC3  482   7.285   9.817   7.964
   10POPC   PO4  483   7.249   9.792   7.664
   10POPC   GL1  484   7.295   9.810   7.364
   10POPC   GL2  485   7.326   9.624   7.364
   10POPC   C1A  486   7.284   9.834   7.064
   10POPC   D2A  487   7.305   9.818   6.764
   10POPC   C3A  488   7.298   9.792   6.464
   10POPC   C4A  489   7.266   9.861   6.164
   10POPC   C1B  490   7.458   9.475   7.064
   10POPC   C2B  491   7.407   9.533   6.764
   10POPC   C3B  492   7.411   9.532   6.464
   10POPC   C4B  493   7.456   9.541   6.164
   11POPC   NC3  494   7.930   4.303   7.964
   11POPC   PO4  495   7.933   4.308   7.664
   11POPC   GL1  496   7.905   4.293   7.364
   11POPC   GL2  497   8.145   4.312   7.364
   11POPC   C1A  498   7.991   4.268   7.064
   11POPC   D2A  499   7.988   4.277   6.764
   11POPC   C3A  500   7.956   4.303   6.464
   11POPC   C4A  501   7.963   4.215   6.164
   11POPC   C1B  502   8.341   4.303   7.064
   11POPC   C2B  503   8.338   4.287   6.764
   11POPC   C3B  504   8.350   4.326   6.464
   11POPC   C4B  505   8.285   4.340   6.164
   12POPC   NC3  506   3.456   2.139   7.964
   12POPC   PO4  507   3.426   2.137   7.664
   12POPC   GL1  508   3.488   2.149   7.364
   12POPC   GL2  509   3.505   1.964   7.364
   12POPC   C1A  510   3.491   2.102   7.064
   12POPC   D2A  511   3.490   2.164   6.764
   12POPC   C3A  512   3.402   2.144   6.464
   12POPC   C4A  513   3.451   2.111   6.164
   12POPC   C1B  514   3.583   1.835   7.064
   12POPC   C2B  515   3.615   1.773   6.764
   12POPC   C3B  516   3.578   1.818   6.464
   12POPC   C4B  517   3.528   1.823   6.164
   13POPC   NC3  518   8.879   5.661   7.964
   13POPC   PO4  519   8.934   5.687   7.664
   13POPC   GL1  520   8.918   5.671   7.364
   13POPC   GL2  521   8.921   5.810   7.364
   13POPC   C1A  522   8.870   5.655   7.064
   13POPC   D2A  523   8.925   5.607   6.764
   13POPC   C3A  524   8.945   5.684   6.464
   13POPC   C4A  525   8.871   5.615   6.164
   13POPC   C1B  526   8.901   5.994   7.064
   13POPC   C2B  527   8.862   6.032   6.764
   13POPC   C3B  528   8.882   5.992   6.464
   13POPC   C4B  529   8.846   5.947   6.164
   14POPC   NC3  530   1.798   4.254   7.964
   14POPC   PO4  531   1.774   4.229   7.664
   14POPC   GL1  532   1.846   4.198   7.364
   14POPC   GL2  533   1.962   4.315   7.364
   14POPC   C1A  534   1.844   4.258   7.064
   14POPC   D2A  535   1.857   4.233   6.764
   14POPC   C3A  536   1.778   4.246   6.464
   14POPC   C4A  537   1.761   4.241   6.164
   14POPC   C1B  538   2.119   4.306   7.064
   14POPC   C2B  539   2.184   4.331   6.764
   14POPC   C3B  540   2.111   4.302   6.464
   14POPC   C4B  541   2.164   4.376   6.164
   15POPC   NC3  542   4.115   8.941   7.964
   15POPC   PO4  543   4.095   8.889   7.664
   15POPC   GL1  544   4.086   8.889   7.364
   15POPC   GL2  545   4.265   8.918   7.364
   15POPC   C1A  546   4.135   8.972   7.064
   15POPC   D2A  547   4.069   8.919   6.764
   15POPC   C3A  548   4.130   8.959   6.464
   15POPC   C4A  549   4.058   8.981   6.164
   15POPC   C1B  550   4.454   8.880   7.064
   15POPC   C2B  551   4.445   8.880   6.764
   15POPC   C3B  552   4.469   8.906   6.464
   15POPC   C4B  553   4.446   8.833   6.164
   16POPC   NC3  554   0.561   1.240   7.964
   16POPC   PO4  555   0.569   1.305   7.664
   16POPC   GL1  556   0.635   1.265   7.364
   16POPC   GL2  557   0.483   1.206   7.364
   16POPC   C1A  558   0.557   1.242   7.064
   16POPC   D2A  559   0.638   1.309   6.764
   16POPC   C3A  560   0.637   1.276   6.464
   16POPC   C4A  561   0.603   1.222   6.164
   16POPC   C1B  562   0.252   1.092   7.064
   16POPC   C2B  563   0.271   1.115   6.764
   16POPC   C3B  564   0.257   1.138   6.464
   16POPC   C4B  565   0.222   1.163   6.164
   17POPC   NC3  566   8.205   5.635   7.964
   17POPC   PO4  567   8.214   5.659   7.664
   17POPC   GL1  568   8.189   5.638   7.364
   17POPC   GL2  569   8.078   5.826   7.364
   17POPC   C1A  570   8.183   5.667   7.064
   17POPC   D2A  571   8.168   5.686   6.764
   17POPC   C3A  572   8.118   5.646   6.464
   17POPC   C4A  573   8.118   5.613   6.164
   17POPC   C1B  574   8.086   6.038   7.064
   17POPC   C2B  575   8.074   5.966   6.764
   17POPC   C3B  576   8.083   5.978   6.464
   17POPC   C4B  577   8.127   6.001   6.164
   18POPC   NC3  578   5.902   0.312   7.964
   18POPC   PO4  579   5.939   0.260   7.664
   18POPC   GL1  580   5.948   0.297   7.364
   18POPC   GL2  581   5.805   0.450   7.364
   18POPC   C1A  582   5.925   0.273   7.064
   18POPC   D2A  583   5.972   0.339   6.764
   18POPC   C3A  584   5.975   0.286   6.464
   18POPC   C4A  585   5.945   0.296   6.164
   18POPC   C1B  586   5.668   0.577   7.064
   18POPC   C2B  587   5.725   0.521   6.764
   18POPC   C3B  588   5.700   0.592   6.464
   18POPC   C4B  589   5.717   0.574   6.164
   19POPC   NC3  590   9.807   6.513   7.964
   19POPC   PO4  591   9.795   6.494   7.664
   19POPC   GL1  592   9.831   6.516   7.364
   19POPC   GL2  593   9.643   6.611   7.364
   19POPC   C1A  594   9.804   6.525   7.064
   19POPC   D2A  595   9.867   6.525   6.764
   19POPC   C3A  596   9.800   6.559   6.464
   19POPC   C4A  597   9.841   6.560   6.164
   19POPC   C1B  598   9.487   6.658   7.064
   19POPC   C2B  599   9.471   6.676   6.764
   19POPC   C3B  600   9.518   6.625   6.464
   19POPC   C4B  601   9.459   6.647   6.164
   20POPC   NC3  602   9.773   1.045   7.964
   20POPC   PO4  603   9.756   1.047   7.664
   20POPC   GL1  604   9.776   1.063   7.364
   20POPC   GL2  605   9.689   1.238   7.364
   20POPC   C1A  606   9.775   1.093   7.064
   20POPC   D2A  607   9.819   1.027   6.764
   20POPC   C3A  608   9.809   1.103   6.464
   20POPC   C4A  609   9.817   1.084   6.164
   20POPC   C1B  610   9.503   1.333   7.064
   20POPC   C2B  611   9.569   1.339   6.764
   20POPC   C3B  612   9.528   1.336   6.464
   20POPC   C4B  613   9.555   1.375   6.164
   21POPC   NC3  614   1.971   7.936   7.964
   21POPC   PO4  615   2.037   7.988   7.664
   21POPC   GL1  616   1.958   7.939   7.364
   21POPC   GL2  617   1.971   8.083   7.364
   21POPC   C1A  618   2.004   7.954   7.064
   21POPC   D2A  619   1.979   7.927   6.764
   21POPC   C3A  620   1.975   7.956   6.464
   21POPC   C4A  621   2.040   7.966   6.164
   21POPC   C1B  622   1.902   8.351   7.064
   21POPC   C2B  623   1.905   8.269   6.764
   21POPC   C3B  624   1.908   8.271   6.464
   21POPC   C4B  625   1.977   8.261   6.164
   22POPC   NC3  626   4.414   1.192   7.964
   22POPC   PO4  627   4.495   1.147   7.664
   22POPC   GL1  628   4.484   1.175   7.364
   22POPC   GL2  629   4.290   1.199   7.364
   22POPC   C1A  630   4.471   1.127   7.064
   22POPC   D2A  631   4.493   1.192   6.764
   22POPC   C3A  632   4.423   1.195   6.464
   22POPC   C4A  633   4.437   1.111   6.164
   22POPC   C1B  634   4.120   1.221   7.064
   22POPC   C2B  635   4.120   1.260   6.764
   22POPC   C3B  636   4.087   1.235   6.464
   22POPC   C4B  637   4.114   1.292   6.164
   23POPC   NC3  638   7.959   7.301   7.964
   23POPC   PO4  639   7.975   7.342   7.664
   23POPC   GL1  640   7.999   7.350   7.364
   23POPC   GL2  641   8.099   7.325   7.364
   23POPC   C1A  642   7.915   7.274   7.064
   23POPC   D2A  643   7.994   7.304   6.764
   23POPC   C3A  644   7.970   7.273   6.464
   23POPC   C4A  645   7.928   7.326   6.164
   23POPC   C1B  646   8.264   7.440   7.064
   23POPC   C2B  647   8.295   7.380   6.764
   23POPC   C3B  648   8.304   7.358   6.464
   23POPC   C4B  649   8.282   7.367   6.164
   24POPC   NC3  650   8.916   3.686   7.964
   24POPC   PO4  651   8.911   3.663   7.664
   24POPC   GL1  652   8.907   3.645   7.364
   24POPC   GL2  653   8.886   3.543   7.364
   24POPC   C1A  654   8.932   3.666   7.064
   24POPC   D2A  655   8.982   3.700   6.764
   24POPC   C3A  656   8.979   3.671   6.464
   24POPC   C4A  657   8.928   3.643   6.164
   24POPC   C1B  658   8.887   3.344   7.064
   24POPC   C2B  659   8.880   3.336   6.764
   24POPC   C3B  660   8.870   3.296   6.464
   24POPC   C4B  661   8.811   3.374   6.164
   25POPC   NC3  662   0.298   2.099   7.964
   25POPC   PO4  663   0.371   2.144   7.664
   25POPC   GL1  664   0.359   2.149   7.364
   25POPC   GL2  665   0.445   1.995   7.364
   25POPC   C1A  666   0.295   2.116   7.064
   25POPC   D2A  667   0.285   2.154   6.764
   25POPC   C3A  668   0.321   2.142   6.464
   25POPC   C4A  669   0.334   2.133   6.164
   25POPC   C1B  670   0.573   1.877   7.064
   25POPC   C2B  671   0.556   1.860   6.764
   25POPC   C3B  672   0.583   1.881   6.464
   25POPC   C4B  673   0.547   1.882   6.164
   26POPC   NC3  674   9.586   4.460   7.964
   26POPC   PO4  675   9.605   4.483   7.664
   26POPC   GL1  676   9.581   4.456   7.364
   26POPC   GL2  677   9.640   4.270   7.364
   26POPC   C1A  678   9.629   4.425   7.064
   26POPC   D2A  679   9.559   4.430   6.764
   26POPC   C3A  680   9.560   4.466   6.464
   26POPC   C4A  681   9.621   4.445   6.164
   26POPC   C1B  682   9.738   4.139   7.064
   26POPC   C2B  683   9.727   4.123   6.764
   26POPC   C3B  684   9.779   4.125   6.464
   26POPC   C4B  685   9.760   4.102   6.164
   27POPC   NC3  686   7.262   1.325   7.964
   27POPC   PO4  687   7.306   1.336   7.664
   27POPC   GL1  688   7.282   1.393   7.364
   27POPC   GL2  689   7.321   1.209   7.364
   27POPC   C1A  690   7.283   1.368   7.064
   27POPC   D2A  691   7.279   1.354   6.764
   27POPC   C3A  692   7.298   1.356   6.464
   27POPC   C4A  693   7.266   1.358   6.164
   27POPC   C1B  694   7.383   1.074   7.064
   27POPC   C2B  695   7.384   1.036   6.764
   27POPC   C3B  696   7.382   1.068   6.464
   27POPC   C4B  697   7.385   1.059   6.164
   28POPC   NC3  698   8.955   4.873   7.964
   28POPC   PO4  699   8.957   4.930   7.664
   28POPC   GL1  700   8.976   4.917   7.364
   28POPC   GL2  701   8.932   5.008   7.364
   28POPC   C1A  702   9.037   4.930   7.064
   28POPC   D2A  703   9.044   4.898   6.764
   28POPC   C3A  704   9.046   4.947   6.464
   28POPC   C4A  705   9.001   4.913   6.164
   28POPC   C1B  706   8.813   5.158   7.064
   28POPC   C2B  707   8.828   5.186   6.764
   28POPC   C3B  708   8.835   5.160   6.464
   28POPC   C4B  709   8.835   5.211   6.164
   29POPC   NC3  710   5.758   9.059   7.964
   29POPC   PO4  711   5.718   9.044   7.664
   29POPC   GL1  712   5.740   9.003   7.364
   29POPC   GL2  713   5.844   8.846   7.364
   29POPC   C1A  714   5.698   9.076   7.064
   29POPC   D2A  715   5.723   9.091   6.764
   29POPC   C3A  716   5.696   9.053   6.464
   29POPC   C4A  717   5.692   9.030   6.164
   29POPC   C1B  718   5.959   8.725   7.064
   29POPC   C2B  719   5.940   8.709   6.764
   29POPC   C3B  720   5.885   8.697   6.464
   29POPC   C4B  721   5.883   8.743   6.164
   30POPC   NC3  722   4.876   8.836   7.964
   30POPC   PO4  723   4.834   8.849   7.664
   30POPC   GL1  724   4.910   8.850   7.364
   30POPC   GL2  725   5.000   8.943   7.364
   30POPC   C1A  726   4.881   8.874   7.064
   30POPC   D2A  727   4.887   8.914   6.764
   30POPC   C3A  728   4.856   8.931   6.464
   30POPC   C4A  729   4.835   8.879   6.164
   30POPC   C1B  730   5.267   8.900   7.064
   30POPC   C2B  731   5.251   8.950   6.764
   30POPC   C3B  732   5.211   8.937   6.464
   30POPC   C4B  733   5.196   8.881   6.164
   31POPC   NC3  734   5.746   9.826   7.964
   31POPC   PO4  735   5.812   9.888   7.664
   31POPC   GL1  736   5.800   9.853   7.364
   31POPC   GL2  737   5.819   9.687   7.364
   31POPC   C1A  738   5.823   9.800   7.064
   31POPC   D2A  739   5.742   9.827   6.764
   31POPC   C3A  740   5.757   9.836   6.464
   31POPC   C4A  741   5.802   9.871   6.164
   31POPC   C1B  742   5.851   9.465   7.064
   31POPC   C2B  743   5.825   9.526   6.764
   31POPC   C3B  744   5.838   9.527   6.464
   31POPC   C4B  745   5.882   9.538   6.164
   32POPC   NC3  746   7.199   2.714   7.964
   32POPC   PO4  747   7.176   2.749   7.664
   32POPC   GL1  748   7.210   2.688   7.364
   32POPC   GL2  749   7.336   2.786   7.364
   32POPC   C1A  750   7.223   2.744   7.064
   32POPC   D2A  751   7.144   2.762   6.764
   32POPC   C3A  752   7.148   2.721   6.464
   32POPC   C4A  753   7.167   2.757   6.164
   32POPC   C1B  754   7.565   2.786   7.064
   32POPC   C2B  755   7.505   2.750   6.764
   32POPC   C3B  756   7.579   2.747   6.464
   32POPC   C4B  757   7.543   2.709   6.164
   33POPC   NC3  758   9.094   8.927   7.964
   33POPC   PO4  759   9.113   8.861   7.664
   33POPC   GL1  760   9.110   8.933   7.364
   33POPC   GL2  761   8.847   8.902   7.364
   33POPC   C1A  762   9.052   8.911   7.064
   33POPC   D2A  763   9.040   8.865   6.764
   33POPC   C3A  764   9.033   8.902   6.464
   33POPC   C4A  765   9.123   8.861   6.164
   33POPC   C1B  766   8.706   8.863   7.064
   33POPC   C2B  767   8.668   8.920   6.764
   33POPC   C3B  768   8.746   8.863   6.464
   33POPC   C4B  769   8.678   8.894   6.164
   34POPC   NC3  770   5.093   0.573   7.964
   34POPC   PO4  771   5.049   0.639   7.664
   34POPC   GL1  772   5.098   0.617   7.364
   34POPC   GL2  773   5.004   0.426   7.364
   34POPC   C1A  774   5.093   0.570   7.064
   34POPC   D2A  775   5.134   0.634   6.764
   34POPC   C3A  776   5.090   0.635   6.464
   34POPC   C4A  777   5.069   0.644   6.164
   34POPC   C1B  778   4.969   0.286   7.064
   34POPC   C2B  779   4.954   0.261   6.764
   34POPC   C3B  780   5.008   0.266   6.464
   34POPC   C4B  781   4.994   0.307   6.164
   35POPC   NC3  782   0.573   6.610   7.964
   35POPC   PO4  783   0.609   6.604   7.664
   35POPC   GL1  784   0.631   6.592   7.364
   35POPC   GL2  785   0.393   6.580   7.364
   35POPC   C1A  786   0.564   6.561   7.064
   35POPC   D2A  787   0.604   6.616   6.764
   35POPC   C3A  788   0.596   6.604   6.464
   35POPC   C4A  789   0.631   6.637   6.164
   35POPC   C1B  790   0.273   6.583   7.064
   35POPC   C2B  791   0.266   6.545   6.764
   35POPC   C3B  792   0.215   6.549   6.464
   35POPC   C4B  793   0.267   6.543   6.164
   36POPC   NC3  794   7.484   8.984   7.964
   36POPC   PO4  795   7.525   9.037   7.664
   36POPC   GL1  796   7.488   8.965   7.364
   36POPC   GL2  797   7.375   8.859   7.364
   36POPC   C1A  798   7.491   8.966   7.064
   36POPC   D2A  799   7.512   8.956   6.764
   36POPC   C3A  800   7.516   9.006   6.464
   36POPC   C4A  801   7.523   9.001   6.164
   36POPC   C1B  802   7.197   8.830   7.064
   36POPC   C2B  803   7.223   8.750   6.764
   36POPC   C3B  804   7.196   8.846   6.464
   36POPC   C4B  805   7.216   8.822   6.164
   37POPC   NC3  806   1.836   8.773   7.964
   37POPC   PO4  807   1.878   8.731   7.664
   37POPC   GL1  808   1.853   8.807   7.364
   37POPC   GL2  809   2.008   8.926   7.364
   37POPC   C1A  810   1.878   8.757   7.064
   37POPC   D2A  811   1.896   8.749   6.764
   37POPC   C3A  812   1.896   8.728   6.464
   37POPC   C4A  813   1.832   8.718   6.164
   37POPC   C1B  814   2.122   9.073   7.064
   37POPC   C2B  815   2.121   8.985   6.764
   37POPC   C3B  816   2.104   9.049   6.464
   37POPC   C4B  817   2.063   9.058   6.164
   38POPC   NC3  818   0.396   6.013   7.964
   38POPC   PO4  819   0.350   5.975   7.664
   38POPC   GL1  820   0.415   6.041   7.364
   38POPC   GL2  821   0.410   5.867   7.364
   38POPC   C1A  822   0.429   6.008   7.064
   38POPC   D2A  823   0.386   5.985   6.764
   38POPC   C3A  824   0.369   5.987   6.464
   38POPC   C4A  825   0.425   6.015   6.164
   38POPC   C1B  826   0.429   5.609   7.064
   38POPC   C2B  827   0.510   5.607   6.764
   38POPC   C3B  828   0.515   5.620   6.464
   38POPC   C4B  829   0.438   5.650   6.164
   39POPC   NC3  830   1.876   7.554   7.964
   39POPC   PO4  831   1.866   7.534   7.664
   39POPC   GL1  832   1.887   7.547   7.364
   39POPC   GL2  833   1.948   7.369   7.364
   39POPC   C1A  834   1.929   7.518   7.064
   39POPC   D2A  835   1.884   7.509   6.764
   39POPC   C3A  836   1.869   7.509   6.464
   39POPC   C4A  837   1.923   7.546   6.164
   39POPC   C1B  838   1.994   7.172   7.064
   39POPC   C2B  839   2.013   7.171   6.764
   39POPC   C3B  840   2.023   7.211   6.464
   39POPC   C4B  841   2.013   7.159   6.164
   40POPC   NC3  842   6.735   0.470   7.964
   40POPC   PO4  843   6.772   0.415   7.664
   40POPC   GL1  844   6.809   0.428   7.364
   40POPC   GL2  845   6.610   0.415   7.364
   40POPC   C1A  846   6.768   0.398   7.064
   40POPC   D2A  847   6.769   0.459   6.764
   40POPC   C3A  848   6.728   0.420   6.464
   40POPC   C4A  849   6.746   0.412   6.164
   40POPC   C1B  850   6.415   0.386   7.064
   40POPC   C2B  851   6.447   0.423   6.764
   40POPC   C3B  852   6.415   0.396   6.464
   40POPC   C4B  853   6.409   0.455   6.164
   41POPC   NC3  854   8.717   7.191   7.964
   41POPC   PO4  855   8.726   7.212   7.664
   41POPC   GL1  856   8.756   7.257   7.364
   41POPC   GL2  857   8.870   7.320   7.364
   41POPC   C1A  858   8.753   7.196   7.064
   41POPC   D2A  859   8.717   7.260   6.764
   41POPC   C3A  860   8.729   7.245   6.464
   41POPC   C4A  861   8.776   7.214   6.164
   41POPC   C1B  862   9.039   7.492   7.064
   41POPC   C2B  863   9.015   7.460   6.764
   41POPC   C3B  864   9.014   7.517   6.464
   41POPC   C4B  865   8.993   7.490   6.164
   42POPC   NC3  866   1.981   3.665   7.964
   42POPC   PO4  867   1.982   3.725   7.664
   42POPC   GL1  868   1.958   3.695   7.364
   42POPC   GL2  869   2.000   3.482   7.364
   42POPC   C1A  870   2.010   3.727   7.064
   42POPC   D2A  871   2.041   3.664   6.764
   42POPC   C3A  872   2.035   3.672   6.464
   42POPC   C4A  873   1.960   3.686   6.164
   42POPC   C1B  874   1.973   3.334   7.064
   42POPC   C2B  875   1.933   3.354   6.764
   42POPC   C3B  876   1.918   3.302   6.464
   42POPC   C4B  877   1.982   3.317   6.164
   43POPC   NC3  878   1.040   2.818   7.964
   43POPC   PO4  879   1.060   2.756   7.664
   43POPC   GL1  880   1.037   2.787   7.364
   43POPC   GL2  881   1.212   2.754   7.364
   43POPC   C1A  882   1.070   2.781   7.064
   43POPC   D2A  883   0.999   2.767   6.764
   43POPC   C3A  884   0.999   2.813   6.464
   43POPC   C4A  885   1.041   2.768   6.164
   43POPC   C1B  886   1.372   2.673   7.064
   43POPC   C2B  887   1.355   2.763   6.764
   43POPC   C3B  888   1.367   2.683   6.464
   43POPC   C4B  889   1.334   2.722   6.164
   44POPC   NC3  890   9.647   2.122   7.964
   44POPC   PO4  891   9.645   2.117   7.664
   44POPC   GL1  892   9.676   2.164   7.364
   44POPC   GL2  893   9.707   1.965   7.364
   44POPC   C1A  894   9.671   2.149   7.064
   44POPC   D2A  895   9.639   2.135   6.764
   44POPC   C3A  896   9.696   2.158   6.464
   44POPC   C4A  897   9.725   2.163   6.164
   44POPC   C1B  898   9.652   1.823   7.064
   44POPC   C2B  899   9.628   1.826   6.764
   44POPC   C3B  900   9.607   1.841   6.464
   44POPC   C4B  901   9.630   1.795   6.164
   45POPC   NC3  902   0.584   2.808   7.964
   45POPC   PO4  903   0.544   2.872   7.664
   45POPC   GL1  904   0.590   2.808   7.364
   45POPC   GL2  905   0.398   2.745   7.364
   45POPC   C1A  906   0.550   2.844   7.064
   45POPC   D2A  907   0.567   2.804   6.764
   45POPC   C3A  908   0.579   2.876   6.464
   45POPC   C4A  909   0.570   2.863   6.164
   45POPC   C1B  910   0.258   2.646   7.064
   45POPC   C2B  911   0.326   2.633   6.764
   45POPC   C3B  912   0.311   2.692   6.464
   45POPC   C4B  913   0.331   2.600   6.164
   46POPC   NC3  914   8.243   6.767   7.964
   46POPC   PO4  915   8.241   6.727   7.664
   46POPC   GL1  916   8.255   6.773   7.364
   46POPC   GL2  917   8.111   6.584   7.364
   46POPC   C1A  918   8.249   6.696   7.064
   46POPC   D2A  919   8.252   6.735   6.764
   46POPC   C3A  920   8.237   6.783   6.464
   46POPC   C4A  921   8.202   6.761   6.164
   46POPC   C1B  922   8.041   6.432   7.064
   46POPC   C2B  923   8.064   6.459   6.764
   46POPC   C3B  924   8.057   6.417   6.464
   46POPC   C4B  925   8.024   6.447   6.164
   47POPC   NC3  926   4.886   1.832   7.964
   47POPC   PO4  927   4.901   1.867   7.664
   47POPC   GL1  928   4.871   1.814   7.364
   47POPC   GL2  929   5.066   1.924   7.364
   47POPC   C1A  930   4.906   1.808   7.064
   47POPC   D2A  931   4.960   1.898   6.764
   47POPC   C3A  932   4.925   1.872   6.464
   47POPC   C4A  933   4.960   1.873   6.164
   47POPC   C1B  934   5.194   2.080   7.064
   47POPC   C2B  935   5.205   2.048   6.764
   47POPC   C3B  936   5.151   2.107   6.464
   47POPC   C4B  937   5.191   2.088   6.164
   48POPC   NC3  938   2.670   5.220   7.964
   48POPC   PO4  939   2.672   5.227   7.664
   48POPC   GL1  940   2.619   5.261   7.364
   48POPC   GL2  941   2.707   5.016   7.364
   48POPC   C1A  942   2.700   5.201   7.064
   48POPC   D2A  943   2.687   5.192   6.764
   48POPC   C3A  944   2.691   5.222   6.464
   48POPC   C4A  945   2.689   5.204   6.164
   48POPC   C1B  946   2.792   4.856   7.064
   48POPC   C2B  947   2.838   4.858   6.764
   48POPC   C3B  948   2.805   4.892   6.464
   48POPC   C4B  949   2.823   4.853   6.164
   49POPC   NC3  950   4.309   2.180   7.964
   49POPC   PO4  951   4.314   2.120   7.664
   49POPC   GL1  952   4.253   2.154   7.364
   49POPC   GL2  953   4.323   1.994   7.364
   49POPC   C1A  954   4.281   2.104   7.064
   49POPC   D2A  955   4.220   2.199   6.764
   49POPC   C3A  956   4.284   2.125   6.464
   49POPC   C4A  957   4.284   2.106   6.164
   49POPC   C1B  958   4.309   1.797   7.064
   49POPC   C2B  959   4.332   1.786   6.764
   49POPC   C3B  960   4.274   1.750   6.464
   49POPC   C4B  961   4.342   1.838   6.164
   50POPC   NC3  962   6.465   7.199   7.964
   50POPC   PO4  963   6.458   7.225   7.664
   50POPC   GL1  964   6.476   7.266   7.364
   50POPC   GL2  965   6.568   7.335   7.364
   50POPC   C1A  966   6.465   7.237   7.064
   50POPC   D2A  967   6.518   7.187   6.764
   50POPC   C3A  968   6.446   7.257   6.464
   50POPC   C4A  969   6.430   7.190   6.164
   50POPC   C1B  970   6.655   7.521   7.064
   50POPC   C2B  971   6.732   7.476   6.764
   50POPC   C3B  972   6.655   7.503   6.464
   50POPC   C4B  973   6.729   7.511   6.164
   51POPC   NC3  974   9.482   2.823   7.964
   51POPC   PO4  975   9.495   2.811   7.664
   51POPC   GL1  976   9.547   2.796   7.364
   51POPC   GL2  977   9.659   2.767   7.364
   51POPC   C1A  978   9.463   2.863   7.064
   51POPC   D2A  979   9.471   2.874   6.764
   51POPC   C3A  980   9.483   2.830   6.464
   51POPC   C4A  981   9.512   2.830   6.164
   51POPC   C1B  982   9.823   2.637   7.064
   51POPC   C2B  983   9.781   2.694   6.764
   51POPC   C3B  984   9.802   2.611   6.464
   51POPC   C4B  985   9.776   2.654   6.164
   52POPC   NC3  986   6.690   1.830   7.964
   52POPC   PO4  987   6.666   1.785   7.664
   52POPC   GL1  988   6.652   1.861   7.364
   52POPC   GL2  989   6.635   1.947   7.364
   52POPC   C1A  990   6.700   1.819   7.064
   52POPC   D2A  991   6.626   1.839   6.764
   52POPC   C3A  992   6.698   1.827   6.464
   52POPC   C4A  993   6.700   1.765   6.164
   52POPC   C1B  994   6.552   2.099   7.064
   52POPC   C2B  995   6.510   2.141   6.764
   52POPC   C3B  996   6.494   2.121   6.464
   52POPC   C4B  997   6.501   2.159   6.164
   53POPC   NC3  998   9.728   3.365   7.964
   53POPC   PO4  999   9.708   3.299   7.664
   53POPC   GL1 1000   9.666   3.298   7.364
   53POPC   GL2 1001   9.624   3.535   7.364
   53POPC   C1A 1002   9.660   3.383   7.064
   53POPC   D2A 1003   9.684   3.284   6.764
   53POPC   C3A 1004   9.643   3.321   6.464
   53POPC   C4A 1005   9.705   3.381   6.164
   53POPC   C1B 1006   9.605   3.722   7.064
   53POPC   C2B 1007   9.687   3.724   6.764
   53POPC   C3B 1008   9.618   3.738   6.464
   53POPC   C4B 1009   9.628   3.645   6.164
   54POPC   NC3 1010   6.435   8.833   7.964
   54POPC   PO4 1011   6.409   8.864   7.664
   54POPC   GL1 1012   6.384   8.845   7.364
   54POPC   GL2 1013   6.628   8.851   7.364
   54POPC   C1A 1014   6.405   8.842   7.064
   54POPC   D2A 1015   6.444   8.791   6.764
   54POPC   C3A 1016   6.431   8.813   6.464
   54POPC   C4A 1017   6.398   8.829   6.164
   54POPC   C1B 1018   6.748   8.968   7.064
   54POPC   C2B 1019   6.725   8.927   6.764
   54POPC   C3B 1020   6.761   8.939   6.464
   54POPC   C4B 1021   6.718   8.921   6.164
   55POPC   NC3 1022   9.563   0.553   7.964
   55POPC   PO4 1023   9.617   0.574   7.664
   55POPC   GL1 1024   9.641   0.591   7.364
   55POPC   GL2 1025   9.668   0.470   7.364
   55POPC   C1A 1026   9.606   0.635   7.064
   55POPC   D2A 1027   9.628   0.571   6.764
   55POPC   C3A 1028   9.595   0.559   6.464
   55POPC   C4A 1029   9.580   0.581   6.164
   55POPC   C1B 1030   9.713   0.250   7.064
   55POPC   C2B 1031   9.739   0.283   6.764
   55POPC   C3B 1032   9.735   0.235   6.464
   55POPC   C4B 1033   9.690   0.315   6.164
   56POPC   NC3 1034   9.759   5.943   7.964
   56POPC   PO4 1035   9.750   6.000   7.664
   56POPC   GL1 1036   9.727   5.991   7.364
   56POPC   GL2 1037   9.673   5.773   7.364
   56POPC   C1A 1038   9.739   5.994   7.064
   56POPC   D2A 1039   9.748   5.971   6.764
   56POPC   C3A 1040   9.729   5.975   6.464
   56POPC   C4A 1041   9.757   5.947   6.164
   56POPC   C1B 1042   9.635   5.680   7.064
   56POPC   C2B 1043   9.574   5.646   6.764
   56POPC   C3B 1044   9.634   5.605   6.464
   56POPC   C4B 1045   9.589   5.649   6.164
   57POPC   NC3 1046   8.133   9.838   7.964
   57POPC   PO4 1047   8.101   9.867   7.664
   57POPC   GL1 1048   8.042   9.854   7.364
   57POPC   GL2 1049   8.177   9.675   7.364
   57POPC   C1A 1050   8.097   9.846   7.064
   57POPC   D2A 1051   8.035   9.816   6.764
   57POPC   C3A 1052   8.057   9.844   6.464
   57POPC   C4A 1053   8.074   9.833   6.164
   57POPC   C1B 1054   8.189   9.458   7.064
   57POPC   C2B 1055   8.151   9.445   6.764
   57POPC   C3B 1056   8.148   9.468   6.464
   57POPC   C4B 1057   8.178   9.468   6.164
   58POPC   NC3 1058   3.606   7.181   7.964
   58POPC   PO4 1059   3.589   7.189   7.664
   58POPC   GL1 1060   3.609   7.195   7.364
   58POPC   GL2 1061   3.475   7.332   7.364
   58POPC   C1A 1062   3.567   7.188   7.064
   58POPC   D2A 1063   3.560   7.186   6.764
   58POPC   C3A 1064   3.547   7.182   6.464
   58POPC   C4A 1065   3.602   7.167   6.164
   58POPC   C1B 1066   3.499   7.569   7.064
   58POPC   C2B 1067   3.444   7.548   6.764
   58POPC   C3B 1068   3.455   7.534   6.464
   58POPC   C4B 1069   3.507   7.488   6.164
   59POPC   NC3 1070   9.117   1.931   7.964
   59POPC   PO4 1071   9.095   1.953   7.664
   59POPC   GL1 1072   9.081   1.937   7.364
   59POPC   GL2 1073   8.932   1.924   7.364
   59POPC   C1A 1074   9.037   1.932   7.064
   59POPC   D2A 1075   9.100   1.951   6.764
   59POPC   C3A 1076   9.061   1.932   6.464
   59POPC   C4A 1077   9.106   1.958   6.164
   59POPC   C1B 1078   8.708   2.002   7.064
   59POPC   C2B 1079   8.759   1.932   6.764
   59POPC   C3B 1080   8.668   1.980   6.464
   59POPC   C4B 1081   8.673   1.928   6.164
   60POPC   NC3 1082   6.381   1.147   7.964
   60POPC   PO4 1083   6.396   1.173   7.664
   60POPC   GL1 1084   6.455   1.128   7.364
   60POPC   GL2 1085   6.602   1.209   7.364
   60POPC   C1A 1086   6.400   1.179   7.064
   60POPC   D2A 1087   6.436   1.168   6.764
   60POPC   C3A 1088   6.370   1.137   6.464
   60POPC   C4A 1089   6.457   1.126   6.164
   60POPC   C1B 1090   6.787   1.213   7.064
   60POPC   C2B 1091   6.727   1.216   6.764
   60POPC   C3B 1092   6.791   1.241   6.464
   60POPC   C4B 1093   6.779   1.249   6.164
   61POPC   NC3 1094   1.166   4.417   7.964
   61POPC   PO4 1095   1.171   4.441   7.664
   61POPC   GL1 1096   1.158   4.495   7.364
   61POPC   GL2 1097   1.205   4.282   7.364
   61POPC   C1A 1098   1.153   4.488   7.064
   61POPC   D2A 1099   1.127   4.404   6.764
   61POPC   C3A 1100   1.170   4.454   6.464
   61POPC   C4A 1101   1.107   4.409   6.164
   61POPC   C1B 1102   1.298   4.089   7.064
   61POPC   C2B 1103   1.262   4.090   6.764
   61POPC   C3B 1104   1.286   4.103   6.464
   61POPC   C4B 1105   1.246   4.130   6.164
   62POPC   NC3 1106   7.542   3.442   7.964
   62POPC   PO4 1107   7.522   3.478   7.664
   62POPC   GL1 1108   7.546   3.481   7.364
   62POPC   GL2 1109   7.332   3.544   7.364
   62POPC   C1A 1110   7.529   3.462   7.064
   62POPC   D2A 1111   7.504   3.427   6.764
   62POPC   C3A 1112   7.553   3.492   6.464
   62POPC   C4A 1113   7.524   3.465   6.164
   62POPC   C1B 1114   7.203   3.609   7.064
   62POPC   C2B 1115   7.166   3.572   6.764
   62POPC   C3B 1116   7.211   3.584   6.464
   62POPC   C4B 1117   7.140   3.558   6.164
   63POPC   NC3 1118   2.058   2.899   7.964
   63POPC   PO4 1119   2.129   2.851   7.664
   63POPC   GL1 1120   2.069   2.905   7.364
   63POPC   GL2 1121   1.934   2.764   7.364
   63POPC   C1A 1122   2.057   2.886   7.064
   63POPC   D2A 1123   2.083   2.903   6.764
   63POPC   C3A 1124   2.066   2.852   6.464
   63POPC   C4A 1125   2.060   2.892   6.164
   63POPC   C1B 1126   1.812   2.572   7.064
   63POPC   C2B 1127   1.848   2.660   6.764
   63POPC   C3B 1128   1.884   2.649   6.464
   63POPC   C4B 1129   1.848   2.592   6.164
   64POPC   NC3 1130   8.231   8.225   7.964
   64POPC   PO4 1131   8.231   8.261   7.664
   64POPC   GL1 1132   8.273   8.271   7.364
   64POPC   GL2 1133   8.142   8.085   7.364
   64POPC   C1A 1134   8.227   8.300   7.064
   64POPC   D2A 1135   8.211   8.285   6.764
   64POPC   C3A 1136   8.258   8.284   6.464
   64POPC   C4A 1137   8.279   8.281   6.164
   64POPC   C1B 1138   7.958   8.021   7.064
   64POPC   C2B 1139   8.000   7.960   6.764
   64POPC   C3B 1140   8.026   8.033   6.464
   64POPC   C4B 1141   7.968   7.989   6.164
   65POPC   NC3 1142   4.477   9.609   7.964
   65POPC   PO4 1143   4.438   9.548   7.664
   65POPC   GL1 1144   4.441   9.582   7.364
   65POPC   GL2 1145   4.320   9.656   7.364
   65POPC   C1A 1146   4.391   9.607   7.064
   65POPC   D2A 1147   4.423   9.556   6.764
   65POPC   C3A 1148   4.439   9.575   6.464
   65POPC   C4A 1149   4.418   9.560   6.164
   65POPC   C1B 1150   4.157   9.754   7.064
   65POPC   C2B 1151   4.106   9.728   6.764
   65POPC   C3B 1152   4.114   9.749   6.464
   65POPC   C4B 1153   4.112   9.787   6.164
   66POPC   NC3 1154   1.849   1.133   7.964
   66POPC   PO4 1155   1.825   1.162   7.664
   66POPC   GL1 1156   1.830   1.157   7.364
   66POPC   GL2 1157   2.011   1.211   7.364
   66POPC   C1A 1158   1.761   1.192   7.064
   66POPC   D2A 1159   1.836   1.142   6.764
   66POPC   C3A 1160   1.837   1.148   6.464
   66POPC   C4A 1161   1.835   1.162   6.164
   66POPC   C1B 1162   2.150   1.307   7.064
   66POPC   C2B 1163   2.111   1.300   6.764
   66POPC   C3B 1164   2.165   1.305   6.464
   66POPC   C4B 1165   2.189   1.301   6.164
   67POPC   NC3 1166   7.400   4.443   7.964
   67POPC   PO4 1167   7.395   4.447   7.664
   67POPC   GL1 1168   7.458   4.444   7.364
   67POPC   GL2 1169   7.383   4.290   7.364
   67POPC   C1A 1170   7.417   4.487   7.064
   67POPC   D2A 1171   7.433   4.471   6.764
   67POPC   C3A 1172   7.393   4.473   6.464
   67POPC   C4A 1173   7.401   4.479   6.164
   67POPC   C1B 1174   7.334   4.126   7.064
   67POPC   C2B 1175   7.282   4.155   6.764
   67POPC   C3B 1176   7.302   4.099   6.464
   67POPC   C4B 1177   7.333   4.139   6.164
   68POPC   NC3 1178   2.118   5.176   7.964
   68POPC   PO4 1179   2.078   5.122   7.664
   68POPC   GL1 1180   2.097   5.128   7.364
   68POPC   GL2 1181   1.996   5.038   7.364
   68POPC   C1A 1182   2.089   5.154   7.064
   68POPC   D2A 1183   2.082   5.190   6.764
   68POPC   C3A 1184   2.115   5.153   6.464
   68POPC   C4A 1185   2.091   5.119   6.164
   68POPC   C1B 1186   1.882   4.906   7.064
   68POPC   C2B 1187   1.814   4.980   6.764
   68POPC   C3B 1188   1.815   4.942   6.464
   68POPC   C4B 1189   1.819   4.888   6.164
   69POPC   NC3 1190   8.106   2.532   7.964
   69POPC   PO4 1191   8.158   2.561   7.664
   69POPC   GL1 1192   8.081   2.568   7.364
   69POPC   GL2 1193   8.093   2.788   7.364
   69POPC   C1A 1194   8.100   2.610   7.064
   69POPC   D2A 1195   8.167   2.584   6.764
   69POPC   C3A 1196   8.142   2.568   6.464
   69POPC   C4A 1197   8.147   2.573   6.164
   69POPC   C1B 1198   8.101   2.949   7.064
   69POPC   C2B 1199   8.110   2.927   6.764
   69POPC   C3B 1200   8.083   2.939   6.464
   69POPC   C4B 1201   8.133   2.891   6.164
   70POPC   NC3 1202   1.381   7.357   7.964
   70POPC   PO4 1203   1.406   7.299   7.664
   70POPC   GL1 1204   1.390   7.359   7.364
   70POPC   GL2 1205   1.216   7.324   7.364
   70POPC   C1A 1206   1.396   7.285   7.064
   70POPC   D2A 1207   1.377   7.290   6.764
   70POPC   C3A 1208   1.411   7.328   6.464
   70POPC   C4A 1209   1.401   7.311   6.164
   70POPC   C1B 1210   0.997   7.334   7.064
   70POPC   C2B 1211   1.025   7.422   6.764
   70POPC   C3B 1212   1.022   7.345   6.464
   70POPC   C4B 1213   1.055   7.375   6.164
   71POPC   NC3 1214   1.197   9.440   7.964
   71POPC   PO4 1215   1.214   9.498   7.664
   71POPC   GL1 1216   1.232   9.446   7.364
   71POPC   GL2 1217   1.209   9.654   7.364
   71POPC   C1A 1218   1.232   9.458   7.064
   71POPC   D2A 1219   1.174   9.508   6.764
   71POPC   C3A 1220   1.242   9.466   6.464
   71POPC   C4A 1221   1.206   9.479   6.164
   71POPC   C1B 1222   1.211   9.847   7.064
   71POPC   C2B 1223   1.262   9.889   6.764
   71POPC   C3B 1224   1.168   9.818   6.464
   71POPC   C4B 1225   1.225   9.814   6.164
   72POPC   NC3 1226   6.512   6.788   7.964
   72POPC   PO4 1227   6.485   6.766   7.664
   72POPC   GL1 1228   6.506   6.785   7.364
   72POPC   GL2 1229   6.549   6.622   7.364
   72POPC   C1A 1230   6.493   6.722   7.064
   72POPC   D2A 1231   6.527   6.778   6.764
   72POPC   C3A 1232   6.481   6.779   6.464
   72POPC   C4A 1233   6.481   6.768   6.164
   72POPC   C1B 1234   6.708   6.474   7.064
   72POPC   C2B 1235   6.649   6.388   6.764
   72POPC   C3B 1236   6.620   6.376   6.464
   72POPC   C4B 1237   6.680   6.390   6.164
   73POPC   NC3 1238   7.143   6.577   7.964
   73POPC   PO4 1239   7.180   6.631   7.664
   73POPC   GL1 1240   7.213   6.627   7.364
   73POPC   GL2 1241   7.350   6.546   7.364
   73POPC   C1A 1242   7.169   6.628   7.064
   73POPC   D2A 1243   7.186   6.625   6.764
   73POPC   C3A 1244   7.178   6.635   6.464
   73POPC   C4A 1245   7.196   6.628   6.164
   73POPC   C1B 1246   7.553   6.574   7.064
   73POPC   C2B 1247   7.486   6.560   6.764
   73POPC   C3B 1248   7.579   6.603   6.464
   73POPC   C4B 1249   7.490   6.524   6.164
   74POPC   NC3 1250   6.406   2.672   7.964
   74POPC   PO4 1251   6.482   2.641   7.664
   74POPC   GL1 1252   6.458   2.609   7.364
   74POPC   GL2 1253   6.613   2.717   7.364
   74POPC   C1A 1254   6.408   2.639   7.064
   74POPC   D2A 1255   6.400   2.645   6.764
   74POPC   C3A 1256   6.417   2.587   6.464
   74POPC   C4A 1257   6.400   2.663   6.164
   74POPC   C1B 1258   6.724   2.865   7.064
   74POPC   C2B 1259   6.718   2.832   6.764
   74POPC   C3B 1260   6.726   2.870   6.464
   74POPC   C4B 1261   6.712   2.834   6.164
   75POPC   NC3 1262   3.685   0.456   7.964
   75POPC   PO4 1263   3.696   0.452   7.664
   75POPC   GL1 1264   3.642   0.494   7.364
   75POPC   GL2 1265   3.551   0.387   7.364
   75POPC   C1A 1266   3.656   0.472   7.064
   75POPC   D2A 1267   3.646   0.452   6.764
   75POPC   C3A 1268   3.682   0.456   6.464
   75POPC   C4A 1269   3.701   0.424   6.164
   75POPC   C1B 1270   3.378   0.441   7.064
   75POPC   C2B 1271   3.302   0.400   6.764
   75POPC   C3B 1272   3.302   0.435   6.464
   75POPC   C4B 1273   3.296   0.442   6.164
   76POPC   NC3 1274   2.761   2.112   7.964
   76POPC   PO4 1275   2.815   2.162   7.664
   76POPC   GL1 1276   2.805   2.166   7.364
   76POPC   GL2 1277   2.696   1.975   7.364
   76POPC   C1A 1278   2.788   2.109   7.064
   76POPC   D2A 1279   2.752   2.139   6.764
   76POPC   C3A 1280   2.826   2.158   6.464
   76POPC   C4A 1281   2.756   2.120   6.164
   76POPC   C1B 1282   2.681   1.802   7.064
   76POPC   C2B 1283   2.658   1.830   6.764
   76POPC   C3B 1284   2.742   1.847   6.464
   76POPC   C4B 1285   2.712   1.818   6.164
   77POPC   NC3 1286   1.261   4.830   7.964
   77POPC   PO4 1287   1.202   4.899   7.664
   77POPC   GL1 1288   1.224   4.891   7.364
   77POPC   GL2 1289   1.202   5.095   7.364
   77POPC   C1A 1290   1.245   4.862   7.064
   77POPC   D2A 1291   1.271   4.904   6.764
   77POPC   C3A 1292   1.274   4.894   6.464
   77POPC   C4A 1293   1.227   4.881   6.164
   77POPC   C1B 1294   1.220   5.182   7.064
   77POPC   C2B 1295   1.208   5.207   6.764
   77POPC   C3B 1296   1.131   5.194   6.464
   77POPC   C4B 1297   1.173   5.236   6.164
   78POPC   NC3 1298   7.985   1.058   7.964
   78POPC   PO4 1299   7.986   1.112   7.664
   78POPC   GL1 1300   7.983   1.114   7.364
   78POPC   GL2 1301   8.117   1.197   7.364
   78POPC   C1A 1302   8.041   1.029   7.064
   78POPC   D2A 1303   8.054   1.049   6.764
   78POPC   C3A 1304   8.017   1.040   6.464
   78POPC   C4A 1305   7.965   1.087   6.164
   78POPC   C1B 1306   8.279   1.371   7.064
   78POPC   C2B 1307   8.273   1.387   6.764
   78POPC   C3B 1308   8.200   1.312   6.464
   78POPC   C4B 1309   8.273   1.339   6.164
   79POPC   NC3 1310   1.988   0.253   7.964
   79POPC   PO4 1311   2.024   0.229   7.664
   79POPC   GL1 1312   1.950   0.220   7.364
   79POPC   GL2 1313   1.950   0.429   7.364
   79POPC   C1A 1314   2.006   0.248   7.064
   79POPC   D2A 1315   2.024   0.228   6.764
   79POPC   C3A 1316   1.960   0.274   6.464
   79POPC   C4A 1317   2.008   0.270   6.164
   79POPC   C1B 1318   1.935   0.576   7.064
   79POPC   C2B 1319   1.997   0.641   6.764
   79POPC   C3B 1320   1.943   0.615   6.464
   79POPC   C4B 1321   1.920   0.572   6.164
   80POPC   NC3 1322   4.983   9.777   7.964
   80POPC   PO4 1323   4.931   9.820   7.664
   80POPC   GL1 1324   4.927   9.802   7.364
   80POPC   GL2 1325   5.086   9.687   7.364
   80POPC   C1A 1326   4.959   9.796   7.064
   80POPC   D2A 1327   4.948   9.855   6.764
   80POPC   C3A 1328   4.909   9.859   6.464
   80POPC   C4A 1329   4.903   9.797   6.164
   80POPC   C1B 1330   5.152   9.527   7.064
   80POPC   C2B 1331   5.136   9.540   6.764
   80POPC   C3B 1332   5.120   9.542   6.464
   80POPC   C4B 1333   5.169   9.488   6.164
   81POPC   NC3 1334   1.386   8.986   7.964
   81POPC   PO4 1335   1.370   8.970   7.664
   81POPC   GL1 1336   1.325   9.017   7.364
   81POPC   GL2 1337   1.199   8.925   7.364
   81POPC   C1A 1338   1.327   9.008   7.064
   81POPC   D2A 1339   1.290   8.976   6.764
   81POPC   C3A 1340   1.333   8.964   6.464
   81POPC   C4A 1341   1.333   8.966   6.164
   81POPC   C1B 1342   1.112   8.757   7.064
   81POPC   C2B 1343   1.088   8.769   6.764
   81POPC   C3B 1344   1.032   8.778   6.464
   81POPC   C4B 1345   1.082   8.796   6.164
   82POPC   NC3 1346   9.876   8.835   7.964
   82POPC   PO4 1347   9.812   8.838   7.664
   82POPC   GL1 1348   9.868   8.882   7.364
   82POPC   GL2 1349   9.633   8.878   7.364
   82POPC   C1A 1350   9.829   8.846   7.064
   82POPC   D2A 1351   9.863   8.908   6.764
   82POPC   C3A 1352   9.797   8.918   6.464
   82POPC   C4A 1353   9.808   8.906   6.164
   82POPC   C1B 1354   9.472   8.930   7.064
   82POPC   C2B 1355   9.463   8.926   6.764
   82POPC   C3B 1356   9.467   8.875   6.464
   82POPC   C4B 1357   9.458   8.898   6.164
   83POPC   NC3 1358   2.043   5.949   7.964
   83POPC   PO4 1359   1.969   5.999   7.664
   83POPC   GL1 1360   2.017   5.945   7.364
   83POPC   GL2 1361   1.969   5.825   7.364
   83POPC   C1A 1362   1.994   6.009   7.064
   83POPC   D2A 1363   2.037   5.967   6.764
   83POPC   C3A 1364   1.986   5.959   6.464
   83POPC   C4A 1365   1.976   5.989   6.164
   83POPC   C1B 1366   1.967   5.597   7.064
   83POPC   C2B 1367   1.934   5.668   6.764
   83POPC   C3B 1368   1.895   5.684   6.464
   83POPC   C4B 1369   1.968   5.636   6.164
   84POPC   NC3 1370   7.343   5.273   7.964
   84POPC   PO4 1371   7.317   5.262   7.664
   84POPC   GL1 1372   7.401   5.240   7.364
   84POPC   GL2 1373   7.369   5.011   7.364
   84POPC   C1A 1374   7.381   5.212   7.064
   84POPC   D2A 1375   7.393   5.189   6.764
   84POPC   C3A 1376   7.348   5.275   6.464
   84POPC   C4A 1377   7.408   5.197   6.164
   84POPC   C1B 1378   7.320   4.890   7.064
   84POPC   C2B 1379   7.342   4.902   6.764
   84POPC   C3B 1380   7.370   4.832   6.464
   84POPC   C4B 1381   7.398   4.893   6.164
   85POPC   NC3 1382   1.071   6.545   7.964
   85POPC   PO4 1383   0.996   6.558   7.664
   85POPC   GL1 1384   1.055   6.623   7.364
   85POPC   GL2 1385   1.176   6.603   7.364
   85POPC   C1A 1386   1.025   6.627   7.064
   85POPC   D2A 1387   1.037   6.608   6.764
   85POPC   C3A 1388   1.017   6.632   6.464
   85POPC   C4A 1389   0.978   6.610   6.164
   85POPC   C1B 1390   1.416   6.540   7.064
   85POPC   C2B 1391   1.424   6.568   6.764
   85POPC   C3B 1392   1.340   6.622   6.464
   85POPC   C4B 1393   1.347   6.614   6.164
   86POPC   NC3 1394   0.491   9.050   7.964
   86POPC   PO4 1395   0.482   9.097   7.664
   86POPC   GL1 1396   0.509   9.083   7.364
   86POPC   GL2 1397   0.433   8.924   7.364
   86POPC   C1A 1398   0.528   9.012   7.064
   86POPC   D2A 1399   0.479   9.083   6.764
   86POPC   C3A 1400   0.471   9.090   6.464
   86POPC   C4A 1401   0.513   9.037   6.164
   86POPC   C1B 1402   0.320   8.696   7.064
   86POPC   C2B 1403   0.361   8.777   6.764
   86POPC   C3B 1404   0.385   8.697   6.464
   86POPC   C4B 1405   0.320   8.737   6.164
   87POPC   NC3 1406   0.381   7.225   7.964
   87POPC   PO4 1407   0.390   7.144   7.664
   87POPC   GL1 1408   0.416   7.182   7.364
   87POPC   GL2 1409   0.421   7.315   7.364
   87POPC   C1A 1410   0.443   7.165   7.064
   87POPC   D2A 1411   0.376   7.228   6.764
   87POPC   C3A 1412   0.420   7.147   6.464
   87POPC   C4A 1413   0.449   7.211   6.164
   87POPC   C1B 1414   0.476   7.492   7.064
   87POPC   C2B 1415   0.475   7.493   6.764
   87POPC   C3B 1416   0.448   7.512   6.464
   87POPC   C4B 1417   0.450   7.577   6.164
   88POPC   NC3 1418   7.997   0.491   7.964
   88POPC   PO4 1419   7.926   0.512   7.664
   88POPC   GL1 1420   7.960   0.528   7.364
   88POPC   GL2 1421   8.132   0.454   7.364
   88POPC   C1A 1422   8.016   0.487   7.064
   88POPC   D2A 1423   7.983   0.531   6.764
   88POPC   C3A 1424   7.930   0.474   6.464
   88POPC   C4A 1425   7.989   0.523   6.164
   88POPC   C1B 1426   8.320   0.342   7.064
   88POPC   C2B 1427   8.317   0.369   6.764
   88POPC   C3B 1428   8.334   0.338   6.464
   88POPC   C4B 1429   8.284   0.345   6.164
   89POPC   NC3 1430   4.975   1.373   7.964
   89POPC   PO4 1431   5.027   1.411   7.664
   89POPC   GL1 1432   5.023   1.420   7.364
   89POPC   GL2 1433   5.013   1.243   7.364
   89POPC   C1A 1434   5.054   1.384   7.064
   89POPC   D2A 1435   4.995   1.399   6.764
   89POPC   C3A 1436   4.996   1.335   6.464
   89POPC   C4A 1437   5.052   1.345   6.164
   89POPC   C1B 1438   5.106   1.047   7.064
   89POPC   C2B 1439   5.097   1.007   6.764
   89POPC   C3B 1440   5.094   1.044   6.464
   89POPC   C4B 1441   5.098   1.038   6.164
   90POPC   NC3 1442   4.985   8.287   7.964
   90POPC   PO4 1443   4.942   8.269   7.664
   90POPC   GL1 1444   4.942   8.318   7.364
   90POPC   GL2 1445   5.059   8.120   7.364
   90POPC   C1A 1446   4.951   8.257   7.064
   90POPC   D2A 1447   5.011   8.321   6.764
   90POPC   C3A 1448   5.000   8.257   6.464
   90POPC   C4A 1449   4.946   8.341   6.164
   90POPC   C1B 1450   5.146   7.979   7.064
   90POPC   C2B 1451   5.148   7.927   6.764
   90POPC   C3B 1452   5.079   7.986   6.464
   90POPC   C4B 1453   5.112   7.971   6.164
   91POPC   NC3 1454   9.684   7.197   7.964
   91POPC   PO4 1455   9.706   7.134   7.664
   91POPC   GL1 1456   9.672   7.148   7.364
   91POPC   GL2 1457   9.660   7.342   7.364
   91POPC   C1A 1458   9.698   7.226   7.064
   91POPC   D2A 1459   9.673   7.141   6.764
   91POPC   C3A 1460   9.674   7.169   6.464
   91POPC   C4A 1461   9.675   7.191   6.164
   91POPC   C1B 1462   9.659   7.496   7.064
   91POPC   C2B 1463   9.608   7.516   6.764
   91POPC   C3B 1464   9.655   7.567   6.464
   91POPC   C4B 1465   9.623   7.574   6.164
   92POPC   NC3 1466   7.949   2.106   7.964
   92POPC   PO4 1467   8.000   2.078   7.664
   92POPC   GL1 1468   7.991   2.093   7.364
   92POPC   GL2 1469   8.123   1.923   7.364
   92POPC   C1A 1470   8.021   2.081   7.064
   92POPC   D2A 1471   8.023   2.051   6.764
   92POPC   C3A 1472   8.010   2.108   6.464
   92POPC   C4A 1473   7.954   2.033   6.164
   92POPC   C1B 1474   8.291   1.924   7.064
   92POPC   C2B 1475   8.324   1.913   6.764
   92POPC   C3B 1476   8.308   1.895   6.464
   92POPC   C4B 1477   8.281   1.928   6.164
   93POPC   NC3 1478   1.078   8.294   7.964
   93POPC   PO4 1479   1.043   8.309   7.664
   93POPC   GL1 1480   1.120   8.255   7.364
   93POPC   GL2 1481   1.208   8.133   7.364
   93POPC   C1A 1482   1.140   8.302   7.064
   93POPC   D2A 1483   1.092   8.247   6.764
   93POPC   C3A 1484   1.071   8.312   6.464
   93POPC   C4A 1485   1.142   8.296   6.164
   93POPC   C1B 1486   1.351   7.971   7.064
   93POPC   C2B 1487   1.330   7.965   6.764
   93POPC   C3B 1488   1.319   7.953   6.464
   93POPC   C4B 1489   1.276   8.026   6.164
   94POPC   NC3 1490   1.079   1.823   7.964
   94POPC   PO4 1491   1.139   1.816   7.664
   94POPC   GL1 1492   1.068   1.873   7.364
   94POPC   GL2 1493   1.188   1.957   7.364
   94POPC   C1A 1494   1.100   1.789   7.064
   94POPC   D2A 1495   1.118   1.847   6.764
   94POPC   C3A 1496   1.102   1.801   6.464
   94POPC   C4A 1497   1.084   1.835   6.164
   94POPC   C1B 1498   1.308   2.169   7.064
   94POPC   C2B 1499   1.350   2.074   6.764
   94POPC   C3B 1500   1.294   2.112   6.464
   94POPC   C4B 1501   1.318   2.148   6.164
   95POPC   NC3 1502   8.015   3.635   7.964
   95POPC   PO4 1503   7.997   3.554   7.664
   95POPC   GL1 1504   7.928   3.564   7.364
   95POPC   GL2 1505   8.101   3.558   7.364
   95POPC   C1A 1506   7.928   3.649   7.064
   95POPC   D2A 1507   7.947   3.599   6.764
   95POPC   C3A 1508   7.976   3.564   6.464
   95POPC   C4A 1509   7.948   3.644   6.164
   95POPC   C1B 1510   8.320   3.401   7.064
   95POPC   C2B 1511   8.316   3.427   6.764
   95POPC   C3B 1512   8.278   3.437   6.464
   95POPC   C4B 1513   8.252   3.461   6.164
   96POPC   NC3 1514   7.992   8.848   7.964
   96POPC   PO4 1515   7.919   8.808   7.664
   96POPC   GL1 1516   7.958   8.856   7.364
   96POPC   GL2 1517   8.113   8.851   7.364
   96POPC   C1A 1518   7.983   8.898   7.064
   96POPC   D2A 1519   7.912   8.822   6.764
   96POPC   C3A 1520   7.974   8.850   6.464
   96POPC   C4A 1521   7.911   8.822   6.164
   96POPC   C1B 1522   8.283   8.945   7.064
   96POPC   C2B 1523   8.250   8.955   6.764
   96POPC   C3B 1524   8.313   8.959   6.464
   96POPC   C4B 1525   8.294   8.898   6.164
   97POPC   NC3 1526   3.524   7.966   7.964
   97POPC   PO4 1527   3.527   7.964   7.664
   97POPC   GL1 1528   3.603   7.994   7.364
   97POPC   GL2 1529   3.490   8.087   7.364
   97POPC   C1A 1530   3.565   7.930   7.064
   97POPC   D2A 1531   3.587   7.985   6.764
   97POPC   C3A 1532   3.559   7.984   6.464
   97POPC   C4A 1533   3.536   7.996   6.164
   97POPC   C1B 1534   3.468   8.306   7.064
   97POPC   C2B 1535   3.435   8.257   6.764
   97POPC   C3B 1536   3.482   8.326   6.464
   97POPC   C4B 1537   3.497   8.318   6.164
   98POPC   NC3 1538   2.680   9.822   7.964
   98POPC   PO4 1539   2.726   9.873   7.664
   98POPC   GL1 1540   2.740   9.862   7.364
   98POPC   GL2 1541   2.699   9.638   7.364
   98POPC   C1A 1542   2.739   9.830   7.064
   98POPC   D2A 1543   2.688   9.816   6.764
   98POPC   C3A 1544   2.713   9.833   6.464
   98POPC   C4A 1545   2.700   9.817   6.164
   98POPC   C1B 1546   2.768   9.491   7.064
   98POPC   C2B 1547   2.789   9.510   6.764
   98POPC   C3B 1548   2.827   9.445   6.464
   98POPC   C4B 1549   2.775   9.460   6.164
   99POPC   NC3 1550   3.491   9.821   7.964
   99POPC   PO4 1551   3.527   9.869   7.664
   99POPC   GL1 1552   3.501   9.845   7.364
   99POPC   GL2 1553   3.485   9.645   7.364
   99POPC   C1A 1554   3.554   9.866   7.064
   99POPC   D2A 1555   3.477   9.889   6.764
   99POPC   C3A 1556   3.553   9.832   6.464
   99POPC   C4A 1557   3.545   9.855   6.164
   99POPC   C1B 1558   3.506   9.459   7.064
   99POPC   C2B 1559   3.516   9.503   6.764
   99POPC   C3B 1560   3.511   9.536   6.464
   99POPC   C4B 1561   3.503   9.469   6.164
  100POPC   NC3 1562   9.011   4.357   7.964
  100POPC   PO4 1563   9.060   4.339   7.664
  100POPC   GL1 1564   9.052   4.391   7.364
  100POPC   GL2 1565   8.885   4.302   7.364
  100POPC   C1A 1566   9.063   4.338   7.064
  100POPC   D2A 1567   9.096   4.334   6.764
  100POPC   C3A 1568   9.073   4.355   6.464
  100POPC   C4A 1569   9.100   4.382   6.164
  100POPC   C1B 1570   8.704   4.189   7.064
  100POPC   C2B 1571   8.752   4.174   6.764
  100POPC   C3B 1572   8.781   4.155   6.464
  100POPC   C4B 1573   8.735   4.197   6.164
  101POPC   NC3 1574   7.325   1.839   7.964
  101POPC   PO4 1575   7.329   1.832   7.664
  101POPC   GL1 1576   7.407   1.796   7.364
  101POPC   GL2 1577   7.331   1.996   7.364
  101POPC   C1A 1578   7.334   1.820   7.064
  101POPC   D2A 1579   7.344   1.798   6.764
  101POPC   C3A 1580   7.376   1.806   6.464
  101POPC   C4A 1581   7.349   1.746   6.164
  101POPC   C1B 1582   7.392   2.181   7.064
  101POPC   C2B 1583   7.382   2.190   6.764
  101POPC   C3B 1584   7.333   2.106   6.464
  101POPC   C4B 1585   7.323   2.125   6.164
  102POPC   NC3 1586   1.272   0.310   7.964
  102POPC   PO4 1587   1.221   0.224   7.664
  102POPC   GL1 1588   1.258   0.315   7.364
  102POPC   GL2 1589   1.202   0.437   7.364
  102POPC   C1A 1590   1.233   0.294   7.064
  102POPC   D2A 1591   1.226   0.278   6.764
  102POPC   C3A 1592   1.227   0.279   6.464
  102POPC   C4A 1593   1.279   0.251   6.164
  102POPC   C1B 1594   1.164   0.566   7.064
  102POPC   C2B 1595   1.158   0.618   6.764
  102POPC   C3B 1596   1.188   0.624   6.464
  102POPC   C4B 1597   1.141   0.591   6.164
  103POPC   NC3 1598   2.114   1.933   7.964
  103POPC   PO4 1599   2.134   1.854   7.664
  103POPC   GL1 1600   2.102   1.847   7.364
  103POPC   GL2 1601   2.020   1.970   7.364
  103POPC   C1A 1602   2.102   1.924   7.064
  103POPC   D2A 1603   2.105   1.846   6.764
  103POPC   C3A 1604   2.152   1.887   6.464
  103POPC   C4A 1605   2.166   1.856   6.164
  103POPC   C1B 1606   1.789   2.100   7.064
  103POPC   C2B 1607   1.825   2.070   6.764
  103POPC   C3B 1608   1.851   2.068   6.464
  103POPC   C4B 1609   1.818   2.057   6.164
  104POPC   NC3 1610   7.424   7.972   7.964
  104POPC   PO4 1611   7.386   7.986   7.664
  104POPC   GL1 1612   7.432   7.994   7.364
  104POPC   GL2 1613   7.342   8.171   7.364
  104POPC   C1A 1614   7.469   7.937   7.064
  104POPC   D2A 1615   7.419   8.003   6.764
  104POPC   C3A 1616   7.428   7.918   6.464
  104POPC   C4A 1617   7.401   7.981   6.164
  104POPC   C1B 1618   7.262   8.329   7.064
  104POPC   C2B 1619   7.288   8.293   6.764
  104POPC   C3B 1620   7.328   8.330   6.464
  104POPC   C4B 1621   7.260   8.301   6.164
  105POPC   NC3 1622   2.709   7.519   7.964
  105POPC   PO4 1623   2.739   7.528   7.664
  105POPC   GL1 1624   2.692   7.536   7.364
  105POPC   GL2 1625   2.792   7.371   7.364
  105POPC   C1A 1626   2.765   7.514   7.064
  105POPC   D2A 1627   2.750   7.507   6.764
  105POPC   C3A 1628   2.788   7.508   6.464
  105POPC   C4A 1629   2.692   7.542   6.164
  105POPC   C1B 1630   2.725   7.162   7.064
  105POPC   C2B 1631   2.736   7.143   6.764
  105POPC   C3B 1632   2.790   7.206   6.464
  105POPC   C4B 1633   2.777   7.143   6.164
  106POPC   NC3 1634   2.791   5.657   7.964
  106POPC   PO4 1635   2.777   5.685   7.664
  106POPC   GL1 1636   2.750   5.688   7.364
  106POPC   GL2 1637   2.754   5.867   7.364
  106POPC   C1A 1638   2.774   5.618   7.064
  106POPC   D2A 1639   2.788   5.638   6.764
  106POPC   C3A 1640   2.720   5.656   6.464
  106POPC   C4A 1641   2.717   5.654   6.164
  106POPC   C1B 1642   2.742   5.990   7.064
  106POPC   C2B 1643   2.715   6.038   6.764
  106POPC   C3B 1644   2.696   6.000   6.464
  106POPC   C4B 1645   2.762   6.027   6.164
  107POPC   NC3 1646   0.521   4.139   7.964
  107POPC   PO4 1647   0.458   4.081   7.664
  107POPC   GL1 1648   0.477   4.091   7.364
  107POPC   GL2 1649   0.440   4.231   7.364
  107POPC   C1A 1650   0.507   4.090   7.064
  107POPC   D2A 1651   0.503   4.113   6.764
  107POPC   C3A 1652   0.506   4.132   6.464
  107POPC   C4A 1653   0.477   4.073   6.164
  107POPC   C1B 1654   0.413   4.471   7.064
  107POPC   C2B 1655   0.385   4.457   6.764
  107POPC   C3B 1656   0.384   4.498   6.464
  107POPC   C4B 1657   0.343   4.448   6.164
  108POPC   NC3 1658   7.391   7.472   7.964
  108POPC   PO4 1659   7.460   7.554   7.664
  108POPC   GL1 1660   7.418   7.567   7.364
  108POPC   GL2 1661   7.385   7.309   7.364
  108POPC   C1A 1662   7.444   7.524   7.064
  108POPC   D2A 1663   7.409   7.516   6.764
  108POPC   C3A 1664   7.398   7.568   6.464
  108POPC   C4A 1665   7.451   7.547   6.164
  108POPC   C1B 1666   7.296   7.190   7.064
  108POPC   C2B 1667   7.318   7.225   6.764
  108POPC   C3B 1668   7.251   7.168   6.464
  108POPC   C4B 1669   7.266   7.225   6.164
  109POPC   NC3 1670   6.448   9.821   7.964
  109POPC   PO4 1671   6.514   9.790   7.664
  109POPC   GL1 1672   6.507   9.843   7.364
  109POPC   GL2 1673   6.577   9.621   7.364
  109POPC   C1A 1674   6.474   9.839   7.064
  109POPC   D2A 1675   6.507   9.820   6.764
  109POPC   C3A 1676   6.423   9.777   6.464
  109POPC   C4A 1677   6.507   9.833   6.164
  109POPC   C1B 1678   6.755   9.511   7.064
  109POPC   C2B 1679   6.723   9.533   6.764
  109POPC   C3B 1680   6.749   9.514   6.464
  109POPC   C4B 1681   6.664   9.533   6.164
  110POPC   NC3 1682   4.336   2.591   7.964
  110POPC   PO4 1683   4.371   2.553   7.664
  110POPC   GL1 1684   4.338   2.598   7.364
  110POPC   GL2 1685   4.310   2.694   7.364
  110POPC   C1A 1686   4.378   2.565   7.064
  110POPC   D2A 1687   4.362   2.576   6.764
  110POPC   C3A 1688   4.352   2.612   6.464
  110POPC   C4A 1689   4.353   2.622   6.164
  110POPC   C1B 1690   4.174   2.944   7.064
  110POPC   C2B 1691   4.240   2.881   6.764
  110POPC   C3B 1692   4.225   2.868   6.464
  110POPC   C4B 1693   4.183   2.933   6.164
  111POPC   NC3 1694   1.804   9.729   7.964
  111POPC   PO4 1695   1.809   9.709   7.664
  111POPC   GL1 1696   1.830   9.711   7.364
  111POPC   GL2 1697   1.978   9.659   7.364
  111POPC   C1A 1698   1.780   9.734   7.064
  111POPC   D2A 1699   1.857   9.756   6.764
  111POPC   C3A 1700   1.796   9.767   6.464
  111POPC   C4A 1701   1.840   9.764   6.164
  111POPC   C1B 1702   2.100   9.631   7.064
  111POPC   C2B 1703   2.129   9.568   6.764
  111POPC   C3B 1704   2.173   9.620   6.464
  111POPC   C4B 1705   2.178   9.552   6.164
  112POPC   NC3 1706   9.828   8.203   7.964
  112POPC   PO4 1707   9.793   8.193   7.664
  112POPC   GL1 1708   9.814   8.204   7.364
  112POPC   GL2 1709   9.656   8.124   7.364
  112POPC   C1A 1710   9.856   8.256   7.064
  112POPC   D2A 1711   9.785   8.220   6.764
  112POPC   C3A 1712   9.837   8.243   6.464
  112POPC   C4A 1713   9.860   8.183   6.164
  112POPC   C1B 1714   9.487   8.052   7.064
  112POPC   C2B 1715   9.510   8.027   6.764
  112POPC   C3B 1716   9.492   8.066   6.464
  112POPC   C4B 1717   9.549   7.997   6.164
  113POPC   NC3 1718   0.567   9.716   7.964
  113POPC   PO4 1719   0.547   9.716   7.664
  113POPC   GL1 1720   0.628   9.755   7.364
  113POPC   GL2 1721   0.484   9.677   7.364
  113POPC   C1A 1722   0.542   9.795   7.064
  113POPC   D2A 1723   0.605   9.793   6.764
  113POPC   C3A 1724   0.569   9.803   6.464
  113POPC   C4A 1725   0.549   9.792   6.164
  113POPC   C1B 1726   0.233   9.584   7.064
  113POPC   C2B 1727   0.317   9.542   6.764
  113POPC   C3B 1728   0.235   9.590   6.464
  113POPC   C4B 1729   0.300   9.573   6.164
  114POPC   NC3 1730   3.486   8.757   7.964
  114POPC   PO4 1731   3.577   8.755   7.664
  114POPC   GL1 1732   3.506   8.682   7.364
  114POPC   GL2 1733   3.559   8.886   7.364
  114POPC   C1A 1734   3.499   8.748   7.064
  114POPC   D2A 1735   3.580   8.767   6.764
  114POPC   C3A 1736   3.492   8.675   6.464
  114POPC   C4A 1737   3.500   8.695   6.164
  114POPC   C1B 1738   3.491   9.035   7.064
  114POPC   C2B 1739   3.510   9.115   6.764
  114POPC   C3B 1740   3.470   9.069   6.464
  114POPC   C4B 1741   3.502   9.058   6.164
  115POPC   NC3 1742   3.405   2.631   7.964
  115POPC   PO4 1743   3.413   2.628   7.664
  115POPC   GL1 1744   3.435   2.629   7.364
  115POPC   GL2 1745   3.551   2.695   7.364
  115POPC   C1A 1746   3.413   2.591   7.064
  115POPC   D2A 1747   3.404   2.599   6.764
  115POPC   C3A 1748   3.420   2.626   6.464
  115POPC   C4A 1749   3.361   2.655   6.164
  115POPC   C1B 1750   3.593   2.903   7.064
  115POPC   C2B 1751   3.630   2.876   6.764
  115POPC   C3B 1752   3.624   2.887   6.464
  115POPC   C4B 1753   3.654   2.887   6.164
  116POPC   NC3 1754   2.932   3.579   7.964
  116POPC   PO4 1755   2.886   3.636   7.664
  116POPC   GL1 1756   2.889   3.633   7.364
  116POPC   GL2 1757   2.727   3.466   7.364
  116POPC   C1A 1758   2.900   3.628   7.064
  116POPC   D2A 1759   2.945   3.620   6.764
  116POPC   C3A 1760   2.890   3.596   6.464
  116POPC   C4A 1761   2.917   3.570   6.164
  116POPC   C1B 1762   2.592   3.462   7.064
  116POPC   C2B 1763   2.545   3.401   6.764
  116POPC   C3B 1764   2.578   3.433   6.464
  116POPC   C4B 1765   2.602   3.413   6.164
  117POPC   NC3 1766   5.816   1.772   7.964
  117POPC   PO4 1767   5.859   1.815   7.664
  117POPC   GL1 1768   5.902   1.788   7.364
  117POPC   GL2 1769   5.834   1.966   7.364
  117POPC   C1A 1770   5.830   1.770   7.064
  117POPC   D2A 1771   5.848   1.821   6.764
  117POPC   C3A 1772   5.873   1.794   6.464
  117POPC   C4A 1773   5.892   1.800   6.164
  117POPC   C1B 1774   5.733   2.186   7.064
  117POPC   C2B 1775   5.759   2.102   6.764
  117POPC   C3B 1776   5.803   2.170   6.464
  117POPC   C4B 1777   5.733   2.098   6.164
  118POPC   NC3 1778   2.744   2.604   7.964
  118POPC   PO4 1779   2.752   2.535   7.664
  118POPC   GL1 1780   2.701   2.559   7.364
  118POPC   GL2 1781   2.708   2.733   7.364
  118POPC   C1A 1782   2.773   2.574   7.064
  118POPC   D2A 1783   2.697   2.603   6.764
  118POPC   C3A 1784   2.696   2.594   6.464
  118POPC   C4A 1785   2.724   2.555   6.164
  118POPC   C1B 1786   2.769   2.960   7.064
  118POPC   C2B 1787   2.718   2.943   6.764
  118POPC   C3B 1788   2.717   2.903   6.464
  118POPC   C4B 1789   2.794   2.956   6.164
  119POPC   NC3 1790   2.921   1.129   7.964
  119POPC   PO4 1791   2.960   1.210   7.664
  119POPC   GL1 1792   2.924   1.196   7.364
  119POPC   GL2 1793   2.783   1.206   7.364
  119POPC   C1A 1794   2.880   1.146   7.064
  119POPC   D2A 1795   2.919   1.215   6.764
  119POPC   C3A 1796   2.955   1.179   6.464
  119POPC   C4A 1797   2.939   1.175   6.164
  119POPC   C1B 1798   2.611   1.271   7.064
  119POPC   C2B 1799   2.587   1.286   6.764
  119POPC   C3B 1800   2.582   1.244   6.464
  119POPC   C4B 1801   2.578   1.212   6.164
  120POPC   NC3 1802   1.265   5.936   7.964
  120POPC   PO4 1803   1.277   6.005   7.664
  120POPC   GL1 1804   1.267   6.015   7.364
  120POPC   GL2 1805   1.243   5.832   7.364
  120POPC   C1A 1806   1.253   5.990   7.064
  120POPC   D2A 1807   1.311   5.976   6.764
  120POPC   C3A 1808   1.274   5.996   6.464
  120POPC   C4A 1809   1.309   5.992   6.164
  120POPC   C1B 1810   1.165   5.706   7.064
  120POPC   C2B 1811   1.107   5.618   6.764
  120POPC   C3B 1812   1.157   5.699   6.464
  120POPC   C4B 1813   1.134   5.689   6.164
  121POPC   NC3 1814   4.437   7.304   7.964
  121POPC   PO4 1815   4.475   7.364   7.664
  121POPC   GL1 1816   4.494   7.353   7.364
  121POPC   GL2 1817   4.245   7.318   7.364
  121POPC   C1A 1818   4.461   7.387   7.064
  121POPC   D2A 1819   4.476   7.347   6.764
  121POPC   C3A 1820   4.469   7.372   6.464
  121POPC   C4A 1821   4.478   7.332   6.164
  121POPC   C1B 1822   4.126   7.408   7.064
  121POPC   C2B 1823   4.150   7.393   6.764
  121POPC   C3B 1824   4.132   7.397   6.464
  121POPC   C4B 1825   4.113   7.339   6.164
  122POPC   NC3 1826   2.019   6.401   7.964
  122POPC   PO4 1827   2.050   6.406   7.664
  122POPC   GL1 1828   2.015   6.468   7.364
  122POPC   GL2 1829   1.999   6.589   7.364
  122POPC   C1A 1830   2.072   6.377   7.064
  122POPC   D2A 1831   2.013   6.454   6.764
  122POPC   C3A 1832   2.059   6.474   6.464
  122POPC   C4A 1833   2.039   6.452   6.164
  122POPC   C1B 1834   1.879   6.734   7.064
  122POPC   C2B 1835   1.909   6.761   6.764
  122POPC   C3B 1836   1.947   6.743   6.464
  122POPC   C4B 1837   1.891   6.775   6.164
  123POPC   NC3 1838   4.401   8.004   7.964
  123POPC   PO4 1839   4.344   7.922   7.664
  123POPC   GL1 1840   4.375   7.951   7.364
  123POPC   GL2 1841   4.275   8.106   7.364
  123POPC   C1A 1842   4.332   7.987   7.064
  123POPC   D2A 1843   4.359   7.979   6.764
  123POPC   C3A 1844   4.379   7.946   6.464
  123POPC   C4A 1845   4.372   7.991   6.164
  123POPC   C1B 1846   4.192   8.254   7.064
  123POPC   C2B 1847   4.193   8.235   6.764
  123POPC   C3B 1848   4.212   8.254   6.464
  123POPC   C4B 1849   4.184   8.243   6.164
  124POPC   NC3 1850   0.308   0.292   7.964
  124POPC   PO4 1851   0.305   0.320   7.664
  124POPC   GL1 1852   0.347   0.242   7.364
  124POPC   GL2 1853   0.395   0.391   7.364
  124POPC   C1A 1854   0.307   0.302   7.064
  124POPC   D2A 1855   0.345   0.283   6.764
  124POPC   C3A 1856   0.367   0.314   6.464
  124POPC   C4A 1857   0.323   0.244   6.164
  124POPC   C1B 1858   0.549   0.577   7.064
  124POPC   C2B 1859   0.510   0.607   6.764
  124POPC   C3B 1860   0.568   0.613   6.464
  124POPC   C4B 1861   0.561   0.533   6.164
  125POPC   NC3 1862   5.735   1.074   7.964
  125POPC   PO4 1863   5.716   1.043   7.664
  125POPC   GL1 1864   5.673   1.061   7.364
  125POPC   GL2 1865   5.867   1.231   7.364
  125POPC   C1A 1866   5.669   1.103   7.064
  125POPC   D2A 1867   5.700   1.061   6.764
  125POPC   C3A 1868   5.708   1.032   6.464
  125POPC   C4A 1869   5.762   1.050   6.164
  125POPC   C1B 1870   5.950   1.357   7.064
  125POPC   C2B 1871   5.973   1.305   6.764
  125POPC   C3B 1872   5.950   1.331   6.464
  125POPC   C4B 1873   5.955   1.349   6.164
  126POPC   NC3 1874   4.151   0.397   7.964
  126POPC   PO4 1875   4.143   0.415   7.664
  126POPC   GL1 1876   4.123   0.383   7.364
  126POPC   GL2 1877   4.262   0.464   7.364
  126POPC   C1A 1878   4.116   0.408   7.064
  126POPC   D2A 1879   4.053   0.379   6.764
  126POPC   C3A 1880   4.136   0.450   6.464
  126POPC   C4A 1881   4.124   0.431   6.164
  126POPC   C1B 1882   4.483   0.438   7.064
  126POPC   C2B 1883   4.489   0.482   6.764
  126POPC   C3B 1884   4.409   0.408   6.464
  126POPC   C4B 1885   4.423   0.489   6.164
  127POPC   NC3 1886   9.792   4.894   7.964
  127POPC   PO4 1887   9.808   4.877   7.664
  127POPC   GL1 1888   9.750   4.917   7.364
  127POPC   GL2 1889   9.667   5.045   7.364
  127POPC   C1A 1890   9.733   4.879   7.064
  127POPC   D2A 1891   9.768   4.852   6.764
  127POPC   C3A 1892   9.735   4.926   6.464
  127POPC   C4A 1893   9.742   4.914   6.164
  127POPC   C1B 1894   9.578   5.196   7.064
  127POPC   C2B 1895   9.592   5.194   6.764
  127POPC   C3B 1896   9.567   5.218   6.464
  127POPC   C4B 1897   9.523   5.234   6.164
  128POPC   NC3 1898   9.661   9.857   7.964
  128POPC   PO4 1899   9.643   9.797   7.664
  128POPC   GL1 1900   9.632   9.838   7.364
  128POPC   GL2 1901   9.666   9.634   7.364
  128POPC   C1A 1902   9.705   9.873   7.064
  128POPC   D2A 1903   9.693   9.804   6.764
  128POPC   C3A 1904   9.715   9.827   6.464
  128POPC   C4A 1905   9.700   9.843   6.164
  128POPC   C1B 1906   9.663   9.482   7.064
  128POPC   C2B 1907   9.618   9.475   6.764
  128POPC   C3B 1908   9.669   9.461   6.464
  128POPC   C4B 1909   9.633   9.503   6.164
  129POPC   NC3 1910   2.652   8.317   7.964
  129POPC   PO4 1911   2.631   8.262   7.664
  129POPC   GL1 1912   2.667   8.299   7.364
  129POPC   GL2 1913   2.752   8.079   7.364
  129POPC   C1A 1914   2.689   8.327   7.064
  129POPC   D2A 1915   2.665   8.244   6.764
  129POPC   C3A 1916   2.634   8.280   6.464
  129POPC   C4A 1917   2.713   8.312   6.164
  129POPC   C1B 1918   2.811   7.917   7.064
  129POPC   C2B 1919   2.791   7.939   6.764
  129POPC   C3B 1920   2.831   7.987   6.464
  129POPC   C4B 1921   2.829   7.956   6.164
  130POPC   NC3 1922   8.815   9.499   7.964
  130POPC   PO4 1923   8.804   9.531   7.664
  130POPC   GL1 1924   8.734   9.494   7.364
  130POPC   GL2 1925   8.867   9.637   7.364
  130POPC   C1A 1926   8.770   9.503   7.064
  130POPC   D2A 1927   8.826   9.494   6.764
  130POPC   C3A 1928   8.804   9.489   6.464
  130POPC   C4A 1929   8.821   9.535   6.164
  130POPC   C1B 1930   8.999   9.809   7.064
  130POPC   C2B 1931   9.036   9.798   6.764
  130POPC   C3B 1932   8.990   9.784   6.464
  130POPC   C4B 1933   9.056   9.749   6.164
  131POPC   NC3 1934   8.991   2.558   7.964
  131POPC   PO4 1935   9.015   2.598   7.664
  131POPC   GL1 1936   9.035   2.614   7.364
  131POPC   GL2 1937   8.848   2.721   7.364
  131POPC   C1A 1938   8.982   2.573   7.064
  131POPC   D2A 1939   9.043   2.615   6.764
  131POPC   C3A 1940   9.043   2.622   6.464
  131POPC   C4A 1941   9.047   2.602   6.164
  131POPC   C1B 1942   8.740   2.918   7.064
  131POPC   C2B 1943   8.770   2.868   6.764
  131POPC   C3B 1944   8.769   2.889   6.464
  131POPC   C4B 1945   8.782   2.834   6.164
  132POPC   NC3 1946   2.941   8.895   7.964
  132POPC   PO4 1947   2.941   8.891   7.664
  132POPC   GL1 1948   2.953   8.926   7.364
  132POPC   GL2 1949   2.732   8.905   7.364
  132POPC   C1A 1950   2.920   8.890   7.064
  132POPC   D2A 1951   2.911   8.868   6.764
  132POPC   C3A 1952   2.952   8.917   6.464
  132POPC   C4A 1953   2.944   8.919   6.164
  132POPC   C1B 1954   2.607   8.857   7.064
  132POPC   C2B 1955   2.550   8.869   6.764
  132POPC   C3B 1956   2.602   8.894   6.464
  132POPC   C4B 1957   2.568   8.864   6.164
  133POPC   NC3 1958   2.603   0.498   7.964
  133POPC   PO4 1959   2.542   0.493   7.664
  133POPC   GL1 1960   2.562   0.490   7.364
  133POPC   GL2 1961   2.749   0.385   7.364
  133POPC   C1A 1962   2.603   0.497   7.064
  133POPC   D2A 1963   2.579   0.532   6.764
  133POPC   C3A 1964   2.543   0.571   6.464
  133POPC   C4A 1965   2.617   0.474   6.164
  133POPC   C1B 1966   2.915   0.357   7.064
  133POPC   C2B 1967   2.909   0.373   6.764
  133POPC   C3B 1968   2.852   0.317   6.464
  133POPC   C4B 1969   2.862   0.333   6.164
  134POPC   NC3 1970   5.933   2.880   7.964
  134POPC   PO4 1971   5.939   2.894   7.664
  134POPC   GL1 1972   5.945   2.908   7.364
  134POPC   GL2 1973   5.791   2.718   7.364
  134POPC   C1A 1974   5.933   2.919   7.064
  134POPC   D2A 1975   5.921   2.831   6.764
  134POPC   C3A 1976   5.983   2.875   6.464
  134POPC   C4A 1977   5.902   2.922   6.164
  134POPC   C1B 1978   5.656   2.633   7.064
  134POPC   C2B 1979   5.682   2.576   6.764
  134POPC   C3B 1980   5.728   2.603   6.464
  134POPC   C4B 1981   5.714   2.606   6.164
  135POPC   NC3 1982   8.191   5.249   7.964
  135POPC   PO4 1983   8.163   5.228   7.664
  135POPC   GL1 1984   8.166   5.171   7.364
  135POPC   GL2 1985   8.111   5.004   7.364
  135POPC   C1A 1986   8.212   5.172   7.064
  135POPC   D2A 1987   8.165   5.222   6.764
  135POPC   C3A 1988   8.146   5.176   6.464
  135POPC   C4A 1989   8.213   5.208   6.164
  135POPC   C1B 1990   8.123   4.865   7.064
  135POPC   C2B 1991   8.033   4.867   6.764
  135POPC   C3B 1992   8.067   4.873   6.464
  135POPC   C4B 1993   8.113   4.920   6.164
  136POPC   NC3 1994   6.698   7.993   7.964
  136POPC   PO4 1995   6.711   7.945   7.664
  136POPC   GL1 1996   6.698   8.017   7.364
  136POPC   GL2 1997   6.637   8.106   7.364
  136POPC   C1A 1998   6.671   7.973   7.064
  136POPC   D2A 1999   6.661   8.010   6.764
  136POPC   C3A 2000   6.655   7.928   6.464
  136POPC   C4A 2001   6.622   7.973   6.164
  136POPC   C1B 2002   6.485   8.293   7.064
  136POPC   C2B 2003   6.556   8.295   6.764
  136POPC   C3B 2004   6.459   8.261   6.464
  136POPC   C4B 2005   6.540   8.287   6.164
  137POPC   NC3 2006   9.066   0.496   7.964
  137POPC   PO4 2007   9.073   0.473   7.664
  137POPC   GL1 2008   9.072   0.471   7.364
  137POPC   GL2 2009   8.934   0.454   7.364
  137POPC   C1A 2010   9.103   0.464   7.064
  137POPC   D2A 2011   9.063   0.498   6.764
  137POPC   C3A 2012   9.091   0.448   6.464
  137POPC   C4A 2013   9.083   0.438   6.164
  137POPC   C1B 2014   8.694   0.365   7.064
  137POPC   C2B 2015   8.737   0.431   6.764
  137POPC   C3B 2016   8.681   0.378   6.464
  137POPC   C4B 2017   8.740   0.427   6.164
  138POPC   NC3 2018   5.896   7.261   7.964
  138POPC   PO4 2019   5.957   7.280   7.664
  138POPC   GL1 2020   5.902   7.224   7.364
  138POPC   GL2 2021   5.783   7.341   7.364
  138POPC   C1A 2022   5.978   7.209   7.064
  138POPC   D2A 2023   5.957   7.259   6.764
  138POPC   C3A 2024   5.991   7.191   6.464
  138POPC   C4A 2025   5.978   7.235   6.164
  138POPC   C1B 2026   5.713   7.481   7.064
  138POPC   C2B 2027   5.674   7.445   6.764
  138POPC   C3B 2028   5.710   7.495   6.464
  138POPC   C4B 2029   5.722   7.483   6.164
  139POPC   NC3 2030   0.562   3.403   7.964
  139POPC   PO4 2031   0.537   3.417   7.664
  139POPC   GL1 2032   0.560   3.374   7.364
  139POPC   GL2 2033   0.430   3.542   7.364
  139POPC   C1A 2034   0.519   3.403   7.064
  139POPC   D2A 2035   0.553   3.418   6.764
  139POPC   C3A 2036   0.581   3.410   6.464
  139POPC   C4A 2037   0.520   3.417   6.164
  139POPC   C1B 2038   0.346   3.654   7.064
  139POPC   C2B 2039   0.284   3.704   6.764
  139POPC   C3B 2040   0.362   3.637   6.464
  139POPC   C4B 2041   0.316   3.647   6.164
  140POPC   NC3 2042   8.827   7.979   7.964
  140POPC   PO4 2043   8.823   7.923   7.664
  140POPC   GL1 2044   8.858   7.941   7.364
  140POPC   GL2 2045   8.927   8.091   7.364
  140POPC   C1A 2046   8.798   7.970   7.064
  140POPC   D2A 2047   8.876   7.974   6.764
  140POPC   C3A 2048   8.793   7.983   6.464
  140POPC   C4A 2049   8.807   8.000   6.164
  140POPC   C1B 2050   8.990   8.252   7.064
  140POPC   C2B 2051   8.949   8.289   6.764
  140POPC   C3B 2052   8.997   8.311   6.464
  140POPC   C4B 2053   8.988   8.255   6.164
  141POPC   NC3 2054   6.501   3.381   7.964
  141POPC   PO4 2055   6.454   3.351   7.664
  141POPC   GL1 2056   6.484   3.373   7.364
  141POPC   GL2 2057   6.552   3.546   7.364
  141POPC   C1A 2058   6.425   3.407   7.064
  141POPC   D2A 2059   6.425   3.428   6.764
  141POPC   C3A 2060   6.428   3.366   6.464
  141POPC   C4A 2061   6.426   3.404   6.164
  141POPC   C1B 2062   6.726   3.587   7.064
  141POPC   C2B 2063   6.717   3.638   6.764
  141POPC   C3B 2064   6.733   3.644   6.464
  141POPC   C4B 2065   6.742   3.622   6.164
  142POPC   NC3 2066   1.239   3.290   7.964
  142POPC   PO4 2067   1.165   3.365   7.664
  142POPC   GL1 2068   1.242   3.339   7.364
  142POPC   GL2 2069   1.214   3.502   7.364
  142POPC   C1A 2070   1.201   3.312   7.064
  142POPC   D2A 2071   1.177   3.294   6.764
  142POPC   C3A 2072   1.162   3.346   6.464
  142POPC   C4A 2073   1.190   3.311   6.164
  142POPC   C1B 2074   1.179   3.706   7.064
  142POPC   C2B 2075   1.209   3.692   6.764
  142POPC   C3B 2076   1.197   3.673   6.464
  142POPC   C4B 2077   1.163   3.668   6.164
  143POPC   NC3 2078   8.704   1.306   7.964
  143POPC   PO4 2079   8.714   1.260   7.664
  143POPC   GL1 2080   8.769   1.323   7.364
  143POPC   GL2 2081   8.875   1.206   7.364
  143POPC   C1A 2082   8.724   1.328   7.064
  143POPC   D2A 2083   8.720   1.328   6.764
  143POPC   C3A 2084   8.740   1.275   6.464
  143POPC   C4A 2085   8.755   1.266   6.164
  143POPC   C1B 2086   9.003   1.070   7.064
  143POPC   C2B 2087   9.036   1.084   6.764
  143POPC   C3B 2088   9.085   1.080   6.464
  143POPC   C4B 2089   9.085   1.128   6.164
  144POPC   NC3 2090   2.173   3.529   4.064
  144POPC   PO4 2091   2.184   3.524   4.364
  144POPC   GL1 2092   2.141   3.554   4.664
  144POPC   GL2 2093   1.925   3.547   4.664
  144POPC   C1A 2094   2.118   3.502   4.964
  144POPC   D2A 2095   2.142   3.532   5.264
  144POPC   C3A 2096   2.141   3.508   5.564
  144POPC   C4A 2097   2.170   3.494   5.864
  144POPC   C1B 2098   1.824   3.553   4.964
  144POPC   C2B 2099   1.836   3.506   5.264
  144POPC   C3B 2100   1.830   3.514   5.564
  144POPC   C4B 2101   1.830   3.502   5.864
  145POPC   NC3 2102   2.610   1.877   4.064
  145POPC   PO4 2103   2.585   1.831   4.364
  145POPC   GL1 2104   2.607   1.908   4.664
  145POPC   GL2 2105   2.712   1.930   4.664
  145POPC   C1A 2106   2.603   1.906   4.964
  145POPC   D2A 2107   2.625   1.821   5.264
  145POPC   C3A 2108   2.634   1.865   5.564
  145POPC   C4A 2109   2.567   1.848   5.864
  145POPC   C1B 2110   2.933   2.083   4.964
  145POPC   C2B 2111   2.912   2.126   5.264
  145POPC   C3B 2112   2.883   2.052   5.564
  145POPC   C4B 2113   2.880   2.041   5.864
  146POPC   NC3 2114   7.531   6.688   4.064
  146POPC   PO4 2115   7.448   6.692   4.364
  146POPC   GL1 2116   7.447   6.736   4.664
  146POPC   GL2 2117   7.362   6.633   4.664
  146POPC   C1A 2118   7.530   6.684   4.964
  146POPC   D2A 2119   7.499   6.702   5.264
  146POPC   C3A 2120   7.458   6.724   5.564
  146POPC   C4A 2121   7.527   6.735   5.864
  146POPC   C1B 2122   7.229   6.465   4.964
  146POPC   C2B 2123   7.207   6.421   5.264
  146POPC   C3B 2124   7.224   6.475   5.564
  146POPC   C4B 2125   7.213   6.461   5.864
  147POPC   NC3 2126   5.740   9.026   4.064
  147POPC   PO4 2127   5.716   9.010   4.364
  147POPC   GL1 2128   5.714   9.056   4.664
  147POPC   GL2 2129   5.858   8.939   4.664
  147POPC   C1A 2130   5.720   9.047   4.964
  147POPC   D2A 2131   5.700   9.029   5.264
  147POPC   C3A 2132   5.710   9.049   5.564
  147POPC   C4A 2133   5.755   9.037   5.864
  147POPC   C1B 2134   5.894   8.797   4.964
  147POPC   C2B 2135   5.921   8.783   5.264
  147POPC   C3B 2136   5.976   8.719   5.564
  147POPC   C4B 2137   5.966   8.792   5.864
  148POPC   NC3 2138   1.028   5.162   4.064
  148POPC   PO4 2139   1.077   5.152   4.364
  148POPC   GL1 2140   1.065   5.136   4.664
  148POPC   GL2 2141   1.207   5.067   4.664
  148POPC   C1A 2142   1.002   5.107   4.964
  148POPC   D2A 2143   1.092   5.121   5.264
  148POPC   C3A 2144   1.025   5.148   5.564
  148POPC   C4A 2145   1.020   5.095   5.864
  148POPC   C1B 2146   1.341   4.984   4.964
  148POPC   C2B 2147   1.396   4.960   5.264
  148POPC   C3B 2148   1.359   4.970   5.564
  148POPC   C4B 2149   1.355   5.012   5.864
  149POPC   NC3 2150   6.465   8.214   4.064
  149POPC   PO4 2151   6.482   8.299   4.364
  149POPC   GL1 2152   6.447   8.272   4.664
  149POPC   GL2 2153   6.616   8.078   4.664
  149POPC   C1A 2154   6.421   8.216   4.964
  149POPC   D2A 2155   6.507   8.219   5.264
  149POPC   C3A 2156   6.484   8.225   5.564
  149POPC   C4A 2157   6.485   8.246   5.864
  149POPC   C1B 2158   6.763   8.001   4.964
  149POPC   C2B 2159   6.735   8.045   5.264
  149POPC   C3B 2160   6.760   7.975   5.564
  149POPC   C4B 2161   6.710   8.050   5.864
  150POPC   NC3 2162   8.753   2.840   4.064
  150POPC   PO4 2163   8.751   2.895   4.364
  150POPC   GL1 2164   8.782   2.842   4.664
  150POPC   GL2 2165   8.913   2.789   4.664
  150POPC   C1A 2166   8.788   2.921   4.964
  150POPC   D2A 2167   8.794   2.874   5.264
  150POPC   C3A 2168   8.809   2.870   5.564
  150POPC   C4A 2169   8.746   2.865   5.864
  150POPC   C1B 2170   8.996   2.586   4.964
  150POPC   C2B 2171   8.999   2.581   5.264
  150POPC   C3B 2172   8.977   2.597   5.564
  150POPC   C4B 2173   8.975   2.642   5.864
  151POPC   NC3 2174   8.310   1.867   4.064
  151POPC   PO4 2175   8.341   1.942   4.364
  151POPC   GL1 2176   8.250   1.871   4.664
  151POPC   GL2 2177   8.131   2.010   4.664
  151POPC   C1A 2178   8.317   1.879   4.964
  151POPC   D2A 2179   8.324   1.914   5.264
  151POPC   C3A 2180   8.313   1.956   5.564
  151POPC   C4A 2181   8.338   1.874   5.864
  151POPC   C1B 2182   7.995   2.020   4.964
  151POPC   C2B 2183   7.996   1.995   5.264
  151POPC   C3B 2184   7.933   2.052   5.564
  151POPC   C4B 2185   7.912   2.014   5.864
  152POPC   NC3 2186   8.896   4.461   4.064
  152POPC   PO4 2187   8.946   4.464   4.364
  152POPC   GL1 2188   8.895   4.502   4.664
  152POPC   GL2 2189   8.940   4.291   4.664
  152POPC   C1A 2190   8.896   4.472   4.964
  152POPC   D2A 2191   8.908   4.453   5.264
  152POPC   C3A 2192   8.928   4.482   5.564
  152POPC   C4A 2193   8.867   4.487   5.864
  152POPC   C1B 2194   8.944   4.058   4.964
  152POPC   C2B 2195   8.916   4.148   5.264
  152POPC   C3B 2196   8.900   4.096   5.564
  152POPC   C4B 2197   8.895   4.146   5.864
  153POPC   NC3 2198   7.373   7.206   4.064
  153POPC   PO4 2199   7.414   7.165   4.364
  153POPC   GL1 2200   7.387   7.214   4.664
  153POPC   GL2 2201   7.387   7.331   4.664
  153POPC   C1A 2202   7.398   7.208   4.964
  153POPC   D2A 2203   7.421   7.205   5.264
  153POPC   C3A 2204   7.366   7.149   5.564
  153POPC   C4A 2205   7.370   7.201   5.864
  153POPC   C1B 2206   7.281   7.492   4.964
  153POPC   C2B 2207   7.274   7.527   5.264
  153POPC   C3B 2208   7.305   7.483   5.564
  153POPC   C4B 2209   7.298   7.508   5.864
  154POPC   NC3 2210   1.042   3.459   4.064
  154POPC   PO4 2211   1.072   3.515   4.364
  154POPC   GL1 2212   1.050   3.480   4.664
  154POPC   GL2 2213   1.250   3.504   4.664
  154POPC   C1A 2214   1.021   3.530   4.964
  154POPC   D2A 2215   1.010   3.461   5.264
  154POPC   C3A 2216   1.009   3.515   5.564
  154POPC   C4A 2217   1.018   3.470   5.864
  154POPC   C1B 2218   1.369   3.492   4.964
  154POPC   C2B 2219   1.335   3.542   5.264
  154POPC   C3B 2220   1.417   3.528   5.564
  154POPC   C4B 2221   1.410   3.496   5.864
  155POPC   NC3 2222   0.481   4.915   4.064
  155POPC   PO4 2223   0.521   4.875   4.364
  155POPC   GL1 2224   0.520   4.937   4.664
  155POPC   GL2 2225   0.481   5.045   4.664
  155POPC   C1A 2226   0.512   4.881   4.964
  155POPC   D2A 2227   0.494   4.904   5.264
  155POPC   C3A 2228   0.531   4.940   5.564
  155POPC   C4A 2229   0.472   4.912   5.864
  155POPC   C1B 2230   0.381   5.220   4.964
  155POPC   C2B 2231   0.375   5.174   5.264
  155POPC   C3B 2232   0.386   5.240   5.564
  155POPC   C4B 2233   0.339   5.250   5.864
  156POPC   NC3 2234   8.745   8.015   4.064
  156POPC   PO4 2235   8.738   8.010   4.364
  156POPC   GL1 2236   8.749   8.062   4.664
  156POPC   GL2 2237   8.910   8.122   4.664
  156POPC   C1A 2238   8.734   8.098   4.964
  156POPC   D2A 2239   8.753   8.078   5.264
  156POPC   C3A 2240   8.725   8.040   5.564
  156POPC   C4A 2241   8.758   8.078   5.864
  156POPC   C1B 2242   9.077   8.165   4.964
  156POPC   C2B 2243   9.016   8.172   5.264
  156POPC   C3B 2244   9.035   8.201   5.564
  156POPC   C4B 2245   9.035   8.192   5.864
  157POPC   NC3 2246   7.202   2.809   4.064
  157POPC   PO4 2247   7.198   2.722   4.364
  157POPC   GL1 2248   7.173   2.770   4.664
  157POPC   GL2 2249   7.333   2.731   4.664
  157POPC   C1A 2250   7.192   2.749   4.964
  157POPC   D2A 2251   7.156   2.762   5.264
  157POPC   C3A 2252   7.157   2.716   5.564
  157POPC   C4A 2253   7.196   2.730   5.864
  157POPC   C1B 2254   7.521   2.717   4.964
  157POPC   C2B 2255   7.515   2.761   5.264
  157POPC   C3B 2256   7.505   2.692   5.564
  157POPC   C4B 2257   7.503   2.693   5.864
  158POPC   NC3 2258   5.138   0.308   4.064
  158POPC   PO4 2259   5.182   0.250   4.364
  158POPC   GL1 2260   5.117   0.304   4.664
  158POPC   GL2 2261   5.055   0.405   4.664
  158POPC   C1A 2262   5.108   0.245   4.964
  158POPC   D2A 2263   5.156   0.329   5.264
  158POPC   C3A 2264   5.188   0.293   5.564
  158POPC   C4A 2265   5.107   0.271   5.864
  158POPC   C1B 2266   4.923   0.559   4.964
  158POPC   C2B 2267   4.939   0.618   5.264
  158POPC   C3B 2268   4.979   0.594   5.564
  158POPC   C4B 2269   4.925   0.578   5.864
  159POPC   NC3 2270   1.045   6.602   4.064
  159POPC   PO4 2271   1.072   6.583   4.364
  159POPC   GL1 2272   1.036   6.562   4.664
  159POPC   GL2 2273   1.244   6.565   4.664
  159POPC   C1A 2274   0.976   6.567   4.964
  159POPC   D2A 2275   1.064   6.599   5.264
  159POPC   C3A 2276   1.040   6.545   5.564
  159POPC   C4A 2277   1.007   6.611   5.864
  159POPC   C1B 2278   1.384   6.622   4.964
  159POPC   C2B 2279   1.384   6.574   5.264
  159POPC   C3B 2280   1.423   6.606   5.564
  159POPC   C4B 2281   1.413   6.571   5.864
  160POPC   NC3 2282   0.489   5.670   4.064
  160POPC   PO4 2283   0.522   5.698   4.364
  160POPC   GL1 2284   0.521   5.714   4.664
  160POPC   GL2 2285   0.483   5.842   4.664
  160POPC   C1A 2286   0.525   5.625   4.964
  160POPC   D2A 2287   0.482   5.669   5.264
  160POPC   C3A 2288   0.527   5.672   5.564
  160POPC   C4A 2289   0.565   5.677   5.864
  160POPC   C1B 2290   0.313   5.933   4.964
  160POPC   C2B 2291   0.339   5.947   5.264
  160POPC   C3B 2292   0.345   5.990   5.564
  160POPC   C4B 2293   0.312   6.000   5.864
  161POPC   NC3 2294   0.388   7.512   4.064
  161POPC   PO4 2295   0.363   7.546   4.364
  161POPC   GL1 2296   0.334   7.522   4.664
  161POPC   GL2 2297   0.474   7.388   4.664
  161POPC   C1A 2298   0.337   7.479   4.964
  161POPC   D2A 2299   0.304   7.547   5.264
  161POPC   C3A 2300   0.317   7.538   5.564
  161POPC   C4A 2301   0.365   7.500   5.864
  161POPC   C1B 2302   0.503   7.217   4.964
  161POPC   C2B 2303   0.518   7.233   5.264
  161POPC   C3B 2304   0.545   7.247   5.564
  161POPC   C4B 2305   0.547   7.205   5.864
  162POPC   NC3 2306   4.185   3.677   4.064
  162POPC   PO4 2307   4.255   3.657   4.364
  162POPC   GL1 2308   4.228   3.690   4.664
  162POPC   GL2 2309   4.236   3.499   4.664
  162POPC   C1A 2310   4.170   3.634   4.964
  162POPC   D2A 2311   4.189   3.667   5.264
  162POPC   C3A 2312   4.268   3.719   5.564
  162POPC   C4A 2313   4.235   3.682   5.864
  162POPC   C1B 2314   4.367   3.384   4.964
  162POPC   C2B 2315   4.337   3.380   5.264
  162POPC   C3B 2316   4.367   3.337   5.564
  162POPC   C4B 2317   4.350   3.341   5.864
  163POPC   NC3 2318   8.131   7.138   4.064
  163POPC   PO4 2319   8.131   7.139   4.364
  163POPC   GL1 2320   8.153   7.208   4.664
  163POPC   GL2 2321   8.094   7.395   4.664
  163POPC   C1A 2322   8.146   7.220   4.964
  163POPC   D2A 2323   8.159   7.157   5.264
  163POPC   C3A 2324   8.125   7.205   5.564
  163POPC   C4A 2325   8.082   7.227   5.864
  163POPC   C1B 2326   8.124   7.551   4.964
  163POPC   C2B 2327   8.137   7.499   5.264
  163POPC   C3B 2328   8.173   7.571   5.564
  163POPC   C4B 2329   8.125   7.494   5.864
  164POPC   NC3 2330   8.160   7.973   4.064
  164POPC   PO4 2331   8.130   7.913   4.364
  164POPC   GL1 2332   8.169   7.945   4.664
  164POPC   GL2 2333   8.129   8.107   4.664
  164POPC   C1A 2334   8.160   7.914   4.964
  164POPC   D2A 2335   8.159   7.907   5.264
  164POPC   C3A 2336   8.179   7.981   5.564
  164POPC   C4A 2337   8.118   7.985   5.864
  164POPC   C1B 2338   8.147   8.320   4.964
  164POPC   C2B 2339   8.137   8.260   5.264
  164POPC   C3B 2340   8.161   8.354   5.564
  164POPC   C4B 2341   8.128   8.316   5.864
  165POPC   NC3 2342   6.459   0.614   4.064
  165POPC   PO4 2343   6.476   0.627   4.364
  165POPC   GL1 2344   6.473   0.632   4.664
  165POPC   GL2 2345   6.595   0.445   4.664
  165POPC   C1A 2346   6.473   0.543   4.964
  165POPC   D2A 2347   6.469   0.549   5.264
  165POPC   C3A 2348   6.532   0.628   5.564
  165POPC   C4A 2349   6.489   0.613   5.864
  165POPC   C1B 2350   6.668   0.254   4.964
  165POPC   C2B 2351   6.628   0.257   5.264
  165POPC   C3B 2352   6.641   0.295   5.564
  165POPC   C4B 2353   6.697   0.313   5.864
  166POPC   NC3 2354   3.291   8.917   4.064
  166POPC   PO4 2355   3.378   8.869   4.364
  166POPC   GL1 2356   3.285   8.887   4.664
  166POPC   GL2 2357   3.548   8.944   4.664
  166POPC   C1A 2358   3.354   8.890   4.964
  166POPC   D2A 2359   3.332   8.917   5.264
  166POPC   C3A 2360   3.354   8.955   5.564
  166POPC   C4A 2361   3.381   8.954   5.864
  166POPC   C1B 2362   3.713   8.924   4.964
  166POPC   C2B 2363   3.717   8.847   5.264
  166POPC   C3B 2364   3.656   8.885   5.564
  166POPC   C4B 2365   3.705   8.913   5.864
  167POPC   NC3 2366   7.151   9.611   4.064
  167POPC   PO4 2367   7.235   9.640   4.364
  167POPC   GL1 2368   7.191   9.557   4.664
  167POPC   GL2 2369   7.346   9.617   4.664
  167POPC   C1A 2370   7.146   9.576   4.964
  167POPC   D2A 2371   7.195   9.584   5.264
  167POPC   C3A 2372   7.202   9.570   5.564
  167POPC   C4A 2373   7.155   9.618   5.864
  167POPC   C1B 2374   7.532   9.755   4.964
  167POPC   C2B 2375   7.565   9.714   5.264
  167POPC   C3B 2376   7.481   9.708   5.564
  167POPC   C4B 2377   7.527   9.743   5.864
  168POPC   NC3 2378   8.972   7.200   4.064
  168POPC   PO4 2379   8.913   7.174   4.364
  168POPC   GL1 2380   8.937   7.193   4.664
  168POPC   GL2 2381   8.903   7.403   4.664
  168POPC   C1A 2382   8.962   7.208   4.964
  168POPC   D2A 2383   8.946   7.227   5.264
  168POPC   C3A 2384   8.912   7.207   5.564
  168POPC   C4A 2385   8.976   7.138   5.864
  168POPC   C1B 2386   8.876   7.512   4.964
  168POPC   C2B 2387   8.852   7.538   5.264
  168POPC   C3B 2388   8.873   7.539   5.564
  168POPC   C4B 2389   8.870   7.517   5.864
  169POPC   NC3 2390   3.341   7.996   4.064
  169POPC   PO4 2391   3.398   8.049   4.364
  169POPC   GL1 2392   3.379   8.085   4.664
  169POPC   GL2 2393   3.483   8.146   4.664
  169POPC   C1A 2394   3.402   8.057   4.964
  169POPC   D2A 2395   3.385   8.036   5.264
  169POPC   C3A 2396   3.400   8.021   5.564
  169POPC   C4A 2397   3.366   8.063   5.864
  169POPC   C1B 2398   3.696   8.243   4.964
  169POPC   C2B 2399   3.682   8.177   5.264
  169POPC   C3B 2400   3.664   8.181   5.564
  169POPC   C4B 2401   3.717   8.209   5.864
  170POPC   NC3 2402   7.362   1.058   4.064
  170POPC   PO4 2403   7.290   1.064   4.364
  170POPC   GL1 2404   7.293   1.056   4.664
  170POPC   GL2 2405   7.386   1.183   4.664
  170POPC   C1A 2406   7.305   1.045   4.964
  170POPC   D2A 2407   7.305   1.013   5.264
  170POPC   C3A 2408   7.371   0.984   5.564
  170POPC   C4A 2409   7.302   0.996   5.864
  170POPC   C1B 2410   7.406   1.353   4.964
  170POPC   C2B 2411   7.333   1.409   5.264
  170POPC   C3B 2412   7.390   1.428   5.564
  170POPC   C4B 2413   7.427   1.408   5.864
  171POPC   NC3 2414   2.159   5.970   4.064
  171POPC   PO4 2415   2.068   5.951   4.364
  171POPC   GL1 2416   2.162   5.949   4.664
  171POPC   GL2 2417   1.996   5.775   4.664
  171POPC   C1A 2418   2.125   5.941   4.964
  171POPC   D2A 2419   2.135   5.963   5.264
  171POPC   C3A 2420   2.107   5.961   5.564
  171POPC   C4A 2421   2.164   5.923   5.864
  171POPC   C1B 2422   1.875   5.705   4.964
  171POPC   C2B 2423   1.876   5.752   5.264
  171POPC   C3B 2424   1.797   5.753   5.564
  171POPC   C4B 2425   1.862   5.741   5.864
  172POPC   NC3 2426   1.036   4.113   4.064
  172POPC   PO4 2427   1.103   4.169   4.364
  172POPC   GL1 2428   1.037   4.184   4.664
  172POPC   GL2 2429   1.164   4.268   4.664
  172POPC   C1A 2430   1.088   4.172   4.964
  172POPC   D2A 2431   1.070   4.134   5.264
  172POPC   C3A 2432   1.121   4.123   5.564
  172POPC   C4A 2433   1.092   4.207   5.864
  172POPC   C1B 2434   1.324   4.360   4.964
  172POPC   C2B 2435   1.287   4.392   5.264
  172POPC   C3B 2436   1.293   4.367   5.564
  172POPC   C4B 2437   1.349   4.378   5.864
  173POPC   NC3 2438   2.059   6.795   4.064
  173POPC   PO4 2439   2.091   6.700   4.364
  173POPC   GL1 2440   2.084   6.718   4.664
  173POPC   GL2 2441   1.950   6.637   4.664
  173POPC   C1A 2442   2.042   6.710   4.964
  173POPC   D2A 2443   2.077   6.706   5.264
  173POPC   C3A 2444   2.088   6.784   5.564
  173POPC   C4A 2445   2.103   6.721   5.864
  173POPC   C1B 2446   1.911   6.434   4.964
  173POPC   C2B 2447   1.895   6.399   5.264
  173POPC   C3B 2448   1.891   6.465   5.564
  173POPC   C4B 2449   1.856   6.421   5.864
  174POPC   NC3 2450   7.200   4.276   4.064
  174POPC   PO4 2451   7.227   4.277   4.364
  174POPC   GL1 2452   7.186   4.239   4.664
  174POPC   GL2 2453   7.357   4.236   4.664
  174POPC   C1A 2454   7.135   4.234   4.964
  174POPC   D2A 2455   7.185   4.216   5.264
  174POPC   C3A 2456   7.146   4.277   5.564
  174POPC   C4A 2457   7.180   4.212   5.864
  174POPC   C1B 2458   7.567   4.303   4.964
  174POPC   C2B 2459   7.544   4.291   5.264
  174POPC   C3B 2460   7.532   4.369   5.564
  174POPC   C4B 2461   7.496   4.340   5.864
  175POPC   NC3 2462   4.355   7.190   4.064
  175POPC   PO4 2463   4.307   7.185   4.364
  175POPC   GL1 2464   4.337   7.191   4.664
  175POPC   GL2 2465   4.234   7.356   4.664
  175POPC   C1A 2466   4.296   7.193   4.964
  175POPC   D2A 2467   4.334   7.222   5.264
  175POPC   C3A 2468   4.294   7.159   5.564
  175POPC   C4A 2469   4.295   7.169   5.864
  175POPC   C1B 2470   4.197   7.568   4.964
  175POPC   C2B 2471   4.238   7.566   5.264
  175POPC   C3B 2472   4.291   7.500   5.564
  175POPC   C4B 2473   4.244   7.569   5.864
  176POPC   NC3 2474   8.265   5.177   4.064
  176POPC   PO4 2475   8.177   5.235   4.364
  176POPC   GL1 2476   8.234   5.183   4.664
  176POPC   GL2 2477   8.127   5.022   4.664
  176POPC   C1A 2478   8.275   5.216   4.964
  176POPC   D2A 2479   8.224   5.167   5.264
  176POPC   C3A 2480   8.198   5.222   5.564
  176POPC   C4A 2481   8.254   5.229   5.864
  176POPC   C1B 2482   8.012   4.910   4.964
  176POPC   C2B 2483   7.989   4.939   5.264
  176POPC   C3B 2484   8.067   4.924   5.564
  176POPC   C4B 2485   8.061   4.892   5.864
  177POPC   NC3 2486   0.498   4.467   4.064
  177POPC   PO4 2487   0.475   4.445   4.364
  177POPC   GL1 2488   0.468   4.445   4.664
  177POPC   GL2 2489   0.426   4.242   4.664
  177POPC   C1A 2490   0.456   4.481   4.964
  177POPC   D2A 2491   0.473   4.421   5.264
  177POPC   C3A 2492   0.486   4.453   5.564
  177POPC   C4A 2493   0.505   4.477   5.864
  177POPC   C1B 2494   0.418   4.154   4.964
  177POPC   C2B 2495   0.394   4.086   5.264
  177POPC   C3B 2496   0.355   4.127   5.564
  177POPC   C4B 2497   0.422   4.107   5.864
  178POPC   NC3 2498   8.976   9.484   4.064
  178POPC   PO4 2499   9.004   9.491   4.364
  178POPC   GL1 2500   8.954   9.463   4.664
  178POPC   GL2 2501   8.906   9.643   4.664
  178POPC   C1A 2502   8.998   9.536   4.964
  178POPC   D2A 2503   8.988   9.492   5.264
  178POPC   C3A 2504   8.961   9.462   5.564
  178POPC   C4A 2505   9.023   9.556   5.864
  178POPC   C1B 2506   8.809   9.853   4.964
  178POPC   C2B 2507   8.820   9.817   5.264
  178POPC   C3B 2508   8.838   9.861   5.564
  178POPC   C4B 2509   8.859   9.776   5.864
  179POPC   NC3 2510   3.438   7.507   4.064
  179POPC   PO4 2511   3.486   7.534   4.364
  179POPC   GL1 2512   3.413   7.559   4.664
  179POPC   GL2 2513   3.463   7.371   4.664
  179POPC   C1A 2514   3.459   7.567   4.964
  179POPC   D2A 2515   3.397   7.519   5.264
  179POPC   C3A 2516   3.472   7.549   5.564
  179POPC   C4A 2517   3.394   7.477   5.864
  179POPC   C1B 2518   3.546   7.216   4.964
  179POPC   C2B 2519   3.632   7.173   5.264
  179POPC   C3B 2520   3.579   7.188   5.564
  179POPC   C4B 2521   3.628   7.223   5.864
  180POPC   NC3 2522   9.744   2.854   4.064
  180POPC   PO4 2523   9.780   2.906   4.364
  180POPC   GL1 2524   9.750   2.848   4.664
  180POPC   GL2 2525   9.620   2.780   4.664
  180POPC   C1A 2526   9.794   2.886   4.964
  180POPC   D2A 2527   9.806   2.915   5.264
  180POPC   C3A 2528   9.795   2.918   5.564
  180POPC   C4A 2529   9.781   2.871   5.864
  180POPC   C1B 2530   9.540   2.608   4.964
  180POPC   C2B 2531   9.535   2.601   5.264
  180POPC   C3B 2532   9.540   2.618   5.564
  180POPC   C4B 2533   9.511   2.641   5.864
  181POPC   NC3 2534   1.053   1.153   4.064
  181POPC   PO4 2535   1.043   1.101   4.364
  181POPC   GL1 2536   1.067   1.133   4.664
  181POPC   GL2 2537   1.197   1.177   4.664
  181POPC   C1A 2538   1.037   1.082   4.964
  181POPC   D2A 2539   1.099   1.118   5.264
  181POPC   C3A 2540   1.073   1.111   5.564
  181POPC   C4A 2541   1.101   1.129   5.864
  181POPC   C1B 2542   1.318   1.336   4.964
  181POPC   C2B 2543   1.377   1.307   5.264
  181POPC   C3B 2544   1.387   1.343   5.564
  181POPC   C4B 2545   1.377   1.303   5.864
  182POPC   NC3 2546   2.157   1.911   4.064
  182POPC   PO4 2547   2.158   1.841   4.364
  182POPC   GL1 2548   2.146   1.912   4.664
  182POPC   GL2 2549   1.974   2.009   4.664
  182POPC   C1A 2550   2.128   1.888   4.964
  182POPC   D2A 2551   2.147   1.860   5.264
  182POPC   C3A 2552   2.167   1.905   5.564
  182POPC   C4A 2553   2.149   1.912   5.864
  182POPC   C1B 2554   1.845   2.084   4.964
  182POPC   C2B 2555   1.854   2.083   5.264
  182POPC   C3B 2556   1.823   2.072   5.564
  182POPC   C4B 2557   1.810   2.028   5.864
  183POPC   NC3 2558   8.058   1.395   4.064
  183POPC   PO4 2559   8.127   1.427   4.364
  183POPC   GL1 2560   8.088   1.393   4.664
  183POPC   GL2 2561   8.120   1.179   4.664
  183POPC   C1A 2562   8.097   1.416   4.964
  183POPC   D2A 2563   8.126   1.357   5.264
  183POPC   C3A 2564   8.118   1.345   5.564
  183POPC   C4A 2565   8.087   1.391   5.864
  183POPC   C1B 2566   8.149   1.033   4.964
  183POPC   C2B 2567   8.216   1.066   5.264
  183POPC   C3B 2568   8.173   1.031   5.564
  183POPC   C4B 2569   8.191   1.079   5.864
  184POPC   NC3 2570   7.967   8.958   4.064
  184POPC   PO4 2571   7.993   8.983   4.364
  184POPC   GL1 2572   8.013   8.942   4.664
  184POPC   GL2 2573   8.147   8.847   4.664
  184POPC   C1A 2574   7.969   8.941   4.964
  184POPC   D2A 2575   7.926   9.013   5.264
  184POPC   C3A 2576   8.020   8.964   5.564
  184POPC   C4A 2577   7.968   8.945   5.864
  184POPC   C1B 2578   8.237   8.848   4.964
  184POPC   C2B 2579   8.298   8.808   5.264
  184POPC   C3B 2580   8.280   8.855   5.564
  184POPC   C4B 2581   8.279   8.785   5.864
  185POPC   NC3 2582   8.272   9.698   4.064
  185POPC   PO4 2583   8.277   9.673   4.364
  185POPC   GL1 2584   8.304   9.655   4.664
  185POPC   GL2 2585   8.128   9.629   4.664
  185POPC   C1A 2586   8.322   9.652   4.964
  185POPC   D2A 2587   8.349   9.660   5.264
  185POPC   C3A 2588   8.273   9.688   5.564
  185POPC   C4A 2589   8.296   9.617   5.864
  185POPC   C1B 2590   7.909   9.660   4.964
  185POPC   C2B 2591   7.937   9.688   5.264
  185POPC   C3B 2592   7.958   9.675   5.564
  185POPC   C4B 2593   7.992   9.710   5.864
  186POPC   NC3 2594   4.930   1.863   4.064
  186POPC   PO4 2595   4.919   1.832   4.364
  186POPC   GL1 2596   4.930   1.797   4.664
  186POPC   GL2 2597   5.065   1.963   4.664
  186POPC   C1A 2598   4.913   1.784   4.964
  186POPC   D2A 2599   4.942   1.802   5.264
  186POPC   C3A 2600   4.962   1.872   5.564
  186POPC   C4A 2601   4.995   1.806   5.864
  186POPC   C1B 2602   5.135   2.169   4.964
  186POPC   C2B 2603   5.099   2.123   5.264
  186POPC   C3B 2604   5.142   2.154   5.564
  186POPC   C4B 2605   5.189   2.112   5.864
  187POPC   NC3 2606   3.506   2.881   4.064
  187POPC   PO4 2607   3.521   2.916   4.364
  187POPC   GL1 2608   3.455   2.966   4.664
  187POPC   GL2 2609   3.517   2.733   4.664
  187POPC   C1A 2610   3.488   2.868   4.964
  187POPC   D2A 2611   3.455   2.920   5.264
  187POPC   C3A 2612   3.518   2.900   5.564
  187POPC   C4A 2613   3.469   2.872   5.864
  187POPC   C1B 2614   3.563   2.549   4.964
  187POPC   C2B 2615   3.561   2.559   5.264
  187POPC   C3B 2616   3.525   2.600   5.564
  187POPC   C4B 2617   3.581   2.538   5.864
  188POPC   NC3 2618   2.588   8.181   4.064
  188POPC   PO4 2619   2.539   8.140   4.364
  188POPC   GL1 2620   2.578   8.160   4.664
  188POPC   GL2 2621   2.771   8.163   4.664
  188POPC   C1A 2622   2.529   8.185   4.964
  188POPC   D2A 2623   2.541   8.182   5.264
  188POPC   C3A 2624   2.559   8.144   5.564
  188POPC   C4A 2625   2.533   8.153   5.864
  188POPC   C1B 2626   2.883   8.088   4.964
  188POPC   C2B 2627   2.907   8.127   5.264
  188POPC   C3B 2628   2.958   8.087   5.564
  188POPC   C4B 2629   2.882   8.153   5.864
  189POPC   NC3 2630   9.527   5.230   4.064
  189POPC   PO4 2631   9.604   5.176   4.364
  189POPC   GL1 2632   9.597   5.222   4.664
  189POPC   GL2 2633   9.637   5.017   4.664
  189POPC   C1A 2634   9.596   5.201   4.964
  189POPC   D2A 2635   9.540   5.236   5.264
  189POPC   C3A 2636   9.586   5.175   5.564
  189POPC   C4A 2637   9.599   5.210   5.864
  189POPC   C1B 2638   9.772   4.876   4.964
  189POPC   C2B 2639   9.730   4.873   5.264
  189POPC   C3B 2640   9.746   4.869   5.564
  189POPC   C4B 2641   9.746   4.881   5.864
  190POPC   NC3 2642   8.928   1.330   4.064
  190POPC   PO4 2643   8.942   1.421   4.364
  190POPC   GL1 2644   8.984   1.376   4.664
  190POPC   GL2 2645   8.884   1.226   4.664
  190POPC   C1A 2646   8.909   1.361   4.964
  190POPC   D2A 2647   8.961   1.331   5.264
  190POPC   C3A 2648   8.928   1.418   5.564
  190POPC   C4A 2649   8.951   1.337   5.864
  190POPC   C1B 2650   8.816   1.011   4.964
  190POPC   C2B 2651   8.868   1.028   5.264
  190POPC   C3B 2652   8.905   1.048   5.564
  190POPC   C4B 2653   8.881   1.023   5.864
  191POPC   NC3 2654   1.058   2.623   4.064
  191POPC   PO4 2655   1.062   2.547   4.364
  191POPC   GL1 2656   1.077   2.592   4.664
  191POPC   GL2 2657   1.168   2.752   4.664
  191POPC   C1A 2658   1.096   2.640   4.964
  191POPC   D2A 2659   1.088   2.613   5.264
  191POPC   C3A 2660   1.150   2.560   5.564
  191POPC   C4A 2661   1.135   2.596   5.864
  191POPC   C1B 2662   1.293   2.916   4.964
  191POPC   C2B 2663   1.348   2.870   5.264
  191POPC   C3B 2664   1.353   2.895   5.564
  191POPC   C4B 2665   1.269   2.901   5.864
  192POPC   NC3 2666   1.836   9.575   4.064
  192POPC   PO4 2667   1.814   9.563   4.364
  192POPC   GL1 2668   1.829   9.569   4.664
  192POPC   GL2 2669   1.989   9.664   4.664
  192POPC   C1A 2670   1.804   9.589   4.964
  192POPC   D2A 2671   1.850   9.602   5.264
  192POPC   C3A 2672   1.869   9.557   5.564
  192POPC   C4A 2673   1.804   9.581   5.864
  192POPC   C1B 2674   2.133   9.731   4.964
  192POPC   C2B 2675   2.161   9.767   5.264
  192POPC   C3B 2676   2.079   9.818   5.564
  192POPC   C4B 2677   2.160   9.747   5.864
  193POPC   NC3 2678   8.334   6.560   4.064
  193POPC   PO4 2679   8.323   6.593   4.364
  193POPC   GL1 2680   8.285   6.553   4.664
  193POPC   GL2 2681   8.164   6.579   4.664
  193POPC   C1A 2682   8.296   6.554   4.964
  193POPC   D2A 2683   8.286   6.585   5.264
  193POPC   C3A 2684   8.347   6.571   5.564
  193POPC   C4A 2685   8.342   6.540   5.864
  193POPC   C1B 2686   7.942   6.652   4.964
  193POPC   C2B 2687   7.995   6.637   5.264
  193POPC   C3B 2688   7.980   6.586   5.564
  193POPC   C4B 2689   7.945   6.583   5.864
  194POPC   NC3 2690   7.542   5.085   4.064
  194POPC   PO4 2691   7.524   5.055   4.364
  194POPC   GL1 2692   7.547   5.050   4.664
  194POPC   GL2 2693   7.317   5.025   4.664
  194POPC   C1A 2694   7.533   5.024   4.964
  194POPC   D2A 2695   7.554   5.022   5.264
  194POPC   C3A 2696   7.577   5.027   5.564
  194POPC   C4A 2697   7.531   5.038   5.864
  194POPC   C1B 2698   7.183   5.032   4.964
  194POPC   C2B 2699   7.201   5.028   5.264
  194POPC   C3B 2700   7.138   5.014   5.564
  194POPC   C4B 2701   7.220   5.071   5.864
  195POPC   NC3 2702   3.677   1.937   4.064
  195POPC   PO4 2703   3.705   1.947   4.364
  195POPC   GL1 2704   3.635   1.961   4.664
  195POPC   GL2 2705   3.513   1.981   4.664
  195POPC   C1A 2706   3.653   1.969   4.964
  195POPC   D2A 2707   3.669   1.887   5.264
  195POPC   C3A 2708   3.657   1.923   5.564
  195POPC   C4A 2709   3.674   1.900   5.864
  195POPC   C1B 2710   3.386   2.069   4.964
  195POPC   C2B 2711   3.296   2.054   5.264
  195POPC   C3B 2712   3.299   2.071   5.564
  195POPC   C4B 2713   3.389   1.980   5.864
  196POPC   NC3 2714   4.267   1.397   4.064
  196POPC   PO4 2715   4.273   1.365   4.364
  196POPC   GL1 2716   4.267   1.432   4.664
  196POPC   GL2 2717   4.240   1.254   4.664
  196POPC   C1A 2718   4.317   1.339   4.964
  196POPC   D2A 2719   4.282   1.414   5.264
  196POPC   C3A 2720   4.234   1.392   5.564
  196POPC   C4A 2721   4.310   1.373   5.864
  196POPC   C1B 2722   4.290   1.027   4.964
  196POPC   C2B 2723   4.312   1.024   5.264
  196POPC   C3B 2724   4.283   1.061   5.564
  196POPC   C4B 2725   4.243   1.043   5.864
  197POPC   NC3 2726   7.186   8.076   4.064
  197POPC   PO4 2727   7.187   8.071   4.364
  197POPC   GL1 2728   7.171   8.054   4.664
  197POPC   GL2 2729   7.388   8.115   4.664
  197POPC   C1A 2730   7.211   8.019   4.964
  197POPC   D2A 2731   7.216   8.073   5.264
  197POPC   C3A 2732   7.196   8.024   5.564
  197POPC   C4A 2733   7.189   8.082   5.864
  197POPC   C1B 2734   7.480   8.237   4.964
  197POPC   C2B 2735   7.543   8.233   5.264
  197POPC   C3B 2736   7.540   8.182   5.564
  197POPC   C4B 2737   7.553   8.181   5.864
  198POPC   NC3 2738   9.038   3.598   4.064
  198POPC   PO4 2739   9.082   3.621   4.364
  198POPC   GL1 2740   9.051   3.600   4.664
  198POPC   GL2 2741   8.869   3.538   4.664
  198POPC   C1A 2742   9.005   3.641   4.964
  198POPC   D2A 2743   9.081   3.578   5.264
  198POPC   C3A 2744   9.021   3.623   5.564
  198POPC   C4A 2745   9.005   3.654   5.864
  198POPC   C1B 2746   8.766   3.382   4.964
  198POPC   C2B 2747   8.796   3.389   5.264
  198POPC   C3B 2748   8.731   3.403   5.564
  198POPC   C4B 2749   8.728   3.425   5.864
  199POPC   NC3 2750   2.146   9.026   4.064
  199POPC   PO4 2751   2.125   9.033   4.364
  199POPC   GL1 2752   2.128   9.022   4.664
  199POPC   GL2 2753   1.995   8.886   4.664
  199POPC   C1A 2754   2.110   9.018   4.964
  199POPC   D2A 2755   2.155   9.006   5.264
  199POPC   C3A 2756   2.086   9.011   5.564
  199POPC   C4A 2757   2.083   9.034   5.864
  199POPC   C1B 2758   1.861   8.834   4.964
  199POPC   C2B 2759   1.813   8.761   5.264
  199POPC   C3B 2760   1.858   8.798   5.564
  199POPC   C4B 2761   1.812   8.790   5.864
  200POPC   NC3 2762   7.978   0.568   4.064
  200POPC   PO4 2763   7.977   0.522   4.364
  200POPC   GL1 2764   8.037   0.567   4.664
  200POPC   GL2 2765   8.167   0.445   4.664
  200POPC   C1A 2766   7.973   0.542   4.964
  200POPC   D2A 2767   7.953   0.563   5.264
  200POPC   C3A 2768   8.026   0.568   5.564
  200POPC   C4A 2769   7.979   0.501   5.864
  200POPC   C1B 2770   8.235   0.359   4.964
  200POPC   C2B 2771   8.276   0.348   5.264
  200POPC   C3B 2772   8.232   0.332   5.564
  200POPC   C4B 2773   8.236   0.298   5.864
  201POPC   NC3 2774   8.756   8.982   4.064
  201POPC   PO4 2775   8.777   8.995   4.364
  201POPC   GL1 2776   8.747   8.966   4.664
  201POPC   GL2 2777   8.915   8.924   4.664
  201POPC   C1A 2778   8.698   9.003   4.964
  201POPC   D2A 2779   8.775   8.990   5.264
  201POPC   C3A 2780   8.790   8.967   5.564
  201POPC   C4A 2781   8.774   8.996   5.864
  201POPC   C1B 2782   9.057   8.835   4.964
  201POPC   C2B 2783   9.028   8.793   5.264
  201POPC   C3B 2784   9.018   8.799   5.564
  201POPC   C4B 2785   9.022   8.794   5.864
  202POPC   NC3 2786   7.433   3.381   4.064
  202POPC   PO4 2787   7.393   3.397   4.364
  202POPC   GL1 2788   7.387   3.312   4.664
  202POPC   GL2 2789   7.341   3.555   4.664
  202POPC   C1A 2790   7.473   3.313   4.964
  202POPC   D2A 2791   7.393   3.315   5.264
  202POPC   C3A 2792   7.468   3.374   5.564
  202POPC   C4A 2793   7.404   3.355   5.864
  202POPC   C1B 2794   7.297   3.703   4.964
  202POPC   C2B 2795   7.264   3.693   5.264
  202POPC   C3B 2796   7.291   3.636   5.564
  202POPC   C4B 2797   7.316   3.662   5.864
  203POPC   NC3 2798   5.875   0.277   4.064
  203POPC   PO4 2799   5.861   0.265   4.364
  203POPC   GL1 2800   5.911   0.324   4.664
  203POPC   GL2 2801   5.839   0.428   4.664
  203POPC   C1A 2802   5.862   0.327   4.964
  203POPC   D2A 2803   5.911   0.256   5.264
  203POPC   C3A 2804   5.938   0.237   5.564
  203POPC   C4A 2805   5.887   0.251   5.864
  203POPC   C1B 2806   5.704   0.545   4.964
  203POPC   C2B 2807   5.728   0.599   5.264
  203POPC   C3B 2808   5.775   0.608   5.564
  203POPC   C4B 2809   5.736   0.600   5.864
  204POPC   NC3 2810   4.113   8.017   4.064
  204POPC   PO4 2811   4.133   8.085   4.364
  204POPC   GL1 2812   4.099   8.027   4.664
  204POPC   GL2 2813   4.259   8.124   4.664
  204POPC   C1A 2814   4.167   8.013   4.964
  204POPC   D2A 2815   4.135   8.073   5.264
  204POPC   C3A 2816   4.112   8.089   5.564
  204POPC   C4A 2817   4.115   8.046   5.864
  204POPC   C1B 2818   4.388   8.207   4.964
  204POPC   C2B 2819   4.438   8.250   5.264
  204POPC   C3B 2820   4.472   8.205   5.564
  204POPC   C4B 2821   4.412   8.186   5.864
  205POPC   NC3 2822   5.943   8.160   4.064
  205POPC   PO4 2823   5.995   8.178   4.364
  205POPC   GL1 2824   6.021   8.201   4.664
  205POPC   GL2 2825   5.796   8.161   4.664
  205POPC   C1A 2826   5.949   8.187   4.964
  205POPC   D2A 2827   5.935   8.214   5.264
  205POPC   C3A 2828   6.001   8.157   5.564
  205POPC   C4A 2829   6.013   8.178   5.864
  205POPC   C1B 2830   5.695   8.014   4.964
  205POPC   C2B 2831   5.679   8.007   5.264
  205POPC   C3B 2832   5.614   8.032   5.564
  205POPC   C4B 2833   5.695   8.079   5.864
  206POPC   NC3 2834   9.780   9.066   4.064
  206POPC   PO4 2835   9.782   9.017   4.364
  206POPC   GL1 2836   9.832   9.049   4.664
  206POPC   GL2 2837   9.677   8.870   4.664
  206POPC   C1A 2838   9.759   9.013   4.964
  206POPC   D2A 2839   9.796   9.031   5.264
  206POPC   C3A 2840   9.830   9.068   5.564
  206POPC   C4A 2841   9.764   9.028   5.864
  206POPC   C1B 2842   9.509   8.779   4.964
  206POPC   C2B 2843   9.511   8.749   5.264
  206POPC   C3B 2844   9.590   8.770   5.564
  206POPC   C4B 2845   9.589   8.813   5.864
  207POPC   NC3 2846   2.616   1.192   4.064
  207POPC   PO4 2847   2.576   1.157   4.364
  207POPC   GL1 2848   2.541   1.139   4.664
  207POPC   GL2 2849   2.776   1.216   4.664
  207POPC   C1A 2850   2.542   1.184   4.964
  207POPC   D2A 2851   2.573   1.149   5.264
  207POPC   C3A 2852   2.586   1.121   5.564
  207POPC   C4A 2853   2.568   1.143   5.864
  207POPC   C1B 2854   2.891   1.241   4.964
  207POPC   C2B 2855   2.930   1.196   5.264
  207POPC   C3B 2856   2.895   1.261   5.564
  207POPC   C4B 2857   2.894   1.264   5.864
  208POPC   NC3 2858   6.655   8.772   4.064
  208POPC   PO4 2859   6.675   8.747   4.364
  208POPC   GL1 2860   6.682   8.702   4.664
  208POPC   GL2 2861   6.625   8.928   4.664
  208POPC   C1A 2862   6.673   8.731   4.964
  208POPC   D2A 2863   6.700   8.711   5.264
  208POPC   C3A 2864   6.718   8.718   5.564
  208POPC   C4A 2865   6.702   8.781   5.864
  208POPC   C1B 2866   6.509   9.105   4.964
  208POPC   C2B 2867   6.539   9.029   5.264
  208POPC   C3B 2868   6.545   9.052   5.564
  208POPC   C4B 2869   6.502   9.070   5.864
  209POPC   NC3 2870   2.556   5.777   4.064
  209POPC   PO4 2871   2.579   5.812   4.364
  209POPC   GL1 2872   2.541   5.808   4.664
  209POPC   GL2 2873   2.726   5.796   4.664
  209POPC   C1A 2874   2.542   5.766   4.964
  209POPC   D2A 2875   2.609   5.840   5.264
  209POPC   C3A 2876   2.538   5.777   5.564
  209POPC   C4A 2877   2.542   5.830   5.864
  209POPC   C1B 2878   2.966   5.862   4.964
  209POPC   C2B 2879   2.906   5.827   5.264
  209POPC   C3B 2880   2.889   5.830   5.564
  209POPC   C4B 2881   2.928   5.822   5.864
  210POPC   NC3 2882   1.257   7.170   4.064
  210POPC   PO4 2883   1.278   7.172   4.364
  210POPC   GL1 2884   1.258   7.198   4.664
  210POPC   GL2 2885   1.181   7.308   4.664
  210POPC   C1A 2886   1.270   7.174   4.964
  210POPC   D2A 2887   1.202   7.138   5.264
  210POPC   C3A 2888   1.191   7.219   5.564
  210POPC   C4A 2889   1.215   7.197   5.864
  210POPC   C1B 2890   1.132   7.572   4.964
  210POPC   C2B 2891   1.173   7.493   5.264
  210POPC   C3B 2892   1.156   7.492   5.564
  210POPC   C4B 2893   1.175   7.489   5.864
  211POPC   NC3 2894   1.799   7.253   4.064
  211POPC   PO4 2895   1.805   7.242   4.364
  211POPC   GL1 2896   1.841   7.225   4.664
  211POPC   GL2 2897   1.926   7.311   4.664
  211POPC   C1A 2898   1.812   7.208   4.964
  211POPC   D2A 2899   1.841   7.261   5.264
  211POPC   C3A 2900   1.833   7.212   5.564
  211POPC   C4A 2901   1.837   7.219   5.864
  211POPC   C1B 2902   2.124   7.517   4.964
  211POPC   C2B 2903   2.084   7.508   5.264
  211POPC   C3B 2904   2.084   7.525   5.564
  211POPC   C4B 2905   2.150   7.491   5.864
  212POPC   NC3 2906   9.659   2.100   4.064
  212POPC   PO4 2907   9.587   2.170   4.364
  212POPC   GL1 2908   9.603   2.183   4.664
  212POPC   GL2 2909   9.698   1.957   4.664
  212POPC   C1A 2910   9.631   2.147   4.964
  212POPC   D2A 2911   9.653   2.136   5.264
  212POPC   C3A 2912   9.584   2.179   5.564
  212POPC   C4A 2913   9.604   2.127   5.864
  212POPC   C1B 2914   9.716   1.795   4.964
  212POPC   C2B 2915   9.687   1.811   5.264
  212POPC   C3B 2916   9.674   1.791   5.564
  212POPC   C4B 2917   9.712   1.752   5.864
  213POPC   NC3 2918   2.055   5.252   4.064
  213POPC   PO4 2919   2.025   5.183   4.364
  213POPC   GL1 2920   2.019   5.238   4.664
  213POPC   GL2 2921   1.967   5.056   4.664
  213POPC   C1A 2922   2.027   5.236   4.964
  213POPC   D2A 2923   1.998   5.214   5.264
  213POPC   C3A 2924   2.040   5.219   5.564
  213POPC   C4A 2925   2.071   5.181   5.864
  213POPC   C1B 2926   1.890   4.924   4.964
  213POPC   C2B 2927   1.903   4.913   5.264
  213POPC   C3B 2928   1.894   4.868   5.564
  213POPC   C4B 2929   1.881   4.875   5.864
  214POPC   NC3 2930   1.095   7.950   4.064
  214POPC   PO4 2931   1.161   7.921   4.364
  214POPC   GL1 2932   1.127   7.922   4.664
  214POPC   GL2 2933   1.239   8.149   4.664
  214POPC   C1A 2934   1.124   8.014   4.964
  214POPC   D2A 2935   1.091   8.018   5.264
  214POPC   C3A 2936   1.074   7.955   5.564
  214POPC   C4A 2937   1.168   7.991   5.864
  214POPC   C1B 2938   1.263   8.312   4.964
  214POPC   C2B 2939   1.244   8.272   5.264
  214POPC   C3B 2940   1.256   8.301   5.564
  214POPC   C4B 2941   1.279   8.308   5.864
  215POPC   NC3 2942   4.845   8.843   4.064
  215POPC   PO4 2943   4.848   8.868   4.364
  215POPC   GL1 2944   4.904   8.788   4.664
  215POPC   GL2 2945   5.031   8.866   4.664
  215POPC   C1A 2946   4.872   8.872   4.964
  215POPC   D2A 2947   4.871   8.846   5.264
  215POPC   C3A 2948   4.842   8.827   5.564
  215POPC   C4A 2949   4.922   8.864   5.864
  215POPC   C1B 2950   5.250   8.966   4.964
  215POPC   C2B 2951   5.204   8.959   5.264
  215POPC   C3B 2952   5.209   8.947   5.564
  215POPC   C4B 2953   5.171   8.938   5.864
  216POPC   NC3 2954   2.873   6.715   4.064
  216POPC   PO4 2955   2.915   6.667   4.364
  216POPC   GL1 2956   2.938   6.657   4.664
  216POPC   GL2 2957   2.737   6.549   4.664
  216POPC   C1A 2958   2.885   6.652   4.964
  216POPC   D2A 2959   2.886   6.667   5.264
  216POPC   C3A 2960   2.916   6.705   5.564
  216POPC   C4A 2961   2.914   6.656   5.864
  216POPC   C1B 2962   2.551   6.552   4.964
  216POPC   C2B 2963   2.533   6.524   5.264
  216POPC   C3B 2964   2.577   6.513   5.564
  216POPC   C4B 2965   2.603   6.490   5.864
  217POPC   NC3 2966   2.936   4.267   4.064
  217POPC   PO4 2967   2.885   4.239   4.364
  217POPC   GL1 2968   2.894   4.245   4.664
  217POPC   GL2 2969   2.711   4.330   4.664
  217POPC   C1A 2970   2.920   4.223   4.964
  217POPC   D2A 2971   2.899   4.232   5.264
  217POPC   C3A 2972   2.946   4.207   5.564
  217POPC   C4A 2973   2.924   4.210   5.864
  217POPC   C1B 2974   2.532   4.313   4.964
  217POPC   C2B 2975   2.553   4.265   5.264
  217POPC   C3B 2976   2.570   4.337   5.564
  217POPC   C4B 2977   2.548   4.354   5.864
  218POPC   NC3 2978   2.820   7.568   4.064
  218POPC   PO4 2979   2.745   7.495   4.364
  218POPC   GL1 2980   2.761   7.520   4.664
  218POPC   GL2 2981   2.737   7.336   4.664
  218POPC   C1A 2982   2.812   7.564   4.964
  218POPC   D2A 2983   2.806   7.550   5.264
  218POPC   C3A 2984   2.822   7.576   5.564
  218POPC   C4A 2985   2.828   7.503   5.864
  218POPC   C1B 2986   2.659   7.225   4.964
  218POPC   C2B 2987   2.680   7.224   5.264
  218POPC   C3B 2988   2.738   7.140   5.564
  218POPC   C4B 2989   2.703   7.155   5.864
  219POPC   NC3 2990   2.143   4.171   4.064
  219POPC   PO4 2991   2.096   4.118   4.364
  219POPC   GL1 2992   2.104   4.188   4.664
  219POPC   GL2 2993   1.970   4.276   4.664
  219POPC   C1A 2994   2.115   4.174   4.964
  219POPC   D2A 2995   2.108   4.156   5.264
  219POPC   C3A 2996   2.145   4.176   5.564
  219POPC   C4A 2997   2.116   4.105   5.864
  219POPC   C1B 2998   1.878   4.413   4.964
  219POPC   C2B 2999   1.811   4.367   5.264
  219POPC   C3B 3000   1.881   4.430   5.564
  219POPC   C4B 3001   1.860   4.450   5.864
  220POPC   NC3 3002   5.850   9.801   4.064
  220POPC   PO4 3003   5.875   9.857   4.364
  220POPC   GL1 3004   5.847   9.876   4.664
  220POPC   GL2 3005   5.861   9.644   4.664
  220POPC   C1A 3006   5.827   9.840   4.964
  220POPC   D2A 3007   5.805   9.876   5.264
  220POPC   C3A 3008   5.791   9.807   5.564
  220POPC   C4A 3009   5.870   9.813   5.864
  220POPC   C1B 3010   5.808   9.457   4.964
  220POPC   C2B 3011   5.855   9.485   5.264
  220POPC   C3B 3012   5.773   9.440   5.564
  220POPC   C4B 3013   5.771   9.477   5.864
  221POPC   NC3 3014   9.787   4.408   4.064
  221POPC   PO4 3015   9.783   4.393   4.364
  221POPC   GL1 3016   9.750   4.410   4.664
  221POPC   GL2 3017   9.674   4.331   4.664
  221POPC   C1A 3018   9.836   4.447   4.964
  221POPC   D2A 3019   9.796   4.368   5.264
  221POPC   C3A 3020   9.818   4.361   5.564
  221POPC   C4A 3021   9.778   4.435   5.864
  221POPC   C1B 3022   9.484   4.125   4.964
  221POPC   C2B 3023   9.523   4.142   5.264
  221POPC   C3B 3024   9.535   4.200   5.564
  221POPC   C4B 3025   9.513   4.163   5.864
  222POPC   NC3 3026   9.493   3.598   4.064
  222POPC   PO4 3027   9.541   3.561   4.364
  222POPC   GL1 3028   9.457   3.520   4.664
  222POPC   GL2 3029   9.713   3.495   4.664
  222POPC   C1A 3030   9.472   3.542   4.964
  222POPC   D2A 3031   9.522   3.573   5.264
  222POPC   C3A 3032   9.514   3.541   5.564
  222POPC   C4A 3033   9.495   3.596   5.864
  222POPC   C1B 3034   9.820   3.451   4.964
  222POPC   C2B 3035   9.799   3.481   5.264
  222POPC   C3B 3036   9.877   3.429   5.564
  222POPC   C4B 3037   9.789   3.431   5.864
  223POPC   NC3 3038   1.152   0.236   4.064
  223POPC   PO4 3039   1.150   0.296   4.364
  223POPC   GL1 3040   1.130   0.209   4.664
  223POPC   GL2 3041   1.241   0.422   4.664
  223POPC   C1A 3042   1.151   0.226   4.964
  223POPC   D2A 3043   1.166   0.243   5.264
  223POPC   C3A 3044   1.220   0.243   5.564
  223POPC   C4A 3045   1.127   0.269   5.864
  223POPC   C1B 3046   1.193   0.629   4.964
  223POPC   C2B 3047   1.206   0.623   5.264
  223POPC   C3B 3048   1.260   0.649   5.564
  223POPC   C4B 3049   1.197   0.644   5.864
  224POPC   NC3 3050   8.214   3.345   4.064
  224POPC   PO4 3051   8.272   3.368   4.364
  224POPC   GL1 3052   8.223   3.320   4.664
  224POPC   GL2 3053   8.170   3.491   4.664
  224POPC   C1A 3054   8.189   3.315   4.964
  224POPC   D2A 3055   8.230   3.404   5.264
  224POPC   C3A 3056   8.208   3.337   5.564
  224POPC   C4A 3057   8.180   3.391   5.864
  224POPC   C1B 3058   8.030   3.658   4.964
  224POPC   C2B 3059   7.980   3.643   5.264
  224POPC   C3B 3060   7.983   3.662   5.564
  224POPC   C4B 3061   8.030   3.646   5.864
  225POPC   NC3 3062   6.462   9.495   4.064
  225POPC   PO4 3063   6.462   9.509   4.364
  225POPC   GL1 3064   6.450   9.537   4.664
  225POPC   GL2 3065   6.545   9.618   4.664
  225POPC   C1A 3066   6.409   9.550   4.964
  225POPC   D2A 3067   6.465   9.569   5.264
  225POPC   C3A 3068   6.483   9.583   5.564
  225POPC   C4A 3069   6.427   9.578   5.864
  225POPC   C1B 3070   6.750   9.752   4.964
  225POPC   C2B 3071   6.744   9.775   5.264
  225POPC   C3B 3072   6.768   9.813   5.564
  225POPC   C4B 3073   6.693   9.809   5.864
  226POPC   NC3 3074   9.712   5.676   4.064
  226POPC   PO4 3075   9.621   5.681   4.364
  226POPC   GL1 3076   9.682   5.667   4.664
  226POPC   GL2 3077   9.636   5.783   4.664
  226POPC   C1A 3078   9.656   5.607   4.964
  226POPC   D2A 3079   9.678   5.653   5.264
  226POPC   C3A 3080   9.635   5.664   5.564
  226POPC   C4A 3081   9.658   5.663   5.864
  226POPC   C1B 3082   9.624   6.035   4.964
  226POPC   C2B 3083   9.705   5.966   5.264
  226POPC   C3B 3084   9.650   6.040   5.564
  226POPC   C4B 3085   9.644   5.997   5.864
  227POPC   NC3 3086   8.917   6.013   4.064
  227POPC   PO4 3087   8.971   6.004   4.364
  227POPC   GL1 3088   8.984   5.967   4.664
  227POPC   GL2 3089   8.893   5.862   4.664
  227POPC   C1A 3090   8.898   5.994   4.964
  227POPC   D2A 3091   8.976   6.016   5.264
  227POPC   C3A 3092   8.933   5.989   5.564
  227POPC   C4A 3093   8.970   6.005   5.864
  227POPC   C1B 3094   8.866   5.667   4.964
  227POPC   C2B 3095   8.901   5.619   5.264
  227POPC   C3B 3096   8.839   5.692   5.564
  227POPC   C4B 3097   8.876   5.610   5.864
  228POPC   NC3 3098   8.316   2.706   4.064
  228POPC   PO4 3099   8.335   2.700   4.364
  228POPC   GL1 3100   8.299   2.683   4.664
  228POPC   GL2 3101   8.112   2.737   4.664
  228POPC   C1A 3102   8.334   2.674   4.964
  228POPC   D2A 3103   8.290   2.712   5.264
  228POPC   C3A 3104   8.264   2.709   5.564
  228POPC   C4A 3105   8.328   2.648   5.864
  228POPC   C1B 3106   7.970   2.747   4.964
  228POPC   C2B 3107   7.941   2.815   5.264
  228POPC   C3B 3108   7.907   2.842   5.564
  228POPC   C4B 3109   7.986   2.761   5.864
  229POPC   NC3 3110   5.897   2.891   4.064
  229POPC   PO4 3111   5.828   2.959   4.364
  229POPC   GL1 3112   5.870   2.869   4.664
  229POPC   GL2 3113   5.853   2.733   4.664
  229POPC   C1A 3114   5.819   2.949   4.964
  229POPC   D2A 3115   5.861   2.901   5.264
  229POPC   C3A 3116   5.917   2.906   5.564
  229POPC   C4A 3117   5.885   2.918   5.864
  229POPC   C1B 3118   5.788   2.521   4.964
  229POPC   C2B 3119   5.779   2.558   5.264
  229POPC   C3B 3120   5.744   2.569   5.564
  229POPC   C4B 3121   5.773   2.569   5.864
  230POPC   NC3 3122   1.063   5.950   4.064
  230POPC   PO4 3123   1.095   5.886   4.364
  230POPC   GL1 3124   1.081   5.955   4.664
  230POPC   GL2 3125   1.201   5.864   4.664
  230POPC   C1A 3126   1.086   5.902   4.964
  230POPC   D2A 3127   1.046   5.919   5.264
  230POPC   C3A 3128   1.070   5.969   5.564
  230POPC   C4A 3129   1.048   5.916   5.864
  230POPC   C1B 3130   1.310   5.686   4.964
  230POPC   C2B 3131   1.309   5.695   5.264
  230POPC   C3B 3132   1.300   5.689   5.564
  230POPC   C4B 3133   1.322   5.699   5.864
  231POPC   NC3 3134   5.148   8.263   4.064
  231POPC   PO4 3135   5.230   8.232   4.364
  231POPC   GL1 3136   5.171   8.202   4.664
  231POPC   GL2 3137   5.058   8.160   4.664
  231POPC   C1A 3138   5.230   8.283   4.964
  231POPC   D2A 3139   5.148   8.221   5.264
  231POPC   C3A 3140   5.174   8.276   5.564
  231POPC   C4A 3141   5.218   8.256   5.864
  231POPC   C1B 3142   4.953   7.977   4.964
  231POPC   C2B 3143   4.865   7.966   5.264
  231POPC   C3B 3144   4.911   8.001   5.564
  231POPC   C4B 3145   4.922   8.001   5.864
  232POPC   NC3 3146   7.251   2.031   4.064
  232POPC   PO4 3147   7.162   2.090   4.364
  232POPC   GL1 3148   7.197   2.051   4.664
  232POPC   GL2 3149   7.365   1.925   4.664
  232POPC   C1A 3150   7.199   2.055   4.964
  232POPC   D2A 3151   7.252   2.091   5.264
  232POPC   C3A 3152   7.215   2.045   5.564
  232POPC   C4A 3153   7.172   2.107   5.864
  232POPC   C1B 3154   7.505   1.896   4.964
  232POPC   C2B 3155   7.533   1.912   5.264
  232POPC   C3B 3156   7.549   1.871   5.564
  232POPC   C4B 3157   7.489   1.859   5.864
  233POPC   NC3 3158   0.613   1.118   4.064
  233POPC   PO4 3159   0.594   1.133   4.364
  233POPC   GL1 3160   0.546   1.052   4.664
  233POPC   GL2 3161   0.452   1.229   4.664
  233POPC   C1A 3162   0.533   1.061   4.964
  233POPC   D2A 3163   0.627   1.127   5.264
  233POPC   C3A 3164   0.546   1.134   5.564
  233POPC   C4A 3165   0.589   1.094   5.864
  233POPC   C1B 3166   0.245   1.309   4.964
  233POPC   C2B 3167   0.295   1.351   5.264
  233POPC   C3B 3168   0.248   1.272   5.564
  233POPC   C4B 3169   0.330   1.326   5.864
  234POPC   NC3 3170   2.602   3.678   4.064
  234POPC   PO4 3171   2.591   3.665   4.364
  234POPC   GL1 3172   2.602   3.623   4.664
  234POPC   GL2 3173   2.758   3.517   4.664
  234POPC   C1A 3174   2.596   3.613   4.964
  234POPC   D2A 3175   2.592   3.662   5.264
  234POPC   C3A 3176   2.617   3.645   5.564
  234POPC   C4A 3177   2.619   3.612   5.864
  234POPC   C1B 3178   2.849   3.440   4.964
  234POPC   C2B 3179   2.875   3.348   5.264
  234POPC   C3B 3180   2.915   3.438   5.564
  234POPC   C4B 3181   2.846   3.407   5.864
  235POPC   NC3 3182   0.406   2.874   4.064
  235POPC   PO4 3183   0.438   2.874   4.364
  235POPC   GL1 3184   0.406   2.889   4.664
  235POPC   GL2 3185   0.405   2.718   4.664
  235POPC   C1A 3186   0.439   2.926   4.964
  235POPC   D2A 3187   0.363   2.885   5.264
  235POPC   C3A 3188   0.409   2.948   5.564
  235POPC   C4A 3189   0.351   2.937   5.864
  235POPC   C1B 3190   0.438   2.614   4.964
  235POPC   C2B 3191   0.495   2.574   5.264
  235POPC   C3B 3192   0.462   2.597   5.564
  235POPC   C4B 3193   0.428   2.539   5.864
  236POPC   NC3 3194   1.765   1.144   4.064
  236POPC   PO4 3195   1.793   1.107   4.364
  236POPC   GL1 3196   1.799   1.118   4.664
  236POPC   GL2 3197   1.993   1.163   4.664
  236POPC   C1A 3198   1.837   1.170   4.964
  236POPC   D2A 3199   1.805   1.092   5.264
  236POPC   C3A 3200   1.807   1.096   5.564
  236POPC   C4A 3201   1.814   1.082   5.864
  236POPC   C1B 3202   2.168   1.268   4.964
  236POPC   C2B 3203   2.110   1.284   5.264
  236POPC   C3B 3204   2.135   1.314   5.564
  236POPC   C4B 3205   2.120   1.278   5.864
  237POPC   NC3 3206   2.765   9.484   4.064
  237POPC   PO4 3207   2.731   9.497   4.364
  237POPC   GL1 3208   2.757   9.457   4.664
  237POPC   GL2 3209   2.767   9.707   4.664
  237POPC   C1A 3210   2.762   9.511   4.964
  237POPC   D2A 3211   2.727   9.468   5.264
  237POPC   C3A 3212   2.715   9.522   5.564
  237POPC   C4A 3213   2.778   9.506   5.864
  237POPC   C1B 3214   2.747   9.866   4.964
  237POPC   C2B 3215   2.757   9.795   5.264
  237POPC   C3B 3216   2.692   9.836   5.564
  237POPC   C4B 3217   2.674   9.865   5.864
  238POPC   NC3 3218   8.029   4.477   4.064
  238POPC   PO4 3219   8.013   4.482   4.364
  238POPC   GL1 3220   8.057   4.444   4.664
  238POPC   GL2 3221   8.168   4.263   4.664
  238POPC   C1A 3222   8.076   4.454   4.964
  238POPC   D2A 3223   8.098   4.482   5.264
  238POPC   C3A 3224   8.101   4.456   5.564
  238POPC   C4A 3225   8.076   4.479   5.864
  238POPC   C1B 3226   8.148   4.148   4.964
  238POPC   C2B 3227   8.195   4.148   5.264
  238POPC   C3B 3228   8.165   4.150   5.564
  238POPC   C4B 3229   8.197   4.068   5.864
  239POPC   NC3 3230   9.633   6.417   4.064
  239POPC   PO4 3231   9.641   6.404   4.364
  239POPC   GL1 3232   9.598   6.396   4.664
  239POPC   GL2 3233   9.667   6.549   4.664
  239POPC   C1A 3234   9.600   6.468   4.964
  239POPC   D2A 3235   9.559   6.459   5.264
  239POPC   C3A 3236   9.574   6.442   5.564
  239POPC   C4A 3237   9.555   6.394   5.864
  239POPC   C1B 3238   9.733   6.796   4.964
  239POPC   C2B 3239   9.768   6.721   5.264
  239POPC   C3B 3240   9.741   6.792   5.564
  239POPC   C4B 3241   9.722   6.746   5.864
  240POPC   NC3 3242   5.824   1.015   4.064
  240POPC   PO4 3243   5.884   1.070   4.364
  240POPC   GL1 3244   5.828   1.037   4.664
  240POPC   GL2 3245   5.823   1.170   4.664
  240POPC   C1A 3246   5.854   1.076   4.964
  240POPC   D2A 3247   5.904   1.059   5.264
  240POPC   C3A 3248   5.825   1.027   5.564
  240POPC   C4A 3249   5.839   1.052   5.864
  240POPC   C1B 3250   5.734   1.343   4.964
  240POPC   C2B 3251   5.829   1.418   5.264
  240POPC   C3B 3252   5.740   1.362   5.564
  240POPC   C4B 3253   5.740   1.361   5.864
  241POPC   NC3 3254   1.921   0.264   4.064
  241POPC   PO4 3255   1.879   0.244   4.364
  241POPC   GL1 3256   1.914   0.295   4.664
  241POPC   GL2 3257   1.955   0.393   4.664
  241POPC   C1A 3258   1.877   0.254   4.964
  241POPC   D2A 3259   1.925   0.242   5.264
  241POPC   C3A 3260   1.892   0.311   5.564
  241POPC   C4A 3261   1.904   0.225   5.864
  241POPC   C1B 3262   1.984   0.609   4.964
  241POPC   C2B 3263   2.024   0.588   5.264
  241POPC   C3B 3264   2.082   0.557   5.564
  241POPC   C4B 3265   2.033   0.625   5.864
  242POPC   NC3 3266   6.439   3.555   4.064
  242POPC   PO4 3267   6.398   3.512   4.364
  242POPC   GL1 3268   6.399   3.554   4.664
  242POPC   GL2 3269   6.560   3.522   4.664
  242POPC   C1A 3270   6.437   3.501   4.964
  242POPC   D2A 3271   6.396   3.517   5.264
  242POPC   C3A 3272   6.418   3.473   5.564
  242POPC   C4A 3273   6.440   3.536   5.864
  242POPC   C1B 3274   6.739   3.500   4.964
  242POPC   C2B 3275   6.741   3.529   5.264
  242POPC   C3B 3276   6.777   3.495   5.564
  242POPC   C4B 3277   6.772   3.458   5.864
  243POPC   NC3 3278   3.338   0.417   4.064
  243POPC   PO4 3279   3.315   0.439   4.364
  243POPC   GL1 3280   3.342   0.427   4.664
  243POPC   GL2 3281   3.526   0.438   4.664
  243POPC   C1A 3282   3.339   0.477   4.964
  243POPC   D2A 3283   3.330   0.431   5.264
  243POPC   C3A 3284   3.370   0.446   5.564
  243POPC   C4A 3285   3.326   0.434   5.864
  243POPC   C1B 3286   3.681   0.376   4.964
  243POPC   C2B 3287   3.664   0.424   5.264
  243POPC   C3B 3288   3.664   0.436   5.564
  243POPC   C4B 3289   3.663   0.411   5.864
  244POPC   NC3 3290   8.903   2.162   4.064
  244POPC   PO4 3291   8.835   2.118   4.364
  244POPC   GL1 3292   8.887   2.189   4.664
  244POPC   GL2 3293   8.870   1.972   4.664
  244POPC   C1A 3294   8.863   2.114   4.964
  244POPC   D2A 3295   8.872   2.107   5.264
  244POPC   C3A 3296   8.857   2.163   5.564
  244POPC   C4A 3297   8.881   2.178   5.864
  244POPC   C1B 3298   8.953   1.824   4.964
  244POPC   C2B 3299   8.950   1.757   5.264
  244POPC   C3B 3300   8.936   1.825   5.564
  244POPC   C4B 3301   8.910   1.758   5.864
  245POPC   NC3 3302   0.605   9.662   4.064
  245POPC   PO4 3303   0.601   9.657   4.364
  245POPC   GL1 3304   0.639   9.593   4.664
  245POPC   GL2 3305   0.414   9.653   4.664
  245POPC   C1A 3306   0.577   9.638   4.964
  245POPC   D2A 3307   0.601   9.616   5.264
  245POPC   C3A 3308   0.643   9.564   5.564
  245POPC   C4A 3309   0.625   9.642   5.864
  245POPC   C1B 3310   0.312   9.684   4.964
  245POPC   C2B 3311   0.295   9.752   5.264
  245POPC   C3B 3312   0.281   9.718   5.564
  245POPC   C4B 3313   0.292   9.750   5.864
  246POPC   NC3 3314   7.194   8.938   4.064
  246POPC   PO4 3315   7.245   9.025   4.364
  246POPC   GL1 3316   7.189   8.990   4.664
  246POPC   GL2 3317   7.391   8.945   4.664
  246POPC   C1A 3318   7.188   8.969   4.964
  246POPC   D2A 3319   7.222   8.985   5.264
  246POPC   C3A 3320   7.238   9.013   5.564
  246POPC   C4A 3321   7.212   8.940   5.864
  246POPC   C1B 3322   7.483   8.831   4.964
  246POPC   C2B 3323   7.479   8.861   5.264
  246POPC   C3B 3324   7.564   8.857   5.564
  246POPC   C4B 3325   7.484   8.847   5.864
  247POPC   NC3 3326   5.754   7.486   4.064
  247POPC   PO4 3327   5.810   7.490   4.364
  247POPC   GL1 3328   5.750   7.565   4.664
  247POPC   GL2 3329   5.856   7.363   4.664
  247POPC   C1A 3330   5.779   7.484   4.964
  247POPC   D2A 3331   5.817   7.514   5.264
  247POPC   C3A 3332   5.778   7.549   5.564
  247POPC   C4A 3333   5.831   7.545   5.864
  247POPC   C1B 3334   5.848   7.181   4.964
  247POPC   C2B 3335   5.835   7.200   5.264
  247POPC   C3B 3336   5.890   7.164   5.564
  247POPC   C4B 3337   5.891   7.169   5.864
  248POPC   NC3 3338   2.813   0.588   4.064
  248POPC   PO4 3339   2.801   0.541   4.364
  248POPC   GL1 3340   2.836   0.562   4.664
  248POPC   GL2 3341   2.788   0.483   4.664
  248POPC   C1A 3342   2.882   0.604   4.964
  248POPC   D2A 3343   2.858   0.548   5.264
  248POPC   C3A 3344   2.846   0.606   5.564
  248POPC   C4A 3345   2.855   0.610   5.864
  248POPC   C1B 3346   2.677   0.271   4.964
  248POPC   C2B 3347   2.587   0.300   5.264
  248POPC   C3B 3348   2.652   0.340   5.564
  248POPC   C4B 3349   2.586   0.320   5.864
  249POPC   NC3 3350   8.809   6.450   4.064
  249POPC   PO4 3351   8.736   6.478   4.364
  249POPC   GL1 3352   8.721   6.452   4.664
  249POPC   GL2 3353   8.868   6.578   4.664
  249POPC   C1A 3354   8.772   6.497   4.964
  249POPC   D2A 3355   8.722   6.484   5.264
  249POPC   C3A 3356   8.752   6.481   5.564
  249POPC   C4A 3357   8.730   6.452   5.864
  249POPC   C1B 3358   9.017   6.679   4.964
  249POPC   C2B 3359   9.012   6.727   5.264
  249POPC   C3B 3360   9.049   6.674   5.564
  249POPC   C4B 3361   9.045   6.708   5.864
  250POPC   NC3 3362   5.202   9.760   4.064
  250POPC   PO4 3363   5.251   9.692   4.364
  250POPC   GL1 3364   5.223   9.693   4.664
  250POPC   GL2 3365   5.024   9.702   4.664
  250POPC   C1A 3366   5.227   9.739   4.964
  250POPC   D2A 3367   5.242   9.677   5.264
  250POPC   C3A 3368   5.196   9.756   5.564
  250POPC   C4A 3369   5.246   9.704   5.864
  250POPC   C1B 3370   4.884   9.593   4.964
  250POPC   C2B 3371   4.924   9.601   5.264
  250POPC   C3B 3372   4.908   9.652   5.564
  250POPC   C4B 3373   4.928   9.647   5.864
  251POPC   NC3 3374   6.786   1.921   4.064
  251POPC   PO4 3375   6.735   2.008   4.364
  251POPC   GL1 3376   6.809   1.968   4.664
  251POPC   GL2 3377   6.611   1.946   4.664
  251POPC   C1A 3378   6.789   1.923   4.964
  251POPC   D2A 3379   6.718   1.957   5.264
  251POPC   C3A 3380   6.814   1.941   5.564
  251POPC   C4A 3381   6.792   1.939   5.864
  251POPC   C1B 3382   6.381   1.997   4.964
  251POPC   C2B 3383   6.376   1.999   5.264
  251POPC   C3B 3384   6.392   1.997   5.564
  251POPC   C4B 3385   6.406   1.945   5.864
  252POPC   NC3 3386   1.262   1.821   4.064
  252POPC   PO4 3387   1.239   1.794   4.364
  252POPC   GL1 3388   1.257   1.773   4.664
  252POPC   GL2 3389   1.189   1.952   4.664
  252POPC   C1A 3390   1.268   1.777   4.964
  252POPC   D2A 3391   1.208   1.756   5.264
  252POPC   C3A 3392   1.265   1.771   5.564
  252POPC   C4A 3393   1.272   1.791   5.864
  252POPC   C1B 3394   1.156   2.151   4.964
  252POPC   C2B 3395   1.123   2.111   5.264
  252POPC   C3B 3396   1.130   2.137   5.564
  252POPC   C4B 3397   1.119   2.156   5.864
  253POPC   NC3 3398   0.558   3.400   4.064
  253POPC   PO4 3399   0.556   3.318   4.364
  253POPC   GL1 3400   0.575   3.360   4.664
  253POPC   GL2 3401   0.438   3.506   4.664
  253POPC   C1A 3402   0.500   3.317   4.964
  253POPC   D2A 3403   0.487   3.382   5.264
  253POPC   C3A 3404   0.547   3.337   5.564
  253POPC   C4A 3405   0.528   3.337   5.864
  253POPC   C1B 3406   0.358   3.702   4.964
  253POPC   C2B 3407   0.286   3.687   5.264
  253POPC   C3B 3408   0.321   3.633   5.564
  253POPC   C4B 3409   0.300   3.611   5.864
  254POPC   NC3 3410   4.324   9.484   4.064
  254POPC   PO4 3411   4.297   9.461   4.364
  254POPC   GL1 3412   4.234   9.441   4.664
  254POPC   GL2 3413   4.304   9.624   4.664
  254POPC   C1A 3414   4.235   9.513   4.964
  254POPC   D2A 3415   4.264   9.525   5.264
  254POPC   C3A 3416   4.309   9.514   5.564
  254POPC   C4A 3417   4.255   9.450   5.864
  254POPC   C1B 3418   4.318   9.874   4.964
  254POPC   C2B 3419   4.252   9.872   5.264
  254POPC   C3B 3420   4.275   9.808   5.564
  254POPC   C4B 3421   4.297   9.797   5.864
  255POPC   NC3 3422   2.549   8.903   4.064
  255POPC   PO4 3423   2.540   8.891   4.364
  255POPC   GL1 3424   2.590   8.861   4.664
  255POPC   GL2 3425   2.700   8.880   4.664
  255POPC   C1A 3426   2.527   8.883   4.964
  255POPC   D2A 3427   2.564   8.828   5.264
  255POPC   C3A 3428   2.542   8.903   5.564
  255POPC   C4A 3429   2.593   8.886   5.864
  255POPC   C1B 3430   2.871   8.927   4.964
  255POPC   C2B 3431   2.874   8.973   5.264
  255POPC   C3B 3432   2.915   8.886   5.564
  255POPC   C4B 3433   2.941   8.893   5.864
  256POPC   NC3 3434   0.551   9.027   4.064
  256POPC   PO4 3435   0.505   9.010   4.364
  256POPC   GL1 3436   0.538   9.087   4.664
  256POPC   GL2 3437   0.482   8.864   4.664
  256POPC   C1A 3438   0.548   9.066   4.964
  256POPC   D2A 3439   0.584   9.081   5.264
  256POPC   C3A 3440   0.554   9.027   5.564
  256POPC   C4A 3441   0.580   9.018   5.864
  256POPC   C1B 3442   0.328   8.720   4.964
  256POPC   C2B 3443   0.341   8.759   5.264
  256POPC   C3B 3444   0.277   8.780   5.564
  256POPC   C4B 3445   0.281   8.764   5.864
  257POPC   NC3 3446   6.664   1.070   4.064
  257POPC   PO4 3447   6.685   1.091   4.364
  257POPC   GL1 3448   6.685   1.044   4.664
  257POPC   GL2 3449   6.567   1.206   4.664
  257POPC   C1A 3450   6.667   1.017   4.964
  257POPC   D2A 3451   6.723   1.030   5.264
  257POPC   C3A 3452   6.733   1.070   5.564
  257POPC   C4A 3453   6.672   1.098   5.864
  257POPC   C1B 3454   6.447   1.374   4.964
  257POPC   C2B 3455   6.469   1.310   5.264
  257POPC   C3B 3456   6.535   1.370   5.564
  257POPC   C4B 3457   6.451   1.328   5.864
  258POPC   NC3 3458   5.098   1.057   4.064
  258POPC   PO4 3459   5.068   1.075   4.364
  258POPC   GL1 3460   5.108   1.021   4.664
  258POPC   GL2 3461   5.020   1.169   4.664
  258POPC   C1A 3462   5.106   1.061   4.964
  258POPC   D2A 3463   5.116   1.048   5.264
  258POPC   C3A 3464   5.078   1.015   5.564
  258POPC   C4A 3465   5.101   0.986   5.864
  258POPC   C1B 3466   5.070   1.339   4.964
  258POPC   C2B 3467   4.995   1.358   5.264
  258POPC   C3B 3468   5.060   1.421   5.564
  258POPC   C4B 3469   5.059   1.397   5.864
  259POPC   NC3 3470   6.720   7.283   4.064
  259POPC   PO4 3471   6.791   7.296   4.364
  259POPC   GL1 3472   6.781   7.323   4.664
  259POPC   GL2 3473   6.596   7.391   4.664
  259POPC   C1A 3474   6.769   7.256   4.964
  259POPC   D2A 3475   6.796   7.320   5.264
  259POPC   C3A 3476   6.705   7.273   5.564
  259POPC   C4A 3477   6.777   7.279   5.864
  259POPC   C1B 3478   6.414   7.434   4.964
  259POPC   C2B 3479   6.425   7.416   5.264
  259POPC   C3B 3480   6.441   7.455   5.564
  259POPC   C4B 3481   6.417   7.434   5.864
  260POPC   NC3 3482   5.996   1.909   4.064
  260POPC   PO4 3483   5.970   1.998   4.364
  260POPC   GL1 3484   6.042   1.926   4.664
  260POPC   GL2 3485   5.860   2.022   4.664
  260POPC   C1A 3486   5.954   1.980   4.964
  260POPC   D2A 3487   5.976   1.919   5.264
  260POPC   C3A 3488   5.965   1.922   5.564
  260POPC   C4A 3489   6.019   1.934   5.864
  260POPC   C1B 3490   5.651   1.967   4.964
  260POPC   C2B 3491   5.611   2.028   5.264
  260POPC   C3B 3492   5.691   1.978   5.564
  260POPC   C4B 3493   5.635   1.994   5.864
  261POPC   NC3 3494   0.420   7.988   4.064
  261POPC   PO4 3495   0.386   7.993   4.364
  261POPC   GL1 3496   0.446   7.947   4.664
  261POPC   GL2 3497   0.454   8.124   4.664
  261POPC   C1A 3498   0.425   7.998   4.964
  261POPC   D2A 3499   0.359   7.995   5.264
  261POPC   C3A 3500   0.375   7.907   5.564
  261POPC   C4A 3501   0.358   7.901   5.864
  261POPC   C1B 3502   0.456   8.255   4.964
  261POPC   C2B 3503   0.474   8.286   5.264
  261POPC   C3B 3504   0.417   8.337   5.564
  261POPC   C4B 3505   0.414   8.297   5.864
  262POPC   NC3 3506   9.574   8.017   4.064
  262POPC   PO4 3507   9.600   7.977   4.364
  262POPC   GL1 3508   9.511   7.999   4.664
  262POPC   GL2 3509   9.702   8.108   4.664
  262POPC   C1A 3510   9.537   8.032   4.964
  262POPC   D2A 3511   9.526   7.973   5.264
  262POPC   C3A 3512   9.578   8.001   5.564
  262POPC   C4A 3513   9.583   8.031   5.864
  262POPC   C1B 3514   9.784   8.315   4.964
  262POPC   C2B 3515   9.760   8.299   5.264
  262POPC   C3B 3516   9.729   8.269   5.564
  262POPC   C4B 3517   9.739   8.307   5.864
  263POPC   NC3 3518   9.723   0.299   4.064
  263POPC   PO4 3519   9.795   0.317   4.364
  263POPC   GL1 3520   9.753   0.322   4.664
  263POPC   GL2 3521   9.659   0.445   4.664
  263POPC   C1A 3522   9.799   0.268   4.964
  263POPC   D2A 3523   9.752   0.257   5.264
  263POPC   C3A 3524   9.750   0.269   5.564
  263POPC   C4A 3525   9.798   0.268   5.864
  263POPC   C1B 3526   9.578   0.618   4.964
  263POPC   C2B 3527   9.547   0.587   5.264
  263POPC   C3B 3528   9.582   0.577   5.564
  263POPC   C4B 3529   9.603   0.586   5.864
  264POPC   NC3 3530   4.488   8.949   4.064
  264POPC   PO4 3531   4.486   8.907   4.364
  264POPC   GL1 3532   4.446   8.954   4.664
  264POPC   GL2 3533   4.324   8.941   4.664
  264POPC   C1A 3534   4.449   8.904   4.964
  264POPC   D2A 3535   4.404   8.929   5.264
  264POPC   C3A 3536   4.435   8.896   5.564
  264POPC   C4A 3537   4.493   8.951   5.864
  264POPC   C1B 3538   4.095   8.840   4.964
  264POPC   C2B 3539   4.156   8.809   5.264
  264POPC   C3B 3540   4.081   8.833   5.564
  264POPC   C4B 3541   4.149   8.845   5.864
  265POPC   NC3 3542   8.008   5.692   4.064
  265POPC   PO4 3543   7.956   5.719   4.364
  265POPC   GL1 3544   8.007   5.757   4.664
  265POPC   GL2 3545   8.164   5.864   4.664
  265POPC   C1A 3546   8.011   5.694   4.964
  265POPC   D2A 3547   7.967   5.702   5.264
  265POPC   C3A 3548   7.969   5.777   5.564
  265POPC   C4A 3549   7.945   5.758   5.864
  265POPC   C1B 3550   8.244   5.925   4.964
  265POPC   C2B 3551   8.312   5.939   5.264
  265POPC   C3B 3552   8.278   5.895   5.564
  265POPC   C4B 3553   8.278   5.852   5.864
  266POPC   NC3 3554   9.012   0.390   4.064
  266POPC   PO4 3555   9.040   0.374   4.364
  266POPC   GL1 3556   9.030   0.411   4.664
  266POPC   GL2 3557   8.907   0.389   4.664
  266POPC   C1A 3558   9.038   0.393   4.964
  266POPC   D2A 3559   9.088   0.409   5.264
  266POPC   C3A 3560   9.094   0.401   5.564
  266POPC   C4A 3561   9.067   0.395   5.864
  266POPC   C1B 3562   8.693   0.533   4.964
  266POPC   C2B 3563   8.762   0.535   5.264
  266POPC   C3B 3564   8.754   0.473   5.564
  266POPC   C4B 3565   8.684   0.545   5.864
  267POPC   NC3 3566   6.406   2.691   4.064
  267POPC   PO4 3567   6.445   2.689   4.364
  267POPC   GL1 3568   6.423   2.683   4.664
  267POPC   GL2 3569   6.544   2.754   4.664
  267POPC   C1A 3570   6.446   2.710   4.964
  267POPC   D2A 3571   6.455   2.702   5.264
  267POPC   C3A 3572   6.411   2.715   5.564
  267POPC   C4A 3573   6.450   2.685   5.864
  267POPC   C1B 3574   6.772   2.787   4.964
  267POPC   C2B 3575   6.757   2.826   5.264
  267POPC   C3B 3576   6.736   2.833   5.564
  267POPC   C4B 3577   6.737   2.770   5.864
  268POPC   NC3 3578   1.246   9.019   4.064
  268POPC   PO4 3579   1.293   9.101   4.364
  268POPC   GL1 3580   1.239   9.040   4.664
  268POPC   GL2 3581   1.252   8.855   4.664
  268POPC   C1A 3582   1.297   9.010   4.964
  268POPC   D2A 3583   1.239   9.079   5.264
  268POPC   C3A 3584   1.255   9.048   5.564
  268POPC   C4A 3585   1.309   9.093   5.864
  268POPC   C1B 3586   1.082   8.735   4.964
  268POPC   C2B 3587   1.115   8.778   5.264
  268POPC   C3B 3588   1.143   8.786   5.564
  268POPC   C4B 3589   1.105   8.737   5.864
  269POPC   NC3 3590   2.083   2.641   4.064
  269POPC   PO4 3591   2.142   2.653   4.364
  269POPC   GL1 3592   2.064   2.616   4.664
  269POPC   GL2 3593   1.935   2.754   4.664
  269POPC   C1A 3594   2.082   2.644   4.964
  269POPC   D2A 3595   2.125   2.636   5.264
  269POPC   C3A 3596   2.096   2.628   5.564
  269POPC   C4A 3597   2.093   2.588   5.864
  269POPC   C1B 3598   1.834   2.882   4.964
  269POPC   C2B 3599   1.817   2.895   5.264
  269POPC   C3B 3600   1.825   2.859   5.564
  269POPC   C4B 3601   1.837   2.818   5.864
  270POPC   NC3 3602   0.656   6.571   4.064
  270POPC   PO4 3603   0.614   6.515   4.364
  270POPC   GL1 3604   0.572   6.528   4.664
  270POPC   GL2 3605   0.466   6.615   4.664
  270POPC   C1A 3606   0.629   6.526   4.964
  270POPC   D2A 3607   0.633   6.567   5.264
  270POPC   C3A 3608   0.604   6.569   5.564
  270POPC   C4A 3609   0.627   6.564   5.864
  270POPC   C1B 3610   0.267   6.658   4.964
  270POPC   C2B 3611   0.232   6.575   5.264
  270POPC   C3B 3612   0.307   6.663   5.564
  270POPC   C4B 3613   0.292   6.625   5.864
  271POPC   NC3 3614   9.461   7.263   4.064
  271POPC   PO4 3615   9.498   7.239   4.364
  271POPC   GL1 3616   9.503   7.284   4.664
  271POPC   GL2 3617   9.622   7.361   4.664
  271POPC   C1A 3618   9.527   7.244   4.964
  271POPC   D2A 3619   9.476   7.280   5.264
  271POPC   C3A 3620   9.508   7.226   5.564
  271POPC   C4A 3621   9.497   7.311   5.864
  271POPC   C1B 3622   9.833   7.485   4.964
  271POPC   C2B 3623   9.844   7.408   5.264
  271POPC   C3B 3624   9.806   7.451   5.564
  271POPC   C4B 3625   9.807   7.403   5.864
  272POPC   NC3 3626   7.189   0.518   4.064
  272POPC   PO4 3627   7.245   0.604   4.364
  272POPC   GL1 3628   7.229   0.616   4.664
  272POPC   GL2 3629   7.345   0.427   4.664
  272POPC   C1A 3630   7.216   0.606   4.964
  272POPC   D2A 3631   7.213   0.580   5.264
  272POPC   C3A 3632   7.288   0.562   5.564
  272POPC   C4A 3633   7.209   0.525   5.864
  272POPC   C1B 3634   7.483   0.337   4.964
  272POPC   C2B 3635   7.508   0.294   5.264
  272POPC   C3B 3636   7.476   0.273   5.564
  272POPC   C4B 3637   7.520   0.306   5.864
  273POPC   NC3 3638   9.783   9.759   4.064
  273POPC   PO4 3639   9.821   9.819   4.364
  273POPC   GL1 3640   9.772   9.834   4.664
  273POPC   GL2 3641   9.658   9.709   4.664
  273POPC   C1A 3642   9.788   9.770   4.964
  273POPC   D2A 3643   9.795   9.847   5.264
  273POPC   C3A 3644   9.735   9.775   5.564
  273POPC   C4A 3645   9.824   9.815   5.864
  273POPC   C1B 3646   9.520   9.548   4.964
  273POPC   C2B 3647   9.596   9.520   5.264
  273POPC   C3B 3648   9.588   9.566   5.564
  273POPC   C4B 3649   9.562   9.509   5.864
  274POPC   NC3 3650   0.513   2.095   4.064
  274POPC   PO4 3651   0.583   2.090   4.364
  274POPC   GL1 3652   0.583   2.103   4.664
  274POPC   GL2 3653   0.450   1.947   4.664
  274POPC   C1A 3654   0.574   2.116   4.964
  274POPC   D2A 3655   0.520   2.128   5.264
  274POPC   C3A 3656   0.528   2.133   5.564
  274POPC   C4A 3657   0.500   2.131   5.864
  274POPC   C1B 3658   0.288   1.813   4.964
  274POPC   C2B 3659   0.312   1.819   5.264
  274POPC   C3B 3660   0.361   1.828   5.564
  274POPC   C4B 3661   0.360   1.848   5.864
  275POPC   NC3 3662   9.465   1.140   4.064
  275POPC   PO4 3663   9.469   1.114   4.364
  275POPC   GL1 3664   9.505   1.111   4.664
  275POPC   GL2 3665   9.652   1.251   4.664
  275POPC   C1A 3666   9.447   1.195   4.964
  275POPC   D2A 3667   9.486   1.169   5.264
  275POPC   C3A 3668   9.484   1.158   5.564
  275POPC   C4A 3669   9.507   1.115   5.864
  275POPC   C1B 3670   9.821   1.265   4.964
  275POPC   C2B 3671   9.867   1.272   5.264
  275POPC   C3B 3672   9.835   1.287   5.564
  275POPC   C4B 3673   9.863   1.292   5.864
  276POPC   NC3 3674   3.558   1.362   4.064
  276POPC   PO4 3675   3.519   1.407   4.364
  276POPC   GL1 3676   3.523   1.414   4.664
  276POPC   GL2 3677   3.500   1.241   4.664
  276POPC   C1A 3678   3.551   1.402   4.964
  276POPC   D2A 3679   3.492   1.414   5.264
  276POPC   C3A 3680   3.524   1.361   5.564
  276POPC   C4A 3681   3.542   1.432   5.864
  276POPC   C1B 3682   3.560   0.979   4.964
  276POPC   C2B 3683   3.555   1.027   5.264
  276POPC   C3B 3684   3.475   1.007   5.564
  276POPC   C4B 3685   3.480   0.980   5.864
  277POPC   NC3 3686   2.710   2.913   4.064
  277POPC   PO4 3687   2.802   2.949   4.364
  277POPC   GL1 3688   2.784   2.956   4.664
  277POPC   GL2 3689   2.783   2.716   4.664
  277POPC   C1A 3690   2.719   2.897   4.964
  277POPC   D2A 3691   2.724   2.910   5.264
  277POPC   C3A 3692   2.711   2.965   5.564
  277POPC   C4A 3693   2.714   2.934   5.864
  277POPC   C1B 3694   2.721   2.546   4.964
  277POPC   C2B 3695   2.705   2.596   5.264
  277POPC   C3B 3696   2.752   2.591   5.564
  277POPC   C4B 3697   2.738   2.570   5.864
  278POPC   NC3 3698   0.460   0.644   4.064
  278POPC   PO4 3699   0.422   0.645   4.364
  278POPC   GL1 3700   0.497   0.604   4.664
  278POPC   GL2 3701   0.406   0.463   4.664
  278POPC   C1A 3702   0.465   0.655   4.964
  278POPC   D2A 3703   0.461   0.602   5.264
  278POPC   C3A 3704   0.428   0.599   5.564
  278POPC   C4A 3705   0.504   0.568   5.864
  278POPC   C1B 3706   0.432   0.256   4.964
  278POPC   C2B 3707   0.437   0.295   5.264
  278POPC   C3B 3708   0.427   0.296   5.564
  278POPC   C4B 3709   0.396   0.250   5.864
  279POPC   NC3 3710   4.316   2.552   4.064
  279POPC   PO4 3711   4.271   2.587   4.364
  279POPC   GL1 3712   4.283   2.535   4.664
  279POPC   GL2 3713   4.274   2.713   4.664
  279POPC   C1A 3714   4.315   2.561   4.964
  279POPC   D2A 3715   4.293   2.545   5.264
  279POPC   C3A 3716   4.332   2.546   5.564
  279POPC   C4A 3717   4.294   2.553   5.864
  279POPC   C1B 3718   4.222   2.914   4.964
  279POPC   C2B 3719   4.282   2.932   5.264
  279POPC   C3B 3720   4.208   2.890   5.564
  279POPC   C4B 3721   4.267   2.891   5.864
  280POPC   NC3 3722   4.335   1.819   4.064
  280POPC   PO4 3723   4.392   1.763   4.364
  280POPC   GL1 3724   4.340   1.796   4.664
  280POPC   GL2 3725   4.331   1.996   4.664
  280POPC   C1A 3726   4.337   1.823   4.964
  280POPC   D2A 3727   4.325   1.839   5.264
  280POPC   C3A 3728   4.370   1.773   5.564
  280POPC   C4A 3729   4.358   1.768   5.864
  280POPC   C1B 3730   4.171   2.118   4.964
  280POPC   C2B 3731   4.238   2.171   5.264
  280POPC   C3B 3732   4.196   2.129   5.564
  280POPC   C4B 3733   4.197   2.121   5.864
  281POPC   NC3 3734   3.620   9.759   4.064
  281POPC   PO4 3735   3.637   9.799   4.364
  281POPC   GL1 3736   3.665   9.763   4.664
  281POPC   GL2 3737   3.549   9.658   4.664
  281POPC   C1A 3738   3.688   9.771   4.964
  281POPC   D2A 3739   3.671   9.763   5.264
  281POPC   C3A 3740   3.621   9.808   5.564
  281POPC   C4A 3741   3.666   9.819   5.864
  281POPC   C1B 3742   3.333   9.541   4.964
  281POPC   C2B 3743   3.411   9.557   5.264
  281POPC   C3B 3744   3.418   9.534   5.564
  281POPC   C4B 3745   3.363   9.588   5.864
  282POPC   NC3 3746   9.022   5.181   4.064
  282POPC   PO4 3747   9.010   5.156   4.364
  282POPC   GL1 3748   8.995   5.244   4.664
  282POPC   GL2 3749   8.863   5.016   4.664
  282POPC   C1A 3750   9.039   5.198   4.964
  282POPC   D2A 3751   9.009   5.236   5.264
  282POPC   C3A 3752   8.969   5.241   5.564
  282POPC   C4A 3753   8.994   5.208   5.864
  282POPC   C1B 3754   8.825   4.950   4.964
  282POPC   C2B 3755   8.829   4.921   5.264
  282POPC   C3B 3756   8.778   4.941   5.564
  282POPC   C4B 3757   8.781   4.891   5.864
  283POPC   NC3 3758   3.293   6.536   4.064
  283POPC   PO4 3759   3.330   6.532   4.364
  283POPC   GL1 3760   3.380   6.508   4.664
  283POPC   GL2 3761   3.478   6.634   4.664
  283POPC   C1A 3762   3.390   6.538   4.964
  283POPC   D2A 3763   3.332   6.518   5.264
  283POPC   C3A 3764   3.352   6.562   5.564
  283POPC   C4A 3765   3.322   6.573   5.864
  283POPC   C1B 3766   3.715   6.623   4.964
  283POPC   C2B 3767   3.712   6.675   5.264
  283POPC   C3B 3768   3.701   6.612   5.564
  283POPC   C4B 3769   3.666   6.680   5.864
  284POPC   NC3 3770   1.010   9.701   4.064
  284POPC   PO4 3771   0.982   9.720   4.364
  284POPC   GL1 3772   1.004   9.693   4.664
  284POPC   GL2 3773   1.171   9.683   4.664
  284POPC   C1A 3774   0.999   9.703   4.964
  284POPC   D2A 3775   1.063   9.721   5.264
  284POPC   C3A 3776   1.004   9.730   5.564
  284POPC   C4A 3777   0.979   9.733   5.864
  284POPC   C1B 3778   1.377   9.640   4.964
  284POPC   C2B 3779   1.399   9.662   5.264
  284POPC   C3B 3780   1.416   9.636   5.564
  284POPC   C4B 3781   1.351   9.672   5.864
  285POPC   NC3 3782   4.202   0.523   4.064
  285POPC   PO4 3783   4.146   0.516   4.364
  285POPC   GL1 3784   4.189   0.608   4.664
  285POPC   GL2 3785   4.319   0.462   4.664
  285POPC   C1A 3786   4.182   0.531   4.964
  285POPC   D2A 3787   4.177   0.526   5.264
  285POPC   C3A 3788   4.154   0.594   5.564
  285POPC   C4A 3789   4.123   0.526   5.864
  285POPC   C1B 3790   4.360   0.337   4.964
  285POPC   C2B 3791   4.380   0.357   5.264
  285POPC   C3B 3792   4.392   0.284   5.564
  285POPC   C4B 3793   4.387   0.301   5.864
  286POPC   NC3 3794   2.083   8.269   4.064
  286POPC   PO4 3795   2.085   8.289   4.364
  286POPC   GL1 3796   2.118   8.315   4.664
  286POPC   GL2 3797   1.925   8.086   4.664
  286POPC   C1A 3798   2.112   8.285   4.964
  286POPC   D2A 3799   2.084   8.316   5.264
  286POPC   C3A 3800   2.043   8.305   5.564
  286POPC   C4A 3801   2.020   8.289   5.864
  286POPC   C1B 3802   1.891   7.927   4.964
  286POPC   C2B 3803   1.870   7.968   5.264
  286POPC   C3B 3804   1.835   7.931   5.564
  286POPC   C4B 3805   1.903   7.983   5.864
  287W        W 3806   8.812   1.879   0.361
  288W        W 3807   4.580   1.269  10.896
  289W        W 3808   8.840   1.392   2.188
  290W        W 3809   9.778   7.920   1.682
  291W        W 3810   8.884   3.218   9.054
  292W        W 3811   7.024   7.497   9.394
  293W        W 3812   0.783   0.310   0.800
  294W        W 3813   3.620   7.563  11.315
  295W        W 3814   1.692   8.545   1.776
  296W        W 3815   8.530   1.807   3.187
  297W        W 3816   7.142   1.804  11.797
  298W        W 3817   2.351   0.729   8.916
  299W        W 3818   7.501   4.209   3.801
  300W        W 3819   4.613   3.802   8.956
  301W        W 3820   1.266   0.817   9.454
  302W        W 3821   5.663   6.644   2.397
  303W        W 3822   6.554   9.009  11.963
  304W        W 3823   8.510   2.651   2.184
  305W        W 3824   6.075   8.093   9.565
  306W        W 3825   4.547   6.608   9.532
  307W        W 3826   4.119   6.596   3.654
  308W        W 3827   5.129   4.743   0.908
  309W        W 3828   0.296   8.427   2.252
  310W        W 3829   7.120   5.974   1.711
  311W        W 3830   7.918   6.576  10.512
  312W        W 3831   4.525   1.854   0.453
  313W        W 3832   6.110   2.779  10.885
  314W        W 3833   2.695   3.270   3.294
  315W        W 3834   6.529   3.187  11.980
  316W        W 3835   7.042   6.967   2.870
  317W        W 3836   8.548   2.159   3.351
  318W        W 3837   5.612   0.812   1.798
  319W        W 3838   5.002   5.075  10.434
  320W        W 3839   2.627   4.720   9.551
  321W        W 3840   5.556   2.304  11.482
  322W        W 3841   2.302   9.387  10.522
  323W        W 3842   9.299   8.980   3.749
  324W        W 3843   3.748   0.441   3.227
  325W        W 3844   6.509   8.377   1.330
  326W        W 3845   8.970   4.525  10.879
  327W        W 3846   4.748   4.221  11.775
  328W        W 3847   9.349   0.792   9.497
  329W        W 3848   5.210   6.482  11.798
  330W        W 3849   8.855   2.377   3.286
  331W        W 3850   7.106   9.293  10.035
  332W        W 3851   3.161   4.673   0.841
  333W        W 3852   9.491   5.206   9.549
  334W        W 3853   5.637   7.889   3.812
  335W        W 3854   2.804   7.099   3.318
  336W        W 3855   2.772   6.620   9.578
  337W        W 3856   5.145   1.423   2.250
  338W        W 3857   1.416   2.298  10.455
  339W        W 3858   4.603   5.205   9.454
  340W        W 3859   0.428   6.134   1.778
  341W        W 3860   8.337   8.517   9.026
  342W        W 3861   7.017   2.653   0.388
  343W        W 3862   3.648   8.822   0.403
  344W        W 3863   4.176   1.835   9.586
  345W        W 3864   1.752   5.138   3.338
  346W        W 3865   0.389   3.198   2.193
  347W        W 3866   9.498   6.145   0.359
  348W        W 3867   3.312   4.626   8.507
  349W        W 3868   3.154   4.103   2.708
  350W        W 3869   2.620   0.307  11.459
  351W        W 3870   5.185   9.922   9.891
  352W        W 3871   7.968   2.250   0.469
  353W        W 3872   5.004   7.513   8.568
  354W        W 3873   4.623   0.874   0.902
  355W        W 3874   9.865   3.309  10.335
  356W        W 3875   9.325   0.721  10.020
  357W        W 3876   5.048   3.119   9.543
  358W        W 3877   7.597   3.575   9.902
  359W        W 3878   0.863   7.388   0.288
  360W        W 3879   3.113   4.258   1.686
  361W        W 3880   8.985   7.560   9.934
  362W        W 3881   0.337   0.789   8.910
  363W        W 3882   3.732   2.232  10.840
  364W        W 3883   4.757   5.127   3.173
  365W        W 3884   9.348   8.370   1.358
  366W        W 3885   1.252   3.688  11.493
  367W        W 3886   4.758   6.961   9.073
  368W        W 3887   0.387   1.316   8.907
  369W        W 3888   4.664   7.955   1.777
  370W        W 3889   9.467   9.783  11.310
  371W        W 3890   6.077   3.218   2.356
  372W        W 3891   5.693   1.801  10.873
  373W        W 3892   5.544   9.923   1.439
  374W        W 3893   2.328   4.251  11.307
  375W        W 3894   4.531   5.077  11.762
  376W        W 3895   2.805   2.169   9.429
  377W        W 3896   2.817   0.816   2.379
  378W        W 3897   6.122   8.070   1.288
  379W        W 3898   2.277   7.886  11.774
  380W        W 3899   4.657   6.075   0.451
  381W        W 3900   8.394   0.434   0.335
  382W        W 3901   3.760   3.229   2.801
  383W        W 3902   2.175   8.035   1.258
  384W        W 3903   4.239   6.429   1.438
  385W        W 3904   7.104   4.741  11.009
  386W        W 3905   9.410   2.332   9.542
  387W        W 3906   4.219   9.973   9.031
  388W        W 3907   7.051   1.337   2.787
  389W        W 3908   5.197   2.791   8.474
  390W        W 3909   3.750   7.866   9.867
  391W        W 3910   9.360   7.581   1.233
  392W        W 3911   1.418   7.426   1.295
  393W        W 3912   4.108   3.109   8.407
  394W        W 3913   2.156   1.730  11.444
  395W        W 3914   8.814   4.658   0.480
  396W        W 3915   2.682   2.647   8.948
  397W        W 3916   0.345   9.480  11.292
  398W        W 3917   8.025   9.845  11.502
  399W        W 3918   1.795   3.252   9.962
  400W        W 3919   5.015   2.654  11.294
  401W        W 3920   0.242   8.479  11.315
  402W        W 3921   5.156   5.502   8.922
  403W        W 3922   2.647   8.076   3.267
  404W        W 3923   0.270   3.129   1.311
  405W        W 3924   3.664   4.590  10.945
  406W        W 3925   1.887   0.433  10.413
  407W        W 3926   6.654   4.709   8.604
  408W        W 3927   4.681   2.297   0.797
  409W        W 3928   8.033   5.032   2.372
  410W        W 3929   4.113   6.098   0.285
  411W        W 3930   8.433   2.145   8.983
  412W        W 3931   6.032   7.036   3.721
  413W        W 3932   5.614   7.521  10.065
  414W        W 3933   2.644   6.539   9.074
  415W        W 3934   7.963   2.150  11.908
  416W        W 3935   3.182   3.108   9.531
  417W        W 3936   5.212   4.691   0.445
  418W        W 3937   8.833   1.807   1.407
  419W        W 3938   0.414   4.529   3.177
  420W        W 3939   1.718   5.526   2.394
  421W        W 3940   2.676   2.740   0.904
  422W        W 3941   3.745   4.170   9.043
  423W        W 3942   0.338   5.646   9.439
  424W        W 3943   4.181   2.666   2.722
  425W        W 3944   1.777   2.809   0.401
  426W        W 3945   5.603   9.894   9.550
  427W        W 3946   1.896   4.144   8.951
  428W        W 3947   2.751   7.488   3.326
  429W        W 3948   3.180   8.436   9.046
  430W        W 3949   6.619   5.157   8.624
  431W        W 3950   9.411   2.647   3.705
  432W        W 3951   9.912   7.899   0.777
  433W        W 3952   3.321   2.228   1.851
  434W        W 3953   0.459   7.429  11.888
  435W        W 3954   8.355   0.864   8.899
  436W        W 3955   5.059   3.589   0.251
  437W        W 3956   8.922   8.935  11.322
  438W        W 3957   4.186   9.899   3.172
  439W        W 3958   6.159   7.500   2.667
  440W        W 3959   3.636   3.691   1.319
  441W        W 3960   2.152   7.474   1.820
  442W        W 3961   6.107   1.216   1.845
  443W        W 3962   8.093   7.459  10.026
  444W        W 3963   9.372   2.661   0.762
  445W        W 3964   2.824   0.785   2.802
  446W        W 3965   8.072   5.676  11.458
  447W        W 3966   7.001   6.652   0.814
  448W        W 3967   8.976   7.413  11.285
  449W        W 3968   7.950   1.851   0.874
  450W        W 3969   6.924   9.423   0.301
  451W        W 3970   0.854   6.457  11.914
  452W        W 3971   4.230   2.250   0.831
  453W        W 3972   8.541   1.403   2.833
  454W        W 3973   2.199   8.037   2.183
  455W        W 3974   1.770   5.085   8.513
  456W        W 3975   9.862   3.651   3.244
  457W        W 3976   6.443   8.393  10.833
  458W        W 3977   4.059   5.997   0.854
  459W        W 3978   4.121   5.235   1.793
  460W        W 3979   8.484   4.564   9.888
  461W        W 3980   8.334   3.722   9.441
  462W        W 3981   3.277   2.194   0.959
  463W        W 3982   5.556   7.384  11.455
  464W        W 3983   0.894   4.574   8.908
  465W        W 3984   7.006   1.376  11.836
  466W        W 3985   0.330   4.746   0.862
  467W        W 3986   9.333   1.841   9.444
  468W        W 3987   8.919   7.114  10.386
  469W        W 3988   9.908   1.233   9.029
  470W        W 3989   5.092   3.593  11.980
  471W        W 3990   9.047   8.938   9.075
  472W        W 3991   3.247   7.543  11.283
  473W        W 3992   1.427   1.399  11.451
  474W        W 3993   1.798   6.020   3.323
  475W        W 3994   4.635   4.546   2.753
  476W        W 3995   9.408   7.505  10.033
  477W        W 3996   9.845   6.155   8.980
  478W        W 3997   6.509   2.357  10.470
  479W        W 3998   7.093   8.065  11.493
  480W        W 3999   7.529   2.825  11.921
  481W        W 4000   6.643   4.136   3.739
  482W        W 4001   7.122   5.579   2.721
  483W        W 4002   4.086   5.488   0.836
  484W        W 4003   0.266   2.777  10.877
  485W        W 4004   6.167   3.174   0.848
  486W        W 4005   8.393   1.297  11.905
  487W        W 4006   6.434   7.018   2.181
  488W        W 4007   6.509   9.898   0.922
  489W        W 4008   8.484   0.420  10.535
  490W        W 4009   0.733   8.473   8.937
  491W        W 4010   1.778   1.400   1.859
  492W        W 4011   5.610   6.462  11.350
  493W        W 4012   5.132   2.797   1.884
  494W        W 4013   6.481   9.978   9.995
  495W        W 4014   4.065   7.976   0.357
  496W        W 4015   4.171   1.749  11.382
  497W        W 4016   7.406   0.322   9.115
  498W        W 4017   7.066   4.205   9.537
  499W        W 4018   3.758   1.773   1.326
  500W        W 4019   2.235   4.526   8.622
  501W        W 4020   2.634   4.109  10.833
  502W        W 4021   5.558   5.144  11.943
  503W        W 4022   2.827   1.199  11.868
  504W        W 4023   9.407   5.092   8.950
  505W        W 4024   4.730   4.163  10.466
  506W        W 4025   4.117   1.240  10.846
  507W        W 4026   2.736   3.749   0.893
  508W        W 4027   3.694   8.918  11.827
  509W        W 4028   6.190   6.061   9.892
  510W        W 4029   9.974   4.678   3.236
  511W        W 4030   4.609   5.081   2.673
  512W        W 4031   3.127   0.793   0.473
  513W        W 4032   5.005   3.752   3.791
  514W        W 4033   8.388   3.655   1.731
  515W        W 4034   1.698   5.129   2.865
  516W        W 4035   2.787   1.253   2.182
  517W        W 4036   9.028   0.872   1.812
  518W        W 4037   2.621   5.198   0.801
  519W        W 4038   3.267   7.520   8.925
  520W        W 4039   3.329   2.238  11.903
  521W        W 4040   9.014   6.471   1.398
  522W        W 4041   0.408   5.483   1.811
  523W        W 4042   8.508   9.774  11.334
  524W        W 4043   3.143   0.831  11.010
  525W        W 4044   6.932   2.750   2.862
  526W        W 4045   4.596   5.527  10.412
  527W        W 4046   3.684   5.483   8.977
  528W        W 4047   1.345   1.746   3.284
  529W        W 4048   0.310   9.811  11.794
  530W        W 4049   5.154   2.744  10.398
  531W        W 4050   5.673   2.643   3.333
  532W        W 4051   9.428   9.876   9.106
  533W        W 4052   9.420   3.695   9.003
  534W        W 4053   7.448   6.968  11.890
  535W        W 4054   2.317   7.419   3.313
  536W        W 4055   1.345   6.451  11.429
  537W        W 4056   0.453   0.421   9.937
  538W        W 4057   1.361   5.235  11.866
  539W        W 4058   5.668   8.523   0.252
  540W        W 4059   4.228   3.795   8.050
  541W        W 4060   1.206   3.597   1.244
  542W        W 4061   1.696   8.451   3.818
  543W        W 4062   2.659   5.121   4.262
  544W        W 4063   2.743   2.672  10.859
  545W        W 4064   8.447   2.676   1.300
  546W        W 4065   6.016   6.596   1.243
  547W        W 4066   6.471   5.665   1.394
  548W        W 4067   5.083   9.393   1.768
  549W        W 4068   7.876   0.287  11.824
  550W        W 4069   7.952   9.811   0.866
  551W        W 4070   1.325   3.626  10.974
  552W        W 4071   1.799   3.210   1.694
  553W        W 4072   7.561   2.338   1.403
  554W        W 4073   7.138   5.537   2.186
  555W        W 4074   9.771   5.139   1.840
  556W        W 4075   1.752   2.754  11.762
  557W        W 4076   8.489   1.385  10.012
  558W        W 4077   3.613   8.816   2.205
  559W        W 4078   5.203   7.960  11.983
  560W        W 4079   7.552   4.651   1.299
  561W        W 4080   2.343   7.066   2.261
  562W        W 4081   7.007   0.777   0.953
  563W        W 4082   6.129   9.867  10.538
  564W        W 4083   8.073   5.006   8.964
  565W        W 4084   5.959   7.427   9.961
  566W        W 4085   0.768   9.315   1.724
  567W        W 4086   1.846   3.212   2.716
  568W        W 4087   9.474   3.309   9.548
  569W        W 4088   6.517   9.019   1.240
  570W        W 4089   7.434   6.128   1.892
  571W        W 4090   5.001   6.948   1.406
  572W        W 4091   0.461   0.911   9.879
  573W        W 4092   4.541   3.155   3.788
  574W        W 4093   1.427   6.052   2.273
  575W        W 4094   6.953   4.546   1.729
  576W        W 4095   9.413   2.733  10.986
  577W        W 4096   1.327   4.714   9.474
  578W        W 4097   0.395   9.514  10.978
  579W        W 4098   6.595   4.217   9.044
  580W        W 4099   4.135   1.347   2.199
  581W        W 4100   9.343   2.750   1.709
  582W        W 4101   9.937   9.346   1.292
  583W        W 4102   9.885   6.071  10.834
  584W        W 4103   0.373   0.444  11.898
  585W        W 4104   6.932   5.007  11.361
  586W        W 4105   5.079   2.221   2.171
  587W        W 4106   1.288   6.560   1.423
  588W        W 4107   5.644   0.362   9.891
  589W        W 4108   6.085   0.839   2.824
  590W        W 4109   5.024   3.290  11.382
  591W        W 4110   8.051   7.131  11.352
  592W        W 4111   1.689   4.688   2.738
  593W        W 4112   3.590   6.540   2.211
  594W        W 4113   2.286   2.324  10.991
  595W        W 4114   9.015   4.661   0.852
  596W        W 4115   6.652   5.072   4.259
  597W        W 4116   1.299   5.593   8.581
  598W        W 4117   3.629   7.550  10.348
  599W        W 4118   2.791   0.717   1.845
  600W        W 4119   8.526   2.324   2.369
  601W        W 4120   2.189   8.931   0.722
  602W        W 4121   9.920   6.069   1.898
  603W        W 4122   5.579   5.954   1.336
  604W        W 4123   7.104   3.796   3.268
  605W        W 4124   4.701   3.314   3.216
  606W        W 4125   4.182   2.771   1.866
  607W        W 4126   9.917   4.581  10.510
  608W        W 4127   3.178   5.669   0.728
  609W        W 4128   4.155   0.348   8.985
  610W        W 4129   0.389   4.098   2.859
  611W        W 4130   0.717   4.091  11.772
  612W        W 4131   1.672   2.234  11.508
  613W        W 4132   1.371   7.947  11.358
  614W        W 4133   4.179   0.274  10.846
  615W        W 4134   5.545   7.953   2.786
  616W        W 4135   0.382   9.842   2.327
  617W        W 4136   1.329   1.277   1.745
  618W        W 4137   2.168   3.663  10.330
  619W        W 4138   8.516   2.741   1.868
  620W        W 4139   5.488   5.506   3.351
  621W        W 4140   8.518   8.433  10.515
  622W        W 4141   6.451   2.649   3.353
  623W        W 4142   9.898   5.680   0.926
  624W        W 4143   6.490   1.834  10.900
  625W        W 4144   5.033   1.836   1.893
  626W        W 4145   5.524   6.090   9.940
  627W        W 4146   7.581   8.523   9.575
  628W        W 4147   2.311   5.508   9.369
  629W        W 4148   7.143   0.782  11.811
  630W        W 4149   5.024   4.279   1.746
  631W        W 4150   3.656   5.666  11.825
  632W        W 4151   7.979   5.079   2.708
  633W        W 4152   7.023   9.937  10.952
  634W        W 4153   6.144   6.991   3.250
  635W        W 4154   5.077   7.409  10.341
  636W        W 4155   0.855   7.454   0.750
  637W        W 4156   9.419   9.958  10.919
  638W        W 4157   8.077   1.323   9.883
  639W        W 4158   5.218   6.514   3.800
  640W        W 4159   4.634   3.673   9.971
  641W        W 4160   5.020   5.150   0.889
  642W        W 4161   7.554   1.300  10.851
  643W        W 4162   2.294   7.981   0.473
  644W        W 4163   9.982   1.382  10.383
  645W        W 4164   5.133   0.940   1.886
  646W        W 4165   2.705   8.386  10.849
  647W        W 4166   6.152   8.450  10.322
  648W        W 4167   9.790   9.393   9.557
  649W        W 4168   9.334   6.110   0.820
  650W        W 4169   7.007   0.794   1.397
  651W        W 4170   4.661   4.680   1.399
  652W        W 4171   8.551   2.206   2.721
  653W        W 4172   9.397   8.426  10.045
  654W        W 4173   1.808   3.607   0.327
  655W        W 4174   7.009   3.592  11.958
  656W        W 4175   7.127   0.404   0.390
  657W        W 4176   4.224   3.591  11.959
  658W        W 4177   9.356   3.611   0.434
  659W        W 4178   8.884   6.459   9.448
  660W        W 4179   3.713   5.543   1.367
  661W        W 4180   2.775   9.364   3.200
  662W        W 4181   9.870   1.819   9.064
  663W        W 4182   2.359   7.580  11.023
  664W        W 4183   6.913   5.081   4.103
  665W        W 4184   5.481   9.375   1.254
  666W        W 4185   9.512   3.126   1.855
  667W        W 4186   4.715   6.085   3.229
  668W        W 4187   0.393   7.026  10.020
  669W        W 4188   1.864   6.481   1.699
  670W        W 4189   2.224   0.326  10.874
  671W        W 4190   2.812   0.362   1.295
  672W        W 4191   3.584   2.827  11.506
  673W        W 4192   5.683   8.902   9.448
  674W        W 4193   5.557   6.940   0.266
  675W        W 4194   7.933   6.627  11.959
  676W        W 4195   6.170   7.567  10.346
  677W        W 4196   7.478   6.131   0.464
  678W        W 4197   3.236   1.200   3.770
  679W        W 4198   6.506   1.378   0.908
  680W        W 4199   3.173   3.286   3.741
  681W        W 4200   9.463   5.225   1.228
  682W        W 4201   3.648   0.728   1.324
  683W        W 4202   5.062   2.151   1.750
  684W        W 4203   5.587   7.114   3.144
  685W        W 4204   9.859   0.904  11.791
  686W        W 4205   5.228   7.481  11.794
  687W        W 4206   6.442   5.491   9.381
  688W        W 4207   2.294   9.323   0.391
  689W        W 4208   2.210   5.597  11.465
  690W        W 4209   8.946   8.900   2.712
  691W        W 4210   6.953   4.558   9.846
  692W        W 4211   4.069   9.449   2.797
  693W        W 4212   8.546   8.512   3.229
  694W        W 4213   2.309   7.405   2.355
  695W        W 4214   6.431   2.179  10.880
  696W        W 4215   4.171   1.330  10.334
  697W        W 4216   6.511   1.749   2.711
  698W        W 4217   4.537   0.735   1.365
  699W        W 4218   4.191   9.946   1.400
  700W        W 4219   5.495   7.052  11.817
  701W        W 4220   5.096   2.711  10.925
  702W        W 4221   9.838   9.499  11.477
  703W        W 4222   7.879   5.032  11.964
  704W        W 4223   4.249   5.073   2.814
  705W        W 4224   4.623   6.492   3.345
  706W        W 4225   3.580   4.159  10.327
  707W        W 4226   3.771   4.696   4.237
  708W        W 4227   0.848   9.872   9.948
  709W        W 4228   9.351   1.329   0.285
  710W        W 4229   9.990   3.675   0.865
  711W        W 4230   2.810   9.851  10.375
  712W        W 4231   3.273   4.725   8.140
  713W        W 4232   9.902   6.935   9.094
  714W        W 4233   2.263   8.415   9.113
  715W        W 4234   9.028   8.052   3.334
  716W        W 4235   4.230   3.807  11.475
  717W        W 4236   9.414   7.121  10.889
  718W        W 4237   5.529   6.655   0.933
  719W        W 4238   3.099   5.215   0.406
  720W        W 4239   5.618   7.928  10.493
  721W        W 4240   9.039   7.397   2.241
  722W        W 4241   8.512   4.759   2.867
  723W        W 4242   9.772   1.316   2.836
  724W        W 4243   2.744   1.409  11.487
  725W        W 4244   7.574   3.253   3.259
  726W        W 4245   5.108   5.495   3.171
  727W        W 4246   4.582   9.892   2.341
  728W        W 4247   9.370   0.326  10.022
  729W        W 4248   9.863   2.324  10.908
  730W        W 4249   7.593   5.032  11.887
  731W        W 4250   3.149   7.080   1.262
  732W        W 4251   8.976   6.189   0.942
  733W        W 4252   5.130   2.318   1.251
  734W        W 4253   4.236   5.550   3.356
  735W        W 4254   6.587   1.230   3.227
  736W        W 4255   3.648   4.578  11.948
  737W        W 4256   8.368   3.660   2.170
  738W        W 4257   8.076   6.067   1.222
  739W        W 4258   4.638   2.782   1.369
  740W        W 4259   7.141   6.958   0.882
  741W        W 4260   3.746   3.614   9.962
  742W        W 4261   8.968   4.623  11.902
  743W        W 4262   3.621   7.867  10.327
  744W        W 4263   4.180   8.423   1.696
  745W        W 4264   8.941   8.558   1.880
  746W        W 4265   7.409   8.962  10.451
  747W        W 4266   8.876   4.095   0.733
  748W        W 4267   0.294   2.829   3.278
  749W        W 4268   4.740   2.839  11.296
  750W        W 4269   1.817   0.715   2.222
  751W        W 4270   7.886   1.397  10.501
  752W        W 4271   2.627   3.257   2.802
  753W        W 4272   4.230   0.911  10.967
  754W        W 4273   2.742   7.941   1.827
  755W        W 4274   3.637   4.613   9.465
  756W        W 4275   7.581   4.563   3.126
  757W        W 4276   8.058   4.690   0.408
  758W        W 4277   9.815   7.541   1.855
  759W        W 4278   8.335   4.666  11.473
  760W        W 4279   1.740   0.444   9.557
  761W        W 4280   5.177   2.834   2.657
  762W        W 4281   8.864   6.037  11.989
  763W        W 4282   9.978   5.575   9.115
  764W        W 4283   8.952   7.076   9.573
  765W        W 4284   3.259   9.347   1.284
  766W        W 4285   0.415   6.650   9.911
  767W        W 4286   4.647   5.555   2.346
  768W        W 4287   7.958   1.892   1.379
  769W        W 4288   3.235   3.586  11.823
  770W        W 4289   7.119   6.181   8.135
  771W        W 4290   2.282   2.352  10.071
  772W        W 4291   6.949   6.439   8.984
  773W        W 4292   5.208   9.982   9.491
  774W        W 4293   2.375   1.848  10.932
  775W        W 4294   8.828   6.001  10.371
  776W        W 4295   7.467   3.235   2.852
  777W        W 4296   5.236   3.792   9.847
  778W        W 4297   2.806   7.875  11.381
  779W        W 4298   5.966   2.289  11.022
  780W        W 4299   9.043   8.844  11.790
  781W        W 4300   7.120   6.436   4.206
  782W        W 4301   8.344   7.930  11.027
  783W        W 4302   9.847   1.369   9.966
  784W        W 4303   1.669   3.575   0.824
  785W        W 4304   0.909   8.949   3.344
  786W        W 4305   2.368   3.710   3.166
  787W        W 4306   9.317   8.020   1.847
  788W        W 4307   9.411   4.744  11.795
  789W        W 4308   3.112   3.663   0.818
  790W        W 4309   2.296   3.790   1.856
  791W        W 4310   8.567   8.534   0.455
  792W        W 4311   5.230   8.888  11.000
  793W        W 4312   6.116   9.763   0.304
  794W        W 4313   5.529   1.799   8.472
  795W        W 4314   2.715   4.254   2.206
  796W        W 4315   2.705   2.291   0.928
  797W        W 4316   0.463   6.009   3.165
  798W        W 4317   6.661   9.312   2.203
  799W        W 4318   9.409   7.505  11.920
  800W        W 4319   4.190   9.017   8.995
  801W        W 4320   2.806   0.389   9.367
  802W        W 4321   8.882   6.508  11.320
  803W        W 4322   2.763   3.640  10.550
  804W        W 4323   5.637   0.811  10.923
  805W        W 4324   5.587   1.684   2.240
  806W        W 4325   5.028   9.020  10.372
  807W        W 4326   1.192   0.301   9.109
  808W        W 4327   5.962   7.937   3.252
  809W        W 4328   7.123   2.708  10.078
  810W        W 4329   3.809   4.759   3.836
  811W        W 4330   3.734   1.358   8.954
  812W        W 4331   9.783   7.121   9.884
  813W        W 4332   4.063   8.052   9.030
  814W        W 4333   6.952   2.795  10.349
  815W        W 4334   1.738   5.572   9.571
  816W        W 4335   8.936   0.945   8.933
  817W        W 4336   0.417   1.715  10.072
  818W        W 4337   3.297   8.426  10.450
  819W        W 4338   4.640   7.543   2.375
  820W        W 4339   3.808   9.793  11.954
  821W        W 4340   2.736   3.749  11.864
  822W        W 4341   5.030   6.606   0.340
  823W        W 4342   3.742   0.748   2.280
  824W        W 4343   5.143   5.494   1.301
  825W        W 4344   8.380   4.114   2.288
  826W        W 4345   6.612   8.504   1.788
  827W        W 4346   3.279   9.474   8.452
  828W        W 4347   6.911   1.707   1.423
  829W        W 4348   3.671   9.046   1.737
  830W        W 4349   8.842   9.935  10.981
  831W        W 4350   3.202   8.376   3.301
  832W        W 4351   9.875   1.854   2.668
  833W        W 4352   6.445   6.134   8.900
  834W        W 4353   0.338   9.808  11.337
  835W        W 4354   4.579   1.727   1.811
  836W        W 4355   6.518   8.824  10.362
  837W        W 4356   1.337   0.420  10.947
  838W        W 4357   6.432   2.841  10.477
  839W        W 4358   2.766   9.385  10.838
  840W        W 4359   6.165   3.601   0.781
  841W        W 4360   0.382   1.205  11.314
  842W        W 4361   4.656   9.317   2.871
  843W        W 4362   6.532   9.354   2.795
  844W        W 4363   6.036   4.727  10.538
  845W        W 4364   9.812   1.694   0.360
  846W        W 4365   6.124   8.848  11.342
  847W        W 4366   2.339   3.729   8.938
  848W        W 4367   7.521   2.674  11.459
  849W        W 4368   2.632   6.906   2.806
  850W        W 4369   1.270   4.077   9.103
  851W        W 4370   0.845   3.151  11.402
  852W        W 4371   2.207   0.934   0.871
  853W        W 4372   6.089   6.168   1.690
  854W        W 4373   0.820   2.831   9.544
  855W        W 4374   4.206   2.776   9.453
  856W        W 4375   9.373   0.806   3.739
  857W        W 4376   7.999   7.421   0.307
  858W        W 4377   9.410   8.397  10.321
  859W        W 4378   5.132   5.623   0.312
  860W        W 4379   2.771   3.204   9.437
  861W        W 4380   9.047   3.587   3.161
  862W        W 4381   8.346   1.670   1.763
  863W        W 4382   3.800   8.462   3.796
  864W        W 4383   8.402   3.137  11.428
  865W        W 4384   9.512   3.117   0.328
  866W        W 4385   4.153   2.192  11.303
  867W        W 4386   7.928   6.090   9.380
  868W        W 4387   3.611   4.179   4.243
  869W        W 4388   7.467   4.724   0.278
  870W        W 4389   5.229   2.295   0.429
  871W        W 4390   3.705   7.886   9.560
  872W        W 4391   7.944   1.727  10.382
  873W        W 4392   0.846   9.431   9.464
  874W        W 4393   5.072   5.967   8.060
  875W        W 4394   9.450   1.815   9.891
  876W        W 4395   6.452   2.285   0.948
  877W        W 4396   6.962   6.450   1.285
  878W        W 4397   7.500   3.712   1.915
  879W        W 4398   8.899   9.880  10.555
  880W        W 4399   9.928   4.715   0.833
  881W        W 4400   2.357   9.437   2.236
  882W        W 4401   0.275   4.740   1.707
  883W        W 4402   7.394   2.172   3.205
  884W        W 4403   2.282   3.178  11.352
  885W        W 4404   7.913   3.809   9.568
  886W        W 4405   1.351   9.351   2.756
  887W        W 4406   6.442   6.169   4.236
  888W        W 4407   8.371   5.039  10.529
  889W        W 4408   8.896   4.152  10.559
  890W        W 4409   4.756   7.569  11.313
  891W        W 4410   6.588   1.208   2.828
  892W        W 4411   7.991   0.306   0.881
  893W        W 4412   8.553   3.585  10.374
  894W        W 4413   8.896   4.609  10.461
  895W        W 4414   3.270   6.535  10.917
  896W        W 4415   6.483   7.028   3.632
  897W        W 4416   9.044   2.662  10.915
  898W        W 4417   9.813   9.775   9.471
  899W        W 4418   0.753   4.755  10.934
  900W        W 4419   4.189   4.254  10.464
  901W        W 4420   4.737   2.343   9.008
  902W        W 4421   0.297   3.672   2.400
  903W        W 4422   7.113   2.805  10.911
  904W        W 4423   1.757   6.155   1.407
  905W        W 4424   0.244   5.542   8.598
  906W        W 4425   2.184   3.137   0.271
  907W        W 4426   4.683   6.497   1.805
  908W        W 4427   1.391   8.473   2.684
  909W        W 4428   5.213   0.882   3.207
  910W        W 4429   0.940   7.881  11.788
  911W        W 4430   9.380   7.495   2.785
  912W        W 4431   6.471   6.997   3.214
  913W        W 4432   5.177   4.253  11.885
  914W        W 4433   3.131   7.399   2.758
  915W        W 4434   7.016   3.255   2.654
  916W        W 4435   7.543   1.205   0.400
  917W        W 4436   7.504   9.848   0.456
  918W        W 4437   3.288   8.090   2.750
  919W        W 4438   4.255   7.038   1.417
  920W        W 4439   6.026   3.269   9.070
  921W        W 4440   2.648   8.821   2.303
  922W        W 4441   0.718   7.397  11.996
  923W        W 4442   5.142   8.959   9.011
  924W        W 4443   0.799   5.480  10.861
  925W        W 4444   4.692   4.061   1.710
  926W        W 4445   6.084   5.034   9.502
  927W        W 4446   3.804   9.919   0.911
  928W        W 4447   5.594   0.322   0.751
  929W        W 4448   0.874   7.497  10.908
  930W        W 4449   6.470   9.885   0.289
  931W        W 4450   6.468   0.385   3.624
  932W        W 4451   6.121   4.192   8.116
  933W        W 4452   6.542   4.612   0.321
  934W        W 4453   0.336   3.580  11.855
  935W        W 4454   2.731   0.895   0.792
  936W        W 4455   1.817   2.695   9.400
  937W        W 4456   0.381   0.294  10.802
  938W        W 4457   3.300   2.313   3.322
  939W        W 4458   5.655   2.154  10.336
  940W        W 4459   9.993   2.205  11.305
  941W        W 4460   9.856   1.709   8.521
  942W        W 4461   3.332   3.801  11.288
  943W        W 4462   1.276   3.755   1.897
  944W        W 4463   4.626   2.843   0.899
  945W        W 4464   5.004   9.852   1.420
  946W        W 4465   4.158   3.162  10.408
  947W        W 4466   2.801   3.288  11.471
  948W        W 4467   9.976   6.592   8.949
  949W        W 4468   3.133   1.394  10.026
  950W        W 4469   5.232   6.634   0.747
  951W        W 4470   9.450   2.813  11.502
  952W        W 4471   9.953   7.066   3.639
  953W        W 4472   1.731   2.355   2.303
  954W        W 4473   3.300   3.096   2.351
  955W        W 4474   5.504   1.857   2.736
  956W        W 4475   0.279   0.846   3.251
  957W        W 4476   4.668   5.531   2.714
  958W        W 4477   4.279   7.889   1.298
  959W        W 4478   6.158   7.048  11.476
  960W        W 4479   8.548   2.351   9.483
  961W        W 4480   1.212   9.353   9.887
  962W        W 4481   5.108   9.473  10.460
  963W        W 4482   5.956   0.952   1.848
  964W        W 4483   6.587   3.740   3.281
  965W        W 4484   2.787   0.811  10.414
  966W        W 4485   1.753   7.001   0.906
  967W        W 4486   3.146   7.038   2.656
  968W        W 4487   9.843   4.541   1.358
  969W        W 4488   8.381   4.708   1.438
  970W        W 4489   2.304   1.228  11.034
  971W        W 4490   6.002   5.059   1.400
  972W        W 4491   7.397   6.486   1.808
  973W        W 4492   0.950   5.598   3.158
  974W        W 4493   2.742   0.774  11.015
  975W        W 4494   4.157   1.271   1.411
  976W        W 4495   7.542   5.967   9.424
  977W        W 4496   8.940   6.022   2.682
  978W        W 4497   0.366   7.582   3.216
  979W        W 4498   9.772   0.290   2.342
  980W        W 4499   1.742   9.768  11.980
  981W        W 4500   2.279   5.128   1.783
  982W        W 4501   9.351   7.054   3.734
  983W        W 4502   5.527   6.571   2.738
  984W        W 4503   1.836   2.158   1.351
  985W        W 4504   1.763   5.218   0.929
  986W        W 4505   7.437   3.304  11.506
  987W        W 4506   9.438   5.504   1.413
  988W        W 4507   0.946   8.072   9.015
  989W        W 4508   1.890   5.049  11.810
  990W        W 4509   3.158   8.378   0.443
  991W        W 4510   3.267   8.054  11.033
  992W        W 4511   9.470   5.027  10.464
  993W        W 4512   1.841   8.060   2.839
  994W        W 4513   5.970   1.421   2.194
  995W        W 4514   3.316   4.124  11.340
  996W        W 4515   9.011   3.234  10.459
  997W        W 4516   2.831   2.824   3.242
  998W        W 4517   3.124   9.524   2.193
  999W        W 4518   2.743   1.359  10.868
 1000W        W 4519   1.312   3.266   9.371
 1001W        W 4520   7.139   8.020   0.465
 1002W        W 4521   2.309   8.914  11.423
 1003W        W 4522   3.265   6.479  10.077
 1004W        W 4523   6.483   1.285   1.779
 1005W        W 4524   6.946   4.152   2.382
 1006W        W 4525   9.882   8.507   0.850
 1007W        W 4526   5.109   3.739   8.628
 1008W        W 4527   2.312   1.839   0.344
 1009W        W 4528   4.145   8.357   9.110
 1010W        W 4529   7.591   1.685   3.638
 1011W        W 4530   0.807   0.927   1.256
 1012W        W 4531   5.954   8.536   9.080
 1013W        W 4532   3.150   8.454   2.663
 1014W        W 4533   2.743   1.787   0.454
 1015W        W 4534   9.340   7.881  11.816
 1016W        W 4535   9.861   8.435  11.458
 1017W        W 4536   5.714   8.067   1.808
 1018W        W 4537   1.391   4.188  11.330
 1019W        W 4538   8.903   5.207  10.417
 1020W        W 4539   1.307   0.296   2.687
 1021W        W 4540   2.255   6.568   1.895
 1022W        W 4541   4.118   1.698  10.963
 1023W        W 4542   3.670   7.915   3.352
 1024W        W 4543   8.352   1.328   0.459
 1025W        W 4544   9.864   4.729  11.980
 1026W        W 4545   5.682   0.752  11.946
 1027W        W 4546   4.201   5.056   8.930
 1028W        W 4547   6.514   4.560   2.721
 1029W        W 4548   6.181   5.180   3.615
 1030W        W 4549   8.932   6.497   9.856
 1031W        W 4550   8.963   8.522  10.992
 1032W        W 4551   2.843   2.638   0.269
 1033W        W 4552   9.409   4.749   2.688
 1034W        W 4553   8.517   5.956   1.437
 1035W        W 4554   3.097   7.061  11.411
 1036W        W 4555   7.922   2.742   3.249
 1037W        W 4556   2.255   4.725   1.341
 1038W        W 4557   5.544   3.098  11.918
 1039W        W 4558   5.666   2.225   0.354
 1040W        W 4559   9.992   5.215   0.785
 1041W        W 4560   1.353   5.701   3.190
 1042W        W 4561   5.961   3.620  11.327
 1043W        W 4562   2.354   2.706   9.053
 1044W        W 4563   5.702   4.533  10.900
 1045W        W 4564   4.725   8.348   8.494
 1046W        W 4565   0.877   8.545   1.791
 1047W        W 4566   8.509   9.931   1.913
 1048W        W 4567   1.284   9.951   0.886
 1049W        W 4568   3.601   1.751  11.388
 1050W        W 4569   5.712   5.001   3.214
 1051W        W 4570   4.180   8.530  11.370
 1052W        W 4571   6.908   9.485   1.889
 1053W        W 4572   3.674   2.664   0.378
 1054W        W 4573   0.329   4.204  11.449
 1055W        W 4574   5.133   7.880   1.825
 1056W        W 4575   7.461   7.483   2.398
 1057W        W 4576   8.065   0.815   0.760
 1058W        W 4577   4.177   4.086   2.185
 1059W        W 4578   4.106   3.692   1.793
 1060W        W 4579   4.152   9.961  10.837
 1061W        W 4580   8.032   2.838  10.422
 1062W        W 4581   3.234   9.032   9.919
 1063W        W 4582   7.021   7.036   3.200
 1064W        W 4583   8.472   6.580  10.921
 1065W        W 4584   9.397   4.133   0.443
 1066W        W 4585   5.162   4.148  10.418
 1067W        W 4586   6.909   9.485   0.748
 1068W        W 4587   3.764   9.352   2.224
 1069W        W 4588   3.800   1.753   8.471
 1070W        W 4589   9.867   3.674  10.891
 1071W        W 4590   4.674   5.543  11.885
 1072W        W 4591   6.918   8.346  10.803
 1073W        W 4592   9.879   3.758   0.354
 1074W        W 4593   4.245   2.828  11.000
 1075W        W 4594   1.321   6.662  10.555
 1076W        W 4595   0.773   3.138   0.407
 1077W        W 4596   1.772   8.527  11.867
 1078W        W 4597   1.216   9.981   9.478
 1079W        W 4598   5.657   8.940   0.907
 1080W        W 4599   0.352   7.429  10.816
 1081W        W 4600   0.460   6.013  11.895
 1082W        W 4601   7.619   4.707   1.887
 1083W        W 4602   9.795   5.491  11.828
 1084W        W 4603   4.678   2.278  11.503
 1085W        W 4604   8.497   4.572  10.992
 1086W        W 4605   3.637   6.057   2.828
 1087W        W 4606   4.270   6.958   9.876
 1088W        W 4607   5.220   0.476  11.469
 1089W        W 4608   0.808   1.343   1.765
 1090W        W 4609   5.492   1.368   9.088
 1091W        W 4610   6.909   8.418  11.283
 1092W        W 4611   1.674   2.244  10.050
 1093W        W 4612   8.990   5.514  10.496
 1094W        W 4613   7.019   3.621   0.930
 1095W        W 4614   9.501   8.400  10.904
 1096W        W 4615   8.078   5.037  11.506
 1097W        W 4616   5.619   0.739  10.016
 1098W        W 4617   2.685   3.796   3.212
 1099W        W 4618   7.424   3.648  10.959
 1100W        W 4619   6.162   4.637   9.370
 1101W        W 4620   9.452   9.446   0.931
 1102W        W 4621   4.669   8.393  10.476
 1103W        W 4622   7.019   8.080   2.652
 1104W        W 4623   9.995   7.583   0.807
 1105W        W 4624   6.985   5.554   0.428
 1106W        W 4625   0.731   6.539   2.188
 1107W        W 4626   3.689   2.358   2.802
 1108W        W 4627   7.609   1.786   1.405
 1109W        W 4628   1.773   9.335   3.356
 1110W        W 4629   3.679   8.430   1.712
 1111W        W 4630   3.685   4.126  10.924
 1112W        W 4631   3.788   8.905   2.815
 1113W        W 4632   6.533   6.566   3.285
 1114W        W 4633   8.901   6.456  11.944
 1115W        W 4634   0.303   8.564   9.478
 1116W        W 4635   3.309   9.804   2.672
 1117W        W 4636   0.299   0.320   3.202
 1118W        W 4637   1.413   8.939   0.474
 1119W        W 4638   8.494   5.558  10.848
 1120W        W 4639   6.136   5.632   3.353
 1121W        W 4640   3.582   9.393   8.963
 1122W        W 4641   0.795   8.959  11.352
 1123W        W 4642   4.242   0.897  10.502
 1124W        W 4643   2.178   6.505  11.492
 1125W        W 4644   0.787   5.182  10.429
 1126W        W 4645   6.632   8.074  11.505
 1127W        W 4646   3.772   6.039  10.964
 1128W        W 4647   9.945   4.220  11.820
 1129W        W 4648   0.723   7.612   2.870
 1130W        W 4649   3.117   7.481   0.890
 1131W        W 4650   9.877   5.516   2.765
 1132W        W 4651   1.321   2.836   0.249
 1133W        W 4652   3.768   6.114   0.334
 1134W        W 4653   8.395   8.854   9.004
 1135W        W 4654   9.865   6.598   9.589
 1136W        W 4655   8.953   5.705   2.712
 1137W        W 4656   8.472   2.674  11.422
 1138W        W 4657   6.956   5.044  10.430
 1139W        W 4658   1.842   3.703  10.467
 1140W        W 4659   8.517   4.229   0.886
 1141W        W 4660   7.534   9.414  11.931
 1142W        W 4661   0.391   2.683   9.976
 1143W        W 4662   5.503   7.099   1.339
 1144W        W 4663   8.937   1.377   3.167
 1145W        W 4664   9.864   9.967   8.979
 1146W        W 4665   5.083   3.186   1.248
 1147W        W 4666   5.068   3.212   4.278
 1148W        W 4667   3.151   6.135   2.294
 1149W        W 4668   7.880   3.676   1.282
 1150W        W 4669   3.188   3.273   1.727
 1151W        W 4670   0.819   9.949   2.255
 1152W        W 4671   1.367   9.516   2.168
 1153W        W 4672   1.242   4.599  10.958
 1154W        W 4673   1.890   8.940   3.655
 1155W        W 4674   4.529   3.598  10.412
 1156W        W 4675   2.346   6.920  10.504
 1157W        W 4676   5.995   6.596   2.331
 1158W        W 4677   1.394   7.026  10.449
 1159W        W 4678   6.972   9.297  11.956
 1160W        W 4679   8.392   7.447  10.042
 1161W        W 4680   2.770   7.876   2.335
 1162W        W 4681   6.178   3.312   1.255
 1163W        W 4682   3.261   9.334   1.762
 1164W        W 4683   5.114   2.250  10.891
 1165W        W 4684   8.946   6.602   0.951
 1166W        W 4685   1.223   6.062  10.934
 1167W        W 4686   6.542   2.812   9.485
 1168W        W 4687   1.745   5.205   9.084
 1169W        W 4688   3.321   5.031   2.173
 1170W        W 4689   6.921   6.966  11.942
 1171W        W 4690   7.392   9.953  11.463
 1172W        W 4691   0.825   6.024  10.052
 1173W        W 4692   6.116   9.850   2.734
 1174W        W 4693   9.411   3.687   0.940
 1175W        W 4694   7.480   7.497   0.381
 1176W        W 4695   3.257   2.758   1.361
 1177W        W 4696   0.951   2.664   0.848
 1178W        W 4697   3.681   6.620   9.116
 1179W        W 4698   5.654   4.544   0.735
 1180W        W 4699   3.794   4.181   0.879
 1181W        W 4700   4.547   8.028   0.338
 1182W        W 4701   9.908   8.995   0.385
 1183W        W 4702   1.877   8.569   2.768
 1184W        W 4703   8.966   4.059   3.214
 1185W        W 4704   7.513   1.409   2.847
 1186W        W 4705   4.567   4.153  11.491
 1187W        W 4706   5.151   2.156   2.824
 1188W        W 4707   3.683   3.304   2.249
 1189W        W 4708   3.129   3.221   3.331
 1190W        W 4709   9.779   1.313   3.247
 1191W        W 4710   0.454   9.330   9.464
 1192W        W 4711   2.670   0.458   2.866
 1193W        W 4712   3.121   7.449  11.889
 1194W        W 4713   2.740   6.135   1.683
 1195W        W 4714   7.593   8.918   9.467
 1196W        W 4715   5.659   8.546  10.358
 1197W        W 4716   7.105   4.703  11.378
 1198W        W 4717   8.544   3.648   0.274
 1199W        W 4718   4.711   8.431   2.798
 1200W        W 4719   3.613   8.380  11.942
 1201W        W 4720   7.120   8.457  11.889
 1202W        W 4721   8.083   9.406   8.631
 1203W        W 4722   2.167   6.549   9.980
 1204W        W 4723   3.691   7.877   0.449
 1205W        W 4724   1.683   4.608   1.316
 1206W        W 4725   1.765   1.797   8.414
 1207W        W 4726   5.177   3.145   2.310
 1208W        W 4727   3.689   6.476   7.931
 1209W        W 4728   5.201   7.950  10.014
 1210W        W 4729   9.480   3.134   0.854
 1211W        W 4730   8.334   5.070   1.885
 1212W        W 4731   1.318   0.907  10.500
 1213W        W 4732   8.841   6.561   3.340
 1214W        W 4733   8.894   3.590  10.035
 1215W        W 4734   9.510   8.064   0.900
 1216W        W 4735   6.530   6.007  11.829
 1217W        W 4736   4.235   4.753  11.406
 1218W        W 4737   0.301   6.168   2.741
 1219W        W 4738   3.742   4.061   0.431
 1220W        W 4739   0.846   2.635   8.904
 1221W        W 4740   8.477   7.413  11.788
 1222W        W 4741   8.385   1.356   0.782
 1223W        W 4742   6.008   9.846  11.363
 1224W        W 4743   2.775   9.836  11.018
 1225W        W 4744   8.952   4.267   9.019
 1226W        W 4745   9.437   7.492   8.933
 1227W        W 4746   6.448   1.885   0.384
 1228W        W 4747   6.536   1.780   9.931
 1229W        W 4748   0.717   4.225   0.286
 1230W        W 4749   2.788   0.423   1.722
 1231W        W 4750   1.818   1.417  11.851
 1232W        W 4751   8.518   6.921   2.253
 1233W        W 4752   1.341   1.857   1.242
 1234W        W 4753   8.531   4.703   1.768
 1235W        W 4754   0.466   2.800   2.188
 1236W        W 4755   9.997   8.086  11.323
 1237W        W 4756   3.664   6.150   0.824
 1238W        W 4757   5.098   0.351  11.764
 1239W        W 4758   7.857   4.270  11.440
 1240W        W 4759   4.078   6.913   0.439
 1241W        W 4760   8.998   2.287  10.462
 1242W        W 4761   6.450   9.782   2.323
 1243W        W 4762   7.503   1.773   0.828
 1244W        W 4763   9.915   2.263  10.508
 1245W        W 4764   2.203   2.275   2.379
 1246W        W 4765   5.591   6.531   9.967
 1247W        W 4766   7.516   8.823   1.232
 1248W        W 4767   2.781   1.694  10.523
 1249W        W 4768   0.898   2.760  10.515
 1250W        W 4769   9.003   1.846  10.995
 1251W        W 4770   5.004   6.916   2.304
 1252W        W 4771   5.584   6.429  11.794
 1253W        W 4772   8.887   5.509   0.372
 1254W        W 4773   6.976   7.616   1.427
 1255W        W 4774   4.547   6.597   8.470
 1256W        W 4775   5.674   3.589   8.973
 1257W        W 4776   8.940   5.219   9.531
 1258W        W 4777   7.418   0.351   1.914
 1259W        W 4778   5.630   8.870  10.959
 1260W        W 4779   3.178   6.181   2.782
 1261W        W 4780   1.674   6.538  11.803
 1262W        W 4781   7.429   3.663   2.281
 1263W        W 4782   2.196   7.896   3.209
 1264W        W 4783   9.404   6.510   3.298
 1265W        W 4784   3.321   9.014   2.254
 1266W        W 4785   8.843   8.505   0.414
 1267W        W 4786   2.663   0.915   1.306
 1268W        W 4787   4.623   9.042   2.825
 1269W        W 4788   4.186   7.864  11.016
 1270W        W 4789   2.760   6.001   9.369
 1271W        W 4790   5.541   6.070   9.021
 1272W        W 4791   0.347   8.907   9.423
 1273W        W 4792   8.858   0.884   9.414
 1274W        W 4793   7.464   6.115   3.755
 1275W        W 4794   3.593   3.801   2.360
 1276W        W 4795   0.272   5.146   2.696
 1277W        W 4796   9.022   8.359  10.366
 1278W        W 4797   9.804   0.295  11.492
 1279W        W 4798   2.731   1.347   8.926
 1280W        W 4799   2.647   8.953   9.065
 1281W        W 4800   8.446   9.376  11.429
 1282W        W 4801   9.017   0.462   9.077
 1283W        W 4802   5.692   3.234   0.426
 1284W        W 4803   7.938   7.084  10.828
 1285W        W 4804   5.964   4.627  10.802
 1286W        W 4805   9.910   7.870  10.453
 1287W        W 4806   3.197   9.518   2.812
 1288W        W 4807   1.427   1.725  10.818
 1289W        W 4808   0.329   3.163  11.450
 1290W        W 4809   9.821   1.415   0.886
 1291W        W 4810   6.960   0.460   1.440
 1292W        W 4811   2.332   5.171   3.221
 1293W        W 4812   2.327   2.347   0.326
 1294W        W 4813   4.229   9.888   8.551
 1295W        W 4814   0.318   1.205   3.146
 1296W        W 4815   1.806   5.006   9.980
 1297W        W 4816   9.950   5.192  10.899
 1298W        W 4817   6.905   2.285   0.735
 1299W        W 4818   2.282   6.548   8.966
 1300W        W 4819   3.650   4.172   2.745
 1301W        W 4820   3.677   2.163   9.003
 1302W        W 4821   0.874   7.135  10.473
 1303W        W 4822   7.396   6.927   0.404
 1304W        W 4823   7.858   3.097   9.908
 1305W        W 4824   0.300   2.818  10.437
 1306W        W 4825   5.126   0.830   2.287
 1307W        W 4826   9.044   0.415   0.809
 1308W        W 4827   3.720   8.423   9.475
 1309W        W 4828   7.068   4.143   1.870
 1310W        W 4829   2.784   1.674   1.882
 1311W        W 4830   8.481   7.021   2.875
 1312W        W 4831   7.394   9.809  10.476
 1313W        W 4832   3.673   0.384   2.836
 1314W        W 4833   9.429   0.796  11.770
 1315W        W 4834   3.236   5.039  11.423
 1316W        W 4835   5.036   3.132   8.067
 1317W        W 4836   3.134   3.713   3.676
 1318W        W 4837   7.032   3.741   9.858
 1319W        W 4838   6.514   9.027  10.035
 1320W        W 4839   9.974   6.448  10.809
 1321W        W 4840   5.029   2.658   9.936
 1322W        W 4841   8.094   8.490   3.769
 1323W        W 4842   6.992   3.279   2.326
 1324W        W 4843   3.779   7.073   3.809
 1325W        W 4844   1.673   9.443  10.347
 1326W        W 4845   6.605   1.801   1.254
 1327W        W 4846   2.296   7.386   8.926
 1328W        W 4847   5.131   9.015   0.424
 1329W        W 4848   9.790   0.474   0.799
 1330W        W 4849   8.910   7.617  11.013
 1331W        W 4850   5.657   9.915  11.329
 1332W        W 4851   5.057   3.121  11.981
 1333W        W 4852   7.900   0.741   3.133
 1334W        W 4853   4.115   3.152   1.905
 1335W        W 4854   7.482   3.137   0.352
 1336W        W 4855   0.813   0.335   9.035
 1337W        W 4856   2.669   1.280   9.600
 1338W        W 4857   9.347   1.383   9.489
 1339W        W 4858   0.913   1.718  11.869
 1340W        W 4859   6.992   9.775   9.982
 1341W        W 4860   0.429   9.771   9.540
 1342W        W 4861   6.170   8.052   9.931
 1343W        W 4862   3.206   8.904  10.861
 1344W        W 4863   1.761   0.931   1.232
 1345W        W 4864   8.551   3.614   2.730
 1346W        W 4865   1.199   7.135   9.021
 1347W        W 4866   0.843   7.491   2.213
 1348W        W 4867   8.418   3.627  11.378
 1349W        W 4868   3.226   5.680  11.887
 1350W        W 4869   2.377   3.326  10.004
 1351W        W 4870   0.767   6.468   1.279
 1352W        W 4871   3.694   5.529   9.852
 1353W        W 4872   8.841   1.363   2.809
 1354W        W 4873   2.634   8.497  11.325
 1355W        W 4874   1.776   9.443   2.273
 1356W        W 4875   4.652   2.202  10.063
 1357W        W 4876   7.988   3.203   2.702
 1358W        W 4877   2.337   3.757  10.973
 1359W        W 4878   1.213   9.337  11.983
 1360W        W 4879   7.563   7.889  11.945
 1361W        W 4880   4.698   1.413   0.348
 1362W        W 4881   7.116   8.546   1.881
 1363W        W 4882   4.153   2.806  10.355
 1364W        W 4883   5.681   4.182   1.253
 1365W        W 4884   3.642   0.247   0.810
 1366W        W 4885   1.756   9.818  10.827
 1367W        W 4886   9.032   6.941   9.103
 1368W        W 4887   0.807   4.158   9.043
 1369W        W 4888   9.456   0.404   0.925
 1370W        W 4889   6.624   7.912   2.322
 1371W        W 4890   2.272   0.327  10.510
 1372W        W 4891   5.060   8.858  11.404
 1373W        W 4892   3.111   4.145   8.604
 1374W        W 4893   1.731   5.537  10.831
 1375W        W 4894   2.380   3.600   1.301
 1376W        W 4895   4.074   4.262   0.810
 1377W        W 4896   4.267   6.103   3.237
 1378W        W 4897   9.039   5.005  11.355
 1379W        W 4898   1.769   7.105   8.966
 1380W        W 4899   6.598   5.542   2.295
 1381W        W 4900   8.543   3.729  11.890
 1382W        W 4901   6.981   1.680  10.806
 1383W        W 4902   6.132   2.842  11.385
 1384W        W 4903   7.553   8.055   2.719
 1385W        W 4904   5.996   6.046  10.351
 1386W        W 4905   6.466   5.636  10.861
 1387W        W 4906   3.101   2.216  11.296
 1388W        W 4907   4.085   7.608   3.182
 1389W        W 4908   7.608   4.728   0.762
 1390W        W 4909   6.652   4.253   1.689
 1391W        W 4910   4.163   2.236   1.827
 1392W        W 4911   4.742   9.396   2.384
 1393W        W 4912   0.881   1.322  10.500
 1394W        W 4913   4.715   7.457   1.839
 1395W        W 4914   4.695   8.003   3.608
 1396W        W 4915   9.335   9.793  11.801
 1397W        W 4916   4.738   2.325   0.338
 1398W        W 4917   5.619   3.177   1.749
 1399W        W 4918   1.232   0.901   0.312
 1400W        W 4919   8.050   5.644   2.702
 1401W        W 4920   9.965   0.350   1.711
 1402W        W 4921   3.620   6.968   2.316
 1403W        W 4922   1.235   4.683   0.249
 1404W        W 4923   3.109   4.701  10.500
 1405W        W 4924   8.435   7.022  11.424
 1406W        W 4925   0.879   2.198  11.312
 1407W        W 4926   1.257   3.191   3.163
 1408W        W 4927   0.952   8.342   9.454
 1409W        W 4928   1.839   7.005   2.187
 1410W        W 4929   4.642   4.259   9.046
 1411W        W 4930   6.055   7.128   0.807
 1412W        W 4931   9.289   5.089   2.849
 1413W        W 4932   4.184   6.457   9.427
 1414W        W 4933   2.356   1.809   1.389
 1415W        W 4934   4.255   3.659   9.468
 1416W        W 4935   5.982   9.521   2.851
 1417W        W 4936   8.527   6.443   1.437
 1418W        W 4937   1.424   7.089   9.955
 1419W        W 4938   3.135   9.337   9.969
 1420W        W 4939   4.065   0.463   9.453
 1421W        W 4940   3.310   1.404   1.242
 1422W        W 4941   3.274   6.559   9.409
 1423W        W 4942   8.929   4.567   9.872
 1424W        W 4943   2.214   0.279   0.372
 1425W        W 4944   3.138   1.820   2.750
 1426W        W 4945   0.267   4.145  11.870
 1427W        W 4946   5.529   5.599  10.407
 1428W        W 4947   8.871   8.060   0.284
 1429W        W 4948   2.701   9.960   1.348
 1430W        W 4949   5.503   4.217   3.176
 1431W        W 4950   3.734   0.845   0.944
 1432W        W 4951   9.842   3.185   3.204
 1433W        W 4952   5.538   1.235  10.366
 1434W        W 4953   7.925   7.490   1.205
 1435W        W 4954   4.735   4.112   1.365
 1436W        W 4955   4.114   7.914  10.078
 1437W        W 4956   8.439   5.502   0.796
 1438W        W 4957   5.214   4.718  10.461
 1439W        W 4958   9.941   8.364   2.754
 1440W        W 4959   9.043   5.688  11.466
 1441W        W 4960   9.993   3.151  11.948
 1442W        W 4961   2.259   1.319   1.233
 1443W        W 4962   6.930   7.005  10.025
 1444W        W 4963   7.451   8.888   1.750
 1445W        W 4964   2.161   1.229   0.438
 1446W        W 4965   1.691   2.797   3.181
 1447W        W 4966   6.031   0.260   8.931
 1448W        W 4967   8.091   0.789   1.274
 1449W        W 4968   1.716   5.502   0.372
 1450W        W 4969   1.807   9.787   9.119
 1451W        W 4970   2.234   2.257   1.388
 1452W        W 4971   4.743   2.805   8.946
 1453W        W 4972   2.322   1.691   9.960
 1454W        W 4973   9.388   3.114   2.710
 1455W        W 4974   2.664   9.457  10.041
 1456W        W 4975   7.055   6.029   2.233
 1457W        W 4976   6.482   6.573  10.871
 1458W        W 4977   8.373   2.645   9.947
 1459W        W 4978   0.270   9.455   1.216
 1460W        W 4979   8.393   9.399   8.965
 1461W        W 4980   3.686   1.703   2.198
 1462W        W 4981   3.806   9.045   9.948
 1463W        W 4982   1.675   8.482   3.348
 1464W        W 4983   4.257   9.043   3.824
 1465W        W 4984   6.018   6.039   2.684
 1466W        W 4985   7.395   6.071   2.378
 1467W        W 4986   5.706   6.993   9.851
 1468W        W 4987   1.668   1.709   9.983
 1469W        W 4988   9.810   9.926   1.797
 1470W        W 4989   7.951   1.795  11.953
 1471W        W 4990   8.473   5.542   1.323
 1472W        W 4991   5.012   2.673   0.425
 1473W        W 4992   2.336   1.800   8.956
 1474W        W 4993   6.157   6.123   0.371
 1475W        W 4994   8.341   3.315   8.993
 1476W        W 4995   6.183   5.507   0.241
 1477W        W 4996   9.516   3.647   3.354
 1478W        W 4997   3.318   1.259   0.886
 1479W        W 4998   8.479   8.373   1.795
 1480W        W 4999   8.562   9.947   9.901
 1481W        W 5000   9.500   1.282  11.406
 1482W        W 5001   7.017   0.306   9.493
 1483W        W 5002   7.007   4.614   3.728
 1484W        W 5003   1.341   1.350   0.905
 1485W        W 5004   8.368   0.355  11.963
 1486W        W 5005   2.315   5.957  10.002
 1487W        W 5006   5.501   7.484  10.400
 1488W        W 5007   2.620   9.007   0.474
 1489W        W 5008   6.596   4.117   0.473
 1490W        W 5009   3.594   4.680   1.755
 1491W        W 5010   7.078   3.309   3.725
 1492W        W 5011   3.313   4.201   9.530
 1493W        W 5012   0.745   9.320   2.396
 1494W        W 5013   6.935   6.466   2.197
 1495W        W 5014   9.348   3.302   9.075
 1496W        W 5015   7.055   5.984   3.778
 1497W        W 5016   2.159   5.174  11.324
 1498W        W 5017   6.595   5.081  11.337
 1499W        W 5018   9.337   8.972   0.374
 1500W        W 5019   5.068   6.599   8.523
 1501W        W 5020   1.253   2.749   0.775
 1502W        W 5021   7.011   2.262   1.422
 1503W        W 5022   1.333   7.421   2.842
 1504W        W 5023   8.040   3.790   0.736
 1505W        W 5024   7.591   0.871  10.841
 1506W        W 5025   8.563   9.920   2.793
 1507W        W 5026   7.461   4.739   2.186
 1508W        W 5027   9.329   0.365  10.837
 1509W        W 5028   9.983   3.129   2.172
 1510W        W 5029   8.457   2.171  10.440
 1511W        W 5030   3.100   5.015   3.184
 1512W        W 5031   4.691   6.053   1.327
 1513W        W 5032   4.128   3.643   1.236
 1514W        W 5033   3.600   3.794   8.409
 1515W        W 5034   3.601   0.298   1.230
 1516W        W 5035   8.418   6.937  10.047
 1517W        W 5036   5.101   5.111   1.731
 1518W        W 5037   3.261   0.816   1.783
 1519W        W 5038   9.504   2.372   1.738
 1520W        W 5039   8.400   6.647   8.991
 1521W        W 5040   8.840   3.219   2.713
 1522W        W 5041   1.805   6.440   2.705
 1523W        W 5042   5.163   0.815  10.983
 1524W        W 5043   8.909   7.056   0.742
 1525W        W 5044   4.145   4.140   0.320
 1526W        W 5045   1.694   7.140   3.766
 1527W        W 5046   8.992   5.961   1.708
 1528W        W 5047   1.357   6.599   0.288
 1529W        W 5048   7.384   0.921   0.906
 1530W        W 5049   9.983   3.271   2.835
 1531W        W 5050   4.068   3.328  10.871
 1532W        W 5051   5.543   2.354   9.963
 1533W        W 5052   8.038   8.448   9.447
 1534W        W 5053   7.600   2.322   2.364
 1535W        W 5054   7.563   0.878   8.587
 1536W        W 5055   6.134   6.531   9.472
 1537W        W 5056   7.529   8.416   9.886
 1538W        W 5057   9.475   4.579  11.395
 1539W        W 5058   3.233   7.911   0.864
 1540W        W 5059   4.050   2.257   3.268
 1541W        W 5060   0.265   1.855  10.326
 1542W        W 5061   8.976   3.201   0.887
 1543W        W 5062   3.180   1.325  10.434
 1544W        W 5063   5.977   2.788  10.388
 1545W        W 5064   4.189   4.717   8.442
 1546W        W 5065   7.413   9.515   0.328
 1547W        W 5066   5.022   6.553  10.425
 1548W        W 5067   7.941   6.457   3.358
 1549W        W 5068   1.753   5.478   9.108
 1550W        W 5069   6.484   1.302  11.400
 1551W        W 5070   9.822   6.138   0.293
 1552W        W 5071   1.687   9.448   9.379
 1553W        W 5072   5.520   8.486  11.307
 1554W        W 5073   1.899   4.562  11.476
 1555W        W 5074   4.548   1.242   0.919
 1556W        W 5075   9.310   7.450   3.122
 1557W        W 5076   5.552   2.271   1.410
 1558W        W 5077   6.965   5.480   8.491
 1559W        W 5078   9.479   6.479   8.452
 1560W        W 5079   1.340   8.510  11.958
 1561W        W 5080   6.572   8.062   9.458
 1562W        W 5081   8.456   7.012   0.908
 1563W        W 5082   9.500   4.099   2.812
 1564W        W 5083   5.017   6.525  10.986
 1565W        W 5084   5.711   1.849   1.272
 1566W        W 5085   4.615   3.650   8.400
 1567W        W 5086   8.095   9.421  11.444
 1568W        W 5087   4.225   3.202   9.572
 1569W        W 5088   9.814   1.250  11.313
 1570W        W 5089   0.330   0.858   0.782
 1571W        W 5090   6.490   3.658   0.273
 1572W        W 5091   2.788   1.888  11.407
 1573W        W 5092   7.515   2.380  11.808
 1574W        W 5093   5.087   7.017   9.968
 1575W        W 5094   3.759   1.693   0.736
 1576W        W 5095   4.174   3.220   9.933
 1577W        W 5096   0.338   3.685  10.854
 1578W        W 5097   8.406   6.487  11.908
 1579W        W 5098   1.377   1.898  11.863
 1580W        W 5099   9.381   3.240   2.189
 1581W        W 5100   3.207   0.460  11.030
 1582W        W 5101   7.517   1.245  11.942
 1583W        W 5102   2.827   4.212   0.928
 1584W        W 5103   0.898   9.771   8.974
 1585W        W 5104   7.096   5.569   1.689
 1586W        W 5105   8.835   7.101   3.243
 1587W        W 5106   7.997   9.984  10.906
 1588W        W 5107   7.460   4.609  10.393
 1589W        W 5108   4.680   3.777   9.554
 1590W        W 5109   6.474   5.175   9.038
 1591W        W 5110   5.577   7.596   1.917
 1592W        W 5111   5.694   6.119  10.515
 1593W        W 5112   8.076   6.556  10.902
 1594W        W 5113   7.514   1.889   1.837
 1595W        W 5114   8.958   3.178  10.069
 1596W        W 5115   0.714   5.668   2.299
 1597W        W 5116   2.223   2.687   1.438
 1598W        W 5117   8.844   4.100   0.452
 1599W        W 5118   8.010   2.719   9.036
 1600W        W 5119   3.702   3.575   0.860
 1601W        W 5120   3.599   0.343  10.845
 1602W        W 5121   9.507   8.570   8.625
 1603W        W 5122   0.445   9.891   0.730
 1604W        W 5123   6.958   9.006  10.426
 1605W        W 5124   5.020   4.091   3.250
 1606W        W 5125   7.103   6.025  11.314
 1607W        W 5126   3.101   0.927  11.346
 1608W        W 5127   5.036   9.900  11.339
 1609W        W 5128   3.610   8.454  10.409
 1610W        W 5129   1.669   3.185   9.410
 1611W        W 5130   9.862   7.910  10.801
 1612W        W 5131   7.481   7.571   9.934
 1613W        W 5132   5.105   5.234   1.425
 1614W        W 5133   7.384   5.693  10.341
 1615W        W 5134   5.074   7.555  11.492
 1616W        W 5135   5.195   0.841  11.916
 1617W        W 5136   8.941   3.111   8.516
 1618W        W 5137   3.153   7.895  11.453
 1619W        W 5138   4.231   2.240  10.896
 1620W        W 5139   9.448   9.996   0.823
 1621W        W 5140   9.471   6.453   2.689
 1622W        W 5141   2.313   0.319   1.721
 1623W        W 5142   8.953   1.790  11.761
 1624W        W 5143   3.600   3.724   8.156
 1625W        W 5144   8.352   0.330   0.936
 1626W        W 5145   6.487   3.273  10.360
 1627W        W 5146   7.863   6.154  10.949
 1628W        W 5147   3.229   2.687   0.425
 1629W        W 5148   2.837   6.537  10.827
 1630W        W 5149   3.643   0.916   3.138
 1631W        W 5150   7.904   8.475  11.348
 1632W        W 5151   3.600   8.816  10.390
 1633W        W 5152   9.841   9.882  11.772
 1634W        W 5153   4.528   3.225  10.072
 1635W        W 5154   0.905   9.766   0.460
 1636W        W 5155   6.547   7.519   3.153
 1637W        W 5156   0.935   2.665  10.862
 1638W        W 5157   5.519   2.715   0.359
 1639W        W 5158   3.112   7.991   9.882
 1640W        W 5159   3.702   4.226  11.360
 1641W        W 5160   0.739   5.201   0.822
 1642W        W 5161   3.738   6.015   8.960
 1643W        W 5162   4.275   9.958   1.914
 1644W        W 5163   1.836   6.024   2.653
 1645W        W 5164   0.409   9.389   8.939
 1646W        W 5165   4.180   2.270   2.727
 1647W        W 5166   3.774   6.432  10.540
 1648W        W 5167   3.731   5.965  10.028
 1649W        W 5168   2.202   1.250   0.788
 1650W        W 5169   9.819   0.933   1.408
 1651W        W 5170   4.550   6.983   3.304
 1652W        W 5171   2.773   8.974   9.434
 1653W        W 5172   7.017   9.943   1.250
 1654W        W 5173   5.189   5.160   3.276
 1655W        W 5174   3.146   1.390   0.258
 1656W        W 5175   4.158   8.963  11.364
 1657W        W 5176   3.592   9.295   1.386
 1658W        W 5177   0.417   4.213   9.539
 1659W        W 5178   1.705   2.744   2.194
 1660W        W 5179   2.359   8.827   8.894
 1661W        W 5180   1.236   7.594   9.976
 1662W        W 5181   9.923   8.023   2.350
 1663W        W 5182   8.054   5.586   0.862
 1664W        W 5183   0.784   0.861  10.020
 1665W        W 5184   1.404   4.663  11.816
 1666W        W 5185   4.204   8.511   0.777
 1667W        W 5186   5.013   5.997   0.361
 1668W        W 5187   2.848   6.436   9.945
 1669W        W 5188   0.795   7.139   9.547
 1670W        W 5189   8.000   7.120   2.297
 1671W        W 5190   9.953   2.203   9.467
 1672W        W 5191   1.849   9.854   9.368
 1673W        W 5192   8.989   0.906   2.724
 1674W        W 5193   4.610   5.125   1.817
 1675W        W 5194   7.492   9.429   0.826
 1676W        W 5195   5.646   3.789  11.898
 1677W        W 5196   6.469   5.958   2.231
 1678W        W 5197   7.414   0.273  11.867
 1679W        W 5198   6.638   0.455   9.600
 1680W        W 5199   0.432   8.899  10.079
 1681W        W 5200   8.001   0.296   2.758
 1682W        W 5201   2.664   5.571   3.181
 1683W        W 5202   7.132   1.801   2.769
 1684W        W 5203   6.133   4.617   3.201
 1685W        W 5204   0.918   2.328   9.848
 1686W        W 5205   2.649   9.481   1.328
 1687W        W 5206   5.208   5.071  11.988
 1688W        W 5207   9.505   9.921   3.821
 1689W        W 5208   5.583   2.718   9.423
 1690W        W 5209   7.539   8.938  10.919
 1691W        W 5210   6.468   4.747   4.136
 1692W        W 5211   6.906   8.088  11.821
 1693W        W 5212   6.046   7.470  10.993
 1694W        W 5213   6.515   7.003   8.956
 1695W        W 5214   3.727   7.391   0.829
 1696W        W 5215   7.979   9.458   1.836
 1697W        W 5216   7.082   5.982   9.856
 1698W        W 5217   0.918   3.693   2.774
 1699W        W 5218   4.592   6.617   2.273
 1700W        W 5219   6.926   0.459  10.373
 1701W        W 5220   8.418   8.900  10.037
 1702W        W 5221   4.277   9.000   2.783
 1703W        W 5222   8.093   9.001   0.331
 1704W        W 5223   3.292   9.378   3.136
 1705W        W 5224   9.965   6.552  10.459
 1706W        W 5225   8.414   3.257  11.901
 1707W        W 5226   2.290   1.300   1.856
 1708W        W 5227   6.945   6.938  11.310
 1709W        W 5228   9.956   7.030   3.188
 1710W        W 5229   3.222   6.469   8.541
 1711W        W 5230   0.730   8.049  10.833
 1712W        W 5231   1.384   3.174  11.282
 1713W        W 5232   1.708   1.279   8.968
 1714W        W 5233   9.776   7.617   9.118
 1715W        W 5234   5.957   9.449  11.794
 1716W        W 5235   4.187   7.019  10.528
 1717W        W 5236   3.129   0.244   9.999
 1718W        W 5237   0.793   8.416   1.230
 1719W        W 5238   8.063   0.293   9.882
 1720W        W 5239   9.351   8.972   3.246
 1721W        W 5240   5.022   8.439  11.294
 1722W        W 5241   2.658   8.426  10.528
 1723W        W 5242   5.985   9.351   1.299
 1724W        W 5243   8.458   7.528   2.659
 1725W        W 5244   0.930   4.065   1.245
 1726W        W 5245   2.379   0.896   1.324
 1727W        W 5246   9.816   8.524   3.200
 1728W        W 5247   5.050   7.951   9.509
 1729W        W 5248   8.428   1.889   0.730
 1730W        W 5249   0.269   5.478   0.478
 1731W        W 5250   0.425   7.949   0.763
 1732W        W 5251   6.068   5.999   1.271
 1733W        W 5252   8.890   8.868  10.904
 1734W        W 5253   4.059   9.867   0.749
 1735W        W 5254   5.222   7.517  10.864
 1736W        W 5255   6.490   0.409   2.173
 1737W        W 5256   3.703   5.104  10.994
 1738W        W 5257   1.823   2.682   9.040
 1739W        W 5258   7.563   0.246   9.965
 1740W        W 5259   1.886   7.896  10.432
 1741W        W 5260   4.677   6.186   4.126
 1742W        W 5261   2.157   2.718  11.311
 1743W        W 5262   9.962   7.568   3.299
 1744W        W 5263   1.247   5.216   0.296
 1745W        W 5264   6.984   7.884   3.227
 1746W        W 5265   2.151   7.515  11.324
 1747W        W 5266   5.994   9.509   8.950
 1748W        W 5267   8.561   3.243  10.032
 1749W        W 5268   4.568   7.914  10.030
 1750W        W 5269   4.670   9.473   1.270
 1751W        W 5270   3.103   1.864   9.913
 1752W        W 5271   6.596   5.058   1.736
 1753W        W 5272   4.272   5.081  11.004
 1754W        W 5273   3.226   6.957   0.854
 1755W        W 5274   9.292   1.845  11.420
 1756W        W 5275   5.193   5.573   8.537
 1757W        W 5276   3.166   6.079   0.859
 1758W        W 5277   5.141   9.928   1.802
 1759W        W 5278   1.244   0.291   1.791
 1760W        W 5279   9.046   6.635   2.311
 1761W        W 5280   7.064   0.918   2.268
 1762W        W 5281   7.610   4.682   9.502
 1763W        W 5282   3.668   4.567  10.443
 1764W        W 5283   8.376   2.658   0.424
 1765W        W 5284   1.219   3.305   2.286
 1766W        W 5285   2.678   8.845   1.832
 1767W        W 5286   1.221   9.306  10.891
 1768W        W 5287   3.317   3.214   2.833
 1769W        W 5288   2.693   5.545   9.031
 1770W        W 5289   8.475   4.614   8.499
 1771W        W 5290   1.267   6.003   1.853
 1772W        W 5291   2.158   0.396   9.437
 1773W        W 5292   1.817   9.426  10.930
 1774W        W 5293   9.763   6.495   1.410
 1775W        W 5294   9.008   6.598   2.806
 1776W        W 5295   8.941   3.169  11.366
 1777W        W 5296   5.556   4.203   3.830
 1778W        W 5297   7.131   8.823   8.920
 1779W        W 5298   0.432   5.496   2.854
 1780W        W 5299   7.529   9.836   1.803
 1781W        W 5300   0.851   5.236   1.813
 1782W        W 5301   6.510   9.954   2.716
 1783W        W 5302   6.985   1.413   1.333
 1784W        W 5303   7.038   9.977  10.447
 1785W        W 5304   1.249   3.307  10.895
 1786W        W 5305   5.536   9.036   1.876
 1787W        W 5306   1.341   4.052   1.324
 1788W        W 5307   5.077   1.730   2.172
 1789W        W 5308   7.885   9.930   3.285
 1790W        W 5309   3.117   0.858   9.851
 1791W        W 5310   6.008   0.242   0.764
 1792W        W 5311   9.791   2.840   1.694
 1793W        W 5312   6.028   6.560   3.186
 1794W        W 5313   6.527   9.010   0.294
 1795W        W 5314   4.160   7.986   8.621
 1796W        W 5315   3.299   6.119   9.387
 1797W        W 5316   8.075   1.394   0.257
 1798W        W 5317   7.598   9.927   9.406
 1799W        W 5318   1.668   7.432   0.818
 1800W        W 5319   6.013   3.623  11.905
 1801W        W 5320   5.549   0.864   3.232
 1802W        W 5321   4.690   1.278  10.035
 1803W        W 5322   2.839   1.746  10.958
 1804W        W 5323   7.979   7.065   2.673
 1805W        W 5324   3.151   5.684   9.927
 1806W        W 5325   2.843   3.229   0.311
 1807W        W 5326   4.218   1.794  10.055
 1808W        W 5327   2.799   9.466   8.485
 1809W        W 5328   5.232   6.166   8.546
 1810W        W 5329   7.975   8.825  10.505
 1811W        W 5330   1.370   4.077  11.016
 1812W        W 5331   5.057   4.731   3.708
 1813W        W 5332   8.055   4.057   3.713
 1814W        W 5333   5.620   6.076   7.990
 1815W        W 5334   8.545   0.829  11.865
 1816W        W 5335   1.347   6.597   2.756
 1817W        W 5336   3.712   5.494  10.521
 1818W        W 5337   6.591   7.990   0.422
 1819W        W 5338   6.630   5.953   8.469
 1820W        W 5339   4.672   9.496  10.811
 1821W        W 5340   9.921   9.316   8.530
 1822W        W 5341   8.944   7.575   1.863
 1823W        W 5342   8.567   4.737   9.582
 1824W        W 5343   9.016   5.993  10.975
 1825W        W 5344   3.722   5.617   2.845
 1826W        W 5345   1.339   2.280  10.954
 1827W        W 5346   6.640   2.153   9.446
 1828W        W 5347   0.901   1.795   1.393
 1829W        W 5348   1.226   5.040  11.400
 1830W        W 5349   2.744   3.300   2.242
 1831W        W 5350   9.880   4.109   1.220
 1832W        W 5351   3.184   0.258   0.940
 1833W        W 5352   3.577   1.314   1.223
 1834W        W 5353   8.985   3.738   8.915
 1835W        W 5354   3.744   7.139   1.271
 1836W        W 5355   0.450   1.831   9.421
 1837W        W 5356   4.528   8.456   0.314
 1838W        W 5357   4.615   6.973  10.020
 1839W        W 5358   3.572   0.736  11.839
 1840W        W 5359   0.249   8.075   0.385
 1841W        W 5360   4.073   0.336   2.277
 1842W        W 5361   7.574   9.921   2.691
 1843W        W 5362   5.008   6.027   0.896
 1844W        W 5363   4.605   8.536  10.876
 1845W        W 5364   6.031   1.337  10.847
 1846W        W 5365   6.068   2.175   3.174
 1847W        W 5366   6.006   4.078   8.474
 1848W        W 5367   0.758   3.578  10.400
 1849W        W 5368   4.662   6.954   2.756
 1850W        W 5369   7.557   5.032   9.858
 1851W        W 5370   5.177   6.161  10.526
 1852W        W 5371   7.411   1.340  10.504
 1853W        W 5372   9.779   6.944   1.799
 1854W        W 5373   2.642   5.994  11.873
 1855W        W 5374   6.470   7.858   3.332
 1856W        W 5375   8.551   3.621   9.032
 1857W        W 5376   2.731   4.227   0.251
 1858W        W 5377   8.509   1.391  10.554
 1859W        W 5378   8.847   5.591   9.539
 1860W        W 5379   1.226   3.702   0.444
 1861W        W 5380   8.339   5.017   2.860
 1862W        W 5381   2.673   4.201   8.959
 1863W        W 5382   0.733   0.285  11.852
 1864W        W 5383   7.120   2.782   8.986
 1865W        W 5384   1.310   5.563   8.975
 1866W        W 5385   3.608   4.060   2.347
 1867W        W 5386   9.789   1.864  10.888
 1868W        W 5387   6.054   6.559   8.622
 1869W        W 5388   5.631   8.391   0.814
 1870W        W 5389   9.779   3.295   1.717
 1871W        W 5390   4.083   9.361   1.920
 1872W        W 5391   9.345   5.601  10.818
 1873W        W 5392   2.636   8.417   0.823
 1874W        W 5393   2.352   0.349   9.076
 1875W        W 5394   8.429   5.986   2.354
 1876W        W 5395   6.937   2.226   2.753
 1877W        W 5396   0.949   3.647   0.869
 1878W        W 5397   9.002   5.592  10.812
 1879W        W 5398   5.714   5.203  10.065
 1880W        W 5399   8.829   0.413   0.410
 1881W        W 5400   2.770   3.300   0.940
 1882W        W 5401   1.854   2.733  10.976
 1883W        W 5402   7.532   1.341   9.916
 1884W        W 5403   9.474   4.119   3.701
 1885W        W 5404   6.636   5.693   2.698
 1886W        W 5405   3.255   8.876   0.892
 1887W        W 5406   7.446   5.584  11.515
 1888W        W 5407   3.755   2.677   9.547
 1889W        W 5408   9.971   9.373  10.811
 1890W        W 5409   9.842   3.609  11.982
 1891W        W 5410   6.482   9.848   1.264
 1892W        W 5411   4.723   1.372  10.426
 1893W        W 5412   5.685   4.592   2.740
 1894W        W 5413   1.843   7.893   2.259
 1895W        W 5414   2.250   4.758   2.197
 1896W        W 5415   0.918   6.564  10.951
 1897W        W 5416   9.805   5.238  11.387
 1898W        W 5417   2.220   9.851   9.859
 1899W        W 5418   3.765   2.857   0.931
 1900W        W 5419   2.345   7.052   0.833
 1901W        W 5420   8.555   6.079   0.244
 1902W        W 5421   3.782   6.619   0.766
 1903W        W 5422   0.434   4.254   9.023
 1904W        W 5423   4.082   8.919  10.988
 1905W        W 5424   3.128   0.902   3.305
 1906W        W 5425   0.435   2.257   1.357
 1907W        W 5426   9.386   9.453  10.845
 1908W        W 5427   8.036   1.833   2.226
 1909W        W 5428   6.626   9.408   0.779
 1910W        W 5429   8.418   6.634  11.486
 1911W        W 5430   2.325   8.451   0.289
 1912W        W 5431   6.947   9.839   9.443
 1913W        W 5432   7.437   2.176  10.389
 1914W        W 5433   2.643   6.989  11.315
 1915W        W 5434   4.612   4.740   9.891
 1916W        W 5435   4.562   1.344   2.815
 1917W        W 5436   0.302   0.402   9.110
 1918W        W 5437   9.512   6.055  11.491
 1919W        W 5438   1.290   9.395   1.749
 1920W        W 5439   3.670   9.310  10.348
 1921W        W 5440   4.697   9.467   0.726
 1922W        W 5441   8.372   7.871  11.439
 1923W        W 5442   0.453   3.724   9.844
 1924W        W 5443   8.471   8.499   9.862
 1925W        W 5444   8.913   5.619  11.806
 1926W        W 5445   8.836   2.789   1.865
 1927W        W 5446   4.074   7.415   9.416
 1928W        W 5447   8.411   8.057  10.430
 1929W        W 5448   7.921   5.609   1.830
 1930W        W 5449   3.220   4.101   9.103
 1931W        W 5450   8.019   6.640   8.451
 1932W        W 5451   2.833   5.067   1.271
 1933W        W 5452   5.523   9.844   1.901
 1934W        W 5453   8.069   0.419   2.222
 1935W        W 5454   0.349   6.163   8.932
 1936W        W 5455   4.574   8.564   1.391
 1937W        W 5456   8.419   8.469   9.367
 1938W        W 5457   1.773   6.514   8.918
 1939W        W 5458   2.270   3.315   0.838
 1940W        W 5459   6.521   4.630  11.939
 1941W        W 5460   0.848   2.166   2.200
 1942W        W 5461   5.140   0.810   9.087
 1943W        W 5462   4.619   2.855   3.142
 1944W        W 5463   7.865   7.996   3.170
 1945W        W 5464   8.413   4.189   1.256
 1946W        W 5465   9.959   7.021   0.310
 1947W        W 5466   1.252   6.445   9.590
 1948W        W 5467   6.590   0.769   0.855
 1949W        W 5468   1.755   7.420   2.191
 1950W        W 5469   4.224   3.716   2.281
 1951W        W 5470   1.229   8.344   9.990
 1952W        W 5471   4.581   1.898   9.398
 1953W        W 5472   5.710   9.861   9.937
 1954W        W 5473   1.724   4.051   9.975
 1955W        W 5474   9.317   6.148  10.963
 1956W        W 5475   6.069   4.740   0.328
 1957W        W 5476   8.981   7.581   1.340
 1958W        W 5477   7.398   0.846   9.906
 1959W        W 5478   9.927   9.443   0.437
 1960W        W 5479   5.174   6.495   2.325
 1961W        W 5480   7.140   1.200   1.757
 1962W        W 5481   1.375   6.982   8.431
 1963W        W 5482   4.666   7.897   1.214
 1964W        W 5483   0.258   3.759  11.404
 1965W        W 5484   0.393   2.378  11.439
 1966W        W 5485   5.981   9.408  11.019
 1967W        W 5486   5.561   1.853   0.952
 1968W        W 5487   7.440   7.503   2.787
 1969W        W 5488   4.154   3.113   2.339
 1970W        W 5489   9.037   9.342   0.942
 1971W        W 5490   0.913   5.667   2.804
 1972W        W 5491   1.795   5.132   2.394
 1973W        W 5492   5.069   2.851   4.281
 1974W        W 5493   4.753   7.046   1.203
 1975W        W 5494   2.268   3.634  11.368
 1976W        W 5495   8.396   3.691   3.344
 1977W        W 5496   6.511   8.901   3.353
 1978W        W 5497   1.346   7.933   2.800
 1979W        W 5498   3.573   4.213   8.107
 1980W        W 5499   6.446   5.584   3.835
 1981W        W 5500   8.444   4.630   0.264
 1982W        W 5501   9.815   9.960  10.384
 1983W        W 5502   5.203   3.722   0.845
 1984W        W 5503   5.553   7.918   2.333
 1985W        W 5504   5.617   7.411  11.805
 1986W        W 5505   2.735   8.557   2.732
 1987W        W 5506   2.634   1.780   3.346
 1988W        W 5507   4.702   2.359  10.401
 1989W        W 5508   5.652   9.287   3.191
 1990W        W 5509   6.929   9.001   1.276
 1991W        W 5510   8.446   7.082  10.426
 1992W        W 5511   0.421   4.158   1.819
 1993W        W 5512   9.954   0.788   3.306
 1994W        W 5513   5.153   9.287   2.812
 1995W        W 5514   1.249   8.348  10.440
 1996W        W 5515   9.807   2.306   3.255
 1997W        W 5516   0.910   0.717   0.356
 1998W        W 5517   1.668   8.988   1.359
 1999W        W 5518   5.633   6.958   3.736
 2000W        W 5519   7.529   1.212   1.378
 2001W        W 5520   5.997   0.732  11.791
 2002W        W 5521   8.083   0.395  10.448
 2003W        W 5522   0.423   1.773   1.366
 2004W        W 5523   5.547   5.076  11.349
 2005W        W 5524   2.296   4.225   0.943
 2006W        W 5525   7.579   7.391  10.422
 2007W        W 5526   4.698   9.855   0.362
 2008W        W 5527   7.424   2.160   9.046
 2009W        W 5528   7.052   5.609   4.191
 2010W        W 5529   1.220   2.205   1.204
 2011W        W 5530   4.090   5.184   3.310
 2012W        W 5531   3.675   5.523   7.930
 2013W        W 5532   0.847   7.017   3.333
 2014W        W 5533   0.363   3.582   3.736
 2015W        W 5534   9.014   8.027  11.837
 2016W        W 5535   5.605   4.257  11.517
 2017W        W 5536   2.709   7.895  10.804
 2018W        W 5537   5.662   1.297   3.628
 2019W        W 5538   4.178   4.592   1.743
 2020W        W 5539   5.189   7.031   3.235
 2021W        W 5540   9.468   7.868  10.945
 2022W        W 5541   9.504   8.959  11.026
 2023W        W 5542   6.035   8.979   0.451
 2024W        W 5543   0.261   7.459   0.335
 2025W        W 5544   8.090   3.254   9.566
 2026W        W 5545   6.021   7.880   0.737
 2027W        W 5546   2.784   7.603  11.373
 2028W        W 5547   0.441   2.646   1.824
 2029W        W 5548   6.981   6.011  11.911
 2030W        W 5549   7.005   7.572   8.933
 2031W        W 5550   2.828   9.878   9.062
 2032W        W 5551   7.107   3.687   8.638
 2033W        W 5552   1.895   8.955   9.480
 2034W        W 5553   5.639   3.632   9.885
 2035W        W 5554   6.033   7.468   1.692
 2036W        W 5555   6.099   4.076   4.097
 2037W        W 5556   6.646   7.431   9.552
 2038W        W 5557   2.213   2.780   0.244
 2039W        W 5558   7.896   2.330   9.100
 2040W        W 5559   8.980   7.880   1.821
 2041W        W 5560   0.731   5.077  11.431
 2042W        W 5561   5.193   0.717   2.724
 2043W        W 5562   5.985   7.404   0.357
 2044W        W 5563   6.121   0.876  11.347
 2045W        W 5564   3.162   6.608   0.811
 2046W        W 5565   9.876   2.182   1.889
 2047W        W 5566   8.857   3.697   9.399
 2048W        W 5567   0.922   7.022  11.787
 2049W        W 5568   2.307   3.637   2.343
 2050W        W 5569   0.771   7.107   8.946
 2051W        W 5570   1.201   7.575   9.595
 2052W        W 5571   2.803   7.114   9.365
 2053W        W 5572   2.847   3.785   9.890
 2054W        W 5573   7.134   3.151   3.248
 2055W        W 5574   5.233   7.074  11.375
 2056W        W 5575   7.094   8.508   0.756
 2057W        W 5576   6.592   3.668   2.784
 2058W        W 5577   9.894   9.502   8.901
 2059W        W 5578   0.299   7.037   2.842
 2060W        W 5579   9.873   7.532   2.240
 2061W        W 5580   2.743   3.626   1.798
 2062W        W 5581   9.349   1.865   0.471
 2063W        W 5582   9.357   2.192  10.940
 2064W        W 5583   0.320   6.486   2.235
 2065W        W 5584   3.619   4.089   8.593
 2066W        W 5585   2.673   6.055  11.355
 2067W        W 5586   8.018   5.478   0.280
 2068W        W 5587   4.533   8.441   2.289
 2069W        W 5588   4.211   7.081  11.482
 2070W        W 5589   9.826   9.029   2.758
 2071W        W 5590   5.095   8.466   1.342
 2072W        W 5591   5.518   5.103   8.640
 2073W        W 5592   1.812   8.382   0.955
 2074W        W 5593   2.743   8.940   0.764
 2075W        W 5594   9.467   5.604   2.228
 2076W        W 5595   1.792   1.865   3.631
 2077W        W 5596   0.739   6.650   3.194
 2078W        W 5597   7.033   0.846   3.189
 2079W        W 5598   0.383   2.752   2.823
 2080W        W 5599   7.955   2.178   0.874
 2081W        W 5600   1.763   7.594   1.225
 2082W        W 5601   9.314   0.467   1.426
 2083W        W 5602   6.072   3.722   3.131
 2084W        W 5603   5.223   4.563   2.231
 2085W        W 5604   5.699   3.172   3.311
 2086W        W 5605   5.130   7.439   0.931
 2087W        W 5606   6.661   9.915   3.181
 2088W        W 5607   5.196   7.435   3.335
 2089W        W 5608   3.316   2.827  11.035
 2090W        W 5609   0.718   5.657   9.081
 2091W        W 5610   0.767   1.204   0.740
 2092W        W 5611   5.565   1.409  10.902
 2093W        W 5612   9.458   7.128   1.248
 2094W        W 5613   3.680   3.660   0.279
 2095W        W 5614   2.784   4.267   1.364
 2096W        W 5615   7.986   8.443   2.677
 2097W        W 5616   8.871   2.312  11.408
 2098W        W 5617   0.778   2.810   3.240
 2099W        W 5618   6.587   7.538   1.768
 2100W        W 5619   8.402   1.297   8.475
 2101W        W 5620   0.869   4.065   1.723
 2102W        W 5621   7.594   5.019  11.298
 2103W        W 5622   8.876   1.226   9.892
 2104W        W 5623   3.253   2.628   0.850
 2105W        W 5624   6.105   8.034  10.845
 2106W        W 5625   0.278   1.315   9.387
 2107W        W 5626   2.793   6.464  10.474
 2108W        W 5627   7.101   7.391   3.355
 2109W        W 5628   7.445   1.892  10.044
 2110W        W 5629   5.121   8.570   1.681
 2111W        W 5630   7.964   8.895   2.167
 2112W        W 5631   4.125   3.170   9.109
 2113W        W 5632   9.504   5.150  11.468
 2114W        W 5633   1.871   2.251  11.004
 2115W        W 5634   0.270   1.284  10.334
 2116W        W 5635   0.419   9.333   3.178
 2117W        W 5636   4.091   4.099  11.941
 2118W        W 5637   7.568   2.703   0.467
 2119W        W 5638   9.310   7.007  10.353
 2120W        W 5639   2.274   6.126   2.875
 2121W        W 5640   5.636   7.083   8.436
 2122W        W 5641   7.141   2.305   0.344
 2123W        W 5642   8.370   3.140   0.335
 2124W        W 5643   3.616   4.127   1.301
 2125W        W 5644   9.764   2.189   1.383
 2126W        W 5645   0.935   2.700   1.792
 2127W        W 5646   5.166   3.733  11.431
 2128W        W 5647   2.285   2.729   2.369
 2129W        W 5648   5.148   8.424   0.744
 2130W        W 5649   2.623   1.237   1.391
 2131W        W 5650   6.527   7.431   0.949
 2132W        W 5651   5.639   5.710  11.946
 2133W        W 5652   8.943   2.380  10.868
 2134W        W 5653   1.753   6.483   9.879
 2135W        W 5654   6.505   3.659  10.322
 2136W        W 5655   0.723   5.071   2.356
 2137W        W 5656   0.754   1.413  11.913
 2138W        W 5657   0.393   5.025   3.172
 2139W        W 5658   9.004   5.577   9.059
 2140W        W 5659   5.681   9.904  11.014
 2141W        W 5660   5.027   5.062   0.340
 2142W        W 5661   4.220   7.876   1.709
 2143W        W 5662   2.348   4.740   2.759
 2144W        W 5663   1.844   6.917   2.750
 2145W        W 5664   7.964   8.551   0.859
 2146W        W 5665   8.523   9.481   8.560
 2147W        W 5666   1.843   5.231  11.520
 2148W        W 5667   5.607   8.506   2.206
 2149W        W 5668   3.277   2.268   8.924
 2150W        W 5669   4.641   8.495   9.054
 2151W        W 5670   1.728   9.512  11.379
 2152W        W 5671   9.012   6.966   2.773
 2153W        W 5672   2.625   3.238  10.467
 2154W        W 5673   6.651   4.147   3.176
 2155W        W 5674   8.920   5.030   3.239
 2156W        W 5675   6.180   5.983   4.242
 2157W        W 5676   8.510   8.001   1.807
 2158W        W 5677   0.730   5.985   0.736
 2159W        W 5678   1.424   2.663  10.342
 2160W        W 5679   7.533   9.990   9.070
 2161W        W 5680   0.270   9.426   1.697
 2162W        W 5681   1.744   9.011  10.873
 2163W        W 5682   3.211   5.484   1.434
 2164W        W 5683   3.208   0.363   8.945
 2165W        W 5684   3.263   9.817   3.163
 2166W        W 5685   7.499   1.667   8.948
 2167W        W 5686   2.221   4.708   8.985
 2168W        W 5687   8.366   5.198   9.037
 2169W        W 5688   0.345   8.912   0.379
 2170W        W 5689   9.781   4.117  10.004
 2171W        W 5690   5.965   1.690   0.251
 2172W        W 5691   3.619   0.445   2.354
 2173W        W 5692   4.201   0.445   0.771
 2174W        W 5693   9.326   9.015   0.728
 2175W        W 5694   3.725   9.423  10.070
 2176W        W 5695   0.845   4.741  11.344
 2177W        W 5696   8.023   6.584   1.220
 2178W        W 5697   1.364   4.145  10.560
 2179W        W 5698   9.314   2.755   0.284
 2180W        W 5699   3.680   1.262   0.794
 2181W        W 5700   2.259   5.674   1.401
 2182W        W 5701   0.413   7.876   2.754
 2183W        W 5702   4.117   1.855   8.516
 2184W        W 5703   9.468   0.323   3.296
 2185W        W 5704   0.843   6.593   9.948
 2186W        W 5705   6.018   9.941  11.836
 2187W        W 5706   6.176   6.429   9.930
 2188W        W 5707   9.306   6.985   0.342
 2189W        W 5708   2.159   9.829   0.338
 2190W        W 5709   6.506   3.295   1.692
 2191W        W 5710   8.029   4.602   0.773
 2192W        W 5711   4.570   7.478   9.556
 2193W        W 5712   7.938   1.397   9.062
 2194W        W 5713   7.037   2.844  11.773
 2195W        W 5714   3.663   6.471   3.146
 2196W        W 5715   6.998   5.148   2.782
 2197W        W 5716   6.963   2.848  11.450
 2198W        W 5717   9.494   9.458   8.467
 2199W        W 5718   8.863   4.648   9.040
 2200W        W 5719   6.148   8.433   1.831
 2201W        W 5720   3.718   7.414   2.665
 2202W        W 5721   6.570   3.247   2.378
 2203W        W 5722   6.631   5.010   0.348
 2204W        W 5723   6.025   5.499  10.450
 2205W        W 5724   9.783   0.793   9.893
 2206W        W 5725   2.318   0.815   0.460
 2207W        W 5726   2.842   8.366  11.869
 2208W        W 5727   1.256   6.991   9.479
 2209W        W 5728   2.802   8.988   1.303
 2210W        W 5729   7.548   4.239  10.432
 2211W        W 5730   8.343   0.828   1.301
 2212W        W 5731   6.179   7.456  11.942
 2213W        W 5732   0.732   2.290  11.860
 2214W        W 5733   2.655   5.197   3.703
 2215W        W 5734   5.174   8.463   9.870
 2216W        W 5735   0.247   7.453   9.018
 2217W        W 5736   7.553   2.286   9.923
 2218W        W 5737   9.493   3.759   1.803
 2219W        W 5738   9.887   1.800   1.686
 2220W        W 5739   2.146   8.024   3.752
 2221W        W 5740   9.808   2.207   0.902
 2222W        W 5741   5.556   8.891  10.018
 2223W        W 5742   5.203   4.171   2.869
 2224W        W 5743   1.226   7.073  11.282
 2225W        W 5744   3.624   5.208   0.392
 2226W        W 5745   3.774   3.289  10.353
 2227W        W 5746   8.444   0.811   9.915
 2228W        W 5747   7.616   6.098   1.269
 2229W        W 5748   2.708   6.492  11.482
 2230W        W 5749   8.834   7.908   9.949
 2231W        W 5750   7.116   9.849   1.885
 2232W        W 5751   4.566   9.895  10.944
 2233W        W 5752   4.640   9.774   9.929
 2234W        W 5753   5.480   6.522   3.258
 2235W        W 5754   9.394   7.435   2.296
 2236W        W 5755   9.932   3.112   0.867
 2237W        W 5756   4.617   6.612  10.924
 2238W        W 5757   5.071   6.001  10.853
 2239W        W 5758   3.228   2.297   3.810
 2240W        W 5759   4.699   5.182   1.373
 2241W        W 5760   0.868   5.530   0.829
 2242W        W 5761   9.297   7.074  11.837
 2243W        W 5762   2.166   0.804  11.466
 2244W        W 5763   6.516   7.993   3.685
 2245W        W 5764   4.633   7.953  11.392
 2246W        W 5765   1.826   4.065  10.333
 2247W        W 5766   3.784   9.340  10.820
 2248W        W 5767   0.809   0.849  10.857
 2249W        W 5768   6.015   9.833   9.385
 2250W        W 5769   9.348   8.841   8.997
 2251W        W 5770   7.506   6.610   9.575
 2252W        W 5771   5.678   8.493   1.252
 2253W        W 5772   7.556   2.756   0.906
 2254W        W 5773   7.423   1.721  11.954
 2255W        W 5774   8.891   3.781   0.251
 2256W        W 5775   3.677   5.219   4.126
 2257W        W 5776   0.842   9.512   9.849
 2258W        W 5777   7.412   9.391  10.992
 2259W        W 5778   8.046   3.601   1.865
 2260W        W 5779   8.070   7.905  10.838
 2261W        W 5780   7.863   9.441  10.324
 2262W        W 5781   2.668   0.947  11.390
 2263W        W 5782   0.400   8.857   9.095
 2264W        W 5783   3.597   3.176   0.843
 2265W        W 5784   1.901   5.080   1.702
 2266W        W 5785   6.617   6.997   0.723
 2267W        W 5786   9.944   8.837   1.754
 2268W        W 5787   0.906   9.792   9.593
 2269W        W 5788   1.818   4.049  11.020
 2270W        W 5789   9.462   0.278  10.370
 2271W        W 5790   4.740   4.556   2.210
 2272W        W 5791   6.177   3.291   3.329
 2273W        W 5792   0.807   3.715   9.069
 2274W        W 5793   7.930   8.006   8.487
 2275W        W 5794   2.366   9.357  11.872
 2276W        W 5795   1.303   8.868   1.760
 2277W        W 5796   1.246   9.023   2.737
 2278W        W 5797   9.984   9.410   0.916
 2279W        W 5798   8.552   1.827  11.345
 2280W        W 5799   8.410   5.114   0.429
 2281W        W 5800   5.959   1.310  10.540
 2282W        W 5801   0.877   8.909  10.514
 2283W        W 5802   7.104   4.715   9.499
 2284W        W 5803   1.245   5.084   9.503
 2285W        W 5804   0.729   1.744  10.996
 2286W        W 5805   4.638   4.677   3.204
 2287W        W 5806   2.627   3.741   2.863
 2288W        W 5807   2.263   7.133  11.836
 2289W        W 5808   8.453   8.471   1.400
 2290W        W 5809   4.259   7.453   2.372
 2291W        W 5810   2.780   2.302  11.852
 2292W        W 5811   0.948   3.168   0.854
 2293W        W 5812   6.085   2.370   9.079
 2294W        W 5813   9.489   5.708  11.902
 2295W        W 5814   1.699   0.807  11.948
 2296W        W 5815   0.871   9.300   0.380
 2297W        W 5816   8.979   2.772   3.247
 2298W        W 5817   6.453   1.363   9.027
 2299W        W 5818   5.961   5.662   3.831
 2300W        W 5819   3.766   4.754   8.536
 2301W        W 5820   8.046   8.979   0.909
 2302W        W 5821   2.374   4.258   0.429
 2303W        W 5822   8.984   8.382   2.378
 2304W        W 5823   4.273   6.180  10.930
 2305W        W 5824   5.619   7.939  11.442
 2306W        W 5825   2.653   7.402  10.497
 2307W        W 5826   6.615   0.436   9.892
 2308W        W 5827   8.053   8.010   9.039
 2309W        W 5828   2.341   8.515   9.530
 2310W        W 5829   1.271   5.961   3.297
 2311W        W 5830   8.044   3.622  10.073
 2312W        W 5831   6.487   8.363  10.484
 2313W        W 5832   3.303   7.084  10.026
 2314W        W 5833   0.363   8.923   0.835
 2315W        W 5834   8.377   3.707   9.926
 2316W        W 5835   8.538   4.210   3.250
 2317W        W 5836   8.535   6.631  10.506
 2318W        W 5837   5.501   7.501   9.442
 2319W        W 5838   8.875   8.001   2.856
 2320W        W 5839   4.190   2.625  11.948
 2321W        W 5840   7.909   8.881  10.871
 2322W        W 5841   1.274   4.176   0.768
 2323W        W 5842   3.312   5.690   3.805
 2324W        W 5843   6.005   8.392  10.923
 2325W        W 5844   6.496   3.120   1.351
 2326W        W 5845   9.315   7.047   8.576
 2327W        W 5846   6.641   3.752  11.031
 2328W        W 5847   9.981   4.062   2.834
 2329W        W 5848   8.444   3.164  10.872
 2330W        W 5849   1.387   7.119   2.337
 2331W        W 5850   3.151   3.774   2.752
 2332W        W 5851   2.180   6.052  10.484
 2333W        W 5852   0.407   7.566   0.838
 2334W        W 5853   7.964   7.126  10.040
 2335W        W 5854   9.936   8.398  10.048
 2336W        W 5855   3.281   6.001  10.009
 2337W        W 5856   6.158   8.878  10.340
 2338W        W 5857   3.691   3.733  11.369
 2339W        W 5858   7.402   5.096   9.407
 2340W        W 5859   0.412   0.365   1.415
 2341W        W 5860   3.172   0.302   8.600
 2342W        W 5861   5.485   5.594   8.531
 2343W        W 5862   7.437   1.272   9.116
 2344W        W 5863   5.554   5.623   8.961
 2345W        W 5864   9.369   6.977   2.762
 2346W        W 5865   9.882   3.688   2.262
 2347W        W 5866   7.076   7.059   1.788
 2348W        W 5867   3.760   1.423  10.965
 2349W        W 5868   7.896   5.958  11.840
 2350W        W 5869   4.170   5.182  11.304
 2351W        W 5870   7.098   6.965   9.560
 2352W        W 5871   8.338   7.536   9.080
 2353W        W 5872   4.645   2.178  10.957
 2354W        W 5873   9.348   8.838  11.978
 2355W        W 5874   4.674   8.986   1.435
 2356W        W 5875   2.709   5.131   1.747
 2357W        W 5876   1.732   0.426  10.977
 2358W        W 5877   0.240   4.754   0.473
 2359W        W 5878   3.290   5.652   0.284
 2360W        W 5879   6.150   3.612   2.726
 2361W        W 5880   1.677   8.074   3.320
 2362W        W 5881   1.886   5.052  10.822
 2363W        W 5882   3.241   1.675   2.283
 2364W        W 5883   8.373   8.930  10.414
 2365W        W 5884   4.078   8.349   3.300
 2366W        W 5885   1.897   4.283   0.901
 2367W        W 5886   8.961   1.283   0.930
 2368W        W 5887   1.396   8.964  10.035
 2369W        W 5888   5.993   0.751   3.175
 2370W        W 5889   5.675   5.077  10.538
 2371W        W 5890   7.449   9.831   1.246
 2372W        W 5891   9.523   7.873   9.526
 2373W        W 5892   0.724   5.508  10.337
 2374W        W 5893   2.213   4.222   1.731
 2375W        W 5894   3.723   1.427   9.860
 2376W        W 5895   7.419   5.057  10.519
 2377W        W 5896   7.893   0.928   9.992
 2378W        W 5897   0.942   0.325   9.521
 2379W        W 5898   9.880   8.544   1.395
 2380W        W 5899   9.423   9.820   9.513
 2381W        W 5900   7.930   7.473  11.815
 2382W        W 5901   9.520   4.584   0.804
 2383W        W 5902   9.937   3.764   1.319
 2384W        W 5903   9.892   7.924   9.883
 2385W        W 5904   8.066   5.544   8.897
 2386W        W 5905   0.319   0.316  10.375
 2387W        W 5906   5.642   4.589   9.575
 2388W        W 5907   5.564   3.700  10.997
 2389W        W 5908   8.946   7.461   9.452
 2390W        W 5909   6.535   4.628   3.809
 2391W        W 5910   1.680   1.271   3.242
 2392W        W 5911   2.729   2.241   2.350
 2393W        W 5912   0.313   6.526  10.379
 2394W        W 5913   5.087   3.244   1.831
 2395W        W 5914   8.498   0.728   1.849
 2396W        W 5915   2.177   1.299   9.400
 2397W        W 5916   5.201   4.686   9.503
 2398W        W 5917   7.428   6.451   9.096
 2399W        W 5918   2.842   1.364  10.418
 2400W        W 5919   3.726   4.608  11.367
 2401W        W 5920   3.733   1.753   9.529
 2402W        W 5921   1.865   2.379  11.920
 2403W        W 5922   4.148   5.127   3.805
 2404W        W 5923   7.956   4.081  10.872
 2405W        W 5924   7.421   4.056   2.759
 2406W        W 5925   6.162   3.303  11.320
 2407W        W 5926   9.884   7.474  11.008
 2408W        W 5927   8.837   1.799   1.689
 2409W        W 5928   7.468   5.562   1.373
 2410W        W 5929   3.140   8.373   1.321
 2411W        W 5930   4.273   1.308   9.040
 2412W        W 5931   3.222   9.930   2.366
 2413W        W 5932   0.951   2.793   2.327
 2414W        W 5933   6.996   3.698   3.728
 2415W        W 5934   5.582   1.820   3.720
 2416W        W 5935   7.035   5.585  10.864
 2417W        W 5936   6.954   5.643   3.169
 2418W        W 5937   9.358   4.252   8.992
 2419W        W 5938   7.534   3.788   9.436
 2420W        W 5939   8.519   9.848   9.392
 2421W        W 5940   9.762   5.182   2.384
 2422W        W 5941   5.052   0.950  10.559
 2423W        W 5942   8.962   5.971   3.181
 2424W        W 5943   5.209   9.518   3.686
 2425W        W 5944   1.417   8.408   3.278
 2426W        W 5945   8.338   5.631   9.984
 2427W        W 5946   7.511   7.925   9.507
 2428W        W 5947   9.313   9.507  10.384
 2429W        W 5948   3.738   7.086  11.916
 2430W        W 5949   4.569   3.748   7.963
 2431W        W 5950   4.671   7.983   9.116
 2432W        W 5951   5.962   5.998   3.176
 2433W        W 5952   6.969   9.813   9.005
 2434W        W 5953   1.309   5.641  10.924
 2435W        W 5954   0.935   1.759   9.897
 2436W        W 5955   3.649   5.961  10.428
 2437W        W 5956   2.281   9.309   0.861
 2438W        W 5957   1.399   0.871   2.284
 2439W        W 5958   1.866   3.589   2.739
 2440W        W 5959   1.823   0.745  11.411
 2441W        W 5960   4.590   4.701   9.486
 2442W        W 5961   0.768   9.505   3.297
 2443W        W 5962   6.510   7.086   0.453
 2444W        W 5963   1.309   6.913   0.838
 2445W        W 5964   1.816   7.384  11.905
 2446W        W 5965   2.166   6.920  11.304
 2447W        W 5966   3.722   1.782   1.830
 2448W        W 5967   3.163   7.476   1.773
 2449W        W 5968   2.347   8.348  10.527
 2450W        W 5969   7.052   8.849   8.507
 2451W        W 5970   7.383   9.885  10.049
 2452W        W 5971   1.373   6.589  11.009
 2453W        W 5972   7.437   9.372   2.742
 2454W        W 5973   1.794   9.780   2.248
 2455W        W 5974   7.915   6.461   9.980
 2456W        W 5975   7.583   6.933   0.750
 2457W        W 5976   8.553   5.055   9.455
 2458W        W 5977   6.118   0.924   1.413
 2459W        W 5978   5.977   7.542   0.846
 2460W        W 5979   4.261   4.217   9.546
 2461W        W 5980   7.490   9.337   2.255
 2462W        W 5981   9.312   0.301   0.417
 2463W        W 5982   5.613   3.314   8.439
 2464W        W 5983   1.281   2.230  11.935
 2465W        W 5984   7.093   1.782   0.289
 2466W        W 5985   7.095   4.185   0.858
 2467W        W 5986   6.967   7.926   9.370
 2468W        W 5987   9.383   2.212   1.342
 2469W        W 5988   1.669   3.696  11.383
 2470W        W 5989   3.710   9.919  10.559
 2471W        W 5990   2.285   5.956   2.282
 2472W        W 5991   7.397   8.560   0.367
 2473W        W 5992   1.327   4.592   2.666
 2474W        W 5993   9.432   3.773  11.992
 2475W        W 5994   6.044   0.459   2.399
 2476W        W 5995   4.594   7.544   3.120
 2477W        W 5996   3.610   3.147   0.375
 2478W        W 5997   9.392   1.423  10.326
 2479W        W 5998   7.440   6.964   9.410
 2480W        W 5999   3.763   6.443   9.362
 2481W        W 6000   5.686   6.047   3.211
 2482W        W 6001   1.414   3.808   8.906
 2483W        W 6002   6.437   4.528  11.377
 2484W        W 6003   6.103   0.359   1.432
 2485W        W 6004   6.562   4.535  10.069
 2486W        W 6005   1.722   7.128   9.999
 2487W        W 6006   2.649   5.564   1.208
 2488W        W 6007   3.271   7.014   9.456
 2489W        W 6008   2.740   9.423  10.402
 2490W        W 6009   8.334   8.833   3.132
 2491W        W 6010   9.791   6.975   9.440
 2492W        W 6011   6.178   9.361   3.773
 2493W        W 6012   5.688   8.966   3.242
 2494W        W 6013   5.006   6.092  11.807
 2495W        W 6014   4.567   1.195   1.241
 2496W        W 6015   7.057   4.101   3.250
 2497W        W 6016   3.578   4.240   3.210
 2498W        W 6017   8.834   3.718   0.917
 2499W        W 6018   5.549   8.347   9.985
 2500W        W 6019   2.753   2.338   0.417
 2501W        W 6020   3.233   0.730  11.766
 2502W        W 6021   6.013   6.907   0.347
 2503W        W 6022   8.488   8.976   0.319
 2504W        W 6023   8.421   7.578   2.321
 2505W        W 6024   0.306   6.945  10.401
 2506W        W 6025   1.273   2.788   2.304
 2507W        W 6026   0.262   4.090   3.605
 2508W        W 6027   8.388   1.223   1.789
 2509W        W 6028   8.815   5.998   0.391
 2510W        W 6029   1.248   6.449   9.075
 2511W        W 6030   6.013   3.684   8.439
 2512W        W 6031   4.164   8.944   0.387
 2513W        W 6032   8.445   1.790   1.388
 2514W        W 6033   8.564   8.074  10.006
 2515W        W 6034   8.038   2.235   3.294
 2516W        W 6035   7.022   3.242   9.590
 2517W        W 6036   0.883   6.551   9.109
 2518W        W 6037   7.922   5.002   9.577
 2519W        W 6038   7.890   0.936  11.383
 2520W        W 6039   2.665   3.600   0.388
 2521W        W 6040   0.753   8.930   0.303
 2522W        W 6041   7.423   2.221  10.947
 2523W        W 6042   4.650   3.738   1.699
 2524W        W 6043   7.001   6.015   8.601
 2525W        W 6044   1.326   7.460   0.942
 2526W        W 6045   0.463   0.890  11.916
 2527W        W 6046   1.349   3.322   8.941
 2528W        W 6047   8.854   7.989   1.332
 2529W        W 6048   4.234   3.595   2.697
 2530W        W 6049   7.406   7.533   1.255
 2531W        W 6050   9.326   8.483  11.812
 2532W        W 6051   5.154   7.946   8.905
 2533W        W 6052   4.604   3.656   0.916
 2534W        W 6053   6.150   5.571  10.068
 2535W        W 6054   5.182   1.791  11.313
 2536W        W 6055   0.727   8.051   1.310
 2537W        W 6056   3.234   7.611   9.431
 2538W        W 6057   6.135   2.356   2.830
 2539W        W 6058   8.073   4.544  10.828
 2540W        W 6059   2.670   6.145   0.920
 2541W        W 6060   8.001   9.359   2.854
 2542W        W 6061   4.616   5.187   2.357
 2543W        W 6062   3.207   1.402   1.698
 2544W        W 6063   5.079   9.780   9.000
 2545W        W 6064   7.456   2.857  10.936
 2546W        W 6065   2.318   6.520  10.909
 2547W        W 6066   1.253   6.919  11.994
 2548W        W 6067   9.351   6.914   8.919
 2549W        W 6068   6.456   1.200   2.305
 2550W        W 6069   0.773   7.123  11.463
 2551W        W 6070   2.309   8.985  10.911
 2552W        W 6071   4.529   7.393   2.802
 2553W        W 6072   5.517   4.226  10.525
 2554W        W 6073   7.937   7.398  10.360
 2555W        W 6074   0.789   9.014   0.818
 2556W        W 6075   2.693   3.299   9.028
 2557W        W 6076   5.487   0.813   2.737
 2558W        W 6077   6.024   2.650   1.250
 2559W        W 6078   7.438   3.300   2.225
 2560W        W 6079   9.342   0.806   3.281
 2561W        W 6080   5.531   4.139   9.504
 2562W        W 6081   0.833   4.663   0.906
 2563W        W 6082   6.921   2.220   1.819
 2564W        W 6083   4.241   2.262   0.245
 2565W        W 6084   6.620   5.150   0.788
 2566W        W 6085   6.519   7.977   0.724
 2567W        W 6086   6.010   8.397   0.279
 2568W        W 6087   2.681   1.410   0.921
 2569W        W 6088   6.451   6.510   3.766
 2570W        W 6089   6.015   4.622   8.990
 2571W        W 6090   5.529   0.261   8.946
 2572W        W 6091   8.421   6.029  11.900
 2573W        W 6092   6.448   9.788  10.514
 2574W        W 6093   6.985   5.673   0.744
 2575W        W 6094   0.283   7.088  11.789
 2576W        W 6095   7.009   1.874   1.875
 2577W        W 6096   8.020   0.822   2.311
 2578W        W 6097   5.566   3.248   9.495
 2579W        W 6098   9.006   9.318   2.825
 2580W        W 6099   4.198   3.712   3.227
 2581W        W 6100   9.397   4.124  10.326
 2582W        W 6101   4.187   3.328  11.428
 2583W        W 6102   6.515   7.138   2.830
 2584W        W 6103   1.847   3.144   8.978
 2585W        W 6104   8.350   2.298  10.917
 2586W        W 6105   2.172   6.939   3.143
 2587W        W 6106   7.889   1.406  11.481
 2588W        W 6107   0.459   1.247   1.840
 2589W        W 6108   8.824   1.283  10.907
 2590W        W 6109   3.780   3.307   9.868
 2591W        W 6110   3.712   4.274   1.826
 2592W        W 6111   1.191   6.554   9.892
 2593W        W 6112   2.322   8.859   2.739
 2594W        W 6113   4.106   1.266   0.894
 2595W        W 6114   1.246   2.738   9.071
 2596W        W 6115   6.988   6.546   3.222
 2597W        W 6116   5.630   6.102  10.974
 2598W        W 6117   8.443   5.956   3.305
 2599W        W 6118   7.429   3.305  11.020
 2600W        W 6119   7.135   2.755   0.871
 2601W        W 6120   3.679   2.247   2.372
 2602W        W 6121   5.494   3.592   9.563
 2603W        W 6122   4.284   3.724  10.037
 2604W        W 6123   0.783   8.055   0.474
 2605W        W 6124   6.614   2.349   2.339
 2606W        W 6125   6.560   7.884  11.033
 2607W        W 6126   9.894   4.245  10.351
 2608W        W 6127   9.860   1.386   9.525
 2609W        W 6128   9.355   2.359   0.906
 2610W        W 6129   5.008   9.374   0.722
 2611W        W 6130   1.222   0.457   9.475
 2612W        W 6131   1.209   4.619   1.225
 2613W        W 6132   9.843   8.359   9.463
 2614W        W 6133   9.871   2.713  11.419
 2615W        W 6134   3.778   5.005   2.850
 2616W        W 6135   6.537   5.647   7.953
 2617W        W 6136   9.469   7.913  11.429
 2618W        W 6137   4.679   6.059   3.630
 2619W        W 6138   4.668   2.164   1.253
 2620W        W 6139   7.430   1.771   0.359
 2621W        W 6140   2.827   5.511  11.958
 2622W        W 6141   2.255   8.066   9.403
 2623W        W 6142   6.941   1.698   3.791
 2624W        W 6143   2.803   2.840  11.773
 2625W        W 6144   3.251   3.276   1.421
 2626W        W 6145   1.826   5.972   3.652
 2627W        W 6146   1.696   4.567   9.372
 2628W        W 6147   9.838   1.291   0.317
 2629W        W 6148   1.210   9.820  10.032
 2630W        W 6149   1.324   5.611   9.525
 2631W        W 6150   9.764   3.797   8.920
 2632W        W 6151   0.812   8.421   2.667
 2633W        W 6152   7.892   5.200   9.943
 2634W        W 6153   8.414   6.016   8.535
 2635W        W 6154   7.108   6.545   9.894
 2636W        W 6155   7.529   7.068   3.227
 2637W        W 6156   0.292   7.107   3.778
 2638W        W 6157   9.482   0.904  10.504
 2639W        W 6158   2.660   7.581   1.899
 2640W        W 6159   1.838   6.038   0.337
 2641W        W 6160   2.696   5.481  11.395
 2642W        W 6161   3.177   9.311   9.029
 2643W        W 6162   1.841   5.986  10.898
 2644W        W 6163   8.900   8.536   9.522
 2645W        W 6164   3.304   7.864   0.317
 2646W        W 6165   1.363   9.026   9.520
 2647W        W 6166   9.311   3.642  10.855
 2648W        W 6167   0.254   9.363   9.999
 2649W        W 6168   1.880   3.788  10.877
 2650W        W 6169   0.254   6.476   9.521
 2651W        W 6170   7.424   0.762  10.451
 2652W        W 6171   7.936   5.210   1.899
 2653W        W 6172   5.594   1.207   3.185
 2654W        W 6173   9.807   0.814   9.564
 2655W        W 6174   3.154   2.301   2.844
 2656W        W 6175   7.417   1.751   3.251
 2657W        W 6176   2.681   9.782   2.737
 2658W        W 6177   7.911   5.049   3.196
 2659W        W 6178   7.901   7.999  11.375
 2660W        W 6179   5.232   5.975   1.365
 2661W        W 6180   4.279   7.036   3.325
 2662W        W 6181   0.316   7.609   1.385
 2663W        W 6182   5.041   3.169   3.618
 2664W        W 6183   7.464   3.126   0.874
 2665W        W 6184   2.193   7.472   0.732
 2666W        W 6185   7.054   9.359   9.497
 2667W        W 6186   1.261   1.309   2.387
 2668W        W 6187   3.736   7.612  11.837
 2669W        W 6188   9.912   9.858   3.264
 2670W        W 6189   5.651   8.935   9.012
 2671W        W 6190   5.140   6.650  10.072
 2672W        W 6191   0.355   0.425   1.813
 2673W        W 6192   2.186   8.928   0.322
 2674W        W 6193   9.812   5.072   9.886
 2675W        W 6194   9.845   7.415   9.867
 2676W        W 6195   5.584   2.854   9.119
 2677W        W 6196   7.526   1.721  10.553
 2678W        W 6197   9.303   7.555  10.923
 2679W        W 6198   7.487   5.645   9.543
 2680W        W 6199   7.422   6.482   2.329
 2681W        W 6200   0.931   6.064   1.787
 2682W        W 6201   1.751   1.882   0.850
 2683W        W 6202   2.194   7.539  10.466
 2684W        W 6203   0.933   5.132   9.969
 2685W        W 6204   7.003   8.061  10.496
 2686W        W 6205   0.824   1.850   8.500
 2687W        W 6206   6.159   1.380   0.927
 2688W        W 6207   6.574   9.771   1.899
 2689W        W 6208   2.796   9.927  11.458
 2690W        W 6209   0.845   9.994  10.430
 2691W        W 6210   6.063   6.443   0.789
 2692W        W 6211   9.449   4.186  11.477
 2693W        W 6212   7.880   3.754  10.343
 2694W        W 6213   8.024   3.627   2.798
 2695W        W 6214   0.289   3.742   2.686
 2696W        W 6215   9.404   9.787   9.990
 2697W        W 6216   0.309   1.342  11.850
 2698W        W 6217   6.649   7.120  10.514
 2699W        W 6218   9.027   4.270  10.008
 2700W        W 6219   3.329   2.298  10.485
 2701W        W 6220   4.277   0.790  11.864
 2702W        W 6221   4.081   4.105   2.735
 2703W        W 6222   9.969   9.361  10.329
 2704W        W 6223   2.336   8.383   2.189
 2705W        W 6224   0.356   3.206   9.915
 2706W        W 6225   0.795   5.086   1.390
 2707W        W 6226   5.170   5.074   9.993
 2708W        W 6227   1.234   6.646   3.280
 2709W        W 6228   1.253   5.126   1.831
 2710W        W 6229   3.212   0.271   2.778
 2711W        W 6230   8.851   6.931   1.693
 2712W        W 6231   4.738   9.303  11.828
 2713W        W 6232   0.758   5.201   2.796
 2714W        W 6233   9.769   1.675   0.799
 2715W        W 6234   7.036   7.456   2.334
 2716W        W 6235   8.343   1.796  10.345
 2717W        W 6236   6.056   2.843   2.852
 2718W        W 6237   5.620   8.826   2.738
 2719W        W 6238   6.570   9.447   0.405
 2720W        W 6239   5.595   1.294   0.748
 2721W        W 6240   0.760   2.794   1.332
 2722W        W 6241   2.367   7.061   9.459
 2723W        W 6242   5.678   9.399   9.073
 2724W        W 6243   3.747   1.286  11.827
 2725W        W 6244   7.567   6.929  11.496
 2726W        W 6245   7.406   1.370   9.445
 2727W        W 6246   6.550   5.671  10.521
 2728W        W 6247   6.145   0.790   8.950
 2729W        W 6248   2.812   0.907   3.298
 2730W        W 6249   3.258   7.947  11.939
 2731W        W 6250   2.815   7.498  10.812
 2732W        W 6251   1.326   2.782   1.261
 2733W        W 6252   8.918   4.735   1.340
 2734W        W 6253   2.710   5.980   9.098
 2735W        W 6254   4.099   7.391  10.405
 2736W        W 6255   1.278   8.419   1.712
 2737W        W 6256   7.112   8.398   1.249
 2738W        W 6257   9.404   8.072   8.466
 2739W        W 6258   0.890   0.413   2.208
 2740W        W 6259   6.461   6.932   1.871
 2741W        W 6260   1.194   9.034  10.959
 2742W        W 6261   3.638   0.866   9.379
 2743W        W 6262   5.555   4.688   1.900
 2744W        W 6263   9.882   0.806  11.511
 2745W        W 6264   2.167   3.286  10.993
 2746W        W 6265   0.342   7.894  10.885
 2747W        W 6266   4.620   5.078  10.426
 2748W        W 6267   5.556   9.815  10.543
 2749W        W 6268   9.896   5.686   9.507
 2750W        W 6269   4.598   1.800   8.578
 2751W        W 6270   5.046   0.821   1.361
 2752W        W 6271   3.195   5.479   9.562
 2753W        W 6272   0.732   6.513   0.865
 2754W        W 6273   3.573   1.770   9.022
 2755W        W 6274   8.903   0.251   3.294
 2756W        W 6275   0.716   1.388   0.255
 2757W        W 6276   6.168   5.020  10.486
 2758W        W 6277   0.426   1.284   2.343
 2759W        W 6278   5.616   0.821  10.502
 2760W        W 6279   9.880   6.455   2.711
 2761W        W 6280   8.884   5.622   1.790
 2762W        W 6281   2.824   8.416   0.320
 2763W        W 6282   8.864   6.524   0.276
 2764W        W 6283   0.806   4.255  10.941
 2765W        W 6284   5.066   0.300   0.404
 2766W        W 6285   3.630   5.181   0.795
 2767W        W 6286   5.155   7.107  10.878
 2768W        W 6287   0.419   5.974  10.401
 2769W        W 6288   8.969   3.123   1.769
 2770W        W 6289   7.584   4.280  11.787
 2771W        W 6290   3.147   2.249  10.931
 2772W        W 6291   9.846   7.858  11.767
 2773W        W 6292   6.473   6.433   8.977
 2774W        W 6293   6.012   4.170  10.445
 2775W        W 6294   0.937   8.019  10.471
 2776W        W 6295   1.841   5.487   1.692
 2777W        W 6296   1.420   9.000  10.373
 2778W        W 6297   2.331   7.459  11.974
 2779W        W 6298   9.039   8.864   0.339
 2780W        W 6299   0.885   3.641   3.137
 2781W        W 6300   9.861   7.897   3.206
 2782W        W 6301   1.847   4.094   1.348
 2783W        W 6302   8.353   0.820   0.851
 2784W        W 6303   4.243   6.067   2.648
 2785W        W 6304   4.216   6.121   1.768
 2786W        W 6305   4.651   0.780   9.033
 2787W        W 6306   3.585   5.620   0.960
 2788W        W 6307   0.288   1.352   0.806
 2789W        W 6308   7.499   6.519   1.365
 2790W        W 6309   2.675   6.136   1.301
 2791W        W 6310   0.254   8.855   2.821
 2792W        W 6311   0.352   5.625   9.024
 2793W        W 6312   8.852   1.306   9.539
 2794W        W 6313   2.756   0.405   0.819
 2795W        W 6314   6.628   7.447   1.257
 2796W        W 6315   2.714   6.621   1.412
 2797W        W 6316   6.031   8.894   1.299
 2798W        W 6317   1.834   2.705   1.878
 2799W        W 6318   4.693   2.671   9.488
 2800W        W 6319   0.746   7.406   9.033
 2801W        W 6320   3.197   3.581  10.858
 2802W        W 6321   4.143   5.681  11.474
 2803W        W 6322   6.111   9.461   9.853
 2804W        W 6323   6.107   4.695   1.335
 2805W        W 6324   8.562   5.020   3.350
 2806W        W 6325   7.960   4.094   2.640
 2807W        W 6326   9.430   0.280  11.809
 2808W        W 6327   1.390   6.091   0.852
 2809W        W 6328   4.598   6.049   1.798
 2810W        W 6329   8.817   2.669   0.830
 2811W        W 6330   5.207   7.079   0.725
 2812W        W 6331   8.490   7.022   9.010
 2813W        W 6332   9.875   8.537  10.357
 2814W        W 6333   8.956   6.967  11.435
 2815W        W 6334   6.152   1.898   1.703
 2816W        W 6335   7.985   0.905   1.718
 2817W        W 6336   8.540   9.903  10.496
 2818W        W 6337   8.351   9.375   0.467
 2819W        W 6338   5.675   0.473   2.798
 2820W        W 6339   6.492   6.636   0.372
 2821W        W 6340   4.646   1.700  11.006
 2822W        W 6341   4.658   6.065   0.822
 2823W        W 6342   0.760   4.759   2.793
 2824W        W 6343   2.307   8.819  10.440
 2825W        W 6344   9.791   6.091  10.419
 2826W        W 6345   9.863   5.155   1.283
 2827W        W 6346   9.334   2.805   2.816
 2828W        W 6347   6.944   4.528  10.513
 2829W        W 6348   1.721   2.145   8.530
 2830W        W 6349   1.204   8.095   8.896
 2831W        W 6350   2.231   2.180   8.884
 2832W        W 6351   5.535   6.919  10.413
 2833W        W 6352   9.379   0.347   2.719
 2834W        W 6353   4.211   4.617   9.381
 2835W        W 6354   3.587   1.395   3.250
 2836W        W 6355   2.309   5.039  11.986
 2837W        W 6356   3.668   6.593   2.769
 2838W        W 6357   1.423   4.151   0.315
 2839W        W 6358   2.150   2.693   2.812
 2840W        W 6359   2.212   3.263   3.647
 2841W        W 6360   1.329   8.921   0.723
 2842W        W 6361   2.713   9.509   8.883
 2843W        W 6362   3.633   8.059  11.309
 2844W        W 6363   6.506   9.454   1.266
 2845W        W 6364   2.663   5.977   3.248
 2846W        W 6365   3.612   2.259  11.908
 2847W        W 6366   7.553   2.236   0.801
 2848W        W 6367   5.661   4.532   2.258
 2849W        W 6368   8.561   1.842   9.566
 2850W        W 6369   8.987   2.347   9.013
 2851W        W 6370   8.909   1.324   8.923
 2852W        W 6371   2.271   9.865   1.847
 2853W        W 6372   9.515   1.222   0.767
 2854W        W 6373   5.531   7.505   2.745
 2855W        W 6374   6.606   4.175   2.687
 2856W        W 6375   2.214   9.979   9.436
 2857W        W 6376   2.650   8.006   0.252
 2858W        W 6377   6.591   3.298   2.670
 2859W        W 6378   5.501   5.671   0.304
 2860W        W 6379   3.109   9.419  10.468
 2861W        W 6380   4.546   4.271   8.592
 2862W        W 6381   2.264   4.142   2.160
 2863W        W 6382   0.836   4.737   0.292
 2864W        W 6383   6.501   9.004   2.306
 2865W        W 6384   8.912   8.872   9.583
 2866W        W 6385   0.755   5.574  11.960
 2867W        W 6386   4.090   6.060   8.494
 2868W        W 6387   7.946   7.554   9.389
 2869W        W 6388   7.011   3.193   8.892
 2870W        W 6389   2.750   1.858  11.823
 2871W        W 6390   6.126   6.939   1.339
 2872W        W 6391   6.477   4.258  11.335
 2873W        W 6392   5.175   7.084   9.003
 2874W        W 6393   2.803   9.442  11.283
 2875W        W 6394   5.094   0.280   1.839
 2876W        W 6395   3.742   0.313  11.345
 2877W        W 6396   1.879   8.369   2.373
 2878W        W 6397   7.094   7.559  10.821
 2879W        W 6398   0.941   0.868   1.689
 2880W        W 6399   2.179   4.714   9.484
 2881W        W 6400   3.617   0.910  11.332
 2882W        W 6401   9.471   1.697   2.869
 2883W        W 6402   8.000   1.813   2.705
 2884W        W 6403   0.844   3.305   2.773
 2885W        W 6404   6.931   1.885   8.949
 2886W        W 6405   6.440   1.825  11.814
 2887W        W 6406   2.825   8.822  10.537
 2888W        W 6407   0.757   8.030   9.459
 2889W        W 6408   7.032   4.211  11.915
 2890W        W 6409   8.818   1.191  11.947
 2891W        W 6410   7.489   0.757   0.469
 2892W        W 6411   8.831   7.554   2.753
 2893W        W 6412   5.532   8.065  10.843
 2894W        W 6413   7.983   7.401   3.755
 2895W        W 6414   9.309   5.523   8.507
 2896W        W 6415   9.382   1.234   8.594
 2897W        W 6416   8.848   8.837   2.388
 2898W        W 6417   8.375   9.520  10.412
 2899W        W 6418   8.458   3.289   1.413
 2900W        W 6419   8.434   3.203   3.195
 2901W        W 6420   6.092   6.175   3.739
 2902W        W 6421   1.259   3.225  10.038
 2903W        W 6422   4.177   6.549   3.165
 2904W        W 6423   0.905   3.787   1.390
 2905W        W 6424   1.396   7.973   9.369
 2906W        W 6425   7.141   6.906   1.311
 2907W        W 6426   9.927   5.551   0.322
 2908W        W 6427   6.118   0.945   2.187
 2909W        W 6428   5.219   6.538   2.849
 2910W        W 6429   6.959   8.936   0.838
 2911W        W 6430   5.707   9.354   1.815
 2912W        W 6431   4.264   4.103   8.440
 2913W        W 6432   1.901   0.778   9.414
 2914W        W 6433   6.160   7.493   1.385
 2915W        W 6434   6.958   5.146   9.407
 2916W        W 6435   6.912   1.400  10.911
 2917W        W 6436   9.770   9.767   2.384
 2918W        W 6437   3.745   6.028   1.218
 2919W        W 6438   6.174   3.728  10.871
 2920W        W 6439   1.295   6.178  11.433
 2921W        W 6440   6.493   5.515  11.865
 2922W        W 6441   7.568   8.472  10.369
 2923W        W 6442   3.597   2.377   0.251
 2924W        W 6443   4.547   0.427   3.624
 2925W        W 6444   9.964   6.116   2.262
 2926W        W 6445   3.254   2.370   2.375
 2927W        W 6446   0.358   9.915  10.992
 2928W        W 6447   1.269   2.845   2.712
 2929W        W 6448   0.372   6.937   1.787
 2930W        W 6449   8.525   8.378  11.009
 2931W        W 6450   8.557   4.759   2.298
 2932W        W 6451   9.292   6.149  10.554
 2933W        W 6452   9.853   0.421   9.374
 2934W        W 6453   3.760   3.661   9.520
 2935W        W 6454   7.875   7.029   0.869
 2936W        W 6455   5.484   3.273  11.495
 2937W        W 6456   0.847   5.157   9.479
 2938W        W 6457   4.572   9.919  10.323
 2939W        W 6458   5.629   5.542   9.470
 2940W        W 6459   5.987   6.000   8.573
 2941W        W 6460   6.507   6.519   2.688
 2942W        W 6461   8.466   2.352  11.431
 2943W        W 6462   0.934   0.463   1.766
 2944W        W 6463   0.239   1.322  10.066
 2945W        W 6464   3.114   3.610   2.396
 2946W        W 6465   6.061   6.518   7.939
 2947W        W 6466   3.581   7.616   2.367
 2948W        W 6467   9.448   8.450   0.732
 2949W        W 6468   5.078   4.551   8.945
 2950W        W 6469   8.932   8.935   3.194
 2951W        W 6470   8.073   1.706   0.387
 2952W        W 6471   1.386   5.517   9.854
 2953W        W 6472   6.465   7.990  11.867
 2954W        W 6473   0.822   0.917   0.826
 2955W        W 6474   6.004   9.498   3.236
 2956W        W 6475   6.049   5.698   8.957
 2957W        W 6476   1.769   0.903   9.916
 2958W        W 6477   0.464   6.085   9.991
 2959W        W 6478   5.635   1.230   1.894
 2960W        W 6479   5.532   2.260  10.925
 2961W        W 6480   1.426   2.321   0.759
 2962W        W 6481   5.106   9.023  11.801
 2963W        W 6482   2.769   0.336   2.225
 2964W        W 6483   1.420   5.700   2.212
 2965W        W 6484   8.853   6.539   1.823
 2966W        W 6485   7.132   3.122   0.913
 2967W        W 6486   7.098   9.399  11.303
 2968W        W 6487   6.439   9.955  11.329
 2969W        W 6488   3.718   1.417   0.429
 2970W        W 6489   3.697   5.697   3.357
 2971W        W 6490   8.889   8.434  11.338
 2972W        W 6491   4.746   3.304  10.868
 2973W        W 6492   7.953   6.148   2.747
 2974W        W 6493   0.841   1.343   9.596
 2975W        W 6494   6.928   7.083   2.165
 2976W        W 6495   0.430   9.379   2.160
 2977W        W 6496   2.177   2.257  11.410
 2978W        W 6497   2.724   2.379  11.292
 2979W        W 6498   6.966   4.251  11.017
 2980W        W 6499   7.913   6.940  11.863
 2981W        W 6500   6.175   4.077  11.461
 2982W        W 6501   8.866   1.826   9.061
 2983W        W 6502   1.682   1.861   2.736
 2984W        W 6503   0.347   1.269   0.363
 2985W        W 6504   7.389   3.594   3.350
 2986W        W 6505   1.298   1.251  10.367
 2987W        W 6506   6.561   4.066   7.977
 2988W        W 6507   6.014   9.038   0.954
 2989W        W 6508   8.346   7.424  11.416
 2990W        W 6509   0.392   4.729   1.223
 2991W        W 6510   9.449   1.692   3.835
 2992W        W 6511   4.545   0.802   8.542
 2993W        W 6512   0.401   9.450   2.731
 2994W        W 6513   5.630   1.801   1.904
 2995W        W 6514   7.440   9.410   9.462
 2996W        W 6515   9.900   9.477  10.079
 2997W        W 6516   1.314   5.645  11.509
 2998W        W 6517   2.240   7.114  10.968
 2999W        W 6518   9.819   6.597   0.747
 3000W        W 6519   5.600   9.781   2.842
 3001W        W 6520   5.146   4.274  10.029
 3002W        W 6521   8.405   9.507   9.853
 3003W        W 6522   0.905   3.264   1.777
 3004W        W 6523   0.249   4.699   2.364
 3005W        W 6524   6.492   6.057  11.435
 3006W        W 6525   2.328   7.079   0.426
 3007W        W 6526   4.141   7.549  11.458
 3008W        W 6527   6.157   1.696  11.866
 3009W        W 6528   7.590   6.648  10.364
 3010W        W 6529   7.419   4.243   1.697
 3011W        W 6530   3.156   1.742   9.017
 3012W        W 6531   2.275   5.017   9.454
 3013W        W 6532   9.953   6.173  11.459
 3014W        W 6533   2.150   8.456  11.946
 3015W        W 6534   0.433   9.785   2.691
 3016W        W 6535   9.862   7.559   2.865
 3017W        W 6536   2.653   3.283   8.521
 3018W        W 6537   8.900   6.632   9.115
 3019W        W 6538   9.955   5.040   2.752
 3020W        W 6539   1.403   2.221   0.479
 3021W        W 6540   1.810   5.010   0.291
 3022W        W 6541   3.802   7.890   1.907
 3023W        W 6542   3.214   1.326  10.870
 3024W        W 6543   1.295   5.119   9.099
 3025W        W 6544   7.574   6.602  11.948
 3026W        W 6545   7.404   3.242   9.091
 3027W        W 6546   0.881   5.201   9.021
 3028W        W 6547   2.662   3.683   9.365
 3029W        W 6548   7.026   4.084  11.464
 3030W        W 6549   9.458   1.849   1.776
 3031W        W 6550   0.440   7.103   3.322
 3032W        W 6551   3.234   5.155  11.935
 3033W        W 6552   5.695   7.609   0.942
 3034W        W 6553   4.138   1.802   2.861
 3035W        W 6554   7.483   7.490   1.754
 3036W        W 6555   5.629   2.341   1.851
 3037W        W 6556   2.168   5.225   0.752
 3038W        W 6557   5.495   0.832   9.022
 3039W        W 6558   2.278   2.218   3.351
 3040W        W 6559   5.680   2.680   1.254
 3041W        W 6560   2.378   0.303   2.339
 3042W        W 6561   2.631   7.381   9.038
 3043W        W 6562   4.541   9.834   0.876
 3044W        W 6563   5.169   5.149   2.877
 3045W        W 6564   7.455   5.508   2.819
 3046W        W 6565   2.849   8.032  10.388
 3047W        W 6566   6.454   0.326   8.911
 3048W        W 6567   9.425   9.953   8.425
 3049W        W 6568   9.904   1.723  11.340
 3050W        W 6569   9.943   8.967   3.191
 3051W        W 6570   6.924   4.698   3.129
 3052W        W 6571   5.637   8.058  11.834
 3053W        W 6572   7.893   9.021   9.507
 3054W        W 6573   3.603   9.432   1.873
 3055W        W 6574   8.999   5.090  11.027
 3056W        W 6575   8.941   9.315  10.368
 3057W        W 6576   8.343   4.166  10.422
 3058W        W 6577   0.271   4.752   8.968
 3059W        W 6578   8.948   9.479   0.363
 3060W        W 6579   8.832   5.223   9.889
 3061W        W 6580   1.775   0.319  11.509
 3062W        W 6581   7.536   9.037   8.951
 3063W        W 6582   7.006   0.439  11.508
 3064W        W 6583   2.225   9.984  11.456
 3065W        W 6584   4.588   7.011   0.769
 3066W        W 6585   2.752   6.088  10.394
 3067W        W 6586   7.139   1.794   3.325
 3068W        W 6587   5.164   7.098  10.410
 3069W        W 6588   8.062   9.439   2.291
 3070W        W 6589   0.344   0.240   3.749
 3071W        W 6590   8.432   7.529   1.809
 3072W        W 6591   8.817   9.804  11.314
 3073W        W 6592   4.147   8.560   1.343
 3074W        W 6593   9.009   1.850   2.747
 3075W        W 6594   1.427   7.560  11.365
 3076W        W 6595   8.570   1.197   3.124
 3077W        W 6596   3.302   0.414   3.297
 3078W        W 6597   8.343   9.352   2.740
 3079W        W 6598   7.394   7.913   1.898
 3080W        W 6599   8.356   2.685  10.409
 3081W        W 6600   6.908   1.356  11.392
 3082W        W 6601   2.276   9.771   2.671
 3083W        W 6602   9.454   7.960   9.113
 3084W        W 6603   9.885   3.277   9.379
 3085W        W 6604   8.093   5.635   9.509
 3086W        W 6605   7.945   4.211   2.397
 3087W        W 6606   6.104   2.180   9.591
 3088W        W 6607   9.418   2.212  11.818
 3089W        W 6608   0.931   9.456   0.772
 3090W        W 6609   1.868   2.203   3.263
 3091W        W 6610   2.809   6.572  11.917
 3092W        W 6611   5.645   6.552   9.376
 3093W        W 6612   7.560   0.398  11.475
 3094W        W 6613   8.489   0.374   9.004
 3095W        W 6614   4.181   3.261   8.124
 3096W        W 6615   5.561   9.992   8.927
 3097W        W 6616   0.304   9.019  11.424
 3098W        W 6617   6.130   1.854   1.227
 3099W        W 6618   1.215   4.574   9.010
 3100W        W 6619   2.183   0.308   1.304
 3101W        W 6620   7.114   5.033   8.484
 3102W        W 6621   4.156   9.411  10.525
 3103W        W 6622   3.648   6.164   8.133
 3104W        W 6623   1.411   8.817  11.308
 3105W        W 6624   6.060   0.931   9.931
 3106W        W 6625   1.865   7.981   1.716
 3107W        W 6626   0.319   7.004  11.516
 3108W        W 6627   4.202   6.522  10.483
 3109W        W 6628   6.964   5.205   3.165
 3110W        W 6629   6.915   6.065   1.426
 3111W        W 6630   1.751   8.485  10.823
 3112W        W 6631   7.493   9.443   9.853
 3113W        W 6632   6.079   4.256   1.797
 3114W        W 6633   4.265   9.295   2.391
 3115W        W 6634   7.107   6.030  10.529
 3116W        W 6635   3.298   6.600   1.685
 3117W        W 6636   4.240   2.705   2.220
 3118W        W 6637   0.385   7.892   8.999
 3119W        W 6638   0.851   6.551  10.484
 3120W        W 6639   1.406   4.539   3.282
 3121W        W 6640   0.815   9.998  10.886
 3122W        W 6641   1.303   8.078   1.394
 3123W        W 6642   7.564   0.745  11.763
 3124W        W 6643   9.369   9.003   9.982
 3125W        W 6644   3.316   8.984  11.982
 3126W        W 6645   3.180   2.759  10.075
 3127W        W 6646   9.424   4.638  10.518
 3128W        W 6647   5.153   1.786  10.437
 3129W        W 6648   9.021   5.202   8.960
 3130W        W 6649   4.131   9.838   2.229
 3131W        W 6650   5.608   7.478   1.416
 3132W        W 6651   0.474   5.684   2.215
 3133W        W 6652   4.753   8.090  11.903
 3134W        W 6653   5.036   1.343   9.909
 3135W        W 6654   4.138   9.511  11.299
 3136W        W 6655   7.485   5.113   2.273
 3137W        W 6656   4.730   2.687  10.551
 3138W        W 6657   2.628   6.593   3.238
 3139W        W 6658   0.244   9.910   1.707
 3140W        W 6659   7.903   7.961   2.820
 3141W        W 6660   1.243   2.188   9.919
 3142W        W 6661   8.428   8.466  11.943
 3143W        W 6662   3.686   4.559   0.425
 3144W        W 6663   1.812   6.628   3.188
 3145W        W 6664   8.465   8.078   2.360
 3146W        W 6665   9.372   6.138  11.947
 3147W        W 6666   9.325   0.773   2.807
 3148W        W 6667   0.270   7.905  10.490
 3149W        W 6668   1.767   2.336   0.888
 3150W        W 6669   3.763   2.664  10.344
 3151W        W 6670   6.166   2.772   0.840
 3152W        W 6671   7.569   5.201   9.057
 3153W        W 6672   9.820   6.966  11.973
 3154W        W 6673   7.875   1.667   1.847
 3155W        W 6674   2.795   8.514   9.919
 3156W        W 6675   5.169   1.284  11.497
 3157W        W 6676   4.624   6.455   1.328
 3158W        W 6677   5.627   6.927   0.900
 3159W        W 6678   6.149   0.463   9.498
 3160W        W 6679   2.182   7.924  10.386
 3161W        W 6680   9.875   4.164  10.981
 3162W        W 6681   9.945   3.296   0.456
 3163W        W 6682   7.872   5.998  10.534
 3164W        W 6683   4.634   6.116   9.597
 3165W        W 6684   8.387   0.445  11.318
 3166W        W 6685   8.833   5.613   0.902
 3167W        W 6686   6.015   6.530   9.061
 3168W        W 6687   1.393   3.248  11.794
 3169W        W 6688   4.056   5.684   1.728
 3170W        W 6689   4.105   1.336  11.477
 3171W        W 6690   9.305   4.664   0.356
 3172W        W 6691   4.622   0.897   2.224
 3173W        W 6692   7.045   2.308  10.933
 3174W        W 6693   4.528   1.797   1.296
 3175W        W 6694   5.179   0.306   0.739
 3176W        W 6695   1.837   5.029   3.818
 3177W        W 6696   3.109   6.521  11.768
 3178W        W 6697   4.752   1.791   2.645
 3179W        W 6698   3.683   1.197   9.519
 3180W        W 6699   3.615   4.690   8.004
 3181W        W 6700   2.786   3.675  11.015
 3182W        W 6701   2.821   4.064   9.940
 3183W        W 6702   1.216   2.651  11.477
 3184W        W 6703   3.151   0.885   9.374
 3185W        W 6704   5.994   5.547   4.080
 3186W        W 6705   0.903   7.140   0.479
 3187W        W 6706   1.823   3.323  10.922
 3188W        W 6707   9.384   8.399   0.316
 3189W        W 6708   7.082   5.157   2.373
 3190W        W 6709   5.590   7.025  10.863
 3191W        W 6710   6.023   9.421  11.518
 3192W        W 6711   8.041   2.770   2.680
 3193W        W 6712   5.151   9.894   0.259
 3194W        W 6713   7.030   9.840   2.173
 3195W        W 6714   5.124   5.065  10.817
 3196W        W 6715   3.808   9.042   3.252
 3197W        W 6716   9.444   3.217  11.030
 3198W        W 6717   4.722   7.035   2.336
 3199W        W 6718   0.346   6.512   1.683
 3200W        W 6719   5.612   4.624   3.270
 3201W        W 6720   0.850   0.843   9.046
 3202W        W 6721   5.165   1.209   3.251
 3203W        W 6722   6.587   9.017  11.356
 3204W        W 6723   1.814   4.203  11.383
 3205W        W 6724   8.542   7.081  11.972
 3206W        W 6725   4.647   6.502   9.861
 3207W        W 6726   6.934   3.792   9.566
 3208W        W 6727   8.454   0.837  10.371
 3209W        W 6728   3.198   2.634  11.938
 3210W        W 6729   0.399   9.780  10.383
 3211W        W 6730   1.403   5.964   2.816
 3212W        W 6731   7.539   4.115   9.545
 3213W        W 6732   5.146   1.387  10.407
 3214W        W 6733   3.680   5.237   9.045
 3215W        W 6734   8.447   4.214  11.773
 3216W        W 6735   4.220   4.230   1.273
 3217W        W 6736   9.293   1.895   3.331
 3218W        W 6737   3.233   3.781  10.477
 3219W        W 6738   6.521   6.110  11.019
 3220W        W 6739   5.164   7.528   3.703
 3221W        W 6740   0.460   4.094  10.541
 3222W        W 6741   1.334   0.460   1.273
 3223W        W 6742   1.331   2.299   2.236
 3224W        W 6743   9.850   1.692   9.991
 3225W        W 6744   1.737   7.475  10.077
 3226W        W 6745   2.193   3.240   2.831
 3227W        W 6746   5.103   3.705   3.181
 3228W        W 6747   0.473   2.332   9.883
 3229W        W 6748   1.678   0.832   2.695
 3230W        W 6749   7.491   4.566  11.954
 3231W        W 6750   6.507   7.389   0.422
 3232W        W 6751   6.521   4.559   3.251
 3233W        W 6752   7.042   9.334   3.328
 3234W        W 6753   1.860   8.885   3.232
 3235W        W 6754   0.423   6.461  11.364
 3236W        W 6755   4.131   3.113   3.231
 3237W        W 6756   2.368   5.640  11.034
 3238W        W 6757   5.545   3.640   2.188
 3239W        W 6758   8.818   0.715   0.321
 3240W        W 6759   3.117   6.957  10.515
 3241W        W 6760   4.210   4.669  11.779
 3242W        W 6761   0.894   8.417   0.851
 3243W        W 6762   0.838   7.414  10.492
 3244W        W 6763   0.831   1.359   2.799
 3245W        W 6764   4.201   2.294   8.967
 3246W        W 6765   0.419   0.788   1.291
 3247W        W 6766   0.351   1.766   0.265
 3248W        W 6767   0.443   5.619   3.140
 3249W        W 6768   4.628   1.297   3.154
 3250W        W 6769   9.362   6.442   1.439
 3251W        W 6770   7.085   0.373   1.747
 3252W        W 6771   4.285   1.669   2.336
 3253W        W 6772   5.193   5.680  11.437
 3254W        W 6773   6.561   7.922   9.095
 3255W        W 6774   8.044   8.865   1.719
 3256W        W 6775   4.606   6.072   8.915
 3257W        W 6776   7.047   1.814   9.469
 3258W        W 6777   8.921   4.061  10.958
 3259W        W 6778   3.280   6.473   3.328
 3260W        W 6779   6.163   4.113   9.108
 3261W        W 6780   1.839   3.689   9.588
 3262W        W 6781   9.946   9.372  11.797
 3263W        W 6782   7.030   7.536   0.742
 3264W        W 6783   9.826   6.944   2.806
 3265W        W 6784   1.870   0.812  10.831
 3266W        W 6785   4.244   2.202   2.317
 3267W        W 6786   7.076   8.038   9.013
 3268W        W 6787   9.337   0.739   8.980
 3269W        W 6788   0.855   4.548   9.478
 3270W        W 6789   6.651   6.145   3.829
 3271W        W 6790   8.386   5.566   2.767
 3272W        W 6791   8.424   1.386   2.330
 3273W        W 6792   9.345   2.645   1.383
 3274W        W 6793   6.089   6.037   0.812
 3275W        W 6794   1.854   1.826   1.403
 3276W        W 6795   7.998   9.815   2.321
 3277W        W 6796   7.124   7.128   0.306
 3278W        W 6797   9.344   9.978   2.232
 3279W        W 6798   0.468   0.305   0.287
 3280W        W 6799   3.782   0.934  10.444
 3281W        W 6800   2.329   0.937   3.634
 3282W        W 6801   8.480   4.061   8.573
 3283W        W 6802   6.445   4.533   1.774
 3284W        W 6803   2.217   5.644   8.905
 3285W        W 6804   7.505   2.262   0.341
 3286W        W 6805   0.728   4.091  10.362
 3287W        W 6806   3.602   1.411  11.389
 3288W        W 6807   5.160   6.981   8.507
 3289W        W 6808   1.280   6.052   8.910
 3290W        W 6809   9.494   5.106   0.437
 3291W        W 6810   4.631   2.630  11.855
 3292W        W 6811   8.070   6.537   9.421
 3293W        W 6812   1.832   3.247   1.404
 3294W        W 6813   7.494   9.859  11.793
 3295W        W 6814   7.088   4.746  11.983
 3296W        W 6815   7.562   8.432  11.906
 3297W        W 6816   9.872   0.921   0.430
 3298W        W 6817   6.466   5.496  11.372
 3299W        W 6818   5.519   4.583   9.058
 3300W        W 6819   4.249   4.171   3.262
 3301W        W 6820   4.586   3.164   1.785
 3302W        W 6821   9.904   9.390   2.687
 3303W        W 6822   7.017   7.940   1.851
 3304W        W 6823   7.544   3.260   9.433
 3305W        W 6824   0.749   9.946  11.997
 3306W        W 6825   3.668   3.682   2.817
 3307W        W 6826   5.602   8.017   8.973
 3308W        W 6827   6.054   9.780   1.751
 3309W        W 6828   4.233   2.647   0.461
 3310W        W 6829   5.016   3.204  10.490
 3311W        W 6830   6.143   7.094   4.140
 3312W        W 6831   8.086   8.390   1.900
 3313W        W 6832   4.062   0.264  11.970
 3314W        W 6833   0.275   0.395  11.288
 3315W        W 6834   7.877   1.380   1.376
 3316W        W 6835   0.472   1.806   0.873
 3317W        W 6836   3.235   8.821   3.332
 3318W        W 6837   3.759   6.190   3.698
 3319W        W 6838   6.445   9.894   9.475
 3320W        W 6839   7.962   6.441   0.428
 3321W        W 6840   6.498   4.672   9.010
 3322W        W 6841   0.748   4.756   2.235
 3323W        W 6842   2.750   2.332   3.315
 3324W        W 6843   5.518   1.202   9.529
 3325W        W 6844   6.659   5.535   4.096
 3326W        W 6845   8.410   7.980   2.745
 3327W        W 6846   9.788   9.971  11.292
 3328W        W 6847   2.360   0.851   2.278
 3329W        W 6848   2.285   6.958   9.844
 3330W        W 6849   9.018   3.649   2.690
 3331W        W 6850   7.415   3.662   1.388
 3332W        W 6851   0.827   6.534   1.778
 3333W        W 6852   5.977   2.758  10.068
 3334W        W 6853   8.836   1.385   0.356
 3335W        W 6854   8.984   9.870   2.277
 3336W        W 6855   4.591   7.107  10.473
 3337W        W 6856   4.208   6.038  11.911
 3338W        W 6857   5.976   3.172  10.357
 3339W        W 6858   9.919   8.907   9.425
 3340W        W 6859   9.315   0.748  10.964
 3341W        W 6860   5.585   8.337  11.895
 3342W        W 6861   0.759   8.515  11.012
 3343W        W 6862   7.420   8.924   0.463
 3344W        W 6863   1.356   5.046   1.236
 3345W        W 6864   4.760   1.727   8.999
 3346W        W 6865   1.827   2.642   8.633
 3347W        W 6866   5.582   5.113   0.469
 3348W        W 6867   1.263   5.989  11.864
 3349W        W 6868   5.540   9.405   9.841
 3350W        W 6869   1.814   0.904  10.350
 3351W        W 6870   6.649   2.313  11.944
 3352W        W 6871   2.274   9.908  11.018
 3353W        W 6872   5.694   8.836  11.998
 3354W        W 6873   0.329   1.858   3.812
 3355W        W 6874   3.586   3.612  11.999
 3356W        W 6875   2.347   6.092   1.691
 3357W        W 6876   8.093   7.137   9.060
 3358W        W 6877   5.068   4.069   0.471
 3359W        W 6878   5.007   7.035   0.371
 3360W        W 6879   8.054   5.672   1.254
 3361W        W 6880   6.156   5.628   0.773
 3362W        W 6881   0.919   4.156   9.537
 3363W        W 6882   3.297   0.292   9.520
 3364W        W 6883   6.539   8.557  11.371
 3365W        W 6884   8.442   2.763   9.120
 3366W        W 6885   9.437   0.429   9.029
 3367W        W 6886   7.983   5.210   0.826
 3368W        W 6887   7.893   7.452  11.436
 3369W        W 6888   3.318   6.174   1.234
 3370W        W 6889   0.871   1.709   8.965
 3371W        W 6890   6.961   7.463  11.434
 3372W        W 6891   0.900   9.854   0.915
 3373W        W 6892   4.136   3.249   0.880
 3374W        W 6893   7.978   8.460   9.842
 3375W        W 6894   1.771   7.126  11.903
 3376W        W 6895   0.293   7.892   9.525
 3377W        W 6896   5.576   4.160   9.920
 3378W        W 6897   7.512   5.503   3.246
 3379W        W 6898   8.088   4.229   0.921
 3380W        W 6899   1.241   2.230  11.435
 3381W        W 6900   4.684   6.433   0.745
 3382W        W 6901   4.545   0.859   2.727
 3383W        W 6902   6.462   7.533   9.875
 3384W        W 6903   3.775   0.402   1.896
 3385W        W 6904   9.773   6.534   2.392
 3386W        W 6905   4.671   0.456  11.394
 3387W        W 6906   7.590   8.497  10.928
 3388W        W 6907   3.592   9.925  11.402
 3389W        W 6908   0.414   3.701   1.207
 3390W        W 6909   3.138   6.095   0.465
 3391W        W 6910   7.507   8.378   1.868
 3392W        W 6911   3.685   6.049   9.374
 3393W        W 6912   9.356   5.667   3.204
 3394W        W 6913   8.432   7.534   0.929
 3395W        W 6914   9.414   5.018  11.854
 3396W        W 6915   7.996   0.800  10.509
 3397W        W 6916   2.660   4.561   8.498
 3398W        W 6917   0.297   0.897   0.460
 3399W        W 6918   7.041   6.451   3.754
 3400W        W 6919   9.486   3.296  11.886
 3401W        W 6920   9.305   8.058   9.841
 3402W        W 6921   3.162   4.258   0.266
 3403W        W 6922   4.624   6.516   3.747
 3404W        W 6923   3.662   0.935  10.931
 3405W        W 6924   9.857   1.852   1.264
 3406W        W 6925   9.850   0.457   1.402
 3407W        W 6926   2.633   0.771  11.865
 3408W        W 6927   5.210   6.155   3.781
 3409W        W 6928   8.950   9.793   9.564
 3410W        W 6929   5.683   0.268   1.795
 3411W        W 6930   5.182   9.427  11.926
 3412W        W 6931   0.363   7.994  11.790
 3413W        W 6932   8.022   6.506   8.961
 3414W        W 6933   4.530   7.890  10.970
 3415W        W 6934   8.561   0.346   3.324
 3416W        W 6935   3.096   3.267  11.392
 3417W        W 6936   2.260   6.110   0.799
 3418W        W 6937   8.965   0.759  10.371
 3419W        W 6938   8.339   9.350  11.968
 3420W        W 6939   5.209   2.233   8.443
 3421W        W 6940   0.734   7.934  11.425
 3422W        W 6941   7.869   3.311   1.405
 3423W        W 6942   2.301   4.092   2.644
 3424W        W 6943   8.054   4.576   9.945
 3425W        W 6944   3.715   9.004   0.899
 3426W        W 6945   0.268   4.110  11.006
 3427W        W 6946   5.116   2.247  11.899
 3428W        W 6947   5.159   9.851   2.219
 3429W        W 6948   4.250   8.960   3.328
 3430W        W 6949   0.299   8.873  10.345
 3431W        W 6950   2.648   4.739   2.818
 3432W        W 6951   3.108   2.252   9.515
 3433W        W 6952   6.060   3.147  10.058
 3434W        W 6953   1.380   2.208   3.294
 3435W        W 6954   2.351   2.657   9.475
 3436W        W 6955   6.535   1.738   1.911
 3437W        W 6956   2.768   6.070   0.244
 3438W        W 6957   7.386   2.711   9.495
 3439W        W 6958   3.736   4.655   8.986
 3440W        W 6959   8.523   2.746  10.951
 3441W        W 6960   0.259   6.171   0.792
 3442W        W 6961   1.359   8.087  11.855
 3443W        W 6962   9.450   3.668  10.461
 3444W        W 6963   9.509   1.707  11.011
 3445W        W 6964   1.404   3.198  10.379
 3446W        W 6965   6.920   5.215   8.946
 3447W        W 6966   1.291   9.442  10.513
 3448W        W 6967   6.647   0.944  10.468
 3449W        W 6968   3.255   8.958   9.490
 3450W        W 6969   6.125   1.811   8.910
 3451W        W 6970   3.627   8.486   9.887
 3452W        W 6971   3.786   7.870   2.206
 3453W        W 6972   1.866   1.849   9.486
 3454W        W 6973   7.988   3.309   1.908
 3455W        W 6974   6.000   1.898  10.992
 3456W        W 6975   5.978   3.730   9.858
 3457W        W 6976   6.170   9.338   9.427
 3458W        W 6977   6.183   4.125   1.325
 3459W        W 6978   9.361   5.136   9.972
 3460W        W 6979   6.532   0.280   1.261
 3461W        W 6980   0.382   9.359   0.470
 3462W        W 6981   8.019   3.144   9.039
 3463W        W 6982   1.796   2.620   2.809
 3464W        W 6983   6.933   2.362   9.079
 3465W        W 6984   3.139   9.890   9.473
 3466W        W 6985   3.572   9.390   3.801
 3467W        W 6986   5.218   7.063   2.876
 3468W        W 6987   1.746   3.676  11.882
 3469W        W 6988   8.015   1.380  11.017
 3470W        W 6989   5.053   3.584   8.132
 3471W        W 6990   0.928   3.169   3.355
 3472W        W 6991   8.988   9.325   1.355
 3473W        W 6992   5.167   4.656  11.017
 3474W        W 6993   5.174   7.601  10.044
 3475W        W 6994   7.988   2.294  10.557
 3476W        W 6995   6.038   4.716   1.714
 3477W        W 6996   1.402   4.220   9.455
 3478W        W 6997   6.036   6.457   2.824
 3479W        W 6998   5.487   3.585  10.508
 3480W        W 6999   5.101   2.732   8.942
 3481W        W 7000   7.575   8.418   2.331
 3482W        W 7001   3.732   3.704   9.011
 3483W        W 7002   3.310   4.562   3.294
 3484W        W 7003   4.670   3.589   2.808
 3485W        W 7004   3.609   8.022  11.920
 3486W        W 7005   6.978   4.612   2.696
 3487W        W 7006   2.198   4.559   3.290
 3488W        W 7007   8.539   3.147   1.736
 3489W        W 7008   4.093   7.516   0.372
 3490W        W 7009   0.402   5.629  10.422
 3491W        W 7010   2.158   0.397  10.066
 3492W        W 7011   1.339   2.363   8.975
 3493W        W 7012   7.615   6.073   3.315
 3494W        W 7013   2.813   7.059   0.443
 3495W        W 7014   3.774   5.197   3.820
 3496W        W 7015   2.750   6.946  10.828
 3497W        W 7016   1.727   8.860  11.965
 3498W        W 7017   4.218   8.492  11.812
 3499W        W 7018   5.621   2.841  11.288
 3500W        W 7019   5.516   0.398   0.381
 3501W        W 7020   0.249   4.271   1.260
 3502W        W 7021   9.463   5.985   8.556
 3503W        W 7022   4.257   6.996   8.940
 3504W        W 7023   8.936   9.393  11.821
 3505W        W 7024   6.179   5.238   0.897
 3506W        W 7025   9.006   2.794   2.746
 3507W        W 7026   2.627   3.247   1.271
 3508W        W 7027   5.581   7.142   1.899
 3509W        W 7028   5.097   7.901   2.808
 3510W        W 7029   4.190   7.587   9.879
 3511W        W 7030   3.573   6.920  11.433
 3512W        W 7031   0.823   2.836   0.296
 3513W        W 7032   1.320   1.887   9.427
 3514W        W 7033   4.272   5.596   2.817
 3515W        W 7034   9.499   7.137   9.391
 3516W        W 7035   5.073   9.875   3.204
 3517W        W 7036   6.461   6.550   1.374
 3518W        W 7037   2.263   4.753  10.333
 3519W        W 7038   3.111   0.267  11.384
 3520W        W 7039   3.679   9.493   0.802
 3521W        W 7040   5.484   2.322  11.904
 3522W        W 7041   8.459   6.934  10.831
 3523W        W 7042   8.834   9.861   2.815
 3524W        W 7043   7.584   0.456   1.236
 3525W        W 7044   1.877   8.428   9.481
 3526W        W 7045   1.779   1.392   2.720
 3527W        W 7046   4.558   6.907  11.037
 3528W        W 7047   5.093   1.396   0.403
 3529W        W 7048   9.886   8.495  11.037
 3530W        W 7049   9.983   0.412   2.790
 3531W        W 7050   6.187   6.595  11.807
 3532W        W 7051   2.733   7.858   1.361
 3533W        W 7052   5.523   0.888   2.231
 3534W        W 7053   0.332   5.994   9.371
 3535W        W 7054   1.904   9.413   1.339
 3536W        W 7055   5.208   7.115   8.072
 3537W        W 7056   9.508   8.533   9.431
 3538W        W 7057   6.654   4.636  10.976
 3539W        W 7058   0.870   0.807  11.819
 3540W        W 7059   7.129   6.616   0.264
 3541W        W 7060   8.889   3.704  11.925
 3542W        W 7061   2.211   1.229   9.899
 3543W        W 7062   1.354   8.376   1.440
 3544W        W 7063   9.380   8.379   1.812
 3545W        W 7064   5.543   3.778   7.945
 3546W        W 7065   9.874   0.268  10.554
 3547W        W 7066   7.907   4.683   2.676
 3548W        W 7067   9.016   7.901   0.885
 3549W        W 7068   5.976   0.859   0.313
 3550W        W 7069   5.711   5.082   9.025
 3551W        W 7070   5.617   7.031   8.908
 3552W        W 7071   0.744   7.992   9.896
 3553W        W 7072   6.470   5.649   3.295
 3554W        W 7073   0.335   4.155   0.736
 3555W        W 7074   2.318   1.680  11.780
 3556W        W 7075   5.153   1.890  11.959
 3557W        W 7076   8.050   7.070   3.225
 3558W        W 7077   0.759   1.426   9.859
 3559W        W 7078   0.908   9.794   1.201
 3560W        W 7079   4.049   8.915   9.891
 3561W        W 7080   8.030   3.271  11.327
 3562W        W 7081   7.006   3.780  10.447
 3563W        W 7082   7.110   8.417   0.465
 3564W        W 7083   7.059   1.253   9.980
 3565W        W 7084   1.719   2.766  10.465
 3566W        W 7085   0.946   9.421  11.484
 3567W        W 7086   6.513   8.022   9.993
 3568W        W 7087   6.955   9.523  10.326
 3569W        W 7088   1.808   8.903   1.835
 3570W        W 7089   1.309   5.177   3.148
 3571W        W 7090   9.941   5.990   0.883
 3572W        W 7091   8.983   3.193   3.189
 3573W        W 7092   4.544   7.529  10.079
 3574W        W 7093   4.691   7.094   1.833
 3575W        W 7094   4.710   8.998  10.504
 3576W        W 7095   9.515   6.921   1.706
 3577W        W 7096   8.895   4.595   9.467
 3578W        W 7097   9.788   8.831   0.896
 3579W        W 7098   9.318   0.332   9.528
 3580W        W 7099   1.376   1.202   9.926
 3581W        W 7100   7.971   8.822   9.910
 3582W        W 7101   7.449   5.960   9.095
 3583W        W 7102   4.192   8.420  10.978
 3584W        W 7103   1.889   6.073   0.738
 3585W        W 7104   1.690   0.928   8.916
 3586W        W 7105   4.258   7.901   2.782
 3587W        W 7106   6.930   9.289   3.618
 3588W        W 7107   6.511   0.876  10.004
 3589W        W 7108   5.143   7.861   3.212
 3590W        W 7109   5.224   7.563   2.251
 3591W        W 7110   6.033   7.568   9.095
 3592W        W 7111   1.702   2.189   8.920
 3593W        W 7112   2.780   0.780   9.559
 3594W        W 7113   5.089   7.454   0.402
 3595W        W 7114   9.979   9.878  10.881
 3596W        W 7115   3.126   5.080   9.530
 3597W        W 7116   1.845   9.888   1.258
 3598W        W 7117   0.244   1.865   2.677
 3599W        W 7118   7.416   8.946  11.467
 3600W        W 7119   1.885   0.273   8.946
 3601W        W 7120   7.001   5.149   3.754
 3602W        W 7121   9.487   9.766  10.384
 3603W        W 7122   4.603   0.780   1.681
 3604W        W 7123   6.964   1.359   2.306
 3605W        W 7124   1.720   5.481   0.889
 3606W        W 7125   2.233   1.198   3.265
 3607W        W 7126   6.537   4.714   0.947
 3608W        W 7127   9.387   9.834   3.185
 3609W        W 7128   5.697   8.452   2.712
 3610W        W 7129   1.211   7.612  11.868
 3611W        W 7130   6.597   3.286   0.895
 3612W        W 7131   4.701   0.939   9.584
 3613W        W 7132   2.697   2.255   1.743
 3614W        W 7133   0.468   3.097   3.194
 3615W        W 7134   8.359   8.985   1.236
 3616W        W 7135   6.152   1.386   3.237
 3617W        W 7136   5.113   7.056   4.212
 3618W        W 7137   6.052   4.738  11.484
 3619W        W 7138   2.228   9.960   0.921
 3620W        W 7139   2.262   2.330   0.783
 3621W        W 7140   7.581   2.774   3.250
 3622W        W 7141   5.523   6.580   1.774
 3623W        W 7142   4.665   2.279   3.292
 3624W        W 7143   1.794   9.816   1.778
 3625W        W 7144   6.661   8.451   9.564
 3626W        W 7145   1.324   4.272   2.702
 3627W        W 7146   6.457   3.142   9.012
 3628W        W 7147   3.231   5.523   2.872
 3629W        W 7148   5.508   6.148   4.252
 3630W        W 7149   9.403   5.065   3.205
 3631W        W 7150   5.645   8.887   0.442
 3632W        W 7151   3.692   2.176  10.383
 3633W        W 7152   6.951   7.429  10.015
 3634W        W 7153   3.124   9.517   0.926
 3635W        W 7154   3.169   3.623   9.890
 3636W        W 7155   5.616   9.993   0.874
 3637W        W 7156   8.859   6.174   9.462
 3638W        W 7157   8.528   5.505   0.261
 3639W        W 7158   7.597   3.225   1.831
 3640W        W 7159   5.014   5.706   1.814
 3641W        W 7160   7.905   9.956   8.943
 3642W        W 7161   0.379   9.293  10.423
 3643W        W 7162   1.680   5.023   1.267
 3644W        W 7163   8.408   9.046   2.667
 3645W        W 7164   4.207   0.830   0.405
 3646W        W 7165   5.170   9.518   2.202
 3647W        W 7166   4.704   3.648  11.810
 3648W        W 7167   4.641   1.745  10.045
 3649W        W 7168   8.927   2.159   2.790
 3650W        W 7169   5.527   7.410   8.619
 3651W        W 7170   0.403   1.832  11.422
 3652W        W 7171   1.838   8.921   8.926
 3653W        W 7172   0.432   6.969   0.867
 3654W        W 7173   4.130   3.289   2.691
 3655W        W 7174   7.909   3.698  11.872
 3656W        W 7175   6.925   2.154  11.461
 3657W        W 7176   0.944   2.252  10.860
 3658W        W 7177   3.104   2.638   3.743
 3659W        W 7178   5.996   9.913   2.355
 3660W        W 7179   6.647   4.537   1.251
 3661W        W 7180   6.649   8.855   2.877
 3662W        W 7181   7.956   9.471   9.954
 3663W        W 7182   3.298   7.564  10.462
 3664W        W 7183   9.811   2.671  11.889
 3665W        W 7184   9.937   4.678  10.814
 3666W        W 7185   6.103   9.910   3.125
 3667W        W 7186   1.887   7.944   1.367
 3668W        W 7187   3.585   6.657   9.950
 3669W        W 7188   1.887   1.709   2.400
 3670W        W 7189   0.867   6.117  11.040
 3671W        W 7190   7.065   0.425   3.329
 3672W        W 7191   1.780   7.506   1.717
 3673W        W 7192   4.625   8.856   8.905
 3674W        W 7193   2.226   6.997   2.755
 3675W        W 7194   7.420   7.885  10.880
 3676W        W 7195   1.278   0.467   0.909
 3677W        W 7196   0.305   0.837  11.502
 3678W        W 7197   3.253   4.692   1.897
 3679W        W 7198   7.129   5.199  11.904
 3680W        W 7199   5.113   7.931   0.801
 3681W        W 7200   4.551   0.339  10.822
 3682W        W 7201   5.082   3.261  10.808
 3683W        W 7202   8.349   9.810   0.887
 3684W        W 7203   1.688   4.569  10.992
 3685W        W 7204   8.440   0.308   2.795
 3686W        W 7205   4.088   3.192   1.347
 3687W        W 7206   0.376   1.881  10.970
 3688W        W 7207   5.175   5.527   2.315
 3689W        W 7208   7.032   5.685  11.346
 3690W        W 7209   5.530   2.670   1.877
 3691W        W 7210   0.810   4.231  10.009
 3692W        W 7211   3.180   8.934   1.303
 3693W        W 7212   8.973   9.828   9.019
 3694W        W 7213   2.370   4.720  11.887
 3695W        W 7214   6.157   9.004   9.469
 3696W        W 7215   9.398   5.679   9.454
 3697W        W 7216   7.987   6.167   8.912
 3698W        W 7217   4.089   7.452  10.874
 3699W        W 7218   8.432   6.501   3.244
 3700W        W 7219   7.583   4.078   9.058
 3701W        W 7220   7.914   2.652   9.403
 3702W        W 7221   0.293   4.746  10.473
 3703W        W 7222   3.192   8.546  11.497
 3704W        W 7223   2.162   7.444  10.044
 3705W        W 7224   8.035   7.891   1.431
 3706W        W 7225   2.250   1.803   2.661
 3707W        W 7226   6.081   5.204   9.847
 3708W        W 7227   2.308   0.329   3.196
 3709W        W 7228   0.354   6.484  11.780
 3710W        W 7229   5.092   9.314   3.259
 3711W        W 7230   2.623   0.270   0.327
 3712W        W 7231   3.685   4.650   2.189
 3713W        W 7232   2.194   5.148  10.501
 3714W        W 7233   5.574   0.905   0.828
 3715W        W 7234   9.412   2.327  10.037
 3716W        W 7235   2.190   0.752   9.571
 3717W        W 7236   1.766   8.939   0.886
 3718W        W 7237   7.016   7.024  10.516
 3719W        W 7238   4.152   8.521   2.197
 3720W        W 7239   2.811   4.661  11.007
 3721W        W 7240   4.645   5.606   1.784
 3722W        W 7241   1.797   8.902   2.337
 3723W        W 7242   0.398   8.384  10.335
 3724W        W 7243   6.499   6.630  11.964
 3725W        W 7244   6.623   5.020   9.448
 3726W        W 7245   0.372   2.318  11.794
 3727W        W 7246   7.520   8.908   2.701
 3728W        W 7247   3.638   9.905  10.038
 3729W        W 7248   2.314   6.472   1.219
 3730W        W 7249   5.575   3.793   0.362
 3731W        W 7250   3.715   5.236   1.842
 3732W        W 7251   1.362   4.099   1.680
 3733W        W 7252   6.141   8.450  11.440
 3734W        W 7253   8.879   8.541   2.722
 3735W        W 7254   0.728   7.895   1.708
 3736W        W 7255   3.209   9.915  10.054
 3737W        W 7256   7.513   7.122   2.691
 3738W        W 7257   4.750   5.234   0.339
 3739W        W 7258   2.747   8.506   3.331
 3740W        W 7259   5.541   9.373   0.303
 3741W        W 7260   2.177   4.710   1.869
 3742W        W 7261   3.724   9.489   9.383
 3743W        W 7262   5.624   4.141   2.846
 3744W        W 7263   8.812   9.806   0.949
 3745W        W 7264   3.755   2.772   8.892
 3746W        W 7265   6.005   2.832   1.731
 3747W        W 7266   8.943   0.431   2.790
 3748W        W 7267   1.309   8.410   9.113
 3749W        W 7268   6.988   1.273  10.469
 3750W        W 7269   5.205   8.365   9.039
 3751W        W 7270   9.482   4.704   1.920
 3752W        W 7271   9.916   9.769   0.729
 3753W        W 7272   5.086   0.296   1.302
 3754W        W 7273   0.428   5.563  10.872
 3755W        W 7274   8.075   4.144  11.760
 3756W        W 7275   0.355   4.620  10.019
 3757W        W 7276   2.303   8.564   2.811
 3758W        W 7277   4.058   1.867   0.419
 3759W        W 7278   3.724   2.800  11.839
 3760W        W 7279   1.208   2.225   1.852
 3761W        W 7280   6.430   4.071   9.366
 3762W        W 7281   6.122   6.008   9.026
 3763W        W 7282   5.987   9.320   0.257
 3764W        W 7283   5.021   1.269  11.890
 3765W        W 7284   5.990   5.226   1.693
 3766W        W 7285   2.639   6.082  10.800
 3767W        W 7286   1.318   2.222   2.751
 3768W        W 7287   2.208   9.895   2.302
 3769W        W 7288   7.133   8.986  11.783
 3770W        W 7289   6.969   5.017   0.349
 3771W        W 7290   6.916   5.176   0.770
 3772W        W 7291   8.832   3.703   1.256
 3773W        W 7292   4.115   0.831  11.425
 3774W        W 7293   7.110   8.878  11.457
 3775W        W 7294   6.562   9.024   8.902
 3776W        W 7295   4.564   0.306   9.074
 3777W        W 7296   8.381   8.033   9.527
 3778W        W 7297   8.886   4.272   1.262
 3779W        W 7298   1.855   9.417   2.770
 3780W        W 7299   2.789   9.505  11.770
 3781W        W 7300   2.197   9.483   9.494
 3782W        W 7301   7.938   7.970   0.422
 3783W        W 7302   6.953   4.741   9.072
 3784W        W 7303   9.927   9.991   0.474
 3785W        W 7304   7.429   5.614   1.827
 3786W        W 7305   4.711   0.735   3.192
 3787W        W 7306   4.249   1.864   1.707
 3788W        W 7307   7.039   1.307   3.148
 3789W        W 7308   2.321   9.877   3.354
 3790W        W 7309   6.976   2.807   3.310
 3791W        W 7310   9.960   7.464  11.350
 3792W        W 7311   5.033   1.415   9.117
 3793W        W 7312   7.482   7.115  10.361
 3794W        W 7313   4.652   9.042   0.912
 3795W        W 7314   2.377   0.723  10.862
 3796W        W 7315   5.161   3.328   0.476
 3797W        W 7316   5.597   6.089   9.516
 3798W        W 7317   3.250   9.804  10.951
 3799W        W 7318   1.871   2.371   1.755
 3800W        W 7319   2.365   4.202   1.415
 3801W        W 7320   0.784   8.847   2.227
 3802W        W 7321   2.191   3.167   2.395
 3803W        W 7322   5.999   2.782  11.972
 3804W        W 7323   9.956   4.541   0.249
 3805W        W 7324   1.377   4.583   0.818
 3806W        W 7325   5.073   4.192   2.390
 3807W        W 7326   8.873   7.555   0.299
 3808W        W 7327   3.301   6.520  10.552
 3809W        W 7328   4.654   2.167   1.847
 3810W        W 7329   2.770   1.278   2.652
 3811W        W 7330   5.517   4.196   8.411
 3812W        W 7331   8.532   9.008  11.480
 3813W        W 7332   8.011   1.674  11.363
 3814W        W 7333   0.264   0.820   2.805
 3815W        W 7334   5.665   5.698   2.699
 3816W        W 7335   4.539   4.139  10.830
 3817W        W 7336   1.793   2.336   2.827
 3818W        W 7337   4.612   2.732   0.333
 3819W        W 7338   8.033   4.216   9.029
 3820W        W 7339   1.386   0.334   2.284
 3821W        W 7340   2.187   7.608   2.803
 3822W        W 7341   3.284   4.685   2.328
 3823W        W 7342   7.892   9.340   0.780
 3824W        W 7343   7.518   0.759  11.399
 3825W        W 7344   5.512   7.881   3.356
 3826W        W 7345   1.291   4.259  11.966
 3827W        W 7346   9.321   1.262  10.870
 3828W        W 7347   4.095   7.467   1.706
 3829W        W 7348   6.176   0.409   3.194
 3830W        W 7349   4.603   7.497   1.311
 3831W        W 7350   3.648   3.330  11.000
 3832W        W 7351   8.037   3.793   2.204
 3833W        W 7352   2.310   2.215  11.861
 3834W        W 7353   7.516   7.112  10.017
 3835W        W 7354   3.683   2.194   9.485
 3836W        W 7355   9.382   1.286   1.248
 3837W        W 7356   5.548   9.299  10.849
 3838W        W 7357   3.690   6.459  10.936
 3839W        W 7358   2.299   3.788   0.375
 3840W        W 7359   1.243   0.367  11.302
 3841W        W 7360   3.717   3.234  11.918
 3842W        W 7361   0.297   9.394   0.721
 3843W        W 7362   2.278   3.300   9.537
 3844W        W 7363   4.189   6.146   4.293
 3845W        W 7364   1.362   5.485   2.659
 3846W        W 7365   9.882   1.282  11.029
 3847W        W 7366   6.543   6.494   0.898
 3848W        W 7367   4.635   8.892   1.874
 3849W        W 7368   5.664   4.072  10.837
 3850W        W 7369   1.804   5.623  11.322
 3851W        W 7370   0.877   1.786   2.339
 3852W        W 7371   0.755   7.026   2.660
 3853W        W 7372   6.626   5.219   3.150
 3854W        W 7373   7.611   1.809   2.792
 3855W        W 7374   2.676   5.007   9.377
 3856W        W 7375   7.559   5.192   0.323
 3857W        W 7376   0.343   3.317  10.509
 3858W        W 7377   1.267   7.594   8.903
 3859W        W 7378   0.388   3.807  10.324
 3860W        W 7379   7.460   1.740  11.383
 3861W        W 7380   7.931   2.812   1.250
 3862W        W 7381   8.862   7.060  11.847
 3863W        W 7382   5.550   3.649   3.788
 3864W        W 7383   3.709   4.617   1.227
 3865W        W 7384   2.822   1.755   9.000
 3866W        W 7385   0.346   2.206   3.261
 3867W        W 7386   9.294   5.092   1.845
 3868W        W 7387   3.774   8.827   1.299
 3869W        W 7388   5.609   2.278   3.749
 3870W        W 7389   8.931   8.861   1.836
 3871W        W 7390   1.845   8.818   2.846
 3872W        W 7391   6.644   1.892   0.878
 3873W        W 7392   0.739   2.216  10.333
 3874W        W 7393   4.272   5.702  10.074
 3875W        W 7394   3.229   1.193  11.310
 3876W        W 7395   2.330   5.169   2.216
 3877W        W 7396   3.165   9.337   0.320
 3878W        W 7397   8.482   1.378  11.414
 3879W        W 7398   1.231   7.991   0.808
 3880W        W 7399   6.500   3.744   2.364
 3881W        W 7400   5.513   8.047  10.026
 3882W        W 7401   9.509   1.381  11.995
 3883W        W 7402   4.725   7.987  10.327
 3884W        W 7403   3.767   6.102  11.883
 3885W        W 7404   8.489   8.033   0.946
 3886W        W 7405   0.306   2.748  11.354
 3887W        W 7406   1.818   8.524   0.361
 3888W        W 7407   1.693   3.776   9.982
 3889W        W 7408   8.347   9.424   0.938
 3890W        W 7409   7.038   0.405   0.926
 3891W        W 7410   7.473   8.557   2.684
 3892W        W 7411   8.928   4.090   1.787
 3893W        W 7412   7.896   4.076   3.203
 3894W        W 7413   9.344   3.650  10.017
 3895W        W 7414   4.704   0.240   2.839
 3896W        W 7415   5.634   1.764   3.159
 3897W        W 7416   4.215   4.690   0.952
 3898W        W 7417   2.796   7.538   9.953
 3899W        W 7418   4.544   0.434   2.251
 3900W        W 7419   3.687   3.577   1.883
 3901W        W 7420   4.237   3.587   9.112
 3902W        W 7421   4.727   8.948  11.475
 3903W        W 7422   5.009   7.858  11.395
 3904W        W 7423   3.728   7.102   3.301
 3905W        W 7424   9.891   7.014  11.366
 3906W        W 7425   5.159   9.768   2.674
 3907W        W 7426   9.990   6.549   9.887
 3908W        W 7427   3.272   1.719  11.948
 3909W        W 7428   2.147   7.483   0.261
 3910W        W 7429   1.275   8.533  10.935
 3911W        W 7430   3.693   3.288   8.580
 3912W        W 7431   8.957   8.501   1.429
 3913W        W 7432   7.613   3.178  10.342
 3914W        W 7433   4.059   3.607  10.461
 3915W        W 7434   7.059   8.351   2.186
 3916W        W 7435   2.784   2.206   9.041
 3917W        W 7436   0.367   8.031   2.371
 3918W        W 7437   6.173   8.991   3.265
 3919W        W 7438   7.507   0.823   1.716
 3920W        W 7439   2.771   3.667   8.908
 3921W        W 7440   4.613   9.435  10.028
 3922W        W 7441   8.991   8.524   0.724
 3923W        W 7442   5.230   8.434  10.528
 3924W        W 7443   1.743   6.992   0.354
 3925W        W 7444   9.927   8.078   1.256
 3926W        W 7445   4.168   9.457  10.060
 3927W        W 7446   3.251   5.233   3.778
 3928W        W 7447   4.162   8.832   0.854
 3929W        W 7448   6.025   6.910   2.645
 3930W        W 7449   8.912   3.143  11.877
 3931W        W 7450   3.693   6.144   2.193
 3932W        W 7451   0.319   2.733  11.915
 3933W        W 7452   0.902   6.053   9.506
 3934W        W 7453   3.247   2.732   3.124
 3935W        W 7454   7.068   1.790  10.423
 3936W        W 7455   7.947   9.868  10.076
 3937W        W 7456   5.586   0.330  11.399
 3938W        W 7457   3.741   5.563   1.763
 3939W        W 7458   7.518   3.273  11.861
 3940W        W 7459   4.216   0.259   2.783
 3941W        W 7460   9.474   2.776   9.582
 3942W        W 7461   3.615   7.538   9.975
 3943W        W 7462   2.785   2.755   2.258
 3944W        W 7463   5.555   4.603  11.762
 3945W        W 7464   4.186   4.106  10.888
 3946W        W 7465   7.505   8.040  11.299
 3947W        W 7466   1.781   1.265  10.527
 3948W        W 7467   3.646   8.945   9.058
 3949W        W 7468   5.097   9.493   1.292
 3950W        W 7469   2.690   0.412   9.868
 3951W        W 7470   8.073   4.569  11.904
 3952W        W 7471   2.740   7.057   8.885
 3953W        W 7472   9.496   4.147  11.005
 3954W        W 7473   5.677   0.319  11.852
 3955W        W 7474   9.441   7.055   3.236
 3956W        W 7475   6.535   1.690  10.514
 3957W        W 7476   2.700   4.588   0.304
 3958W        W 7477   3.718   3.204   1.731
 3959W        W 7478   4.723   9.440   3.348
 3960W        W 7479   4.632   5.054  10.013
 3961W        W 7480   1.823   6.105  10.452
 3962W        W 7481   7.609   2.644   1.369
 3963W        W 7482   2.342   6.566   2.752
 3964W        W 7483   0.272   4.073   3.204
 3965W        W 7484   5.082   6.146   9.990
 3966W        W 7485   4.555   8.891   2.288
 3967W        W 7486   9.774   5.154   9.398
 3968W        W 7487   4.557   3.126   8.949
 3969W        W 7488   4.717   7.415   9.091
 3970W        W 7489   6.020   9.412   1.680
 3971W        W 7490   7.393   3.636  11.894
 3972W        W 7491   9.506   5.672   2.654
 3973W        W 7492   6.971   6.544   1.722
 3974W        W 7493   5.573   6.130  11.820
 3975W        W 7494   4.209   9.950   0.260
 3976W        W 7495   8.965   9.871   3.220
 3977W        W 7496   7.564   4.249   0.942
 3978W        W 7497   4.205   1.341   1.851
 3979W        W 7498   5.964   1.384   0.295
 3980W        W 7499   9.288   7.928   0.459
 3981W        W 7500   9.447   8.917   2.395
 3982W        W 7501   0.752   9.507   1.210
 3983W        W 7502   2.816   6.431   0.290
 3984W        W 7503   8.898   4.122   2.341
 3985W        W 7504   3.665   8.046   1.420
 3986W        W 7505   2.702   9.426   1.804
 3987W        W 7506   2.831   2.785   2.680
 3988W        W 7507   5.980   4.675   3.791
 3989W        W 7508   9.764   2.676   2.264
 3990W        W 7509   7.956   5.196   0.414
 3991W        W 7510   5.193   3.793   1.811
 3992W        W 7511   1.349   0.459  10.477
 3993W        W 7512   8.405   8.422   2.704
 3994W        W 7513   5.179   7.497   2.649
 3995W        W 7514   3.736   2.772   3.225
 3996W        W 7515   9.784   5.232  11.763
 3997W        W 7516   6.179   5.631  10.800
 3998W        W 7517   4.159   2.756  10.013
 3999W        W 7518   0.380   2.717   9.075
 4000W        W 7519   6.513   6.176   3.296
 4001W        W 7520   6.941   7.405   2.855
 4002W        W 7521   1.313   7.116   1.717
 4003W        W 7522   2.170   4.575  11.324
 4004W        W 7523   0.406   2.801   0.466
 4005W        W 7524   3.769   3.308   1.383
 4006W        W 7525   8.540   7.436   0.342
 4007W        W 7526   5.027   5.105   9.050
 4008W        W 7527   4.146   4.635   3.638
 4009W        W 7528   1.732   5.547   3.614
 4010W        W 7529   8.421   2.369   1.792
 4011W        W 7530   4.607   7.406   0.846
 4012W        W 7531   5.690   7.916   0.883
 4013W        W 7532   1.751   4.720   0.832
 4014W        W 7533   7.613   7.939   2.214
 4015W        W 7534   4.634   8.946   9.449
 4016W        W 7535   7.547   5.679  10.817
 4017W        W 7536   9.523   4.219   1.387
 4018W        W 7537   4.087   1.825   9.025
 4019W        W 7538   6.938   2.312   8.626
 4020W        W 7539   8.870   2.203   2.209
 4021W        W 7540   7.141   7.933   1.226
 4022W        W 7541   3.119   9.883   0.270
 4023W        W 7542   8.077   4.704   3.172
 4024W        W 7543   3.263   3.129  10.443
 4025W        W 7544   3.301   7.049  10.887
 4026W        W 7545   7.447   6.121  11.840
 4027W        W 7546   0.855   5.692  11.489
 4028W        W 7547   4.281   2.780  11.286
 4029W        W 7548   8.820   8.857  10.384
 4030W        W 7549   6.951   8.959   2.346
 4031W        W 7550   0.423   7.452   1.894
 4032W        W 7551   5.075   8.896   1.780
 4033W        W 7552   3.736   0.304  10.542
 4034W        W 7553   7.105   5.497   9.397
 4035W        W 7554   2.346   6.913   1.439
 4036W        W 7555   7.013   6.486   2.805
 4037W        W 7556   4.224   1.850   1.278
 4038W        W 7557   4.069   8.889   1.331
 4039W        W 7558   1.892   7.431   9.370
 4040W        W 7559   4.245   5.709   0.458
 4041W        W 7560   7.388   0.932   3.304
 4042W        W 7561   5.589   8.563   9.395
 4043W        W 7562   5.038   9.432  11.281
 4044W        W 7563   6.518   7.066  11.813
 4045W        W 7564   1.716   9.458   1.835
 4046W        W 7565   9.361   2.296   9.098
 4047W        W 7566   2.688   4.637   1.385
 4048W        W 7567   8.392   0.240  10.077
 4049W        W 7568   0.862   9.981   2.744
 4050W        W 7569   8.917   2.644   9.919
 4051W        W 7570   6.004   9.987   1.329
 4052W        W 7571   5.496   3.163  10.816
 4053W        W 7572   8.556   5.009   0.861
 4054W        W 7573   5.478   9.826   0.455
 4055W        W 7574   3.134   2.799   8.990
 4056W        W 7575   6.959   9.768   2.816
 4057W        W 7576   0.313   5.009   0.818
 4058W        W 7577   6.457   1.675   2.279
 4059W        W 7578   1.309   3.581  10.496
 4060W        W 7579   2.209   3.324   8.952
 4061W        W 7580   4.282   5.676   9.020
 4062W        W 7581   1.874   8.928   9.920
 4063W        W 7582   6.447   6.459   4.244
 4064W        W 7583   6.628   9.955  11.863
 4065W        W 7584   0.865   0.373  10.922
 4066W        W 7585   6.952   2.175   2.165
 4067W        W 7586   2.720   7.871  11.810
 4068W        W 7587   7.121   0.422  10.963
 4069W        W 7588   6.096   1.811  11.362
 4070W        W 7589   7.033   4.190   2.690
 4071W        W 7590   1.705   4.525  10.409
 4072W        W 7591   7.947   1.375   0.859
 4073W        W 7592   4.089   5.172   9.400
 4074W        W 7593   5.023   1.692   2.827
 4075W        W 7594   0.727   2.169   0.458
 4076W        W 7595   4.076   0.238   1.339
 4077W        W 7596   7.406   4.113  10.005
 4078W        W 7597   6.617   6.135   0.819
 4079W        W 7598   6.451   8.431   9.923
 4080W        W 7599   5.640   5.484   9.898
 4081W        W 7600   0.908   0.398   3.242
 4082W        W 7601   8.565   1.842   2.744
 4083W        W 7602   2.266   5.968  10.967
 4084W        W 7603   4.219   9.939  11.880
 4085W        W 7604   2.195   8.835   3.211
 4086W        W 7605   6.617   4.566   8.116
 4087W        W 7606   6.590   6.049   1.839
 4088W        W 7607   8.003   4.100   0.333
 4089W        W 7608   7.949   6.504   3.657
 4090W        W 7609   9.434   0.812   1.284
 4091W        W 7610   0.909   0.888   3.211
 4092W        W 7611   7.398   8.482   1.200
 4093W        W 7612   9.381   0.751  11.345
 4094W        W 7613   7.122   7.938  11.006
 4095W        W 7614   7.513   2.785   1.889
 4096W        W 7615   6.494   2.832   1.408
 4097W        W 7616   3.118   1.216   2.739
 4098W        W 7617   6.563   2.337  11.461
 4099W        W 7618   7.061   0.370   2.820
 4100W        W 7619   4.132   4.581   8.988
 4101W        W 7620   8.988   9.953  11.894
 4102W        W 7621   3.218   1.840  10.538
 4103W        W 7622   3.717   8.453  10.884
 4104W        W 7623   2.687   5.669   1.880
 4105W        W 7624   3.121   5.114   1.916
 4106W        W 7625   7.453   0.396   3.828
 4107W        W 7626   2.670   4.203  10.425
 4108W        W 7627   5.968   9.929   0.867
 4109W        W 7628   4.241   1.237   2.845
 4110W        W 7629   3.688   3.615   3.124
 4111W        W 7630   9.814   2.703   3.339
 4112W        W 7631   5.075   0.388   9.581
 4113W        W 7632   9.511   5.600   1.867
 4114W        W 7633   7.568   7.482   0.957
 4115W        W 7634   6.651   7.457   2.720
 4116W        W 7635   9.366   6.523   1.772
 4117W        W 7636   1.251   1.224   1.383
 4118W        W 7637   2.700   4.060   8.459
 4119W        W 7638   4.129   0.849   9.533
 4120W        W 7639   3.146   0.268   0.351
 4121W        W 7640   4.748   1.230   9.069
 4122W        W 7641   9.407   6.088   9.866
 4123W        W 7642   8.991   2.310   0.866
 4124W        W 7643   1.247   3.202   0.347
 4125W        W 7644   0.912   3.767   0.338
 4126W        W 7645   4.550   3.143  10.448
 4127W        W 7646   7.479   8.537  11.340
 4128W        W 7647   3.798   3.611   4.208
 4129W        W 7648   6.036   5.689  11.862
 4130W        W 7649   5.547   1.261  11.912
 4131W        W 7650   6.592   4.579   9.435
 4132W        W 7651   0.911   7.003   0.943
 4133W        W 7652   3.802   8.343   3.233
 4134W        W 7653   6.980   3.719   1.916
 4135W        W 7654   6.132   6.533  11.391
 4136W        W 7655   5.212   3.116   3.343
 4137W        W 7656   6.103   6.930  10.379
 4138W        W 7657   8.535   4.127   9.027
 4139W        W 7658   0.769   8.896   2.753
 4140W        W 7659   6.031   4.261   3.606
 4141W        W 7660   5.223   3.798   8.931
 4142W        W 7661   1.292   1.267   0.469
 4143W        W 7662   6.112   1.868   2.758
 4144W        W 7663   8.818   2.656   9.105
 4145W        W 7664   2.762   4.711  11.839
 4146W        W 7665   6.104   4.579   9.878
 4147W        W 7666   1.364   0.346   3.141
 4148W        W 7667   5.974   6.628   1.805
 4149W        W 7668   5.546   6.500  10.405
 4150W        W 7669   8.446   1.343   9.565
 4151W        W 7670   5.691   5.489   0.864
 4152W        W 7671   5.075   6.594   8.034
 4153W        W 7672   7.597   7.386   9.487
 4154W        W 7673   1.857   8.975   0.413
 4155W        W 7674   7.403   6.449  10.891
 4156W        W 7675   8.086   8.379  11.939
 4157W        W 7676   0.793   0.770   2.285
 4158W        W 7677   5.998   6.987   2.392
 4159W        W 7678   8.564   8.820   1.750
 4160W        W 7679   2.277   0.404   2.675
 4161W        W 7680   1.309   8.023   3.286
 4162W        W 7681   5.538   6.582   8.640
 4163W        W 7682   9.414   7.547  10.380
 4164W        W 7683   0.370   6.014  10.857
 4165W        W 7684   2.655   1.192   3.201
 4166W        W 7685   2.719   4.620   2.354
 4167W        W 7686   5.032   5.034   3.678
 4168W        W 7687   4.751   6.062   9.906
 4169W        W 7688   3.132   0.799  10.404
 4170W        W 7689   0.278   3.154   0.344
 4171W        W 7690   9.820   6.967  10.922
 4172W        W 7691   5.480   5.156   2.200
 4173W        W 7692   4.643   1.884  11.341
 4174W        W 7693   6.126   1.277   9.573
 4175W        W 7694   6.525   0.250  10.994
 4176W        W 7695   2.690   1.841   2.789
 4177W        W 7696   7.114   0.933   2.644
 4178W        W 7697   3.778   3.664  10.879
 4179W        W 7698   2.261   7.904   9.004
 4180W        W 7699   6.118   8.396   2.304
 4181W        W 7700   7.085   9.503   8.490
 4182W        W 7701   3.171   6.588   2.353
 4183W        W 7702   9.887   5.528  10.982
 4184W        W 7703   2.839   3.742  11.386
 4185W        W 7704   8.967   1.787  10.341
 4186W        W 7705   9.491   2.701   9.906
 4187W        W 7706   3.773   4.539   9.914
 4188W        W 7707   2.757   5.124   0.248
 4189W        W 7708   6.436   9.464   9.459
 4190W        W 7709   4.615   8.458  11.307
 4191W        W 7710   8.418   8.402   0.846
 4192W        W 7711   6.170   0.341  11.796
 4193W        W 7712   9.775   3.725  10.008
 4194W        W 7713   6.111   1.828   0.806
 4195W        W 7714   9.026   8.084   9.061
 4196W        W 7715   2.289   9.433  11.329
 4197W        W 7716   0.409   4.584   2.673
 4198W        W 7717   0.944   1.810   1.702
 4199W        W 7718   6.022   6.975  10.855
 4200W        W 7719   7.039   2.183   9.919
 4201W        W 7720   8.542   1.388   1.278
 4202W        W 7721   2.291   6.553   9.459
 4203W        W 7722   1.400   0.744   9.041
 4204W        W 7723   2.254   1.883   9.546
 4205W        W 7724   2.687   7.450   2.675
 4206W        W 7725   2.239   6.628   0.457
 4207W        W 7726   0.283   0.459   9.432
 4208W        W 7727   3.783   1.370   2.801
 4209W        W 7728   8.957   9.924   1.238
 4210W        W 7729   4.711   5.989  11.765
 4211W        W 7730   8.890   5.531   2.375
 4212W        W 7731   1.420   2.804   9.898
 4213W        W 7732   9.504   0.272   1.782
 4214W        W 7733   7.895   3.598   3.726
 4215W        W 7734   6.652   7.880   1.903
 4216W        W 7735   0.444   0.261   2.863
 4217W        W 7736   5.503   2.207   9.440
 4218W        W 7737   1.353   3.722   2.302
 4219W        W 7738   5.121   2.219   9.065
 4220W        W 7739   6.502   8.010  10.514
 4221W        W 7740   7.553   7.433  11.377
 4222W        W 7741   3.098   7.061   8.570
 4223W        W 7742   6.572   0.747  11.874
 4224W        W 7743   5.079   5.559  11.874
 4225W        W 7744   3.243   4.262   0.945
 4226W        W 7745   4.064   8.495  10.339
 4227W        W 7746   8.902   0.271  10.558
 4228W        W 7747   4.103   5.518   3.660
 4229W        W 7748   6.009   6.171   9.487
 4230W        W 7749   7.575   5.981   9.910
 4231W        W 7750   1.684   4.534   3.796
 4232W        W 7751   8.080   9.816   1.814
 4233W        W 7752   6.982   4.067   1.399
 4234W        W 7753   5.674   3.804   4.284
 4235W        W 7754   9.942   5.594   2.372
 4236W        W 7755   5.584   3.115  10.558
 4237W        W 7756   6.574   7.546  11.451
 4238W        W 7757   0.870   3.759   2.327
 4239W        W 7758   7.960   8.361  10.321
 4240W        W 7759   0.798   3.249   2.324
 4241W        W 7760   3.791   9.379   8.623
 4242W        W 7761   0.380   2.635   1.348
 4243W        W 7762   8.509   9.509   9.443
 4244W        W 7763   3.101   4.060   1.248
 4245W        W 7764   1.415   1.387   2.831
 4246W        W 7765   8.914   0.762  11.796
 4247W        W 7766   3.143   1.697   3.182
 4248W        W 7767   5.567   0.899   0.254
 4249W        W 7768   8.063   3.662  11.022
 4250W        W 7769   0.762   6.169   9.087
 4251W        W 7770   2.798   7.080   1.853
 4252W        W 7771   4.106   4.633   2.181
 4253W        W 7772   6.088   0.449   0.405
 4254W        W 7773   2.830   5.155   9.864
 4255W        W 7774   0.941   2.311   1.893
 4256W        W 7775   6.049   3.156   9.515
 4257W        W 7776   1.375   1.235  10.925
 4258W        W 7777   3.145   9.361   9.462
 4259W        W 7778   8.421   4.528   3.349
 4260W        W 7779   4.651   7.095  11.295
 4261W        W 7780   8.990   7.522   0.742
 4262W        W 7781   1.250   2.320   9.587
 4263W        W 7782   3.235   3.122   9.926
 4264W        W 7783   1.343   5.702  11.787
 4265W        W 7784   4.184   8.415   0.307
 4266W        W 7785   9.865   9.012   9.029
 4267W        W 7786   6.121   1.714   9.377
 4268W        W 7787   4.739   1.783   3.266
 4269W        W 7788   7.440   0.389  10.995
 4270W        W 7789   0.765   4.135  11.400
 4271W        W 7790   5.065   3.667   1.262
 4272W        W 7791   6.591   5.636   8.450
 4273W        W 7792   4.560   3.136   2.756
 4274W        W 7793   7.867   1.317   2.239
 4275W        W 7794   6.594   4.272   1.306
 4276W        W 7795   2.294   6.645  10.393
 4277W        W 7796   2.242   8.385   0.831
 4278W        W 7797   8.020   8.371   2.311
 4279W        W 7798   1.834   3.310   3.238
 4280W        W 7799   0.848   8.544   0.263
 4281W        W 7800   5.023   1.787   1.358
 4282W        W 7801   8.846   6.000  10.068
 4283W        W 7802   3.212   5.978  11.769
 4284W        W 7803   2.697   9.900  11.773
 4285W        W 7804   4.259   6.634   9.044
 4286W        W 7805   0.906   2.186   9.576
 4287W        W 7806   9.358   0.848   2.187
 4288W        W 7807   8.077   9.768   1.434
 4289W        W 7808   8.434   2.770  11.909
 4290W        W 7809   6.096   7.967   2.751
 4291W        W 7810   4.689   6.613   9.071
 4292W        W 7811   5.977   0.847   9.594
 4293W        W 7812   7.504   9.444  10.426
 4294W        W 7813   1.286   4.050   2.223
 4295W        W 7814   7.596   4.558   2.666
 4296W        W 7815   9.422   9.355   2.642
 4297W        W 7816   1.789   5.675   2.867
 4298W        W 7817   6.971   9.811  11.285
 4299W        W 7818   2.769   8.938  10.019
 4300W        W 7819   5.147   6.055   2.778
 4301W        W 7820   3.787   3.699   3.636
 4302W        W 7821   1.848   0.452   2.331
 4303W        W 7822   5.612   3.209   2.302
 4304W        W 7823   8.086   0.309   9.504
 4305W        W 7824   9.360   1.888   9.077
 4306W        W 7825   1.807   5.029  10.353
 4307W        W 7826   5.169   7.571   8.980
 4308W        W 7827   9.900   7.473   1.383
 4309W        W 7828   4.143   7.492   2.660
 4310W        W 7829   5.651   4.747  10.010
 4311W        W 7830   4.048   0.897   2.194
 4312W        W 7831   7.105   4.133   8.506
 4313W        W 7832   9.971   5.982   9.953
 4314W        W 7833   5.238   9.464   8.428
 4315W        W 7834   3.200   1.742   9.529
 4316W        W 7835   6.501   2.187   0.420
 4317W        W 7836   9.795   9.342   3.252
 4318W        W 7837   5.540   0.805   1.339
 4319W        W 7838   3.731   6.575   1.249
 4320W        W 7839   4.589   0.472   0.734
 4321W        W 7840   1.900   0.417   1.706
 4322W        W 7841   0.839   5.591   8.522
 4323W        W 7842   6.036   7.537  11.485
 4324W        W 7843   1.810   6.905   1.708
 4325W        W 7844   3.700   9.917   3.338
 4326W        W 7845   8.349   6.090  10.434
 4327W        W 7846   9.010   0.289   9.924
 4328W        W 7847   1.858   2.809   0.958
 4329W        W 7848   7.070   7.582   0.377
 4330W        W 7849   5.067   4.118   8.008
 4331W        W 7850   1.293   7.903   2.265
 4332W        W 7851   5.046   6.444   1.682
 4333W        W 7852   9.391   1.868   1.273
 4334W        W 7853   8.457   5.669   9.402
 4335W        W 7854   8.423   4.089  11.423
 4336W        W 7855   2.698   5.551  10.037
 4337W        W 7856   6.488   0.760  10.961
 4338W        W 7857   2.273   9.944   9.119
 4339W        W 7858   6.633   4.056  10.924
 4340W        W 7859   4.722   3.651   2.177
 4341W        W 7860   2.333   1.411  11.942
 4342W        W 7861   9.858   9.519   2.201
 4343W        W 7862   0.474   5.553   0.767
 4344W        W 7863   2.740   0.373   3.612
 4345W        W 7864   8.459   1.722   0.359
 4346W        W 7865   0.418   3.287  10.884
 4347W        W 7866   1.776   4.119   3.744
 4348W        W 7867   9.348   8.822  11.359
 4349W        W 7868   5.526   2.773  10.430
 4350W        W 7869   7.906   0.257   0.475
 4351W        W 7870   2.182   9.371   3.237
 4352W        W 7871   3.808   3.321   9.473
 4353W        W 7872   7.922   9.420  10.946
 4354W        W 7873   9.885   5.543  11.405
 4355W        W 7874   7.050   5.631  11.918
 4356W        W 7875   7.984   4.736  10.341
 4357W        W 7876   0.950   0.328   3.693
 4358W        W 7877   6.487   3.635  11.885
 4359W        W 7878   6.985   5.521  10.385
 4360W        W 7879   8.066   5.044   8.592
 4361W        W 7880   9.873   9.027  11.863
 4362W        W 7881   4.213   0.844   1.846
 4363W        W 7882   3.108   9.776   1.812
 4364W        W 7883   3.130   8.931  10.545
 4365W        W 7884   5.982   3.123   1.851
 4366W        W 7885   7.552   7.101   8.900
 4367W        W 7886   4.194   2.716   0.939
 4368W        W 7887   9.489   3.178   3.344
 4369W        W 7888   8.031   9.383   9.061
 4370W        W 7889   2.215   4.050   3.177
 4371W        W 7890   4.129   4.724   1.424
 4372W        W 7891   6.068   5.549   8.618
 4373W        W 7892   0.723   4.673   3.269
 4374W        W 7893   7.041   4.591   8.418
 4375W        W 7894   0.395   1.401   1.402
 4376W        W 7895   9.800   3.799  10.417
 4377W        W 7896   7.395   7.104   1.261
 4378W        W 7897   3.294   4.678  10.959
 4379W        W 7898   5.559   0.243   1.401
 4380W        W 7899   2.252   4.754  10.951
 4381W        W 7900   4.736   6.516   0.268
 4382W        W 7901   9.473   6.579   2.203
 4383W        W 7902   8.013   0.381  11.430
 4384W        W 7903   7.893   8.027  11.912
 4385W        W 7904   6.653   2.698  11.983
 4386W        W 7905   9.498   7.947   3.236
 4387W        W 7906   9.351   4.752   9.446
 4388W        W 7907   4.620   4.619   0.329
 4389W        W 7908   3.329   5.126   4.291
 4390W        W 7909   2.198   3.241   3.209
 4391W        W 7910   4.215   6.620   0.871
 4392W        W 7911   4.204   1.330   3.273
 4393W        W 7912   7.088   3.788   2.246
 4394W        W 7913   9.921   5.079  10.512
 4395W        W 7914   8.514   7.418   9.463
 4396W        W 7915   5.009   0.867   9.364
 4397W        W 7916   3.599   4.081  11.799
 4398W        W 7917   9.475   4.264   3.347
 4399W        W 7918   2.673   7.433  11.808
 4400W        W 7919   3.185   3.610   8.943
 4401W        W 7920   2.782   3.803   2.179
 4402W        W 7921   1.678   1.242  10.823
 4403W        W 7922   3.136   0.759   0.760
 4404W        W 7923   8.445   1.763  11.000
 4405W        W 7924   0.399   4.636  11.989
 4406W        W 7925   3.328   6.506   1.309
 4407W        W 7926   6.520   0.879   8.969
 4408W        W 7927   8.521   6.032   9.908
 4409W        W 7928   6.074   7.137  10.076
 4410W        W 7929   5.684   6.001   2.260
 4411W        W 7930   5.198   3.186   0.922
 4412W        W 7931   7.937   8.850  11.384
 4413W        W 7932   0.249   8.424   1.806
 4414W        W 7933   0.885   5.696   0.407
 4415W        W 7934   7.560   0.729   9.503
 4416W        W 7935   8.089   3.275   3.263
 4417W        W 7936   0.730   6.973   2.270
 4418W        W 7937   0.250   8.070  11.367
 4419W        W 7938   7.479   4.246   3.312
 4420W        W 7939   8.009   7.087  10.472
 4421W        W 7940   9.895   0.720   0.886
 4422W        W 7941   8.522   6.550   1.897
 4423W        W 7942   8.560   9.766  10.821
 4424W        W 7943   0.315   9.386  11.959
 4425W        W 7944   6.489   6.164   2.721
 4426W        W 7945   3.323   3.140   9.093
 4427W        W 7946   8.887   4.560   2.724
 4428W        W 7947   4.062   4.119   1.899
 4429W        W 7948   2.850   7.093   8.445
 4430W        W 7949   6.442   2.622   9.954
 4431W        W 7950   9.469   0.456   2.199
 4432W        W 7951   4.663   0.934  11.816
 4433W        W 7952   0.892   6.168  11.365
 4434W        W 7953   1.265   3.685  10.069
 4435W        W 7954   6.482   1.304   9.922
 4436W        W 7955   6.580   5.223  10.917
 4437W        W 7956   3.141   7.882   8.609
 4438W        W 7957   7.522   9.449  11.484
 4439W        W 7958   9.494   6.600  11.849
 4440W        W 7959   8.028   6.507   2.162
 4441W        W 7960   7.105   8.473   3.169
 4442W        W 7961   8.377   9.381   3.252
 4443W        W 7962   8.072   7.074   9.374
 4444W        W 7963   4.715   9.939   1.312
 4445W        W 7964   9.970   0.331  10.805
 4446W        W 7965   5.678   6.491   3.675
 4447W        W 7966   5.124   0.471   3.186
 4448W        W 7967   4.654   7.074   0.314
 4449W        W 7968   7.990   1.410   9.521
 4450W        W 7969   4.650   1.355   1.738
 4451W        W 7970   5.584   1.813   9.007
 4452W        W 7971   4.095   5.182   1.263
 4453W        W 7972   9.381   8.994   2.719
 4454W        W 7973   7.979   9.856  11.926
 4455W        W 7974   6.658   7.592  10.824
 4456W        W 7975   2.227   9.514   1.256
 4457W        W 7976   7.463   0.288   0.390
 4458W        W 7977   6.051   2.851   3.275
 4459W        W 7978   8.432   6.603   2.311
 4460W        W 7979   4.169   6.633  11.389
 4461W        W 7980   6.583   0.825   0.387
 4462W        W 7981   3.232   5.236  10.506
 4463W        W 7982   7.471   8.942   3.335
 4464W        W 7983   4.722   5.669  11.034
 4465W        W 7984   4.197   7.865   2.327
 4466W        W 7985   3.295   9.875   3.608
 4467W        W 7986   4.217   6.987  11.941
 4468W        W 7987   0.794   0.881   9.409
 4469W        W 7988   2.665   9.031   2.825
 4470W        W 7989   4.527   7.448  11.805
 4471W        W 7990   7.474   2.677  10.006
 4472W        W 7991   5.082   2.710   2.344
 4473W        W 7992   2.830   9.980  10.080
 4474W        W 7993   8.373   9.833   1.334
 4475W        W 7994   0.910   9.845   3.213
 4476W        W 7995   2.366   9.776  11.814
 4477W        W 7996   1.868   9.833   9.875
 4478W        W 7997   4.748   9.492   1.790
 4479W        W 7998   5.631   5.051  10.837
 4480W        W 7999   2.380   1.383  11.436
 4481W        W 8000   4.612   2.839   2.397
 4482W        W 8001   8.556   5.998   1.828
 4483W        W 8002   0.780   5.184  11.952
 4484W        W 8003   8.869   8.473   9.038
 4485W        W 8004   4.671   2.260   2.354
 4486W        W 8005   2.346   6.962   8.948
 4487W        W 8006   3.718   6.934   8.936
 4488W        W 8007   1.722   0.443   0.399
 4489W        W 8008   3.621   9.779   9.404
 4490W        W 8009   5.102   3.780   2.186
 4491W        W 8010   9.466   4.737   1.296
 4492W        W 8011   6.958   7.921   9.858
 4493W        W 8012   3.745   6.935   2.653
 4494W        W 8013   5.522   3.792   0.739
 4495W        W 8014   4.143   6.455   8.116
 4496W        W 8015   5.989   8.489  11.951
 4497W        W 8016   0.246   9.798   1.388
 4498W        W 8017   7.032   7.494   8.580
 4499W        W 8018   0.423   8.347  11.975
 4500W        W 8019   9.021   3.226   2.180
 4501W        W 8020   2.166   7.928   9.903
 4502W        W 8021   8.978   1.747   2.200
 4503W        W 8022   9.345   5.005   2.219
 4504W        W 8023   9.807   5.551  10.346
 4505W        W 8024   2.381   0.748   3.142
 4506W        W 8025   5.543   6.625  10.956
 4507W        W 8026   8.076   7.456   9.027
 4508W        W 8027   1.832   2.721  11.285
 4509W        W 8028   6.099   3.750   2.364
 4510W        W 8029   1.688   8.054   0.312
 4511W        W 8030   6.161   4.717   2.728
 4512W        W 8031   6.037   2.328   1.392
 4513W        W 8032   2.163   1.819   0.913
 4514W        W 8033   6.100   5.190   9.089
 4515W        W 8034   6.986   5.997   9.540
 4516W        W 8035   4.565   2.758  10.893
 4517W        W 8036   8.462   2.827   0.927
 4518W        W 8037   3.103   8.081   9.074
 4519W        W 8038   9.397   6.913   9.948
 4520W        W 8039   8.537   4.597  10.524
 4521W        W 8040   5.960   6.623  10.476
 4522W        W 8041   1.781   8.093   9.892
 4523W        W 8042   4.724   4.257   0.833
 4524W        W 8043   6.079   1.398   9.987
 4525W        W 8044   8.857   2.270  11.885
 4526W        W 8045   9.376   4.745  10.000
 4527W        W 8046   2.773   6.578   0.870
 4528W        W 8047   3.160   0.244   1.429
 4529W        W 8048   4.125   0.358   1.729
 4530W        W 8049   9.035   9.766   0.246
 4531W        W 8050   2.279   4.080   9.471
 4532W        W 8051   6.645   2.322   9.888
 4533W        W 8052   8.402   2.148   0.782
 4534W        W 8053   0.267   2.221  10.905
 4535W        W 8054   0.474   8.943   1.210
 4536W        W 8055   6.907   8.541   2.745
 4537W        W 8056   8.498   3.270   9.575
 4538W        W 8057   6.649   2.745  11.383
 4539W        W 8058   2.845   7.551   9.476
 4540W        W 8059   9.865   8.878   2.282
 4541W        W 8060   4.171   7.108   9.579
 4542W        W 8061   8.041   9.811   9.512
 4543W        W 8062   3.648   7.429   9.436
 4544W        W 8063   6.497   5.230   1.247
 4545W        W 8064   6.153   4.124   0.463
 4546W        W 8065   9.323   0.911   0.300
 4547W        W 8066   8.401   8.947   2.196
 4548W        W 8067   4.135   9.294   1.241
 4549W        W 8068   9.998   7.877   0.281
 4550W        W 8069   2.292   0.908   2.756
 4551W        W 8070   9.988   6.911   0.917
 4552W        W 8071   6.002   0.469   1.881
 4553W        W 8072   6.429   9.442   8.410
 4554W        W 8073   9.971   4.200   9.409
 4555W        W 8074   0.362   6.145   0.331
 4556W        W 8075   6.086   7.509   3.287
 4557W        W 8076   0.715   1.220   8.895
 4558W        W 8077   3.219   5.594  10.348
 4559W        W 8078   5.557   2.348   2.812
 4560W        W 8079   2.276   9.032   1.247
 4561W        W 8080   0.355   8.476  11.006
 4562W        W 8081   3.328   7.964   1.900
 4563W        W 8082   0.720   0.419   2.764
 4564W        W 8083   4.060   6.666   0.423
 4565W        W 8084   0.749   1.297   3.131
 4566W        W 8085   0.449   0.780   1.786
 4567W        W 8086   7.413   2.637   2.811
 4568W        W 8087   3.234   1.674   3.807
 4569W        W 8088   7.901   2.814  11.760
 4570W        W 8089   7.534   4.554  11.294
 4571W        W 8090   4.103   0.301  11.423
 4572W        W 8091   9.986   2.821   2.660
 4573W        W 8092   3.128   9.787   0.814
 4574W        W 8093   9.997   7.403  11.844
 4575W        W 8094   5.117   6.106   1.912
 4576W        W 8095   3.311   7.487   3.339
 4577W        W 8096   7.023   5.663   1.397
 4578W        W 8097   3.148   6.073  10.963
 4579W        W 8098   4.663   0.335   1.835
 4580W        W 8099   7.482   6.639   0.381
 4581W        W 8100   6.957   0.729   1.755
 4582W        W 8101   2.646   5.209   2.163
 4583W        W 8102   8.507   4.125   9.438
 4584W        W 8103   3.774   0.358   9.979
 4585W        W 8104   3.321   5.038   2.760
 4586W        W 8105   7.059   4.253   8.985
 4587W        W 8106   5.591   7.083   9.370
 4588W        W 8107   5.160   0.397   9.044
 4589W        W 8108   9.808   5.666   1.404
 4590W        W 8109   4.668   8.042   2.277
 4591W        W 8110   6.521   8.834   0.742
 4592W        W 8111   1.734   9.461   8.404
 4593W        W 8112   9.863   0.343   8.991
 4594W        W 8113   3.213   2.749  10.497
 4595W        W 8114   4.529   3.155   1.422
 4596W        W 8115   2.713   4.579   9.016
 4597W        W 8116   2.625   4.078  11.409
 4598W        W 8117   8.929   0.303  11.932
 4599W        W 8118   8.066   4.661   1.392
 4600W        W 8119   1.826   8.963  10.335
 4601W        W 8120   9.810   9.763   1.212
 4602W        W 8121   0.393   5.954   2.191
 4603W        W 8122   0.353   2.261  10.516
 4604W        W 8123   4.529   4.202   3.215
 4605W        W 8124   8.422   7.091   1.336
 4606W        W 8125   4.173   2.205   1.378
 4607W        W 8126   7.453   0.382   3.349
 4608W        W 8127   5.996   2.236  11.930
 4609W        W 8128   3.289   9.008   2.688
 4610W        W 8129   3.655   9.922  10.853
 4611W        W 8130   3.584   7.140  10.958
 4612W        W 8131   7.026   6.507  11.514
 4613W        W 8132   8.855   5.046   0.900
 4614W        W 8133   5.167   7.916  10.967
 4615W        W 8134   1.396   4.644  11.365
 4616W        W 8135   3.766   6.540  11.439
 4617W        W 8136   3.665   5.702   3.703
 4618W        W 8137   6.073   0.799   3.766
 4619W        W 8138   5.713   2.733   0.752
 4620W        W 8139   1.822   1.363  11.297
 4621W        W 8140   3.263   8.443  11.927
 4622W        W 8141   9.468   4.212   9.394
 4623W        W 8142   9.864   5.528   1.880
 4624W        W 8143   2.779   3.330  10.987
 4625W        W 8144   7.028   5.012  10.999
 4626W        W 8145   2.303   7.014   1.801
 4627W        W 8146   4.707   9.310   9.066
 4628W        W 8147   0.459   7.571   9.469
 4629W        W 8148   9.415   6.459  10.432
 4630W        W 8149   7.068   0.264   9.096
 4631W        W 8150   1.736   4.648   3.325
 4632W        W 8151   0.315   6.512   3.759
 4633W        W 8152   6.074   2.655   0.379
 4634W        W 8153   9.458   7.865   1.222
 4635W        W 8154   3.637   2.795  10.840
 4636W        W 8155   4.060   6.153  10.496
 4637W        W 8156   7.013   3.678   8.984
 4638W        W 8157   0.843   7.861   2.224
 4639W        W 8158   1.887   4.052   2.241
 4640W        W 8159   5.970   1.254  11.767
 4641W        W 8160   6.465   3.649  10.047
 4642W        W 8161   3.103   6.048   3.719
 4643W        W 8162   7.442   4.215   1.216
 4644W        W 8163   0.814   6.592   2.649
 4645W        W 8164   8.408   8.385   2.317
 4646W        W 8165   5.692   7.598  10.977
 4647W        W 8166   5.669   9.349   0.941
 4648W        W 8167   9.972   5.096   0.396
 4649W        W 8168   7.952   7.007   0.402
 4650W        W 8169   1.191   1.288   9.006
 4651W        W 8170   3.104   1.728  11.512
 4652W        W 8171   6.526   8.845  10.851
 4653W        W 8172   8.523   4.693   0.930
 4654W        W 8173   3.178   3.265   8.633
 4655W        W 8174   2.162   6.589   2.209
 4656W        W 8175   8.078   2.301  11.311
 4657W        W 8176   5.584   6.666   1.402
 4658W        W 8177   3.190   2.183   9.954
 4659W        W 8178   9.995   0.782   1.796
 4660W        W 8179   5.136   8.386  10.994
 4661W        W 8180   1.683   6.132   9.906
 4662W        W 8181   7.999   9.769  10.391
 4663W        W 8182   6.464   5.085   9.934
 4664W        W 8183   0.952   6.582   0.326
 4665W        W 8184   2.235   7.426   1.427
 4666W        W 8185   4.084   6.119   3.634
 4667W        W 8186   5.984   6.523   3.690
 4668W        W 8187   9.889   6.598  11.339
 4669W        W 8188   6.614   3.314   9.392
 4670W        W 8189   1.861   3.712   2.184
 4671W        W 8190   7.031   0.413   2.185
 4672W        W 8191   4.686   9.823  11.413
 4673W        W 8192   4.644   6.994  11.917
 4674W        W 8193   4.700   7.513  10.833
 4675W        W 8194   0.381   1.868   2.388
 4676W        W 8195   7.527   4.081   2.281
 4677W        W 8196   0.367   6.562  10.880
 4678W        W 8197   9.005   7.988  11.329
 4679W        W 8198   3.648   8.936  10.907
 4680W        W 8199   1.731   4.246   9.428
 4681W        W 8200   0.903   4.127   0.917
 4682W        W 8201   9.361   8.994  10.556
 4683W        W 8202   0.392   7.417   2.251
 4684W        W 8203   0.787   2.851   2.695
 4685W        W 8204   7.883   9.488   3.325
 4686W        W 8205   4.699   2.684   1.877
 4687W        W 8206   7.946   5.124  10.451
 4688W        W 8207   0.280   2.219   1.782
 4689W        W 8208   3.119   6.171   9.014
 4690W        W 8209   4.280   3.743   0.384
 4691W        W 8210   4.117   7.137   8.453
 4692W        W 8211   5.073   9.498   9.538
 4693W        W 8212   0.719   2.795  11.821
 4694W        W 8213   6.073   8.017   0.297
 4695W        W 8214   4.205   4.139   8.920
 4696W        W 8215   0.260   1.819   3.348
 4697W        W 8216   3.223   9.804  11.831
 4698W        W 8217   2.642   5.034   2.830
 4699W        W 8218   3.236   1.294   9.458
 4700W        W 8219   8.989   7.042  10.874
 4701W        W 8220   8.351   0.370   1.758
 4702W        W 8221   4.663   2.254   9.584
 4703W        W 8222   9.370   8.983   1.827
 4704W        W 8223   5.591   2.738  10.040
 4705W        W 8224   9.519   8.433   2.375
 4706W        W 8225   8.990   9.422   1.792
 4707W        W 8226   8.894   1.341   1.302
 4708W        W 8227   9.299   3.141   3.630
 4709W        W 8228   7.430   6.430   2.875
 4710W        W 8229   4.660   9.361  11.480
 4711W        W 8230   9.874   0.285  11.888
 4712W        W 8231   4.688   4.151   2.174
 4713W        W 8232   6.913   3.588   0.333
 4714W        W 8233   4.129   4.752   3.130
 4715W        W 8234   4.724   5.551   1.219
 4716W        W 8235   7.497   7.971   0.904
 4717W        W 8236   6.975   8.888   2.876
 4718W        W 8237   6.120   0.310  10.845
 4719W        W 8238   1.875   0.292   0.747
 4720W        W 8239   3.253   1.771   0.424
 4721W        W 8240   4.277   7.552  11.778
 4722W        W 8241   4.143   8.870   9.575
 4723W        W 8242   2.637   1.693   9.974
 4724W        W 8243   6.140   8.515   9.430
 4725W        W 8244   0.803   3.744  10.832
 4726W        W 8245   1.703   7.471  10.825
 4727W        W 8246   7.926   8.430   3.169
 4728W        W 8247   8.001   0.841   8.921
 4729W        W 8248   8.396   5.971   8.950
 4730W        W 8249   3.291   1.428  11.842
 4731W        W 8250   6.986   0.870   3.620
 4732W        W 8251   6.593   0.923   2.357
 4733W        W 8252   0.951   2.151   3.199
 4734W        W 8253   4.108   4.689  10.503
 4735W        W 8254   8.021   4.568   1.843
 4736W        W 8255   5.622   0.440   9.408
 4737W        W 8256   8.021   0.340   1.920
 4738W        W 8257   2.262   5.061   8.904
 4739W        W 8258   0.857   9.024  11.995
 4740W        W 8259   0.922   5.012  10.935
 4741W        W 8260   4.192   9.432   0.336
 4742W        W 8261   6.960   6.009   0.293
 4743W        W 8262   4.755   9.796  11.962
 4744W        W 8263   3.188   9.884  11.301
 4745W        W 8264   3.153   4.748  11.834
 4746W        W 8265   5.225   2.690   3.189
 4747W        W 8266   6.052   1.749   2.290
 4748W        W 8267   9.890   4.150   3.206
 4749W        W 8268   1.254   7.561   3.295
 4750W        W 8269   9.894   2.373   0.319
 4751W        W 8270   8.001   8.038   0.740
 4752W        W 8271   9.891   3.302  11.458
 4753W        W 8272   5.180   3.148   8.548
 4754W        W 8273   8.498   0.372   3.632
 4755W        W 8274   5.531   3.807   8.545
 4756W        W 8275   0.775   1.891   0.471
 4757W        W 8276   9.371   0.876   0.908
 4758W        W 8277   3.649   6.647   0.448
 4759W        W 8278   5.174   5.619  10.413
 4760W        W 8279   8.549   6.075  11.315
 4761W        W 8280   5.171   4.718   9.932
 4762W        W 8281   9.869   0.373  10.074
 4763W        W 8282   1.261   5.640   1.397
 4764W        W 8283   8.937   7.079   1.298
 4765W        W 8284   1.722   9.398   0.338
 4766W        W 8285   4.642   9.791   2.677
 4767W        W 8286   6.429   2.655   0.280
 4768W        W 8287   0.938   9.023   1.734
 4769W        W 8288   5.987   2.276   0.431
 4770W        W 8289   2.149   9.845   1.292
 4771W        W 8290   9.833   2.227  11.824
 4772W        W 8291   6.587   0.304   2.668
 4773W        W 8292   7.874   5.098   1.379
 4774W        W 8293   1.692   1.314   0.858
 4775W        W 8294   0.920   9.317  11.986
 4776W        W 8295   9.468   5.699  10.072
 4777W        W 8296   1.745   0.904   0.788
 4778W        W 8297   7.050   8.450   3.710
 4779W        W 8298   0.944   3.587   9.413
 4780W        W 8299   5.178   3.301   9.919
 4781W        W 8300   8.477   7.559   3.203
 4782W        W 8301   8.887   0.316   1.233
 4783W        W 8302   6.030   2.360   1.683
 4784W        W 8303   6.939   9.478   2.237
 4785W        W 8304   4.262   6.613   2.218
 4786W        W 8305   0.446   0.938   2.202
 4787W        W 8306   3.276   2.289   0.349
 4788W        W 8307   0.770   3.766   9.898
 4789W        W 8308   6.092   4.540   0.898
 4790W        W 8309   6.925   9.460   1.408
 4791W        W 8310   3.760   7.494   3.155
 4792W        W 8311   8.513   4.607  11.853
 4793W        W 8312   4.215   6.431  10.000
 4794W        W 8313   1.888   3.273   3.641
 4795W        W 8314   0.761   0.249  10.428
 4796W        W 8315   2.153   1.726   2.204
 4797W        W 8316   7.609   3.229   9.925
 4798W        W 8317   8.355   4.261  10.818
 4799W        W 8318   9.873   6.995   2.387
 4800W        W 8319   8.386   9.027   0.775
 4801W        W 8320   7.554   8.991  10.057
 4802W        W 8321   8.537   0.715   2.260
 4803W        W 8322   1.248   1.845   2.290
 4804W        W 8323   8.992   3.710  11.323
 4805W        W 8324   9.845   4.545   1.805
 4806W        W 8325   1.868   4.737   4.292
 4807W        W 8326   0.272   1.769   1.803
 4808W        W 8327   8.974   2.307   1.439
 4809W        W 8328   8.854   1.670   0.874
 4810W        W 8329   6.475   6.076   8.113
 4811W        W 8330   4.606   0.808   0.274
 4812W        W 8331   6.110   0.813  10.998
 4813W        W 8332   3.650   7.992   0.952
 4814W        W 8333   1.689   1.706   0.387
 4815W        W 8334   6.027   7.966   9.070
 4816W        W 8335   0.768   0.924   2.744
 4817W        W 8336   8.877   0.722   0.868
 4818W        W 8337   0.375   9.485   3.816
 4819W        W 8338   6.510   1.365   9.462
 4820W        W 8339   2.638   6.516   2.283
 4821W        W 8340   8.514   4.174  10.075
 4822W        W 8341   2.803   2.246   2.735
 4823W        W 8342   5.007   8.929   3.275
 4824W        W 8343   1.725   6.456   9.375
 4825W        W 8344   5.075   1.904   0.928
 4826W        W 8345   8.478   6.181   9.372
 4827W        W 8346   0.340   3.201   9.008
 4828W        W 8347   7.408   9.876   2.189
 4829W        W 8348   5.079   0.395  11.035
 4830W        W 8349   4.148   7.425   0.932
 4831W        W 8350   5.567   2.192   9.060
 4832W        W 8351   3.806   2.329   1.349
 4833W        W 8352   8.037   6.475   0.891
 4834W        W 8353   5.525   1.786   9.967
 4835W        W 8354   3.793   0.891   9.874
 4836W        W 8355   4.701   8.989  11.778
 4837W        W 8356   3.184   3.230   0.355
 4838W        W 8357   4.583   4.739   1.834
 4839W        W 8358   2.781   4.718   9.930
 4840W        W 8359   5.652   8.863  10.360
 4841W        W 8360   5.145   4.643   1.718
 4842W        W 8361   9.385   1.359   9.066
 4843W        W 8362   2.326   9.504   2.861
 4844W        W 8363   9.374   2.642   9.063
 4845W        W 8364   6.446   3.681  11.437
 4846W        W 8365   9.444   7.506   1.802
 4847W        W 8366   7.433   8.350   3.141
 4848W        W 8367   8.912   2.308   0.442
 4849W        W 8368   6.143   6.093  11.340
 4850W        W 8369   0.770   7.961   0.859
 4851W        W 8370   0.238   6.984   0.285
 4852W        W 8371   6.605   1.782  11.449
 4853W        W 8372   1.347   0.797   0.930
 4854W        W 8373   9.015   0.443   1.851
 4855W        W 8374   5.209   2.831   7.978
 4856W        W 8375   9.414   5.967   8.992
 4857W        W 8376   9.409   9.027   1.429
 4858W        W 8377   1.289   8.996   9.066
 4859W        W 8378   7.988   3.662  11.398
 4860W        W 8379   3.225   6.037  11.436
 4861W        W 8380   3.700   5.692   2.170
 4862W        W 8381   0.791   7.465  11.396
 4863W        W 8382   4.606   9.007   0.292
 4864W        W 8383   0.865   9.992  11.425
 4865W        W 8384   1.754   6.436  11.471
 4866W        W 8385   1.880   0.348   1.286
 4867W        W 8386   4.204   6.575  10.881
 4868W        W 8387   2.302   9.363   9.890
 4869W        W 8388   6.976   6.971  11.029
 4870W        W 8389   1.306   5.685   0.370
 4871W        W 8390   8.003   6.545   2.774
 4872W        W 8391   6.932   2.265  10.546
 4873W        W 8392   1.357   1.843   2.823
 4874W        W 8393   4.203   2.832   1.333
 4875W        W 8394   2.695   2.279  10.436
 4876W        W 8395   2.778   7.493   2.394
 4877W        W 8396   2.637   9.864   3.224
 4878W        W 8397   3.242   1.363   2.168
 4879W        W 8398   5.172   5.115  11.359
 4880W        W 8399   5.208   6.501   1.261
 4881W        W 8400   8.458   9.769   3.344
 4882W        W 8401   0.434   8.986   3.333
 4883W        W 8402   1.866   8.481  10.351
 4884W        W 8403   8.093   1.331  11.784
 4885W        W 8404   0.268   5.179   2.346
 4886W        W 8405   3.802   2.194  10.063
 4887W        W 8406   7.555   4.232  10.982
 4888W        W 8407   6.630   0.386   0.775
 4889W        W 8408   4.093   9.504  10.883
 4890W        W 8409   8.411   2.156   0.342
 4891W        W 8410   4.739   0.873  11.310
 4892W        W 8411   7.895   1.700   8.917
 4893W        W 8412   5.556   6.117   2.831
 4894W        W 8413   5.979   4.221  10.077
 4895W        W 8414   4.599   6.555  11.413
 4896W        W 8415   9.993   7.447   0.372
 4897W        W 8416   6.530   0.425   0.391
 4898W        W 8417   9.011   9.510  10.018
 4899W        W 8418   5.622   1.253  11.473
 4900W        W 8419   9.858   4.285   3.618
 4901W        W 8420   7.059   5.628   3.728
 4902W        W 8421   5.017   2.654  11.775
 4903W        W 8422   1.257   5.705   1.846
 4904W        W 8423   7.018   6.055  10.904
 4905W        W 8424   2.237   4.654   0.473
 4906W        W 8425   5.115   3.761   9.587
 4907W        W 8426   9.794   8.939  10.358
 4908W        W 8427   6.555   6.505  11.365
 4909W        W 8428   2.718   0.252   9.055
 4910W        W 8429   1.737   4.218  11.989
 4911W        W 8430   0.919   0.861  11.485
 4912W        W 8431   2.843   2.742   9.848
 4913W        W 8432   7.017   3.284   1.398
 4914W        W 8433   7.038   8.465  10.363
 4915W        W 8434   8.470   1.772  10.029
 4916W        W 8435   7.485   7.522   8.996
 4917W        W 8436   1.275   8.050   9.923
 4918W        W 8437   1.263   5.064   9.854
 4919W        W 8438   2.212   1.273   8.994
 4920W        W 8439   0.428   2.780   0.911
 4921W        W 8440   0.269   7.913   3.275
 4922W        W 8441   1.891   5.503   3.346
 4923W        W 8442   3.252   8.991  11.302
 4924W        W 8443   8.986   5.699   9.853
 4925W        W 8444   0.782   9.435   2.771
 4926W        W 8445   5.200   6.555   9.060
 4927W        W 8446   9.904   8.370   2.294
 4928W        W 8447   4.584   6.937   3.762
 4929W        W 8448   2.755   8.057   0.759
 4930W        W 8449   5.488   7.581   3.124
 4931W        W 8450   0.744   8.451   3.281
 4932W        W 8451   4.711   1.403   2.381
 4933W        W 8452   3.661   5.181   2.178
 4934W        W 8453   8.899   8.880   0.907
 4935W        W 8454   2.806   5.593   0.353
 4936W        W 8455   8.462   9.481   1.765
 4937W        W 8456   3.737   6.999   0.724
 4938W        W 8457   7.421   8.507   0.830
 4939W        W 8458   4.153   8.026  11.761
 4940W        W 8459   0.278   2.308   9.041
 4941W        W 8460   5.064   6.063   9.522
 4942W        W 8461   1.409   7.493   1.732
 4943W        W 8462   4.165   9.826   9.534
 4944W        W 8463   0.444   6.658   3.127
 4945W        W 8464   7.992   6.001  11.346
 4946W        W 8465   3.669   5.212  11.323
 4947W        W 8466   3.776   0.888   1.901
 4948W        W 8467   8.548   2.631   2.824
 4949W        W 8468   6.580   8.527   2.754
 4950W        W 8469   4.193   8.408   2.712
 4951W        W 8470   2.179   8.506   1.250
 4952W        W 8471   5.592   5.035   2.810
 4953W        W 8472   7.074   7.482   1.764
 4954W        W 8473   1.410   3.160   0.747
 4955W        W 8474   8.505   0.902  11.480
 4956W        W 8475   9.031   3.744   2.393
 4957W        W 8476   9.366   9.362   0.343
 4958W        W 8477   6.498   2.652   2.283
 4959W        W 8478   9.902   8.527   1.699
 4960W        W 8479   4.639   9.823   3.296
 4961W        W 8480   4.742   1.745   2.163
 4962W        W 8481   6.013   7.902   2.263
 4963W        W 8482   3.137   4.243   9.859
 4964W        W 8483   4.749   6.086   8.550
 4965W        W 8484   1.294   5.154  10.557
 4966W        W 8485   1.221   9.782   8.931
 4967W        W 8486   7.111   2.156   9.409
 4968W        W 8487   1.734   5.700   9.843
 4969W        W 8488   4.052   5.516  10.982
 4970W        W 8489   5.557   3.592   1.201
 4971W        W 8490   3.579   8.472   0.303
 4972W        W 8491   8.007   2.319   1.748
 4973W        W 8492   2.350   3.252  10.551
 4974W        W 8493   4.272   3.181   3.727
 4975W        W 8494   2.745   3.759   1.299
 4976W        W 8495   5.014   8.337   2.834
 4977W        W 8496   8.904   2.706  11.828
 4978W        W 8497   6.184   9.005   2.275
 4979W        W 8498   3.112   5.171  10.823
 4980W        W 8499   9.007   5.079   2.827
 4981W        W 8500   6.110   5.230  11.385
 4982W        W 8501   0.859   3.798   1.889
 4983W        W 8502   9.829   1.893  10.543
 4984W        W 8503   6.545   6.443   9.518
 4985W        W 8504   6.551   0.331  10.407
 4986W        W 8505   1.699   8.028   9.468
 4987W        W 8506   1.756   0.359  11.783
 4988W        W 8507   8.876   7.058  10.005
 4989W        W 8508   9.015   8.555  11.982
 4990W        W 8509   3.590   0.884   2.650
 4991W        W 8510   7.529   5.965   4.315
 4992W        W 8511   5.170   4.220   0.822
 4993W        W 8512   0.312   9.867   3.166
 4994W        W 8513   8.963   9.781  10.079
 4995W        W 8514   6.476   7.134   1.243
 4996W        W 8515   1.721   7.453   0.263
 4997W        W 8516   6.159   1.796   9.892
 4998W        W 8517   7.016   2.190  11.902
 4999W        W 8518   0.898   3.608  11.436
 5000W        W 8519   1.380   9.767   3.306
 5001W        W 8520   1.850   6.165   1.699
 5002W        W 8521   1.743   1.877  11.958
 5003W        W 8522   7.575   6.983   1.809
 5004W        W 8523   7.036   0.715  10.356
 5005W        W 8524   7.868   5.643   2.232
 5006W        W 8525   9.794   7.115  10.418
 5007W        W 8526   9.450   6.147   1.200
 5008W        W 8527   6.180   5.043   2.847
 5009W        W 8528   3.682   6.627   1.798
 5010W        W 8529   8.462   3.188  10.351
 5011W        W 8530   5.708   4.630  11.333
 5012W        W 8531   7.963   1.768   9.433
 5013W        W 8532   1.321   7.439  10.411
 5014W        W 8533   1.298   8.887   1.382
 5015W        W 8534   1.385   5.618   0.823
 5016W        W 8535   7.588   7.963  10.527
 5017W        W 8536   3.609   9.327  11.501
 5018W        W 8537   8.926   2.187   9.939
 5019W        W 8538   9.410   6.081   2.815
 5020W        W 8539   0.288   8.468   1.327
 5021W        W 8540   0.762   5.687   1.211
 5022W        W 8541   6.431   1.230   0.380
 5023W        W 8542   5.152   0.415   2.731
 5024W        W 8543   4.733   8.848  10.838
 5025W        W 8544   0.378   2.362   2.320
 5026W        W 8545   2.241   3.580   9.415
 5027W        W 8546   9.303   5.234   0.924
 5028W        W 8547   6.029   6.063  11.778
 5029W        W 8548   0.476   3.730   1.757
 5030W        W 8549   1.806   7.029   1.200
 5031W        W 8550   0.364   7.106   1.397
 5032W        W 8551   1.302   0.286  11.907
 5033W        W 8552   4.085   0.844   2.759
 5034W        W 8553   7.941   7.091   1.713
 5035W        W 8554   6.929   6.123   4.189
 5036W        W 8555   2.828   5.121   3.250
 5037W        W 8556   2.791   4.553   8.008
 5038W        W 8557   9.303   2.287   3.199
 5039W        W 8558   5.151   2.705   0.854
 5040W        W 8559   6.909   6.934   3.704
 5041W        W 8560   0.378   5.061  10.966
 5042W        W 8561   5.012   1.221   2.867
 5043W        W 8562   5.202   6.646   4.108
 5044W        W 8563   0.320   3.786   0.875
 5045W        W 8564   8.005   4.165  10.351
 5046W        W 8565   5.048   7.039   9.572
 5047W        W 8566   8.060   3.219   2.232
 5048W        W 8567   6.612   9.470  11.297
 5049W        W 8568   6.038   9.997   9.048
 5050W        W 8569   9.427   6.968   2.265
 5051W        W 8570   9.453   8.038   2.303
 5052W        W 8571   2.349   6.649   3.658
 5053W        W 8572   4.254   6.475   1.786
 5054W        W 8573   5.479   2.158   2.168
 5055W        W 8574   6.083   5.538   1.295
 5056W        W 8575   6.965   7.432  11.773
 5057W        W 8576   0.749   9.858   1.856
 5058W        W 8577   7.142   6.010   9.050
 5059W        W 8578   8.835   9.459   3.174
 5060W        W 8579   3.651   8.854  11.507
 5061W        W 8580   9.495   7.574   0.313
 5062W        W 8581   1.772   6.436  10.845
 5063W        W 8582   1.358   9.829  10.513
 5064W        W 8583   8.061   9.470   9.433
 5065W        W 8584   8.432   6.612   0.944
 5066W        W 8585   3.103   8.011   2.352
 5067W        W 8586   6.146   0.948  10.433
 5068W        W 8587   1.840   2.789   1.219
 5069W        W 8588   2.633   9.376   9.576
 5070W        W 8589   3.157   4.652   9.563
 5071W        W 8590   5.050   8.033   2.390
 5072W        W 8591   2.251   6.046   3.217
 5073W        W 8592   6.638   9.419  10.353
 5074W        W 8593   6.465   2.324   2.836
 5075W        W 8594   1.323   8.394   2.289
 5076W        W 8595   6.449   5.117   2.647
 5077W        W 8596   0.908   4.249   3.207
 5078W        W 8597   6.135   5.089   2.196
 5079W        W 8598   7.895   2.786  10.076
 5080W        W 8599   6.040   9.492  10.489
 5081W        W 8600   8.000   3.203  10.322
 5082W        W 8601   2.300   2.823   3.249
 5083W        W 8602   9.502   6.603   0.253
 5084W        W 8603   7.618   5.634   2.212
 5085W        W 8604   3.659   0.739   3.829
 5086W        W 8605   9.440   4.220  11.991
 5087W        W 8606   5.609   8.450   3.288
 5088W        W 8607   8.435   7.050   1.869
 5089W        W 8608   8.383   9.370   2.319
 5090W        W 8609   3.582   8.381   2.876
 5091W        W 8610   8.431   2.650   9.440
 5092W        W 8611   3.228   3.220   0.906
 5093W        W 8612   4.600   0.461   9.854
 5094W        W 8613   4.116   7.135  10.963
 5095W        W 8614   4.606   5.679  10.009
 5096W        W 8615   3.803   8.452   1.350
 5097W        W 8616   3.644   5.562   9.545
 5098W        W 8617   1.378   1.903   0.879
 5099W        W 8618   4.192   2.195   9.391
 5100W        W 8619   1.709   0.792   3.219
 5101W        W 8620   9.415   3.765  11.497
 5102W        W 8621   4.678   5.477   0.374
 5103W        W 8622   4.156   7.930  11.438
 5104W        W 8623   8.857   7.107   0.374
 5105W        W 8624   1.231   3.633   3.296
 5106W        W 8625   0.866   0.856   8.521
 5107W        W 8626   9.389   9.487   9.913
 5108W        W 8627   4.086   0.750   3.161
 5109W        W 8628   8.039   8.844   2.863
 5110W        W 8629   7.599   4.558  10.001
 5111W        W 8630   0.466   3.245   0.845
 5112W        W 8631   8.355   6.098   3.810
 5113W        W 8632   0.316   3.329   9.528
 5114W        W 8633   0.810   2.335   8.904
 5115W        W 8634   5.676   8.381   8.944
 5116W        W 8635   1.740   7.541   2.770
 5117W        W 8636   6.021   8.956   9.843
 5118W        W 8637   3.211   4.712   8.937
 5119W        W 8638   8.465   5.619   1.702
 5120W        W 8639   4.109   4.636   2.824
 5121W        W 8640   2.279   6.048   0.355
 5122W        W 8641   6.634   0.460  11.326
 5123W        W 8642   2.808   9.041  11.861
 5124W        W 8643   1.204   0.788  11.870
 5125W        W 8644   9.784   4.663   2.167
 5126W        W 8645   6.153   5.652   2.738
 5127W        W 8646   3.704   0.465   0.446
 5128W        W 8647   2.178   9.497   1.767
 5129W        W 8648   8.557   2.296   1.374
 5130W        W 8649   9.428   5.513  11.418
 5131W        W 8650   4.211   0.803   1.398
 5132W        W 8651   8.479   3.583   0.771
 5133W        W 8652   7.617   0.774   1.270
 5134W        W 8653   8.984   6.158   2.319
 5135W        W 8654   8.453   9.796   0.419
 5136W        W 8655   5.621   3.319   9.001
 5137W        W 8656   9.880   5.675   9.897
 5138W        W 8657   0.883   0.448   9.845
 5139W        W 8658   3.330   7.033   8.077
 5140W        W 8659   8.356   0.876   3.261
 5141W        W 8660   4.656   3.115   0.332
 5142W        W 8661   2.774   5.577  10.995
 5143W        W 8662   1.823   3.310  11.392
 5144W        W 8663   2.191   0.359  11.972
 5145W        W 8664   8.044   2.721   2.245
 5146W        W 8665   5.550   9.796   2.351
 5147W        W 8666   3.701   2.780   1.265
 5148W        W 8667   9.300   9.994   0.253
 5149W        W 8668   8.518   5.167  10.029
 5150W        W 8669   6.040   8.895  10.922
 5151W        W 8670   5.980   6.470  10.966
 5152W        W 8671   0.355   1.795  11.798
 5153W        W 8672   5.980   4.752  11.913
 5154W        W 8673   6.138   4.218   0.797
 5155W        W 8674   9.288   9.515   9.022
 5156W        W 8675   9.366   7.048  11.315
 5157W        W 8676   5.541   1.282   0.367
 5158W        W 8677   4.187   5.082  10.044
 5159W        W 8678   7.555   4.753   9.110
 5160W        W 8679   1.226   7.035   0.241
 5161W        W 8680   2.336   5.059   2.825
 5162W        W 8681   5.672   4.598  10.410
 5163W        W 8682   9.286   5.490   0.814
 5164W        W 8683   2.270   8.020   1.740
 5165W        W 8684   6.919   1.326   9.050
 5166W        W 8685   4.263   6.468   2.721
 5167W        W 8686   7.040   9.009  10.078
 5168W        W 8687   4.092   8.905   2.306
 5169W        W 8688   0.793   6.183  11.888
 5170W        W 8689   9.778   4.722  10.060
 5171W        W 8690   7.395   0.792   2.176
 5172W        W 8691   6.003   2.729   2.210
 5173W        W 8692   7.857   9.498  11.955
 5174W        W 8693   3.798   1.832   2.706
 5175W        W 8694   2.792   5.105  11.486
 5176W        W 8695   3.736   4.169   3.732
 5177W        W 8696   8.903   9.945   1.718
 5178W        W 8697   8.937   7.896  10.893
 5179W        W 8698   8.411   5.023   2.314
 5180W        W 8699   4.759   4.051   9.593
 5181W        W 8700   8.831   3.605   1.822
 5182W        W 8701   5.959   7.051  11.809
 5183W        W 8702   0.717   5.012   0.326
 5184W        W 8703   1.712   7.477  11.355
 5185W        W 8704   3.750   2.842   2.234
 5186W        W 8705   2.816   8.895   3.196
 5187W        W 8706   5.664   6.952   4.271
 5188W        W 8707   5.672   2.688   2.732
 5189W        W 8708   1.833   9.873   2.665
 5190W        W 8709   0.384   3.702   9.066
 5191W        W 8710   8.089   1.193   2.652
 5192W        W 8711   7.535   9.892  10.901
 5193W        W 8712   5.119   3.579   4.310
 5194W        W 8713   3.746   9.955   0.355
 5195W        W 8714   6.919   8.840   9.381
 5196W        W 8715   2.228   3.777   2.651
 5197W        W 8716   7.404   3.710   0.464
 5198W        W 8717   9.822   5.963   1.367
 5199W        W 8718   9.487   1.379   1.849
 5200W        W 8719   7.139   9.789   3.261
 5201W        W 8720   7.874   7.602   1.816
 5202W        W 8721   6.619   7.109  10.814
 5203W        W 8722   1.667   5.608   8.497
 5204W        W 8723   1.719   5.528   1.401
 5205W        W 8724   9.964   8.073   9.433
 5206W        W 8725   1.262   0.316   9.870
 5207W        W 8726   0.838   7.482   1.407
 5208W        W 8727   2.354   4.558   9.876
 5209W        W 8728   1.851   4.050   0.461
 5210W        W 8729   7.016   5.593   8.989
 5211W        W 8730   9.820   0.847  10.834
 5212W        W 8731   7.930   6.058  10.020
 5213W        W 8732   2.235   4.101  10.512
 5214W        W 8733   3.716   5.550  11.306
 5215W        W 8734   1.328   8.379   0.321
 5216W        W 8735   5.563   1.861  10.336
 5217W        W 8736   8.354   2.211   9.985
 5218W        W 8737   9.400   1.378   2.294
 5219W        W 8738   3.572   2.207   0.769
 5220W        W 8739   1.757   1.680   8.944
 5221W        W 8740   3.657   6.033   8.503
 5222W        W 8741   2.798   1.713   8.448
 5223W        W 8742   9.396   6.597  11.499
 5224W        W 8743   9.986   0.432   0.336
 5225W        W 8744   4.561   2.188   2.862
 5226W        W 8745   9.823   9.425   1.714
 5227W        W 8746   9.037   5.219  11.818
 5228W        W 8747   2.159   3.728   0.750
 5229W        W 8748   3.698   1.772   9.977
 5230W        W 8749   4.528   9.503   9.444
 5231W        W 8750   6.027   3.752   1.719
 5232W        W 8751   2.183   8.347   3.124
 5233W        W 8752   8.001   2.284   2.802
 5234W        W 8753   5.622   5.099   1.309
 5235W        W 8754   4.250   5.480   9.501
 5236W        W 8755   4.062   4.666  10.003
 5237W        W 8756   9.349   9.841   1.300
 5238W        W 8757   5.561   2.247   0.902
 5239W        W 8758   2.822   0.365  10.419
 5240W        W 8759   8.513   5.554  11.359
 5241W        W 8760   5.089   7.128  11.796
 5242W        W 8761   6.145   1.715   3.133
 5243W        W 8762   4.055   0.395   0.273
 5244W        W 8763   9.033   5.227   1.300
 5245W        W 8764   1.801   6.179  11.358
 5246W        W 8765   0.339   3.118  11.789
 5247W        W 8766   8.914   9.341   9.440
 5248W        W 8767   3.119   0.354   2.276
 5249W        W 8768   5.043   6.430   3.129
 5250W        W 8769   6.563   3.692   9.406
 5251W        W 8770   1.269   3.129   3.694
 5252W        W 8771   1.881   8.032  10.954
 5253W        W 8772   3.119   5.584  10.944
 5254W        W 8773   8.436   3.204   2.180
 5255W        W 8774   1.397   6.913   1.237
 5256W        W 8775   9.513   4.225   1.845
 5257W        W 8776   1.264   3.204   1.820
 5258W        W 8777   4.225   9.360   9.078
 5259W        W 8778   8.444   7.597   1.215
 5260W        W 8779   3.285   8.347   9.390
 5261W        W 8780   3.111   6.070   8.469
 5262W        W 8781   5.566   6.528   4.246
 5263W        W 8782   6.663   4.158  11.808
 5264W        W 8783   0.851   7.126   1.705
 5265W        W 8784   7.537   5.704   0.460
 5266W        W 8785   2.289   0.926  11.803
 5267W        W 8786   9.889   2.645  10.868
 5268W        W 8787   8.828   9.356   8.955
 5269W        W 8788   6.066   4.169   2.161
 5270W        W 8789   7.487   6.486   0.728
 5271W        W 8790   2.777   7.947   2.725
 5272W        W 8791   5.675   9.306   2.242
 5273W        W 8792   1.258   6.120   9.887
 5274W        W 8793   1.248   6.565  11.778
 5275W        W 8794   3.328   6.585   8.971
 5276W        W 8795   2.646   5.642   2.759
 5277W        W 8796   3.696   8.011   9.094
 5278W        W 8797   7.951   5.614  10.824
 5279W        W 8798   9.304   6.081   9.364
 5280W        W 8799   5.223   1.894   0.289
 5281W        W 8800   8.093   7.613   2.813
 5282W        W 8801   2.782   4.266  11.804
 5283W        W 8802   8.952   4.116   2.863
 5284W        W 8803   5.048   9.367  10.835
 5285W        W 8804   0.251   8.454   2.832
 5286W        W 8805   6.609   4.190   2.168
 5287W        W 8806   4.257   4.196  11.454
 5288W        W 8807   1.370   9.923   1.753
 5289W        W 8808   8.515   3.174   2.808
 5290W        W 8809   3.307   1.839   1.745
 5291W        W 8810   8.415   3.255   8.466
 5292W        W 8811   8.410   4.282   1.859
 5293W        W 8812   7.466   6.089   8.633
 5294W        W 8813   0.855   4.585   1.347
 5295W        W 8814   1.248   7.923  10.367
 5296W        W 8815   2.248   2.792  10.985
 5297W        W 8816   4.070   3.704  10.842
 5298W        W 8817   3.622   0.461  11.930
 5299W        W 8818   5.226   4.214  10.960
 5300W        W 8819   4.729   1.213  11.862
 5301W        W 8820   8.845   2.352   9.529
 5302W        W 8821   1.697   6.160   9.033
 5303W        W 8822   5.666   3.323   9.947
 5304W        W 8823   6.533   2.687  10.835
 5305W        W 8824   6.183   5.114   0.379
 5306W        W 8825   3.153   1.369   3.244
 5307W        W 8826   4.677   8.446   9.595
 5308W        W 8827   0.717   1.904  10.339
 5309W        W 8828   8.847   3.197   0.241
 5310W        W 8829   7.975   9.827   2.697
 5311W        W 8830   9.907   3.207  10.834
 5312W        W 8831  10.000   8.851   1.342
 5313W        W 8832   1.378   7.927  10.848
 5314W        W 8833   0.952   8.427  11.368
 5315W        W 8834   3.762   9.803   1.897
 5316W        W 8835   3.202   1.863  10.809
 5317W        W 8836   4.241   0.838   9.007
 5318W        W 8837   9.774   0.895  10.511
 5319W        W 8838   4.081   5.556  10.503
 5320W        W 8839   9.803   7.108   1.296
 5321W        W 8840   4.246   1.365   0.301
 5322W        W 8841   1.899   7.074  11.482
 5323W        W 8842   8.341   0.289   2.245
 5324W        W 8843   6.132   6.550   0.271
 5325W        W 8844   8.899   2.153   1.799
 5326W        W 8845   8.400   1.720  11.927
 5327W        W 8846   5.146   4.246  11.407
 5328W        W 8847   0.423   2.357   0.410
 5329W        W 8848   1.871   2.248   3.677
 5330W        W 8849   4.635   5.653   9.517
 5331W        W 8850   3.703   9.800   1.373
 5332W        W 8851   9.383   1.879  11.938
 5333W        W 8852   4.259   6.434   4.298
 5334W        W 8853   2.841   7.576   0.289
 5335W        W 8854   1.394   0.888  11.493
 5336W        W 8855   2.757   2.804  11.371
 5337W        W 8856   2.770   8.068   9.475
 5338W        W 8857   2.206   3.694  11.828
 5339W        W 8858   8.999   7.509  11.781
 5340W        W 8859   4.627   3.204  11.515
 5341W        W 8860   3.789   7.567   0.286
 5342W        W 8861   8.003   7.503  11.031
 5343W        W 8862   8.397   6.555   9.924
 5344W        W 8863   3.767   5.500   4.144
 5345W        W 8864   0.938   9.440   9.090
 5346W        W 8865   0.839   2.699  11.378
 5347W        W 8866   4.232   5.999  11.408
 5348W        W 8867   5.189   8.822   2.186
 5349W        W 8868   6.041   4.739   8.572
 5350W        W 8869   1.721   6.558  10.330
 5351W        W 8870   6.576   8.499   0.938
 5352W        W 8871   4.683   8.420  11.938
 5353W        W 8872   8.818   4.727   1.723
 5354W        W 8873   2.291   0.827   1.864
 5355W        W 8874   4.695   5.626   9.044
 5356W        W 8875   8.389   5.958   0.880
 5357W        W 8876   2.378   0.280  11.374
 5358W        W 8877   5.707   6.622   8.023
 5359W        W 8878   8.027   8.860   3.352
 5360W        W 8879   8.874   6.508  10.875
 5361W        W 8880   5.570   2.849  10.911
 5362W        W 8881   6.488   6.533  10.464
 5363W        W 8882   3.296   7.515  10.888
 5364W        W 8883   3.221   4.271   2.314
 5365W        W 8884   7.458   9.946   3.157
 5366W        W 8885   8.517   2.158  11.958
 5367W        W 8886   8.930   1.784   9.926
 5368W        W 8887   3.593   5.051   8.610
 5369W        W 8888   1.872   2.663   9.956
 5370W        W 8889   0.937   7.408   3.254
 5371W        W 8890   8.458   0.827   2.653
 5372W        W 8891   2.809   9.965   0.770
 5373W        W 8892   1.784   0.279   9.882
 5374W        W 8893   1.210   4.554   2.365
 5375W        W 8894   5.975   3.274  11.901
 5376W        W 8895   5.207   6.123   4.130
 5377W        W 8896   6.066   2.253   0.817
 5378W        W 8897   7.519   3.594   2.876
 5379W        W 8898   2.645   2.769   1.226
 5380W        W 8899   1.362   0.722   1.811
 5381W        W 8900   2.641   0.889   0.303
 5382W        W 8901   3.193   1.413   8.973
 5383W        W 8902   1.902   4.539  10.020
 5384W        W 8903   9.790   1.882  11.799
 5385W        W 8904   6.046   5.967  10.832
 5386W        W 8905   8.467   8.564  11.402
 5387W        W 8906   1.328   0.738  11.000
 5388W        W 8907   6.929   8.853   0.249
 5389W        W 8908   9.897   4.723  11.469
 5390W        W 8909   0.356   6.130  11.373
 5391W        W 8910   2.652   1.280   1.835
 5392W        W 8911   6.435   6.600  10.023
 5393W        W 8912   6.511   3.770   0.876
 5394W        W 8913   6.527   5.006   3.640
 5395W        W 8914   6.538   9.892  11.027
 5396W        W 8915   4.605   5.644   8.408
 5397W        W 8916   2.329   5.679   2.175
 5398W        W 8917   7.084   0.854   9.942
 5399W        W 8918   0.365   3.264   2.878
 5400W        W 8919   6.556   2.224   9.021
 5401W        W 8920   6.970   6.120   0.948
 5402W        W 8921   6.016   1.865  10.344
 5403W        W 8922   9.317   9.399  11.800
 5404W        W 8923   6.523   5.998   9.940
 5405W        W 8924   2.192   4.281   9.880
 5406W        W 8925   6.558   5.648   0.804
 5407W        W 8926   8.933   6.149  11.369
 5408W        W 8927   6.512   7.897   2.831
 5409W        W 8928   6.581   0.760   1.401
 5410W        W 8929   3.177   3.330  10.908
 5411W        W 8930   2.270   9.436  10.873
 5412W        W 8931   1.208   6.006   0.445
 5413W        W 8932   8.068   2.751   3.788
 5414W        W 8933   1.694   3.102   2.292
 5415W        W 8934   1.793   1.375   2.179
 5416W        W 8935   5.647   4.581   1.387
 5417W        W 8936   2.289   6.602  11.881
 5418W        W 8937   0.835   8.906   9.023
 5419W        W 8938   8.000   5.565  10.062
 5420W        W 8939   6.944   8.490   8.541
 5421W        W 8940   5.191   0.877  11.358
 5422W        W 8941   5.122   1.875  10.020
 5423W        W 8942   9.388   1.258   2.843
 5424W        W 8943   6.120   0.451  10.532
 5425W        W 8944   8.537   9.762   2.294
 5426W        W 8945   1.210   2.819   3.188
 5427W        W 8946   9.357   6.459  10.905
 5428W        W 8947   5.969   7.909  11.442
 5429W        W 8948   2.357   7.991   2.660
 5430W        W 8949   1.223   1.227   9.388
 5431W        W 8950   5.198   1.866   9.406
 5432W        W 8951   5.573   7.937   9.531
 5433W        W 8952   6.660   2.239   3.189
 5434W        W 8953   1.221   8.841   2.364
 5435W        W 8954   3.792   5.149   3.229
 5436W        W 8955   2.696   6.452   2.652
 5437W        W 8956   8.818   4.234   9.542
 5438W        W 8957   3.170   4.597   9.990
 5439W        W 8958   2.682   9.329   2.270
 5440W        W 8959   2.228   2.343   9.557
 5441W        W 8960   2.751   7.515   0.726
 5442W        W 8961   0.286   1.687   9.068
 5443W        W 8962   5.641   1.328   2.711
 5444W        W 8963   9.405   1.789   0.746
 5445W        W 8964   5.640   1.889   0.321
 5446W        W 8965   6.018   2.223  10.436
 5447W        W 8966   1.346   8.411   9.393
 5448W        W 8967   9.354   6.523   0.737
 5449W        W 8968   9.832   4.597   8.894
 5450W        W 8969   1.824   4.756   9.088
 5451W        W 8970   9.431   2.180   0.314
 5452W        W 8971   0.300   4.692  11.425
 5453W        W 8972   7.946   9.314   1.218
 5454W        W 8973   6.509   1.310  10.906
 5455W        W 8974   0.264   2.803   9.425
 5456W        W 8975   4.714   6.599   8.092
 5457W        W 8976   2.737   6.931  10.328
 5458W        W 8977   3.153   8.957   0.471
 5459W        W 8978   3.644   6.930   1.889
 5460W        W 8979   7.980   4.085   9.439
 5461W        W 8980   2.314   8.390   1.680
 5462W        W 8981   9.366   4.573   3.337
 5463W        W 8982   9.970   3.099   9.959
 5464W        W 8983   2.763   7.130   1.239
 5465W        W 8984   9.969   4.243   0.427
 5466W        W 8985   4.275   5.553  11.778
 5467W        W 8986   8.886   4.549  11.404
 5468W        W 8987   9.934   6.575   3.278
 5469W        W 8988   4.648   3.136   2.213
 5470W        W 8989   2.248   2.839   1.703
 5471W        W 8990   1.735   9.496   0.833
 5472W        W 8991   8.949   1.677  11.377
 5473W        W 8992   5.610   6.014   0.738
 5474W        W 8993   9.893   2.646   0.902
 5475W        W 8994   9.805   5.650   8.521
 5476W        W 8995   9.966   1.213   1.875
 5477W        W 8996   0.299   1.364  10.853
 5478W        W 8997   7.521   7.542  11.865
 5479W        W 8998   2.692   8.498   1.421
 5480W        W 8999   3.797   1.244   2.237
 5481W        W 9000   6.166   8.084  10.326
 5482W        W 9001   1.317   5.225   2.167
 5483W        W 9002   7.137   1.732   9.852
 5484W        W 9003   9.854   4.251   0.919
 5485W        W 9004   1.425   4.165   9.930
 5486W        W 9005   9.919   2.352   2.354
 5487W        W 9006   5.132   5.228   9.489
 5488W        W 9007   5.995   8.017   1.917
 5489W        W 9008   7.894   6.069   0.318
 5490W        W 9009   8.889   0.865   2.286
 5491W        W 9010   4.185   8.358   9.870
 5492W        W 9011   9.361   8.408   3.788
 5493W        W 9012   9.799   1.317  11.980
 5494W        W 9013   2.231   6.515   0.745
 5495W        W 9014   5.575   4.115   8.923
 5496W        W 9015   5.208   0.364   9.920
 5497W        W 9016   9.498   3.601   2.186
 5498W        W 9017   0.857   5.547   1.739
 5499W        W 9018   8.992   7.411   3.143
 5500W        W 9019   5.549   1.706  11.335
 5501W        W 9020   0.922   2.165   1.369
 5502W        W 9021   6.177   5.669   9.402
 5503W        W 9022   6.114   1.204   9.057
 5504W        W 9023   9.842   0.784   2.709
 5505W        W 9024   6.518   3.575   8.903
 5506W        W 9025   9.314   4.585   3.833
 5507W        W 9026   8.818   7.905   9.458
 5508W        W 9027   7.028   0.772   0.379
 5509W        W 9028   3.748   9.516   3.345
 5510W        W 9029   9.889   8.072   8.969
 5511W        W 9030   1.336   7.407   2.211
 5512W        W 9031   5.210   1.899   3.226
 5513W        W 9032   8.336   7.082   3.326
 5514W        W 9033   3.233   4.618  11.412
 5515W        W 9034   4.527   3.653   0.289
 5516W        W 9035   7.568   1.368   1.879
 5517W        W 9036   0.368   5.113   8.999
 5518W        W 9037   7.469   5.658  11.923
 5519W        W 9038   9.020   0.364  11.038
 5520W        W 9039   8.961   5.678   1.346
 5521W        W 9040   3.794   1.895   0.252
 5522W        W 9041   8.532   6.935   0.478
 5523W        W 9042   4.083   7.962  10.379
 5524W        W 9043   9.839   2.202   9.995
 5525W        W 9044   7.902   0.432  10.948
 5526W        W 9045   5.141   8.925   0.952
 5527W        W 9046   6.942   1.788   0.923
 5528W        W 9047   7.892   1.203   1.819
 5529W        W 9048   6.596   4.583  10.486
 5530W        W 9049   6.969   6.451   9.418
 5531W        W 9050   0.423   7.549  10.492
 5532W        W 9051   4.282   7.402   1.283
 5533W        W 9052   9.786   2.689  10.532
 5534W        W 9053   9.946   5.099   3.813
 5535W        W 9054   9.326   5.092  10.837
 5536W        W 9055   5.202   4.549  11.954
 5537W        W 9056   8.389   9.825  11.878
 5538W        W 9057   5.133   9.803   0.750
 5539W        W 9058   0.337   9.853   9.057
 5540W        W 9059   3.768   9.844   8.938
 5541W        W 9060   6.632   4.063   8.632
 5542W        W 9061   1.399   9.419   9.025
 5543W        W 9062   6.000   5.172  11.892
 5544W        W 9063   7.555   1.834  10.886
 5545W        W 9064   7.410   5.517   9.876
 5546W        W 9065   3.591   2.341  11.373
 5547W        W 9066   8.016   8.367   1.304
 5548W        W 9067   6.170   4.211   2.660
 5549W        W 9068   4.228   6.982   1.843
 5550W        W 9069   9.325   3.679   9.562
 5551W        W 9070   5.504   0.307  10.864
 5552W        W 9071   6.590   4.630   2.299
 5553W        W 9072   6.036   8.567   2.657
 5554W        W 9073   2.329   5.627   0.322
 5555W        W 9074   5.710   4.284  11.828
 5556W        W 9075   4.103   0.812   9.954
 5557W        W 9076   3.605   4.552   2.800
 5558W        W 9077   7.568   0.930   9.039
 5559W        W 9078   5.139   8.825   9.406
 5560W        W 9079   1.295   9.839   2.825
 5561W        W 9080   0.348   4.662   9.588
 5562W        W 9081   3.809   6.486   8.461
 5563W        W 9082   2.290   5.113  10.056
 5564W        W 9083   4.189   6.021   1.288
 5565W        W 9084   3.311   7.878   1.266
 5566W        W 9085   6.510   6.643   1.709
 5567W        W 9086   2.182   4.598   0.918
 5568W        W 9087   9.001   5.103   1.749
 5569W        W 9088   7.122   9.838   0.786
 5570W        W 9089   2.257   2.343  10.446
 5571W        W 9090   7.549   8.556   9.021
 5572W        W 9091   2.795   3.162  11.979
 5573W        W 9092   4.218   5.125   0.825
 5574W        W 9093   6.594   0.408  11.973
 5575W        W 9094   3.779   8.549   0.790
 5576W        W 9095   2.173   5.639   3.313
 5577W        W 9096   6.468   8.926   1.793
 5578W        W 9097   1.340   1.391   3.124
 5579W        W 9098   8.818   2.768  10.453
 5580W        W 9099   3.596   5.161   1.399
 5581W        W 9100   7.458   5.036  10.942
 5582W        W 9101   7.466   3.756  11.451
 5583W        W 9102   2.258   3.281   1.853
 5584W        W 9103   3.145   3.775   1.374
 5585W        W 9104   4.219   1.336  11.972
 5586W        W 9105   6.957   7.382  10.422
 5587W        W 9106   0.938   3.283  10.066
 5588W        W 9107   7.921   7.519   3.271
 5589W        W 9108   0.945   1.870   2.665
 5590W        W 9109   4.154   9.460  11.975
 5591W        W 9110   7.478   6.510   9.921
 5592W        W 9111   8.507   5.081  11.013
 5593W        W 9112   4.547   5.484   0.724
 5594W        W 9113   7.921   2.215   9.878
 5595W        W 9114   3.228   5.613   1.846
 5596W        W 9115   4.113   0.457   3.261
 5597W        W 9116   7.902   2.247   3.808
 5598W        W 9117   8.019   0.253   3.174
 5599W        W 9118   7.386   0.369   9.480
 5600W        W 9119   8.955   3.111   1.274
 5601W        W 9120   8.516   1.213   9.093
 5602W        W 9121   5.052   5.653   0.778
 5603W        W 9122   5.713   3.633   1.849
 5604W        W 9123   9.480   3.184  10.507
 5605W        W 9124   6.566   2.657   8.997
 5606W        W 9125   1.385   7.545  11.022
 5607W        W 9126   4.690   4.628  10.852
 5608W        W 9127   4.161   9.021  11.796
 5609W        W 9128   9.305   2.785   2.242
 5610W        W 9129   5.600   5.489   1.286
 5611W        W 9130   2.742   5.587   0.825
 5612W        W 9131   1.257   2.679   9.507
 5613W        W 9132   4.537   5.147  11.487
 5614W        W 9133   5.519   9.409   2.703
 5615W        W 9134   8.896   8.413  10.080
 5616W        W 9135   3.672   1.801  11.949
 5617W        W 9136   6.917   3.797   1.219
 5618W        W 9137   4.742   8.531   3.153
 5619W        W 9138   6.597   1.199   1.414
 5620W        W 9139   5.232   8.560   9.512
 5621W        W 9140   6.115   2.720   9.410
 5622W        W 9141   9.378   6.643   9.382
 5623W        W 9142   3.321   8.375   2.240
 5624W        W 9143   6.967   1.681   2.248
 5625W        W 9144   5.673   7.079  11.501
 5626W        W 9145   5.988   8.857   1.902
 5627W        W 9146   7.468   8.933   0.919
 5628W        W 9147   5.995   8.350   3.240
 5629W        W 9148   6.053   8.350   9.856
 5630W        W 9149   1.698   3.590   8.961
 5631W        W 9150   8.900   1.702   3.211
 5632W        W 9151   0.852   1.888   3.724
 5633W        W 9152   8.994   0.762  11.508
 5634W        W 9153   0.932   3.684  11.980
 5635W        W 9154   7.415   0.324  10.527
 5636W        W 9155   2.344   8.842   1.785
 5637W        W 9156   5.594   6.099   8.562
 5638W        W 9157   1.331   9.968   2.267
 5639W        W 9158   7.479   8.074   9.105
 5640W        W 9159   4.073   7.412   8.940
 5641W        W 9160   9.030   8.965   1.298
 5642W        W 9161   0.350   5.170   1.383
 5643W        W 9162   0.470   9.790  10.042
 5644W        W 9163   5.054   3.703  10.939
 5645W        W 9164   0.759   4.214   2.856
 5646W        W 9165   1.775   2.189  10.469
 5647W        W 9166   6.929   5.063   9.947
 5648W        W 9167   1.331   7.124   3.194
 5649W        W 9168   2.681   4.698   3.640
 5650W        W 9169   6.082   3.652  10.359
 5651W        W 9170   7.424   4.631  10.881
 5652W        W 9171   8.090   3.146  10.984
 5653W        W 9172   1.406   0.865   8.574
 5654W        W 9173   6.648   8.832   9.580
 5655W        W 9174   6.549   7.565  11.938
 5656W        W 9175   3.635   2.182   3.121
 5657W        W 9176   4.155   0.324  10.537
 5658W        W 9177   2.150   2.312   1.720
 5659W        W 9178   1.865   2.277   9.363
 5660W        W 9179   4.740   5.658   3.350
 5661W        W 9180   3.217   0.716   2.384
 5662W        W 9181   6.920   8.950  10.926
 5663W        W 9182   5.114   2.749   1.301
 5664W        W 9183   1.895   6.617   3.764
 5665W        W 9184   3.273   2.790   9.406
 5666W        W 9185   5.033   9.438   0.460
 5667W        W 9186   1.252   1.674   9.938
 5668W        W 9187   4.636   5.030   9.093
 5669W        W 9188   1.716   9.984  11.503
 5670W        W 9189   0.415   4.259   0.383
 5671W        W 9190   7.517   9.340   1.262
 5672W        W 9191   9.898   2.667   9.471
 5673W        W 9192   0.824   5.991   1.315
 5674W        W 9193   1.373   9.395   0.475
 5675W        W 9194   0.266   6.528   0.742
 5676W        W 9195   9.411   8.466   2.874
 5677W        W 9196   3.806   2.727   2.762
 5678W        W 9197   1.368   6.432   0.933
 5679W        W 9198   9.436   8.473   9.020
 5680W        W 9199   3.645   2.619   1.918
 5681W        W 9200   5.559   4.244   0.296
 5682W        W 9201   8.069   8.571   9.050
 5683W        W 9202   9.505   6.657   9.853
 5684W        W 9203   1.900   1.883  10.492
 5685W        W 9204   2.792   4.747   0.870
 5686W        W 9205   0.883   7.591   1.789
 5687W        W 9206   9.479   4.728   2.195
 5688W        W 9207   3.710   4.757   3.284
 5689W        W 9208   8.060   3.723   0.331
 5690W        W 9209   5.219   7.922   0.251
 5691W        W 9210   5.120   7.574   4.274
 5692W        W 9211   5.073   3.808  10.544
 5693W        W 9212   6.158   7.434   2.215
 5694W        W 9213   7.965   0.452   1.345
 5695W        W 9214   0.735   6.173   2.175
 5696W        W 9215   6.590   4.210   0.929
 5697W        W 9216   3.193   4.710   1.237
 5698W        W 9217   9.494   9.968   1.766
 5699W        W 9218   2.665   6.166  10.025
 5700W        W 9219   2.665   4.560   3.355
 5701W        W 9220   9.851   8.834  10.917
 5702W        W 9221   0.876   5.714   9.943
 5703W        W 9222   5.010   5.644  10.838
 5704W        W 9223   5.237   5.630  10.020
 5705W        W 9224   6.521   5.607   0.273
 5706W        W 9225   1.261   4.736  10.499
 5707W        W 9226   7.042   2.842   1.853
 5708W        W 9227   1.393   9.786   1.231
 5709W        W 9228   7.382   0.449   2.397
 5710W        W 9229   1.718   8.424  11.436
 5711W        W 9230   1.276   9.499  11.412
 5712W        W 9231   8.054   0.466   8.993
 5713W        W 9232   1.848   9.825   0.864
 5714W        W 9233   6.183   5.482   2.346
 5715W        W 9234   1.810   0.949   8.441
 5716W        W 9235   1.843   1.826  11.398
 5717W        W 9236   4.192   9.484   3.291
 5718W        W 9237   2.376   1.367  10.551
 5719W        W 9238   3.104   5.180   1.207
 5720W        W 9239   6.097   8.968   2.782
 5721W        W 9240   6.648   6.028   1.379
 5722W        W 9241   1.869   3.250  10.498
 5723W        W 9242   2.239   8.840   9.505
 5724W        W 9243   5.138   9.392   8.994
 5725W        W 9244   6.182   9.854   9.932
 5726W        W 9245   6.967   5.995   2.735
 5727W        W 9246   2.846   4.700   1.729
 5728W        W 9247   6.039   5.206  10.925
 5729W        W 9248   3.274   2.628   1.766
 5730W        W 9249   0.314   6.914   9.048
 5731W        W 9250   6.965   4.242   0.299
 5732W        W 9251   5.117   6.090  11.319
 5733W        W 9252   6.932   8.527   9.490
 5734W        W 9253   9.779   9.854  10.070
 5735W        W 9254   7.573   6.551  11.365
 5736W        W 9255   1.804   0.410   3.129
 5737W        W 9256   8.837   7.591  10.533
 5738W        W 9257   3.296   6.598   0.468
 5739W        W 9258   1.394   6.052   9.397
 5740W        W 9259   5.632   9.303  11.428
 5741W        W 9260   1.743   1.231   9.551
 5742W        W 9261   0.458   6.647   8.459
 5743W        W 9262   9.506   4.156   0.952
 5744W        W 9263   3.303   7.024   1.777
 5745W        W 9264   5.204   3.225   2.757
 5746W        W 9265   5.198   0.409  10.479
 5747W        W 9266   8.525   2.684   3.188
 5748W        W 9267   3.184   6.477  11.362
 5749W        W 9268   3.121   6.054   3.160
 5750W        W 9269   5.215   3.181   8.960
 5751W        W 9270   3.657   4.063   9.418
 5752W        W 9271   8.092   0.924  10.946
 5753W        W 9272   6.994   9.414   8.980
 5754W        W 9273   6.605   0.934   9.550
 5755W        W 9274   8.997   0.923   9.970
 5756W        W 9275   5.991   7.026   9.561
 5757W        W 9276   6.072   1.293   1.416
 5758W        W 9277   8.356   4.097   0.420
 5759W        W 9278   3.669   7.880  10.878
 5760W        W 9279   3.274   6.965   3.190
 5761W        W 9280   1.236   4.133   3.308
 5762W        W 9281   1.754   4.155   2.699
 5763W        W 9282   2.753   5.498  10.524
 5764W        W 9283   1.304   8.057   1.842
 5765W        W 9284   4.642   2.201  11.971
 5766W        W 9285   7.520   1.209   0.808
 5767W        W 9286   3.628   8.381   2.197
 5768W        W 9287   5.711   0.465   2.242
 5769W        W 9288   2.633   8.413   2.244
 5770W        W 9289   7.530   7.053   8.404
 5771W        W 9290   7.053   2.254   3.266
 5772W        W 9291   1.230   8.383  11.408
 5773W        W 9292   2.700   7.570   1.414
 5774W        W 9293   2.772   8.859  10.945
 5775W        W 9294   9.394   5.976   2.181
 5776W        W 9295   6.007   1.358   2.878
 5777W        W 9296   5.967   8.466   1.409
 5778W        W 9297   0.406   6.633   1.384
 5779W        W 9298   3.756   0.239   9.534
 5780W        W 9299   4.524   5.981   2.217
 5781W        W 9300   9.789   6.651   0.433
 5782W        W 9301   4.545   8.406  10.049
 5783W        W 9302   8.984   9.480  11.340
 5784W        W 9303   2.333   3.677  10.051
 5785W        W 9304   3.207   5.558   3.181
 5786W        W 9305   4.611   8.015   9.590
 5787W        W 9306   7.002   5.179   1.396
 5788W        W 9307   4.275   6.107  10.028
 5789W        W 9308   8.481   5.142  11.792
 5790W        W 9309   5.609   8.981  11.309
 5791W        W 9310   2.793   0.833   9.919
 5792W        W 9311   9.317   6.526   9.109
 5793W        W 9312   6.628   6.145   0.241
 5794W        W 9313   6.460   1.816   3.266
 5795W        W 9314   4.168   4.677   0.256
 5796W        W 9315   7.053   8.891   3.314
 5797W        W 9316   6.503   6.166   9.440
 5798W        W 9317   5.107   2.706   3.707
 5799W        W 9318   6.472   7.928   1.295
 5800W        W 9319   0.294   4.580  10.801
 5801W        W 9320   0.471   4.146   9.918
 5802W        W 9321   4.609   1.250  11.398
 5803W        W 9322   3.648   8.494  11.519
 5804W        W 9323   5.595   2.664  11.772
 5805W        W 9324   5.650   6.652   9.024
 5806W        W 9325   5.075   4.121   1.287
 5807W        W 9326   4.751   4.174   2.871
 5808W        W 9327   0.929   0.388   0.456
 5809W        W 9328   4.579   6.111   2.826
 5810W        W 9329   4.557   3.617   1.330
 5811W        W 9330   0.862   9.347  10.472
 5812W        W 9331   9.375   9.928   2.835
 5813W        W 9332   1.410   0.825   9.988
 5814W        W 9333   3.187   9.875  10.379
 5815W        W 9334   9.500   8.518  11.518
 5816W        W 9335   7.094   3.306  10.916
 5817W        W 9336   9.841   5.975   3.242
 5818W        W 9337   8.519   1.707   2.383
 5819W        W 9338   4.060   1.677  11.918
 5820W        W 9339   3.802   7.473   8.897
 5821W        W 9340   1.298   1.709  10.376
 5822W        W 9341   9.428   4.131   2.179
 5823W        W 9342   7.394   5.186   1.317
 5824W        W 9343   5.540   2.791   3.708
 5825W        W 9344   6.972   6.647  11.948
 5826W        W 9345   2.676   9.992   9.453
 5827W        W 9346   4.561   2.795   2.813
 5828W        W 9347   6.972   3.212  11.885
 5829W        W 9348   1.832   3.696   1.392
 5830W        W 9349   0.736   6.070   2.848
 5831W        W 9350   4.226   8.899   1.891
 5832W        W 9351   6.511   9.818   9.028
 5833W        W 9352   9.873   3.768   9.533
 5834W        W 9353   2.726   8.346   1.711
 5835W        W 9354   4.178   8.953  10.343
 5836W        W 9355   4.142   6.978   2.781
 5837W        W 9356   3.307   4.255  10.953
 5838W        W 9357   0.291   3.220   1.721
 5839W        W 9358   1.822   8.019   3.748
 5840W        W 9359   0.863   2.746   9.854
 5841W        W 9360   7.092   3.228  11.351
 5842W        W 9361   0.726   5.987   0.415
 5843W        W 9362   3.307   3.619   0.285
 5844W        W 9363   0.837   1.294  11.412
 5845W        W 9364   0.877   6.989  10.830
 5846W        W 9365   6.531   6.962  11.403
 5847W        W 9366   6.469   3.302  11.493
 5848W        W 9367   3.291   2.718   2.337
 5849W        W 9368   9.018   4.547   3.212
 5850W        W 9369   8.543   7.425  10.974
 5851W        W 9370   8.477   8.966  10.936
 5852W        W 9371   0.269   8.850  10.907
 5853W        W 9372   4.566   3.635  11.476
 5854W        W 9373   3.657   7.077  10.066
 5855W        W 9374   3.739   6.012  11.309
 5856W        W 9375   5.640   6.099  11.340
 5857W        W 9376   1.373   8.876  11.959
 5858W        W 9377   1.426   1.850  11.512
 5859W        W 9378   2.819   6.907  10.023
 5860W        W 9379   4.667   4.228   3.796
 5861W        W 9380   6.007   9.371   2.227
 5862W        W 9381   8.838   4.153  11.518
 5863W        W 9382   3.737   2.823  10.031
 5864W        W 9383   8.036   3.647   3.318
 5865W        W 9384   0.934   7.588   9.522
 5866W        W 9385   4.746   1.887  10.422
 5867W        W 9386   8.525   6.625   2.763
 5868W        W 9387   3.253   0.934   1.402
 5869W        W 9388   4.723   2.813  10.031
 5870W        W 9389   5.055   0.862   9.932
 5871W        W 9390   7.531   7.061  11.021
 5872W        W 9391   4.584   8.337   1.880
 5873W        W 9392   9.864   6.509  11.812
 5874W        W 9393   1.384   1.707   8.979
 5875W        W 9394   4.213   6.507   8.455
 5876W        W 9395   9.003   4.101   3.795
 5877W        W 9396   2.694   2.846   1.826
 5878W        W 9397   0.839   2.369   2.786
 5879W        W 9398   6.060   3.264   2.865
 5880W        W 9399   6.920   6.924   9.102
 5881W        W 9400   9.776   5.973   9.535
 5882W        W 9401   7.526   7.914  10.008
 5883W        W 9402   9.830   1.738   3.648
 5884W        W 9403   0.247   7.573  10.073
 5885W        W 9404   4.552   6.021  11.442
 5886W        W 9405   4.271   3.577   0.954
 5887W        W 9406   3.227   0.290  10.500
 5888W        W 9407   6.910   1.396   9.498
 5889W        W 9408   5.167   2.301   3.347
 5890W        W 9409   5.625   4.651   0.377
 5891W        W 9410   1.695   9.825  10.334
 5892W        W 9411   5.038   4.589   2.695
 5893W        W 9412   7.451   2.663   9.089
 5894W        W 9413   2.764   0.369   3.122
 5895W        W 9414   0.400   8.831   2.237
 5896W        W 9415   7.936   6.925   1.285
 5897W        W 9416   0.939   1.379   2.183
 5898W        W 9417   0.815   8.478  11.779
 5899W        W 9418   7.470   1.220  11.481
 5900W        W 9419   8.929   6.626  10.322
 5901W        W 9420   2.737   9.854   2.353
 5902W        W 9421   2.644   3.243   1.910
 5903W        W 9422   7.124   5.552  10.033
 5904W        W 9423   3.783   4.708   0.922
 5905W        W 9424   2.234   0.740   9.852
 5906W        W 9425   0.420   0.824   9.494
 5907W        W 9426   0.829   1.343   1.411
 5908W        W 9427   4.156   9.318   9.574
 5909W        W 9428   7.498   8.009   0.280
 5910W        W 9429   2.379   5.100  10.920
 5911W        W 9430   0.326   0.739   8.490
 5912W        W 9431   9.766   2.725   9.886
 5913W        W 9432   6.472   5.670   1.800
 5914W        W 9433   5.079   1.237   9.420
 5915W        W 9434   1.280   0.426   0.379
 5916W        W 9435   9.944   1.782   9.404
 5917W        W 9436   0.344   6.525   8.982
 5918W        W 9437   5.115   4.647  11.505
 5919W        W 9438   6.987   4.761   1.383
 5920W        W 9439   6.165   8.361   8.523
 5921W        W 9440   8.025   2.197   9.561
 5922W        W 9441   1.693   6.988  10.361
 5923W        W 9442   6.474   9.401   1.901
 5924W        W 9443   3.113   8.983   9.018
 5925W        W 9444   5.525   7.972   1.250
 5926W        W 9445   5.704   4.054   0.925
 5927W        W 9446   2.718   9.448   2.865
 5928W        W 9447   1.299   6.165   1.381
 5929W        W 9448   1.719   3.297   0.949
 5930W        W 9449   8.445   6.075   2.791
 5931W        W 9450   3.309   5.075   9.975
 5932W        W 9451   8.837   6.080   8.961
 5933W        W 9452   7.933   4.613   9.485
 5934W        W 9453   8.848   2.837   0.357
 5935W        W 9454   6.484   2.182   3.632
 5936W        W 9455   0.352   5.100  10.325
 5937W        W 9456   3.749   8.540   8.907
 5938W        W 9457   5.692   5.664   2.354
 5939W        W 9458   1.842   4.182   3.263
 5940W        W 9459   9.351   7.055   0.796
 5941W        W 9460   1.379   9.518   0.818
 5942W        W 9461   7.532   5.670   0.741
 5943W        W 9462   0.781   3.271   1.271
 5944W        W 9463   9.436   9.489   3.180
 5945W        W 9464   1.391   7.094   2.658
 5946W        W 9465   3.133   4.199   3.253
 5947W        W 9466   3.782   3.142   9.035
 5948W        W 9467   5.021   1.338   1.214
 5949W        W 9468   4.646   0.347   0.416
 5950W        W 9469   2.171   5.484   2.770
 5951W        W 9470   8.877   8.436   3.333
 5952W        W 9471   6.042   8.889  11.940
 5953W        W 9472   7.055   8.997   1.910
 5954W        W 9473   1.239   4.708   1.883
 5955W        W 9474   3.266   6.974  11.925
 5956W        W 9475   6.137   2.341   9.997
 5957W        W 9476   3.166   7.487   1.358
 5958W        W 9477   1.853   6.533   0.314
 5959W        W 9478   4.088   1.835   3.290
 5960W        W 9479   1.242   0.905   1.268
 5961W        W 9480   7.903   0.750  11.991
 5962W        W 9481   4.084   5.029  11.847
 5963W        W 9482   2.777   5.594   9.398
 5964W        W 9483   4.755   4.526   0.777
 5965W        W 9484   5.527   6.092   1.884
 5966W        W 9485   7.483   0.835   2.699
 5967W        W 9486   1.739   7.383   8.922
 5968W        W 9487   1.783   9.042  11.304
 5969W        W 9488   8.415   8.048   0.266
 5970W        W 9489   3.580   6.168   3.243
 5971W        W 9490   6.521   2.722   0.820
 5972W        W 9491   5.692   2.701   2.377
 5973W        W 9492   4.260   2.821   9.057
 5974W        W 9493   6.503   8.382   3.159
 5975W        W 9494   4.147   6.519  11.833
 5976W        W 9495   3.096   5.643   8.963
 5977W        W 9496   2.713   1.748   9.514
 5978W        W 9497   0.416   2.202   2.745
 5979W        W 9498   5.118   1.904   9.103
 5980W        W 9499   1.712   7.453  10.340
 5981W        W 9500   9.976   1.681   2.280
 5982W        W 9501   3.244   9.779   8.989
 5983W        W 9502   5.956   4.181   9.397
 5984W        W 9503   2.153   6.619   3.307
 5985W        W 9504   5.029   1.289   1.874
 5986W        W 9505   4.719   1.868  11.966
 5987W        W 9506   8.556   0.730   9.413
 5988W        W 9507   0.737   8.991  10.904
 5989W        W 9508   2.672   2.213  10.907
 5990W        W 9509   9.313   4.635  10.969
 5991W        W 9510   5.024   7.992  10.487
 5992W        W 9511   9.316   5.528  10.525
 5993W        W 9512   0.767   3.204  10.320
 5994W        W 9513   5.700   1.814   9.376
 5995W        W 9514   3.237   8.560  10.836
 5996W        W 9515   1.214   5.136  10.866
 5997W        W 9516   9.942   6.181  11.829
 5998W        W 9517   5.125   7.079   3.747
 5999W        W 9518   8.017   0.461   3.641
 6000W        W 9519   3.165   4.078  10.425
 6001W        W 9520   4.551   3.199   8.599
 6002W        W 9521   6.459   9.300  11.914
 6003W        W 9522   2.761   2.236   9.891
 6004W        W 9523   3.210   7.498   2.292
 6005W        W 9524   5.075   8.359  11.926
 6006W        W 9525   9.863   8.880  11.318
 6007W        W 9526   7.548   4.071  11.314
 6008W        W 9527   4.615   4.263  10.015
 6009W        W 9528   7.011   8.464   9.874
 6010W        W 9529   9.409   3.756   1.302
 6011W        W 9530   3.596   9.957   2.753
 6012W        W 9531   8.853   3.581  10.489
 6013W        W 9532   9.848   5.135   3.338
 6014W        W 9533   4.735   8.878   3.205
 6015W        W 9534   8.904   0.421  11.438
 6016W        W 9535   2.324   2.774  10.042
 6017W        W 9536   8.886   3.110  11.039
 6018W        W 9537   9.508   2.270   2.728
 6019W        W 9538   1.318   0.918   3.634
 6020W        W 9539   0.394   8.876   1.698
 6021W        W 9540   9.360   2.168   2.359
 6022W        W 9541   3.715   0.740   9.055
 6023W        W 9542   0.431   2.780   8.603
 6024W        W 9543   8.853   0.753   1.350
 6025W        W 9544   6.142   7.106   1.863
 6026W        W 9545   6.577   2.752   1.737
 6027W        W 9546   8.340   0.413   9.440
 6028W        W 9547   7.073   9.876   0.410
 6029W        W 9548   5.135   2.314  11.406
 6030W        W 9549   4.279   5.174  10.512
 6031W        W 9550   5.185   8.007   3.609
 6032W        W 9551   7.953   6.087   2.371
 6033W        W 9552   9.873   6.569   1.765
 6034W        W 9553   8.005   8.515  10.806
 6035W        W 9554   5.536   6.154   0.285
 6036W        W 9555   5.093   1.674  10.857
 6037W        W 9556   6.941   2.679   2.222
 6038W        W 9557   9.779   4.266  11.492
 6039W        W 9558   7.906   5.954   3.278
 6040W        W 9559   6.510   6.614   2.300
 6041W        W 9560   2.692   8.033   9.950
 6042W        W 9561   4.186   5.675   1.415
 6043W        W 9562   4.532   6.512   4.080
 6044W        W 9563   3.626   1.840  10.537
 6045W        W 9564   3.219   7.017   2.185
 6046W        W 9565   2.791   7.979   8.991
 6047W        W 9566   4.628   8.513   0.873
 6048W        W 9567   3.099   1.770   0.831
 6049W        W 9568   4.218   3.204   0.243
 6050W        W 9569   3.581   2.209   1.703
 6051W        W 9570   0.253   8.554   0.859
 6052W        W 9571   1.269   7.880   0.249
 6053W        W 9572   4.634   4.632  11.345
 6054W        W 9573   2.280   2.767   0.840
 6055W        W 9574   9.780   5.992   2.829
 6056W        W 9575   0.933   4.561  10.506
 6057W        W 9576   5.111   4.079   9.360
 6058W        W 9577   3.189   8.830   1.860
 6059W        W 9578   0.350   7.897   1.226
 6060W        W 9579   2.200   6.073   1.380
 6061W        W 9580   0.841   1.697   9.493
 6062W        W 9581   1.385   2.176   8.593
 6063W        W 9582   4.182   8.496   9.573
 6064W        W 9583   5.668   3.231   3.788
 6065W        W 9584   0.728   9.030   9.538
 6066W        W 9585   0.780   8.391   9.988
 6067W        W 9586   8.419   8.933  11.761
 6068W        W 9587   0.263   3.697   3.278
 6069W        W 9588   5.013   4.080   4.157
 6070W        W 9589   5.706   2.696   8.504
 6071W        W 9590   0.445   9.931   0.407
 6072W        W 9591   2.288   1.784   1.904
 6073W        W 9592   6.456   5.659   8.883
 6074W        W 9593   0.447   4.179   2.260
 6075W        W 9594   0.310   7.895   9.848
 6076W        W 9595   6.908   3.114   1.751
 6077W        W 9596   3.205   7.874   9.455
 6078W        W 9597   7.934   0.837   0.322
 6079W        W 9598   7.048   0.341  10.012
 6080W        W 9599   5.648   3.709   2.728
 6081W        W 9600   8.024   2.833   0.948
 6082W        W 9601   2.253   5.956   9.569
 6083W        W 9602   6.481   3.268   9.914
 6084W        W 9603   5.683   3.266   1.266
 6085W        W 9604   0.715   4.083   2.248
 6086W        W 9605   6.543   7.430  10.333
 6087W        W 9606   0.303   5.033  10.007
 6088W        W 9607   9.967   2.637   0.312
 6089W        W 9608   3.791   5.121   9.570
 6090W        W 9609   8.002   2.683   1.890
 6091W        W 9610   3.305   7.916   3.280
 6092W        W 9611   9.044   1.239   1.818
 6093W        W 9612   7.930   7.436   2.183
 6094W        W 9613   9.380   1.309   9.979
 6095W        W 9614   8.018   1.877  10.980
 6096W        W 9615   5.147   2.662   9.490
 6097W        W 9616   3.306   0.402   1.871
 6098W        W 9617   1.343   0.834   3.212
 6099W        W 9618   1.242   9.378   3.253
 6100W        W 9619   5.005   3.602   2.788
 6101W        W 9620   5.654   9.873  11.981
 6102W        W 9621   1.339   1.699   1.783
 6103W        W 9622   6.474   5.496   9.936
 6104W        W 9623   3.763   1.670   3.171
 6105W        W 9624   9.964   5.204   8.897
 6106W        W 9625   2.287   2.253   2.755
 6107W        W 9626   6.484   7.554   2.237
 6108W        W 9627   2.156   7.954  11.343
 6109W        W 9628   6.159   5.686  11.284
 6110W        W 9629   7.952   8.819  11.979
 6111W        W 9630   2.820   9.876   1.817
 6112W        W 9631   9.947   7.465   9.381
 6113W        W 9632   1.798   8.557   8.959
 6114W        W 9633   3.755   1.388   1.806
 6115W        W 9634   0.399   3.742   0.335
 6116W        W 9635   2.773   4.129   3.170
 6117W        W 9636   5.045   4.631   8.426
 6118W        W 9637   1.726   6.631   1.284
 6119W        W 9638   1.769   1.345   0.344
 6120W        W 9639   7.986   2.310   1.403
 6121W        W 9640   6.020   8.918   9.088
 6122W        W 9641   6.622   3.679   1.783
 6123W        W 9642   3.700   5.494   0.404
 6124W        W 9643   5.092   9.426   9.981
 6125W        W 9644   1.419   6.172  10.515
 6126W        W 9645   4.558   7.969   3.270
 6127W        W 9646   0.409   5.008  11.516
 6128W        W 9647   7.876   9.986   3.778
 6129W        W 9648   7.039   3.580  11.515
 6130W        W 9649   6.159   4.124  11.761
 6131W        W 9650   8.000   4.272   1.209
 6132W        W 9651   6.012   1.191  11.289
 6133W        W 9652   4.651   6.547   2.802
 6134W        W 9653   5.616   9.043   1.357
 6135W        W 9654   0.292   6.595   0.379
 6136W        W 9655   1.195   6.580   2.235
 6137W        W 9656   9.432   1.732   2.358
 6138W        W 9657   7.407   6.167   0.721
 6139W        W 9658   3.697   1.305  10.430
 6140W        W 9659   0.760   5.646   9.468
 6141W        W 9660   9.993   1.751   3.162
 6142W        W 9661   0.397   5.134   9.542
 6143W        W 9662   1.798   3.149  11.901
 6144W        W 9663   5.237   5.671   9.417
 6145W        W 9664   6.068   3.676   3.749
 6146W        W 9665   8.839   5.517   3.191
 6147W        W 9666   1.717   4.542   0.255
 6148W        W 9667   2.354   8.861  11.994
 6149W        W 9668   6.504   0.253   3.171
 6150W        W 9669   7.430   3.619  10.362
 6151W        W 9670   9.330   2.679   3.288
 6152W        W 9671   8.927   3.597  10.982
 6153W        W 9672   1.760   7.960  11.501
 6154W        W 9673   7.442   0.240   2.854
 6155W        W 9674   6.641   8.428   9.089
 6156W        W 9675   0.925   8.980   1.216
 6157W        W 9676   9.893   4.087   8.923
 6158W        W 9677   8.094   6.528  11.404
 6159W        W 9678   0.364   5.029  11.793
 6160W        W 9679   1.764   4.631   2.231
 6161W        W 9680   9.845   2.774   8.961
 6162W        W 9681   0.788   0.902  10.480
 6163W        W 9682   4.655   9.962   1.826
 6164W        W 9683   6.506   1.244  10.441
 6165W        W 9684   9.330   2.630  11.987
 6166W        W 9685   1.195   9.937  11.519
 6167W        W 9686   6.511   0.412   1.844
 6168W        W 9687   6.532   5.101  10.541
 6169W        W 9688   9.434   3.729   2.680
 6170W        W 9689   6.433   2.832   2.685
 6171W        W 9690   6.946   1.193   0.878
 6172W        W 9691   6.659   5.988  10.520
 6173W        W 9692   3.238   4.732   2.656
 6174W        W 9693   2.806   9.997   0.340
 6175W        W 9694   1.716   7.896   0.891
 6176W        W 9695   1.212   9.893  11.002
 6177W        W 9696   9.352   7.410   0.811
 6178W        W 9697   3.191   0.848   2.657
 6179W        W 9698   1.748   0.857   1.804
 6180W        W 9699   6.980   3.291  10.355
 6181W        W 9700   8.877   2.682  11.453
 6182W        W 9701   4.638   0.316   1.210
 6183W        W 9702   7.106   4.267  10.402
 6184W        W 9703   5.011   8.375   2.342
 6185W        W 9704   3.745   7.601   1.816
 6186W        W 9705   0.297   7.012  10.837
 6187W        W 9706   5.093   7.406   1.819
 6188W        W 9707   1.680   6.190   9.524
 6189W        W 9708   3.277   6.551   7.994
 6190W        W 9709   0.291   0.858  10.930
 6191W        W 9710   1.744   1.782  10.894
 6192W        W 9711   9.440   9.300   2.375
 6193W        W 9712   9.523   9.456   9.453
 6194W        W 9713   9.307   3.281  11.406
 6195W        W 9714   7.529   5.004   1.893
 6196W        W 9715   3.639   3.582  10.337
 6197W        W 9716   0.871   2.309   0.904
 6198W        W 9717   8.954   5.030   2.165
 6199W        W 9718   7.484   7.449  10.950
 6200W        W 9719   3.098   5.549   4.106
 6201W        W 9720   8.529   5.631   9.079
 6202W        W 9721   4.528   6.467  11.918
 6203W        W 9722   2.190   5.002   1.418
 6204W        W 9723   4.649   9.789   9.075
 6205W        W 9724   6.940   3.609   2.664
 6206W        W 9725   4.705   0.326   9.364
 6207W        W 9726   1.387   1.335  11.783
 6208W        W 9727   6.973   0.778   9.090
 6209W        W 9728   1.737   1.361   9.859
 6210W        W 9729   8.565   9.437  10.974
 6211W        W 9730   2.212   1.707  10.514
 6212W        W 9731   8.464   7.106   9.360
 6213W        W 9732   8.408   3.596  10.857
 6214W        W 9733   2.249   9.480   8.949
 6215W        W 9734   2.738   2.360   1.230
 6216W        W 9735   1.751   3.592   3.175
 6217W        W 9736   4.620   7.944   2.878
 6218W        W 9737   5.223   7.901   1.375
 6219W        W 9738   3.154   3.106  11.833
 6220W        W 9739   5.710   1.252   2.362
 6221W        W 9740   3.676   7.904   2.640
 6222W        W 9741   1.857   6.163   2.329
 6223W        W 9742   8.054   2.264  10.963
 6224W        W 9743   4.637   9.771   9.364
 6225W        W 9744   3.597   3.229  11.334
 6226W        W 9745   8.453   8.083   3.276
 6227W        W 9746   1.716   7.583   3.123
 6228W        W 9747   3.316   7.033   8.990
 6229W        W 9748   0.811   0.343   1.337
 6230W        W 9749   5.640   5.029   9.429
 6231W        W 9750   8.005   8.907   8.976
 6232W        W 9751   5.014   4.182   8.453
 6233W        W 9752   6.089   7.122   8.967
 6234W        W 9753   3.307   2.329   1.399
 6235W        W 9754   7.081   1.357   0.441
 6236W        W 9755   2.802   6.488   1.751
 6237W        W 9756   8.062   0.732   2.670
 6238W        W 9757   4.674   5.477   3.809
 6239W        W 9758   2.359   3.136   1.371
 6240W        W 9759   5.527   4.194   2.167
 6241W        W 9760   8.421   7.423  10.419
 6242W        W 9761   7.574   7.409   3.244
 6243W        W 9762   2.802   6.089   2.786
 6244W        W 9763   4.574   0.785  10.080
 6245W        W 9764   5.208   9.795  11.806
 6246W        W 9765   0.397   7.087   9.428
 6247W        W 9766   6.584   3.654   1.244
 6248W        W 9767   6.029   5.007   3.158
 6249W        W 9768   6.551   4.172  10.519
 6250W        W 9769   5.681   9.005   2.382
 6251W        W 9770   0.805   1.901   0.862
 6252W        W 9771   2.697   0.275  10.977
 6253W        W 9772   4.748   3.184   0.949
 6254W        W 9773   0.898   4.733  10.049
 6255W        W 9774   3.124   8.558   1.712
 6256W        W 9775   0.737   3.183   9.041
 6257W        W 9776   5.981   4.663   2.327
 6258W        W 9777   5.581   0.905   8.557
 6259W        W 9778   9.366   4.242  10.002
 6260W        W 9779   2.214   1.300   3.835
 6261W        W 9780   4.701   8.382   3.790
 6262W        W 9781   9.994   8.507  11.882
 6263W        W 9782   7.451   6.166  11.477
 6264W        W 9783   2.781   1.674   0.753
 6265W        W 9784   7.062   2.695   9.463
 6266W        W 9785   9.488   8.534   3.226
 6267W        W 9786   9.767   4.670   2.862
 6268W        W 9787   0.819   8.520   3.724
 6269W        W 9788   0.249   5.567   9.954
 6270W        W 9789   4.640   6.993   9.514
 6271W        W 9790   9.390   1.329   3.123
 6272W        W 9791   2.299   4.173  10.887
 6273W        W 9792   9.315   6.182   3.153
 6274W        W 9793   4.162   2.352   9.846
 6275W        W 9794   3.764   5.069  11.833
 6276W        W 9795   3.310   6.525   2.749
 6277W        W 9796   3.798   5.955   4.274
 6278W        W 9797   0.286   8.487   9.902
 6279W        W 9798   3.300   9.344  11.353
 6280W        W 9799   4.722   3.677   3.262
 6281W        W 9800   9.324   9.399   1.402
 6282W        W 9801   8.378   0.855  10.938
 6283W        W 9802   0.263   8.869  11.772
 6284W        W 9803   3.211   6.159  10.505
 6285W        W 9804   4.137   5.053   2.221
 6286W        W 9805   7.449   6.016  10.901
 6287W        W 9806   7.875   2.781   0.336
 6288W        W 9807   7.485   9.326   1.747
 6289W        W 9808   1.898   7.133  10.854
 6290W        W 9809   4.160   1.702  10.531
 6291W        W 9810   6.437   3.299   0.264
 6292W        W 9811   8.089   9.937   0.437
 6293W        W 9812   1.692   0.868   0.369
 6294W        W 9813   9.364   0.777   1.875
 6295W        W 9814   5.630   9.515   9.587
 6296W        W 9815   4.746   7.547  10.347
 6297W        W 9816   0.404   7.875   1.779
 6298W        W 9817   5.953   6.180   2.234
 6299W        W 9818   6.650   0.718   2.728
 6300W        W 9819   2.340   9.853  10.543
 6301W        W 9820   3.216   5.549  11.466
 6302W        W 9821   7.414   2.342   9.363
 6303W        W 9822   9.844   4.154   2.280
 6304W        W 9823   3.196   8.379   8.500
 6305W        W 9824   7.386   3.797   8.972
 6306W        W 9825   8.339   5.004   1.376
 6307W        W 9826   8.398   9.894   9.025
 6308W        W 9827   1.273   3.108   1.425
 6309W        W 9828   5.547   7.589   9.080
 6310W        W 9829   7.894   3.168   0.331
 6311W        W 9830   3.322   4.120  11.939
 6312W        W 9831   6.569   5.021   2.195
 6313W        W 9832   8.342   9.413   1.314
 6314W        W 9833   8.458   8.852   9.474
 6315W        W 9834   9.965   1.295   2.373
 6316W        W 9835   7.084   3.251   9.862
 6317W        W 9836   7.911   1.261   3.175
 6318W        W 9837   1.793   9.305  11.882
 6319W        W 9838   2.338   8.382  10.062
 6320W        W 9839   5.217   4.266   9.101
 6321W        W 9840   4.130   1.797   0.761
 6322W        W 9841   2.666   5.042  11.846
 6323W        W 9842   1.778   2.154   0.280
 6324W        W 9843   0.856   4.549   1.822
 6325W        W 9844   7.397   9.505   9.049
 6326W        W 9845   9.309   1.877  10.521
 6327W        W 9846   8.363   0.422   1.379
 6328W        W 9847   1.249   2.736  11.890
 6329W        W 9848   8.988   1.724   9.420
 6330W        W 9849   1.734   2.683   3.649
 6331W        W 9850   2.744   3.312   9.993
 6332W        W 9851   3.157   5.993   1.859
 6333W        W 9852   8.838   7.991  10.393
 6334W        W 9853   6.171   2.195   8.599
 6335W        W 9854   6.969   1.810  11.347
 6336W        W 9855   6.958   9.444   2.832
 6337W        W 9856   5.485   8.346  10.868
 6338W        W 9857   2.738   1.264   0.424
 6339W        W 9858   5.016   9.786  10.909
 6340W        W 9859   0.446   8.500   9.010
 6341W        W 9860   4.204   9.898   2.830
 6342W        W 9861   3.637   9.877   2.345
 6343W        W 9862   9.910   3.800  11.329
 6344W        W 9863   8.938   7.125   2.238
 6345W        W 9864   4.079   1.342   9.930
 6346W        W 9865   7.559   6.663   3.199
 6347W        W 9866   1.380   1.833   0.463
 6348W        W 9867   6.631   9.316   9.938
 6349W        W 9868   5.018   2.213  10.014
 6350W        W 9869   5.125   6.144   9.072
 6351W        W 9870   7.504   0.468   0.956
 6352W        W 9871   8.894   0.949   3.181
 6353W        W 9872   8.041   6.585   1.682
 6354W        W 9873   1.277   9.439   9.388
 6355W        W 9874   1.684   5.657  10.447
 6356W        W 9875   6.916   6.050   3.292
 6357W        W 9876   3.120   5.234   8.518
 6358W        W 9877   6.638   3.209  10.967
 6359W        W 9878   5.533   0.282  10.460
 6360W        W 9879   1.387   3.187   2.712
 6361W        W 9880   5.213   2.148   0.855
 6362W        W 9881   3.187   6.975   0.426
 6363W        W 9882   1.816   3.666   1.745
 6364W        W 9883   0.422   5.637   1.204
 6365W        W 9884   4.697   0.872  10.387
 6366W        W 9885   7.617   5.228   0.885
 6367W        W 9886   1.331   3.598   0.899
 6368W        W 9887   3.251   8.475   0.815
 6369W        W 9888   4.224   2.823   3.308
 6370W        W 9889   2.229   0.771  10.500
 6371W        W 9890   3.168   7.913  10.394
 6372W        W 9891   9.879   8.544   0.252
 6373W        W 9892   2.722   7.113  11.761
 6374W        W 9893   6.064   0.420  10.044
 6375W        W 9894   8.855   0.735  11.019
 6376W        W 9895   8.037   2.277   2.170
 6377W        W 9896   2.705   0.253  11.837
 6378W        W 9897   9.859   2.813   1.425
 6379W        W 9898   2.714   7.112   0.846
 6380W        W 9899   2.251   1.696   3.281
 6381W        W 9900   8.975   3.277   9.394
 6382W        W 9901   0.833   6.131   3.334
 6383W        W 9902   6.061   9.301   0.730
 6384W        W 9903   6.506   9.326  10.805
 6385W        W 9904   5.107   4.138   3.820
 6386W        W 9905   9.865   2.243   8.930
 6387W        W 9906   4.187   7.983   3.123
 6388W        W 9907   0.331   6.639   2.830
 6389W        W 9908   2.301   5.154   0.258
 6390W        W 9909   5.028   6.526  11.478
 6391W        W 9910   9.995   1.229   1.319
 6392W        W 9911   7.861   3.227   0.787
 6393W        W 9912   5.553   1.243   9.978
 6394W        W 9913   8.430   6.169  10.841
 6395W        W 9914   8.421   5.129  11.502
 6396W        W 9915   7.067   6.496  10.394
 6397W        W 9916   8.051   7.523   0.957
 6398W        W 9917   4.739   4.647  11.966
 6399W        W 9918   4.134   1.340   9.554
 6400W        W 9919   7.593   2.280   1.822
 6401W        W 9920   2.268   7.889   0.895
 6402W        W 9921   5.100   2.321   9.411
 6403W        W 9922   7.898   0.851   9.414
 6404W        W 9923   7.055   0.830  11.405
 6405W        W 9924   1.789   0.376   2.865
 6406W        W 9925   0.886   1.707   3.247
 6407W        W 9926   6.513   8.387  11.807
 6408W        W 9927   9.291   8.954   9.432
 6409W        W 9928   3.180   0.412  11.952
 6410W        W 9929   1.425   6.567   1.807
 6411W        W 9930   7.596   1.761   9.380
 6412W        W 9931   1.314   5.102   2.663
 6413W        W 9932   8.536   6.648   0.355
 6414W        W 9933   2.264   2.791  10.517
 6415W        W 9934   9.414   2.631  10.438
 6416W        W 9935   0.754   6.971   1.311
 6417W        W 9936   5.663   0.946  11.459
 6418W        W 9937   4.078   0.872   0.829
 6419W        W 9938   7.535   8.986   2.396
 6420W        W 9939   3.151   9.396  11.955
 6421W        W 9940   1.694   6.167  11.813
 6422W        W 9941   3.146   3.572   9.378
 6423W        W 9942   7.051   6.474  11.035
 6424W        W 9943   2.326   2.642  11.875
 6425W        W 9944   9.918   4.757   9.464
 6426W        W 9945   2.183   9.027   9.943
 6427W        W 9946   4.706   4.258   0.418
 6428W        W 9947   1.295   3.806   2.699
 6429W        W 9948   9.357   2.154  11.346
 6430W        W 9949   6.149   3.135   0.475
 6431W        W 9950   5.508   5.540  10.853
 6432W        W 9951   0.806   3.222  10.987
 6433W        W 9952   2.781   9.305   0.763
 6434W        W 9953   8.561   4.660   8.888
 6435W        W 9954   7.530   6.075  10.469
 6436W        W 9955   0.726   8.530  10.538
 6437W        W 9956   3.117   2.653   2.838
 6438W        W 9957   9.496   0.338  11.385
 6439W        W 9958   2.645   9.365   0.309
 6440W        W 9959   8.353   1.787   9.080
 6441W        W 9960   5.996   3.220  10.821
 6442W        W 9961   9.454   5.693   0.440
 6443W        W 9962   9.910   0.302   3.136
 6444W        W 9963   7.566   1.719   2.312
 6445W        W 9964   8.045   3.320  11.797
 6446W        W 9965   1.727   8.462  10.020
 6447W        W 9966   8.061   1.717   9.935
 6448W        W 9967   1.252   5.618  10.425
 6449W        W 9968   8.524   5.661  10.324
 6450W        W 9969   8.468   5.656  11.996
 6451W        W 9970   9.401   2.329  10.393
 6452W        W 9971   4.687   0.264   3.295
 6453W        W 9972   8.363   5.650   2.270
 6454W        W 9973   8.960   0.468   2.329
 6455W        W 9974   2.654   1.858   1.251
 6456W        W 9975   1.886   3.227   0.357
 6457W        W 9976   3.299   7.577   9.968
 6458W        W 9977   2.216   3.187  11.814
 6459W        W 9978   4.225   4.254   8.052
 6460W        W 9979   5.687   2.174   3.324
 6461W        W 9980   9.466   3.149  10.041
 6462W        W 9981   8.858   1.271  11.324
 6463W        W 9982   0.249   5.970   1.279
 6464W        W 9983   1.205   7.514   0.399
 6465W        W 9984   0.754   6.063  10.447
 6466W        W 9985   8.086   4.227   1.807
 6467W        W 9986   2.360   1.356   2.671
 6468W        W 9987   0.811   1.732  11.295
 6469W        W 9988   9.958   7.998   2.671
 6470W        W 9989   1.415   5.097   0.771
 6471W        W 9990   3.733   9.502   2.856
 6472W        W 9991   7.457   2.188   2.668
 6473W        W 9992   1.698   4.235   1.866
 6474W        W 9993   3.648   7.538   1.298
 6475W        W 9994   8.904   5.113   0.440
 6476W        W 9995   7.138   0.853  10.830
 6477W        W 9996   4.125   9.773  10.012
 6478W        W 9997   3.658   1.781  10.904
 6479W        W 9998   0.891   6.641   9.439
 6480W        W 9999   6.488   9.452   9.105
 6481W        W10000   2.777   5.032  10.480
 6482W        W10001   5.591   5.632   1.786
 6483W        W10002   2.791   8.398   9.040
 6484W        W10003   4.053   7.025   0.766
 6485W        W10004   6.636   2.164   1.723
 6486W        W10005   8.346   8.039   8.996
 6487W        W10006   5.994   2.244  11.359
 6488W        W10007   8.348   4.124   2.715
 6489W        W10008   5.195   7.491   1.312
 6490W        W10009   3.297   5.690   2.258
 6491W        W10010   1.717   7.091   3.206
 6492W        W10011   9.419   9.518   1.847
 6493W        W10012   5.169   7.072   1.790
 6494W        W10013   0.438   5.493  11.937
 6495W        W10014   8.473   0.833   0.248
 6496W        W10015   0.308   5.229   1.733
 6497W        W10016   8.016   1.685   8.630
 6498W        W10017   7.062   8.095   0.852
 6499W        W10018   8.989   6.052   1.265
 6500W        W10019   0.424   8.450   3.346
 6501W        W10020   8.050   7.930   9.989
 6502W        W10021   2.338   7.482   9.435
 6503W        W10022   3.252   5.119   8.933
 6504W        W10023   6.176   7.535   9.581
 6505W        W10024   2.813   9.012  11.309
 6506W        W10025   3.123   5.127   0.923
 6507W        W10026   5.051   0.853   0.754
 6508W        W10027   2.265   4.074  11.923
 6509W        W10028   5.587   5.127   0.760
 6510W        W10029   0.765   9.365  10.801
 6511W        W10030   7.450   1.198   3.177
 6512W        W10031   2.305   4.215   9.054
 6513W        W10032   5.065   9.772  10.390
 6514W        W10033   9.841   7.550  10.384
 6515W        W10034   5.516   1.677  11.862
 6516W        W10035   5.008   2.379  10.384
 6517W        W10036   5.998   3.749   8.978
 6518W        W10037   6.584   0.754  11.399
 6519W        W10038   7.516   3.783   0.789
 6520W        W10039   6.133   0.349   2.818
 6521W        W10040   4.156   8.042   0.767
 6522W        W10041   9.905   3.190   1.428
 6523W        W10042   2.802   0.821   9.011
 6524W        W10043   2.632   6.058   2.355
 6525W        W10044   5.583   7.579   0.300
 6526W        W10045   2.279   5.499  11.965
 6527W        W10046   5.987   9.856  11.024
 6528W        W10047   7.432   8.084   3.122
 6529W        W10048   9.425   4.583   9.118
 6530W        W10049   5.565   7.061   2.271
 6531W        W10050   1.670   8.009   8.929
 6532W        W10051   7.408   5.711   8.897
 6533W        W10052   5.503   9.438  11.997
 6534W        W10053   9.395   7.914  10.430
 6535W        W10054   8.968   4.091  11.956
 6536W        W10055   1.671   8.470   8.624
 6537W        W10056   8.027   8.859   1.249
 6538W        W10057   1.381   3.742  11.858
 6539W        W10058   4.679   4.617   8.919
 6540W        W10059   2.853   8.363   9.472
 6541W        W10060   2.760   4.243   9.505
 6542W        W10061   1.422   2.856  10.986
 6543W        W10062   2.307   5.518  10.005
 6544W        W10063   1.737   4.684  11.778
 6545W        W10064   7.937   2.783  11.325
 6546W        W10065   3.758   0.942   0.416
 6547W        W10066   3.798   3.255   3.154
 6548W        W10067   9.469   7.552   9.483
 6549W        W10068   5.691   6.133   3.723
 6550W        W10069   8.357   6.606   9.495
 6551W        W10070   7.574   6.017   8.037
 6552W        W10071   2.371   0.461   0.844
 6553W        W10072   3.240   9.411  10.927
 6554W        W10073   9.852   0.846   2.359
 6555W        W10074   4.650   0.385  11.948
 6556W        W10075   3.799   9.300  11.848
 6557W        W10076   7.406   3.314   1.274
 6558W        W10077   8.449   4.241   3.771
 6559W        W10078   9.913   9.009   9.941
 6560W        W10079   4.699   6.097   8.122
 6561W        W10080   1.787   9.432   9.046
 6562W        W10081   2.657   2.772   9.421
 6563W        W10082   3.674   7.017   0.329
 6564W        W10083   5.203   5.495   2.723
 6565W        W10084   7.980   5.093  10.972
 6566W        W10085   7.430   7.073   2.195
 6567W        W10086   5.173   6.189   2.356
 6568W        W10087   7.007   3.602  10.931
 6569W        W10088   9.809   3.578   1.805
 6570W        W10089   4.618   0.350  10.323
 6571W        W10090   5.669   3.098   2.737
 6572W        W10091   2.654   2.626  10.425
 6573W        W10092   9.375   9.402  11.500
 6574W        W10093   5.228   5.506   3.679
 6575W        W10094   9.524   7.592  11.331
 6576W        W10095   6.949   5.192   1.822
 6577W        W10096   7.600   2.795   2.399
 6578W        W10097   8.836   0.465   9.506
 6579W        W10098   7.381   7.905   1.377
 6580W        W10099   2.356   8.342  10.866
 6581W        W10100   4.528   3.770  10.839
 6582W        W10101   6.443   1.252  11.829
 6583W        W10102   6.975   9.961  11.973
 6584W        W10103   3.648   5.531   8.438
 6585W        W10104   5.152   0.725   0.379
 6586W        W10105   5.533   8.374   8.465
 6587W        W10106   0.716   0.461  11.432
 6588W        W10107   4.716   6.031  10.878
 6589W        W10108   9.820   5.491   3.138
 6590W        W10109   6.160   0.774   0.942
 6591W        W10110   0.372   7.006   2.257
 6592W        W10111   4.628   3.314  11.769
 6593W        W10112   5.021   5.092   2.369
 6594W        W10113   6.573   9.375   3.341
 6595W        W10114   2.341   5.528   1.897
 6596W        W10115   1.369   2.734   1.710
 6597W        W10116   4.251   3.222  11.784
 6598W        W10117   4.565   5.516  11.363
 6599W        W10118   7.392   5.036   3.351
 6600W        W10119   6.975   2.795   1.294
 6601W        W10120   7.523   5.038   2.778
 6602W        W10121   5.661   8.062   0.442
 6603W        W10122   4.247   4.163   9.856
 6604W        W10123   4.721   9.478  10.430
 6605W        W10124   1.833   9.307   9.932
 6606W        W10125   9.500   6.041   1.733
 6607W        W10126   8.991   7.450   9.076
 6608W        W10127   2.777   4.165   1.785
 6609W        W10128   2.834   4.110   2.716
 6610W        W10129   3.114   3.778   1.826
 6611W        W10130   4.135   9.998   3.629
 6612W        W10131   5.588   5.577  11.471
 6613W        W10132   8.920   2.639   2.262
 6614W        W10133   5.627   3.735  11.378
 6615W        W10134   5.127   0.323   2.263
 6616W        W10135   5.701   1.283   1.320
 6617W        W10136   2.691   5.137  10.882
 6618W        W10137   0.297   8.421   0.349
 6619W        W10138   1.727   1.824   1.773
 6620W        W10139   7.395   2.215  11.316
 6621W        W10140   7.035   4.554   0.344
 6622W        W10141   0.799   6.584  11.295
 6623W        W10142   4.277   6.014   9.413
 6624W        W10143   1.408   9.972  11.792
 6625W        W10144   5.081   1.382   0.917
 6626W        W10145   1.681   5.585  11.923
 6627W        W10146   0.274   2.186   9.521
 6628W        W10147   8.420   0.283  10.961
 6629W        W10148   5.697   9.857   3.263
 6630W        W10149   0.929   7.460   9.903
 6631W        W10150   0.841   1.308  10.985
 6632W        W10151   4.267   2.242  11.905
 6633W        W10152   8.351   5.524   3.245
 6634W        W10153   7.442   1.237   2.269
 6635W        W10154   7.018   4.627   2.396
 6636W        W10155   4.570   4.694  10.515
 6637W        W10156   4.203   7.128   2.206
 6638W        W10157   5.500   8.443   1.837
 6639W        W10158   7.928   7.939  10.508
 6640W        W10159   4.209   3.780   8.423
 6641W        W10160   0.824   6.940  10.072
 6642W        W10161   7.980   6.013   0.890
 6643W        W10162   1.405   8.835   3.201
 6644W        W10163   3.687   7.490  11.022
 6645W        W10164   5.027   6.666   9.589
 6646W        W10165   5.230   1.328  10.897
 6647W        W10166   7.005   7.877   2.200
 6648W        W10167   9.806   8.501   9.049
 6649W        W10168   1.756   3.666   3.700
 6650W        W10169   4.079   7.440   3.693
 6651W        W10170   7.018   8.355   8.881
 6652W        W10171   6.141   8.018  11.838
 6653W        W10172   6.111   4.093   3.168
 6654W        W10173   4.689   5.057   0.934
 6655W        W10174   0.393   3.656   9.458
 6656W        W10175   5.117   8.524   0.363
 6657W        W10176   0.373   7.518  11.395
 6658W        W10177   4.724   9.290   0.340
 6659W        W10178   1.412   7.049  10.998
 6660W        W10179   2.176   9.781   8.523
 6661W        W10180   4.630   1.768   0.738
 6662W        W10181   6.099   3.585   0.443
 6663W        W10182   4.628   4.175   7.953
 6664W        W10183   5.692   0.947   9.390
 6665W        W10184   7.925   6.026   1.826
 6666W        W10185   8.513   3.799   1.204
 6667W        W10186   1.886   6.513   2.316
 6668W        W10187   0.464   2.199   0.942
 6669W        W10188   4.675   5.211  11.001
 6670W        W10189   1.419   0.771   2.859
 6671W        W10190   8.848   9.396   2.240
 6672W        W10191   6.665   2.187   1.266
 6673W        W10192   1.799   8.036  11.931
 6674W        W10193   6.143   3.703   1.280
 6675W        W10194   2.147   8.083  10.925
 6676W        W10195   1.776   1.220   1.281
 6677W        W10196   8.042   8.546   0.449
 6678W        W10197   0.889   5.228   3.209
 6679W        W10198   2.323   5.535   0.788
 6680W        W10199   6.121   4.173  11.015
 6681W        W10200   5.654   7.102   2.726
 6682W        W10201   0.262   0.408   2.299
 6683W        W10202   0.780   8.860  10.000
 6684W        W10203   3.277   9.971   1.289
 6685W        W10204   6.464   0.858   3.244
 6686W        W10205   4.055   9.835  10.374
 6687W        W10206   4.652   6.016  10.432
 6688W        W10207   0.855   7.916   3.327
 6689W        W10208   2.654   4.673  10.403
 6690W        W10209   6.090   5.478   1.865
 6691W        W10210   6.053   2.642   8.996
 6692W        W10211   3.601   5.154  10.452
 6693W        W10212   0.719   7.883   2.870
 6694W        W10213   8.088   5.500   3.140
 6695W        W10214   3.752   6.581  11.834
 6696W        W10215   2.793   1.302   9.943
 6697W        W10216   7.042   4.553   0.818
 6698W        W10217   6.660   1.734   9.486
 6699W        W10218   7.048   3.290   0.350
 6700W        W10219   6.524   7.043   9.499
 6701W        W10220   6.913   0.443  11.846
 6702W        W10221   7.587   6.124   2.847
 6703W        W10222   0.328   0.768  10.348
 6704W        W10223   3.626   4.078   9.977
 6705NA+    NA+10224   4.646   0.719  10.896
 6706NA+    NA+10225   7.905   4.716   9.103
 6707NA+    NA+10226   6.142   8.541   0.856
 6708NA+    NA+10227   3.303   1.703   1.206
 6709NA+    NA+10228   4.235   6.045   2.328
 6710NA+    NA+10229   2.205   5.657  10.383
 6711NA+    NA+10230   4.626   6.483  10.424
 6712NA+    NA+10231   6.547   5.060  11.772
 6713NA+    NA+10232   9.913   3.333   8.967
 6714NA+    NA+10233   4.755   8.862  10.079
 6715NA+    NA+10234   6.047   3.595   9.492
 6716NA+    NA+10235   4.578   7.879   0.883
 6717NA+    NA+10236   8.084   5.555  11.999
 6718NA+    NA+10237   0.892   3.309  11.933
 6719NA+    NA+10238   9.908   9.941   2.767
 6720NA+    NA+10239   7.565   8.893  11.785
 6721NA+    NA+10240   1.723   6.911   9.545
 6722NA+    NA+10241   4.178   2.293  10.498
 6723NA+    NA+10242   3.679   0.305   9.095
 6724NA+    NA+10243   3.672   8.969   9.584
 6725NA+    NA+10244   6.985   0.877   9.543
 6726NA+    NA+10245   3.620   5.590  10.961
 6727NA+    NA+10246   7.936   4.100   9.881
 6728NA+    NA+10247   5.627   9.486  10.427
 6729NA+    NA+10248   6.998   9.394  10.811
 6730NA+    NA+10249   3.221   0.841   9.092
 6731NA+    NA+10250   0.380   5.626  11.450
 6732NA+    NA+10251   9.399   3.189   1.234
 6733NA+    NA+10252   8.064   1.704   3.206
 6734NA+    NA+10253   2.627   5.141   8.929
 6735NA+    NA+10254   6.578   0.922   1.769
 6736NA+    NA+10255   8.560   1.422  10.838
 6737NA+    NA+10256   5.159   8.899   2.649
 6738NA+    NA+10257   1.895   4.566   1.734
 6739NA+    NA+10258   7.420   9.432   3.221
 6740NA+    NA+10259   1.781   9.818   0.432
 6741NA+    NA+10260   8.023   8.015   2.166
 6742NA+    NA+10261   2.845   7.059   2.277
 6743NA+    NA+10262   1.694   6.613   0.742
 6744NA+    NA+10263   1.401   9.486   1.270
 6745NA+    NA+10264   2.244   6.105  11.863
 6746NA+    NA+10265   8.091   4.626   2.361
 6747NA+    NA+10266   8.975   8.963   9.858
 6748NA+    NA+10267   8.456   7.948  11.921
 6749NA+    NA+10268   8.340   7.892   1.270
 6750NA+    NA+10269   5.962   6.652   4.236
 6751NA+    NA+10270   4.175   9.512   0.795
 6752NA+    NA+10271   0.930   3.101   9.542
 6753NA+    NA+10272   1.694   0.836   3.839
 6754NA+    NA+10273   4.052   5.619   2.366
 6755NA+    NA+10274   8.937   2.793   1.221
 6756NA+    NA+10275   6.495   8.535   2.250
 6757NA+    NA+10276   7.976   4.725  11.333
 6758NA+    NA+10277   4.276   5.050   0.426
 6759NA+    NA+10278   0.474   5.130   0.277
 6760NA+    NA+10279   1.844   9.871   3.207
 6761NA+    NA+10280   3.647   5.109  10.037
 6762NA+    NA+10281   9.514   7.916   2.713
 6763NA+    NA+10282   5.048   5.974   3.338
 6764NA+    NA+10283   3.665   9.460   0.455
 6765NA+    NA+10284   0.741   0.369   8.429
 6766NA+    NA+10285   8.853   7.948   2.188
 6767NA+    NA+10286   4.120   6.171   9.088
 6768NA+    NA+10287   4.194   0.252   9.974
 6769NA+    NA+10288   8.004   7.891   9.530
 6770NA+    NA+10289   2.816   1.826   2.287
 6771NA+    NA+10290   3.164   2.822  11.371
 6772NA+    NA+10291   7.596   2.684  10.527
 6773NA+    NA+10292   2.329   6.177   8.897
 6774NA+    NA+10293   5.501   4.269   1.803
 6775NA+    NA+10294   6.591   6.938  10.010
 6776CL-    CL-10295   8.940   4.740   2.324
 6777CL-    CL-10296   0.367   1.311   2.878
 6778CL-    CL-10297   5.067   8.844   1.346
 6779CL-    CL-10298   6.077   0.422  11.370
 6780CL-    CL-10299   5.210   4.550   3.225
 6781CL-    CL-10300   6.435   4.115   9.868
 6782CL-    CL-10301   1.221   3.673   9.541
 6783CL-    CL-10302   1.876   5.093   9.506
 6784CL-    CL-10303   3.736   6.078   1.841
 6785CL-    CL-10304   1.724   1.836   3.210
 6786CL-    CL-10305   6.613   8.524   0.342
 6787CL-    CL-10306   4.242   8.089   9.365
 6788CL-    CL-10307   4.601   1.321   9.551
 6789CL-    CL-10308   2.633   5.534   2.188
 6790CL-    CL-10309   0.899   4.671  12.000
 6791CL-    CL-10310   6.908   1.234   8.530
 6792CL-    CL-10311   7.920   3.599   9.002
 6793CL-    CL-10312   4.569   7.600   0.379
 6794CL-    CL-10313   2.251   8.560  11.439
 6795CL-    CL-10314   3.607   7.054  10.463
 6796CL-    CL-10315   2.247   8.977   2.356
 6797CL-    CL-10316   7.965   9.319   0.284
 6798CL-    CL-10317   9.045   2.730   9.526
 6799CL-    CL-10318   5.130   4.596   1.364
 6800CL-    CL-10319   1.427   9.834   0.323
 6801CL-    CL-10320   8.383   3.146   0.931
 6802CL-    CL-10321   3.190   3.770   3.322
 6803CL-    CL-10322   5.669   7.399   2.223
 6804CL-    CL-10323   3.240   4.731   0.431
 6805CL-    CL-10324   0.366   0.333   0.860
 6806CL-    CL-10325   5.961   2.157   2.246
 6807CL-    CL-10326   5.111   5.048   8.499
 6808CL-    CL-10327   9.034   1.233  10.490
 6809CL-    CL-10328   7.555   4.112   0.457
 6810CL-    CL-10329   7.879   5.550  10.541
 6811CL-    CL-10330   5.530   6.574   0.276
 6812CL-    CL-10331   1.356   8.415   0.861
 6813CL-    CL-10332   0.782   8.456   2.376
 6814CL-    CL-10333   6.576   1.744   9.038
 6815CL-    CL-10334   1.233   4.741   9.876
 6816CL-    CL-10335   0.347   7.384   2.737
 6817CL-    CL-10336   4.118   4.655  10.950
 6818CL-    CL-10337   4.157   9.886  11.372
 6819CL-    CL-10338   3.182   8.468  10.045
 6820CL-    CL-10339   3.254   7.441   0.347
 6821CL-    CL-10340   2.288   6.059  11.400
 6822CL-    CL-10341   2.370   1.388   2.332
 6823CL-    CL-10342   5.617   5.070   1.769
 6824CL-    CL-10343   7.935   8.061   1.902
 6825CL-    CL-10344   7.081   4.121   9.855
 6826CL-    CL-10345   9.898   0.899   9.030
 6827CL-    CL-10346   5.082   8.407   3.347
 6828CL-    CL-10347   5.596   3.247   0.908
 6829CL-    CL-10348   6.591   3.178   3.201
 6830CL-    CL-10349   7.611   9.859   0.745
 6831CL-    CL-10350   8.987   9.321  10.888
 6832CL-    CL-10351   8.534   9.512   3.696
 6833CL-    CL-10352   3.800   6.927   9.502
 6834CL-    CL-10353   9.947   3.627   2.839
 6835CL-    CL-10354   6.563   7.526   9.000
 6836CL-    CL-10355   4.627   3.194   9.526
 6837CL-    CL-10356   5.111   8.829   9.844
 6838CL-    CL-10357   5.713   0.458   3.148
 6839CL-    CL-10358   5.674   3.614   3.259
 6840CL-    CL-10359   5.109   7.464   9.366
 6841CL-    CL-10360   9.483   5.670   9.050
 6842CL-    CL-10361   9.879   2.294   2.740
 6843CL-    CL-10362   2.646   4.661  11.320
 6844CL-    CL-10363   8.042   2.702  10.851
 6845CL-    CL-10364   1.846   8.560   1.369
 6846CL-    CL-10365   9.817   4.263   1.829
  10.00000  10.00000  12.00000   0.00000   0.00000   0.00000   0.00000   0.00000   0.00000
