Protein in INSANE! Membrane UpperLeaflet>POPC=1.0 LowerLeaflet>POPC=1.0
11530
    1AU     AUC    1   8.459   5.759   5.719  0.0750  0.1098  0.0211
    1AU     AUC    2   8.310   5.476   5.748  0.1469 -0.0045  0.0396
    1AU     AUC    3   8.180   5.794   5.867 -0.0353  0.0285  0.0019
    1AU     AUC    4   8.751   5.698   5.565  0.0020 -0.1059 -0.0051
    1AU     AUC    5   8.612   6.046   5.685  0.0709 -0.0376 -0.0098
    1AU     AUC    6   8.695   5.810   5.863 -0.0476 -0.0089  0.0750
    1AU     AUC    7   8.469   5.644   5.995 -0.0157  0.0606  0.0389
    1AU     AUC    8   8.495   5.869   5.407  0.0879  0.0145 -0.0021
    1AU     AUC    9   8.214   5.714   5.541 -0.0879 -0.0857 -0.0074
    1AU     AUC   10   8.251   5.991   5.680 -0.0480  0.1054  0.0437
    1AU     AUC   11   8.451   5.980   5.932 -0.1230  0.0776  0.0090
    1AU     AUC   12   8.470   5.536   5.505  0.0142  0.0049 -0.0991
    1AU     AUC   13   8.606   5.497   5.772  0.0081 -0.0344  0.0352
    1AU     AUC   14   8.097   5.195   5.852 -0.0558  0.0573 -0.0111
    1AU     AUC   15   7.950   5.470   5.928  0.1363 -0.0142 -0.0117
    1AU     AUC   16   7.900   5.840   6.049 -0.0147  0.0287 -0.0551
    1AU     AUC   17   9.069   5.695   5.416  0.0017 -0.0112 -0.0660
    1AU     AUC   18   8.952   6.016   5.534  0.0471  0.0379 -0.0874
    1AU     AUC   19   8.803   6.330   5.609  0.0039  0.0278  0.1446
    1AU     AUC   20   9.001   5.856   6.094 -0.0079  0.0449 -0.0156
    1AU     AUC   21   8.752   5.663   6.239 -0.0099 -0.0447  0.0061
    1AU     AUC   22   8.464   5.533   6.330 -0.0869 -0.1309 -0.0622
    1AU     AUC   23   8.541   5.978   5.076 -0.0357 -0.0723 -0.0381
    1AU     AUC   24   8.221   5.828   5.163 -0.0098 -0.0176 -0.0241
    1AU     AUC   25   7.938   5.680   5.322 -0.0324 -0.0393 -0.1215
    1AU     AUC   26   8.085   6.278   5.569  0.0775 -0.0057 -0.0456
    1AU     AUC   27   8.235   6.291   5.872 -0.0277 -0.0863 -0.0039
    1AU     AUC   28   8.401   6.227   6.158 -0.0802 -0.0438  0.0853
    1AU     AUC   29   8.481   5.283   5.221 -0.0260  0.0064 -0.1316
    1AU     AUC   30   8.643   5.203   5.530  0.0050  0.0472 -0.0193
    1AU     AUC   31   8.797   5.185   5.833  0.0147  0.0276  0.0270
    1AU     AUC   32   7.962   6.044   5.797  0.0327  0.0451  0.0308
    1AU     AUC   33   8.115   6.064   6.130 -0.0178  0.0366  0.0476
    1AU     AUC   34   8.269   5.223   5.502  0.0723 -0.0297 -0.0483
    1AU     AUC   35   8.416   5.155   5.845  0.0304  0.0008 -0.0829
    1AU     AUC   36   8.435   6.325   5.575 -0.0398  0.0677  0.0728
    1AU     AUC   37   8.588   6.292   5.904 -0.0024  0.0621 -0.0447
    1AU     AUC   38   8.799   5.489   5.317 -0.0010  0.0640 -0.0321
    1AU     AUC   39   8.961   5.425   5.605  0.0215  0.0152  0.0502
    1AU     AUC   40   8.242   5.342   6.099 -0.0252 -0.0122  0.0108
    1AU     AUC   41   8.164   5.719   6.185  0.0137  0.0813  0.0457
    1AU     AUC   42   9.035   5.768   5.738  0.0643 -0.0149 -0.0899
    1AU     AUC   43   8.923   6.120   5.906  0.0418 -0.0448 -0.0309
    1AU     AUC   44   7.966   5.424   5.555 -0.0281  0.0592  0.0143
    1AU     AUC   45   7.873   5.699   5.679 -0.0296 -0.0218 -0.1203
    1AU     AUC   46   8.858   5.856   5.245  0.0057  0.0739  0.0220
    1AU     AUC   47   8.691   6.135   5.318 -0.0209  0.0057  0.0757
    1AU     AUC   48   8.721   6.036   6.181 -0.0076  0.0155  0.0393
    1AU     AUC   49   8.434   5.889   6.274 -0.0191 -0.1058 -0.0847
    1AU     AUC   50   8.286   6.114   5.304  0.0399  0.0518 -0.0481
    1AU     AUC   51   7.979   5.974   5.439  0.0547 -0.0102  0.0303
    1AU     AUC   52   8.910   5.512   5.941 -0.0043  0.0503 -0.0703
    1AU     AUC   53   8.610   5.310   6.097  0.0287  0.0227 -0.0094
    1AU     AUC   54   8.575   5.637   5.129  0.0166 -0.0707  0.0532
    1AU     AUC   55   8.236   5.492   5.234 -0.0653 -0.0023 -0.0205
    1AU    AUSL   56   7.715   6.207   6.073 -0.0234 -0.0047 -0.0806
    1AU    AUSL   57   7.616   6.203   5.597  0.0593 -0.0029  0.0779
    1AU     AUL   58   7.383   6.161   5.930 -0.0713  0.0184  0.0233
    1AU       S   59   7.297   6.131   5.463  0.1699 -0.3957  0.2079
    1AU     LIG   60   6.887   6.312   5.433  0.0710  0.1950 -0.1039
    1AU     LIG   61   6.634   6.637   5.745  0.0942  0.2219 -0.1012
    1AU       S   62   7.549   6.620   6.058  0.0071 -0.0264  0.0086
    1AU     LIG   63   7.418   7.051   6.209 -0.5362  0.2506 -0.0114
    1AU     LIG   64   7.230   7.424   5.945  0.1878  0.4312  0.1440
    1AU    AUSL   65   7.962   6.408   5.780  0.0102  0.0478 -0.0084
    1AU    AUSL   66   8.293   6.627   6.003  0.0952  0.0543 -0.0499
    1AU     AUL   67   8.021   6.702   5.989  0.0968 -0.0466 -0.0582
    1AU       S   68   7.653   6.625   5.737  0.3848  0.6654  0.4767
    1AU     LIG   69   7.567   7.050   5.709 -0.1214  0.1014 -0.0769
    1AU     LIG   70   7.684   7.414   5.525 -0.1510  0.1644  0.0238
    1AU       S   71   8.231   7.198   5.531  0.4258  0.2315 -0.3303
    1AU     LIG   72   8.473   7.606   5.459  0.0107 -0.1793 -0.0020
    1AU     LIG   73   8.772   7.814   5.613 -0.1693  0.0571 -0.0828
    1AU    AUSL   74   8.157   6.252   6.154 -0.0276 -0.0067  0.1116
    1AU    AUSL   75   7.889   6.014   6.423 -0.0989 -0.0234 -0.0081
    1AU     AUL   76   7.844   6.404   6.353 -0.0719 -0.0469 -0.0996
    1AU       S   77   8.229   6.679   6.532 -0.3196  0.1899  0.2530
    1AU     LIG   78   7.839   6.860   6.756 -0.2083  0.1386 -0.0795
    1AU     LIG   79   7.742   6.992   7.184  0.4435  0.4464 -0.5609
    1AU       S   80   7.694   6.113   6.696 -0.0862  0.0559 -0.3221
    1AU     LIG   81   7.411   6.518   6.733 -0.0143  0.1563 -0.0861
    1AU     LIG   82   7.283   6.928   6.736  0.0749 -0.2360 -0.0195
    1AU    AUSL   83   8.208   4.930   5.765  0.0100  0.0021  0.0154
    1AU    AUSL   84   8.578   4.880   6.074 -0.0416 -0.0360  0.0195
    1AU     AUL   85   8.375   4.652   5.885 -0.0618  0.0019  0.0106
    1AU       S   86   8.259   4.414   5.475 -0.2682 -0.2267 -0.1090
    1AU     LIG   87   8.019   4.031   5.486 -0.3132  0.0816  0.1863
    1AU     LIG   88   7.947   3.662   5.737  0.0269 -0.0728 -0.1293
    1AU       S   89   8.547   4.572   6.279 -0.2976 -0.2064  0.0137
    1AU     LIG   90   8.816   4.201   6.195 -0.0452  0.2358 -0.1922
    1AU     LIG   91   9.266   4.147   6.039 -0.1801 -0.0940 -0.1510
    1AU    AUSL   92   8.364   4.875   5.370  0.0025  0.0470 -0.0094
    1AU    AUSL   93   8.017   5.204   5.497  0.0307 -0.0967 -0.0433
    1AU     AUL   94   7.990   4.796   5.479  0.0498 -0.0084  0.0246
    1AU       S   95   7.762   4.765   5.016 -0.5371 -0.3676 -0.3120
    1AU     LIG   96   7.663   4.539   4.676  0.2633  0.3460 -0.0075
    1AU     LIG   97   7.233   4.341   4.479 -0.2143  0.1507  0.1367
    1AU       S   98   8.343   4.627   5.142 -0.0030  0.0198  0.2945
    1AU     LIG   99   8.013   4.311   5.059  0.0204  0.1269  0.0599
    1AU     LIG  100   7.593   4.221   5.131  0.1135  0.1588  0.1125
    1AU    AUSL  101   8.642   5.061   5.683 -0.0128 -0.0363 -0.0415
    1AU    AUSL  102   8.728   5.044   5.237 -0.0353 -0.0033  0.1656
    1AU     AUL  103   8.646   4.734   5.521 -0.0532  0.0492  0.0711
    1AU       S  104   8.878   4.774   5.073 -0.0635  0.0862  0.0958
    1AU     LIG  105   8.587   4.503   4.764  0.3883 -0.1566 -0.0094
    1AU     LIG  106   8.551   4.289   4.377  0.1742 -0.0257  0.0803
    1AU       S  107   8.508   4.358   5.245 -0.0431  0.0859 -0.0953
    1AU     LIG  108   8.769   4.064   5.165  0.1904 -0.0934  0.1019
    1AU     LIG  109   9.147   4.036   5.060 -0.3429  0.0485 -0.0006
    1AU    AUSL  110   8.599   6.527   5.696 -0.0514 -0.0317 -0.0653
    1AU    AUSL  111   8.605   6.457   6.212 -0.0245 -0.0308 -0.0029
    1AU     AUL  112   8.553   6.759   6.019 -0.0183  0.1137  0.0031
    1AU       S  113   8.306   7.090   5.742  0.1875  0.0520  0.3014
    1AU     LIG  114   8.489   7.433   5.978  0.1829 -0.0172  0.0649
    1AU     LIG  115   8.697   7.599   6.326  0.0206 -0.3306 -0.2420
    1AU       S  116   8.952   6.742   6.274  0.1627  0.0875  0.1430
    1AU     LIG  117   8.915   7.224   6.069 -0.0294 -0.3424 -0.1838
    1AU     LIG  118   9.051   7.629   6.041 -0.5030 -0.0440  0.0406
    1AU    AUSL  119   8.198   6.674   5.556  0.0332  0.1017 -0.0567
    1AU    AUSL  120   8.645   6.590   5.283  0.0519 -0.0389 -0.0478
    1AU     AUL  121   8.609   6.800   5.492 -0.0003  0.0282  0.0336
    1AU       S  122   8.545   6.818   4.986 -0.0264  0.1138  0.1976
    1AU     LIG  123   8.308   7.226   5.045 -0.4520  0.0434 -0.2163
    1AU     LIG  124   8.043   7.571   5.239 -0.3385  0.2218  0.2426
    1AU       S  125   8.119   6.867   5.476 -0.1854  0.0586  0.1910
    1AU     LIG  126   7.643   6.913   5.242 -0.1210  0.2073  0.2810
    1AU     LIG  127   7.247   7.130   5.194  0.0435  0.0628  0.0763
    1AU    AUSL  128   9.082   5.290   5.317 -0.0177 -0.0194  0.0083
    1AU    AUSL  129   8.702   5.451   5.091 -0.0456 -0.1473  0.0117
    1AU     AUL  130   8.942   5.248   4.932 -0.0127 -0.0600 -0.0841
    1AU       S  131   9.120   4.841   5.126 -0.0488 -0.1177 -0.1650
    1AU     LIG  132   9.113   4.509   4.696 -0.1059 -0.0906  0.2061
    1AU     LIG  133   8.939   4.114   4.621  0.3572 -0.1840  0.1707
    1AU       S  134   9.395   5.649   4.791  0.0651  0.0812 -0.2746
    1AU     LIG  135   9.826   5.890   4.746  0.1963 -0.2765  0.2610
    1AU     LIG  136  10.095   6.163   4.650 -0.0109 -0.2476 -0.0852
    1AU    AUSL  137   9.062   4.958   5.597  0.0816  0.1418 -0.0286
    1AU    AUSL  138   9.373   5.508   5.548  0.0958 -0.0415  0.0684
    1AU     AUL  139   9.337   5.119   5.410  0.0811  0.0352 -0.0337
    1AU       S  140   9.651   5.433   5.602  0.0397 -0.1401  0.0499
    1AU     LIG  141  10.166   5.560   5.445 -0.1315  0.1440 -0.0147
    1AU     LIG  142  10.596   5.576   5.397  0.1186  0.0648 -0.0949
    1AU       S  143   8.998   4.493   5.207 -0.1175 -0.0357 -0.4067
    1AU     LIG  144   9.491   4.342   5.253  0.0466  0.0951 -0.0100
    1AU     LIG  145   9.661   4.112   5.588 -0.2045  0.1896 -0.1709
    1AU    AUSL  146   8.107   5.369   6.467 -0.0165 -0.0862  0.0254
    1AU    AUSL  147   8.159   4.960   6.204 -0.0817 -0.0438  0.1275
    1AU     AUL  148   8.097   5.048   6.583 -0.0150  0.0114  0.0076
    1AU       S  149   8.271   4.620   6.351  0.0583  0.2518 -0.2476
    1AU     LIG  150   8.043   4.244   6.193  0.1448 -0.0871 -0.2071
    1AU     LIG  151   7.727   4.223   5.800  0.2536  0.1832 -0.3560
    1AU       S  152   7.254   5.785   6.191  0.0150 -0.0437  0.0394
    1AU     LIG  153   6.927   5.648   6.235  0.2530 -0.1322 -0.4733
    1AU     LIG  154   6.537   5.445   6.262 -0.0516 -0.2321  0.0539
    1AU    AUSL  155   7.990   5.302   6.016  0.0297  0.0702  0.0619
    1AU    AUSL  156   7.572   5.477   5.964 -0.0717 -0.0150 -0.0300
    1AU     AUL  157   7.720   5.158   6.263  0.0699 -0.0654  0.0537
    1AU       S  158   7.464   5.575   6.401 -0.1056  0.2472  0.3308
    1AU     LIG  159   7.155   5.442   6.602  0.1572 -0.1746  0.0709
    1AU     LIG  160   6.777   5.409   6.674 -0.0230  0.0446 -0.2654
    1AU       S  161   7.307   5.302   6.022  0.0350 -0.0945 -0.0361
    1AU     LIG  162   6.985   5.154   6.271  0.1534  0.0706 -0.3164
    1AU     LIG  163   6.684   4.927   6.352 -0.2098  0.3326 -0.2032
    1AU    AUSL  164   7.873   5.661   6.218 -0.0028 -0.0400 -0.0882
    1AU    AUSL  165   8.256   5.765   6.442 -0.0534  0.0576  0.1455
    1AU     AUL  166   7.898   5.658   6.590  0.0088 -0.0149  0.0495
    1AU       S  167   7.709   6.203   6.994  0.1841  0.0433 -0.4772
    1AU     LIG  168   7.239   6.092   7.040 -0.3670  0.2204  0.2050
    1AU     LIG  169   6.962   5.863   6.838 -0.1602  0.2961 -0.0005
    1AU       S  170   7.505   5.787   6.314  0.1955 -0.0275 -0.5895
    1AU     LIG  171   7.217   6.139   6.509 -0.0588 -0.3216  0.2727
    1AU     LIG  172   7.091   6.640   6.343  0.1656  0.0485  0.3643
    1AU    AUSL  173   9.172   6.019   6.015 -0.0889 -0.0042  0.0641
    1AU    AUSL  174   8.948   6.436   5.931 -0.0118  0.0494 -0.0357
    1AU     AUL  175   9.385   6.359   6.081  0.0016  0.0536  0.0340
    1AU       S  176   9.019   6.669   5.987 -0.2529  0.2272 -0.3844
    1AU     LIG  177   9.391   6.979   6.121  0.1145  0.2330 -0.0753
    1AU     LIG  178   9.739   7.091   6.044  0.3434  0.0635 -0.1444
    1AU       S  179   9.465   5.982   6.321  0.0146  0.4318 -0.0679
    1AU     LIG  180   9.871   5.932   6.280 -0.3629  0.1782 -0.3557
    1AU     LIG  181  10.359   5.930   6.390  0.1070  0.0564 -0.0862
    1AU    AUSL  182   9.185   5.875   5.606  0.0747 -0.0554  0.0477
    1AU    AUSL  183   9.329   5.615   5.991  0.0039 -0.0473  0.0385
    1AU     AUL  184   9.472   5.863   5.809  0.0790 -0.0136 -0.0259
    1AU       S  185   9.643   5.832   5.313 -0.2125 -0.0420  0.0618
    1AU     LIG  186  10.052   6.080   5.290 -0.1315 -0.1465 -0.6685
    1AU     LIG  187  10.334   5.884   5.055 -0.0244 -0.0107 -0.0651
    1AU       S  188   9.653   5.485   6.049 -0.2140 -0.5205  0.2199
    1AU     LIG  189  10.046   5.554   5.966 -0.0769  0.1407  0.1761
    1AU     LIG  190  10.377   5.789   5.841 -0.3504  0.0240  0.1423
    1AU    AUSL  191   9.251   6.301   5.660 -0.0530 -0.0075 -0.0246
    1AU    AUSL  192   9.230   6.096   5.237  0.0098  0.0971 -0.0918
    1AU     AUL  193   9.424   6.179   5.457 -0.0520 -0.0073  0.0766
    1AU       S  194   9.276   6.485   5.130  0.1893 -0.2261  0.1867
    1AU     LIG  195   9.397   6.816   4.807 -0.0249  0.4224 -0.0431
    1AU     LIG  196   9.775   6.843   4.485 -0.2656 -0.1718 -0.0054
    1AU       S  197   9.499   6.599   5.662 -0.2422  0.3173 -0.3398
    1AU     LIG  198   9.203   6.979   5.667 -0.3989 -0.4990  0.0514
    1AU     LIG  199   8.971   7.324   5.553 -0.0094  0.1588 -0.1449
    1AU    AUSL  200   7.629   5.489   5.517 -0.0059 -0.0650  0.0353
    1AU    AUSL  201   7.732   5.844   5.834 -0.0086 -0.0214 -0.0376
    1AU     AUL  202   7.410   5.695   5.738  0.0262  0.0729  0.0558
    1AU       S  203   7.238   5.245   5.649  0.5294  0.1917 -0.3185
    1AU     LIG  204   6.799   5.424   5.785 -0.1458 -0.1168 -0.1026
    1AU     LIG  205   6.337   5.219   5.744 -0.0646  0.0028 -0.2175
    1AU       S  206   7.172   5.811   5.337 -0.3491 -0.3573 -0.3896
    1AU     LIG  207   6.831   5.907   5.720 -0.0583 -0.3321 -0.0915
    1AU     LIG  208   6.707   6.226   5.963 -0.1458 -0.2133 -0.3451
    1AU    AUSL  209   7.698   5.109   5.750 -0.0151 -0.0631 -0.0581
    1AU    AUSL  210   7.798   5.380   5.127 -0.0758  0.0078  0.0567
    1AU     AUL  211   7.675   5.114   5.380  0.0302 -0.0025 -0.0054
    1AU       S  212   7.379   5.060   5.827  0.0395  0.3595 -0.2968
    1AU     LIG  213   7.252   4.621   5.855 -0.0480  0.3684 -0.1146
    1AU     LIG  214   7.162   4.199   5.883 -0.1086  0.2530  0.2249
    1AU       S  215   7.762   5.043   4.910  0.5028 -0.0416  0.2955
    1AU     LIG  216   7.392   5.320   4.681  0.2268 -0.2534  0.2595
    1AU     LIG  217   7.258   5.719   4.796  0.1074 -0.3508 -0.2040
    1AU    AUSL  218   8.822   6.055   5.075  0.0182 -0.0092 -0.0461
    1AU    AUSL  219   9.105   5.689   5.168  0.0123 -0.0002 -0.0199
    1AU     AUL  220   9.168   6.058   4.951  0.0790  0.0243 -0.0407
    1AU       S  221   9.265   5.591   4.945  0.1047 -0.1148 -0.1760
    1AU     LIG  222   9.738   5.450   5.079 -0.0419  0.2192 -0.1973
    1AU     LIG  223   9.993   5.126   5.296  0.5857  0.0041  0.0355
    1AU       S  224   9.327   6.608   5.231  0.1542 -0.1670 -0.3122
    1AU     LIG  225   9.650   6.968   5.378  0.0867  0.1408 -0.0675
    1AU     LIG  226   9.966   6.835   5.677 -0.0204  0.2315  0.0442
    1AU    AUSL  227   8.897   6.298   5.430  0.0052 -0.0810  0.0076
    1AU    AUSL  228   8.511   6.321   4.967  0.0502 -0.0361  0.0272
    1AU     AUL  229   8.850   6.444   5.019 -0.0007 -0.0851  0.0505
    1AU       S  230   8.531   6.549   4.707  0.2968 -0.2448  0.2349
    1AU     LIG  231   8.325   6.920   4.567  0.3893 -0.1301  0.0489
    1AU     LIG  232   8.193   7.411   4.316 -0.1856 -0.4241  0.1577
    1AU       S  233   9.094   6.680   5.346  0.1255 -0.2796 -0.0296
    1AU     LIG  234   9.145   7.067   5.120  0.2058 -0.1040 -0.2052
    1AU     LIG  235   9.406   7.293   4.882 -0.3735  0.2138 -0.1242
    1AU    AUSL  236   8.610   6.066   6.388  0.0606 -0.0989 -0.1127
    1AU    AUSL  237   9.004   6.265   6.332  0.0307 -0.0889 -0.0301
    1AU     AUL  238   8.673   6.435   6.533 -0.0022 -0.1155  0.1383
    1AU       S  239   9.126   6.464   6.448 -0.2613 -0.1476  0.2034
    1AU     LIG  240   9.396   6.768   6.533  0.2920  0.1348  0.1983
    1AU     LIG  241   9.669   6.686   6.908  0.2326 -0.0898  0.0116
    1AU       S  242   8.870   6.134   6.813 -0.1895  0.2859  0.1160
    1AU     LIG  243   9.076   6.565   6.994  0.0747  0.0382 -0.0259
    1AU     LIG  244   9.008   6.777   7.327 -0.0393 -0.1063 -0.0362
    1AU    AUSL  245   9.029   5.858   6.459  0.0971  0.0664 -0.0257
    1AU    AUSL  246   8.841   5.325   6.502 -0.0401 -0.0436 -0.0290
    1AU     AUL  247   9.136   5.550   6.615  0.0086  0.0087 -0.0277
    1AU       S  248   8.952   5.933   6.945 -0.1057  0.0903 -0.3672
    1AU     LIG  249   9.304   6.070   7.030 -0.1916 -0.0258 -0.2843
    1AU     LIG  250   9.626   6.130   6.732 -0.1767 -0.2405 -0.0224
    1AU       S  251   9.097   5.038   6.569  0.0440 -0.5213  0.2724
    1AU     LIG  252   9.558   4.915   6.484  0.1619  0.1352 -0.3272
    1AU     LIG  253   9.866   4.621   6.451 -0.0794 -0.4680  0.0023
    1AU    AUSL  254   8.647   5.690   6.598 -0.1342 -0.0027  0.0435
    1AU    AUSL  255   8.250   6.217   6.564  0.0068 -0.0508 -0.0607
    1AU     AUL  256   8.404   5.959   6.742  0.0829  0.0293 -0.0124
    1AU       S  257   8.035   6.276   6.816 -0.2056 -0.1272 -0.2324
    1AU     LIG  258   8.127   6.672   7.082  0.0566  0.2821  0.2352
    1AU     LIG  259   8.593   6.791   7.015  0.1610 -0.1674 -0.1160
    1AU       S  260   8.840   5.841   6.933 -0.1841 -0.0590 -0.0450
    1AU     LIG  261   8.937   6.236   7.362  0.2523 -0.2326 -0.2212
    1AU     LIG  262   9.298   6.382   7.454 -0.2216 -0.3173 -0.4770
    1AU    AUSL  263   7.898   6.315   5.293  0.0415 -0.0228 -0.0573
    1AU    AUSL  264   7.793   5.870   5.387 -0.0781 -0.0006 -0.0897
    1AU     AUL  265   7.663   6.241   5.195  0.0682  0.0844 -0.0391
    1AU       S  266   7.903   6.759   4.785  0.2091 -0.4947 -0.0222
    1AU     LIG  267   7.821   7.191   4.799 -0.3267  0.0344  0.2121
    1AU     LIG  268   7.506   7.440   4.980 -0.2217 -0.1054 -0.1882
    1AU       S  269   7.438   5.802   5.254  0.2464 -0.0605  0.4044
    1AU     LIG  270   7.094   5.375   5.155  0.1576 -0.0720 -0.0356
    1AU     LIG  271   6.842   5.083   4.852  0.3657 -0.4384  0.2923
    1AU    AUSL  272   8.151   6.106   5.016  0.0196 -0.0657 -0.0841
    1AU    AUSL  273   8.316   6.308   5.389 -0.0432  0.0151 -0.0366
    1AU     AUL  274   8.176   6.513   5.090  0.0316 -0.0039  0.1080
    1AU       S  275   7.901   6.336   4.761 -0.2192 -0.0905  0.2837
    1AU     LIG  276   7.950   6.570   4.352  0.5263 -0.1488 -0.3700
    1AU     LIG  277   7.975   6.990   4.213 -0.0316 -0.3533 -0.1961
    1AU       S  278   8.825   6.833   4.765  0.2742 -0.2656 -0.1572
    1AU     LIG  279   9.086   7.108   4.547  0.0939 -0.1670  0.0570
    1AU     LIG  280   9.536   7.286   4.394  0.1886  0.0931  0.1982
    1AU    AUSL  281   7.804   5.847   4.963 -0.0598  0.0974  0.0717
    1AU    AUSL  282   8.440   5.847   4.849 -0.0285  0.0397 -0.0057
    1AU     AUL  283   8.112   5.925   4.722 -0.0397  0.0277  0.0326
    1AU       S  284   8.576   6.045   4.585  0.1466  0.5418  0.4972
    1AU     LIG  285   8.349   6.342   4.271 -0.1952 -0.0673  0.1510
    1AU     LIG  286   8.460   6.797   4.094 -0.2255 -0.0700  0.1320
    1AU       S  287   7.730   6.615   4.853 -0.2013  0.1075  0.0332
    1AU     LIG  288   7.419   6.868   4.694 -0.1920 -0.0161  0.0933
    1AU     LIG  289   7.507   7.213   4.364  0.3473  0.0159 -0.0189
    1AU    AUSL  290   8.925   5.138   6.142 -0.0555  0.0668  0.0738
    1AU    AUSL  291   8.469   5.288   6.272 -0.0175 -0.0476 -0.0263
    1AU     AUL  292   8.632   5.019   6.447  0.0353 -0.0123  0.0164
    1AU       S  293   9.081   4.917   6.199 -0.1974 -0.0260  0.1407
    1AU     LIG  294   9.441   4.727   6.034 -0.1850 -0.0956 -0.0062
    1AU     LIG  295   9.658   4.419   6.052  0.1158 -0.3069  0.5256
    1AU       S  296   8.455   4.557   6.577 -0.0301  0.0917  0.0487
    1AU     LIG  297   8.841   4.373   6.714  0.0065 -0.0506 -0.0672
    1AU     LIG  298   9.143   3.975   6.495  0.1084  0.2047  0.1108
    1AU    AUSL  299   8.938   5.592   6.156 -0.0090  0.0181  0.0262
    1AU    AUSL  300   9.072   5.324   5.794 -0.0090 -0.0201  0.0446
    1AU     AUL  301   9.247   5.371   6.195 -0.0188  0.0111 -0.0428
    1AU       S  302   9.028   4.734   6.429 -0.2466  0.0739  0.3348
    1AU     LIG  303   9.332   4.456   6.513 -0.3585 -0.0093  0.2551
    1AU     LIG  304   9.694   4.132   6.556  0.1184  0.0415 -0.0740
    1AU       S  305   9.534   5.198   5.882  0.0585 -0.0849  0.2321
    1AU     LIG  306   9.914   5.054   5.875 -0.2513 -0.3072  0.0628
    1AU     LIG  307  10.322   5.134   5.752  0.1915 -0.4956  0.0272
    1AU    AUSL  308   8.392   5.410   4.800  0.0342 -0.0031 -0.0704
    1AU    AUSL  309   8.851   5.747   4.806 -0.0285 -0.0912  0.0006
    1AU     AUL  310   8.635   5.570   4.664 -0.0789 -0.0370  0.0560
    1AU       S  311   9.109   5.649   4.681 -0.3372 -0.1238 -0.0670
    1AU     LIG  312   9.319   5.826   4.333 -0.3658 -0.1405 -0.0922
    1AU     LIG  313   9.726   6.052   4.283  0.2841  0.2974  0.1572
    1AU       S  314   8.820   6.189   4.583 -0.2825  0.2539 -0.1822
    1AU     LIG  315   8.850   6.544   4.342 -0.0703  0.5858  0.0517
    1AU     LIG  316   8.961   6.930   4.068  0.0160 -0.2455 -0.3713
    1AU    AUSL  317   8.147   5.633   5.107  0.0570  0.0364 -0.0053
    1AU    AUSL  318   8.239   5.198   5.133 -0.0460 -0.0823 -0.0027
    1AU     AUL  319   8.003   5.429   4.826  0.0115  0.1178  0.0286
    1AU       S  320   8.822   6.048   4.406  0.1705  0.1456 -0.0472
    1AU     LIG  321   9.098   6.124   4.047 -0.2407  0.2328  0.1312
    1AU     LIG  322   9.494   6.173   3.865 -0.0779 -0.0054  0.0123
    1AU       S  323   8.029   4.987   5.033  0.0143 -0.0163 -0.0781
    1AU     LIG  324   8.157   4.744   4.663  0.0452 -0.1644  0.2382
    1AU     LIG  325   8.073   4.397   4.447 -0.0880  0.0955 -0.1069
    2POPC   NC3  326   3.041   6.851   8.060  0.3241 -0.0710 -0.2925
    2POPC   PO4  327   3.085   7.235   7.866  0.0863  0.0472 -0.3454
    2POPC   GL1  328   3.116   7.072   7.464  0.1967 -0.2227  0.2205
    2POPC   GL2  329   3.200   7.419   7.278 -0.0663 -0.1000  0.0299
    2POPC   C1A  330   2.934   6.885   7.172  0.0613 -0.1575  0.1516
    2POPC   D2A  331   2.881   6.728   6.844  0.1085 -0.4655  0.0648
    2POPC   C3A  332   2.771   6.884   6.477  0.0014 -0.1277 -0.4192
    2POPC   C4A  333   2.753   7.143   6.097  0.0843  0.0337 -0.1305
    2POPC   C1B  334   3.074   7.295   6.920 -0.0284  0.2065 -0.1602
    2POPC   C2B  335   2.795   7.407   6.492 -0.1480  0.0713 -0.0387
    2POPC   C3B  336   2.585   7.693   6.149  0.2349 -0.0755  0.1172
    2POPC   C4B  337   2.128   7.855   6.066  0.0559 -0.0729 -0.3471
    3POPC   NC3  338   6.492   9.471   7.301 -0.1537  0.1426  0.1780
    3POPC   PO4  339   6.464   8.994   7.320  0.0261  0.1285 -0.2979
    3POPC   GL1  340   6.454   9.163   6.909 -0.1883 -0.0480  0.3588
    3POPC   GL2  341   6.156   9.018   6.856 -0.1932 -0.2877 -0.2621
    3POPC   C1A  342   6.368   9.330   6.430 -0.2538 -0.0063  0.4151
    3POPC   D2A  343   6.184   9.379   6.078 -0.0416  0.1975  0.0503
    3POPC   C3A  344   6.333   9.422   5.711 -0.0820 -0.0502  0.1248
    3POPC   C4A  345   6.432   9.511   5.267  0.1259 -0.4218  0.0463
    3POPC   C1B  346   6.244   8.854   6.497 -0.0225  0.2690  0.1787
    3POPC   C2B  347   6.485   8.972   6.127  0.1367 -0.1736 -0.2024
    3POPC   C3B  348   6.607   8.746   5.814 -0.0956 -0.0140  0.1190
    3POPC   C4B  349   6.302   8.622   5.559 -0.2323  0.1709 -0.0543
    4POPC   NC3  350   9.780   1.123   7.123  0.3304 -0.1654 -0.2482
    4POPC   PO4  351   9.571   1.463   7.416  0.2207  0.4103 -0.0234
    4POPC   GL1  352   9.640   1.594   7.072 -0.1234  0.1855  0.1097
    4POPC   GL2  353   9.637   2.041   6.966 -0.0966  0.0003 -0.0126
    4POPC   C1A  354  10.006   1.661   6.777 -0.0692  0.1485  0.1916
    4POPC   D2A  355  10.282   1.673   6.391  0.0712  0.0377 -0.0188
    4POPC   C3A  356  10.470   1.281   6.118  0.1208 -0.0782 -0.0190
    4POPC   C4A  357  10.291   1.001   5.971 -0.1575 -0.2128 -0.0554
    4POPC   C1B  358   9.824   2.082   6.622  0.1616 -0.0285  0.0380
    4POPC   C2B  359   9.770   2.178   6.031  0.0649 -0.2032  0.0797
    4POPC   C3B  360  10.044   2.273   5.704  0.0787 -0.3466 -0.1245
    4POPC   C4B  361  10.428   2.064   5.574  0.2311  0.0200  0.2539
    5POPC   NC3  362   4.463  10.548   7.804  0.0970  0.0513 -0.3074
    5POPC   PO4  363   4.791  10.627   7.692  0.0906 -0.2194  0.1302
    5POPC   GL1  364   4.732  10.934   7.386 -0.0694  0.1361  0.2080
    5POPC   GL2  365   4.507  10.883   7.207  0.0660  0.1041 -0.1261
    5POPC   C1A  366   4.934  11.059   7.012 -0.1162 -0.1146 -0.4370
    5POPC   D2A  367   4.861  11.084   6.604 -0.1503 -0.1391 -0.1106
    5POPC   C3A  368   5.236  11.000   6.487 -0.1413 -0.3295 -0.0375
    5POPC   C4A  369   5.401  10.815   6.165 -0.2791  0.0783 -0.1461
    5POPC   C1B  370   4.426  10.780   6.781 -0.1462  0.0670  0.0342
    5POPC   C2B  371   4.511  10.804   6.424  0.2910 -0.2962 -0.2305
    5POPC   C3B  372   4.826  10.857   6.115  0.1469  0.2668 -0.3321
    5POPC   C4B  373   5.054  10.997   5.848  0.0379  0.2696 -0.1857
    6POPC   NC3  374   5.541  10.433   7.456  0.0185 -0.0507 -0.3498
    6POPC   PO4  375   5.885  10.142   7.492  0.0950 -0.0989  0.2215
    6POPC   GL1  376   5.948  10.334   7.104 -0.0559 -0.1535  0.0030
    6POPC   GL2  377   5.808  10.611   6.979 -0.2762 -0.0501 -0.0981
    6POPC   C1A  378   6.157  10.447   6.694 -0.1824  0.0121  0.0008
    6POPC   D2A  379   6.310  10.603   6.336 -0.2113 -0.2278 -0.1479
    6POPC   C3A  380   6.618  10.453   5.985  0.2999 -0.0007 -0.0708
    6POPC   C4A  381   6.711  10.452   5.488  0.4001 -0.0012  0.1223
    6POPC   C1B  382   5.734  10.674   6.523 -0.0617  0.3944  0.1178
    6POPC   C2B  383   5.889  10.704   6.128  0.0077 -0.0008 -0.3775
    6POPC   C3B  384   6.040  10.837   5.692  0.2907  0.0363 -0.0061
    6POPC   C4B  385   5.956  11.147   5.360 -0.1646  0.0162  0.1113
    7POPC   NC3  386   8.674   8.693   7.417 -0.3227  0.0339 -0.1064
    7POPC   PO4  387   8.876   9.070   7.221  0.0868 -0.1242  0.1227
    7POPC   GL1  388   8.875   9.132   6.805 -0.2317  0.0939  0.1728
    7POPC   GL2  389   9.065   9.393   6.687  0.1785  0.0129  0.1462
    7POPC   C1A  390   8.910   9.073   6.307 -0.0956 -0.0804  0.1014
    7POPC   D2A  391   8.972   9.140   5.891 -0.1936  0.1293 -0.0697
    7POPC   C3A  392   8.715   9.031   5.550  0.2327  0.0519  0.0561
    7POPC   C4A  393   8.820   8.657   5.368 -0.5510 -0.1635  0.0816
    7POPC   C1B  394   9.525   9.021   6.623 -0.1809 -0.0917  0.0696
    7POPC   C2B  395   9.945   9.073   6.495 -0.2683 -0.0256 -0.1424
    7POPC   C3B  396  10.097   8.954   6.135 -0.0825  0.4124 -0.0139
    7POPC   C4B  397  10.022   8.560   5.818 -0.2334 -0.2819  0.0339
    8POPC   NC3  398   5.438   3.406   7.703  0.1509 -0.0559  0.2919
    8POPC   PO4  399   5.506   3.853   7.844 -0.3730 -0.1171 -0.1871
    8POPC   GL1  400   5.796   4.032   7.527 -0.0330 -0.4361 -0.2163
    8POPC   GL2  401   5.750   3.835   7.281  0.1721  0.0161  0.0991
    8POPC   C1A  402   6.010   4.314   7.426 -0.1771 -0.1419 -0.2354
    8POPC   D2A  403   6.400   4.554   7.460 -0.0972 -0.0017  0.3717
    8POPC   C3A  404   6.653   4.550   7.065  0.1857  0.0628 -0.1029
    8POPC   C4A  405   6.832   4.450   6.645  0.1643 -0.4219 -0.0709
    8POPC   C1B  406   5.923   3.748   6.878  0.0652  0.2444 -0.0428
    8POPC   C2B  407   6.077   3.894   6.575  0.2643  0.0162 -0.2212
    8POPC   C3B  408   5.952   3.868   6.147 -0.1943 -0.1800 -0.1263
    8POPC   C4B  409   5.861   3.711   5.699 -0.0306 -0.3118  0.1875
    9POPC   NC3  410   6.223   8.542   7.259  0.1604 -0.1458 -0.0058
    9POPC   PO4  411   6.015   8.111   7.514 -0.5141  0.1236 -0.0791
    9POPC   GL1  412   5.961   7.974   7.128  0.3936  0.1263 -0.2261
    9POPC   GL2  413   5.900   7.667   7.026  0.1654 -0.0092 -0.1952
    9POPC   C1A  414   5.696   8.084   6.788  0.1374 -0.2342  0.3496
    9POPC   D2A  415   5.863   7.781   6.379 -0.1080  0.0441 -0.1012
    9POPC   C3A  416   5.898   7.446   6.072 -0.1504 -0.2169 -0.2208
    9POPC   C4A  417   5.840   7.294   5.622 -0.2047 -0.1420  0.1242
    9POPC   C1B  418   5.908   7.387   6.689 -0.0150  0.2528  0.0366
    9POPC   C2B  419   5.595   7.223   6.403  0.2679 -0.3436 -0.2971
    9POPC   C3B  420   5.585   6.985   6.085 -0.1001 -0.0638 -0.3541
    9POPC   C4B  421   5.403   6.602   6.153  0.1299  0.4250  0.1643
   10POPC   NC3  422   3.960   3.399   7.623 -0.2353 -0.1396  0.1127
   10POPC   PO4  423   3.688   2.937   7.568  0.1526 -0.4609  0.2335
   10POPC   GL1  424   3.611   3.033   7.133 -0.2157 -0.0078  0.1588
   10POPC   GL2  425   3.379   2.818   6.922  0.0151  0.0595  0.1011
   10POPC   C1A  426   3.879   2.928   6.701  0.1264 -0.2538 -0.0251
   10POPC   D2A  427   3.794   2.764   6.387  0.0032  0.0006  0.1288
   10POPC   C3A  428   3.738   3.116   6.052 -0.2103 -0.1365 -0.0503
   10POPC   C4A  429   3.377   3.418   6.004  0.1433 -0.3482 -0.2191
   10POPC   C1B  430   3.287   2.662   6.586  0.0657  0.2128 -0.1401
   10POPC   C2B  431   2.940   2.532   6.215  0.0025  0.0666 -0.0381
   10POPC   C3B  432   3.026   2.243   5.951  0.4145 -0.1070 -0.0730
   10POPC   C4B  433   2.717   2.149   5.751  0.2259  0.1354 -0.1488
   11POPC   NC3  434   7.378   8.997   7.324 -0.0894 -0.0057 -0.0383
   11POPC   PO4  435   7.226   8.502   7.357  0.1002  0.3744  0.2591
   11POPC   GL1  436   7.273   8.564   6.957  0.2393 -0.0652 -0.1190
   11POPC   GL2  437   7.304   8.311   6.826  0.3942 -0.0655 -0.2543
   11POPC   C1A  438   7.263   8.698   6.500 -0.2011  0.0198  0.0614
   11POPC   D2A  439   7.137   8.516   6.041 -0.2152  0.1554  0.1310
   11POPC   C3A  440   7.314   8.378   5.777 -0.1652  0.3037  0.0540
   11POPC   C4A  441   6.993   8.213   5.510  0.0314  0.2006  0.2921
   11POPC   C1B  442   7.340   8.186   6.405 -0.0794  0.3694  0.1731
   11POPC   C2B  443   7.149   7.921   6.093 -0.4776 -0.1086 -0.1577
   11POPC   C3B  444   6.788   7.705   5.916  0.2477 -0.0589 -0.0104
   11POPC   C4B  445   6.407   7.475   5.862 -0.0763  0.1019 -0.2333
   12POPC   NC3  446  10.256  10.586   7.509 -0.0888 -0.1989 -0.1633
   12POPC   PO4  447  10.343  10.966   7.363 -0.0002  0.0321  0.0139
   12POPC   GL1  448  10.481  10.754   7.016  0.0070 -0.0466 -0.1508
   12POPC   GL2  449  10.464  10.995   6.776  0.0578 -0.2447  0.0246
   12POPC   C1A  450  10.479  10.513   6.691 -0.0584 -0.0260 -0.0397
   12POPC   D2A  451  10.429  10.375   6.372  0.0956 -0.2784 -0.1680
   12POPC   C3A  452  10.394  10.004   6.285  0.3059  0.2952 -0.1748
   12POPC   C4A  453  10.637   9.675   6.150  0.0559 -0.1026 -0.0725
   12POPC   C1B  454  10.634  11.121   6.319  0.0727  0.2972  0.2454
   12POPC   C2B  455  10.697  11.040   5.801  0.0803  0.1800  0.0933
   12POPC   C3B  456  10.802  11.092   5.334 -0.0254  0.0567  0.2254
   12POPC   C4B  457  10.822  10.997   4.849 -0.0644 -0.2100 -0.4565
   13POPC   NC3  458   1.145   3.002   7.675 -0.0283 -0.1725  0.1950
   13POPC   PO4  459   0.952   3.469   7.780  0.1937  0.2427 -0.0326
   13POPC   GL1  460   0.872   3.366   7.384  0.7007  0.2271 -0.2393
   13POPC   GL2  461   0.741   3.109   7.304  0.2736  0.1796  0.0427
   13POPC   C1A  462   0.989   3.636   7.120  0.0598 -0.1635 -0.0668
   13POPC   D2A  463   1.133   3.765   6.714  0.3860 -0.0520 -0.1287
   13POPC   C3A  464   1.180   4.123   6.382 -0.0718  0.1079 -0.1657
   13POPC   C4A  465   1.413   4.263   6.031 -0.0861 -0.0878  0.1291
   13POPC   C1B  466   0.803   2.999   6.898 -0.0676 -0.1638 -0.1106
   13POPC   C2B  467   0.894   3.019   6.516  0.1739  0.3999  0.3546
   13POPC   C3B  468   0.986   3.031   6.143 -0.0249  0.2455  0.2521
   13POPC   C4B  469   0.916   3.236   5.716  0.0253  0.0109 -0.2903
   14POPC   NC3  470   3.646  10.431   7.625 -0.1034 -0.0368  0.2694
   14POPC   PO4  471   3.992  10.142   7.700  0.0320  0.2282 -0.0411
   14POPC   GL1  472   3.865  10.008   7.352  0.0689 -0.1201  0.1492
   14POPC   GL2  473   3.779   9.701   7.344  0.0975  0.0851  0.0900
   14POPC   C1A  474   3.663  10.197   6.995 -0.1432 -0.1547  0.2496
   14POPC   D2A  475   3.480  10.620   6.984 -0.0942  0.1217  0.0270
   14POPC   C3A  476   3.159  10.797   6.722 -0.3496  0.0459  0.1697
   14POPC   C4A  477   2.718  10.955   6.531 -0.0849  0.2616 -0.1269
   14POPC   C1B  478   3.913   9.776   6.874 -0.0805 -0.0675 -0.1806
   14POPC   C2B  479   4.177   9.805   6.473 -0.1881 -0.1280 -0.0713
   14POPC   C3B  480   4.241  10.000   6.070 -0.1669  0.4954  0.1292
   14POPC   C4B  481   4.269   9.982   5.654  0.1119  0.3461 -0.1834
   15POPC   NC3  482   3.503   3.585   7.914 -0.1980  0.1739 -0.2150
   15POPC   PO4  483   3.474   3.417   7.413 -0.0189 -0.1054 -0.1245
   15POPC   GL1  484   3.427   3.686   7.031  0.2400  0.1449  0.1508
   15POPC   GL2  485   3.264   3.372   6.948 -0.1230 -0.0057 -0.0027
   15POPC   C1A  486   3.687   3.705   6.691  0.2943  0.1570  0.1563
   15POPC   D2A  487   3.724   3.386   6.468 -0.0005  0.3028  0.1499
   15POPC   C3A  488   3.389   3.133   6.483 -0.3493 -0.0479 -0.0543
   15POPC   C4A  489   3.223   2.938   6.145 -0.2764 -0.1149 -0.1235
   15POPC   C1B  490   3.218   3.587   6.591 -0.4122 -0.0637 -0.2265
   15POPC   C2B  491   3.383   3.895   6.222 -0.1398  0.4173  0.4655
   15POPC   C3B  492   3.280   4.184   5.883  0.1555 -0.3204  0.0880
   15POPC   C4B  493   3.289   4.609   5.715  0.2608  0.2287  0.0679
   16POPC   NC3  494  10.043   3.341   7.763  0.1418  0.0793  0.1010
   16POPC   PO4  495  10.309   3.649   7.505  0.0371  0.0862 -0.2884
   16POPC   GL1  496  10.312   3.650   7.043  0.2104 -0.2540  0.0889
   16POPC   GL2  497  10.597   3.558   6.834 -0.0173  0.1747 -0.2112
   16POPC   C1A  498  10.131   3.816   6.592 -0.0728  0.0889 -0.2821
   16POPC   D2A  499   9.894   3.676   6.298 -0.0437  0.2358 -0.1056
   16POPC   C3A  500  10.066   3.498   5.934 -0.1651 -0.3436 -0.3570
   16POPC   C4A  501  10.009   3.719   5.575 -0.2301 -0.2320  0.2476
   16POPC   C1B  502  10.849   3.637   6.447 -0.1717 -0.0286 -0.0322
   16POPC   C2B  503  10.948   3.498   5.993 -0.1626 -0.1755 -0.3557
   16POPC   C3B  504  11.270   3.387   5.694  0.1295  0.1435 -0.3137
   16POPC   C4B  505  11.638   3.692   5.607  0.2145  0.0047  0.2410
   17POPC   NC3  506   8.115   9.752   7.526  0.0329 -0.0754  0.4339
   17POPC   PO4  507   8.333   9.508   7.285  0.1943  0.1262  0.0052
   17POPC   GL1  508   8.255   9.654   6.938  0.0316  0.1357 -0.0254
   17POPC   GL2  509   7.857   9.708   6.909  0.0308  0.0194 -0.0135
   17POPC   C1A  510   8.199   9.761   6.531 -0.0862 -0.2683 -0.2996
   17POPC   D2A  511   8.322   9.798   6.131  0.1966  0.1011  0.1649
   17POPC   C3A  512   8.325   9.356   5.900 -0.0409 -0.0404  0.0927
   17POPC   C4A  513   8.280   9.229   5.436 -0.3058  0.1498  0.0044
   17POPC   C1B  514   7.541   9.912   6.583 -0.0444 -0.0294  0.1200
   17POPC   C2B  515   7.465  10.091   6.222 -0.3745  0.0165 -0.1407
   17POPC   C3B  516   7.578  10.339   5.873 -0.2509  0.2831  0.1784
   17POPC   C4B  517   7.965  10.568   5.750  0.1992  0.1398  0.1219
   18POPC   NC3  518   8.408   7.557   7.700 -0.2520 -0.0260  0.2800
   18POPC   PO4  519   8.287   7.741   7.391 -0.1434 -0.0092  0.0347
   18POPC   GL1  520   8.481   7.651   7.018  0.0849  0.0373  0.2202
   18POPC   GL2  521   8.401   7.876   6.880  0.3165 -0.1235 -0.0774
   18POPC   C1A  522   8.620   7.341   6.745  0.3073 -0.2505  0.0311
   18POPC   D2A  523   8.489   7.074   6.544 -0.0713  0.0776 -0.0721
   18POPC   C3A  524   8.156   7.224   6.325  0.2713 -0.3472  0.0407
   18POPC   C4A  525   7.880   7.382   5.951 -0.1345 -0.0250 -0.1570
   18POPC   C1B  526   8.733   7.984   6.610 -0.0020  0.0294 -0.1789
   18POPC   C2B  527   8.961   8.114   6.380  0.1712 -0.0675 -0.3398
   18POPC   C3B  528   9.138   8.182   5.890  0.4099  0.0935  0.3509
   18POPC   C4B  529   9.105   8.187   5.449 -0.0106 -0.1038 -0.1411
   19POPC   NC3  530   5.037   1.249   7.906  0.0095  0.1432  0.1851
   19POPC   PO4  531   4.887   1.642   7.713  0.0171 -0.0366  0.0856
   19POPC   GL1  532   5.053   1.707   7.277  0.0139  0.3966  0.1213
   19POPC   GL2  533   5.314   1.823   7.224 -0.0132 -0.3850 -0.1042
   19POPC   C1A  534   5.063   1.615   6.808  0.2094 -0.0534  0.2402
   19POPC   D2A  535   5.229   1.274   6.633 -0.1387 -0.1904  0.1912
   19POPC   C3A  536   5.512   1.019   6.670  0.0165  0.0815  0.2744
   19POPC   C4A  537   5.756   1.067   6.955 -0.2466  0.0387  0.0416
   19POPC   C1B  538   5.335   2.015   6.781  0.1647 -0.0691 -0.0779
   19POPC   C2B  539   5.119   2.258   6.441 -0.1223 -0.0305 -0.0411
   19POPC   C3B  540   5.228   2.325   6.096 -0.1032  0.3416 -0.1319
   19POPC   C4B  541   5.332   2.782   5.907 -0.0025 -0.2314  0.2575
   20POPC   NC3  542   3.049   2.183   7.551 -0.0727 -0.0005  0.0383
   20POPC   PO4  543   3.103   1.772   7.765 -0.3504  0.1487  0.1459
   20POPC   GL1  544   3.239   1.556   7.382 -0.0810 -0.1013 -0.0912
   20POPC   GL2  545   3.587   1.586   7.190  0.1330  0.0833 -0.0643
   20POPC   C1A  546   3.196   1.360   7.014 -0.0908  0.3538 -0.1306
   20POPC   D2A  547   3.281   1.013   6.680  0.1384  0.0694  0.0175
   20POPC   C3A  548   3.439   1.059   6.292  0.0691 -0.0848  0.1304
   20POPC   C4A  549   3.721   0.947   5.882  0.0883 -0.0106  0.6315
   20POPC   C1B  550   3.598   1.461   6.729 -0.1911 -0.2366  0.1742
   20POPC   C2B  551   3.872   1.299   6.359  0.0637  0.0734 -0.0035
   20POPC   C3B  552   4.169   1.209   5.988  0.3513  0.1719 -0.1384
   20POPC   C4B  553   4.084   1.112   5.577 -0.1033  0.5002 -0.2963
   21POPC   NC3  554   1.482   7.202   7.709 -0.1289 -0.0219  0.3312
   21POPC   PO4  555   1.551   7.649   7.722  0.0921  0.1564 -0.3907
   21POPC   GL1  556   1.383   7.704   7.294  0.3211  0.1649 -0.1907
   21POPC   GL2  557   1.200   7.370   7.207  0.0277 -0.0684  0.2111
   21POPC   C1A  558   1.461   7.773   6.822  0.2475 -0.0658 -0.3283
   21POPC   D2A  559   1.380   7.441   6.527 -0.0456 -0.1908 -0.1231
   21POPC   C3A  560   1.537   7.460   6.113  0.1282 -0.0405 -0.3241
   21POPC   C4A  561   1.523   7.261   5.728 -0.1311 -0.2173  0.2838
   21POPC   C1B  562   1.294   7.094   6.829  0.1604 -0.0255 -0.0425
   21POPC   C2B  563   1.241   6.997   6.430  0.1704  0.0106  0.1779
   21POPC   C3B  564   1.198   6.984   6.010  0.1037  0.0062 -0.2271
   21POPC   C4B  565   1.302   6.837   5.572  0.3284 -0.0769 -0.0916
   22POPC   NC3  566   0.682   9.504   7.522  0.2637  0.1499  0.2146
   22POPC   PO4  567   0.557   9.994   7.503 -0.0555 -0.2886  0.1980
   22POPC   GL1  568   0.509  10.209   7.129 -0.3128 -0.0093  0.3264
   22POPC   GL2  569   0.362   9.974   6.941  0.0503  0.3046  0.0224
   22POPC   C1A  570   0.416  10.466   6.786 -0.1025  0.1789 -0.1223
   22POPC   D2A  571   0.489  10.742   6.433  0.3989  0.0203 -0.0469
   22POPC   C3A  572   0.361  10.551   6.042 -0.0937  0.0982 -0.5164
   22POPC   C4A  573   0.171  10.282   5.688 -0.1586 -0.0159 -0.3211
   22POPC   C1B  574   0.378   9.915   6.463  0.1410  0.0392 -0.1740
   22POPC   C2B  575   0.630   9.776   6.151  0.0312 -0.0073 -0.2628
   22POPC   C3B  576   0.792   9.758   5.753 -0.2819  0.0445 -0.0480
   22POPC   C4B  577   1.102   9.670   5.446 -0.0795 -0.2900 -0.0585
   23POPC   NC3  578   4.782  10.093   7.828 -0.2514  0.2506  0.2177
   23POPC   PO4  579   5.112   9.745   7.915 -0.0731  0.1156  0.4220
   23POPC   GL1  580   5.256  10.047   7.418  0.3694  0.0225 -0.0092
   23POPC   GL2  581   5.013  10.270   7.407 -0.2541 -0.3880 -0.1389
   23POPC   C1A  582   5.193  10.058   7.012  0.0468  0.1237  0.0520
   23POPC   D2A  583   5.222   9.847   6.611  0.2287  0.1936  0.0118
   23POPC   C3A  584   5.569   9.744   6.392 -0.2053  0.0337  0.0702
   23POPC   C4A  585   5.804   9.629   6.060 -0.0702 -0.2345  0.0595
   23POPC   C1B  586   4.892  10.517   7.020 -0.2591  0.0760  0.0657
   23POPC   C2B  587   4.660  10.388   6.614 -0.0776  0.1179  0.1495
   23POPC   C3B  588   4.633  10.387   6.139 -0.0686 -0.1803 -0.1920
   23POPC   C4B  589   4.767  10.162   5.801  0.0019  0.3980  0.1274
   24POPC   NC3  590   2.692   3.327   8.053 -0.2134 -0.1377  0.1250
   24POPC   PO4  591   2.968   3.676   7.765 -0.1838 -0.0432 -0.1173
   24POPC   GL1  592   2.782   3.827   7.426 -0.0195 -0.0027  0.2360
   24POPC   GL2  593   2.628   3.586   7.145 -0.0127  0.0099 -0.0540
   24POPC   C1A  594   3.017   3.956   7.092 -0.2423 -0.3499  0.1078
   24POPC   D2A  595   3.151   4.107   6.593 -0.2027 -0.2504 -0.1199
   24POPC   C3A  596   2.913   4.286   6.200  0.0924 -0.0328  0.0982
   24POPC   C4A  597   2.765   4.615   5.838 -0.0783  0.1932  0.0889
   24POPC   C1B  598   2.550   3.452   6.684  0.2336  0.1510  0.1765
   24POPC   C2B  599   2.437   3.518   6.169 -0.2771 -0.0216  0.0834
   24POPC   C3B  600   2.454   3.722   5.748 -0.0866  0.0372 -0.0295
   24POPC   C4B  601   2.393   3.805   5.373 -0.0127  0.1980 -0.3669
   25POPC   NC3  602   1.922   4.762   7.814  0.1700 -0.0653  0.1563
   25POPC   PO4  603   1.731   5.020   7.995  0.0312 -0.0011  0.3154
   25POPC   GL1  604   1.787   5.203   7.544  0.1267  0.1149  0.0751
   25POPC   GL2  605   2.123   5.224   7.470 -0.1100 -0.1949  0.0754
   25POPC   C1A  606   1.658   5.167   7.069  0.2598 -0.0541 -0.0983
   25POPC   D2A  607   1.839   5.182   6.729 -0.0878 -0.1761 -0.0385
   25POPC   C3A  608   1.817   5.276   6.298 -0.1516  0.0266  0.0940
   25POPC   C4A  609   1.988   5.494   6.008  0.1701 -0.3610 -0.0913
   25POPC   C1B  610   2.236   5.372   7.125 -0.0922  0.0201 -0.2427
   25POPC   C2B  611   2.011   5.685   6.838  0.1928 -0.2029  0.0486
   25POPC   C3B  612   1.691   5.791   6.493  0.0961 -0.1874  0.1851
   25POPC   C4B  613   1.288   6.065   6.319  0.2947  0.2498  0.5570
   26POPC   NC3  614   3.369   8.573   7.556 -0.0584  0.0828 -0.0519
   26POPC   PO4  615   3.626   8.893   7.386  0.1068 -0.2013  0.0149
   26POPC   GL1  616   3.503   8.617   7.032 -0.1080 -0.2763  0.2772
   26POPC   GL2  617   3.201   8.604   7.052  0.3481  0.0323 -0.0692
   26POPC   C1A  618   3.407   8.407   6.679  0.1250 -0.0214 -0.1544
   26POPC   D2A  619   3.257   8.092   6.524  0.4376 -0.3448  0.0610
   26POPC   C3A  620   3.023   8.045   6.107  0.2556  0.0919  0.1836
   26POPC   C4A  621   2.736   8.213   5.888  0.4169 -0.0080  0.0961
   26POPC   C1B  622   3.148   8.835   6.667 -0.2989  0.1354 -0.1349
   26POPC   C2B  623   3.380   8.929   6.317 -0.3421  0.0526  0.0595
   26POPC   C3B  624   3.567   8.789   5.945  0.1425 -0.1198 -0.0462
   26POPC   C4B  625   3.604   8.343   5.809 -0.2490 -0.2563  0.2276
   27POPC   NC3  626   2.054   7.414   7.683  0.1320 -0.0347 -0.0585
   27POPC   PO4  627   2.461   7.651   7.774 -0.0306  0.0878 -0.1348
   27POPC   GL1  628   2.682   7.599   7.296 -0.0528 -0.1233  0.2403
   27POPC   GL2  629   2.689   7.378   7.380  0.1207  0.1589 -0.1857
   27POPC   C1A  630   2.720   7.731   6.933 -0.1887  0.4083 -0.1193
   27POPC   D2A  631   2.382   7.741   6.619 -0.1600 -0.1025  0.3098
   27POPC   C3A  632   2.270   7.340   6.244 -0.1796  0.1460 -0.1461
   27POPC   C4A  633   2.251   6.915   6.026 -0.1029 -0.1865  0.1967
   27POPC   C1B  634   2.527   7.218   7.011  0.0162 -0.0543  0.0381
   27POPC   C2B  635   2.151   7.244   6.812  0.0751  0.1828 -0.1185
   27POPC   C3B  636   1.968   7.604   6.789  0.1915  0.0754 -0.1970
   27POPC   C4B  637   2.005   8.092   6.711  0.1140 -0.2501  0.0825
   28POPC   NC3  638   5.057   0.247   7.704 -0.3760 -0.3536 -0.1390
   28POPC   PO4  639   5.379   0.462   7.496  0.0506  0.2050 -0.1094
   28POPC   GL1  640   5.524   0.417   7.109  0.2011  0.1644 -0.0744
   28POPC   GL2  641   5.517   0.121   6.950  0.0255  0.4515  0.4359
   28POPC   C1A  642   5.647   0.581   6.788 -0.0809 -0.0989 -0.1377
   28POPC   D2A  643   5.850   0.715   6.432 -0.2514 -0.1753 -0.1389
   28POPC   C3A  644   5.679   0.663   6.191  0.2673  0.0217 -0.1918
   28POPC   C4A  645   5.460   0.379   6.070 -0.0602 -0.0483  0.1905
   28POPC   C1B  646   5.307  -0.236   6.820 -0.0320 -0.0276  0.0812
   28POPC   C2B  647   5.217  -0.431   6.476 -0.2494 -0.1060  0.0482
   28POPC   C3B  648   5.147  -0.430   5.969  0.0775 -0.1096 -0.0734
   28POPC   C4B  649   5.191  -0.598   5.578 -0.1889  0.0736 -0.2771
   29POPC   NC3  650   7.195  10.340   7.457 -0.0649  0.1467 -0.1143
   29POPC   PO4  651   7.458  10.690   7.595  0.2273  0.0633  0.0958
   29POPC   GL1  652   7.510  10.786   7.217  0.2285  0.0846  0.0660
   29POPC   GL2  653   7.262  10.598   7.009 -0.4880 -0.2098 -0.0309
   29POPC   C1A  654   7.719  10.659   6.845 -0.0833  0.0311  0.2883
   29POPC   D2A  655   8.148  10.726   6.766  0.3670 -0.2461  0.0366
   29POPC   C3A  656   8.525  10.772   6.460 -0.0821 -0.0428  0.2158
   29POPC   C4A  657   8.770  10.623   6.148 -0.0739  0.1428  0.2510
   29POPC   C1B  658   6.898  10.580   6.930  0.1247 -0.2451 -0.1319
   29POPC   C2B  659   6.479  10.585   7.046  0.1968  0.0632 -0.2295
   29POPC   C3B  660   6.130  10.917   6.863  0.0065 -0.2243  0.5521
   29POPC   C4B  661   5.841  11.116   6.542  0.1911 -0.0798 -0.3146
   30POPC   NC3  662   4.967   2.192   7.415  0.0719 -0.2151 -0.1591
   30POPC   PO4  663   5.426   2.320   7.585  0.3023  0.1682 -0.2125
   30POPC   GL1  664   5.321   2.371   7.102  0.0515 -0.0957  0.0387
   30POPC   GL2  665   5.122   2.539   6.964  0.1957 -0.0924  0.0896
   30POPC   C1A  666   5.595   2.456   6.796 -0.3280  0.0665 -0.2510
   30POPC   D2A  667   5.578   2.576   6.299  0.0226  0.0693 -0.1305
   30POPC   C3A  668   5.698   2.402   5.896 -0.3349 -0.3061 -0.2195
   30POPC   C4A  669   5.400   2.368   5.612 -0.0054 -0.3701 -0.1628
   30POPC   C1B  670   5.166   2.807   6.677  0.0770 -0.2651 -0.3590
   30POPC   C2B  671   4.978   3.093   6.414  0.1176 -0.0726  0.3488
   30POPC   C3B  672   5.119   3.470   6.190  0.4933 -0.0278  0.3455
   30POPC   C4B  673   5.375   3.808   6.019 -0.0171  0.0216  0.1406
   31POPC   NC3  674   5.192   8.404   7.520  0.0792 -0.0795  0.1679
   31POPC   PO4  675   5.119   8.818   7.406  0.1818  0.3569 -0.1526
   31POPC   GL1  676   5.295   8.603   7.080 -0.1823  0.3015  0.0503
   31POPC   GL2  677   4.967   8.409   7.024 -0.0641 -0.2224  0.0408
   31POPC   C1A  678   5.470   8.537   6.627 -0.1163  0.0699  0.2499
   31POPC   D2A  679   5.638   8.355   6.331  0.1135 -0.1255 -0.0578
   31POPC   C3A  680   6.055   8.248   6.488 -0.1022 -0.2257 -0.0255
   31POPC   C4A  681   6.325   7.942   6.771  0.2858 -0.2099 -0.1083
   31POPC   C1B  682   4.815   8.422   6.597 -0.0037 -0.0693 -0.0028
   31POPC   C2B  683   4.726   8.612   6.209  0.1727 -0.0258 -0.2033
   31POPC   C3B  684   4.827   9.033   6.117 -0.3550 -0.1208 -0.1185
   31POPC   C4B  685   4.873   9.423   6.332  0.0311 -0.0712 -0.2683
   32POPC   NC3  686  10.525   9.099   7.702  0.0176 -0.0688 -0.2791
   32POPC   PO4  687  10.683   9.381   7.302  0.0967 -0.1939 -0.2254
   32POPC   GL1  688  10.682   9.327   6.855 -0.2373  0.0945  0.2163
   32POPC   GL2  689  10.604   9.022   6.729  0.0261  0.1575 -0.2622
   32POPC   C1A  690  10.999   9.456   6.674  0.0864 -0.0338 -0.0012
   32POPC   D2A  691  11.094   9.427   6.288 -0.0118 -0.2698  0.0106
   32POPC   C3A  692  10.955   9.162   6.001 -0.1432 -0.3927 -0.2846
   32POPC   C4A  693  10.885   9.021   5.649  0.1438 -0.0378  0.2716
   32POPC   C1B  694  10.569   9.078   6.303  0.0212 -0.0806 -0.1122
   32POPC   C2B  695  10.374   9.310   5.993 -0.3237  0.0051  0.1463
   32POPC   C3B  696  10.648   9.481   5.667  0.0664 -0.1082 -0.2069
   32POPC   C4B  697  10.877   9.561   5.264  0.2118  0.1761  0.3428
   33POPC   NC3  698   9.668   2.412   7.569 -0.1791 -0.0910 -0.0456
   33POPC   PO4  699   9.311   2.486   7.503  0.1596  0.1488 -0.2170
   33POPC   GL1  700   9.381   2.474   7.159 -0.1688  0.1203  0.0014
   33POPC   GL2  701   9.354   2.837   7.102  0.1111  0.3852  0.0617
   33POPC   C1A  702   9.432   2.482   6.737 -0.0136  0.1691  0.2047
   33POPC   D2A  703   9.429   2.239   6.395 -0.1996  0.1256 -0.0127
   33POPC   C3A  704   8.997   2.329   6.160 -0.1429 -0.0439 -0.1190
   33POPC   C4A  705   8.550   2.218   5.998 -0.0763  0.0727 -0.0249
   33POPC   C1B  706   9.625   3.027   6.783 -0.0200 -0.0796  0.0756
   33POPC   C2B  707  10.001   2.910   6.629 -0.0067  0.0735  0.1348
   33POPC   C3B  708  10.374   2.689   6.479  0.1371  0.0358  0.0532
   33POPC   C4B  709  10.766   2.587   6.227  0.0148  0.0227 -0.1507
   34POPC   NC3  710   9.151   9.359   7.561  0.3122  0.2219 -0.0156
   34POPC   PO4  711   9.288   9.489   7.114  0.2247  0.3671  0.1539
   34POPC   GL1  712   9.309   9.886   6.815 -0.0235 -0.2106 -0.1114
   34POPC   GL2  713   9.481  10.164   6.882  0.2388 -0.0796  0.1407
   34POPC   C1A  714   9.503  10.145   6.434 -0.0710  0.0366  0.0368
   34POPC   D2A  715   9.366  10.355   6.142  0.1515  0.5504  0.1074
   34POPC   C3A  716   9.280  10.541   5.744 -0.1519 -0.2258 -0.4095
   34POPC   C4A  717   8.850  10.378   5.541 -0.2223  0.0651 -0.1572
   34POPC   C1B  718   9.555  10.614   6.747 -0.2768  0.3209  0.2718
   34POPC   C2B  719   9.703  10.682   6.381  0.1685 -0.0846  0.3281
   34POPC   C3B  720   9.730  10.671   5.941  0.1221 -0.3420  0.0896
   34POPC   C4B  721   9.794  10.760   5.468  0.1304  0.3513  0.0803
   35POPC   NC3  722   6.358   0.162   8.297  0.1177 -0.1505 -0.1559
   35POPC   PO4  723   6.314   0.460   7.859  0.2184  0.1862  0.1548
   35POPC   GL1  724   6.254   0.348   7.410  0.0926 -0.1376  0.1351
   35POPC   GL2  725   5.978   0.517   7.267  0.0081 -0.0522  0.0037
   35POPC   C1A  726   6.534   0.132   7.078  0.0478  0.2116 -0.2724
   35POPC   D2A  727   6.665   0.037   6.639  0.0919 -0.1161  0.1376
   35POPC   C3A  728   6.819  -0.264   6.401  0.1462 -0.0881  0.2572
   35POPC   C4A  729   7.091  -0.472   6.061  0.3497 -0.0382  0.0182
   35POPC   C1B  730   6.263   0.683   6.907 -0.2616  0.2605 -0.0626
   35POPC   C2B  731   6.343   0.421   6.600 -0.0786  0.1431  0.2939
   35POPC   C3B  732   6.275   0.608   6.189  0.1586  0.0354 -0.1521
   35POPC   C4B  733   6.494   0.885   5.838 -0.3125  0.1537  0.1482
   36POPC   NC3  734   2.518   2.374   7.814  0.0693 -0.0919  0.1494
   36POPC   PO4  735   2.437   2.596   7.411 -0.1701 -0.2651  0.0671
   36POPC   GL1  736   2.447   2.515   6.929  0.0811  0.0830  0.3067
   36POPC   GL2  737   2.722   2.555   6.778  0.1912 -0.1747  0.0642
   36POPC   C1A  738   2.417   2.852   6.497  0.2312 -0.0510 -0.2052
   36POPC   D2A  739   2.432   3.025   6.085  0.1288 -0.0774 -0.2076
   36POPC   C3A  740   2.812   2.938   5.891  0.1088  0.1345  0.2568
   36POPC   C4A  741   3.068   2.620   5.619  0.0001 -0.4492 -0.2159
   36POPC   C1B  742   2.450   2.360   6.423  0.1249 -0.2189  0.0604
   36POPC   C2B  743   2.483   2.540   5.942 -0.3015 -0.0813  0.2784
   36POPC   C3B  744   2.149   2.327   5.635 -0.0182 -0.0777  0.3779
   36POPC   C4B  745   2.021   2.421   5.218  0.2221  0.0303  0.2599
   37POPC   NC3  746   1.118   2.198   7.476  0.0141 -0.1810 -0.1366
   37POPC   PO4  747   0.975   2.587   7.387  0.3218 -0.0363 -0.0251
   37POPC   GL1  748   1.283   2.469   7.009  0.0320 -0.0790  0.2029
   37POPC   GL2  749   1.440   2.677   6.916  0.0825  0.1389 -0.2460
   37POPC   C1A  750   1.223   2.168   6.663 -0.0761 -0.0203 -0.0969
   37POPC   D2A  751   1.273   2.208   6.196 -0.2041 -0.0524  0.0981
   37POPC   C3A  752   1.701   2.429   5.984 -0.2283 -0.1647 -0.0981
   37POPC   C4A  753   2.062   2.484   6.156  0.0491 -0.0051 -0.1409
   37POPC   C1B  754   1.359   2.656   6.530  0.0557 -0.2178  0.1571
   37POPC   C2B  755   1.456   2.834   6.222  0.0739  0.0428 -0.2181
   37POPC   C3B  756   1.817   2.933   6.019  0.0902  0.1163 -0.1615
   37POPC   C4B  757   2.112   2.933   5.728 -0.2077  0.2148 -0.2776
   38POPC   NC3  758   4.195   8.265   8.040 -0.2109  0.1111 -0.0060
   38POPC   PO4  759   4.277   8.246   7.673  0.1087 -0.1156 -0.0625
   38POPC   GL1  760   4.342   8.308   7.216 -0.0098  0.0672 -0.0542
   38POPC   GL2  761   4.599   8.051   7.192  0.0735  0.3555  0.0867
   38POPC   C1A  762   4.381   8.292   6.782 -0.2761 -0.0356 -0.2692
   38POPC   D2A  763   4.284   8.446   6.414 -0.1160  0.1817  0.0687
   38POPC   C3A  764   4.311   8.776   6.024  0.0661 -0.1872  0.0842
   38POPC   C4A  765   4.553   8.652   5.721 -0.2490 -0.1354 -0.1826
   38POPC   C1B  766   4.712   7.888   6.811  0.2070 -0.2820 -0.0152
   38POPC   C2B  767   4.856   7.771   6.474 -0.1770 -0.3272 -0.1293
   38POPC   C3B  768   4.929   7.810   6.067  0.1604  0.1060  0.2269
   38POPC   C4B  769   5.152   7.816   5.675 -0.2659 -0.2269 -0.2776
   39POPC   NC3  770   0.430   7.897   7.325  0.0704 -0.0126 -0.1710
   39POPC   PO4  771   0.162   7.730   7.537  0.1964 -0.0612  0.1892
   39POPC   GL1  772  -0.014   7.724   7.090  0.0748  0.3315  0.2180
   39POPC   GL2  773  -0.322   7.963   7.006  0.0980  0.3220 -0.1912
   39POPC   C1A  774   0.162   7.801   6.725  0.0751 -0.0208 -0.4206
   39POPC   D2A  775   0.180   7.604   6.309  0.1856  0.1733  0.0406
   39POPC   C3A  776  -0.020   7.668   5.975  0.0219 -0.2261 -0.1967
   39POPC   C4A  777  -0.160   7.844   5.594 -0.4482 -0.3973  0.1612
   39POPC   C1B  778  -0.280   8.035   6.611 -0.3606 -0.4395 -0.1447
   39POPC   C2B  779  -0.269   8.102   6.176 -0.0618 -0.2352  0.0649
   39POPC   C3B  780  -0.461   8.233   5.696 -0.3444 -0.0484 -0.3273
   39POPC   C4B  781  -0.683   8.477   5.384  0.1893 -0.0731 -0.0242
   40POPC   NC3  782   0.034   3.673   8.051  0.0312  0.0465  0.0164
   40POPC   PO4  783  -0.166   3.901   7.813 -0.0102 -0.2222  0.1621
   40POPC   GL1  784  -0.207   3.951   7.339  0.2436 -0.0045 -0.0392
   40POPC   GL2  785  -0.147   4.278   7.279  0.1116 -0.0335  0.0308
   40POPC   C1A  786  -0.325   4.026   6.889  0.3600 -0.0635  0.0325
   40POPC   D2A  787  -0.290   4.047   6.438 -0.0316  0.1216  0.1571
   40POPC   C3A  788  -0.452   3.747   6.135 -0.2258  0.1782 -0.2691
   40POPC   C4A  789  -0.449   3.567   5.702 -0.2293 -0.1335  0.0207
   40POPC   C1B  790  -0.421   4.572   7.072  0.3399  0.0253 -0.0009
   40POPC   C2B  791  -0.536   4.444   6.647 -0.1253  0.0335 -0.1572
   40POPC   C3B  792  -0.739   4.217   6.318 -0.0246  0.2086 -0.2973
   40POPC   C4B  793  -0.862   4.024   5.923 -0.2585  0.0785 -0.1350
   41POPC   NC3  794   0.252   0.282   7.737  0.0722  0.0907 -0.4235
   41POPC   PO4  795   0.114   0.659   7.506  0.4274  0.2308  0.0678
   41POPC   GL1  796  -0.053   0.644   7.166  0.1943 -0.0302 -0.1284
   41POPC   GL2  797  -0.306   0.503   7.234 -0.1685  0.3650  0.2496
   41POPC   C1A  798  -0.145   0.602   6.738  0.0718 -0.1194  0.1492
   41POPC   D2A  799  -0.480   0.640   6.358  0.0860  0.2504 -0.0182
   41POPC   C3A  800  -0.931   0.762   6.271  0.1244  0.2746 -0.0744
   41POPC   C4A  801  -1.323   0.802   6.274 -0.2513 -0.6750 -0.0764
   41POPC   C1B  802  -0.723   0.495   6.950 -0.0111 -0.2679  0.2262
   41POPC   C2B  803  -0.915   0.295   6.533 -0.1950 -0.3499  0.0621
   41POPC   C3B  804  -0.750   0.005   6.257 -0.5499  0.0605  0.0672
   41POPC   C4B  805  -0.564  -0.277   5.966  0.0090 -0.0051  0.1044
   42POPC   NC3  806   5.463   0.365   7.976  0.1503 -0.0410  0.0966
   42POPC   PO4  807   5.115   0.713   7.857  0.2098  0.0794  0.0202
   42POPC   GL1  808   5.003   0.761   7.412  0.1509 -0.0696 -0.0731
   42POPC   GL2  809   4.938   1.151   7.445  0.1046 -0.1246 -0.2038
   42POPC   C1A  810   5.110   0.649   6.913  0.0677 -0.1067  0.1801
   42POPC   D2A  811   5.269   0.588   6.484  0.1693 -0.1267 -0.0921
   42POPC   C3A  812   4.891   0.435   6.227  0.2618  0.1038 -0.1645
   42POPC   C4A  813   4.646   0.421   5.787  0.1106 -0.4281 -0.1608
   42POPC   C1B  814   5.274   1.296   7.144 -0.0340  0.1488  0.0024
   42POPC   C2B  815   5.582   1.570   6.816  0.1440 -0.0426 -0.1237
   42POPC   C3B  816   5.906   1.549   6.584 -0.2597 -0.2497 -0.3634
   42POPC   C4B  817   6.308   1.739   6.545 -0.1740 -0.2734  0.3966
   43POPC   NC3  818   3.362   3.932   7.591  0.0682  0.0560 -0.0191
   43POPC   PO4  819   3.713   3.853   7.448  0.0109 -0.0819  0.0962
   43POPC   GL1  820   3.962   3.841   7.206 -0.2364 -0.2027  0.2150
   43POPC   GL2  821   4.000   3.562   7.107  0.0318  0.0090  0.0749
   43POPC   C1A  822   4.077   3.999   6.832  0.1585 -0.2003 -0.0322
   43POPC   D2A  823   4.094   3.791   6.452  0.0070 -0.0505  0.0236
   43POPC   C3A  824   4.118   3.786   5.992  0.0759  0.1646 -0.1922
   43POPC   C4A  825   3.746   3.745   5.734 -0.2290  0.2038  0.2577
   43POPC   C1B  826   4.161   3.419   6.720  0.2501  0.3385  0.1768
   43POPC   C2B  827   4.188   3.211   6.333  0.3252  0.1127  0.0356
   43POPC   C3B  828   4.210   3.275   5.905  0.0252 -0.1854  0.1970
   43POPC   C4B  829   3.974   3.074   5.565 -0.0723 -0.0943 -0.2719
   44POPC   NC3  830   2.130  10.604   7.511  0.1071 -0.0166 -0.1585
   44POPC   PO4  831   2.478  10.391   7.710  0.0495 -0.3221 -0.0766
   44POPC   GL1  832   2.689  10.503   7.312 -0.0777 -0.0849 -0.4558
   44POPC   GL2  833   2.520  10.794   7.109  0.0644  0.1935 -0.2282
   44POPC   C1A  834   2.787  10.465   6.877  0.3347  0.2217 -0.0302
   44POPC   D2A  835   2.750  10.447   6.421  0.0583 -0.1689 -0.0550
   44POPC   C3A  836   3.064  10.737   6.192 -0.0112 -0.3157 -0.0221
   44POPC   C4A  837   3.493  10.950   6.383  0.0694 -0.2581 -0.0043
   44POPC   C1B  838   2.198  11.013   6.793  0.0903  0.0324  0.1825
   44POPC   C2B  839   1.787  11.083   6.587 -0.0724 -0.3252 -0.0204
   44POPC   C3B  840   1.711  11.217   6.217  0.0626 -0.0412 -0.5189
   44POPC   C4B  841   1.812  10.929   5.876  0.0632 -0.0422  0.2885
   45POPC   NC3  842   2.678   1.417   7.688  0.1701  0.2235  0.1773
   45POPC   PO4  843   2.310   1.568   7.470 -0.2785  0.3208  0.1921
   45POPC   GL1  844   2.219   1.639   7.071  0.0880 -0.1121  0.0374
   45POPC   GL2  845   2.443   1.659   6.868  0.0350 -0.1096  0.3937
   45POPC   C1A  846   2.071   1.437   6.604  0.1222 -0.0105 -0.1610
   45POPC   D2A  847   1.701   1.240   6.552  0.0837 -0.0222 -0.0892
   45POPC   C3A  848   1.558   0.906   6.217  0.0402 -0.0282  0.3148
   45POPC   C4A  849   1.675   0.650   5.812 -0.2535  0.1451 -0.0471
   45POPC   C1B  850   2.437   1.647   6.369  0.0354  0.1458  0.3363
   45POPC   C2B  851   2.444   1.705   5.884 -0.3084 -0.1229 -0.0624
   45POPC   C3B  852   2.344   1.874   5.443  0.3628  0.1530 -0.2677
   45POPC   C4B  853   2.106   1.863   5.092  0.2508 -0.2873 -0.0563
   46POPC   NC3  854  10.768   6.876   7.635  0.0461  0.2035  0.0720
   46POPC   PO4  855  10.886   7.221   7.319 -0.0643 -0.0819 -0.1495
   46POPC   GL1  856  10.967   7.265   6.919 -0.1949 -0.1476 -0.2152
   46POPC   GL2  857  11.233   7.210   6.765 -0.2164  0.3286  0.2149
   46POPC   C1A  858  10.707   7.172   6.571  0.0741 -0.0782 -0.0452
   46POPC   D2A  859  10.351   7.122   6.310  0.0670  0.1898 -0.1262
   46POPC   C3A  860  10.318   7.142   5.907  0.1303 -0.2628 -0.0686
   46POPC   C4A  861  10.327   7.084   5.496 -0.2320 -0.0035 -0.0353
   46POPC   C1B  862  11.222   7.075   6.365 -0.0814  0.1970 -0.1423
   46POPC   C2B  863  11.350   7.306   5.929  0.1821 -0.0775  0.0833
   46POPC   C3B  864  11.345   7.593   5.651  0.0123  0.2542 -0.1329
   46POPC   C4B  865  11.338   7.854   5.300 -0.1283  0.2786  0.2801
   47POPC   NC3  866   1.478   2.657   7.435 -0.0835  0.0824  0.2600
   47POPC   PO4  867   1.618   2.219   7.466  0.0099  0.2024  0.2432
   47POPC   GL1  868   1.586   2.126   7.074 -0.1559 -0.0593  0.3275
   47POPC   GL2  869   2.037   2.107   7.004  0.0254 -0.1869 -0.4807
   47POPC   C1A  870   1.743   1.826   6.783  0.2450 -0.0114  0.1456
   47POPC   D2A  871   1.744   1.798   6.368 -0.0832  0.2195  0.1677
   47POPC   C3A  872   1.995   1.537   6.053  0.0447  0.0617 -0.2864
   47POPC   C4A  873   1.970   1.590   5.522  0.0099 -0.0858  0.0303
   47POPC   C1B  874   2.182   1.968   6.618 -0.2549 -0.0036  0.2084
   47POPC   C2B  875   2.185   1.993   6.144 -0.0176 -0.0381  0.2059
   47POPC   C3B  876   1.721   1.980   5.899  0.0290 -0.1293  0.0541
   47POPC   C4B  877   1.432   1.671   5.599 -0.1805  0.2529  0.1124
   48POPC   NC3  878   8.091   1.557   7.494 -0.2457  0.0677 -0.1673
   48POPC   PO4  879   8.538   1.356   7.428 -0.0214  0.0984  0.3449
   48POPC   GL1  880   8.492   1.467   7.055  0.2170 -0.3148  0.1512
   48POPC   GL2  881   8.722   1.222   6.800 -0.1521  0.1406 -0.0630
   48POPC   C1A  882   8.556   1.811   6.801  0.0548  0.2092  0.3491
   48POPC   D2A  883   8.547   1.990   6.481 -0.1759 -0.0639  0.3144
   48POPC   C3A  884   8.875   1.875   6.215 -0.0930 -0.2559  0.0893
   48POPC   C4A  885   9.240   1.780   6.050  0.0121 -0.1137  0.0176
   48POPC   C1B  886   8.981   1.391   6.478  0.0676 -0.0117 -0.1985
   48POPC   C2B  887   8.902   1.416   5.948 -0.0640 -0.0727  0.3236
   48POPC   C3B  888   8.859   1.820   5.668  0.2789 -0.0119  0.2732
   48POPC   C4B  889   9.024   2.118   5.665  0.1346 -0.2715  0.1593
   49POPC   NC3  890   7.900   8.029   7.559 -0.2892  0.1021 -0.2962
   49POPC   PO4  891   8.231   8.292   7.351  0.0962  0.0439  0.2537
   49POPC   GL1  892   8.219   8.341   6.970  0.3880 -0.4202 -0.2805
   49POPC   GL2  893   7.976   8.237   6.775 -0.1244  0.2655 -0.3373
   49POPC   C1A  894   8.367   8.470   6.502  0.1783 -0.1993 -0.2293
   49POPC   D2A  895   8.142   8.591   6.155 -0.2327 -0.0819 -0.1954
   49POPC   C3A  896   8.057   8.335   5.761 -0.3032 -0.0087 -0.2636
   49POPC   C4A  897   8.069   7.909   5.698  0.3243 -0.1284 -0.0247
   49POPC   C1B  898   7.760   8.466   6.551  0.1640  0.0432  0.4186
   49POPC   C2B  899   7.637   8.700   6.126  0.1841  0.2527 -0.0906
   49POPC   C3B  900   7.462   8.824   5.654 -0.4171  0.0400  0.0200
   49POPC   C4B  901   7.266   9.209   5.427  0.0852 -0.2045  0.1077
   50POPC   NC3  902   1.987   3.320   7.796 -0.1209 -0.5247  0.1620
   50POPC   PO4  903   1.710   2.945   7.768 -0.0134  0.1240  0.1240
   50POPC   GL1  904   1.613   3.152   7.456  0.0740  0.3100  0.5224
   50POPC   GL2  905   1.282   3.117   7.238  0.0574  0.3464  0.2510
   50POPC   C1A  906   1.721   3.115   6.988  0.4532 -0.1083  0.0117
   50POPC   D2A  907   1.869   2.936   6.597 -0.0482 -0.2671 -0.2887
   50POPC   C3A  908   1.976   2.486   6.681 -0.1311  0.1596 -0.2996
   50POPC   C4A  909   1.696   2.268   6.483  0.0692  0.0882  0.2023
   50POPC   C1B  910   1.259   3.103   6.815 -0.0534  0.0573  0.0069
   50POPC   C2B  911   1.407   3.252   6.450 -0.2144 -0.3326 -0.3025
   50POPC   C3B  912   1.434   3.321   6.033 -0.2674  0.1014 -0.2091
   50POPC   C4B  913   1.530   3.328   5.572  0.1198 -0.0342  0.0741
   51POPC   NC3  914   1.946  10.074   7.572 -0.1850 -0.1729 -0.1802
   51POPC   PO4  915   1.661  10.391   7.578 -0.1147  0.1958 -0.0075
   51POPC   GL1  916   1.711  10.682   7.238 -0.2265  0.0745 -0.1654
   51POPC   GL2  917   2.033  10.586   7.052  0.1271 -0.3451 -0.1934
   51POPC   C1A  918   1.577  10.643   6.759  0.1290  0.1180 -0.2654
   51POPC   D2A  919   1.785  10.583   6.314  0.0799  0.3220 -0.1048
   51POPC   C3A  920   2.008  10.191   6.154  0.0600 -0.0925 -0.1204
   51POPC   C4A  921   2.151  10.191   5.669 -0.0527 -0.2441  0.0881
   51POPC   C1B  922   2.199  10.572   6.562 -0.1443  0.0194 -0.0133
   51POPC   C2B  923   2.163  10.971   6.238 -0.0178  0.1126  0.0623
   51POPC   C3B  924   2.171  11.360   5.886  0.0512  0.0125 -0.1425
   51POPC   C4B  925   2.176  11.670   5.690  0.3847 -0.0735  0.0447
   52POPC   NC3  926   4.607   8.952   7.524 -0.2702 -0.1338 -0.1434
   52POPC   PO4  927   4.243   8.801   7.476 -0.0111 -0.0722  0.4191
   52POPC   GL1  928   4.059   8.720   7.078 -0.0189  0.0305  0.0539
   52POPC   GL2  929   4.123   8.936   6.976  0.1541  0.0483 -0.0357
   52POPC   C1A  930   3.948   8.578   6.711 -0.1767  0.0550 -0.4270
   52POPC   D2A  931   3.795   8.541   6.371  0.1172 -0.1573 -0.0907
   52POPC   C3A  932   3.955   8.220   6.103  0.1386 -0.1012  0.0306
   52POPC   C4A  933   4.035   7.830   5.952 -0.0177  0.0201 -0.0639
   52POPC   C1B  934   3.688   8.998   6.742  0.0665  0.0669  0.1482
   52POPC   C2B  935   3.795   9.403   6.496  0.2082 -0.2263  0.0480
   52POPC   C3B  936   3.914   9.610   6.085 -0.1407  0.0147  0.0029
   52POPC   C4B  937   3.758   9.653   5.733  0.2102  0.0395  0.0016
   53POPC   NC3  938   4.156   0.507   7.928  0.3850 -0.3026 -0.2388
   53POPC   PO4  939   3.822   0.742   7.682 -0.1804 -0.1567  0.1049
   53POPC   GL1  940   4.009   0.667   7.316 -0.0781  0.1492 -0.0748
   53POPC   GL2  941   3.675   0.418   7.348  0.3922  0.0946 -0.0538
   53POPC   C1A  942   4.255   0.899   6.943  0.0949  0.0368 -0.1528
   53POPC   D2A  943   4.370   1.022   6.450  0.0276 -0.0573  0.2312
   53POPC   C3A  944   4.580   1.274   6.338  0.2662 -0.4332 -0.0835
   53POPC   C4A  945   4.959   1.507   6.300 -0.3073 -0.1730  0.1610
   53POPC   C1B  946   3.624   0.303   6.874  0.0698  0.0602 -0.2240
   53POPC   C2B  947   3.511   0.572   6.496 -0.0945 -0.1128 -0.1389
   53POPC   C3B  948   3.557   0.416   6.010  0.0723  0.0045  0.2565
   53POPC   C4B  949   3.881   0.207   5.662  0.1327 -0.0663  0.2252
   54POPC   NC3  950   5.960   2.564   7.536  0.3024  0.0954  0.0117
   54POPC   PO4  951   5.964   3.010   7.639 -0.3250  0.0833  0.0782
   54POPC   GL1  952   5.734   3.179   7.285 -0.0871 -0.0304  0.0041
   54POPC   GL2  953   5.533   2.897   7.155  0.2127 -0.0275 -0.1417
   54POPC   C1A  954   5.470   3.449   7.072  0.0377  0.1019  0.0908
   54POPC   D2A  955   5.197   3.337   6.750  0.1398  0.0726  0.2564
   54POPC   C3A  956   5.040   3.615   6.646  0.1586  0.2346 -0.3533
   54POPC   C4A  957   4.932   3.986   6.406  0.1418  0.1257 -0.3191
   54POPC   C1B  958   5.596   3.040   6.754  0.1915 -0.1895  0.1028
   54POPC   C2B  959   5.471   3.068   6.327  0.0008 -0.1944 -0.0580
   54POPC   C3B  960   5.607   3.318   5.935 -0.1148  0.0295  0.0804
   54POPC   C4B  961   5.144   3.412   5.721  0.2369 -0.0349  0.1569
   55POPC   NC3  962   9.107   1.582   7.119  0.2220  0.1722 -0.0364
   55POPC   PO4  963   9.299   1.151   7.106 -0.1769  0.2348  0.0166
   55POPC   GL1  964   9.387   1.089   6.684 -0.0850  0.2378  0.2937
   55POPC   GL2  965   9.616   1.325   6.643  0.0294 -0.2074 -0.0644
   55POPC   C1A  966   9.114   0.911   6.408  0.2372 -0.2773  0.0952
   55POPC   D2A  967   8.872   0.865   6.009  0.1011  0.0772 -0.3489
   55POPC   C3A  968   8.464   0.834   5.737  0.0177  0.0041  0.2800
   55POPC   C4A  969   8.310   0.536   5.549  0.3470  0.0448 -0.0464
   55POPC   C1B  970   9.420   1.327   6.259 -0.0353  0.2434 -0.0224
   55POPC   C2B  971   9.318   1.057   5.881  0.0958 -0.1201 -0.2917
   55POPC   C3B  972   9.655   1.105   5.579 -0.1482  0.0226 -0.0818
   55POPC   C4B  973  10.097   1.169   5.475 -0.0620  0.1100 -0.2353
   56POPC   NC3  974   5.474   7.607   8.052 -0.4702 -0.1717  0.0355
   56POPC   PO4  975   5.506   7.290   7.743 -0.0327  0.1221 -0.0536
   56POPC   GL1  976   5.737   7.291   7.310  0.0835  0.1604 -0.1849
   56POPC   GL2  977   5.473   7.286   7.189 -0.1958  0.2638  0.1313
   56POPC   C1A  978   6.107   7.186   7.076 -0.3382 -0.1779 -0.0714
   56POPC   D2A  979   6.287   7.031   6.580  0.2470  0.1112  0.1071
   56POPC   C3A  980   6.358   7.455   6.381  0.1366 -0.0759 -0.0093
   56POPC   C4A  981   6.436   7.879   6.197  0.1750 -0.0539  0.1803
   56POPC   C1B  982   5.463   7.509   6.808  0.0810 -0.1073 -0.5556
   56POPC   C2B  983   5.337   7.687   6.401 -0.2410 -0.1323  0.0084
   56POPC   C3B  984   5.467   7.671   6.079  0.0039  0.0710  0.2151
   56POPC   C4B  985   5.895   7.863   5.805 -0.1476 -0.1472 -0.1209
   57POPC   NC3  986   1.669   8.055   8.363  0.1215 -0.2785 -0.0814
   57POPC   PO4  987   1.786   8.222   7.886 -0.3694  0.1307 -0.3438
   57POPC   GL1  988   2.014   7.959   7.551  0.2220 -0.0415 -0.0452
   57POPC   GL2  989   2.258   8.038   7.364 -0.0384 -0.1312  0.1835
   57POPC   C1A  990   1.787   7.930   7.157 -0.1825  0.0018 -0.0295
   57POPC   D2A  991   1.535   8.247   6.979 -0.0959  0.2449 -0.1649
   57POPC   C3A  992   1.476   8.250   6.547  0.4122 -0.0901  0.3256
   57POPC   C4A  993   1.722   7.841   6.396 -0.1451 -0.1004  0.0590
   57POPC   C1B  994   2.455   8.195   6.962  0.0546  0.0631 -0.0234
   57POPC   C2B  995   2.627   8.614   6.737  0.1994  0.0501  0.2249
   57POPC   C3B  996   2.928   8.490   6.391  0.0569 -0.1369 -0.3013
   57POPC   C4B  997   3.263   8.471   6.179  0.0739 -0.2636 -0.1285
   58POPC   NC3  998   7.320   5.495   8.054  0.1895 -0.1501 -0.0146
   58POPC   PO4  999   7.234   5.857   7.840  0.2084  0.0830  0.0043
   58POPC   GL1 1000   6.862   6.016   7.586 -0.0747  0.1566  0.1943
   58POPC   GL2 1001   6.799   6.260   7.330  0.1449 -0.1575 -0.0789
   58POPC   C1A 1002   6.682   5.825   7.238  0.1447  0.0682 -0.0850
   58POPC   D2A 1003   6.617   5.424   7.183  0.0525  0.1713 -0.3393
   58POPC   C3A 1004   6.744   5.053   7.077 -0.3040 -0.3199 -0.1433
   58POPC   C4A 1005   7.002   4.979   6.769  0.3363  0.0456  0.0439
   58POPC   C1B 1006   6.476   6.265   7.043 -0.4119  0.2221 -0.3363
   58POPC   C2B 1007   6.487   5.952   6.796  0.3999  0.2078 -0.2644
   58POPC   C3B 1008   6.464   5.953   6.304 -0.1093 -0.1777  0.2935
   58POPC   C4B 1009   6.358   5.755   5.885 -0.0538  0.0814  0.3993
   59POPC   NC3 1010  10.634   5.460   7.684 -0.1565 -0.3407 -0.0869
   59POPC   PO4 1011  10.336   5.730   7.459 -0.2285 -0.1455  0.1351
   59POPC   GL1 1012  10.363   5.480   7.060 -0.0753 -0.3254  0.1266
   59POPC   GL2 1013  10.640   5.757   6.848 -0.0506 -0.1663 -0.0516
   59POPC   C1A 1014  10.531   5.285   6.743 -0.2603  0.0707 -0.1052
   59POPC   D2A 1015  10.640   4.935   6.572 -0.3010 -0.0750  0.1362
   59POPC   C3A 1016  10.298   4.774   6.242 -0.1792 -0.0768  0.0361
   59POPC   C4A 1017  10.107   4.524   5.905  0.1907  0.0160 -0.0471
   59POPC   C1B 1018  10.782   5.643   6.406  0.2529  0.3010 -0.1986
   59POPC   C2B 1019  10.884   5.671   5.978 -0.0283  0.3949  0.0297
   59POPC   C3B 1020  10.988   5.776   5.612  0.1348  0.1667  0.5137
   59POPC   C4B 1021  11.205   5.929   5.189  0.0081 -0.0192  0.0348
   60POPC   NC3 1022   7.244   3.046   7.892 -0.0561  0.0085 -0.0999
   60POPC   PO4 1023   7.207   3.429   7.579 -0.2184 -0.0252 -0.2656
   60POPC   GL1 1024   7.085   3.264   7.208 -0.1710  0.0014 -0.1215
   60POPC   GL2 1025   6.746   3.237   7.115 -0.0158 -0.0831  0.0545
   60POPC   C1A 1026   7.123   3.091   6.795  0.4813  0.2832 -0.0455
   60POPC   D2A 1027   7.008   2.782   6.555 -0.0948 -0.4218 -0.2873
   60POPC   C3A 1028   6.909   2.435   6.757 -0.1814  0.0550  0.1284
   60POPC   C4A 1029   6.741   1.967   6.710 -0.1649  0.1702 -0.1783
   60POPC   C1B 1030   6.548   2.799   6.857  0.0132 -0.1609  0.2214
   60POPC   C2B 1031   6.437   2.729   6.418  0.1173 -0.2358  0.0074
   60POPC   C3B 1032   6.386   2.655   5.908 -0.0048  0.5411 -0.1913
   60POPC   C4B 1033   6.213   2.331   5.746 -0.0841 -0.1593  0.0513
   61POPC   NC3 1034   1.572   4.762   8.373  0.0930 -0.2124  0.3626
   61POPC   PO4 1035   1.664   4.406   8.036 -0.1983  0.1030  0.3639
   61POPC   GL1 1036   1.626   4.316   7.603  0.0193 -0.1708 -0.0423
   61POPC   GL2 1037   1.272   4.284   7.557 -0.1061 -0.4474 -0.1143
   61POPC   C1A 1038   1.828   4.260   7.121 -0.0306 -0.0849  0.1919
   61POPC   D2A 1039   1.667   4.191   6.751  0.1087 -0.1003  0.1380
   61POPC   C3A 1040   1.750   4.398   6.370  0.1994  0.2146  0.3720
   61POPC   C4A 1041   1.722   4.650   6.021 -0.2758 -0.0503  0.0700
   61POPC   C1B 1042   0.979   4.360   7.262  0.0953  0.0131 -0.0282
   61POPC   C2B 1043   0.781   4.165   6.803 -0.1120  0.1319  0.3326
   61POPC   C3B 1044   0.698   3.921   6.368  0.1010 -0.0623 -0.1199
   61POPC   C4B 1045   0.581   3.546   6.088  0.0321 -0.0169 -0.0440
   62POPC   NC3 1046   1.894   2.047   7.795  0.2032  0.2373 -0.0566
   62POPC   PO4 1047   2.236   2.110   7.490  0.1992  0.1279  0.2407
   62POPC   GL1 1048   2.482   2.057   7.233  0.1723 -0.0562  0.1396
   62POPC   GL2 1049   2.813   1.780   7.318  0.2661 -0.2498  0.0418
   62POPC   C1A 1050   2.725   2.068   6.863 -0.2510  0.3626 -0.0607
   62POPC   D2A 1051   2.932   1.963   6.472 -0.6518  0.1361 -0.0657
   62POPC   C3A 1052   3.235   2.239   6.375  0.1624  0.0304  0.1692
   62POPC   C4A 1053   3.442   2.516   6.080 -0.2014 -0.2501 -0.1170
   62POPC   C1B 1054   3.118   1.846   7.022  0.0580 -0.3599  0.1940
   62POPC   C2B 1055   3.392   1.933   6.760 -0.1336  0.0993  0.1034
   62POPC   C3B 1056   3.560   1.774   6.333  0.0070 -0.1257 -0.0475
   62POPC   C4B 1057   3.727   1.532   5.972  0.3446  0.2684  0.1765
   63POPC   NC3 1058   3.633   7.408   8.206  0.4649  0.2395 -0.2309
   63POPC   PO4 1059   3.953   7.609   7.840 -0.3460  0.1787 -0.2024
   63POPC   GL1 1060   3.933   7.420   7.339  0.3797 -0.1730  0.1262
   63POPC   GL2 1061   3.666   7.602   7.210 -0.0542 -0.0826 -0.1282
   63POPC   C1A 1062   4.160   7.207   6.948  0.0876 -0.1648  0.1572
   63POPC   D2A 1063   4.416   7.328   6.648  0.0545 -0.0792  0.1733
   63POPC   C3A 1064   4.425   7.507   6.135 -0.0868 -0.0602  0.0176
   63POPC   C4A 1065   4.503   7.672   5.762  0.3696 -0.1189  0.0366
   63POPC   C1B 1066   3.727   7.575   6.851  0.1995  0.0555 -0.0353
   63POPC   C2B 1067   3.979   7.583   6.439 -0.1307 -0.3061  0.0014
   63POPC   C3B 1068   4.082   7.161   6.277  0.0980  0.0400 -0.3858
   63POPC   C4B 1069   4.126   6.856   6.522  0.0676 -0.5112 -0.0224
   64POPC   NC3 1070   6.531   9.307   7.760 -0.0988  0.2362  0.1379
   64POPC   PO4 1071   6.949   9.370   7.395  0.0404  0.0898  0.4599
   64POPC   GL1 1072   6.908   9.063   7.016 -0.1949 -0.2154 -0.1942
   64POPC   GL2 1073   7.052   9.288   6.853 -0.2026  0.1039  0.3722
   64POPC   C1A 1074   6.777   8.765   6.724 -0.3098  0.0208 -0.1203
   64POPC   D2A 1075   6.780   8.646   6.365  0.0982  0.1115  0.0402
   64POPC   C3A 1076   6.400   8.524   6.173 -0.2287  0.0796  0.1626
   64POPC   C4A 1077   6.037   8.407   5.891  0.0174  0.2402 -0.0865
   64POPC   C1B 1078   6.898   9.210   6.446  0.0082  0.1664  0.3470
   64POPC   C2B 1079   6.796   9.375   6.133  0.0442  0.0894 -0.2071
   64POPC   C3B 1080   6.863   9.661   5.878 -0.2932 -0.0627 -0.0392
   64POPC   C4B 1081   6.880  10.027   5.765  0.2851  0.0765  0.0157
   65POPC   NC3 1082   0.180   8.509   7.572  0.0631  0.1652 -0.0920
   65POPC   PO4 1083   0.606   8.294   7.562  0.2352 -0.1911  0.0002
   65POPC   GL1 1084   0.724   8.229   7.130 -0.1214 -0.0080 -0.1546
   65POPC   GL2 1085   1.124   8.151   7.144  0.1910  0.3249 -0.1238
   65POPC   C1A 1086   0.528   8.193   6.676 -0.1990  0.2934 -0.1062
   65POPC   D2A 1087   0.757   8.191   6.274  0.1651  0.4831 -0.2128
   65POPC   C3A 1088   0.903   8.484   5.897  0.0758  0.2856 -0.1622
   65POPC   C4A 1089   0.911   8.845   5.908 -0.0642  0.2150  0.1056
   65POPC   C1B 1090   1.014   8.344   6.730 -0.1315 -0.1282  0.1012
   65POPC   C2B 1091   1.053   8.638   6.431 -0.1104 -0.0497 -0.0916
   65POPC   C3B 1092   1.389   8.782   6.246  0.2040  0.4127 -0.1704
   65POPC   C4B 1093   1.598   8.537   5.943 -0.1880  0.1312  0.0675
   66POPC   NC3 1094   3.822   6.355   8.287  0.1983 -0.0540 -0.0302
   66POPC   PO4 1095   3.762   6.515   7.878  0.2384  0.2051 -0.2332
   66POPC   GL1 1096   3.776   6.441   7.489  0.1918 -0.0369 -0.0731
   66POPC   GL2 1097   3.666   6.227   7.331 -0.1012 -0.1933  0.0369
   66POPC   C1A 1098   3.803   6.670   7.015  0.1558 -0.3478  0.2970
   66POPC   D2A 1099   3.719   6.545   6.539 -0.3480  0.1817  0.1732
   66POPC   C3A 1100   3.655   6.782   6.225 -0.1204  0.3842 -0.3300
   66POPC   C4A 1101   3.651   6.843   5.907 -0.0707 -0.2492 -0.1173
   66POPC   C1B 1102   3.569   6.281   6.946  0.0273 -0.0430 -0.0472
   66POPC   C2B 1103   3.310   6.276   6.592 -0.0554  0.0776 -0.3626
   66POPC   C3B 1104   3.141   6.560   6.345  0.2403 -0.5003 -0.0084
   66POPC   C4B 1105   3.164   6.566   5.917 -0.0729 -0.1647 -0.3056
   67POPC   NC3 1106  10.212   8.313   7.349  0.0848  0.3108 -0.0219
   67POPC   PO4 1107  10.495   8.601   7.540  0.1676 -0.1268 -0.2338
   67POPC   GL1 1108  10.566   8.440   7.013 -0.1145 -0.1804 -0.0379
   67POPC   GL2 1109  10.323   8.526   6.779  0.2171 -0.0698 -0.2487
   67POPC   C1A 1110  10.812   8.500   6.561  0.1068  0.0439 -0.3478
   67POPC   D2A 1111  11.079   8.224   6.360 -0.0992  0.2302 -0.0244
   67POPC   C3A 1112  11.192   8.154   6.010  0.0843  0.2639 -0.0199
   67POPC   C4A 1113  11.261   8.176   5.682  0.2448  0.2465 -0.0300
   67POPC   C1B 1114  10.372   8.570   6.304  0.2049  0.0900 -0.0140
   67POPC   C2B 1115  10.496   8.758   5.855  0.0992  0.3212  0.2591
   67POPC   C3B 1116  10.321   9.027   5.568 -0.0397 -0.3806 -0.0727
   67POPC   C4B 1117  10.494   9.189   5.287 -0.2139 -0.0604  0.2308
   68POPC   NC3 1118   2.269   0.603   7.873  0.0423  0.1623  0.0377
   68POPC   PO4 1119   2.470   0.411   7.587  0.1892 -0.0624  0.2408
   68POPC   GL1 1120   2.718   0.641   7.256  0.1441 -0.0675  0.0132
   68POPC   GL2 1121   2.746   0.338   7.033 -0.1444 -0.1480  0.0429
   68POPC   C1A 1122   2.819   0.821   6.860 -0.0159  0.1476 -0.0637
   68POPC   D2A 1123   2.938   0.793   6.397  0.1784 -0.1775  0.3022
   68POPC   C3A 1124   3.129   0.785   5.950  0.0002 -0.1610  0.1192
   68POPC   C4A 1125   3.283   0.926   5.556 -0.2445  0.2476  0.3598
   68POPC   C1B 1126   3.037   0.398   6.683 -0.0896  0.2000  0.1286
   68POPC   C2B 1127   3.026   0.365   6.226  0.1090  0.0409 -0.0034
   68POPC   C3B 1128   2.640   0.156   6.024 -0.0713  0.0652 -0.2048
   68POPC   C4B 1129   2.332  -0.058   5.649  0.1250 -0.3763 -0.1121
   69POPC   NC3 1130   9.927   0.129   7.576 -0.0034  0.0271  0.0906
   69POPC   PO4 1131   9.720  -0.212   7.654 -0.2627  0.0357  0.0764
   69POPC   GL1 1132   9.881  -0.239   7.204 -0.0868 -0.0573 -0.0383
   69POPC   GL2 1133   9.792   0.105   7.138  0.2593  0.0896  0.2379
   69POPC   C1A 1134  10.036  -0.185   6.704  0.1549 -0.1517  0.2600
   69POPC   D2A 1135   9.972  -0.592   6.492  0.0432  0.2735  0.3247
   69POPC   C3A 1136  10.023  -0.640   6.070  0.1103  0.1209 -0.1290
   69POPC   C4A 1137  10.170  -0.878   5.859 -0.0263 -0.3395  0.3140
   69POPC   C1B 1138   9.497   0.186   6.860 -0.1770 -0.3380 -0.0447
   69POPC   C2B 1139   9.355   0.421   6.482 -0.0059 -0.0680  0.0183
   69POPC   C3B 1140   9.202   0.542   6.063  0.0137  0.0686  0.1318
   69POPC   C4B 1141   8.997   0.495   5.645 -0.1176 -0.1432  0.1019
   70POPC   NC3 1142   7.471   8.282   7.768  0.0004  0.1231 -0.0460
   70POPC   PO4 1143   7.506   7.812   7.800 -0.3157 -0.0481  0.0412
   70POPC   GL1 1144   7.443   7.650   7.296 -0.1493 -0.1591 -0.0089
   70POPC   GL2 1145   7.259   8.028   7.202 -0.0595  0.0653 -0.2709
   70POPC   C1A 1146   7.628   7.402   6.979 -0.0437  0.0111 -0.0348
   70POPC   D2A 1147   7.665   7.286   6.551 -0.0916  0.0876  0.1658
   70POPC   C3A 1148   7.575   7.712   6.219  0.2899  0.1526  0.1116
   70POPC   C4A 1149   7.610   7.854   5.845  0.1437  0.0403 -0.2542
   70POPC   C1B 1150   6.843   8.136   6.829  0.0410 -0.2003  0.0778
   70POPC   C2B 1151   6.802   8.160   6.374  0.2680 -0.1727  0.1793
   70POPC   C3B 1152   6.678   8.217   5.895 -0.0974  0.1754 -0.0258
   70POPC   C4B 1153   6.515   8.186   5.511  0.3169 -0.0272 -0.3358
   71POPC   NC3 1154   7.108   4.526   7.875 -0.2207  0.1359  0.0848
   71POPC   PO4 1155   6.834   4.243   7.655 -0.1041  0.3542 -0.3136
   71POPC   GL1 1156   6.635   4.088   7.222 -0.1211 -0.0128 -0.0856
   71POPC   GL2 1157   6.343   3.802   7.220  0.0536  0.0689  0.0878
   71POPC   C1A 1158   6.330   4.161   6.960  0.4971  0.0377 -0.0542
   71POPC   D2A 1159   6.317   4.395   6.569 -0.0716 -0.0415  0.5543
   71POPC   C3A 1160   6.315   4.556   6.006 -0.3661 -0.1228  0.1861
   71POPC   C4A 1161   6.212   4.568   5.469  0.0133 -0.1915 -0.1529
   71POPC   C1B 1162   6.505   3.695   6.810  0.1294  0.1424 -0.0359
   71POPC   C2B 1163   6.642   3.992   6.551  0.2417  0.0271  0.0713
   71POPC   C3B 1164   6.609   4.065   6.125  0.0571  0.2544 -0.0224
   71POPC   C4B 1165   6.292   4.010   5.816 -0.0282 -0.0521 -0.1093
   72POPC   NC3 1166  10.149  10.027   7.499  0.2715  0.2719 -0.0776
   72POPC   PO4 1167  10.489  10.159   7.302  0.0710 -0.2623 -0.1293
   72POPC   GL1 1168  10.594  10.082   6.983  0.1223  0.0769  0.1177
   72POPC   GL2 1169  10.795   9.786   6.979  0.1061 -0.2737 -0.1703
   72POPC   C1A 1170  10.918  10.183   6.708 -0.0662  0.1678  0.2109
   72POPC   D2A 1171  10.965  10.210   6.250  0.0249 -0.2661  0.0471
   72POPC   C3A 1172  11.109   9.940   6.030  0.2656 -0.1547  0.2108
   72POPC   C4A 1173  11.120   9.648   5.658 -0.3321 -0.4980 -0.0473
   72POPC   C1B 1174  10.580   9.743   6.646 -0.2489  0.1968 -0.1186
   72POPC   C2B 1175  10.233   9.495   6.425 -0.0349 -0.0427 -0.5506
   72POPC   C3B 1176   9.898   9.441   6.108  0.3935 -0.0129  0.0588
   72POPC   C4B 1177   9.782   9.113   5.734 -0.0064  0.0224  0.3013
   73POPC   NC3 1178   4.362   5.729   7.807  0.3170 -0.1114  0.1205
   73POPC   PO4 1179   3.889   5.637   7.805 -0.0524 -0.1989  0.1832
   73POPC   GL1 1180   3.785   5.661   7.413  0.2585  0.0061  0.3985
   73POPC   GL2 1181   3.449   5.764   7.296 -0.3237  0.3005  0.1315
   73POPC   C1A 1182   3.825   5.656   6.969 -0.0565  0.3279  0.0453
   73POPC   D2A 1183   3.775   5.664   6.490 -0.2378  0.1762 -0.2230
   73POPC   C3A 1184   3.629   5.502   6.262 -0.1642  0.1393 -0.0126
   73POPC   C4A 1185   3.364   5.534   5.964  0.0846 -0.0502  0.0622
   73POPC   C1B 1186   3.346   5.824   6.826 -0.2092 -0.1056  0.0504
   73POPC   C2B 1187   3.267   5.839   6.378 -0.0099 -0.0927  0.0206
   73POPC   C3B 1188   2.964   6.033   6.137  0.0248 -0.1704  0.2442
   73POPC   C4B 1189   2.803   6.169   5.775 -0.1609  0.2102  0.3440
   74POPC   NC3 1190   1.652   0.775   7.407  0.0690  0.0619 -0.0215
   74POPC   PO4 1191   1.422   1.008   7.266 -0.3048  0.0204 -0.0874
   74POPC   GL1 1192   1.291   1.093   6.887 -0.1630  0.2831  0.2159
   74POPC   GL2 1193   1.488   0.782   6.676 -0.2996  0.1248 -0.0403
   74POPC   C1A 1194   1.164   1.193   6.514  0.1305 -0.3873  0.4019
   74POPC   D2A 1195   0.997   1.338   6.121 -0.2091 -0.0299 -0.0880
   74POPC   C3A 1196   1.111   1.784   5.950  0.1730  0.0766  0.1908
   74POPC   C4A 1197   1.239   2.121   5.703 -0.2978 -0.2348  0.2098
   74POPC   C1B 1198   0.947   0.778   6.700 -0.1362 -0.0505  0.2357
   74POPC   C2B 1199   0.681   0.830   6.322 -0.3763 -0.0948 -0.3830
   74POPC   C3B 1200   0.606   0.998   5.994  0.1252  0.1192  0.0463
   74POPC   C4B 1201   0.642   1.010   5.461  0.2932  0.2829 -0.2484
   75POPC   NC3 1202  10.110   1.709   7.902 -0.1485  0.4263  0.0142
   75POPC   PO4 1203  10.412   1.953   7.768  0.3318 -0.0576 -0.2270
   75POPC   GL1 1204  10.558   1.771   7.402 -0.0133 -0.0431  0.2184
   75POPC   GL2 1205  10.753   1.924   7.209 -0.2929  0.0578  0.0293
   75POPC   C1A 1206  10.445   1.603   6.942 -0.0486  0.1953  0.2590
   75POPC   D2A 1207  10.683   1.533   6.621 -0.2883  0.2539  0.2266
   75POPC   C3A 1208  10.916   1.513   6.224 -0.1922  0.4942  0.2685
   75POPC   C4A 1209  11.056   1.223   5.826 -0.0902  0.1764 -0.2046
   75POPC   C1B 1210  10.773   2.038   6.748  0.1968  0.0115 -0.3498
   75POPC   C2B 1211  10.765   2.106   6.388 -0.0318  0.0064  0.1659
   75POPC   C3B 1212  10.648   1.935   6.038 -0.1543  0.0515  0.0240
   75POPC   C4B 1213  10.891   1.749   5.738  0.1995  0.3458  0.0917
   76POPC   NC3 1214   8.880   0.101   7.624  0.1776 -0.1573 -0.1677
   76POPC   PO4 1215   8.485   0.169   7.482 -0.0206  0.2370  0.1557
   76POPC   GL1 1216   8.629   0.120   6.975 -0.1707  0.0599 -0.1439
   76POPC   GL2 1217   8.596   0.301   6.838 -0.0102  0.2156 -0.1262
   76POPC   C1A 1218   8.949   0.017   6.695  0.1007  0.2503  0.0589
   76POPC   D2A 1219   9.167  -0.132   6.439  0.0689 -0.1490  0.0514
   76POPC   C3A 1220   9.292   0.068   6.139  0.0651  0.0713  0.4328
   76POPC   C4A 1221   9.676   0.313   6.006 -0.1345  0.1582  0.0746
   76POPC   C1B 1222   8.328   0.393   6.509  0.1494  0.2058  0.5748
   76POPC   C2B 1223   8.134   0.224   6.172 -0.1445  0.1504  0.0883
   76POPC   C3B 1224   8.290   0.085   5.731 -0.3814  0.1061 -0.0808
   76POPC   C4B 1225   8.492  -0.111   5.362 -0.0113  0.2866  0.1662
   77POPC   NC3 1226   5.651   4.904   8.004 -0.1840 -0.5052 -0.2519
   77POPC   PO4 1227   5.554   5.340   7.955 -0.2304 -0.1844  0.0503
   77POPC   GL1 1228   5.573   5.043   7.527 -0.0011  0.0507  0.0936
   77POPC   GL2 1229   5.329   4.888   7.344  0.5050 -0.0108  0.1367
   77POPC   C1A 1230   5.834   4.758   7.227 -0.1886  0.2027 -0.1341
   77POPC   D2A 1231   6.186   4.628   7.003 -0.3584  0.3189 -0.1605
   77POPC   C3A 1232   6.330   4.963   6.715 -0.2294 -0.3962 -0.1599
   77POPC   C4A 1233   6.214   4.934   6.297  0.1407 -0.2005  0.1052
   77POPC   C1B 1234   5.436   5.113   6.976 -0.0721  0.2430  0.0825
   77POPC   C2B 1235   5.400   5.341   6.529  0.1639 -0.1628 -0.0420
   77POPC   C3B 1236   5.334   5.262   6.012  0.0136 -0.0252 -0.4233
   77POPC   C4B 1237   5.493   5.119   5.652  0.0668  0.0621 -0.0827
   78POPC   NC3 1238   9.765   8.087   7.365  0.0372 -0.2943  0.3223
   78POPC   PO4 1239  10.128   7.731   7.427 -0.4046 -0.1584 -0.0420
   78POPC   GL1 1240   9.958   7.681   7.006  0.1012  0.0624  0.1163
   78POPC   GL2 1241  10.075   7.969   6.929  0.1666  0.1443 -0.0067
   78POPC   C1A 1242  10.147   7.494   6.651  0.1724  0.1503  0.1248
   78POPC   D2A 1243  10.492   7.593   6.363  0.2831 -0.3890  0.0283
   78POPC   C3A 1244  10.366   7.653   5.909  0.1198 -0.1173 -0.2650
   78POPC   C4A 1245  10.303   7.589   5.403 -0.1903 -0.2206  0.2335
   78POPC   C1B 1246  10.161   8.081   6.515 -0.3772 -0.1788  0.0669
   78POPC   C2B 1247  10.130   8.081   6.045  0.0314 -0.2418  0.0678
   78POPC   C3B 1248   9.860   8.072   5.775  0.0743  0.0997 -0.1822
   78POPC   C4B 1249   9.616   8.344   5.642  0.3899 -0.0003  0.2908
   79POPC   NC3 1250   0.947   2.048   7.937  0.0670  0.1947 -0.1360
   79POPC   PO4 1251   0.957   1.645   7.675  0.2202  0.1896  0.2508
   79POPC   GL1 1252   0.726   1.877   7.389  0.0370  0.2234  0.4825
   79POPC   GL2 1253   0.812   1.932   7.151  0.1647 -0.0241 -0.0356
   79POPC   C1A 1254   0.308   1.994   6.976 -0.0835 -0.0041  0.0214
   79POPC   D2A 1255   0.249   2.316   6.643  0.1747  0.0951  0.1386
   79POPC   C3A 1256  -0.107   2.613   6.683 -0.0019  0.1280 -0.1364
   79POPC   C4A 1257  -0.450   2.765   6.962  0.1388  0.1326  0.0431
   79POPC   C1B 1258   0.707   1.930   6.700 -0.4191  0.1482 -0.3515
   79POPC   C2B 1259   0.640   2.111   6.302  0.1039 -0.2670 -0.0674
   79POPC   C3B 1260   0.331   2.489   6.144  0.0226  0.0151  0.0179
   79POPC   C4B 1261  -0.031   2.401   5.806  0.0372  0.2476  0.0673
   80POPC   NC3 1262   8.459   5.223   7.308  0.2382  0.2336 -0.3309
   80POPC   PO4 1263   8.215   4.846   7.054 -0.0113 -0.0527  0.0078
   80POPC   GL1 1264   7.783   4.658   6.797  0.1519  0.0054 -0.1142
   80POPC   GL2 1265   7.739   4.717   6.476  0.2947  0.1103  0.0270
   80POPC   C1A 1266   7.346   4.645   6.796 -0.0543 -0.1812  0.1852
   80POPC   D2A 1267   7.180   4.666   6.405 -0.0607 -0.0226 -0.2448
   80POPC   C3A 1268   6.849   4.500   6.171 -0.0581 -0.2756 -0.0427
   80POPC   C4A 1269   6.680   4.424   5.700  0.0533  0.0831  0.0111
   80POPC   C1B 1270   7.539   4.286   6.320 -0.0369 -0.1626  0.0921
   80POPC   C2B 1271   7.177   4.060   6.416  0.2513  0.0740 -0.2481
   80POPC   C3B 1272   7.074   3.760   6.235  0.2123 -0.2056 -0.0237
   80POPC   C4B 1273   6.810   3.523   5.947  0.1576 -0.1141 -0.0654
   81POPC   NC3 1274   4.624   3.819   7.816  0.1037 -0.0860 -0.2475
   81POPC   PO4 1275   4.217   3.890   7.756 -0.3643 -0.4807  0.0523
   81POPC   GL1 1276   4.095   4.258   7.430  0.1812  0.1940 -0.3449
   81POPC   GL2 1277   3.650   4.331   7.445 -0.3807 -0.1491  0.3674
   81POPC   C1A 1278   4.005   4.482   7.059  0.1430  0.2835  0.0259
   81POPC   D2A 1279   4.016   4.805   6.728  0.0393  0.0356 -0.4396
   81POPC   C3A 1280   3.926   4.815   6.309  0.0086 -0.0362 -0.0135
   81POPC   C4A 1281   3.816   4.738   5.884 -0.0534 -0.0427  0.0155
   81POPC   C1B 1282   3.532   4.212   6.939 -0.2704  0.1300 -0.5287
   81POPC   C2B 1283   3.772   4.237   6.466  0.0304  0.0204 -0.3925
   81POPC   C3B 1284   3.880   4.213   5.963  0.1991 -0.0434  0.1458
   81POPC   C4B 1285   3.732   4.281   5.590 -0.0825 -0.1976 -0.2891
   82POPC   NC3 1286   0.037   2.578   7.777 -0.0046 -0.0499  0.0173
   82POPC   PO4 1287   0.382   2.728   7.460 -0.0315  0.2246  0.0725
   82POPC   GL1 1288   0.417   2.643   6.965  0.1747  0.1653  0.0763
   82POPC   GL2 1289   0.647   2.437   7.007 -0.1824 -0.0719  0.0059
   82POPC   C1A 1290   0.307   2.900   6.635 -0.0918 -0.2634 -0.0105
   82POPC   D2A 1291   0.494   3.021   6.183  0.0238 -0.2058 -0.2394
   82POPC   C3A 1292   0.167   2.972   5.935 -0.0333 -0.1310  0.1798
   82POPC   C4A 1293  -0.201   3.044   5.574 -0.2433  0.0625  0.0086
   82POPC   C1B 1294   0.799   2.513   6.586 -0.0676 -0.2582 -0.3626
   82POPC   C2B 1295   0.877   2.524   6.167  0.3236 -0.0823 -0.0094
   82POPC   C3B 1296   1.161   2.602   5.937 -0.0403  0.0972  0.0094
   82POPC   C4B 1297   1.369   2.812   5.660 -0.0763 -0.0195 -0.1835
   83POPC   NC3 1298   6.738   0.322   7.641 -0.1440 -0.0261  0.1015
   83POPC   PO4 1299   6.514   0.758   7.480  0.0526 -0.1879 -0.1271
   83POPC   GL1 1300   6.488   1.206   7.152 -0.0109 -0.2183  0.0000
   83POPC   GL2 1301   6.584   1.610   7.228  0.1154  0.4001  0.0143
   83POPC   C1A 1302   6.203   1.260   6.797  0.1874 -0.0986  0.1608
   83POPC   D2A 1303   6.207   1.141   6.443  0.1902 -0.0431 -0.1698
   83POPC   C3A 1304   6.502   1.239   6.177 -0.0251  0.0038 -0.0175
   83POPC   C4A 1305   6.565   1.580   6.162 -0.2802  0.3134 -0.3249
   83POPC   C1B 1306   6.764   1.525   6.921 -0.1631  0.4221  0.1263
   83POPC   C2B 1307   6.688   1.302   6.650  0.2937  0.1724 -0.0045
   83POPC   C3B 1308   7.005   1.263   6.255 -0.2621  0.0164 -0.2965
   83POPC   C4B 1309   6.882   1.272   5.779 -0.1737  0.0531 -0.1647
   84POPC   NC3 1310   7.679   2.665   7.560 -0.2349  0.1851 -0.3139
   84POPC   PO4 1311   7.230   2.859   7.466  0.0859 -0.0431  0.0830
   84POPC   GL1 1312   7.326   2.630   7.133  0.2749 -0.2569 -0.0965
   84POPC   GL2 1313   7.287   2.371   7.207 -0.0128 -0.0792  0.0768
   84POPC   C1A 1314   7.428   2.414   6.727 -0.2412  0.1192 -0.3206
   84POPC   D2A 1315   7.232   2.257   6.433  0.2567 -0.0195  0.0017
   84POPC   C3A 1316   7.337   2.068   5.974 -0.1344  0.2158 -0.0817
   84POPC   C4A 1317   7.419   1.967   5.614 -0.0468 -0.1981 -0.0457
   84POPC   C1B 1318   7.197   2.014   7.028 -0.0687  0.0004 -0.0753
   84POPC   C2B 1319   7.203   1.815   6.676 -0.1433 -0.1435  0.2969
   84POPC   C3B 1320   7.051   1.810   6.267  0.1181  0.0592 -0.3135
   84POPC   C4B 1321   6.907   1.849   5.848 -0.1967  0.0912 -0.2151
   85POPC   NC3 1322   8.819   3.475   7.244  0.1345  0.0370 -0.2671
   85POPC   PO4 1323   8.539   3.114   7.301  0.3701 -0.1299 -0.0051
   85POPC   GL1 1324   8.432   3.224   6.898 -0.0676  0.0261  0.1030
   85POPC   GL2 1325   8.224   3.265   6.930  0.2243 -0.0848  0.1922
   85POPC   C1A 1326   8.673   3.043   6.440  0.0042  0.1932 -0.2894
   85POPC   D2A 1327   9.010   2.743   6.495  0.0200  0.0944  0.1006
   85POPC   C3A 1328   9.477   2.784   6.291 -0.2202  0.0687  0.0206
   85POPC   C4A 1329   9.775   2.736   5.878 -0.0619  0.1872  0.0871
   85POPC   C1B 1330   8.330   3.447   6.486  0.0248  0.2251  0.0320
   85POPC   C2B 1331   8.384   3.370   6.105 -0.2382 -0.0162  0.2290
   85POPC   C3B 1332   8.654   3.293   5.787 -0.2456 -0.0078 -0.2850
   85POPC   C4B 1333   9.060   3.161   5.561  0.1241  0.2498 -0.1486
   86POPC   NC3 1334   4.737   4.897   7.582  0.0485  0.2486  0.2715
   86POPC   PO4 1335   4.314   4.890   7.719  0.2432  0.3109  0.2076
   86POPC   GL1 1336   4.410   4.684   7.260  0.4236  0.4082 -0.2491
   86POPC   GL2 1337   4.475   4.937   6.989  0.0586 -0.0813  0.1417
   86POPC   C1A 1338   4.493   4.461   6.857  0.2955  0.1175 -0.2495
   86POPC   D2A 1339   4.203   4.383   6.524  0.0346 -0.0824  0.0722
   86POPC   C3A 1340   4.341   4.562   6.106  0.0848 -0.0811 -0.1032
   86POPC   C4A 1341   4.481   4.970   6.037 -0.2640 -0.0845  0.0130
   86POPC   C1B 1342   4.516   4.832   6.501 -0.3012  0.1240 -0.4423
   86POPC   C2B 1343   4.775   4.507   6.432  0.1245  0.1076  0.1261
   86POPC   C3B 1344   5.277   4.447   6.299 -0.3827  0.1532 -0.0521
   86POPC   C4B 1345   5.504   4.798   6.072 -0.0749  0.1482 -0.2188
   87POPC   NC3 1346   8.107   3.338   7.421 -0.1135  0.1134 -0.0266
   87POPC   PO4 1347   8.060   2.969   7.605 -0.1043 -0.1219  0.3017
   87POPC   GL1 1348   7.801   2.997   7.242  0.1466 -0.1934  0.2223
   87POPC   GL2 1349   7.599   3.181   7.330  0.4816 -0.0245  0.2967
   87POPC   C1A 1350   7.703   2.876   6.807  0.0239  0.2815  0.3946
   87POPC   D2A 1351   7.501   2.799   6.400  0.0734 -0.1138  0.0506
   87POPC   C3A 1352   7.696   2.444   6.135  0.2980  0.3346  0.3512
   87POPC   C4A 1353   7.673   2.490   5.644  0.4712 -0.1317 -0.1401
   87POPC   C1B 1354   7.580   3.303   6.940 -0.1077 -0.2119 -0.0253
   87POPC   C2B 1355   7.732   3.318   6.520  0.2452  0.0265  0.0955
   87POPC   C3B 1356   7.896   3.337   6.106  0.1420 -0.1079  0.1070
   87POPC   C4B 1357   8.150   3.220   5.653  0.0293  0.1250  0.1642
   88POPC   NC3 1358   4.371   1.688   7.989 -0.2199  0.1721 -0.1459
   88POPC   PO4 1359   4.001   1.414   8.003 -0.0841 -0.4748 -0.0663
   88POPC   GL1 1360   3.928   1.280   7.591 -0.0833 -0.2070  0.0226
   88POPC   GL2 1361   3.566   1.122   7.486  0.1960  0.0099 -0.3435
   88POPC   C1A 1362   4.006   1.322   7.126  0.0216 -0.3745 -0.0751
   88POPC   D2A 1363   4.168   1.418   6.699  0.1152  0.1844  0.3097
   88POPC   C3A 1364   4.525   1.288   6.814  0.1104  0.3888 -0.1573
   88POPC   C4A 1365   4.859   1.049   6.960 -0.4287 -0.2406 -0.2500
   88POPC   C1B 1366   3.649   1.005   7.090 -0.0330  0.1084 -0.4033
   88POPC   C2B 1367   3.776   0.943   6.675 -0.0280 -0.1626  0.2704
   88POPC   C3B 1368   3.968   0.768   6.295  0.1150  0.0676 -0.0103
   88POPC   C4B 1369   4.151   0.620   5.864 -0.2814 -0.0154 -0.1159
   89POPC   NC3 1370   7.437   9.344   7.714  0.0653  0.3146 -0.0025
   89POPC   PO4 1371   7.799   9.398   7.394  0.3389  0.1794  0.0803
   89POPC   GL1 1372   7.636   9.259   6.947  0.1003 -0.1006  0.1125
   89POPC   GL2 1373   8.025   9.261   6.758  0.1413 -0.2292  0.1192
   89POPC   C1A 1374   7.650   9.465   6.522  0.0536 -0.0425 -0.2480
   89POPC   D2A 1375   7.778   9.671   6.154  0.0172  0.2683  0.2360
   89POPC   C3A 1376   7.791   9.536   5.680 -0.3285 -0.2871  0.0616
   89POPC   C4A 1377   7.766   9.223   5.370  0.0280  0.1491  0.1075
   89POPC   C1B 1378   8.094   9.298   6.312 -0.2680 -0.2971 -0.4643
   89POPC   C2B 1379   7.942   9.044   5.903 -0.2931 -0.0453 -0.2906
   89POPC   C3B 1380   8.023   8.819   5.609 -0.1195  0.0256 -0.1069
   89POPC   C4B 1381   8.345   8.702   5.444  0.1798  0.2560 -0.1027
   90POPC   NC3 1382   3.069   8.955   7.409  0.1281 -0.0573 -0.0836
   90POPC   PO4 1383   2.882   9.232   7.589  0.1242  0.0924 -0.0501
   90POPC   GL1 1384   2.823   9.477   7.177  0.1320 -0.2138  0.1506
   90POPC   GL2 1385   2.545   9.650   7.077  0.1055 -0.0232  0.1256
   90POPC   C1A 1386   2.933   9.518   6.755 -0.1170 -0.3496  0.1735
   90POPC   D2A 1387   3.197   9.368   6.482  0.1264 -0.0952  0.0456
   90POPC   C3A 1388   3.415   9.383   6.123  0.0179 -0.0760 -0.1134
   90POPC   C4A 1389   3.289   9.238   5.677  0.0489  0.0488  0.1155
   90POPC   C1B 1390   2.413   9.529   6.632  0.1010 -0.2295 -0.0025
   90POPC   C2B 1391   2.518   9.477   6.270  0.0135 -0.2485  0.1424
   90POPC   C3B 1392   2.488   9.195   5.897 -0.2185  0.1079  0.2521
   90POPC   C4B 1393   2.796   9.121   5.524  0.0895  0.1238 -0.0919
   91POPC   NC3 1394   9.391   4.167   7.151 -0.2037  0.1298  0.2243
   91POPC   PO4 1395   9.370   3.781   7.235  0.1679  0.0877  0.0850
   91POPC   GL1 1396   9.291   3.500   6.861  0.3511 -0.1254 -0.0034
   91POPC   GL2 1397   9.585   3.579   6.690 -0.0002 -0.2453  0.0196
   91POPC   C1A 1398   9.210   3.235   6.489 -0.0017 -0.1491  0.2989
   91POPC   D2A 1399   9.054   3.046   6.086 -0.1784 -0.0369  0.3727
   91POPC   C3A 1400   9.405   3.037   5.871  0.0896 -0.0358  0.0740
   91POPC   C4A 1401   9.696   3.275   5.538 -0.0404  0.0275 -0.0890
   91POPC   C1B 1402   9.372   3.665   6.262  0.2123 -0.2814  0.0582
   91POPC   C2B 1403   9.550   3.648   5.916  0.0195 -0.2449  0.3328
   91POPC   C3B 1404   9.323   3.615   5.571  0.0254 -0.0530  0.2527
   91POPC   C4B 1405   8.958   3.592   5.220  0.1895  0.2096  0.1717
   92POPC   NC3 1406   3.660   4.566   7.903  0.1326 -0.0778 -0.1721
   92POPC   PO4 1407   3.303   4.462   7.801  0.2259  0.0352  0.0620
   92POPC   GL1 1408   3.123   4.418   7.381  0.1423 -0.1091  0.4772
   92POPC   GL2 1409   3.286   4.665   7.155  0.1107  0.0171 -0.0501
   92POPC   C1A 1410   2.942   4.435   6.934  0.2472 -0.2077 -0.3483
   92POPC   D2A 1411   2.707   4.518   6.690  0.0858  0.0608  0.0381
   92POPC   C3A 1412   2.504   4.590   6.336 -0.0766  0.1739 -0.1801
   92POPC   C4A 1413   2.184   4.473   6.154  0.1002  0.1118 -0.3760
   92POPC   C1B 1414   3.378   4.729   6.766  0.0018  0.2941 -0.2553
   92POPC   C2B 1415   3.004   4.836   6.484  0.0632 -0.6374 -0.1695
   92POPC   C3B 1416   2.624   5.037   6.638 -0.1805 -0.1111 -0.1534
   92POPC   C4B 1417   2.455   5.426   6.668  0.0087 -0.1426 -0.3759
   93POPC   NC3 1418   1.024   8.543   7.579 -0.2287 -0.0868  0.0931
   93POPC   PO4 1419   1.117   9.017   7.573  0.3003 -0.0408  0.0372
   93POPC   GL1 1420   1.214   9.127   7.200  0.2079 -0.3077 -0.1128
   93POPC   GL2 1421   0.956   8.771   7.110 -0.0950  0.0466 -0.0272
   93POPC   C1A 1422   1.023   9.093   6.734 -0.1276  0.0745  0.1171
   93POPC   D2A 1423   0.822   9.055   6.359  0.0113 -0.2130 -0.2338
   93POPC   C3A 1424   0.633   9.261   5.997  0.0757 -0.0402 -0.0696
   93POPC   C4A 1425   0.412   9.200   5.615  0.3694  0.1100  0.1733
   93POPC   C1B 1426   0.673   8.704   6.730 -0.1491  0.1676  0.2753
   93POPC   C2B 1427   0.529   8.662   6.383 -0.0332  0.0213  0.0862
   93POPC   C3B 1428   0.417   8.805   5.941 -0.2656 -0.1816 -0.2208
   93POPC   C4B 1429   0.539   8.640   5.543 -0.0417 -0.1131 -0.1270
   94POPC   NC3 1430   6.367   1.788   7.588 -0.1956  0.1069  0.2074
   94POPC   PO4 1431   6.367   2.278   7.452 -0.0877 -0.2464  0.1004
   94POPC   GL1 1432   6.303   2.317   7.036 -0.0056  0.0244 -0.0836
   94POPC   GL2 1433   6.292   1.956   6.992  0.1571 -0.2557 -0.3321
   94POPC   C1A 1434   6.388   2.275   6.608  0.0174 -0.3106  0.1255
   94POPC   D2A 1435   6.565   2.254   6.170  0.1526 -0.1247  0.1073
   94POPC   C3A 1436   6.796   2.348   5.775  0.0552 -0.2567 -0.0050
   94POPC   C4A 1437   7.238   2.470   5.460 -0.0637  0.1746 -0.0805
   94POPC   C1B 1438   5.924   1.998   6.785  0.1256 -0.1039  0.1586
   94POPC   C2B 1439   5.750   2.074   6.452  0.0717  0.0166 -0.2828
   94POPC   C3B 1440   5.485   1.723   6.324  0.1895 -0.2603 -0.3520
   94POPC   C4B 1441   5.651   1.285   6.248  0.0196  0.1992  0.0385
   95POPC   NC3 1442   4.717   7.844   7.615  0.2170 -0.0206 -0.0896
   95POPC   PO4 1443   5.191   7.859   7.781  0.4439  0.1501  0.1917
   95POPC   GL1 1444   5.078   7.902   7.293 -0.0717  0.1428  0.0291
   95POPC   GL2 1445   5.316   7.968   7.068  0.0351 -0.0477 -0.2149
   95POPC   C1A 1446   5.016   7.468   7.089 -0.1171 -0.0834 -0.0670
   95POPC   D2A 1447   4.911   7.278   6.680  0.1984  0.0148 -0.3375
   95POPC   C3A 1448   5.030   7.319   6.290  0.0337  0.0777  0.3306
   95POPC   C4A 1449   5.209   7.258   5.931 -0.4205  0.3768  0.2389
   95POPC   C1B 1450   5.184   8.090   6.698 -0.1000  0.3965 -0.0196
   95POPC   C2B 1451   5.124   8.213   6.286 -0.1525  0.1581  0.3757
   95POPC   C3B 1452   5.222   8.508   6.018 -0.0509  0.0810  0.1063
   95POPC   C4B 1453   5.134   8.710   5.634 -0.4809  0.1323  0.0038
   96POPC   NC3 1454   6.344  10.202   7.751  0.2676  0.2555  0.1444
   96POPC   PO4 1455   6.735  10.377   7.769  0.1699  0.0660 -0.3062
   96POPC   GL1 1456   6.700  10.253   7.365 -0.1304 -0.0957 -0.2016
   96POPC   GL2 1457   6.381  10.031   7.286  0.0373  0.0322  0.0093
   96POPC   C1A 1458   6.638  10.108   6.861 -0.0523  0.2163 -0.0188
   96POPC   D2A 1459   6.607  10.205   6.434 -0.2634 -0.1651 -0.0953
   96POPC   C3A 1460   7.004  10.016   6.273 -0.0947  0.0641 -0.1538
   96POPC   C4A 1461   7.222   9.602   6.362 -0.0403  0.0369 -0.0592
   96POPC   C1B 1462   6.223   9.905   6.856  0.1028 -0.0711  0.0221
   96POPC   C2B 1463   6.089   9.972   6.456 -0.0041 -0.2360 -0.0421
   96POPC   C3B 1464   6.027  10.235   6.121  0.0792 -0.1523  0.1720
   96POPC   C4B 1465   6.236  10.383   5.681 -0.0737 -0.0581  0.5172
   97POPC   NC3 1466   5.066   5.907   8.380 -0.1351 -0.1859 -0.0185
   97POPC   PO4 1467   4.991   5.963   7.930 -0.2446 -0.0654  0.1979
   97POPC   GL1 1468   5.195   5.953   7.495  0.2065  0.1816  0.2935
   97POPC   GL2 1469   5.476   6.169   7.456  0.2723 -0.1467 -0.0062
   97POPC   C1A 1470   5.125   6.100   7.048  0.1246 -0.0694 -0.0365
   97POPC   D2A 1471   5.030   6.246   6.757 -0.2369  0.0191  0.0953
   97POPC   C3A 1472   5.140   6.195   6.317  0.2329  0.2395 -0.0120
   97POPC   C4A 1473   5.270   6.167   5.917  0.1511 -0.0702  0.0366
   97POPC   C1B 1474   5.405   6.521   7.127  0.0707  0.1679  0.0697
   97POPC   C2B 1475   5.529   6.477   6.653  0.0711  0.1605 -0.0341
   97POPC   C3B 1476   5.686   6.239   6.294  0.2097  0.1108  0.0205
   97POPC   C4B 1477   6.033   6.143   6.142  0.0550 -0.2148 -0.1231
   98POPC   NC3 1478   3.579   6.013   7.828 -0.1194  0.0016 -0.2240
   98POPC   PO4 1479   3.224   6.151   7.611  0.0525 -0.3475  0.1100
   98POPC   GL1 1480   3.101   6.317   7.278 -0.3321 -0.1629  0.2456
   98POPC   GL2 1481   3.345   6.632   7.212  0.1706  0.0020  0.5326
   98POPC   C1A 1482   2.676   6.448   7.220  0.0019  0.0268  0.1167
   98POPC   D2A 1483   2.353   6.732   6.923  0.2432  0.1261  0.2867
   98POPC   C3A 1484   2.243   6.846   6.539 -0.1912 -0.1016  0.0865
   98POPC   C4A 1485   1.953   6.597   6.282  0.0106  0.1089 -0.1682
   98POPC   C1B 1486   3.327   6.793   6.720  0.0420 -0.2510  0.1830
   98POPC   C2B 1487   3.249   7.070   6.390 -0.0376 -0.1514 -0.0656
   98POPC   C3B 1488   3.217   7.045   5.983  0.1880 -0.0276  0.0874
   98POPC   C4B 1489   3.325   6.965   5.586  0.1004 -0.1492 -0.3282
   99POPC   NC3 1490  10.847   0.153   7.449  0.2494 -0.1632  0.2551
   99POPC   PO4 1491  11.170  -0.181   7.389  0.2208 -0.2274 -0.0019
   99POPC   GL1 1492  11.206  -0.017   7.048  0.1423 -0.0782 -0.2201
   99POPC   GL2 1493  10.938   0.163   6.956  0.2109 -0.1617 -0.1303
   99POPC   C1A 1494  11.533   0.173   6.807 -0.0295  0.1528  0.0090
   99POPC   D2A 1495  11.677   0.249   6.381  0.0065 -0.1067 -0.0366
   99POPC   C3A 1496  11.753  -0.092   6.071 -0.0815 -0.2597  0.0906
   99POPC   C4A 1497  12.009  -0.330   5.730 -0.1265  0.0099  0.0076
   99POPC   C1B 1498  10.915  -0.132   6.583 -0.1670 -0.2577 -0.2759
   99POPC   C2B 1499  10.773  -0.230   6.125 -0.0324  0.1571  0.1892
   99POPC   C3B 1500  10.636  -0.652   5.878 -0.0255 -0.1890  0.2512
   99POPC   C4B 1501  10.679  -0.956   5.580  0.1199 -0.2381  0.0142
  100POPC   NC3 1502   8.924   2.693   7.715 -0.0476 -0.0284 -0.2774
  100POPC   PO4 1503   8.971   2.914   7.421  0.0477 -0.1351 -0.0392
  100POPC   GL1 1504   8.860   2.618   7.129 -0.1544  0.2234 -0.1550
  100POPC   GL2 1505   8.600   2.754   6.989  0.0079 -0.5424 -0.3133
  100POPC   C1A 1506   8.933   2.311   6.723  0.0770  0.1477  0.3691
  100POPC   D2A 1507   9.066   1.888   6.656 -0.0278  0.0790 -0.2606
  100POPC   C3A 1508   9.415   1.749   6.506  0.2784 -0.1748 -0.1330
  100POPC   C4A 1509   9.718   1.735   6.245 -0.0384  0.1158 -0.0968
  100POPC   C1B 1510   8.499   2.587   6.653 -0.1156  0.1497  0.1361
  100POPC   C2B 1511   8.412   2.552   6.312 -0.0279 -0.1923 -0.0611
  100POPC   C3B 1512   8.694   2.742   5.868  0.2429 -0.2326  0.2748
  100POPC   C4B 1513   9.007   2.604   5.413  0.1140  0.1950  0.2286
  101POPC   NC3 1514   5.266   9.245   7.910  0.3305  0.2163  0.0131
  101POPC   PO4 1515   5.503   9.132   7.400  0.0099 -0.2125  0.2617
  101POPC   GL1 1516   5.436   9.403   7.020  0.1509 -0.3390  0.2367
  101POPC   GL2 1517   5.399   9.595   7.031 -0.1183  0.1744 -0.4632
  101POPC   C1A 1518   5.277   9.312   6.602  0.0013  0.1029 -0.1892
  101POPC   D2A 1519   5.315   9.333   6.140  0.2381 -0.1203  0.1795
  101POPC   C3A 1520   5.649   9.165   5.870  0.0359 -0.3854  0.0298
  101POPC   C4A 1521   5.999   9.074   5.670  0.2012 -0.2609 -0.1769
  101POPC   C1B 1522   4.968   9.583   6.901 -0.1398  0.0751 -0.1193
  101POPC   C2B 1523   4.685   9.184   6.815 -0.2067 -0.0981  0.1822
  101POPC   C3B 1524   4.446   8.867   6.551  0.2769 -0.2937  0.2473
  101POPC   C4B 1525   4.084   8.917   6.431 -0.2236 -0.4300  0.2072
  102POPC   NC3 1526   1.402   9.551   7.789  0.3432  0.0580  0.3399
  102POPC   PO4 1527   1.158   9.589   7.328  0.2976  0.0585 -0.1590
  102POPC   GL1 1528   1.312   9.776   6.903  0.0944 -0.1241  0.1192
  102POPC   GL2 1529   1.384   9.374   6.788 -0.2036 -0.1092  0.1326
  102POPC   C1A 1530   1.577   9.717   6.514  0.1756  0.0152 -0.3064
  102POPC   D2A 1531   1.728   9.779   6.185  0.0362  0.0013 -0.2226
  102POPC   C3A 1532   2.073   9.530   5.903  0.0336 -0.0337  0.1771
  102POPC   C4A 1533   2.100   9.152   5.592 -0.2396 -0.2024 -0.1804
  102POPC   C1B 1534   1.312   9.332   6.370  0.0556 -0.3211 -0.2684
  102POPC   C2B 1535   1.150   9.396   5.889  0.1906 -0.2064 -0.1163
  102POPC   C3B 1536   1.008   9.224   5.578 -0.0093 -0.1122  0.1324
  102POPC   C4B 1537   1.104   8.802   5.389  0.2470 -0.1848 -0.1342
  103POPC   NC3 1538   2.945   7.661   7.712 -0.1774  0.3144  0.0123
  103POPC   PO4 1539   3.222   8.105   7.673  0.0466 -0.0003  0.0798
  103POPC   GL1 1540   3.185   7.938   7.318  0.0102 -0.0091  0.3081
  103POPC   GL2 1541   3.378   8.183   7.201 -0.2903  0.1571  0.4475
  103POPC   C1A 1542   3.251   7.798   6.924  0.0462 -0.0866 -0.1155
  103POPC   D2A 1543   3.323   7.583   6.574 -0.0476  0.1541  0.0992
  103POPC   C3A 1544   3.131   7.573   6.139  0.0299  0.1139 -0.1652
  103POPC   C4A 1545   3.300   7.552   5.662  0.0339 -0.1961  0.3480
  103POPC   C1B 1546   3.773   8.194   6.962 -0.3870 -0.0216  0.3051
  103POPC   C2B 1547   3.744   8.060   6.549 -0.1096  0.2737 -0.1036
  103POPC   C3B 1548   3.535   7.869   6.118  0.0928  0.0762  0.0727
  103POPC   C4B 1549   3.265   8.042   5.641 -0.2140  0.0152  0.2946
  104POPC   NC3 1550   8.832   4.306   7.489  0.1781 -0.2934 -0.0753
  104POPC   PO4 1551   8.493   3.985   7.433  0.0458  0.0066 -0.0244
  104POPC   GL1 1552   8.382   3.692   7.118  0.1946 -0.0348 -0.3093
  104POPC   GL2 1553   8.575   3.729   6.815 -0.1194  0.3369 -0.0191
  104POPC   C1A 1554   8.056   3.731   6.867 -0.1792 -0.0743 -0.0455
  104POPC   D2A 1555   7.961   3.806   6.446  0.0065 -0.2364  0.0934
  104POPC   C3A 1556   7.550   3.716   6.246  0.0860 -0.0392  0.0755
  104POPC   C4A 1557   7.216   3.272   6.203  0.1337  0.0675  0.0270
  104POPC   C1B 1558   8.816   3.575   6.564  0.2118 -0.0876  0.1399
  104POPC   C2B 1559   8.868   3.545   6.139 -0.1410 -0.0599 -0.2205
  104POPC   C3B 1560   8.982   3.796   5.831  0.1323  0.0781 -0.2559
  104POPC   C4B 1561   9.090   4.101   5.585 -0.0061 -0.1445 -0.3038
  105POPC   NC3 1562   5.982   8.946   7.382 -0.0799 -0.0812  0.0377
  105POPC   PO4 1563   5.907   9.289   7.626  0.0998 -0.0986  0.1178
  105POPC   GL1 1564   5.995   9.426   7.183 -0.0127  0.0848 -0.1388
  105POPC   GL2 1565   5.936   9.697   7.187 -0.3513 -0.3549 -0.3048
  105POPC   C1A 1566   5.882   9.446   6.709  0.1645 -0.0904  0.0570
  105POPC   D2A 1567   5.843   9.131   6.406 -0.1498 -0.0450 -0.2530
  105POPC   C3A 1568   5.444   8.903   6.295  0.0254  0.1824 -0.3293
  105POPC   C4A 1569   5.074   8.826   6.503  0.0310 -0.3266  0.3256
  105POPC   C1B 1570   5.714   9.924   6.976  0.0084 -0.3565 -0.1790
  105POPC   C2B 1571   5.647  10.184   6.576  0.3258  0.2487 -0.0659
  105POPC   C3B 1572   5.532  10.168   6.131  0.1028 -0.0335  0.3271
  105POPC   C4B 1573   5.653  10.460   5.750 -0.1875 -0.0231  0.0926
  106POPC   NC3 1574   7.716   4.456   7.256 -0.0749  0.1146 -0.1218
  106POPC   PO4 1575   7.508   4.084   7.169  0.3113  0.1506 -0.0333
  106POPC   GL1 1576   7.623   4.139   6.777  0.3895 -0.2678 -0.0500
  106POPC   GL2 1577   7.622   3.810   6.746  0.1425  0.2016  0.1401
  106POPC   C1A 1578   8.026   4.277   6.697  0.0688  0.0043  0.2053
  106POPC   D2A 1579   8.412   4.078   6.520  0.1787  0.0802  0.2702
  106POPC   C3A 1580   8.391   3.942   6.150  0.3208  0.4024  0.1667
  106POPC   C4A 1581   8.540   4.050   5.757  0.1212  0.1915  0.1880
  106POPC   C1B 1582   7.285   3.551   6.638  0.0221 -0.2171  0.2258
  106POPC   C2B 1583   6.812   3.399   6.524  0.0473 -0.1756 -0.0297
  106POPC   C3B 1584   6.405   3.644   6.310 -0.1520  0.1236 -0.0939
  106POPC   C4B 1585   6.154   3.373   5.900  0.2956 -0.1101  0.0568
  107POPC   NC3 1586   3.340   0.754   7.748  0.0684 -0.1751 -0.1860
  107POPC   PO4 1587   2.942   1.008   7.445  0.0909  0.0486  0.2399
  107POPC   GL1 1588   2.666   1.258   7.099 -0.2331 -0.3020  0.0108
  107POPC   GL2 1589   2.403   1.095   6.968 -0.1997  0.0110  0.0444
  107POPC   C1A 1590   2.839   1.490   6.715 -0.2049 -0.1660 -0.0432
  107POPC   D2A 1591   3.167   1.545   6.400 -0.0637  0.0002 -0.5074
  107POPC   C3A 1592   2.895   1.655   5.994  0.0201 -0.0462 -0.1048
  107POPC   C4A 1593   2.823   1.561   5.577  0.2793  0.1734 -0.0608
  107POPC   C1B 1594   2.433   1.120   6.573 -0.3796  0.1655  0.1031
  107POPC   C2B 1595   2.358   1.164   6.129  0.1847 -0.0849  0.0710
  107POPC   C3B 1596   2.350   1.246   5.652  0.5068  0.0881 -0.0341
  107POPC   C4B 1597   2.659   1.083   5.418  0.1546  0.0273  0.1559
  108POPC   NC3 1598   7.251   0.280   7.484 -0.0951 -0.1037  0.2643
  108POPC   PO4 1599   7.390   0.625   7.223  0.1257 -0.3358 -0.1801
  108POPC   GL1 1600   7.209   0.440   6.940  0.0213 -0.2429  0.0402
  108POPC   GL2 1601   7.072   0.135   7.004 -0.1320 -0.2467  0.0423
  108POPC   C1A 1602   6.892   0.447   6.639 -0.0736 -0.1510  0.1249
  108POPC   D2A 1603   6.801   0.292   6.239 -0.0828 -0.1372 -0.3020
  108POPC   C3A 1604   6.389   0.142   6.108  0.2206  0.2006 -0.1297
  108POPC   C4A 1605   5.981   0.259   6.044 -0.0103 -0.0488 -0.0325
  108POPC   C1B 1606   7.212   0.007   6.636  0.1826  0.1565 -0.0040
  108POPC   C2B 1607   7.200  -0.043   6.182 -0.0671 -0.0719 -0.4620
  108POPC   C3B 1608   6.855  -0.073   5.860 -0.0708 -0.0671  0.0422
  108POPC   C4B 1609   6.475   0.036   5.498  0.1265  0.3606 -0.1284
  109POPC   NC3 1610   0.979   4.924   8.071 -0.0954 -0.0650 -0.0403
  109POPC   PO4 1611   1.176   5.237   7.889  0.4310  0.3478 -0.1126
  109POPC   GL1 1612   1.290   5.104   7.475 -0.1248  0.2086 -0.0567
  109POPC   GL2 1613   1.203   5.322   7.244  0.0858 -0.2983 -0.1571
  109POPC   C1A 1614   1.468   4.705   7.258 -0.1335 -0.2306 -0.2909
  109POPC   D2A 1615   1.965   4.749   7.256  0.0395  0.3052 -0.1720
  109POPC   C3A 1616   2.289   4.429   6.986 -0.0187  0.0279 -0.1868
  109POPC   C4A 1617   2.250   4.266   6.600  0.2528  0.0258  0.0882
  109POPC   C1B 1618   0.973   5.381   6.847 -0.0353 -0.2452  0.1779
  109POPC   C2B 1619   1.245   5.503   6.420  0.1482 -0.1367  0.1857
  109POPC   C3B 1620   1.434   5.505   6.016 -0.1423  0.0013 -0.0089
  109POPC   C4B 1621   1.591   5.742   5.712 -0.1202  0.1767 -0.0670
  110POPC   NC3 1622  10.576   2.336   7.545 -0.1144  0.0616 -0.1053
  110POPC   PO4 1623  10.181   2.381   7.527  0.4265 -0.0489 -0.1636
  110POPC   GL1 1624  10.056   2.358   7.135 -0.1008 -0.0339 -0.1680
  110POPC   GL2 1625  10.262   2.069   7.078 -0.0162  0.0595  0.0813
  110POPC   C1A 1626   9.939   2.496   6.878  0.1833 -0.1922  0.2613
  110POPC   D2A 1627   9.907   2.508   6.358  0.1533 -0.1187  0.2095
  110POPC   C3A 1628  10.205   2.590   6.018 -0.0451  0.3329 -0.1272
  110POPC   C4A 1629  10.494   2.962   6.014 -0.0080 -0.1192  0.0411
  110POPC   C1B 1630  10.316   2.237   6.703 -0.3708 -0.2570  0.2886
  110POPC   C2B 1631  10.234   2.149   6.248 -0.2610 -0.1241  0.1662
  110POPC   C3B 1632  10.146   1.903   5.963 -0.3022 -0.1727  0.3940
  110POPC   C4B 1633  10.176   1.676   5.474  0.2138 -0.1742  0.1897
  111POPC   NC3 1634   5.948   6.216   7.781 -0.0709 -0.1270 -0.2270
  111POPC   PO4 1635   5.947   6.645   7.791  0.2572 -0.2074  0.0780
  111POPC   GL1 1636   6.025   6.714   7.410  0.0266 -0.0217  0.0410
  111POPC   GL2 1637   5.776   6.817   7.362 -0.2144 -0.0167 -0.0789
  111POPC   C1A 1638   6.012   6.588   6.977  0.1839 -0.1599  0.0289
  111POPC   D2A 1639   6.213   6.368   6.630 -0.0431  0.1946  0.1357
  111POPC   C3A 1640   5.996   5.992   6.626  0.0602 -0.4508  0.2819
  111POPC   C4A 1641   5.851   5.677   6.800 -0.1081  0.0457 -0.1196
  111POPC   C1B 1642   5.691   6.921   6.895  0.1377  0.1753  0.3242
  111POPC   C2B 1643   5.868   6.757   6.446  0.2383 -0.0236 -0.3141
  111POPC   C3B 1644   5.885   6.612   6.004 -0.4284 -0.2241 -0.1589
  111POPC   C4B 1645   5.693   6.766   5.573  0.1238  0.0303  0.2043
  112POPC   NC3 1646   8.482   2.645   7.446  0.1275  0.1845 -0.1084
  112POPC   PO4 1647   8.103   2.494   7.474 -0.0700 -0.2777 -0.0600
  112POPC   GL1 1648   8.134   2.456   7.110 -0.2950  0.2534  0.1201
  112POPC   GL2 1649   8.115   2.759   6.942 -0.1539 -0.2822  0.3852
  112POPC   C1A 1650   8.019   2.394   6.634  0.0411 -0.0091 -0.2487
  112POPC   D2A 1651   8.150   2.136   6.282 -0.0204  0.2725 -0.2125
  112POPC   C3A 1652   8.135   2.347   5.882  0.2087 -0.1626 -0.0357
  112POPC   C4A 1653   8.213   2.729   5.715 -0.5300 -0.0594  0.0847
  112POPC   C1B 1654   8.165   2.920   6.557 -0.3563 -0.1741  0.0924
  112POPC   C2B 1655   8.009   2.828   6.146 -0.0922  0.0704  0.0822
  112POPC   C3B 1656   7.552   2.980   5.956  0.0750  0.0176 -0.0234
  112POPC   C4B 1657   7.148   2.996   5.762 -0.3250 -0.0466  0.0030
  113POPC   NC3 1658   1.231   3.874   7.881 -0.0950 -0.4205 -0.0869
  113POPC   PO4 1659   1.461   3.425   7.802  0.3694 -0.0791  0.1095
  113POPC   GL1 1660   1.372   3.581   7.405  0.2031 -0.1878 -0.0174
  113POPC   GL2 1661   1.586   3.838   7.424 -0.3041 -0.1321  0.3995
  113POPC   C1A 1662   1.499   3.517   7.035 -0.0539  0.1586 -0.1572
  113POPC   D2A 1663   1.673   3.723   6.720  0.0334 -0.1449  0.1313
  113POPC   C3A 1664   1.534   3.811   6.317 -0.2554  0.0299 -0.0005
  113POPC   C4A 1665   1.552   3.758   5.857  0.1521 -0.2204  0.0362
  113POPC   C1B 1666   1.310   4.056   7.079 -0.0977  0.2004 -0.2349
  113POPC   C2B 1667   1.263   4.444   6.798  0.0680 -0.0542  0.0643
  113POPC   C3B 1668   1.123   4.585   6.303 -0.2734 -0.0995 -0.1094
  113POPC   C4B 1669   0.960   4.562   5.887 -0.1634 -0.1372 -0.0762
  114POPC   NC3 1670   5.134   4.108   7.987 -0.0504 -0.0221 -0.1330
  114POPC   PO4 1671   5.085   3.608   8.025  0.1206 -0.2279  0.0692
  114POPC   GL1 1672   5.076   3.781   7.559  0.0665 -0.0292 -0.1162
  114POPC   GL2 1673   5.293   3.951   7.322  0.3748  0.1091  0.0307
  114POPC   C1A 1674   4.861   3.631   7.202  0.0131 -0.0586 -0.1559
  114POPC   D2A 1675   4.653   3.362   6.926 -0.1485  0.3132 -0.0770
  114POPC   C3A 1676   4.629   3.491   6.481  0.0094 -0.1684 -0.3192
  114POPC   C4A 1677   4.561   3.535   6.020  0.0520  0.2339 -0.0913
  114POPC   C1B 1678   5.420   3.886   6.826  0.2108 -0.1443 -0.0679
  114POPC   C2B 1679   5.515   3.626   6.444  0.0723 -0.1501  0.1329
  114POPC   C3B 1680   5.822   3.436   6.481 -0.0507  0.1246 -0.1324
  114POPC   C4B 1681   5.979   2.977   6.374 -0.0652 -0.3884 -0.1934
  115POPC   NC3 1682   6.696   3.577   7.493 -0.0760 -0.1030  0.0062
  115POPC   PO4 1683   6.343   3.347   7.471  0.1828  0.0079 -0.2844
  115POPC   GL1 1684   6.246   3.321   6.992 -0.0389 -0.0968 -0.0414
  115POPC   GL2 1685   6.110   2.994   6.974 -0.2888  0.5114 -0.0973
  115POPC   C1A 1686   6.382   3.220   6.642 -0.2111 -0.1138  0.1556
  115POPC   D2A 1687   6.497   3.145   6.162  0.1795 -0.0791 -0.0195
  115POPC   C3A 1688   6.830   2.893   6.117 -0.1903 -0.0293  0.0846
  115POPC   C4A 1689   7.189   2.566   5.965  0.0385  0.2553 -0.0848
  115POPC   C1B 1690   6.043   2.648   6.722 -0.6036  0.0465 -0.1427
  115POPC   C2B 1691   6.080   2.406   6.228 -0.3176  0.0634  0.0094
  115POPC   C3B 1692   6.058   1.952   6.075  0.1105  0.2765 -0.2128
  115POPC   C4B 1693   6.066   1.493   6.014 -0.0999 -0.1969  0.0581
  116POPC   NC3 1694   9.697  10.171   7.396 -0.0455 -0.0218  0.1266
  116POPC   PO4 1695   9.839   9.800   7.217 -0.0768  0.1476  0.1672
  116POPC   GL1 1696   9.863   9.817   6.731 -0.0077 -0.1776 -0.0958
  116POPC   GL2 1697   9.702   9.563   6.659 -0.1537 -0.3919  0.0204
  116POPC   C1A 1698   9.879   9.864   6.284 -0.0870  0.0311  0.0580
  116POPC   D2A 1699   9.641   9.952   5.948 -0.3168  0.0382  0.2050
  116POPC   C3A 1700   9.733   9.596   5.603 -0.0034 -0.3267  0.3232
  116POPC   C4A 1701   9.958   9.326   5.340  0.0313 -0.3337  0.3047
  116POPC   C1B 1702   9.454   9.585   6.398  0.3208  0.0781  0.1355
  116POPC   C2B 1703   9.204   9.864   6.141  0.0527 -0.1020  0.0812
  116POPC   C3B 1704   9.277   9.855   5.651  0.0642 -0.0792  0.1795
  116POPC   C4B 1705   9.151  10.062   5.259 -0.0921  0.3172 -0.2572
  117POPC   NC3 1706   8.033   0.953   7.360  0.2426 -0.1064 -0.1019
  117POPC   PO4 1707   7.701   1.217   7.403 -0.0518 -0.2485 -0.0241
  117POPC   GL1 1708   8.057   1.329   6.930  0.0227  0.1706  0.2087
  117POPC   GL2 1709   8.059   1.619   6.719  0.1269 -0.1550  0.1027
  117POPC   C1A 1710   8.260   1.137   6.574 -0.2708 -0.0107  0.1304
  117POPC   D2A 1711   8.481   1.491   6.404  0.2158  0.2635  0.1885
  117POPC   C3A 1712   8.383   1.769   6.000  0.0731  0.3225  0.2389
  117POPC   C4A 1713   8.290   1.928   5.629  0.0483 -0.0524 -0.0625
  117POPC   C1B 1714   7.927   1.597   6.324 -0.3960 -0.0028  0.0788
  117POPC   C2B 1715   7.547   1.577   6.071  0.2601 -0.2139  0.2319
  117POPC   C3B 1716   7.362   1.453   5.580  0.0745  0.0846 -0.2127
  117POPC   C4B 1717   7.489   1.101   5.342 -0.0676  0.0333  0.1612
  118POPC   NC3 1718   9.378   5.478   7.619 -0.1200  0.4104 -0.0497
  118POPC   PO4 1719   9.835   5.674   7.502  0.0271  0.1040 -0.3560
  118POPC   GL1 1720   9.968   5.820   7.090 -0.3588 -0.0067  0.1579
  118POPC   GL2 1721  10.272   6.015   7.065 -0.0375 -0.1170 -0.1941
  118POPC   C1A 1722  10.068   5.658   6.664  0.0794 -0.2566  0.1651
  118POPC   D2A 1723  10.195   5.310   6.380 -0.1244 -0.1470 -0.2031
  118POPC   C3A 1724  10.544   5.289   6.182  0.1510 -0.2576 -0.0759
  118POPC   C4A 1725  10.833   4.898   5.951  0.0946  0.2452 -0.3437
  118POPC   C1B 1726  10.148   6.214   6.787  0.0784 -0.0708 -0.0213
  118POPC   C2B 1727   9.943   6.526   6.482 -0.4223  0.2522 -0.3763
  118POPC   C3B 1728   9.960   6.548   6.115  0.1474 -0.0503  0.0238
  118POPC   C4B 1729   9.990   6.364   5.711 -0.0237  0.2640 -0.1229
  119POPC   NC3 1730   4.486   7.135   8.071  0.0933 -0.1951 -0.0801
  119POPC   PO4 1731   4.428   7.416   7.729 -0.1523  0.1044 -0.2668
  119POPC   GL1 1732   4.412   7.211   7.360 -0.1455  0.0638  0.0475
  119POPC   GL2 1733   4.434   7.564   7.223  0.1869 -0.2733 -0.1663
  119POPC   C1A 1734   4.770   7.070   7.144  0.2445  0.3354 -0.1631
  119POPC   D2A 1735   5.099   6.843   6.918 -0.0450  0.1358 -0.2446
  119POPC   C3A 1736   5.053   6.736   6.456  0.1323  0.0736  0.4948
  119POPC   C4A 1737   4.799   6.472   6.099  0.1771  0.1725 -0.1119
  119POPC   C1B 1738   4.168   7.830   6.878  0.2400  0.1425  0.4960
  119POPC   C2B 1739   4.357   7.918   6.459 -0.0772 -0.0316 -0.1295
  119POPC   C3B 1740   4.549   8.106   6.089  0.4563 -0.0639  0.1088
  119POPC   C4B 1741   4.904   8.242   5.733 -0.0938  0.4431  0.1075
  120POPC   NC3 1742   9.393   8.902   7.612 -0.0161  0.1100 -0.0763
  120POPC   PO4 1743   9.645   8.591   7.396  0.0209  0.3577  0.0973
  120POPC   GL1 1744   9.572   8.346   6.949  0.1509  0.1854 -0.2382
  120POPC   GL2 1745   9.865   8.393   6.784  0.1095 -0.0576 -0.0350
  120POPC   C1A 1746   9.423   8.339   6.515 -0.0464  0.0189  0.0090
  120POPC   D2A 1747   9.551   8.177   6.144 -0.0508  0.1323  0.3197
  120POPC   C3A 1748   9.454   7.815   5.835  0.2333 -0.1138 -0.0149
  120POPC   C4A 1749   9.439   7.452   5.619  0.4384 -0.0306  0.2110
  120POPC   C1B 1750   9.906   8.530   6.325  0.1039 -0.1978  0.0546
  120POPC   C2B 1751   9.585   8.660   6.136 -0.1887 -0.0464 -0.0910
  120POPC   C3B 1752   9.440   9.041   6.093  0.1065 -0.0077 -0.0918
  120POPC   C4B 1753   9.377   9.411   5.868  0.1781  0.1588  0.0306
  121POPC   NC3 1754   8.108   8.828   7.274  0.1977  0.1390 -0.3162
  121POPC   PO4 1755   7.741   8.700   7.436 -0.0665  0.0021 -0.0269
  121POPC   GL1 1756   7.737   8.735   6.954  0.2352 -0.0684  0.0008
  121POPC   GL2 1757   8.102   8.825   6.757  0.0924  0.2348 -0.2711
  121POPC   C1A 1758   7.663   8.948   6.531 -0.0452  0.5059 -0.2655
  121POPC   D2A 1759   7.484   9.205   6.139  0.1187  0.3263  0.2125
  121POPC   C3A 1760   7.110   9.019   5.978 -0.0151 -0.1301 -0.2046
  121POPC   C4A 1761   6.843   9.214   5.653  0.1149  0.0240 -0.0961
  121POPC   C1B 1762   8.468   8.989   6.553 -0.1291  0.1024 -0.0890
  121POPC   C2B 1763   8.533   8.914   6.070 -0.1050  0.1730 -0.0401
  121POPC   C3B 1764   8.585   8.474   5.865 -0.1432  0.1192  0.0281
  121POPC   C4B 1765   8.510   8.101   6.152  0.0008  0.1127 -0.0569
  122POPC   NC3 1766   3.637   9.679   7.840 -0.0720  0.0048 -0.2602
  122POPC   PO4 1767   3.400  10.013   7.683 -0.1758  0.0306 -0.1334
  122POPC   GL1 1768   3.215  10.007   7.383  0.0651  0.2381  0.1817
  122POPC   GL2 1769   3.215  10.256   7.230  0.0624  0.1227  0.0465
  122POPC   C1A 1770   3.306   9.763   7.037 -0.1277  0.2266 -0.5223
  122POPC   D2A 1771   3.462   9.798   6.591 -0.1101 -0.0042  0.4067
  122POPC   C3A 1772   3.735   9.962   6.458 -0.1419 -0.1165  0.0533
  122POPC   C4A 1773   3.812  10.209   6.111 -0.2520 -0.1613 -0.0792
  122POPC   C1B 1774   3.186  10.198   6.720  0.3790  0.2872 -0.0272
  122POPC   C2B 1775   3.328  10.145   6.259  0.3334  0.1374 -0.2917
  122POPC   C3B 1776   3.387   9.867   6.007  0.3041 -0.0757  0.0393
  122POPC   C4B 1777   3.249   9.717   5.568  0.0152 -0.0910  0.0828
  123POPC   NC3 1778   9.588   8.175   8.240 -0.0369  0.0366  0.0975
  123POPC   PO4 1779   9.406   8.391   7.792  0.1004  0.0619  0.2023
  123POPC   GL1 1780   9.161   8.431   7.368 -0.0199  0.0547  0.0621
  123POPC   GL2 1781   9.111   8.569   7.176 -0.2863 -0.1159 -0.4350
  123POPC   C1A 1782   9.152   8.069   7.035  0.2929 -0.0740 -0.1136
  123POPC   D2A 1783   9.531   7.847   6.918  0.1169  0.2091  0.2229
  123POPC   C3A 1784   9.749   7.865   6.563 -0.0638  0.1650  0.0573
  123POPC   C4A 1785   9.902   7.666   6.137 -0.0113 -0.0438 -0.2620
  123POPC   C1B 1786   9.108   8.679   6.628 -0.1419  0.2171  0.2849
  123POPC   C2B 1787   9.059   8.572   6.235  0.2028  0.0345 -0.0307
  123POPC   C3B 1788   9.097   8.644   5.785  0.0482  0.5152 -0.3478
  123POPC   C4B 1789   9.226   8.997   5.480 -0.0997 -0.1522  0.0923
  124POPC   NC3 1790   0.434   7.365   7.262  0.0242  0.1111  0.0091
  124POPC   PO4 1791   0.890   7.684   7.233  0.1030 -0.1172  0.3044
  124POPC   GL1 1792   0.689   7.706   6.924  0.1658  0.1538 -0.0402
  124POPC   GL2 1793   0.968   7.873   6.728 -0.2284  0.2380 -0.4035
  124POPC   C1A 1794   0.653   7.681   6.422 -0.0626  0.1862  0.1679
  124POPC   D2A 1795   0.693   7.808   6.012  0.0121  0.3372 -0.0360
  124POPC   C3A 1796   0.894   7.990   5.725  0.0729  0.2632 -0.0273
  124POPC   C4A 1797   0.913   8.306   5.303 -0.2949 -0.1073 -0.2188
  124POPC   C1B 1798   1.178   7.774   6.211  0.0981  0.1679  0.3543
  124POPC   C2B 1799   1.441   7.837   5.833 -0.4393 -0.1793 -0.1461
  124POPC   C3B 1800   1.727   7.731   5.571 -0.1090 -0.0834  0.1345
  124POPC   C4B 1801   2.090   7.573   5.448 -0.1398 -0.2587  0.0294
  125POPC   NC3 1802   6.444   5.043   7.707  0.0282  0.0469  0.3356
  125POPC   PO4 1803   6.063   5.053   7.735  0.1308 -0.3219 -0.1678
  125POPC   GL1 1804   5.877   5.487   7.484  0.2841 -0.0108  0.2366
  125POPC   GL2 1805   5.797   5.714   7.494 -0.2210  0.0250 -0.0423
  125POPC   C1A 1806   5.903   5.234   7.053  0.2553  0.0057 -0.5826
  125POPC   D2A 1807   5.882   5.151   6.661  0.0215 -0.0555 -0.1802
  125POPC   C3A 1808   5.750   5.156   6.231  0.3499  0.1420  0.0936
  125POPC   C4A 1809   5.878   5.407   5.892 -0.1322 -0.2716 -0.3289
  125POPC   C1B 1810   5.522   5.664   7.163  0.0183  0.0030 -0.0916
  125POPC   C2B 1811   5.130   5.563   6.863 -0.0192 -0.0038  0.0026
  125POPC   C3B 1812   4.885   5.756   6.583 -0.0672  0.1977 -0.0708
  125POPC   C4B 1813   4.759   5.866   6.129 -0.1525 -0.0002  0.0428
  126POPC   NC3 1814   7.641   1.375   8.050 -0.0818 -0.0807 -0.0490
  126POPC   PO4 1815   7.637   1.708   7.612 -0.4739 -0.3242 -0.2013
  126POPC   GL1 1816   7.662   1.723   7.141 -0.0978  0.0874 -0.0507
  126POPC   GL2 1817   7.749   2.039   6.872 -0.0498 -0.2222 -0.0852
  126POPC   C1A 1818   7.512   1.424   6.842  0.0466  0.1432  0.1071
  126POPC   D2A 1819   7.650   1.113   6.433  0.1645 -0.0012 -0.0150
  126POPC   C3A 1820   7.421   1.050   6.119  0.0054  0.3490 -0.1187
  126POPC   C4A 1821   7.441   0.810   5.811  0.1309  0.1618 -0.1518
  126POPC   C1B 1822   7.690   2.025   6.431 -0.0098  0.3808  0.0427
  126POPC   C2B 1823   7.848   1.917   5.909 -0.3008 -0.3183 -0.0199
  126POPC   C3B 1824   7.863   1.604   5.623 -0.0103  0.2893 -0.0054
  126POPC   C4B 1825   7.993   1.313   5.436 -0.1112 -0.4659  0.2143
  127POPC   NC3 1826   4.196   2.787   7.599 -0.1415 -0.0269 -0.2279
  127POPC   PO4 1827   4.120   3.091   7.288  0.0716  0.1770  0.2871
  127POPC   GL1 1828   4.065   2.750   7.075  0.0728  0.2900  0.0932
  127POPC   GL2 1829   3.861   2.573   7.140  0.0853 -0.2136  0.1652
  127POPC   C1A 1830   4.232   2.565   6.661 -0.2189  0.2336 -0.0348
  127POPC   D2A 1831   4.343   2.287   6.314  0.0256  0.1343 -0.0299
  127POPC   C3A 1832   4.369   2.320   5.887 -0.1930 -0.0299 -0.1547
  127POPC   C4A 1833   4.391   1.960   5.471  0.1823 -0.2035  0.3528
  127POPC   C1B 1834   3.702   2.405   6.714  0.2395  0.3975  0.0312
  127POPC   C2B 1835   3.802   2.251   6.317  0.2217 -0.0037 -0.1907
  127POPC   C3B 1836   3.922   2.069   5.954  0.1275  0.0994  0.2487
  127POPC   C4B 1837   3.851   2.068   5.531 -0.0714  0.0064  0.0748
  128POPC   NC3 1838   9.818   1.204   7.812  0.1155  0.5338 -0.1087
  128POPC   PO4 1839  10.042   0.961   7.567  0.1786  0.0300  0.1725
  128POPC   GL1 1840  10.245   1.016   7.242 -0.2268 -0.1388  0.0834
  128POPC   GL2 1841  10.495   1.268   7.295 -0.1865 -0.0821  0.0497
  128POPC   C1A 1842  10.417   1.029   6.836  0.0136 -0.0640  0.1832
  128POPC   D2A 1843  10.083   1.137   6.570 -0.0669 -0.0778  0.0816
  128POPC   C3A 1844   9.940   1.319   6.168  0.1680 -0.0919 -0.0877
  128POPC   C4A 1845   9.935   1.446   5.837 -0.0111 -0.2407 -0.0152
  128POPC   C1B 1846  10.789   1.215   7.048  0.0755  0.1202  0.1294
  128POPC   C2B 1847  11.138   1.518   6.826 -0.0108  0.0685 -0.1077
  128POPC   C3B 1848  11.198   1.809   6.476  0.1135  0.0355  0.1672
  128POPC   C4B 1849  11.174   1.952   6.091 -0.1698 -0.0372 -0.1527
  129POPC   NC3 1850  10.801   4.606   7.625 -0.2927  0.4809 -0.3158
  129POPC   PO4 1851  10.984   5.056   7.619 -0.3669  0.0341  0.2995
  129POPC   GL1 1852  11.179   4.700   7.341 -0.1542 -0.1836  0.1354
  129POPC   GL2 1853  11.264   4.458   7.494 -0.2222  0.1928 -0.1136
  129POPC   C1A 1854  11.419   4.632   7.057 -0.0197  0.1730  0.1006
  129POPC   D2A 1855  11.618   4.664   6.681 -0.2175  0.2025 -0.1471
  129POPC   C3A 1856  11.494   4.420   6.279  0.0670  0.1179 -0.1758
  129POPC   C4A 1857  11.555   4.141   5.871  0.1343  0.1154 -0.2056
  129POPC   C1B 1858  11.160   4.231   7.027  0.2132 -0.0508  0.0583
  129POPC   C2B 1859  11.107   3.970   6.626 -0.1935 -0.1917 -0.3081
  129POPC   C3B 1860  11.065   4.014   6.124  0.3228 -0.1993 -0.1376
  129POPC   C4B 1861  11.179   3.924   5.697  0.4500  0.1161 -0.0757
  130POPC   NC3 1862   3.306   6.639   7.715 -0.0347 -0.1335  0.2206
  130POPC   PO4 1863   3.494   6.934   8.034 -0.2579  0.2108 -0.0266
  130POPC   GL1 1864   3.651   6.931   7.561 -0.1186  0.0831  0.1199
  130POPC   GL2 1865   3.963   6.870   7.441 -0.1122  0.1490 -0.0886
  130POPC   C1A 1866   3.561   7.098   7.113 -0.0291 -0.1685  0.2145
  130POPC   D2A 1867   3.687   7.139   6.599 -0.0989 -0.2543 -0.2327
  130POPC   C3A 1868   3.561   7.328   6.155 -0.0584 -0.0606  0.0608
  130POPC   C4A 1869   3.737   7.335   5.824 -0.1060  0.1212  0.0976
  130POPC   C1B 1870   4.300   6.766   7.004 -0.0517  0.1624 -0.2472
  130POPC   C2B 1871   4.603   6.850   6.706  0.0397  0.0142 -0.0823
  130POPC   C3B 1872   4.575   7.029   6.270 -0.3426  0.1906 -0.1935
  130POPC   C4B 1873   4.747   7.061   5.884 -0.1625  0.0474 -0.0008
  131POPC   NC3 1874   7.239   1.193   7.645  0.2182 -0.0202  0.1986
  131POPC   PO4 1875   6.830   1.296   7.537 -0.2635  0.0303 -0.4005
  131POPC   GL1 1876   6.950   1.056   7.230  0.0154 -0.1654 -0.2173
  131POPC   GL2 1877   7.220   1.080   6.979 -0.1573 -0.1964 -0.1162
  131POPC   C1A 1878   6.780   0.876   6.842 -0.0592  0.1742 -0.1524
  131POPC   D2A 1879   6.695   0.863   6.429  0.1643  0.0594 -0.0537
  131POPC   C3A 1880   6.923   0.782   6.051 -0.0601 -0.2181  0.1033
  131POPC   C4A 1881   7.106   0.785   5.498 -0.6562 -0.1887  0.0146
  131POPC   C1B 1882   7.238   0.834   6.570  0.1329  0.1575  0.0558
  131POPC   C2B 1883   7.270   0.448   6.291 -0.2742  0.3536 -0.1751
  131POPC   C3B 1884   7.208   0.313   5.867  0.0284 -0.2225 -0.2969
  131POPC   C4B 1885   6.831   0.410   5.678  0.2048  0.1000 -0.0735
  132POPC   NC3 1886   2.930  10.141   7.837 -0.4231  0.3219  0.0862
  132POPC   PO4 1887   2.981   9.764   7.753  0.0046 -0.0049 -0.1343
  132POPC   GL1 1888   2.717   9.980   7.401 -0.1678  0.1437  0.1535
  132POPC   GL2 1889   2.385  10.018   7.390  0.0746  0.0112  0.3714
  132POPC   C1A 1890   2.777   9.992   6.909 -0.1132 -0.0244  0.2688
  132POPC   D2A 1891   2.847   9.865   6.388 -0.0367 -0.1490 -0.0450
  132POPC   C3A 1892   2.855  10.124   6.086 -0.1316  0.1368 -0.2339
  132POPC   C4A 1893   2.537  10.465   5.925  0.1098 -0.2696 -0.1581
  132POPC   C1B 1894   2.328  10.216   7.006  0.0437  0.0941 -0.2451
  132POPC   C2B 1895   2.383  10.019   6.516 -0.3005  0.0691  0.0777
  132POPC   C3B 1896   2.424   9.893   6.073  0.2712  0.0007  0.0812
  132POPC   C4B 1897   2.609  10.074   5.626  0.0496 -0.0909 -0.3045
  133POPC   NC3 1898   4.131   2.338   7.466  0.0953  0.0767  0.0100
  133POPC   PO4 1899   4.380   2.305   7.756  0.0928  0.0021 -0.1413
  133POPC   GL1 1900   4.534   2.565   7.372 -0.1038  0.2354 -0.1867
  133POPC   GL2 1901   4.352   2.346   7.043  0.0982 -0.1202  0.0612
  133POPC   C1A 1902   4.635   2.784   6.973 -0.0711  0.0911  0.1689
  133POPC   D2A 1903   4.475   3.021   6.636  0.1550  0.1303  0.0551
  133POPC   C3A 1904   4.319   2.792   6.213 -0.0999  0.0714  0.2919
  133POPC   C4A 1905   4.344   2.769   5.685 -0.0497 -0.0894 -0.2220
  133POPC   C1B 1906   4.700   2.324   6.776 -0.0055 -0.1434  0.2074
  133POPC   C2B 1907   4.717   2.596   6.453 -0.1198  0.1938  0.0323
  133POPC   C3B 1908   4.840   2.674   6.201  0.1115  0.1542  0.0650
  133POPC   C4B 1909   4.815   2.955   5.955 -0.0404 -0.2319  0.2157
  134POPC   NC3 1910   0.328   3.403   7.579 -0.0518 -0.4145 -0.0251
  134POPC   PO4 1911   0.302   3.897   7.597 -0.2614 -0.2727 -0.2166
  134POPC   GL1 1912   0.212   3.661   7.117 -0.0317 -0.0917  0.0530
  134POPC   GL2 1913   0.509   3.722   7.027 -0.1113  0.1704 -0.2199
  134POPC   C1A 1914   0.206   3.412   6.774  0.0674 -0.2699  0.0112
  134POPC   D2A 1915  -0.197   3.128   6.564 -0.1576  0.1250 -0.4148
  134POPC   C3A 1916  -0.663   3.245   6.388 -0.0961  0.0183  0.1292
  134POPC   C4A 1917  -1.058   3.140   6.237 -0.1570 -0.0198  0.0487
  134POPC   C1B 1918   0.722   3.473   6.631  0.2328 -0.1782  0.0700
  134POPC   C2B 1919   1.042   3.519   6.277  0.2532 -0.0261  0.1012
  134POPC   C3B 1920   1.078   3.729   6.011  0.0891 -0.1223  0.1056
  134POPC   C4B 1921   1.159   4.084   5.628 -0.0679  0.0149  0.0561
  135POPC   NC3 1922   2.166   5.659   8.024 -0.1663  0.0806  0.3463
  135POPC   PO4 1923   2.522   5.513   7.771  0.2899  0.0646  0.0569
  135POPC   GL1 1924   2.569   5.715   7.408 -0.4961 -0.1246  0.3052
  135POPC   GL2 1925   2.866   5.897   7.279 -0.3802 -0.1544  0.1725
  135POPC   C1A 1926   2.508   5.899   6.958 -0.1421  0.0373  0.0975
  135POPC   D2A 1927   2.678   5.900   6.471 -0.1300  0.1223 -0.1874
  135POPC   C3A 1928   2.460   5.961   6.142  0.3579 -0.1650 -0.0913
  135POPC   C4A 1929   2.369   5.801   5.711 -0.0953 -0.2801 -0.1635
  135POPC   C1B 1930   2.953   6.119   6.857  0.2937 -0.2298  0.2634
  135POPC   C2B 1931   2.680   6.385   6.574 -0.0483  0.1317  0.1113
  135POPC   C3B 1932   2.518   6.541   6.212 -0.2498  0.1518  0.3903
  135POPC   C4B 1933   2.706   6.716   5.836 -0.2314  0.1294  0.0484
  136POPC   NC3 1934   3.750   5.179   7.773 -0.1027  0.3342  0.6305
  136POPC   PO4 1935   3.438   4.921   7.584  0.0485  0.0602 -0.1774
  136POPC   GL1 1936   3.402   5.297   7.432  0.3281 -0.1120  0.2121
  136POPC   GL2 1937   3.508   5.275   7.129  0.1219 -0.3830  0.0182
  136POPC   C1A 1938   3.086   5.440   7.320 -0.0411  0.0007  0.0937
  136POPC   D2A 1939   2.874   5.585   6.833  0.0386 -0.0477  0.0488
  136POPC   C3A 1940   2.928   5.396   6.396  0.1102 -0.3128  0.2392
  136POPC   C4A 1941   3.079   5.128   6.079  0.2673 -0.0124 -0.0624
  136POPC   C1B 1942   3.777   5.218   6.705 -0.2437 -0.2462  0.1613
  136POPC   C2B 1943   4.083   5.274   6.331 -0.0293 -0.1552  0.0135
  136POPC   C3B 1944   4.089   5.272   5.962 -0.0420 -0.1873 -0.0762
  136POPC   C4B 1945   4.384   5.305   5.556  0.2521 -0.0567  0.0925
  137POPC   NC3 1946   9.460   6.939   7.926 -0.2600  0.0366 -0.2617
  137POPC   PO4 1947   9.052   7.093   8.024 -0.1577  0.1253 -0.0865
  137POPC   GL1 1948   8.801   7.149   7.555 -0.0794  0.1253 -0.2127
  137POPC   GL2 1949   8.428   7.043   7.458 -0.0545 -0.0371 -0.0175
  137POPC   C1A 1950   8.984   7.393   7.070  0.2366  0.0915  0.2417
  137POPC   D2A 1951   9.154   7.504   6.628 -0.3500 -0.1849  0.1461
  137POPC   C3A 1952   9.552   7.362   6.543  0.0095  0.1373 -0.1849
  137POPC   C4A 1953   9.912   7.060   6.667  0.0174  0.3029 -0.4154
  137POPC   C1B 1954   8.265   7.173   7.097 -0.0447  0.1655  0.0453
  137POPC   C2B 1955   8.107   7.447   6.755 -0.2349  0.1208 -0.0347
  137POPC   C3B 1956   8.203   7.721   6.458  0.1829  0.2081  0.1322
  137POPC   C4B 1957   7.968   8.092   6.225 -0.0204  0.0388 -0.3369
  138POPC   NC3 1958   1.508   6.324   7.995  0.1429  0.0985 -0.0549
  138POPC   PO4 1959   1.812   6.039   8.094  0.0022  0.2938  0.1310
  138POPC   GL1 1960   1.851   6.119   7.661 -0.2932 -0.3241  0.0816
  138POPC   GL2 1961   1.930   5.743   7.589  0.1630  0.0852 -0.1389
  138POPC   C1A 1962   1.747   6.204   7.184 -0.1034  0.2945  0.2291
  138POPC   D2A 1963   1.767   6.258   6.719  0.0699 -0.0730 -0.0312
  138POPC   C3A 1964   1.446   6.481   6.370 -0.0987 -0.3015  0.0421
  138POPC   C4A 1965   1.195   6.354   5.863 -0.1238  0.0319 -0.3580
  138POPC   C1B 1966   1.682   5.673   7.252  0.0771  0.0265  0.1388
  138POPC   C2B 1967   1.405   5.614   6.866  0.2800  0.0363 -0.2602
  138POPC   C3B 1968   1.211   5.914   6.767  0.3377  0.1341 -0.0488
  138POPC   C4B 1969   1.311   6.438   6.988  0.0460  0.1735 -0.1573
  139POPC   NC3 1970   0.852  10.552   7.302  0.0934  0.1866 -0.2897
  139POPC   PO4 1971   1.306  10.776   7.480  0.2205  0.1376  0.2593
  139POPC   GL1 1972   1.296  10.966   7.042  0.1931  0.0543 -0.0526
  139POPC   GL2 1973   1.049  10.889   7.013  0.1813 -0.0115 -0.0735
  139POPC   C1A 1974   1.233  11.090   6.591  0.0471 -0.2239  0.1953
  139POPC   D2A 1975   1.118  11.501   6.237 -0.0250 -0.0113 -0.3705
  139POPC   C3A 1976   0.807  11.413   5.911 -0.0948 -0.1643  0.1613
  139POPC   C4A 1977   0.443  11.418   5.781  0.0469  0.2060 -0.2622
  139POPC   C1B 1978   1.041  10.629   6.648 -0.1119 -0.4290 -0.2180
  139POPC   C2B 1979   0.801  10.392   6.343  0.0794  0.0723  0.0824
  139POPC   C3B 1980   0.847  10.221   5.926 -0.1658 -0.0200 -0.0122
  139POPC   C4B 1981   1.063  10.167   5.458  0.1741  0.2589 -0.0850
  140POPC   NC3 1982   1.174   0.634   7.539 -0.2275  0.0598 -0.0097
  140POPC   PO4 1983   0.928   0.289   7.392 -0.2098 -0.3277 -0.0171
  140POPC   GL1 1984   0.704   0.497   7.131  0.4454  0.2483 -0.1742
  140POPC   GL2 1985   0.427   0.418   7.182 -0.0143  0.0095 -0.1391
  140POPC   C1A 1986   0.437   0.955   6.959 -0.2070 -0.3368 -0.2088
  140POPC   D2A 1987   0.341   1.166   6.485 -0.0830 -0.0354 -0.2639
  140POPC   C3A 1988  -0.047   0.990   6.292  0.2041 -0.0358 -0.2348
  140POPC   C4A 1989  -0.139   0.634   5.967 -0.0513 -0.1693  0.3099
  140POPC   C1B 1990   0.346   0.549   6.679  0.3199 -0.2583 -0.1569
  140POPC   C2B 1991   0.203   0.293   6.438  0.2589  0.0819 -0.1306
  140POPC   C3B 1992   0.168   0.229   6.058 -0.3155 -0.0285  0.0977
  140POPC   C4B 1993   0.302   0.012   5.708 -0.2219 -0.4007 -0.0580
  141POPC   NC3 1994   0.673   6.679   7.457  0.0529 -0.0085 -0.3381
  141POPC   PO4 1995   0.290   6.619   7.552  0.1559 -0.0283 -0.1055
  141POPC   GL1 1996   0.046   6.418   7.098  0.1923 -0.1455 -0.0433
  141POPC   GL2 1997  -0.269   6.338   7.022 -0.1241  0.1882  0.0248
  141POPC   C1A 1998   0.048   6.746   6.748  0.2044 -0.0964 -0.4137
  141POPC   D2A 1999  -0.084   6.796   6.274  0.2991  0.1091  0.1908
  141POPC   C3A 2000  -0.061   7.120   6.037 -0.2655 -0.1615 -0.0995
  141POPC   C4A 2001  -0.115   7.280   5.727 -0.1763  0.1929 -0.0631
  141POPC   C1B 2002  -0.081   6.163   6.651  0.0211 -0.0622 -0.0068
  141POPC   C2B 2003  -0.123   6.174   6.242  0.0093  0.0838  0.1045
  141POPC   C3B 2004  -0.249   6.192   5.771 -0.1248  0.2355  0.0481
  141POPC   C4B 2005  -0.178   6.126   5.298  0.0403  0.1382  0.0006
  142POPC   NC3 2006   3.078   8.498   7.955  0.2203 -0.0346  0.2392
  142POPC   PO4 2007   2.606   8.631   7.959 -0.3758  0.5828  0.0205
  142POPC   GL1 2008   2.591   8.725   7.546  0.2412  0.0009 -0.1280
  142POPC   GL2 2009   2.768   8.516   7.221  0.1949  0.0807  0.1802
  142POPC   C1A 2010   2.272   8.608   7.228 -0.1498  0.0821 -0.2875
  142POPC   D2A 2011   2.140   8.562   6.800 -0.1898  0.1422  0.0582
  142POPC   C3A 2012   1.848   8.742   6.702  0.0097  0.3350 -0.1012
  142POPC   C4A 2013   1.434   8.737   6.745  0.0510 -0.0616 -0.0189
  142POPC   C1B 2014   2.932   8.204   6.881  0.0204  0.0588  0.1030
  142POPC   C2B 2015   2.788   8.063   6.527 -0.0682 -0.0924  0.1482
  142POPC   C3B 2016   2.355   8.256   6.349 -0.0735 -0.2271  0.3114
  142POPC   C4B 2017   1.903   8.412   6.304 -0.1513  0.0639  0.1858
  143POPC   NC3 2018   6.162   6.884   8.294 -0.0602  0.1503 -0.2923
  143POPC   PO4 2019   6.420   6.847   7.968 -0.0980 -0.1638 -0.0590
  143POPC   GL1 2020   6.457   6.916   7.502 -0.2012  0.0064 -0.0472
  143POPC   GL2 2021   6.567   6.719   7.344 -0.0353  0.1597 -0.0455
  143POPC   C1A 2022   6.546   7.196   7.205 -0.1614  0.1014 -0.0175
  143POPC   D2A 2023   6.482   7.517   6.932 -0.3872  0.2256 -0.1108
  143POPC   C3A 2024   6.759   7.644   6.570 -0.1203  0.0471 -0.1339
  143POPC   C4A 2025   7.189   7.424   6.493  0.0197  0.0413 -0.0659
  143POPC   C1B 2026   6.479   6.740   6.931  0.0632  0.4917 -0.1611
  143POPC   C2B 2027   6.787   6.969   6.691  0.0933 -0.0876 -0.0122
  143POPC   C3B 2028   6.712   7.037   6.294 -0.1439  0.1120  0.1446
  143POPC   C4B 2029   6.336   7.033   6.003 -0.0489 -0.0730 -0.1638
  144POPC   NC3 2030   0.379   4.745   7.930 -0.1997 -0.0210 -0.2091
  144POPC   PO4 2031   0.597   5.023   7.801  0.0911  0.1305  0.1423
  144POPC   GL1 2032   0.780   4.992   7.381  0.2795 -0.1989 -0.3508
  144POPC   GL2 2033   0.501   5.116   7.255 -0.2734 -0.0420  0.2935
  144POPC   C1A 2034   1.005   4.892   7.008 -0.2099 -0.3055 -0.0940
  144POPC   D2A 2035   1.147   4.996   6.554 -0.2329  0.1031  0.3596
  144POPC   C3A 2036   1.576   4.849   6.439 -0.1990  0.1505  0.0150
  144POPC   C4A 2037   1.803   4.703   6.812  0.1973  0.1147 -0.2550
  144POPC   C1B 2038   0.541   5.190   6.876 -0.1319  0.1107 -0.3308
  144POPC   C2B 2039   0.657   5.126   6.441  0.0705  0.0987 -0.2519
  144POPC   C3B 2040   0.950   5.246   6.089  0.0867  0.0229 -0.3721
  144POPC   C4B 2041   1.309   5.020   6.079 -0.2117  0.0295  0.3845
  145POPC   NC3 2042   6.438   5.843   8.290  0.2322  0.1387 -0.1978
  145POPC   PO4 2043   6.387   5.962   7.923  0.5458 -0.1078  0.1334
  145POPC   GL1 2044   6.334   6.004   7.484  0.1940  0.0507  0.1348
  145POPC   GL2 2045   6.031   6.144   7.302  0.4184 -0.1396  0.0011
  145POPC   C1A 2046   6.177   5.684   7.144 -0.2195 -0.0607 -0.3180
  145POPC   D2A 2047   6.318   5.501   6.728  0.1641  0.0575 -0.3823
  145POPC   C3A 2048   6.062   5.542   6.347  0.0460  0.1279 -0.0271
  145POPC   C4A 2049   5.746   5.754   6.225  0.2105  0.4302  0.1815
  145POPC   C1B 2050   5.711   6.115   7.040  0.0110  0.0416  0.0477
  145POPC   C2B 2051   5.432   5.980   6.697 -0.2710  0.1459 -0.1508
  145POPC   C3B 2052   5.235   5.755   6.260  0.2660  0.1036 -0.1330
  145POPC   C4B 2053   5.447   5.735   5.857 -0.2183  0.1320  0.3368
  146POPC   NC3 2054   2.383   6.130   7.761 -0.0853 -0.0970  0.2207
  146POPC   PO4 2055   2.264   6.576   7.791 -0.2711  0.2565  0.1216
  146POPC   GL1 2056   2.166   6.443   7.378 -0.0695 -0.2204 -0.1086
  146POPC   GL2 2057   1.951   6.665   7.173 -0.1042 -0.1741  0.0667
  146POPC   C1A 2058   2.175   6.259   6.949  0.1104  0.0822 -0.1294
  146POPC   D2A 2059   2.167   6.062   6.520  0.0832  0.3058 -0.0630
  146POPC   C3A 2060   1.994   6.025   6.105  0.1620  0.3158  0.0542
  146POPC   C4A 2061   1.669   6.283   5.815 -0.1508 -0.0795 -0.3613
  146POPC   C1B 2062   1.777   6.775   6.729 -0.2223 -0.2639 -0.1542
  146POPC   C2B 2063   1.725   7.055   6.350 -0.1963  0.0247 -0.0759
  146POPC   C3B 2064   1.689   6.879   5.974 -0.1724 -0.1316 -0.1171
  146POPC   C4B 2065   1.763   6.700   5.610  0.2152  0.0911  0.1203
  147POPC   NC3 2066   8.013  10.812   7.491 -0.0968 -0.0845 -0.1527
  147POPC   PO4 2067   7.880  10.390   7.479 -0.1412 -0.1630 -0.3123
  147POPC   GL1 2068   8.076  10.155   7.161  0.0205  0.1067  0.0322
  147POPC   GL2 2069   8.462  10.065   7.180  0.1394 -0.3312  0.1839
  147POPC   C1A 2070   7.951  10.141   6.703  0.0495 -0.0343 -0.0293
  147POPC   D2A 2071   7.932  10.151   6.311 -0.0317 -0.2115  0.0998
  147POPC   C3A 2072   7.978  10.033   5.871  0.2271  0.0189  0.0934
  147POPC   C4A 2073   8.196   9.765   5.549  0.1534  0.1843 -0.1205
  147POPC   C1B 2074   8.441  10.270   6.832 -0.1946  0.1832 -0.2324
  147POPC   C2B 2075   8.456  10.208   6.397 -0.1625  0.0368  0.4103
  147POPC   C3B 2076   8.341  10.317   6.062  0.1823 -0.0490  0.1961
  147POPC   C4B 2077   8.464  10.535   5.762  0.2261 -0.1708  0.1260
  148POPC   NC3 2078   1.069   7.457   7.699 -0.0625  0.2517  0.1413
  148POPC   PO4 2079   0.819   7.177   7.466 -0.2218  0.1307 -0.0161
  148POPC   GL1 2080   0.826   7.119   7.011  0.0976 -0.3376 -0.2522
  148POPC   GL2 2081   0.862   6.816   7.055  0.1096  0.1469  0.0670
  148POPC   C1A 2082   0.863   7.237   6.584 -0.0127 -0.3047 -0.0566
  148POPC   D2A 2083   0.883   7.265   6.167  0.1340 -0.2219 -0.0741
  148POPC   C3A 2084   0.992   7.432   5.827 -0.1635 -0.4329 -0.0100
  148POPC   C4A 2085   1.159   7.513   5.493 -0.0518 -0.4137  0.0288
  148POPC   C1B 2086   0.653   6.800   6.665 -0.0205  0.0280 -0.0606
  148POPC   C2B 2087   0.753   6.760   6.241  0.0477 -0.0918 -0.1084
  148POPC   C3B 2088   0.696   6.388   5.825 -0.0490  0.0585 -0.1714
  148POPC   C4B 2089   0.224   6.314   5.620 -0.5441  0.0369 -0.1558
  149POPC   NC3 2090   4.917   4.779   8.339 -0.1756 -0.0723 -0.0232
  149POPC   PO4 2091   4.962   4.551   7.925 -0.0000 -0.0511 -0.0081
  149POPC   GL1 2092   5.048   4.464   7.488 -0.1491 -0.0619  0.2404
  149POPC   GL2 2093   4.893   4.531   7.192 -0.2170  0.1401 -0.0225
  149POPC   C1A 2094   5.469   4.419   7.254 -0.1546  0.1888  0.1587
  149POPC   D2A 2095   5.808   4.226   6.867  0.0472 -0.2236 -0.1115
  149POPC   C3A 2096   5.654   4.171   6.434 -0.3636  0.0627  0.3160
  149POPC   C4A 2097   5.742   4.266   5.986  0.0133  0.3552  0.2818
  149POPC   C1B 2098   4.989   4.911   6.824  0.0570  0.3256  0.0642
  149POPC   C2B 2099   5.063   4.964   6.406  0.0422  0.3635  0.0761
  149POPC   C3B 2100   4.926   4.801   5.953 -0.1520 -0.0477 -0.1209
  149POPC   C4B 2101   4.782   4.543   5.796  0.2078 -0.0479 -0.1143
  150POPC   NC3 2102   3.134   0.240   7.339 -0.2393 -0.0819 -0.0019
  150POPC   PO4 2103   3.495  -0.009   7.462  0.0604 -0.0231  0.0863
  150POPC   GL1 2104   3.867  -0.095   7.225 -0.0828  0.0713 -0.1097
  150POPC   GL2 2105   4.129  -0.411   7.312 -0.2593  0.1429  0.1575
  150POPC   C1A 2106   3.927  -0.216   6.810 -0.1643 -0.0738 -0.0364
  150POPC   D2A 2107   3.592  -0.433   6.482  0.1401 -0.1473  0.1310
  150POPC   C3A 2108   3.585  -0.313   6.045 -0.0017  0.0304  0.0251
  150POPC   C4A 2109   3.900  -0.277   5.749  0.2723  0.1804 -0.1816
  150POPC   C1B 2110   4.271  -0.644   6.945 -0.0315  0.1287  0.0893
  150POPC   C2B 2111   4.194  -0.636   6.519  0.2574 -0.2719  0.0770
  150POPC   C3B 2112   4.091  -0.324   6.284  0.1140 -0.3549  0.1505
  150POPC   C4B 2113   3.944   0.032   6.151  0.0610  0.0053 -0.1166
  151POPC   NC3 2114   4.327   9.146   7.849  0.0857 -0.1714 -0.2012
  151POPC   PO4 2115   4.677   9.407   7.856  0.0028 -0.0823 -0.0186
  151POPC   GL1 2116   4.698   9.793   7.456 -0.4132 -0.3056  0.0912
  151POPC   GL2 2117   4.471  10.139   7.402 -0.2246 -0.2578 -0.0323
  151POPC   C1A 2118   4.712  10.010   7.029 -0.3533 -0.0481 -0.1089
  151POPC   D2A 2119   4.618   9.897   6.648 -0.1883  0.0573  0.0204
  151POPC   C3A 2120   4.765   9.911   6.361 -0.1848 -0.0924  0.0354
  151POPC   C4A 2121   5.134   9.822   6.035 -0.1201 -0.0722  0.0103
  151POPC   C1B 2122   4.322   9.697   7.183  0.0512 -0.0819 -0.1034
  151POPC   C2B 2123   4.249   9.420   6.760  0.4459 -0.1224  0.1108
  151POPC   C3B 2124   4.367   9.309   6.279 -0.1787  0.2570  0.0103
  151POPC   C4B 2125   4.452   9.228   5.828  0.0945 -0.0779  0.2711
  152POPC   NC3 2126   4.794   5.673   7.569  0.0762  0.1125 -0.2568
  152POPC   PO4 2127   4.436   5.357   7.529 -0.0156 -0.1920 -0.0939
  152POPC   GL1 2128   4.401   5.495   7.070 -0.0029  0.0471 -0.4236
  152POPC   GL2 2129   4.648   5.700   7.036 -0.2299 -0.0632 -0.0673
  152POPC   C1A 2130   4.324   5.706   6.664  0.0648 -0.3989 -0.1375
  152POPC   D2A 2131   4.211   5.881   6.261 -0.0225  0.2169 -0.1393
  152POPC   C3A 2132   4.313   5.738   5.851 -0.0557 -0.2683 -0.2417
  152POPC   C4A 2133   4.257   5.818   5.376 -0.1636  0.2666 -0.3926
  152POPC   C1B 2134   4.680   5.298   6.725  0.1383  0.0326  0.3186
  152POPC   C2B 2135   4.647   5.321   6.288 -0.0508 -0.0107 -0.2279
  152POPC   C3B 2136   4.895   5.420   5.869 -0.3678  0.2443 -0.0207
  152POPC   C4B 2137   4.961   5.775   5.664 -0.1367  0.1380  0.0968
  153POPC   NC3 2138   7.653   9.921   7.418 -0.1976  0.0986 -0.0747
  153POPC   PO4 2139   7.248   9.784   7.545  0.2908 -0.1443 -0.3023
  153POPC   GL1 2140   7.021   9.938   7.158 -0.1262 -0.1824  0.0046
  153POPC   GL2 2141   6.846   9.714   7.006 -0.0346  0.0987 -0.0295
  153POPC   C1A 2142   7.129  10.120   6.841  0.1936  0.0176 -0.0098
  153POPC   D2A 2143   7.270  10.443   6.534 -0.2115  0.0425 -0.0540
  153POPC   C3A 2144   7.578  10.556   6.292 -0.0378 -0.2378 -0.1220
  153POPC   C4A 2145   8.025  10.657   6.288 -0.3193 -0.0379 -0.1377
  153POPC   C1B 2146   6.767   9.758   6.583 -0.1101  0.1964 -0.0005
  153POPC   C2B 2147   6.529   9.765   6.248 -0.1117  0.2137  0.2991
  153POPC   C3B 2148   6.398   9.870   5.847  0.2327 -0.4179  0.1385
  153POPC   C4B 2149   5.993   9.960   5.642  0.0787 -0.0122 -0.0915
  154POPC   NC3 2150   2.847   4.166   7.812  0.0643  0.1779  0.1678
  154POPC   PO4 2151   2.394   3.869   7.739  0.0167 -0.1510  0.1733
  154POPC   GL1 2152   2.351   3.976   7.244 -0.1800  0.0375  0.3154
  154POPC   GL2 2153   2.132   3.902   6.883 -0.3414  0.0269  0.2203
  154POPC   C1A 2154   2.622   3.977   6.784  0.3601 -0.1679 -0.0764
  154POPC   D2A 2155   2.827   3.798   6.432 -0.0595  0.0305 -0.2002
  154POPC   C3A 2156   2.493   4.067   6.126  0.4611 -0.1655 -0.0515
  154POPC   C4A 2157   2.411   4.296   5.707 -0.0217 -0.1220  0.0529
  154POPC   C1B 2158   2.091   3.873   6.374 -0.3712  0.3324 -0.1569
  154POPC   C2B 2159   1.998   4.028   5.954 -0.0168 -0.1527 -0.0309
  154POPC   C3B 2160   1.995   4.534   5.647  0.3760 -0.1002 -0.1780
  154POPC   C4B 2161   2.322   4.703   5.381  0.1440 -0.2507  0.2230
  155POPC   NC3 2162   0.932   5.626   7.574 -0.1021  0.2115  0.0073
  155POPC   PO4 2163   0.886   6.042   7.383  0.2522 -0.1929  0.0770
  155POPC   GL1 2164   0.826   6.311   7.070 -0.2847  0.2994  0.1461
  155POPC   GL2 2165   0.585   6.276   6.903 -0.0966  0.0246 -0.0123
  155POPC   C1A 2166   0.985   6.328   6.599 -0.2816  0.1423 -0.3118
  155POPC   D2A 2167   0.806   6.116   6.205 -0.0207  0.0765  0.2445
  155POPC   C3A 2168   1.005   5.793   5.938  0.2089  0.1313  0.1365
  155POPC   C4A 2169   1.160   5.552   5.543 -0.4883 -0.0982 -0.1987
  155POPC   C1B 2170   0.431   6.378   6.492 -0.1623 -0.2764  0.1014
  155POPC   C2B 2171   0.266   6.474   6.188 -0.0877  0.0106 -0.2780
  155POPC   C3B 2172   0.256   6.718   5.918  0.1666 -0.0669  0.0809
  155POPC   C4B 2173   0.387   6.804   5.491  0.2661 -0.0242 -0.1740
  156POPC   NC3 2174   2.814   4.677   7.757  0.0970  0.0854  0.1845
  156POPC   PO4 2175   2.406   4.648   7.843  0.1309  0.0902  0.1005
  156POPC   GL1 2176   2.468   4.824   7.353  0.2664  0.2410  0.0402
  156POPC   GL2 2177   2.823   4.944   7.337  0.0431 -0.1619  0.0737
  156POPC   C1A 2178   2.287   4.939   6.959  0.1029  0.3391 -0.3545
  156POPC   D2A 2179   2.177   4.870   6.486  0.0787  0.2121  0.0236
  156POPC   C3A 2180   2.419   5.189   6.203 -0.4379  0.2397  0.1491
  156POPC   C4A 2181   2.570   5.107   5.840 -0.0725  0.0220 -0.0453
  156POPC   C1B 2182   3.060   5.048   6.983  0.2507  0.1215  0.1264
  156POPC   C2B 2183   3.313   5.308   6.650  0.0318  0.0234 -0.1463
  156POPC   C3B 2184   3.483   4.995   6.348  0.2887 -0.0919 -0.0508
  156POPC   C4B 2185   3.419   4.556   6.263  0.0580  0.1885 -0.2123
  157POPC   NC3 2186  10.414   9.034   7.237 -0.4178 -0.0733  0.1615
  157POPC   PO4 2187  10.847   8.803   7.246 -0.0696 -0.2279 -0.0008
  157POPC   GL1 2188  11.099   8.989   6.898 -0.1254  0.2986  0.0777
  157POPC   GL2 2189  11.471   9.164   7.111 -0.1742  0.2091  0.0122
  157POPC   C1A 2190  11.052   8.966   6.510 -0.2105 -0.0686 -0.0785
  157POPC   D2A 2191  10.881   8.647   6.131 -0.0445 -0.1196  0.4674
  157POPC   C3A 2192  10.905   8.526   5.619 -0.1581  0.1988  0.1941
  157POPC   C4A 2193  10.656   8.685   5.234 -0.1144  0.0039 -0.3973
  157POPC   C1B 2194  11.427   9.295   6.682 -0.2365  0.0526  0.0280
  157POPC   C2B 2195  11.790   9.573   6.479  0.4331  0.0217 -0.0547
  157POPC   C3B 2196  12.006   9.898   6.215 -0.1938  0.0483 -0.3758
  157POPC   C4B 2197  12.173   9.985   5.864 -0.3465  0.0691  0.3465
  158POPC   NC3 2198   4.185   0.967   8.065 -0.3507 -0.0088 -0.3162
  158POPC   PO4 2199   4.600   0.715   7.992 -0.2739 -0.3554  0.2937
  158POPC   GL1 2200   4.562   0.457   7.559  0.1748  0.0400  0.2988
  158POPC   GL2 2201   4.341   0.349   7.488 -0.0800  0.0936  0.0597
  158POPC   C1A 2202   4.664   0.603   7.104  0.0429 -0.1838  0.0485
  158POPC   D2A 2203   4.656   0.583   6.723  0.0256  0.0234 -0.3481
  158POPC   C3A 2204   4.878   0.916   6.439 -0.0830 -0.0554 -0.1755
  158POPC   C4A 2205   5.288   1.013   6.184  0.0325 -0.0203 -0.0721
  158POPC   C1B 2206   4.199   0.337   7.007 -0.1816  0.0887 -0.2117
  158POPC   C2B 2207   4.174   0.315   6.624 -0.0529 -0.1987 -0.1271
  158POPC   C3B 2208   4.378   0.355   6.230 -0.0222 -0.1254 -0.1423
  158POPC   C4B 2209   4.330  -0.029   5.874  0.0683  0.1415 -0.0655
  159POPC   NC3 2210   2.513   9.105   7.906 -0.0688 -0.2792  0.1012
  159POPC   PO4 2211   2.206   9.143   7.554 -0.1088 -0.1557  0.0307
  159POPC   GL1 2212   2.387   9.092   7.162  0.1243 -0.3778  0.0728
  159POPC   GL2 2213   2.710   8.975   7.050  0.1651 -0.0098 -0.2853
  159POPC   C1A 2214   2.264   9.083   6.783  0.1712 -0.2394  0.1895
  159POPC   D2A 2215   2.387   8.817   6.349 -0.0818 -0.3353 -0.1116
  159POPC   C3A 2216   2.556   8.742   5.998 -0.3725  0.0361 -0.0578
  159POPC   C4A 2217   2.450   8.784   5.567 -0.0126 -0.3902  0.0276
  159POPC   C1B 2218   2.725   9.099   6.587 -0.3244  0.0817 -0.0139
  159POPC   C2B 2219   2.928   9.149   6.136  0.0357 -0.0771 -0.2256
  159POPC   C3B 2220   2.879   9.546   5.859  0.2505  0.0358 -0.0044
  159POPC   C4B 2221   2.573   9.594   5.550  0.0108 -0.1522  0.1063
  160POPC   NC3 2222  10.208   5.246   7.559  0.1031  0.1780 -0.1152
  160POPC   PO4 2223  10.518   4.960   7.773  0.2012  0.0110 -0.0143
  160POPC   GL1 2224  10.594   4.998   7.317  0.0473 -0.5523 -0.0521
  160POPC   GL2 2225  10.877   5.327   7.203  0.2819  0.0665 -0.2790
  160POPC   C1A 2226  10.897   4.817   6.990 -0.1550  0.0648 -0.0807
  160POPC   D2A 2227  11.141   4.876   6.703  0.1472 -0.1801 -0.0562
  160POPC   C3A 2228  10.993   4.518   6.433  0.1136  0.3544 -0.0156
  160POPC   C4A 2229  10.765   4.473   6.170 -0.0637  0.2170 -0.2420
  160POPC   C1B 2230  11.038   5.459   6.813  0.1419  0.0524 -0.0131
  160POPC   C2B 2231  11.036   5.213   6.356  0.0100 -0.3056 -0.0170
  160POPC   C3B 2232  11.291   4.882   6.098  0.1125  0.2763 -0.0111
  160POPC   C4B 2233  11.541   4.841   5.645  0.0199  0.0359 -0.2345
  161POPC   NC3 2234   4.168   4.419   7.913  0.1859 -0.0354  0.1352
  161POPC   PO4 2235   4.549   4.375   7.631  0.0083 -0.0969 -0.0914
  161POPC   GL1 2236   4.682   4.067   7.341  0.0163 -0.0330 -0.2895
  161POPC   GL2 2237   4.469   4.068   7.161 -0.2658  0.0528  0.2860
  161POPC   C1A 2238   4.921   4.063   6.939 -0.1199 -0.0282 -0.0083
  161POPC   D2A 2239   5.114   4.388   6.748 -0.0824 -0.2267  0.1459
  161POPC   C3A 2240   5.513   4.602   6.760  0.4090 -0.2220  0.3273
  161POPC   C4A 2241   5.787   4.663   6.475  0.2374 -0.2365  0.1987
  161POPC   C1B 2242   4.544   3.956   6.673  0.1185 -0.2368  0.0419
  161POPC   C2B 2243   4.468   4.044   6.245 -0.0356 -0.2279  0.1423
  161POPC   C3B 2244   4.417   4.136   5.808  0.2415  0.0470 -0.2138
  161POPC   C4B 2245   4.258   4.492   5.617 -0.1678  0.2540  0.3693
  162POPC   NC3 2246   1.620   9.492   7.242  0.1261  0.0284 -0.2778
  162POPC   PO4 2247   2.089   9.587   7.285  0.1118  0.1063  0.1723
  162POPC   GL1 2248   2.019   9.749   6.909  0.1350  0.1301  0.0075
  162POPC   GL2 2249   1.923   9.485   6.699  0.2050  0.1239 -0.0297
  162POPC   C1A 2250   1.840  10.102   6.626  0.0226  0.0388  0.1920
  162POPC   D2A 2251   1.475  10.219   6.259  0.1287  0.1497 -0.0719
  162POPC   C3A 2252   1.280  10.623   6.210  0.0637 -0.0845  0.0021
  162POPC   C4A 2253   1.237  11.031   5.922  0.0719 -0.0086 -0.1368
  162POPC   C1B 2254   2.000   9.354   6.361  0.0505  0.1718  0.0863
  162POPC   C2B 2255   1.965   8.905   6.107 -0.1297 -0.0251  0.4349
  162POPC   C3B 2256   2.053   8.666   5.811 -0.0789 -0.0348 -0.2309
  162POPC   C4B 2257   2.277   8.364   5.526  0.0472 -0.0231 -0.0198
  163POPC   NC3 2258  10.345   6.271   7.474 -0.3336 -0.0656  0.5097
  163POPC   PO4 2259  10.308   6.721   7.753  0.0073 -0.1522 -0.1783
  163POPC   GL1 2260  10.111   6.691   7.370 -0.2528 -0.4388  0.0085
  163POPC   GL2 2261  10.200   6.622   7.106 -0.2055  0.1660 -0.3041
  163POPC   C1A 2262   9.891   7.061   7.162 -0.1600  0.2717  0.2133
  163POPC   D2A 2263   9.525   7.383   7.054  0.0233 -0.0955  0.0316
  163POPC   C3A 2264   9.365   7.083   6.877  0.1450 -0.3883 -0.0763
  163POPC   C4A 2265   8.943   6.981   6.705 -0.2951 -0.0756 -0.2147
  163POPC   C1B 2266  10.431   6.692   6.705 -0.0734 -0.1649  0.1231
  163POPC   C2B 2267  10.432   6.486   6.393  0.2775  0.0279  0.0970
  163POPC   C3B 2268  10.429   6.581   5.941 -0.1866 -0.0225 -0.0683
  163POPC   C4B 2269  10.711   6.789   5.708  0.0386  0.1117  0.3496
  164POPC   NC3 2270   5.386   6.774   7.821  0.1523 -0.0289  0.1313
  164POPC   PO4 2271   4.822   6.661   7.984  0.0004 -0.1128 -0.3548
  164POPC   GL1 2272   4.537   6.694   7.495 -0.2724 -0.2822 -0.1621
  164POPC   GL2 2273   4.324   6.480   7.487  0.1322  0.1236  0.1778
  164POPC   C1A 2274   4.709   6.458   7.099 -0.3678 -0.2046  0.2648
  164POPC   D2A 2275   4.531   6.174   6.802  0.2574  0.0771  0.0697
  164POPC   C3A 2276   4.250   6.382   6.428  0.1293 -0.3891  0.0639
  164POPC   C4A 2277   3.962   6.422   6.007 -0.0190 -0.0118 -0.1788
  164POPC   C1B 2278   4.069   6.266   7.054  0.1060 -0.1309 -0.1397
  164POPC   C2B 2279   4.008   6.051   6.693  0.1002  0.0292 -0.0505
  164POPC   C3B 2280   3.765   6.124   6.331  0.1414  0.1277  0.0865
  164POPC   C4B 2281   3.534   6.224   6.144  0.0498  0.1814  0.0533
  165POPC   NC3 2282   8.842  10.241   7.877 -0.0147  0.0225 -0.0130
  165POPC   PO4 2283   9.038  10.061   7.404  0.1388  0.0372 -0.0527
  165POPC   GL1 2284   8.940  10.165   7.036 -0.3330  0.1804 -0.1376
  165POPC   GL2 2285   9.042  10.447   6.866 -0.0452 -0.1573 -0.0099
  165POPC   C1A 2286   8.768   9.884   6.687  0.1609 -0.0075 -0.0221
  165POPC   D2A 2287   8.592   9.480   6.435  0.1757 -0.1305  0.0602
  165POPC   C3A 2288   8.755   9.551   6.116  0.0122 -0.5318 -0.0759
  165POPC   C4A 2289   8.781   9.511   5.630 -0.3558  0.1305  0.1086
  165POPC   C1B 2290   8.981  10.259   6.469  0.0401  0.1072 -0.1432
  165POPC   C2B 2291   8.818  10.144   6.095  0.0179 -0.0026 -0.0641
  165POPC   C3B 2292   8.716   9.970   5.775  0.0234 -0.0647 -0.1265
  165POPC   C4B 2293   8.668   9.946   5.382  0.0140 -0.2037 -0.1593
  166POPC   NC3 2294   8.887   0.987   7.305 -0.0572 -0.2161  0.1230
  166POPC   PO4 2295   8.742   0.533   7.276  0.0922 -0.0999  0.0158
  166POPC   GL1 2296   8.908   0.705   6.909 -0.0955 -0.1807  0.0907
  166POPC   GL2 2297   9.034   0.536   6.814  0.1454  0.1752 -0.0229
  166POPC   C1A 2298   8.590   0.776   6.563 -0.2114  0.0279 -0.0106
  166POPC   D2A 2299   8.381   0.825   6.237  0.0316  0.0187  0.2176
  166POPC   C3A 2300   8.272   1.183   6.061  0.0489 -0.1218  0.0429
  166POPC   C4A 2301   7.931   1.204   5.949 -0.1391  0.1336  0.3721
  166POPC   C1B 2302   8.864   0.384   6.379  0.0562  0.0811 -0.1433
  166POPC   C2B 2303   8.744   0.241   6.011  0.2438  0.2060  0.2318
  166POPC   C3B 2304   8.927  -0.034   5.679  0.1717 -0.0655  0.1711
  166POPC   C4B 2305   8.985   0.036   5.238  0.0921  0.1648 -0.1560
  167POPC   NC3 2306   7.331   7.244   7.763 -0.0290 -0.0177  0.0004
  167POPC   PO4 2307   6.932   7.173   8.090  0.2064  0.0381 -0.0644
  167POPC   GL1 2308   6.968   6.988   7.613 -0.0073  0.0315 -0.1667
  167POPC   GL2 2309   7.330   6.797   7.564  0.0921 -0.3713  0.3304
  167POPC   C1A 2310   7.071   7.128   7.194  0.1604  0.1848  0.1012
  167POPC   D2A 2311   7.073   7.460   6.958  0.2081 -0.1615 -0.0817
  167POPC   C3A 2312   7.314   7.815   6.754  0.0874  0.1273  0.1524
  167POPC   C4A 2313   7.739   7.870   6.643 -0.0029 -0.0828 -0.2333
  167POPC   C1B 2314   7.188   6.585   7.203 -0.2238 -0.0292  0.0185
  167POPC   C2B 2315   6.891   6.484   6.862  0.3459  0.2982  0.0660
  167POPC   C3B 2316   6.711   6.302   6.525  0.1321 -0.2737 -0.1194
  167POPC   C4B 2317   6.461   6.587   6.225 -0.0232  0.1405  0.0562
  168POPC   NC3 2318   0.367   6.142   7.397  0.0731 -0.3386 -0.1481
  168POPC   PO4 2319  -0.091   5.934   7.333 -0.1074  0.1075 -0.0147
  168POPC   GL1 2320   0.231   5.897   6.982  0.0549 -0.5227 -0.6141
  168POPC   GL2 2321   0.547   5.679   7.195 -0.1069  0.0310  0.3502
  168POPC   C1A 2322   0.340   5.827   6.529  0.3567 -0.1101 -0.1105
  168POPC   D2A 2323   0.331   6.025   6.032  0.2526  0.1132 -0.1975
  168POPC   C3A 2324   0.541   5.910   5.653 -0.2401  0.2361  0.1327
  168POPC   C4A 2325   0.742   5.694   5.260  0.0252  0.2481  0.0902
  168POPC   C1B 2326   0.730   5.798   6.814  0.3421 -0.0762  0.3148
  168POPC   C2B 2327   0.780   5.657   6.343 -0.1200  0.2239 -0.3652
  168POPC   C3B 2328   0.452   5.510   6.068  0.2034 -0.0059  0.2196
  168POPC   C4B 2329   0.232   5.278   5.821 -0.0893  0.0500  0.2541
  169POPC   NC3 2330   8.176   0.171   7.871  0.2585  0.0415 -0.2638
  169POPC   PO4 2331   8.119   0.504   7.621 -0.1102  0.0914 -0.0043
  169POPC   GL1 2332   8.209   0.492   7.201  0.2883 -0.2231 -0.1296
  169POPC   GL2 2333   8.181   0.199   7.064  0.1721  0.2413  0.1254
  169POPC   C1A 2334   8.113   0.739   6.792 -0.0166  0.0519 -0.2501
  169POPC   D2A 2335   7.850   0.654   6.435 -0.0019  0.0553  0.0646
  169POPC   C3A 2336   7.928   0.734   5.989 -0.2202 -0.2464  0.2335
  169POPC   C4A 2337   7.900   0.844   5.529  0.1780 -0.0350 -0.1044
  169POPC   C1B 2338   7.815   0.334   6.838  0.0004 -0.1578 -0.2275
  169POPC   C2B 2339   7.677   0.153   6.409 -0.2804 -0.0532  0.0147
  169POPC   C3B 2340   7.668   0.266   6.047  0.1875  0.1251 -0.0658
  169POPC   C4B 2341   7.590   0.039   5.839 -0.2106  0.0064 -0.1769
  170POPC   NC3 2342   3.586   1.607   7.702 -0.0387  0.0255 -0.1268
  170POPC   PO4 2343   3.591   2.017   7.446 -0.1281  0.0988  0.0938
  170POPC   GL1 2344   3.829   2.044   7.079  0.2651  0.2256 -0.0813
  170POPC   GL2 2345   4.069   1.781   7.199 -0.3081  0.3060  0.1121
  170POPC   C1A 2346   4.100   2.040   6.655 -0.1230  0.1269  0.0248
  170POPC   D2A 2347   4.086   1.782   6.327 -0.2711 -0.0123 -0.1402
  170POPC   C3A 2348   4.366   1.797   6.040  0.1419 -0.2629 -0.3256
  170POPC   C4A 2349   4.588   1.520   5.782 -0.1375  0.0117 -0.3493
  170POPC   C1B 2350   4.396   1.835   6.961  0.2253 -0.3185 -0.1882
  170POPC   C2B 2351   4.633   1.848   6.553 -0.0222  0.2101 -0.2194
  170POPC   C3B 2352   4.751   2.054   6.140 -0.0534 -0.0051  0.0407
  170POPC   C4B 2353   4.868   1.916   5.677  0.2440 -0.3647 -0.2529
  171POPC   NC3 2354   3.223   2.933   7.395  0.1496  0.0001  0.0808
  171POPC   PO4 2355   2.956   2.623   7.294 -0.1720 -0.0918  0.0163
  171POPC   GL1 2356   2.654   2.994   7.114 -0.1887  0.0948  0.0452
  171POPC   GL2 2357   2.843   3.126   6.906 -0.2010 -0.0474  0.1126
  171POPC   C1A 2358   2.260   3.152   6.993  0.1029 -0.1904  0.1638
  171POPC   D2A 2359   2.068   3.415   6.700 -0.1915 -0.1827  0.1713
  171POPC   C3A 2360   1.944   3.363   6.400  0.0432 -0.0580  0.2188
  171POPC   C4A 2361   1.957   3.465   5.900 -0.1267 -0.0681 -0.2654
  171POPC   C1B 2362   2.880   3.098   6.561 -0.2955  0.1986 -0.1378
  171POPC   C2B 2363   2.956   3.359   6.181  0.2452  0.2391 -0.2475
  171POPC   C3B 2364   2.981   3.409   5.690  0.2455 -0.1595  0.2764
  171POPC   C4B 2365   3.027   3.540   5.296 -0.0066  0.1218 -0.0819
  172POPC   NC3 2366   2.441   0.954   7.567 -0.0126 -0.0689  0.0318
  172POPC   PO4 2367   2.134   0.731   7.381  0.0366 -0.0135  0.2850
  172POPC   GL1 2368   2.251   0.559   6.868 -0.1432  0.0686 -0.1559
  172POPC   GL2 2369   2.063   0.743   6.570  0.4368  0.1828  0.0804
  172POPC   C1A 2370   2.503   0.515   6.492  0.1226 -0.2663 -0.0306
  172POPC   D2A 2371   2.632   0.696   6.024 -0.1135  0.1915 -0.0736
  172POPC   C3A 2372   2.806   1.152   5.982 -0.2020  0.0317 -0.0363
  172POPC   C4A 2373   3.294   1.339   5.903  0.3609  0.2565 -0.0623
  172POPC   C1B 2374   2.048   0.792   6.192  0.0252  0.0207 -0.0868
  172POPC   C2B 2375   1.893   1.090   5.855  0.1264 -0.1882  0.1368
  172POPC   C3B 2376   1.732   1.132   5.425 -0.1324  0.3225 -0.2180
  172POPC   C4B 2377   1.372   1.258   5.309 -0.1221 -0.1927  0.1472
  173POPC   NC3 2378   1.061   1.368   7.269  0.0826 -0.1692  0.2321
  173POPC   PO4 2379   1.293   1.768   7.336 -0.2548  0.0028 -0.1912
  173POPC   GL1 2380   1.125   1.711   6.869  0.0517  0.2408 -0.0405
  173POPC   GL2 2381   0.730   1.408   6.914 -0.0952 -0.1818 -0.0259
  173POPC   C1A 2382   1.192   1.692   6.410  0.0336  0.1256 -0.4050
  173POPC   D2A 2383   1.490   1.430   6.121  0.2513  0.2246 -0.1313
  173POPC   C3A 2384   1.290   1.150   5.788 -0.4261  0.1096 -0.0088
  173POPC   C4A 2385   1.029   0.862   5.729 -0.1780 -0.2607 -0.2793
  173POPC   C1B 2386   0.732   1.471   6.495  0.1253 -0.1267  0.1370
  173POPC   C2B 2387   0.584   1.570   6.141  0.1985  0.3155  0.0312
  173POPC   C3B 2388   0.585   1.815   5.775 -0.2460 -0.0351  0.0990
  173POPC   C4B 2389   0.325   2.117   5.584 -0.1301  0.1295  0.1928
  174POPC   NC3 2390   4.263   7.144   3.658  0.0962  0.0290  0.1113
  174POPC   PO4 2391   4.489   7.527   3.793  0.1956  0.3429  0.0210
  174POPC   GL1 2392   4.317   7.446   4.147 -0.0402  0.2159 -0.3419
  174POPC   GL2 2393   4.194   7.609   4.298 -0.0737 -0.1079 -0.0503
  174POPC   C1A 2394   4.497   7.277   4.503  0.0867 -0.0269 -0.2649
  174POPC   D2A 2395   4.506   6.779   4.642  0.2998 -0.3573  0.1172
  174POPC   C3A 2396   4.698   6.645   4.994  0.1500  0.2782  0.2961
  174POPC   C4A 2397   4.732   6.716   5.403  0.2505  0.1245  0.0100
  174POPC   C1B 2398   3.912   7.607   4.653 -0.1162  0.1841 -0.1740
  174POPC   C2B 2399   4.191   7.662   5.086  0.0391 -0.1063  0.0849
  174POPC   C3B 2400   4.115   7.767   5.446 -0.2123 -0.3239  0.3811
  174POPC   C4B 2401   3.769   7.884   5.569 -0.2839 -0.0665  0.1213
  175POPC   NC3 2402   9.672   5.472   2.834  0.2464  0.1485  0.2242
  175POPC   PO4 2403   9.528   5.879   2.991  0.0303 -0.0559 -0.4657
  175POPC   GL1 2404   9.689   5.864   3.512  0.1763  0.0149  0.1043
  175POPC   GL2 2405   9.948   6.033   3.545  0.0944 -0.0895 -0.1416
  175POPC   C1A 2406   9.769   5.671   3.938 -0.2852  0.1731 -0.1714
  175POPC   D2A 2407   9.698   5.475   4.438 -0.0887  0.1365 -0.0748
  175POPC   C3A 2408   9.925   5.076   4.706 -0.0147 -0.0734 -0.0402
  175POPC   C4A 2409  10.200   4.887   4.863  0.0810 -0.1149  0.3045
  175POPC   C1B 2410   9.988   6.227   3.852 -0.0945 -0.2717 -0.1573
  175POPC   C2B 2411   9.999   6.494   4.231  0.0477 -0.0509 -0.1879
  175POPC   C3B 2412  10.210   6.696   4.609 -0.0497  0.0340 -0.4108
  175POPC   C4B 2413  10.307   6.767   5.025  0.0496 -0.0357 -0.2566
  176POPC   NC3 2414  10.835   0.276   3.732  0.0741 -0.0452  0.1372
  176POPC   PO4 2415  10.851   0.676   3.811  0.1675  0.1099 -0.1514
  176POPC   GL1 2416  10.684   0.698   4.211  0.1763 -0.2943 -0.0549
  176POPC   GL2 2417  10.386   0.450   4.222 -0.0508 -0.2130 -0.1543
  176POPC   C1A 2418  10.516   0.664   4.630  0.1285 -0.1580  0.0302
  176POPC   D2A 2419  10.141   0.759   4.830  0.0892 -0.1363  0.0134
  176POPC   C3A 2420   9.982   1.065   4.550  0.0528 -0.1979  0.1328
  176POPC   C4A 2421   9.744   1.446   4.482 -0.0932  0.1469  0.0923
  176POPC   C1B 2422   9.903   0.575   4.376  0.3847 -0.0862 -0.4530
  176POPC   C2B 2423   9.679   0.556   4.828  0.4509  0.0786 -0.1668
  176POPC   C3B 2424   9.431   0.312   5.181  0.1707 -0.0418  0.0368
  176POPC   C4B 2425   9.423   0.129   5.592  0.2146  0.2252 -0.1071
  177POPC   NC3 2426   2.015   7.921   3.748  0.0169 -0.0089 -0.0978
  177POPC   PO4 2427   1.706   7.570   3.902 -0.0684 -0.1593  0.2442
  177POPC   GL1 2428   1.549   7.538   4.272  0.1754 -0.0512 -0.1046
  177POPC   GL2 2429   1.359   7.786   4.514 -0.1675  0.1363  0.1489
  177POPC   C1A 2430   1.454   7.377   4.700 -0.1090 -0.2181 -0.0293
  177POPC   D2A 2431   1.177   7.363   4.992  0.0306  0.1147 -0.0271
  177POPC   C3A 2432   0.879   7.096   4.840 -0.1662  0.1248  0.2271
  177POPC   C4A 2433   0.409   6.857   4.978 -0.1095 -0.0161 -0.0370
  177POPC   C1B 2434   1.441   7.842   4.952  0.1848  0.1917  0.0717
  177POPC   C2B 2435   1.337   7.962   5.380 -0.0732  0.2590  0.0633
  177POPC   C3B 2436   1.287   8.291   5.612  0.1434  0.2026  0.2802
  177POPC   C4B 2437   1.285   8.211   6.096  0.0178 -0.0314  0.0583
  178POPC   NC3 2438   7.328   1.923   3.539 -0.1793  0.3764 -0.3882
  178POPC   PO4 2439   7.611   2.236   3.492  0.1321  0.0427 -0.2004
  178POPC   GL1 2440   7.737   2.376   3.906  0.1979 -0.1975  0.2588
  178POPC   GL2 2441   7.660   2.752   4.095  0.0003  0.2054  0.1790
  178POPC   C1A 2442   7.505   2.307   4.327  0.1427  0.0340  0.1226
  178POPC   D2A 2443   7.313   2.540   4.697 -0.0959 -0.0049  0.0459
  178POPC   C3A 2444   6.834   2.273   4.875  0.0729  0.1350 -0.1056
  178POPC   C4A 2445   6.575   2.046   5.183 -0.0809 -0.3534 -0.0145
  178POPC   C1B 2446   7.822   2.661   4.503  0.1067  0.2278  0.1384
  178POPC   C2B 2447   8.126   2.495   4.817  0.1175  0.0201 -0.1216
  178POPC   C3B 2448   8.141   2.381   5.281  0.0837  0.1297  0.2559
  178POPC   C4B 2449   7.905   2.111   5.428 -0.0348 -0.0501  0.4010
  179POPC   NC3 2450   1.846  10.844   3.556 -0.0105  0.0837  0.2988
  179POPC   PO4 2451   2.024  11.214   3.520  0.4255 -0.2347 -0.0407
  179POPC   GL1 2452   1.879  11.157   3.910 -0.2862 -0.1947  0.0855
  179POPC   GL2 2453   2.179  11.385   4.074 -0.2242  0.0514 -0.0584
  179POPC   C1A 2454   1.887  11.147   4.357 -0.0716  0.1613  0.0969
  179POPC   D2A 2455   2.032  11.095   4.801 -0.1430 -0.1491  0.2221
  179POPC   C3A 2456   2.135  10.753   5.031 -0.1372 -0.2855  0.1405
  179POPC   C4A 2457   1.932  10.548   5.316 -0.1699 -0.1668  0.2846
  179POPC   C1B 2458   2.338  11.366   4.523  0.0628  0.0942  0.1285
  179POPC   C2B 2459   2.536  11.107   4.826 -0.0906 -0.6428 -0.0776
  179POPC   C3B 2460   2.691  10.690   4.815 -0.4245 -0.2798 -0.0130
  179POPC   C4B 2461   3.008  10.466   4.955 -0.1073 -0.3906  0.0054
  180POPC   NC3 2462   7.794  10.134   3.184  0.1786 -0.1697  0.2055
  180POPC   PO4 2463   7.451  10.348   3.235  0.1161  0.3433 -0.4790
  180POPC   GL1 2464   7.439  10.345   3.672  0.0060 -0.0318 -0.2936
  180POPC   GL2 2465   7.404  10.728   3.875  0.0997 -0.1113  0.0733
  180POPC   C1A 2466   7.479  10.109   4.031 -0.0032 -0.1291 -0.0748
  180POPC   D2A 2467   7.538   9.876   4.385 -0.0523  0.0071  0.0340
  180POPC   C3A 2468   7.369   9.601   4.736  0.0409 -0.0708 -0.0195
  180POPC   C4A 2469   7.399   9.715   5.153  0.0837 -0.0698 -0.2926
  180POPC   C1B 2470   7.446  10.536   4.282 -0.0337  0.1161  0.0445
  180POPC   C2B 2471   7.503  10.336   4.635 -0.3891 -0.2940 -0.0702
  180POPC   C3B 2472   7.522  10.292   5.044  0.3298 -0.1429  0.0236
  180POPC   C4B 2473   7.640  10.113   5.412  0.2660 -0.0377 -0.1959
  181POPC   NC3 2474   2.216   5.344   3.802 -0.0719  0.1277  0.2365
  181POPC   PO4 2475   2.349   5.829   3.886 -0.0158  0.1079 -0.1449
  181POPC   GL1 2476   2.379   6.135   4.272 -0.0406 -0.0817  0.0332
  181POPC   GL2 2477   2.145   6.470   4.314 -0.2733  0.0717  0.2861
  181POPC   C1A 2478   2.464   6.072   4.811  0.3054  0.1752  0.0264
  181POPC   D2A 2479   2.588   6.034   5.202 -0.0045 -0.1552 -0.0697
  181POPC   C3A 2480   2.504   6.380   5.382 -0.2073 -0.3496 -0.0464
  181POPC   C4A 2481   2.334   6.829   5.547  0.2656 -0.0962  0.0761
  181POPC   C1B 2482   2.126   6.438   4.833  0.0260  0.0129  0.2423
  181POPC   C2B 2483   1.765   6.538   5.087 -0.1145  0.4114  0.0743
  181POPC   C3B 2484   1.451   6.337   5.366  0.4189  0.1647 -0.0574
  181POPC   C4B 2485   0.971   6.171   5.484 -0.2680 -0.0387  0.1082
  182POPC   NC3 2486   1.319   5.744   3.769  0.2452  0.0850  0.3069
  182POPC   PO4 2487   0.841   5.806   3.604 -0.2641 -0.1893 -0.0697
  182POPC   GL1 2488   0.818   5.633   4.032  0.1226 -0.0609 -0.1143
  182POPC   GL2 2489   0.942   5.268   4.011  0.1966  0.1898  0.2142
  182POPC   C1A 2490   0.690   5.887   4.386 -0.0219 -0.0405  0.0882
  182POPC   D2A 2491   0.484   6.137   4.605  0.2600 -0.0562 -0.0775
  182POPC   C3A 2492   0.158   5.905   4.738 -0.1841  0.0751  0.1587
  182POPC   C4A 2493  -0.152   5.657   4.904 -0.0418  0.0669 -0.0642
  182POPC   C1B 2494   0.907   5.392   4.495  0.1036  0.0859 -0.1592
  182POPC   C2B 2495   0.942   5.657   4.778  0.1895  0.0865 -0.0325
  182POPC   C3B 2496   0.840   6.141   4.992  0.3182  0.0315 -0.0315
  182POPC   C4B 2497   0.539   6.408   5.189  0.3724  0.0600 -0.1961
  183POPC   NC3 2498   4.795   7.325   3.504 -0.0678 -0.2719 -0.0007
  183POPC   PO4 2499   4.786   6.979   3.744  0.0412  0.1765 -0.1105
  183POPC   GL1 2500   4.858   6.718   4.148 -0.0789  0.1003 -0.1732
  183POPC   GL2 2501   4.562   6.458   4.143 -0.0137 -0.2066  0.0054
  183POPC   C1A 2502   4.973   6.446   4.551  0.2242 -0.3376 -0.2973
  183POPC   D2A 2503   4.852   6.075   4.804  0.1539  0.0040  0.0727
  183POPC   C3A 2504   4.846   6.189   5.237  0.0583 -0.1033 -0.1768
  183POPC   C4A 2505   4.978   6.274   5.555  0.2562  0.0320 -0.0742
  183POPC   C1B 2506   4.440   6.286   4.599 -0.0530 -0.1064  0.1373
  183POPC   C2B 2507   4.379   6.262   5.099 -0.1921  0.0115 -0.1001
  183POPC   C3B 2508   4.343   6.317   5.559  0.0591 -0.1551 -0.0195
  183POPC   C4B 2509   4.413   6.209   5.993  0.0448 -0.0463 -0.0567
  184POPC   NC3 2510   1.022   6.219   3.421 -0.2451  0.0210  0.0987
  184POPC   PO4 2511   0.840   6.730   3.363  0.0277 -0.0740 -0.3903
  184POPC   GL1 2512   0.782   6.775   3.871 -0.0825 -0.1287  0.1640
  184POPC   GL2 2513   0.656   7.087   4.005 -0.0396 -0.2302 -0.0323
  184POPC   C1A 2514   1.016   6.664   4.253  0.0237 -0.1760  0.1998
  184POPC   D2A 2515   1.379   6.569   4.306 -0.2802  0.1817  0.4045
  184POPC   C3A 2516   1.836   6.794   4.537  0.0051  0.1171 -0.1734
  184POPC   C4A 2517   1.965   7.222   4.470 -0.0290  0.1572  0.0692
  184POPC   C1B 2518   0.663   6.957   4.359 -0.2856 -0.1064  0.1871
  184POPC   C2B 2519   0.711   6.549   4.681  0.1932  0.0654 -0.2408
  184POPC   C3B 2520   0.982   6.222   4.458 -0.1927 -0.0985  0.2448
  184POPC   C4B 2521   1.201   5.868   4.382  0.0881 -0.1309 -0.2593
  185POPC   NC3 2522   8.335   8.440   2.808  0.1314 -0.1756  0.0651
  185POPC   PO4 2523   8.415   8.441   3.208 -0.1495 -0.2078  0.1616
  185POPC   GL1 2524   8.464   8.532   3.695  0.2331  0.0019 -0.2537
  185POPC   GL2 2525   8.233   8.334   3.925  0.1501  0.2164  0.2310
  185POPC   C1A 2526   8.769   8.412   4.018  0.1534 -0.1883 -0.1295
  185POPC   D2A 2527   9.233   8.386   4.112  0.4911 -0.0196 -0.1924
  185POPC   C3A 2528   9.679   8.428   4.004 -0.2363 -0.1997 -0.0025
  185POPC   C4A 2529   9.934   8.764   3.954 -0.0777  0.2050  0.3269
  185POPC   C1B 2530   8.004   8.356   4.350  0.0627 -0.0456  0.1561
  185POPC   C2B 2531   7.828   8.571   4.729  0.0287  0.1570  0.0698
  185POPC   C3B 2532   7.929   8.488   5.228 -0.0769 -0.1287  0.2815
  185POPC   C4B 2533   7.679   8.253   5.491 -0.2599  0.3201 -0.0303
  186POPC   NC3 2534   4.177   0.669   3.896  0.2229 -0.1291 -0.1050
  186POPC   PO4 2535   4.526   1.020   3.906  0.2699  0.2787 -0.0843
  186POPC   GL1 2536   4.547   1.153   4.317  0.0359  0.0660 -0.3918
  186POPC   GL2 2537   4.632   0.906   4.397 -0.0317 -0.1424 -0.0535
  186POPC   C1A 2538   4.225   1.350   4.603 -0.0438  0.2053  0.0636
  186POPC   D2A 2539   3.829   1.416   4.737 -0.0846 -0.3302 -0.3948
  186POPC   C3A 2540   3.491   1.240   4.859  0.2080 -0.2300  0.3568
  186POPC   C4A 2541   3.101   1.266   5.222  0.1589 -0.2121 -0.3249
  186POPC   C1B 2542   4.624   0.639   4.744 -0.0265 -0.1226  0.0559
  186POPC   C2B 2543   4.744   0.621   5.167  0.0084  0.2917 -0.2966
  186POPC   C3B 2544   4.522   0.864   5.513  0.0146  0.0409  0.0903
  186POPC   C4B 2545   4.632   0.855   6.058 -0.2989  0.0322 -0.0380
  187POPC   NC3 2546   7.758   8.841   3.599  0.0882  0.5060 -0.1048
  187POPC   PO4 2547   7.323   8.917   3.700 -0.0147  0.1065 -0.1031
  187POPC   GL1 2548   7.317   8.921   4.099  0.0650 -0.0605 -0.0347
  187POPC   GL2 2549   7.030   8.824   4.247 -0.1527 -0.0677 -0.1244
  187POPC   C1A 2550   7.101   9.231   4.492  0.0443 -0.1280  0.1516
  187POPC   D2A 2551   6.877   9.618   4.552 -0.0932 -0.3152 -0.0132
  187POPC   C3A 2552   6.843   9.633   4.985 -0.0356  0.1369 -0.2281
  187POPC   C4A 2553   6.978   9.677   5.424  0.2025 -0.0095  0.0307
  187POPC   C1B 2554   6.836   8.566   4.469 -0.3418 -0.0114  0.0710
  187POPC   C2B 2555   6.897   8.148   4.521 -0.0737  0.0850 -0.0958
  187POPC   C3B 2556   6.695   7.830   4.821 -0.0337 -0.0632  0.3093
  187POPC   C4B 2557   6.392   7.943   5.108  0.0895  0.3243  0.1025
  188POPC   NC3 2558   6.045   2.690   3.161  0.0962  0.2713  0.0067
  188POPC   PO4 2559   5.824   2.858   3.628 -0.0494 -0.2794 -0.1647
  188POPC   GL1 2560   5.588   2.936   3.942  0.0567 -0.0164 -0.2507
  188POPC   GL2 2561   5.589   2.647   4.237 -0.5522 -0.1685  0.2755
  188POPC   C1A 2562   5.472   3.138   4.313 -0.1005 -0.0224 -0.0052
  188POPC   D2A 2563   5.368   3.263   4.785 -0.0833 -0.0348 -0.1461
  188POPC   C3A 2564   5.583   3.074   5.087  0.2445 -0.0711 -0.0905
  188POPC   C4A 2565   5.488   3.045   5.505 -0.0440 -0.1904  0.1494
  188POPC   C1B 2566   5.810   2.834   4.504 -0.4336  0.3881  0.4801
  188POPC   C2B 2567   5.977   2.876   4.895 -0.2519 -0.1144  0.0044
  188POPC   C3B 2568   6.287   3.080   5.279  0.0619 -0.1700 -0.1615
  188POPC   C4B 2569   6.636   3.066   5.678 -0.0928 -0.0183 -0.0856
  189POPC   NC3 2570   2.573   0.375   3.209 -0.0310  0.2267 -0.1664
  189POPC   PO4 2571   2.275   0.629   3.203 -0.0038 -0.1574 -0.1975
  189POPC   GL1 2572   2.097   0.813   3.592  0.3272  0.1345 -0.4604
  189POPC   GL2 2573   1.823   0.800   3.591  0.1639  0.2400 -0.1620
  189POPC   C1A 2574   2.176   1.047   4.084  0.0349  0.0701  0.1387
  189POPC   D2A 2575   2.186   1.465   4.287 -0.2655  0.0617 -0.1652
  189POPC   C3A 2576   2.200   1.900   4.193 -0.1200  0.0282  0.1260
  189POPC   C4A 2577   2.117   2.320   4.005 -0.1734 -0.1617  0.1477
  189POPC   C1B 2578   1.729   0.832   4.068 -0.0608 -0.3342  0.2255
  189POPC   C2B 2579   1.872   0.746   4.492 -0.1632 -0.1322  0.1383
  189POPC   C3B 2580   1.987   0.697   4.914  0.0313 -0.2313  0.0281
  189POPC   C4B 2581   1.790   0.642   5.275 -0.3108  0.2395 -0.0564
  190POPC   NC3 2582   9.882   2.149   3.046  0.1794  0.0826  0.0064
  190POPC   PO4 2583  10.140   2.316   3.435  0.2909  0.1364 -0.3131
  190POPC   GL1 2584  10.194   2.243   3.845 -0.1673  0.0630  0.2056
  190POPC   GL2 2585   9.981   2.434   3.947 -0.2125 -0.2241  0.1428
  190POPC   C1A 2586  10.430   2.433   4.224 -0.0420 -0.1184  0.0613
  190POPC   D2A 2587  10.829   2.294   4.432  0.2682  0.1221 -0.0310
  190POPC   C3A 2588  10.804   2.183   4.848 -0.0426  0.1798  0.1388
  190POPC   C4A 2589  10.802   2.173   5.333  0.1971 -0.1294 -0.1089
  190POPC   C1B 2590   9.996   2.733   4.356 -0.1545  0.2722 -0.1685
  190POPC   C2B 2591  10.123   2.952   4.765  0.1192  0.0689 -0.1936
  190POPC   C3B 2592  10.380   2.913   5.169  0.1152  0.1562 -0.0654
  190POPC   C4B 2593  10.173   3.025   5.654 -0.1250 -0.0748  0.4276
  191POPC   NC3 2594   4.853  10.262   3.654 -0.4107 -0.1370  0.0897
  191POPC   PO4 2595   4.464  10.174   3.505 -0.1566  0.5939  0.0051
  191POPC   GL1 2596   4.338  10.332   3.837  0.2176  0.0829  0.0456
  191POPC   GL2 2597   4.130  10.238   4.047 -0.1461  0.0541 -0.2294
  191POPC   C1A 2598   4.536  10.243   4.295 -0.3942  0.1322 -0.0633
  191POPC   D2A 2599   4.372  10.363   4.698 -0.1617  0.3175 -0.2340
  191POPC   C3A 2600   4.312  10.528   5.124  0.5126 -0.0834 -0.2082
  191POPC   C4A 2601   4.320  10.508   5.557 -0.2929 -0.0030 -0.0307
  191POPC   C1B 2602   3.931  10.211   4.527 -0.1528 -0.2154  0.3864
  191POPC   C2B 2603   3.979  10.197   4.930  0.0141  0.1345 -0.3633
  191POPC   C3B 2604   3.910  10.180   5.370 -0.2660  0.1622  0.0194
  191POPC   C4B 2605   3.580  10.199   5.705  0.1265 -0.1169  0.2618
  192POPC   NC3 2606   0.451   9.519   3.366  0.2225  0.0376 -0.2550
  192POPC   PO4 2607   0.291   9.743   3.764  0.1307 -0.0201  0.3610
  192POPC   GL1 2608   0.537   9.743   4.162  0.0282  0.0265  0.1988
  192POPC   GL2 2609   0.675  10.107   4.182  0.1266  0.2187  0.0548
  192POPC   C1A 2610   0.645   9.289   4.359 -0.1552  0.0253  0.3911
  192POPC   D2A 2611   0.786   9.074   4.672  0.1868  0.1976  0.1470
  192POPC   C3A 2612   0.955   8.703   4.583 -0.2445 -0.1177  0.1155
  192POPC   C4A 2613   1.206   8.378   4.509 -0.0453  0.2342  0.4473
  192POPC   C1B 2614   0.846  10.391   4.455  0.0667 -0.2341  0.2131
  192POPC   C2B 2615   0.949  10.434   4.839 -0.3316 -0.0178 -0.2964
  192POPC   C3B 2616   0.870  10.567   5.224 -0.1060 -0.0279  0.0036
  192POPC   C4B 2617   0.633  10.439   5.578  0.1524  0.2949  0.2684
  193POPC   NC3 2618   5.410   2.176   4.027  0.0364 -0.1485 -0.2598
  193POPC   PO4 2619   5.710   1.954   4.127 -0.1477 -0.0718 -0.0175
  193POPC   GL1 2620   5.362   1.848   4.401  0.2219  0.1532  0.0284
  193POPC   GL2 2621   5.347   2.051   4.658  0.1668 -0.0860  0.1604
  193POPC   C1A 2622   4.996   1.806   4.780 -0.1297 -0.0680  0.2596
  193POPC   D2A 2623   4.779   1.709   5.169  0.0485 -0.0450 -0.1896
  193POPC   C3A 2624   4.382   1.475   5.286  0.0345 -0.0512 -0.0094
  193POPC   C4A 2625   4.064   1.623   5.594 -0.1557 -0.2907 -0.1408
  193POPC   C1B 2626   5.593   1.837   4.995  0.1396  0.1810  0.0897
  193POPC   C2B 2627   5.826   1.540   5.293  0.1757  0.1911  0.1839
  193POPC   C3B 2628   5.941   1.168   5.573  0.2742  0.1670 -0.2675
  193POPC   C4B 2629   6.018   0.989   6.008  0.2474  0.1273  0.3809
  194POPC   NC3 2630  10.007   9.685   3.453  0.1963 -0.0123  0.0497
  194POPC   PO4 2631  10.320   9.434   3.562 -0.1143 -0.1374  0.0073
  194POPC   GL1 2632  10.336   9.272   4.046 -0.0620 -0.2031 -0.0512
  194POPC   GL2 2633  10.375   8.989   4.163 -0.2544  0.0023  0.0675
  194POPC   C1A 2634  10.477   9.345   4.523  0.3901  0.1779  0.0143
  194POPC   D2A 2635  10.296   9.387   4.865 -0.3457  0.1743  0.1844
  194POPC   C3A 2636  10.477   9.712   4.963 -0.1190 -0.0726  0.0607
  194POPC   C4A 2637  10.459  10.079   5.030 -0.2351 -0.1528 -0.0319
  194POPC   C1B 2638  10.146   9.007   4.573  0.0630 -0.0336  0.3334
  194POPC   C2B 2639   9.767   9.194   4.897 -0.0028 -0.0443  0.2771
  194POPC   C3B 2640   9.367   9.130   4.941  0.0341  0.2721 -0.2484
  194POPC   C4B 2641   9.047   9.201   4.590 -0.0329 -0.3119  0.0690
  195POPC   NC3 2642   2.313   8.775   3.351  0.3351  0.0875  0.1820
  195POPC   PO4 2643   2.046   8.394   3.539 -0.1295 -0.0360 -0.0064
  195POPC   GL1 2644   1.799   8.422   3.897  0.0012 -0.2100  0.2235
  195POPC   GL2 2645   1.596   8.170   4.116  0.0216  0.3118 -0.2243
  195POPC   C1A 2646   1.903   8.601   4.282  0.2478 -0.1726 -0.2240
  195POPC   D2A 2647   1.922   8.729   4.678  0.3404  0.1549  0.3193
  195POPC   C3A 2648   1.978   8.369   4.869 -0.1404  0.0177  0.0444
  195POPC   C4A 2649   2.008   8.049   5.176 -0.1085  0.5285  0.0686
  195POPC   C1B 2650   1.644   8.179   4.558 -0.0660 -0.0710 -0.1228
  195POPC   C2B 2651   1.491   8.308   5.048  0.3600 -0.0298 -0.2386
  195POPC   C3B 2652   1.714   8.402   5.439 -0.2471 -0.2433 -0.0432
  195POPC   C4B 2653   1.847   8.182   5.826  0.1495 -0.1375 -0.0594
  196POPC   NC3 2654   7.415   3.223   3.137 -0.0982 -0.1226  0.0145
  196POPC   PO4 2655   7.654   3.207   3.529 -0.1258 -0.3774 -0.0483
  196POPC   GL1 2656   7.944   3.218   3.991 -0.0495 -0.2383 -0.1132
  196POPC   GL2 2657   8.147   3.004   4.161  0.1638 -0.0680  0.3217
  196POPC   C1A 2658   7.780   3.417   4.315 -0.0961  0.1476 -0.0304
  196POPC   D2A 2659   7.533   3.542   4.695  0.3782  0.1080 -0.3579
  196POPC   C3A 2660   7.536   3.351   5.081 -0.0114 -0.0910  0.0499
  196POPC   C4A 2661   7.609   3.338   5.534  0.2956 -0.3165 -0.2288
  196POPC   C1B 2662   8.222   2.999   4.622 -0.1510  0.1176  0.0279
  196POPC   C2B 2663   8.278   2.899   4.966 -0.2728  0.1155 -0.1207
  196POPC   C3B 2664   7.952   2.904   5.266 -0.2276  0.0464  0.1913
  196POPC   C4B 2665   7.680   2.589   5.074 -0.1011  0.0029  0.2181
  197POPC   NC3 2666  10.842  10.634   3.566  0.3870 -0.0379 -0.2082
  197POPC   PO4 2667  11.235  10.787   3.744 -0.2073  0.0273  0.1488
  197POPC   GL1 2668  11.386  10.677   4.140 -0.0055 -0.1769 -0.1203
  197POPC   GL2 2669  11.556  10.856   4.265 -0.1276  0.2336  0.0010
  197POPC   C1A 2670  11.193  10.684   4.553  0.2152 -0.1641  0.0589
  197POPC   D2A 2671  11.280  10.445   4.943 -0.0166  0.1817  0.2315
  197POPC   C3A 2672  10.932  10.527   5.277  0.5082  0.1478  0.0973
  197POPC   C4A 2673  10.623  10.592   5.553 -0.1055 -0.0067  0.3738
  197POPC   C1B 2674  11.490  11.265   4.492 -0.0063  0.0411  0.0807
  197POPC   C2B 2675  11.507  11.291   4.951  0.2779  0.0194 -0.0389
  197POPC   C3B 2676  11.629  11.356   5.347 -0.1011  0.0374 -0.1761
  197POPC   C4B 2677  11.816  10.998   5.573 -0.0489 -0.1151 -0.1467
  198POPC   NC3 2678   0.929   7.910   3.534 -0.2015 -0.0400 -0.2206
  198POPC   PO4 2679   0.569   7.593   3.380  0.2355  0.0309 -0.1749
  198POPC   GL1 2680   0.402   7.594   3.780  0.1165  0.1937  0.0005
  198POPC   GL2 2681   0.141   7.745   3.623 -0.0833  0.2869 -0.0980
  198POPC   C1A 2682   0.390   7.601   4.268 -0.4111  0.2728  0.2924
  198POPC   D2A 2683   0.450   7.375   4.514 -0.2561 -0.0390  0.1646
  198POPC   C3A 2684   0.504   7.414   4.953 -0.0852  0.0365  0.0947
  198POPC   C4A 2685   0.772   7.263   5.364  0.4233  0.1831  0.4998
  198POPC   C1B 2686   0.002   7.798   4.099 -0.1328 -0.1839  0.0939
  198POPC   C2B 2687   0.043   7.743   4.618  0.1892 -0.1162 -0.0346
  198POPC   C3B 2688   0.001   7.666   5.023 -0.1591 -0.3352  0.0091
  198POPC   C4B 2689   0.067   7.472   5.349  0.2298 -0.0497  0.1643
  199POPC   NC3 2690   0.788   0.577   3.698 -0.1929 -0.0863  0.0039
  199POPC   PO4 2691   0.381   0.421   3.705 -0.1645  0.4170  0.0595
  199POPC   GL1 2692   0.420   0.445   4.072  0.1048  0.2574 -0.0890
  199POPC   GL2 2693   0.208   0.260   4.149 -0.3938 -0.0229  0.4487
  199POPC   C1A 2694   0.280   0.740   4.386  0.1614 -0.0647 -0.0776
  199POPC   D2A 2695   0.171   1.189   4.507  0.0790 -0.0254 -0.0133
  199POPC   C3A 2696  -0.157   1.127   4.736  0.0687  0.1353  0.0239
  199POPC   C4A 2697  -0.216   0.836   5.095  0.0340  0.3143  0.0774
  199POPC   C1B 2698   0.005   0.342   4.408  0.2065  0.1205  0.1515
  199POPC   C2B 2699   0.086   0.543   4.810 -0.0473  0.0040 -0.2117
  199POPC   C3B 2700   0.226   0.502   5.208 -0.0654 -0.0524 -0.3939
  199POPC   C4B 2701   0.051   0.736   5.567  0.2713 -0.3516 -0.1412
  200POPC   NC3 2702   4.817   9.320   3.977 -0.0732  0.0768  0.2966
  200POPC   PO4 2703   5.023   9.710   3.749  0.2406  0.0764  0.1289
  200POPC   GL1 2704   5.313   9.612   4.066 -0.0674  0.1793 -0.0346
  200POPC   GL2 2705   5.363   9.930   4.321 -0.3388  0.2098  0.1263
  200POPC   C1A 2706   5.532   9.373   4.373 -0.0673 -0.4965 -0.1615
  200POPC   D2A 2707   5.605   9.257   4.816  0.3386  0.3003  0.1014
  200POPC   C3A 2708   5.453   9.553   5.164  0.3571  0.0079  0.1215
  200POPC   C4A 2709   5.293   9.479   5.600  0.4685  0.1144 -0.0845
  200POPC   C1B 2710   5.252   9.691   4.686  0.3051  0.0778  0.1631
  200POPC   C2B 2711   4.915   9.502   4.949  0.0593  0.3486  0.3669
  200POPC   C3B 2712   5.023   9.284   5.244 -0.0044 -0.0652 -0.1326
  200POPC   C4B 2713   4.927   9.169   5.685  0.1876  0.1257 -0.1118
  201POPC   NC3 2714   5.249   8.481   3.953 -0.0512  0.1933 -0.0298
  201POPC   PO4 2715   5.358   8.152   3.638 -0.1700 -0.0927 -0.3396
  201POPC   GL1 2716   5.506   7.932   3.910 -0.0514 -0.0892  0.1448
  201POPC   GL2 2717   5.836   8.043   4.065  0.1390 -0.0766 -0.0344
  201POPC   C1A 2718   5.512   7.924   4.392 -0.0926 -0.3364 -0.0755
  201POPC   D2A 2719   5.325   7.838   4.852 -0.0872  0.2012 -0.2032
  201POPC   C3A 2720   5.035   7.626   5.116 -0.0268 -0.0966 -0.1983
  201POPC   C4A 2721   4.669   7.790   5.236 -0.0050 -0.1915  0.0066
  201POPC   C1B 2722   6.035   7.957   4.552 -0.0004  0.1390 -0.4444
  201POPC   C2B 2723   5.923   7.938   4.960  0.0758 -0.0342 -0.0215
  201POPC   C3B 2724   5.915   7.484   5.057 -0.0264  0.1103 -0.0287
  201POPC   C4B 2725   5.865   7.096   5.140  0.0122  0.0399  0.1183
  202POPC   NC3 2726   6.764  10.081   3.203  0.2137 -0.0666 -0.2055
  202POPC   PO4 2727   6.591  10.119   3.583 -0.0304 -0.2646 -0.1757
  202POPC   GL1 2728   6.604  10.175   4.011  0.1235 -0.2185 -0.0453
  202POPC   GL2 2729   6.204  10.171   4.173 -0.1624 -0.3366 -0.0595
  202POPC   C1A 2730   6.669  10.314   4.438  0.0719 -0.1510  0.3109
  202POPC   D2A 2731   6.569  10.517   4.816  0.0572 -0.1237  0.0294
  202POPC   C3A 2732   6.215  10.723   5.118 -0.1081  0.0482  0.4216
  202POPC   C4A 2733   5.763  10.601   5.276 -0.2979  0.0759  0.1238
  202POPC   C1B 2734   5.796  10.141   4.402 -0.0132 -0.1235  0.2599
  202POPC   C2B 2735   5.495  10.164   4.743 -0.1823  0.2302  0.1473
  202POPC   C3B 2736   5.515  10.105   5.239  0.1161 -0.0843  0.0585
  202POPC   C4B 2737   5.496   9.930   5.640 -0.2102 -0.0640 -0.0178
  203POPC   NC3 2738   2.392   1.274   3.292  0.1711 -0.1994 -0.2395
  203POPC   PO4 2739   2.848   1.341   3.519  0.2035  0.0101  0.0286
  203POPC   GL1 2740   2.820   1.213   3.942 -0.4698 -0.3241  0.3289
  203POPC   GL2 2741   3.116   1.185   4.088  0.4106  0.0041 -0.0625
  203POPC   C1A 2742   2.653   1.375   4.286  0.0090 -0.0785 -0.1874
  203POPC   D2A 2743   2.556   1.527   4.651  0.2939  0.0155 -0.1377
  203POPC   C3A 2744   2.567   1.430   5.110  0.2551  0.0632  0.0595
  203POPC   C4A 2745   2.236   0.976   5.235  0.0844 -0.2001  0.1412
  203POPC   C1B 2746   3.002   1.084   4.479 -0.3144 -0.1365 -0.1892
  203POPC   C2B 2747   2.715   0.992   4.940 -0.3075  0.1042  0.3302
  203POPC   C3B 2748   2.484   0.668   5.006  0.1040 -0.0857  0.0478
  203POPC   C4B 2749   2.306   0.248   5.257  0.0188 -0.2196  0.0565
  204POPC   NC3 2750  10.811   7.251   3.487 -0.0200 -0.0419 -0.1074
  204POPC   PO4 2751  10.883   6.805   3.523 -0.2910 -0.1686  0.2402
  204POPC   GL1 2752  10.989   6.390   3.644 -0.2817  0.1163  0.3604
  204POPC   GL2 2753  10.938   6.412   4.024  0.2662 -0.1528  0.1068
  204POPC   C1A 2754  10.808   6.043   3.687 -0.0375  0.1805 -0.0288
  204POPC   D2A 2755  10.801   5.929   4.089 -0.1781  0.0198 -0.0420
  204POPC   C3A 2756  10.740   5.571   4.317  0.0436  0.2924  0.1380
  204POPC   C4A 2757  10.557   5.142   4.570 -0.1196 -0.0899  0.3779
  204POPC   C1B 2758  10.945   6.308   4.446  0.1194  0.3491 -0.0266
  204POPC   C2B 2759  11.068   6.446   4.864 -0.0140  0.3178  0.0643
  204POPC   C3B 2760  10.757   6.650   5.218 -0.2722 -0.1494 -0.1297
  204POPC   C4B 2761  10.361   6.491   5.424 -0.1509 -0.2973 -0.1375
  205POPC   NC3 2762   4.791   0.245   3.387 -0.0192 -0.1943  0.1108
  205POPC   PO4 2763   4.940   0.127   3.812  0.0715  0.0253  0.1258
  205POPC   GL1 2764   5.009   0.095   4.251 -0.0042  0.0630 -0.3285
  205POPC   GL2 2765   4.822   0.284   4.389  0.1741  0.1437  0.0247
  205POPC   C1A 2766   5.175   0.009   4.619 -0.3505  0.1370  0.1162
  205POPC   D2A 2767   5.364  -0.253   4.895 -0.0058 -0.3576  0.0744
  205POPC   C3A 2768   5.737  -0.252   4.759 -0.0012 -0.0852 -0.0250
  205POPC   C4A 2769   6.095  -0.369   4.528  0.0658  0.0027 -0.3130
  205POPC   C1B 2770   4.744   0.124   4.739  0.1604 -0.1884 -0.0930
  205POPC   C2B 2771   4.989   0.127   5.115  0.1532 -0.0496  0.0804
  205POPC   C3B 2772   4.983   0.251   5.442  0.1096 -0.0597 -0.1376
  205POPC   C4B 2773   5.054   0.756   5.521  0.0336 -0.0190 -0.0941
  206POPC   NC3 2774   5.847   8.411   3.652  0.0867  0.1518  0.1807
  206POPC   PO4 2775   5.499   8.783   3.668 -0.1872 -0.2012 -0.0005
  206POPC   GL1 2776   5.643   9.041   4.011 -0.2829  0.3103  0.2171
  206POPC   GL2 2777   5.803   9.413   4.026 -0.0412 -0.2077 -0.1132
  206POPC   C1A 2778   5.903   9.002   4.378 -0.0305 -0.0420  0.0531
  206POPC   D2A 2779   6.211   9.284   4.507  0.2394  0.1443  0.0890
  206POPC   C3A 2780   6.109   9.428   4.828 -0.0083 -0.0696  0.0881
  206POPC   C4A 2781   5.977   9.202   5.149  0.0848 -0.3699  0.0057
  206POPC   C1B 2782   5.917   9.670   4.356  0.2275 -0.0742  0.1439
  206POPC   C2B 2783   5.740   9.736   4.730  0.0831 -0.2864  0.0074
  206POPC   C3B 2784   5.953   9.737   5.198 -0.0427  0.1871 -0.0666
  206POPC   C4B 2785   5.784   9.542   5.538  0.0582  0.2953  0.0223
  207POPC   NC3 2786   5.322   5.658   3.515 -0.2161  0.2438  0.3791
  207POPC   PO4 2787   5.062   5.690   3.723  0.2252 -0.2483 -0.1757
  207POPC   GL1 2788   5.052   5.477   4.102  0.3493 -0.3323 -0.0621
  207POPC   GL2 2789   5.160   5.245   4.034  0.1093  0.1683 -0.0072
  207POPC   C1A 2790   5.133   5.735   4.546 -0.1392  0.0379 -0.3280
  207POPC   D2A 2791   5.082   5.775   5.015  0.1592 -0.0473 -0.2180
  207POPC   C3A 2792   4.719   5.705   5.233 -0.2899 -0.1305 -0.2845
  207POPC   C4A 2793   4.527   5.390   5.123  0.1515 -0.2915  0.1984
  207POPC   C1B 2794   4.925   5.029   4.291  0.2010 -0.2343 -0.0903
  207POPC   C2B 2795   4.804   4.861   4.693 -0.0876  0.0085 -0.1701
  207POPC   C3B 2796   4.831   4.977   5.078 -0.0898  0.1639 -0.1440
  207POPC   C4B 2797   5.055   5.286   5.351  0.2506  0.0453 -0.0410
  208POPC   NC3 2798   3.618   1.838   3.583 -0.2112  0.3553  0.4024
  208POPC   PO4 2799   4.041   1.727   3.658 -0.1109  0.1993 -0.2601
  208POPC   GL1 2800   3.694   1.793   4.053 -0.1486  0.1194  0.0510
  208POPC   GL2 2801   3.321   1.801   4.092 -0.1713 -0.2800 -0.2432
  208POPC   C1A 2802   3.769   1.868   4.550  0.2389  0.0517  0.0201
  208POPC   D2A 2803   4.016   2.120   4.649  0.3294  0.0348  0.1772
  208POPC   C3A 2804   4.312   2.237   4.979 -0.0389 -0.3219 -0.1822
  208POPC   C4A 2805   4.546   2.404   5.386  0.1421  0.0711 -0.0663
  208POPC   C1B 2806   3.312   2.084   4.553  0.1006  0.2195 -0.1095
  208POPC   C2B 2807   3.457   2.176   5.039 -0.2636  0.0692  0.2765
  208POPC   C3B 2808   3.412   2.243   5.526  0.2849  0.0809 -0.3339
  208POPC   C4B 2809   3.460   2.008   5.894  0.1386  0.0677  0.1777
  209POPC   NC3 2810   4.740   0.523   3.995 -0.1080  0.0707 -0.0418
  209POPC   PO4 2811   4.432   0.250   3.762 -0.0690 -0.0171 -0.3277
  209POPC   GL1 2812   4.418  -0.013   4.119 -0.0526  0.0294 -0.0749
  209POPC   GL2 2813   4.626  -0.238   4.067 -0.0149 -0.0194  0.2429
  209POPC   C1A 2814   4.292  -0.008   4.635 -0.0648  0.1929 -0.1755
  209POPC   D2A 2815   4.347   0.127   5.079 -0.0626 -0.5387  0.0908
  209POPC   C3A 2816   4.524   0.087   5.400 -0.0324  0.1461  0.2447
  209POPC   C4A 2817   4.803  -0.304   5.557 -0.0382 -0.0775 -0.0784
  209POPC   C1B 2818   4.759  -0.270   4.462 -0.0686 -0.0603  0.0136
  209POPC   C2B 2819   4.842  -0.344   4.919  0.0388 -0.0993  0.0951
  209POPC   C3B 2820   5.019  -0.569   5.113  0.0427  0.2672 -0.1247
  209POPC   C4B 2821   4.980  -1.041   5.255 -0.1002 -0.2232  0.0118
  210POPC   NC3 2822   6.555   1.576   3.363 -0.1052  0.1217 -0.0622
  210POPC   PO4 2823   6.478   2.002   3.525  0.0374 -0.0842  0.0443
  210POPC   GL1 2824   6.412   1.864   3.970  0.1796  0.1903  0.1691
  210POPC   GL2 2825   6.362   2.122   4.045 -0.0165 -0.0262  0.1332
  210POPC   C1A 2826   6.379   1.628   4.415  0.0400 -0.2070  0.0435
  210POPC   D2A 2827   6.219   1.222   4.593  0.2758 -0.1614 -0.0947
  210POPC   C3A 2828   6.043   1.060   4.967 -0.0607  0.2840 -0.1289
  210POPC   C4A 2829   6.019   0.836   5.239 -0.1120  0.1688 -0.1069
  210POPC   C1B 2830   6.516   2.149   4.492 -0.0446 -0.1843  0.0588
  210POPC   C2B 2831   6.327   2.344   4.833  0.0482 -0.0387 -0.3140
  210POPC   C3B 2832   6.326   2.587   5.200  0.2599  0.1126  0.0037
  210POPC   C4B 2833   6.695   2.631   5.363  0.0773  0.2764 -0.3545
  211POPC   NC3 2834   2.682   2.704   3.370 -0.2468  0.0609 -0.0377
  211POPC   PO4 2835   2.934   2.568   3.615  0.2229 -0.0466 -0.1506
  211POPC   GL1 2836   2.917   2.595   4.032 -0.0997  0.1565  0.0142
  211POPC   GL2 2837   3.275   2.575   4.188  0.1295  0.2074 -0.1265
  211POPC   C1A 2838   2.975   2.438   4.509  0.1638 -0.0793  0.3187
  211POPC   D2A 2839   2.896   2.452   4.961 -0.2063  0.3111  0.0652
  211POPC   C3A 2840   3.016   2.145   5.331  0.0394  0.5112 -0.0850
  211POPC   C4A 2841   3.258   1.732   5.499 -0.1754  0.1312 -0.0787
  211POPC   C1B 2842   3.580   2.568   4.588  0.1127 -0.2074  0.3159
  211POPC   C2B 2843   3.846   2.491   4.957 -0.2443  0.3701 -0.1751
  211POPC   C3B 2844   4.003   2.503   5.361  0.3016 -0.0112 -0.2484
  211POPC   C4B 2845   3.827   2.564   5.788  0.0505  0.3119  0.1099
  212POPC   NC3 2846   1.813   5.140   3.510  0.2716 -0.2571  0.0000
  212POPC   PO4 2847   2.161   4.866   3.669  0.2017 -0.1070  0.1469
  212POPC   GL1 2848   1.886   4.741   4.033  0.1619 -0.2757 -0.3048
  212POPC   GL2 2849   1.720   4.462   4.056  0.0206  0.3665 -0.0755
  212POPC   C1A 2850   1.953   4.607   4.475  0.0924  0.1866 -0.1531
  212POPC   D2A 2851   2.140   4.611   4.904  0.0797 -0.1767  0.0132
  212POPC   C3A 2852   1.791   4.487   5.239  0.2920  0.0029 -0.2639
  212POPC   C4A 2853   1.412   4.630   5.561  0.0589 -0.2598  0.1980
  212POPC   C1B 2854   1.370   4.272   4.297 -0.0922 -0.1347  0.1679
  212POPC   C2B 2855   1.203   4.061   4.710 -0.1815  0.0189 -0.0017
  212POPC   C3B 2856   0.955   3.926   5.093 -0.1367  0.0295 -0.0128
  212POPC   C4B 2857   1.209   3.654   5.380 -0.2375  0.0182 -0.1348
  213POPC   NC3 2858   4.125  10.745   3.771 -0.0920  0.0605 -0.0439
  213POPC   PO4 2859   3.894  11.153   3.911 -0.1477 -0.3591 -0.0547
  213POPC   GL1 2860   3.867  11.088   4.317  0.0875 -0.3742 -0.1002
  213POPC   GL2 2861   3.801  11.395   4.371 -0.1340  0.1000 -0.1503
  213POPC   C1A 2862   3.853  11.043   4.805 -0.0666 -0.0750  0.1100
  213POPC   D2A 2863   3.545  11.213   5.087  0.1943  0.0362 -0.1250
  213POPC   C3A 2864   3.336  11.199   5.549 -0.3266 -0.0015  0.1013
  213POPC   C4A 2865   3.011  11.240   5.731 -0.1140  0.0381 -0.0136
  213POPC   C1B 2866   3.416  11.185   4.571  0.2078 -0.0295 -0.0073
  213POPC   C2B 2867   3.063  11.062   5.002 -0.1215  0.3300  0.0536
  213POPC   C3B 2868   2.760  10.909   5.290  0.2191 -0.1323  0.0369
  213POPC   C4B 2869   2.866  10.731   5.690 -0.1071 -0.1158  0.1543
  214POPC   NC3 2870   2.328   6.405   3.860 -0.0175 -0.1087  0.0583
  214POPC   PO4 2871   2.155   6.810   3.795 -0.0600  0.1221  0.0070
  214POPC   GL1 2872   2.382   6.936   4.128  0.1264  0.1605 -0.4330
  214POPC   GL2 2873   2.449   7.154   4.235  0.0774  0.2758 -0.0132
  214POPC   C1A 2874   2.385   7.034   4.663 -0.0266 -0.0145  0.1918
  214POPC   D2A 2875   2.117   7.063   5.084 -0.0058 -0.1883 -0.0223
  214POPC   C3A 2876   1.969   7.143   5.487 -0.0846  0.3060 -0.2137
  214POPC   C4A 2877   1.936   7.376   5.914 -0.0272  0.0383  0.1527
  214POPC   C1B 2878   2.369   7.484   4.593  0.1024  0.2563  0.0906
  214POPC   C2B 2879   2.020   7.587   4.861  0.0650  0.1000  0.1978
  214POPC   C3B 2880   1.719   7.471   5.146  0.0047 -0.3412  0.1907
  214POPC   C4B 2881   1.545   7.071   5.170 -0.1051 -0.0779 -0.0314
  215POPC   NC3 2882   4.526   2.448   3.493 -0.2186  0.2768 -0.1411
  215POPC   PO4 2883   4.809   2.474   3.893  0.0760  0.1230  0.3911
  215POPC   GL1 2884   5.065   2.738   4.198  0.0079 -0.0411  0.2225
  215POPC   GL2 2885   5.069   3.027   4.043 -0.3935  0.0539 -0.3655
  215POPC   C1A 2886   5.256   2.762   4.611  0.0085 -0.0591 -0.0471
  215POPC   D2A 2887   5.308   2.574   4.990  0.0642 -0.0620 -0.1309
  215POPC   C3A 2888   5.046   2.646   5.371 -0.1276 -0.2339  0.0894
  215POPC   C4A 2889   4.915   2.438   5.771 -0.0599  0.0119  0.2192
  215POPC   C1B 2890   4.696   3.195   4.377 -0.0087 -0.0479 -0.0010
  215POPC   C2B 2891   4.615   3.563   4.649  0.0858 -0.0031 -0.2733
  215POPC   C3B 2892   4.482   3.640   5.067 -0.2737 -0.2055 -0.2221
  215POPC   C4B 2893   4.370   3.634   5.556  0.0235  0.0923 -0.0065
  216POPC   NC3 2894  10.238   7.036   2.878  0.2526 -0.1634  0.0959
  216POPC   PO4 2895  10.327   7.402   3.197  0.3091 -0.2175  0.1842
  216POPC   GL1 2896  10.262   7.424   3.719  0.3535  0.1301 -0.0156
  216POPC   GL2 2897  10.556   7.698   3.676 -0.1299  0.1949  0.2418
  216POPC   C1A 2898  10.578   7.337   4.065  0.0039  0.1054  0.2751
  216POPC   D2A 2899  10.501   7.405   4.435 -0.1142  0.0026  0.2171
  216POPC   C3A 2900  10.804   7.312   4.654 -0.5159  0.0411 -0.2261
  216POPC   C4A 2901  10.854   7.121   5.031 -0.0462 -0.1632 -0.0831
  216POPC   C1B 2902  10.368   7.806   4.097  0.2917 -0.1429  0.0539
  216POPC   C2B 2903  10.486   7.919   4.489  0.3575 -0.2540 -0.3071
  216POPC   C3B 2904  10.345   7.719   4.867  0.2176  0.1672  0.2689
  216POPC   C4B 2905  10.370   7.266   5.014  0.2376  0.0733  0.0376
  217POPC   NC3 2906   0.369  10.321   3.808  0.1676 -0.0564 -0.2648
  217POPC   PO4 2907   0.040  10.373   4.021  0.0384 -0.0078  0.3289
  217POPC   GL1 2908  -0.126  10.394   4.383  0.2284  0.1102  0.0805
  217POPC   GL2 2909  -0.454  10.388   4.173  0.1548 -0.2083  0.0371
  217POPC   C1A 2910  -0.092  10.471   4.813  0.0453 -0.2650  0.2185
  217POPC   D2A 2911  -0.440  10.686   5.050 -0.1381 -0.1562 -0.0739
  217POPC   C3A 2912  -0.601  10.974   5.449  0.1234  0.2020  0.1459
  217POPC   C4A 2913  -0.752  11.099   5.799  0.0219  0.1144  0.2259
  217POPC   C1B 2914  -0.485  10.747   4.505 -0.0999 -0.2101  0.1741
  217POPC   C2B 2915  -0.552  11.090   4.634 -0.1959 -0.0203 -0.0812
  217POPC   C3B 2916  -0.475  11.309   5.037  0.1791  0.3177 -0.2539
  217POPC   C4B 2917  -0.455  11.535   5.453 -0.0304 -0.0467 -0.0898
  218POPC   NC3 2918   4.110   9.861   3.364  0.2051  0.4850  0.0972
  218POPC   PO4 2919   3.892   9.493   3.381  0.1329  0.1225 -0.0391
  218POPC   GL1 2920   3.786   9.630   3.723  0.3412  0.3292  0.0897
  218POPC   GL2 2921   3.809   9.969   3.811  0.3108  0.1227  0.2631
  218POPC   C1A 2922   3.622   9.431   4.153  0.0044 -0.2139 -0.1313
  218POPC   D2A 2923   3.647   9.049   4.485  0.2512  0.2736 -0.0990
  218POPC   C3A 2924   4.032   8.853   4.571 -0.1859  0.0861  0.0719
  218POPC   C4A 2925   4.226   8.501   4.427 -0.0826  0.0672  0.1084
  218POPC   C1B 2926   4.034   9.725   4.110 -0.0316  0.1611 -0.1411
  218POPC   C2B 2927   4.241   9.812   4.594 -0.0973  0.0754  0.1636
  218POPC   C3B 2928   4.477   9.894   4.953  0.2689 -0.0114 -0.0861
  218POPC   C4B 2929   4.596  10.159   5.338 -0.0975 -0.1536 -0.2297
  219POPC   NC3 2930   9.968   7.704   3.425  0.1475 -0.0329 -0.1208
  219POPC   PO4 2931  10.121   8.140   3.492 -0.1912 -0.0646  0.1238
  219POPC   GL1 2932  10.048   8.099   3.838 -0.1589 -0.1454 -0.1180
  219POPC   GL2 2933   9.908   7.827   3.898  0.2190 -0.0539 -0.0107
  219POPC   C1A 2934  10.056   8.202   4.275 -0.0070 -0.0306  0.2097
  219POPC   D2A 2935   9.887   8.585   4.491  0.1156 -0.3105  0.0934
  219POPC   C3A 2936   9.737   8.722   4.880 -0.3924  0.1161  0.1974
  219POPC   C4A 2937   9.716   8.777   5.373  0.1203  0.1691 -0.2568
  219POPC   C1B 2938   9.982   7.725   4.379 -0.0933  0.0115 -0.0998
  219POPC   C2B 2939   9.720   7.631   4.832 -0.0575 -0.1713 -0.0770
  219POPC   C3B 2940   9.780   7.382   5.205  0.0488 -0.2191 -0.0438
  219POPC   C4B 2941   9.963   7.412   5.629 -0.0706 -0.0523 -0.0740
  220POPC   NC3 2942   7.263   4.548   3.873 -0.0366 -0.3429 -0.4268
  220POPC   PO4 2943   7.754   4.676   3.911  0.0599  0.1250 -0.1484
  220POPC   GL1 2944   7.687   4.263   4.138 -0.1040 -0.0678  0.1486
  220POPC   GL2 2945   7.422   4.058   4.122 -0.0707 -0.2283  0.0944
  220POPC   C1A 2946   7.722   3.984   4.493 -0.2021 -0.3788  0.1275
  220POPC   D2A 2947   7.823   3.857   4.928  0.1312 -0.3104 -0.2618
  220POPC   C3A 2948   7.556   3.793   5.396  0.1308 -0.2649  0.0778
  220POPC   C4A 2949   7.243   3.670   5.737 -0.1428 -0.1477  0.0251
  220POPC   C1B 2950   7.216   3.860   4.427  0.0308 -0.2264 -0.2239
  220POPC   C2B 2951   7.325   3.973   4.794  0.0302 -0.0021 -0.0830
  220POPC   C3B 2952   7.084   3.773   5.099  0.3366  0.0281  0.2231
  220POPC   C4B 2953   6.950   3.427   5.421  0.4336  0.0428  0.0006
  221POPC   NC3 2954   0.847  10.374   3.513 -0.0205 -0.0372  0.2706
  221POPC   PO4 2955   1.224  10.264   3.683 -0.0777  0.2338 -0.0764
  221POPC   GL1 2956   1.333  10.230   4.114  0.0054  0.0742 -0.0863
  221POPC   GL2 2957   1.155   9.950   4.305 -0.0210  0.1395 -0.4735
  221POPC   C1A 2958   1.356  10.333   4.546  0.1994  0.0526  0.1699
  221POPC   D2A 2959   1.150  10.017   4.896 -0.2368  0.1504  0.0261
  221POPC   C3A 2960   0.622  10.034   4.784  0.1315  0.1075  0.0279
  221POPC   C4A 2961   0.281  10.021   4.490  0.2725  0.0282 -0.3461
  221POPC   C1B 2962   0.891   9.679   4.608  0.1044  0.2136  0.0376
  221POPC   C2B 2963   1.098   9.462   4.934 -0.1933  0.4042 -0.1590
  221POPC   C3B 2964   1.318   9.202   5.158 -0.0029  0.2649  0.1919
  221POPC   C4B 2965   1.472   8.783   4.935 -0.0428  0.0877  0.2364
  222POPC   NC3 2966   3.747   6.335   3.719 -0.1182  0.2660  0.0537
  222POPC   PO4 2967   4.138   6.333   3.982 -0.0761  0.4592 -0.1232
  222POPC   GL1 2968   3.980   6.412   4.421 -0.0636  0.1424 -0.0786
  222POPC   GL2 2969   3.997   6.647   4.445  0.2100 -0.0734  0.2245
  222POPC   C1A 2970   4.005   6.212   4.797 -0.5530  0.2213  0.3976
  222POPC   D2A 2971   3.916   6.170   5.228  0.0530  0.5599  0.2688
  222POPC   C3A 2972   3.926   6.036   5.637  0.0083 -0.0884 -0.2414
  222POPC   C4A 2973   3.748   5.840   5.907 -0.3443 -0.0533  0.1596
  222POPC   C1B 2974   3.850   6.719   4.824  0.4114  0.2468  0.2479
  222POPC   C2B 2975   3.762   6.676   5.264 -0.1651 -0.3065 -0.2098
  222POPC   C3B 2976   3.596   6.412   5.658  0.3274 -0.2684 -0.0335
  222POPC   C4B 2977   3.310   6.144   5.677  0.0848  0.3056 -0.5898
  223POPC   NC3 2978   5.720   2.395   3.652 -0.0696  0.3250  0.0471
  223POPC   PO4 2979   5.909   2.336   3.925 -0.1710 -0.2484 -0.0924
  223POPC   GL1 2980   5.963   2.293   4.440 -0.3534 -0.0651  0.0332
  223POPC   GL2 2981   6.012   2.005   4.566  0.0430 -0.0958 -0.0169
  223POPC   C1A 2982   5.744   2.422   4.803 -0.3733 -0.2621  0.2144
  223POPC   D2A 2983   5.768   2.641   5.287  0.2967  0.0085  0.0574
  223POPC   C3A 2984   5.959   2.784   5.615  0.0501  0.3098  0.1292
  223POPC   C4A 2985   5.821   2.878   5.922  0.1535  0.3122 -0.0252
  223POPC   C1B 2986   5.968   2.122   5.073 -0.1182  0.0183  0.0069
  223POPC   C2B 2987   5.921   2.153   5.436  0.1649  0.0286 -0.2204
  223POPC   C3B 2988   5.685   1.921   5.716 -0.0373 -0.0588 -0.2328
  223POPC   C4B 2989   5.299   1.892   5.855 -0.0779 -0.0339 -0.1628
  224POPC   NC3 2990   8.848   6.423   3.089  0.0311 -0.2781 -0.1087
  224POPC   PO4 2991   8.974   6.732   3.464 -0.1409 -0.1559  0.3163
  224POPC   GL1 2992   9.273   6.592   3.733  0.1203 -0.1043  0.2177
  224POPC   GL2 2993   9.593   6.596   3.668  0.0994 -0.1272  0.1035
  224POPC   C1A 2994   9.400   6.542   4.196 -0.1289 -0.0727 -0.1703
  224POPC   D2A 2995   9.357   6.264   4.578  0.1086  0.0304  0.0972
  224POPC   C3A 2996   9.711   6.428   4.837  0.1112 -0.1838  0.1368
  224POPC   C4A 2997   9.852   6.565   5.227  0.2014  0.0127  0.0546
  224POPC   C1B 2998   9.949   6.789   3.752  0.0127 -0.0507 -0.1432
  224POPC   C2B 2999  10.332   6.903   3.954 -0.0262 -0.3583  0.0742
  224POPC   C3B 3000  10.749   6.844   4.101 -0.2580 -0.2790 -0.1548
  224POPC   C4B 3001  11.056   7.148   4.138 -0.0242 -0.2334  0.1177
  225POPC   NC3 3002   9.182   5.684   3.605  0.4180 -0.0251  0.1537
  225POPC   PO4 3003   9.260   5.281   3.739  0.0401  0.1081  0.2317
  225POPC   GL1 3004   9.592   5.183   4.008  0.0345 -0.1035  0.0078
  225POPC   GL2 3005   9.924   5.140   4.032  0.1198  0.1183  0.1721
  225POPC   C1A 3006   9.589   4.991   4.390 -0.0638  0.0316  0.2696
  225POPC   D2A 3007   9.510   4.721   4.738 -0.0210  0.5517 -0.0588
  225POPC   C3A 3008   9.775   4.759   5.097 -0.3450 -0.4450  0.2236
  225POPC   C4A 3009   9.822   4.679   5.492  0.3073  0.0764 -0.0062
  225POPC   C1B 3010  10.060   4.738   4.292 -0.2302 -0.1530  0.0076
  225POPC   C2B 3011  10.036   4.407   4.709  0.4412  0.0017 -0.3984
  225POPC   C3B 3012   9.937   4.141   5.070 -0.1947  0.1836 -0.4777
  225POPC   C4B 3013   9.647   3.800   5.193  0.0937 -0.1209  0.0580
  226POPC   NC3 3014   1.728   4.313   3.592  0.2311  0.1188 -0.1333
  226POPC   PO4 3015   1.503   4.690   3.585 -0.3059  0.2646  0.0398
  226POPC   GL1 3016   1.380   4.876   4.044  0.1128 -0.1368 -0.1349
  226POPC   GL2 3017   1.599   5.135   3.984 -0.2535  0.1620  0.2020
  226POPC   C1A 3018   1.297   4.775   4.447 -0.0380  0.0203  0.0807
  226POPC   D2A 3019   1.361   5.187   4.721  0.3205  0.0689 -0.1138
  226POPC   C3A 3020   1.088   5.117   5.097 -0.1763  0.3138 -0.1208
  226POPC   C4A 3021   1.146   5.073   5.552  0.0147 -0.0039 -0.1685
  226POPC   C1B 3022   1.350   5.361   4.270 -0.0069 -0.2948 -0.1194
  226POPC   C2B 3023   1.581   5.645   4.575  0.0236  0.0121  0.1100
  226POPC   C3B 3024   1.779   5.568   4.873 -0.2120  0.2266 -0.0103
  226POPC   C4B 3025   1.992   5.603   5.242  0.0931  0.0039 -0.1416
  227POPC   NC3 3026   5.354   7.455   3.894  0.1007  0.1128  0.1382
  227POPC   PO4 3027   5.819   7.492   3.854  0.2244  0.1533  0.1372
  227POPC   GL1 3028   5.869   7.514   4.306 -0.2503  0.1303  0.0634
  227POPC   GL2 3029   6.100   7.348   4.289 -0.1331  0.1977  0.0778
  227POPC   C1A 3030   5.686   7.445   4.594 -0.0097 -0.2656 -0.0439
  227POPC   D2A 3031   5.410   7.313   4.918 -0.0187  0.0762 -0.1210
  227POPC   C3A 3032   5.435   7.412   5.269 -0.0141 -0.2092  0.0037
  227POPC   C4A 3033   5.655   7.781   5.393  0.2003  0.2738  0.0816
  227POPC   C1B 3034   6.081   7.047   4.660 -0.1214  0.1256  0.0940
  227POPC   C2B 3035   6.091   6.575   4.584  0.1702  0.0131  0.1832
  227POPC   C3B 3036   6.029   6.159   4.801 -0.1180  0.1211 -0.1095
  227POPC   C4B 3037   6.308   5.852   4.664  0.4767 -0.2245 -0.1081
  228POPC   NC3 3038   0.355   8.249   3.034  0.1795  0.0356 -0.1155
  228POPC   PO4 3039   0.493   8.116   3.436  0.4428 -0.4025  0.0399
  228POPC   GL1 3040   0.374   8.092   3.897 -0.2820 -0.0575  0.0917
  228POPC   GL2 3041   0.175   8.399   3.907 -0.0184 -0.1438 -0.2367
  228POPC   C1A 3042   0.417   8.173   4.341 -0.1724  0.0853  0.1308
  228POPC   D2A 3043   0.655   8.361   4.719  0.0341  0.1147 -0.2427
  228POPC   C3A 3044   0.658   8.648   5.025  0.0210  0.0275 -0.0195
  228POPC   C4A 3045   0.769   9.020   5.137  0.2563 -0.0064 -0.0849
  228POPC   C1B 3046  -0.073   8.757   4.128 -0.2363  0.2404 -0.3691
  228POPC   C2B 3047  -0.067   8.999   4.459 -0.1623  0.0618 -0.0188
  228POPC   C3B 3048  -0.256   8.934   4.824 -0.0571 -0.1787  0.0421
  228POPC   C4B 3049  -0.705   8.807   5.051 -0.2571 -0.2565  0.0476
  229POPC   NC3 3050   4.641   2.041   3.998  0.0278 -0.0483  0.3927
  229POPC   PO4 3051   4.980   1.813   3.996 -0.3287 -0.2862  0.2848
  229POPC   GL1 3052   4.902   1.571   4.376  0.1937  0.0369  0.1254
  229POPC   GL2 3053   4.555   1.741   4.430  0.0418 -0.1103 -0.1363
  229POPC   C1A 3054   4.706   1.386   4.760  0.3052  0.0807 -0.2102
  229POPC   D2A 3055   4.477   1.093   4.993  0.1500  0.1743 -0.1830
  229POPC   C3A 3056   3.981   1.138   5.123  0.1186 -0.2358 -0.1036
  229POPC   C4A 3057   3.646   1.319   5.418  0.1927  0.1857  0.0920
  229POPC   C1B 3058   4.380   1.779   4.864 -0.0899  0.0534 -0.0222
  229POPC   C2B 3059   3.995   1.796   5.101 -0.0953  0.0628 -0.1050
  229POPC   C3B 3060   3.600   1.732   5.131 -0.3428 -0.1232 -0.1469
  229POPC   C4B 3061   3.150   1.758   5.039  0.0030 -0.3138 -0.0240
  230POPC   NC3 3062   4.638   8.708   3.572 -0.0586 -0.1668  0.0561
  230POPC   PO4 3063   4.898   8.852   3.799 -0.1971 -0.0723  0.0670
  230POPC   GL1 3064   5.205   8.936   4.211  0.0107 -0.0900 -0.0817
  230POPC   GL2 3065   5.049   9.231   4.386 -0.1554 -0.0749  0.0638
  230POPC   C1A 3066   5.407   8.733   4.585  0.0034  0.1543  0.3613
  230POPC   D2A 3067   5.771   8.782   4.829  0.0004 -0.0017 -0.1256
  230POPC   C3A 3068   5.858   8.667   5.317  0.0544  0.0923 -0.1233
  230POPC   C4A 3069   5.659   8.660   5.797 -0.3014  0.1397  0.0946
  230POPC   C1B 3070   4.919   8.941   4.710  0.1634  0.0358  0.0819
  230POPC   C2B 3071   4.762   8.765   5.119 -0.1072  0.2597 -0.2441
  230POPC   C3B 3072   4.684   8.404   5.241  0.0544 -0.1577  0.3453
  230POPC   C4B 3073   5.045   8.121   5.253 -0.0825  0.5081  0.3267
  231POPC   NC3 3074   3.174   0.959   3.586  0.0036  0.2248  0.0193
  231POPC   PO4 3075   2.906   0.642   3.522 -0.1089  0.1100  0.1399
  231POPC   GL1 3076   3.003   0.623   4.021  0.1215  0.1436  0.0035
  231POPC   GL2 3077   2.704   0.778   4.160  0.1923 -0.3689 -0.3045
  231POPC   C1A 3078   3.340   0.703   4.295 -0.1136  0.0493 -0.2468
  231POPC   D2A 3079   3.598   0.814   4.713 -0.3974 -0.1487  0.1386
  231POPC   C3A 3080   3.575   0.836   5.140 -0.1679 -0.2491  0.0677
  231POPC   C4A 3081   3.726   0.647   5.493 -0.0369 -0.1401  0.0023
  231POPC   C1B 3082   2.475   0.924   4.458  0.0939 -0.1594  0.0310
  231POPC   C2B 3083   2.191   1.119   4.693 -0.0657  0.1973 -0.2299
  231POPC   C3B 3084   2.011   1.380   5.035 -0.2060 -0.0639  0.0821
  231POPC   C4B 3085   1.711   1.585   5.055 -0.0933 -0.1536 -0.0931
  232POPC   NC3 3086   6.244   4.154   3.519  0.4213  0.2452 -0.3090
  232POPC   PO4 3087   5.848   4.377   3.407 -0.0453 -0.3451  0.0615
  232POPC   GL1 3088   5.656   4.394   3.851 -0.1434  0.2914  0.2320
  232POPC   GL2 3089   5.954   4.448   3.964  0.0479 -0.1334 -0.0442
  232POPC   C1A 3090   5.546   4.429   4.312  0.4070 -0.0201  0.0374
  232POPC   D2A 3091   5.336   4.716   4.420 -0.1814  0.1809  0.0058
  232POPC   C3A 3092   5.305   4.748   4.977 -0.2119  0.0320 -0.0495
  232POPC   C4A 3093   5.247   4.685   5.377  0.1728 -0.0685 -0.1995
  232POPC   C1B 3094   6.009   4.220   4.321 -0.0570 -0.2090 -0.0765
  232POPC   C2B 3095   5.800   4.299   4.687 -0.2163 -0.1281  0.1452
  232POPC   C3B 3096   5.835   4.221   5.126  0.1096  0.0590  0.0498
  232POPC   C4B 3097   5.691   4.197   5.502  0.5851 -0.1453  0.4059
  233POPC   NC3 3098  10.805   1.913   3.169  0.0807 -0.0720 -0.2689
  233POPC   PO4 3099  10.902   1.624   3.553 -0.2149  0.1252  0.1044
  233POPC   GL1 3100  10.987   1.864   3.973 -0.2076  0.0079  0.0176
  233POPC   GL2 3101  10.723   2.061   3.920 -0.0097 -0.1846 -0.1579
  233POPC   C1A 3102  10.900   1.743   4.330  0.1146 -0.3065 -0.0234
  233POPC   D2A 3103  10.866   1.663   4.734  0.1469  0.1943  0.1362
  233POPC   C3A 3104  11.232   1.466   4.927  0.0965 -0.0659  0.1219
  233POPC   C4A 3105  11.564   1.391   4.991  0.0227 -0.4153  0.2034
  233POPC   C1B 3106  10.380   1.896   4.181  0.0858 -0.0336 -0.2352
  233POPC   C2B 3107  10.314   2.159   4.607  0.1037  0.0888 -0.0012
  233POPC   C3B 3108  10.448   2.592   4.769  0.1482 -0.1533  0.0171
  233POPC   C4B 3109  10.781   2.729   4.899  0.1198  0.0086  0.1159
  234POPC   NC3 3110   3.718   1.317   2.927 -0.0327  0.0274 -0.2538
  234POPC   PO4 3111   3.674   1.341   3.374 -0.3124  0.1899 -0.2633
  234POPC   GL1 3112   3.752   1.284   3.872 -0.0551  0.0053 -0.3844
  234POPC   GL2 3113   4.000   1.380   4.123 -0.1860  0.1501 -0.1614
  234POPC   C1A 3114   3.494   1.413   4.343 -0.0114 -0.0521  0.1311
  234POPC   D2A 3115   3.172   1.615   4.560  0.0463 -0.1198 -0.0710
  234POPC   C3A 3116   2.882   1.884   4.333 -0.0166  0.1223  0.0890
  234POPC   C4A 3117   2.619   2.178   4.076 -0.3187  0.1047 -0.1901
  234POPC   C1B 3118   3.890   0.993   4.312 -0.0942  0.1583 -0.1475
  234POPC   C2B 3119   4.164   0.823   4.536  0.1023 -0.0535  0.2255
  234POPC   C3B 3120   4.186   0.641   4.949  0.3203  0.0084 -0.0355
  234POPC   C4B 3121   4.178   0.572   5.330  0.1234 -0.2652 -0.1962
  235POPC   NC3 3122   6.864   8.730   3.722  0.4456  0.0218  0.0982
  235POPC   PO4 3123   6.406   8.543   3.706  0.0441  0.3609  0.0128
  235POPC   GL1 3124   6.492   8.732   4.066  0.0283  0.3689  0.1285
  235POPC   GL2 3125   6.289   9.004   4.062 -0.2772  0.0410  0.2809
  235POPC   C1A 3126   6.347   8.737   4.509  0.0845 -0.1316  0.1228
  235POPC   D2A 3127   6.304   8.855   4.962  0.0608  0.1356  0.1261
  235POPC   C3A 3128   6.575   8.562   5.126 -0.1002  0.2904 -0.1574
  235POPC   C4A 3129   6.803   8.247   5.048  0.2969 -0.2201  0.1579
  235POPC   C1B 3130   6.649   9.152   4.314  0.0906 -0.0660 -0.1843
  235POPC   C2B 3131   6.673   9.120   4.767  0.1976 -0.0192 -0.2667
  235POPC   C3B 3132   6.679   9.155   5.097 -0.3207  0.1234  0.1443
  235POPC   C4B 3133   6.450   9.013   5.408 -0.0849  0.2604 -0.0163
  236POPC   NC3 3134   3.289   8.287   3.145  0.1258  0.1036 -0.1936
  236POPC   PO4 3135   3.103   8.368   3.555 -0.1512 -0.0269 -0.0489
  236POPC   GL1 3136   3.137   8.383   4.009  0.2427  0.0309  0.1170
  236POPC   GL2 3137   2.828   8.386   4.108  0.1554 -0.0719 -0.0679
  236POPC   C1A 3138   3.324   8.601   4.301  0.1103  0.3391 -0.0617
  236POPC   D2A 3139   3.299   8.746   4.755 -0.3846 -0.4746 -0.2627
  236POPC   C3A 3140   3.615   8.877   4.937 -0.0126 -0.2278  0.0226
  236POPC   C4A 3141   3.992   9.092   5.001 -0.0775  0.0491 -0.0282
  236POPC   C1B 3142   2.887   8.310   4.494  0.1068  0.0119  0.2321
  236POPC   C2B 3143   3.044   8.357   4.897 -0.0857  0.4375 -0.0301
  236POPC   C3B 3144   3.430   8.428   5.232  0.1153 -0.0675 -0.0466
  236POPC   C4B 3145   3.776   8.742   5.438 -0.0414 -0.0155  0.1701
  237POPC   NC3 3146   3.840  10.754   2.970  0.1918 -0.0762 -0.2666
  237POPC   PO4 3147   3.735  10.858   3.395  0.1561 -0.0286  0.0931
  237POPC   GL1 3148   3.705  10.716   3.970  0.2089 -0.0233  0.0821
  237POPC   GL2 3149   3.835  10.620   4.198 -0.0904 -0.2445 -0.1451
  237POPC   C1A 3150   3.334  10.645   4.210 -0.1864  0.1453 -0.0474
  237POPC   D2A 3151   3.129  10.792   4.566  0.0677  0.2053  0.0181
  237POPC   C3A 3152   3.432  10.749   4.952  0.2445 -0.1281 -0.4752
  237POPC   C4A 3153   3.832  10.714   5.219 -0.1669 -0.2327  0.0141
  237POPC   C1B 3154   3.676  10.596   4.561 -0.1444 -0.2566  0.1062
  237POPC   C2B 3155   3.458  10.288   4.821  0.0072  0.4492  0.1207
  237POPC   C3B 3156   3.419  10.344   5.258  0.0604 -0.0277  0.0491
  237POPC   C4B 3157   3.315  10.654   5.421  0.1637 -0.1453  0.1981
  238POPC   NC3 3158   2.072   3.701   3.101  0.2529  0.1256 -0.1242
  238POPC   PO4 3159   1.983   3.933   3.446 -0.0146 -0.2652 -0.2073
  238POPC   GL1 3160   1.930   3.979   3.926 -0.1286 -0.2698  0.2118
  238POPC   GL2 3161   1.586   3.944   3.930  0.1149 -0.0452 -0.3577
  238POPC   C1A 3162   1.919   4.131   4.302 -0.2480 -0.1028 -0.4171
  238POPC   D2A 3163   1.800   4.190   4.680 -0.1579  0.0691  0.0706
  238POPC   C3A 3164   1.486   4.437   4.766 -0.0609 -0.1338 -0.0019
  238POPC   C4A 3165   1.321   4.681   5.060 -0.0954 -0.1214 -0.1746
  238POPC   C1B 3166   1.660   3.741   4.399  0.0977 -0.1050  0.1647
  238POPC   C2B 3167   1.562   3.752   4.866  0.0664 -0.1177  0.1288
  238POPC   C3B 3168   1.488   4.132   5.152  0.2548 -0.0546 -0.0790
  238POPC   C4B 3169   1.686   4.107   5.537  0.1598 -0.1066 -0.4084
  239POPC   NC3 3170   4.559   3.618   3.791  0.2674  0.0033 -0.0185
  239POPC   PO4 3171   5.005   3.836   3.458 -0.1262 -0.0464 -0.0918
  239POPC   GL1 3172   4.976   3.863   3.909  0.0380 -0.0353 -0.5441
  239POPC   GL2 3173   5.287   4.045   4.070  0.0195  0.4388  0.1191
  239POPC   C1A 3174   4.810   3.978   4.420 -0.2232  0.0849 -0.0035
  239POPC   D2A 3175   4.604   4.156   4.817 -0.0235  0.0424 -0.0454
  239POPC   C3A 3176   4.238   4.008   4.834 -0.4792  0.1508 -0.2968
  239POPC   C4A 3177   4.041   3.989   5.306  0.0229 -0.3536 -0.0897
  239POPC   C1B 3178   5.315   4.008   4.446 -0.1467 -0.1100 -0.3338
  239POPC   C2B 3179   5.373   4.140   4.882  0.0619 -0.3869  0.1175
  239POPC   C3B 3180   5.350   4.222   5.196 -0.1792 -0.1658  0.1362
  239POPC   C4B 3181   5.198   4.161   5.613 -0.4667  0.1061 -0.2086
  240POPC   NC3 3182   3.436   7.376   3.791  0.0741  0.1824  0.0754
  240POPC   PO4 3183   3.011   7.466   3.783  0.4284  0.0499 -0.2541
  240POPC   GL1 3184   3.126   7.545   4.226  0.0873 -0.4765 -0.2588
  240POPC   GL2 3185   2.887   7.790   4.333 -0.2353 -0.1449 -0.0290
  240POPC   C1A 3186   3.231   7.621   4.627  0.3090  0.1039  0.3071
  240POPC   D2A 3187   3.323   7.831   4.958 -0.1451  0.0105  0.0181
  240POPC   C3A 3188   3.561   7.553   5.208  0.2551 -0.0470  0.1418
  240POPC   C4A 3189   3.907   7.213   5.369 -0.1029  0.3944 -0.0526
  240POPC   C1B 3190   2.782   7.757   4.819  0.2164  0.0382 -0.0443
  240POPC   C2B 3191   2.462   7.731   5.162  0.0004 -0.1510 -0.0525
  240POPC   C3B 3192   2.516   7.836   5.560  0.2611  0.0258 -0.1655
  240POPC   C4B 3193   2.851   7.701   5.719 -0.2732 -0.3867 -0.1412
  241POPC   NC3 3194   2.482  10.346   3.529 -0.0574 -0.1785  0.1694
  241POPC   PO4 3195   2.214  10.481   3.684  0.0434  0.0338 -0.0428
  241POPC   GL1 3196   2.475  10.416   4.013 -0.1213 -0.4194  0.1015
  241POPC   GL2 3197   2.276  10.144   4.177  0.0431 -0.0150  0.2026
  241POPC   C1A 3198   2.798  10.478   4.269  0.0924 -0.1880 -0.0395
  241POPC   D2A 3199   3.073  10.194   4.569  0.0788 -0.2023  0.0173
  241POPC   C3A 3200   2.688  10.051   4.748 -0.1174 -0.1884 -0.2424
  241POPC   C4A 3201   2.419  10.287   4.643  0.0631 -0.1880  0.1321
  241POPC   C1B 3202   1.968  10.104   4.560  0.1299  0.0375 -0.1045
  241POPC   C2B 3203   1.889  10.042   5.060 -0.3286  0.0215 -0.1847
  241POPC   C3B 3204   1.635  10.063   5.584  0.1160 -0.3054  0.4690
  241POPC   C4B 3205   1.649  10.460   5.852  0.0809 -0.2946 -0.1671
  242POPC   NC3 3206   4.285   9.453   3.661  0.0981  0.0722  0.0636
  242POPC   PO4 3207   4.394   8.983   3.873 -0.1676 -0.2157 -0.0189
  242POPC   GL1 3208   4.399   9.357   4.186  0.1453 -0.0327 -0.1124
  242POPC   GL2 3209   4.093   9.212   4.235 -0.2935 -0.1120  0.3298
  242POPC   C1A 3210   4.485   9.337   4.672  0.2281  0.2510 -0.0588
  242POPC   D2A 3211   4.554   9.222   5.121 -0.2090  0.3928 -0.2145
  242POPC   C3A 3212   4.613   9.541   5.411 -0.1970 -0.0541  0.2026
  242POPC   C4A 3213   4.663   9.690   5.924 -0.0533  0.3428  0.0809
  242POPC   C1B 3214   3.975   9.405   4.619  0.2701 -0.0438 -0.0594
  242POPC   C2B 3215   4.069   9.577   5.035 -0.3285 -0.0241  0.1771
  242POPC   C3B 3216   4.107   9.474   5.432 -0.4377 -0.1104  0.0147
  242POPC   C4B 3217   3.992   9.115   5.811  0.0321  0.0978 -0.2145
  243POPC   NC3 3218   4.072   3.903   2.976 -0.3096 -0.0471  0.0636
  243POPC   PO4 3219   3.909   4.128   3.292  0.0145  0.1000  0.0458
  243POPC   GL1 3220   4.122   4.430   3.609  0.1725 -0.0441 -0.2033
  243POPC   GL2 3221   3.992   4.217   3.762  0.3869 -0.1020  0.1207
  243POPC   C1A 3222   4.254   4.518   4.076  0.0428  0.3395  0.0613
  243POPC   D2A 3223   4.319   4.217   4.394 -0.0090  0.0228  0.0527
  243POPC   C3A 3224   4.255   3.710   4.419  0.0456  0.1910 -0.0051
  243POPC   C4A 3225   3.926   3.549   4.424 -0.2132 -0.4067  0.2296
  243POPC   C1B 3226   3.978   4.009   4.087  0.0017 -0.1000  0.0984
  243POPC   C2B 3227   3.798   4.066   4.607 -0.4242  0.2864  0.2363
  243POPC   C3B 3228   3.814   4.306   4.942  0.0253  0.2029  0.0481
  243POPC   C4B 3229   3.932   4.521   5.222  0.1395 -0.6693 -0.0367
  244POPC   NC3 3230   9.321  10.134   3.011 -0.3017 -0.0059  0.0710
  244POPC   PO4 3231   9.631  10.008   3.316 -0.2064  0.2657 -0.1175
  244POPC   GL1 3232   9.498   9.938   3.809  0.0902  0.0407  0.0263
  244POPC   GL2 3233   9.268  10.189   3.872  0.1557 -0.2089  0.1483
  244POPC   C1A 3234   9.628   9.799   4.147  0.0355 -0.3449  0.1276
  244POPC   D2A 3235   9.991   9.485   4.426 -0.1570 -0.0450  0.3203
  244POPC   C3A 3236  10.220   9.763   4.512  0.0619 -0.1699  0.1287
  244POPC   C4A 3237  10.306  10.194   4.569  0.3267 -0.3080 -0.2979
  244POPC   C1B 3238   9.246  10.221   4.324  0.3030  0.2074 -0.0682
  244POPC   C2B 3239   9.295  10.399   4.617  0.1252 -0.1110  0.2033
  244POPC   C3B 3240   9.216  10.789   4.768  0.1545 -0.0302 -0.2310
  244POPC   C4B 3241   9.195  11.201   4.710 -0.1763  0.0429  0.0640
  245POPC   NC3 3242   3.718   5.333   3.582  0.3337 -0.1786 -0.3663
  245POPC   PO4 3243   4.115   5.001   3.566  0.0487 -0.0207  0.2943
  245POPC   GL1 3244   3.837   4.900   3.878 -0.4265  0.0435  0.2175
  245POPC   GL2 3245   3.554   4.974   3.875 -0.1628  0.0225  0.2203
  245POPC   C1A 3246   3.854   4.616   4.317  0.1056  0.1554  0.0112
  245POPC   D2A 3247   3.542   4.533   4.666 -0.0876  0.0978  0.2281
  245POPC   C3A 3248   3.521   4.688   5.034 -0.2802 -0.1607  0.1255
  245POPC   C4A 3249   3.243   4.862   5.259  0.2231  0.1501  0.0305
  245POPC   C1B 3250   3.413   4.989   4.305 -0.1948 -0.1388  0.0995
  245POPC   C2B 3251   3.361   5.068   4.789  0.0994 -0.1584  0.4724
  245POPC   C3B 3252   3.568   5.315   5.203  0.0244  0.0752  0.3858
  245POPC   C4B 3253   3.615   5.111   5.649  0.5917  0.0046 -0.1025
  246POPC   NC3 3254   2.039   6.005   3.545  0.2488 -0.1009  0.0240
  246POPC   PO4 3255   1.813   5.656   3.842 -0.1842  0.4437 -0.0525
  246POPC   GL1 3256   1.894   5.539   4.170 -0.0576 -0.1941  0.0989
  246POPC   GL2 3257   2.148   5.444   4.311 -0.1652  0.1906  0.1675
  246POPC   C1A 3258   1.778   5.180   4.461 -0.0779  0.1234 -0.2904
  246POPC   D2A 3259   1.743   4.908   4.825  0.1247  0.3715 -0.1220
  246POPC   C3A 3260   1.759   4.959   5.338  0.4289 -0.2188  0.2475
  246POPC   C4A 3261   1.628   5.190   5.674 -0.2981 -0.2278  0.2088
  246POPC   C1B 3262   2.260   5.559   4.773 -0.2030  0.0519  0.1074
  246POPC   C2B 3263   2.504   5.491   5.166 -0.0534  0.1002  0.3133
  246POPC   C3B 3264   2.676   5.602   5.445  0.1203  0.0004 -0.1770
  246POPC   C4B 3265   2.789   5.598   5.839  0.1313  0.0385  0.0911
  247POPC   NC3 3266   8.347  10.530   3.747  0.1140  0.0113 -0.1484
  247POPC   PO4 3267   8.212  10.197   3.471 -0.3804  0.1395 -0.0504
  247POPC   GL1 3268   8.243  10.079   3.915  0.2329 -0.4179 -0.5119
  247POPC   GL2 3269   7.990  10.204   4.146 -0.0990  0.0794 -0.3183
  247POPC   C1A 3270   8.318   9.700   4.157  0.0854  0.1267  0.1017
  247POPC   D2A 3271   8.261   9.349   4.170 -0.0599  0.3350 -0.0797
  247POPC   C3A 3272   8.094   9.213   4.561 -0.0481  0.0798  0.4563
  247POPC   C4A 3273   8.085   8.968   4.975  0.3018 -0.1412 -0.2002
  247POPC   C1B 3274   8.319  10.155   4.454  0.0506 -0.0652  0.0196
  247POPC   C2B 3275   8.476  10.499   4.687  0.0730  0.1403 -0.4011
  247POPC   C3B 3276   8.521  10.372   5.073  0.0466  0.0752 -0.1954
  247POPC   C4B 3277   8.131  10.232   5.400 -0.1433  0.0373 -0.1873
  248POPC   NC3 3278   1.480   1.721   3.470  0.2459  0.0910 -0.3009
  248POPC   PO4 3279   1.476   2.217   3.536 -0.2104  0.0793 -0.1644
  248POPC   GL1 3280   1.615   2.382   3.924  0.2034  0.1273 -0.0512
  248POPC   GL2 3281   1.401   2.637   4.027  0.3468  0.1921 -0.1167
  248POPC   C1A 3282   1.747   2.183   4.374 -0.1684  0.0902  0.0182
  248POPC   D2A 3283   1.912   2.415   4.743  0.3625 -0.0963 -0.1779
  248POPC   C3A 3284   1.598   2.560   5.042  0.1773  0.1859  0.0468
  248POPC   C4A 3285   1.605   2.489   5.429 -0.2072  0.1702 -0.2791
  248POPC   C1B 3286   1.342   2.527   4.446  0.1891  0.0747 -0.2058
  248POPC   C2B 3287   1.393   2.230   4.742 -0.0193  0.1462  0.4321
  248POPC   C3B 3288   1.411   2.069   5.146 -0.0006  0.0423  0.1659
  248POPC   C4B 3289   1.746   2.030   5.410  0.0262  0.2086  0.0846
  249POPC   NC3 3290   7.757   5.462   4.044 -0.2000  0.3135 -0.1044
  249POPC   PO4 3291   7.405   5.053   3.955 -0.2534 -0.1944 -0.1917
  249POPC   GL1 3292   7.151   5.063   4.301 -0.2551 -0.0062  0.0315
  249POPC   GL2 3293   6.841   5.135   4.369 -0.0154  0.0811 -0.1635
  249POPC   C1A 3294   7.262   4.883   4.709 -0.1045  0.0367 -0.2064
  249POPC   D2A 3295   7.312   4.933   5.101  0.1876 -0.1669  0.2058
  249POPC   C3A 3296   7.128   4.793   5.413  0.0355 -0.1164 -0.1903
  249POPC   C4A 3297   6.801   4.915   5.815 -0.5948  0.1902  0.0658
  249POPC   C1B 3298   6.409   4.992   4.508 -0.3803 -0.1780 -0.0696
  249POPC   C2B 3299   6.335   5.005   4.945  0.1753  0.1139  0.1637
  249POPC   C3B 3300   6.235   5.133   5.244 -0.1399 -0.0169  0.2158
  249POPC   C4B 3301   5.864   5.307   5.373 -0.1052 -0.0144 -0.2144
  250POPC   NC3 3302   9.733   1.227   3.407  0.0088  0.2178  0.2407
  250POPC   PO4 3303   9.581   1.187   3.827 -0.2113  0.1095 -0.2646
  250POPC   GL1 3304   9.490   1.013   4.357 -0.0037 -0.0549 -0.3363
  250POPC   GL2 3305   9.177   1.123   4.539  0.2780 -0.0386 -0.1253
  250POPC   C1A 3306   9.565   1.077   4.817  0.1871  0.1628  0.1000
  250POPC   D2A 3307   9.811   1.378   5.048  0.1462  0.0187  0.1426
  250POPC   C3A 3308   9.708   1.588   5.272  0.3552 -0.0762  0.1183
  250POPC   C4A 3309   9.726   1.873   5.656 -0.1043 -0.2834 -0.0110
  250POPC   C1B 3310   8.958   1.019   4.963 -0.1772 -0.1151 -0.2361
  250POPC   C2B 3311   9.204   0.727   5.246 -0.0317  0.3686  0.3077
  250POPC   C3B 3312   9.502   0.613   5.571 -0.2507  0.6468  0.0842
  250POPC   C4B 3313   9.936   0.670   5.782 -0.1141  0.0175  0.0465
  251POPC   NC3 3314   4.562   5.261   3.420 -0.0954 -0.1348  0.1671
  251POPC   PO4 3315   4.642   5.704   3.410 -0.0110  0.0786 -0.3066
  251POPC   GL1 3316   4.488   5.603   3.848  0.0479 -0.1903  0.1312
  251POPC   GL2 3317   4.171   5.469   3.892  0.1657  0.1297 -0.2695
  251POPC   C1A 3318   4.547   5.403   4.245  0.1178  0.1866  0.2197
  251POPC   D2A 3319   4.342   5.191   4.747 -0.2837  0.0482  0.0669
  251POPC   C3A 3320   4.043   5.383   5.076 -0.0340 -0.0831 -0.0968
  251POPC   C4A 3321   3.873   5.540   5.493  0.2799  0.0818 -0.1587
  251POPC   C1B 3322   3.943   5.412   4.270 -0.0824  0.3533  0.0128
  251POPC   C2B 3323   3.880   5.197   4.540 -0.1229  0.1696 -0.1274
  251POPC   C3B 3324   3.935   4.948   4.862 -0.2843 -0.3441  0.3829
  251POPC   C4B 3325   4.052   4.960   5.367  0.0825  0.2114  0.4052
  252POPC   NC3 3326  10.585   8.549   3.560  0.1502  0.2701  0.0911
  252POPC   PO4 3327  10.741   8.162   3.571 -0.1891  0.1148  0.0462
  252POPC   GL1 3328  10.508   8.256   3.929 -0.0539  0.2638 -0.0006
  252POPC   GL2 3329  10.361   8.510   4.046  0.2214 -0.1919 -0.0359
  252POPC   C1A 3330  10.761   8.243   4.298 -0.2968 -0.2926  0.2362
  252POPC   D2A 3331  10.879   8.467   4.670 -0.2345  0.0890 -0.4132
  252POPC   C3A 3332  10.662   8.131   4.956 -0.2037  0.0023 -0.2937
  252POPC   C4A 3333  10.456   8.038   5.199  0.2255 -0.1993 -0.0030
  252POPC   C1B 3334  10.353   8.531   4.472 -0.0480 -0.0823  0.0045
  252POPC   C2B 3335  10.112   8.310   4.819 -0.0229  0.4008 -0.1544
  252POPC   C3B 3336   9.959   8.017   5.207  0.0580 -0.1774  0.2162
  252POPC   C4B 3337   9.569   7.933   5.343  0.0858  0.0352  0.0543
  253POPC   NC3 3338   9.153   1.279   4.055 -0.1371  0.0809 -0.0610
  253POPC   PO4 3339   8.631   1.212   3.979  0.3079  0.0791 -0.1729
  253POPC   GL1 3340   8.758   1.527   4.367  0.1293 -0.1093 -0.0579
  253POPC   GL2 3341   8.645   1.861   4.456  0.1209  0.1069 -0.1303
  253POPC   C1A 3342   8.833   1.497   4.773 -0.1798  0.0848  0.0452
  253POPC   D2A 3343   8.908   1.641   5.146  0.0341 -0.0216  0.2341
  253POPC   C3A 3344   8.566   1.785   5.252 -0.0879 -0.1139  0.2148
  253POPC   C4A 3345   8.430   2.066   4.934 -0.3473 -0.1786  0.2470
  253POPC   C1B 3346   8.922   1.995   4.737 -0.2704 -0.0521  0.0428
  253POPC   C2B 3347   9.052   2.147   5.160 -0.0487  0.0919  0.1960
  253POPC   C3B 3348   9.309   1.892   5.352  0.2387  0.0487 -0.3086
  253POPC   C4B 3349   9.309   1.567   5.633 -0.0381  0.0886  0.3455
  254POPC   NC3 3350   7.334   3.696   3.761  0.1462  0.1960  0.0534
  254POPC   PO4 3351   7.247   3.378   3.749  0.5725  0.2957  0.1630
  254POPC   GL1 3352   7.209   3.076   4.121  0.1697  0.0893 -0.0631
  254POPC   GL2 3353   6.989   3.225   4.400  0.0427 -0.0669  0.1422
  254POPC   C1A 3354   7.047   2.719   4.292 -0.1109  0.3035  0.1061
  254POPC   D2A 3355   6.923   2.345   4.262  0.0443 -0.0715  0.0612
  254POPC   C3A 3356   7.054   2.003   4.485  0.2609 -0.3600  0.1529
  254POPC   C4A 3357   6.909   1.679   4.739 -0.2547  0.2620 -0.0502
  254POPC   C1B 3358   7.424   3.061   4.549 -0.1762  0.0608  0.1035
  254POPC   C2B 3359   7.767   3.067   4.766  0.3404 -0.2454 -0.0788
  254POPC   C3B 3360   8.144   3.423   4.849  0.0269 -0.1754 -0.1766
  254POPC   C4B 3361   7.979   3.511   5.254 -0.0830 -0.2414  0.3044
  255POPC   NC3 3362   0.890   3.929   3.584 -0.0690  0.0147 -0.1753
  255POPC   PO4 3363   0.730   3.521   3.634  0.2511  0.0702 -0.0110
  255POPC   GL1 3364   0.800   3.321   4.082 -0.2278  0.3271 -0.1488
  255POPC   GL2 3365   0.514   3.406   4.230  0.0754 -0.1986 -0.0012
  255POPC   C1A 3366   0.983   3.034   4.543  0.1405 -0.0649  0.0952
  255POPC   D2A 3367   1.178   2.816   4.803 -0.1227  0.0036  0.2257
  255POPC   C3A 3368   1.171   2.949   5.265 -0.3350 -0.0644  0.0655
  255POPC   C4A 3369   0.884   2.739   5.525  0.2374 -0.1065  0.2281
  255POPC   C1B 3370   0.037   3.399   4.536 -0.0975 -0.0140 -0.0692
  255POPC   C2B 3371   0.029   3.193   5.020 -0.0805 -0.0771  0.1680
  255POPC   C3B 3372   0.340   3.002   5.327 -0.0990 -0.3684 -0.0545
  255POPC   C4B 3373   0.408   2.639   5.599 -0.0639 -0.1370  0.0636
  256POPC   NC3 3374  10.450   6.005   2.941 -0.1055  0.3100  0.1278
  256POPC   PO4 3375  10.537   5.563   2.939 -0.0085 -0.0823 -0.3124
  256POPC   GL1 3376  10.448   5.837   3.417 -0.0106  0.2698  0.0786
  256POPC   GL2 3377  10.425   6.262   3.424  0.0455 -0.1019  0.1003
  256POPC   C1A 3378  10.337   5.831   3.859 -0.0171 -0.0239  0.0394
  256POPC   D2A 3379  10.175   5.821   4.303 -0.1946  0.1307  0.2033
  256POPC   C3A 3380  10.284   5.578   4.665 -0.0961  0.0356 -0.3218
  256POPC   C4A 3381  10.321   5.346   5.002  0.2615  0.1663  0.1824
  256POPC   C1B 3382  10.469   6.419   3.882  0.1061  0.2372  0.0002
  256POPC   C2B 3383  10.450   6.250   4.241 -0.4321  0.0930  0.0192
  256POPC   C3B 3384  10.591   5.979   4.587  0.1583 -0.1081 -0.1914
  256POPC   C4B 3385  10.544   6.309   4.877 -0.4228  0.2223 -0.5485
  257POPC   NC3 3386   7.097   2.937   3.588  0.1035  0.1123  0.1879
  257POPC   PO4 3387   6.828   3.213   3.331 -0.2731  0.2186  0.1377
  257POPC   GL1 3388   6.541   3.411   3.674  0.0296  0.0140  0.0481
  257POPC   GL2 3389   6.754   3.577   3.809  0.0162  0.1106  0.1997
  257POPC   C1A 3390   6.446   3.317   4.136  0.1735  0.0797  0.3161
  257POPC   D2A 3391   6.440   3.201   4.572 -0.4721 -0.0264  0.2514
  257POPC   C3A 3392   6.673   3.186   4.937  0.0169 -0.1657 -0.0824
  257POPC   C4A 3393   7.107   3.333   4.914  0.1413  0.1192 -0.0454
  257POPC   C1B 3394   6.783   3.636   4.303  0.2355  0.0540 -0.0865
  257POPC   C2B 3395   6.645   3.643   4.731 -0.0812  0.2580 -0.1728
  257POPC   C3B 3396   6.555   3.663   5.139  0.1332  0.1286  0.0754
  257POPC   C4B 3397   6.390   3.532   5.519 -0.2105 -0.1766  0.0068
  258POPC   NC3 3398   8.898   7.631   2.973 -0.0025  0.2146  0.2255
  258POPC   PO4 3399   8.941   7.302   3.218 -0.0701  0.0302  0.1983
  258POPC   GL1 3400   9.061   7.306   3.651  0.4257  0.4536 -0.3034
  258POPC   GL2 3401   9.385   7.072   3.702  0.0586 -0.0020 -0.1595
  258POPC   C1A 3402   9.127   7.439   4.112  0.2619  0.1777  0.1836
  258POPC   D2A 3403   9.107   7.563   4.487  0.1201 -0.1549 -0.0397
  258POPC   C3A 3404   9.251   7.814   4.759  0.0493 -0.0579 -0.3023
  258POPC   C4A 3405   9.033   8.179   4.951  0.2333 -0.4176 -0.0936
  258POPC   C1B 3406   9.720   7.228   3.839  0.0079  0.0305 -0.1414
  258POPC   C2B 3407  10.010   7.297   4.142  0.2605  0.2262 -0.1259
  258POPC   C3B 3408  10.036   7.254   4.583  0.0416 -0.3059  0.0306
  258POPC   C4B 3409   9.901   7.028   4.957  0.3119  0.0612  0.3198
  259POPC   NC3 3410   3.574   8.553   3.642 -0.1300  0.1460  0.3184
  259POPC   PO4 3411   3.834   8.230   3.777  0.3570  0.0662 -0.1760
  259POPC   GL1 3412   3.857   8.103   4.204  0.1557  0.0287  0.2157
  259POPC   GL2 3413   3.482   8.110   4.278  0.4245  0.1615 -0.1364
  259POPC   C1A 3414   4.035   8.080   4.566 -0.1598 -0.2438  0.0753
  259POPC   D2A 3415   3.848   8.017   5.000 -0.0180  0.2925  0.1994
  259POPC   C3A 3416   4.072   8.236   5.334  0.0068  0.1470  0.0721
  259POPC   C4A 3417   4.457   8.157   5.575 -0.2013  0.0963  0.1672
  259POPC   C1B 3418   3.525   8.343   4.714  0.0887 -0.0563 -0.0442
  259POPC   C2B 3419   3.867   8.473   4.904 -0.1318  0.1368  0.1580
  259POPC   C3B 3420   4.166   8.644   5.014 -0.1862 -0.0232 -0.0588
  259POPC   C4B 3421   4.277   8.919   5.370 -0.0982 -0.2398  0.1272
  260POPC   NC3 3422   8.181   2.388   3.586  0.2111  0.1286  0.1084
  260POPC   PO4 3423   8.020   1.915   3.597  0.2507  0.1532 -0.2411
  260POPC   GL1 3424   8.101   2.073   3.967  0.1575 -0.0463  0.0621
  260POPC   GL2 3425   7.887   1.931   4.217  0.2543 -0.1157 -0.0412
  260POPC   C1A 3426   8.271   2.175   4.425 -0.2663  0.0805  0.0297
  260POPC   D2A 3427   8.645   2.428   4.629  0.2730 -0.1297  0.1539
  260POPC   C3A 3428   8.630   2.480   5.062 -0.0957 -0.0465 -0.0050
  260POPC   C4A 3429   8.619   2.288   5.488 -0.1183 -0.3713  0.1672
  260POPC   C1B 3430   7.883   2.025   4.655 -0.2776  0.3403  0.1932
  260POPC   C2B 3431   7.672   2.196   4.850  0.1002 -0.0744  0.1128
  260POPC   C3B 3432   7.329   2.071   4.972 -0.1840 -0.1061 -0.0938
  260POPC   C4B 3433   7.138   1.731   5.215  0.4032 -0.2110 -0.0874
  261POPC   NC3 3434   0.354   1.153   3.479 -0.4791 -0.0703 -0.1465
  261POPC   PO4 3435   0.573   1.516   3.463 -0.3653  0.0962 -0.0135
  261POPC   GL1 3436   0.491   1.492   3.994  0.0457 -0.0798  0.1548
  261POPC   GL2 3437   0.815   1.509   4.101  0.0461 -0.3455  0.1533
  261POPC   C1A 3438   0.460   1.598   4.428 -0.1452 -0.0695 -0.0124
  261POPC   D2A 3439   0.325   1.963   4.710 -0.1248  0.2529  0.1247
  261POPC   C3A 3440   0.411   1.917   5.166 -0.2233  0.3752  0.1263
  261POPC   C4A 3441   0.375   1.612   5.408 -0.0536 -0.1349  0.3465
  261POPC   C1B 3442   0.912   1.380   4.564 -0.0878 -0.0675  0.0134
  261POPC   C2B 3443   1.029   1.123   5.011  0.0669 -0.0634 -0.1219
  261POPC   C3B 3444   1.135   0.713   5.103  0.2291  0.4688 -0.1631
  261POPC   C4B 3445   1.270   0.477   5.559  0.0977  0.0905  0.1552
  262POPC   NC3 3446   6.418   2.924   3.588  0.2037 -0.0446  0.3211
  262POPC   PO4 3447   6.120   3.177   3.353 -0.3772 -0.1381  0.0770
  262POPC   GL1 3448   6.098   3.218   3.793 -0.0673 -0.0989 -0.3850
  262POPC   GL2 3449   6.077   2.843   4.035 -0.0964 -0.1702 -0.1978
  262POPC   C1A 3450   5.962   3.312   4.134 -0.2430  0.1369 -0.2734
  262POPC   D2A 3451   5.901   3.303   4.625 -0.2367 -0.3124  0.2069
  262POPC   C3A 3452   6.110   3.429   4.983  0.1461 -0.3322  0.0722
  262POPC   C4A 3453   5.874   3.318   5.437  0.0487 -0.0250 -0.0301
  262POPC   C1B 3454   6.330   2.667   4.452 -0.1940 -0.2005  0.0878
  262POPC   C2B 3455   6.703   2.726   4.767  0.0599  0.2807 -0.4118
  262POPC   C3B 3456   7.055   2.832   5.036 -0.1565 -0.1066 -0.3376
  262POPC   C4B 3457   7.417   2.914   5.327 -0.0975  0.1400 -0.1817
  263POPC   NC3 3458   0.699   2.916   3.602  0.0622 -0.1884 -0.1345
  263POPC   PO4 3459   1.111   2.995   3.739 -0.0969  0.2573  0.0167
  263POPC   GL1 3460   1.253   3.167   4.137 -0.0227 -0.0451 -0.0470
  263POPC   GL2 3461   1.285   3.467   4.237  0.2702 -0.0882  0.0044
  263POPC   C1A 3462   1.475   3.326   4.625  0.0342  0.0967  0.1166
  263POPC   D2A 3463   1.301   3.370   4.991  0.0881  0.3051  0.3131
  263POPC   C3A 3464   0.869   3.448   5.090 -0.0856  0.0702 -0.1275
  263POPC   C4A 3465   0.532   3.528   5.199 -0.0237  0.0373  0.2987
  263POPC   C1B 3466   1.023   3.623   4.575 -0.0339  0.0453  0.0282
  263POPC   C2B 3467   0.584   3.577   4.688  0.0074 -0.2202  0.1934
  263POPC   C3B 3468   0.187   3.753   4.993  0.2058  0.1769 -0.0972
  263POPC   C4B 3469  -0.022   3.513   5.333  0.0022 -0.2010  0.0197
  264POPC   NC3 3470   3.060   3.002   2.901 -0.1907 -0.0671 -0.0590
  264POPC   PO4 3471   3.085   3.028   3.432  0.0408  0.1255  0.3243
  264POPC   GL1 3472   2.832   3.081   3.719 -0.6483 -0.4432 -0.1026
  264POPC   GL2 3473   2.558   2.877   3.794  0.0354  0.0937 -0.0164
  264POPC   C1A 3474   2.724   3.119   4.173  0.0522  0.1481  0.0039
  264POPC   D2A 3475   2.706   2.845   4.570  0.0537  0.1388 -0.1469
  264POPC   C3A 3476   2.767   2.939   5.082  0.2604 -0.2619 -0.0950
  264POPC   C4A 3477   3.117   3.004   5.323 -0.0779 -0.0988 -0.0326
  264POPC   C1B 3478   2.423   2.703   4.111 -0.2450 -0.0508  0.1019
  264POPC   C2B 3479   2.306   2.514   4.485  0.1209  0.3079 -0.2266
  264POPC   C3B 3480   2.405   2.373   4.939 -0.0328  0.2307 -0.2071
  264POPC   C4B 3481   2.524   2.316   5.294  0.1629  0.1824 -0.2340
  265POPC   NC3 3482   1.867   2.498   3.499  0.0194 -0.0793 -0.0185
  265POPC   PO4 3483   2.166   2.882   3.418 -0.0279 -0.0288 -0.1030
  265POPC   GL1 3484   2.009   2.821   3.853  0.1455  0.0298 -0.1078
  265POPC   GL2 3485   2.176   3.131   3.889 -0.1469  0.1110 -0.2346
  265POPC   C1A 3486   1.891   2.710   4.240 -0.1854 -0.1129 -0.1906
  265POPC   D2A 3487   1.709   2.874   4.527 -0.4219 -0.0297 -0.1402
  265POPC   C3A 3488   1.791   2.943   4.956 -0.1226 -0.0470 -0.0917
  265POPC   C4A 3489   1.847   2.986   5.357 -0.1218 -0.1832 -0.0009
  265POPC   C1B 3490   2.223   3.082   4.316  0.0614  0.0877  0.1064
  265POPC   C2B 3491   2.276   2.952   4.754 -0.1797  0.1834 -0.3935
  265POPC   C3B 3492   2.309   2.819   5.193  0.2636  0.3718  0.0780
  265POPC   C4B 3493   2.553   2.767   5.515 -0.2313 -0.0193 -0.2219
  266POPC   NC3 3494   9.072   0.023   3.448 -0.1055 -0.2170  0.2597
  266POPC   PO4 3495   8.675   0.020   3.634 -0.4331  0.1962 -0.1712
  266POPC   GL1 3496   8.541  -0.052   4.077 -0.3381  0.0145 -0.0347
  266POPC   GL2 3497   8.636  -0.371   4.178  0.0269 -0.0283 -0.0095
  266POPC   C1A 3498   8.342  -0.015   4.460 -0.1341  0.1618 -0.0644
  266POPC   D2A 3499   8.127  -0.081   4.881  0.1488  0.2015 -0.0044
  266POPC   C3A 3500   8.019   0.019   5.300  0.4066 -0.2972 -0.0697
  266POPC   C4A 3501   7.881   0.354   5.615 -0.1478  0.1083  0.0388
  266POPC   C1B 3502   8.887  -0.305   4.457  0.1410 -0.1134  0.0624
  266POPC   C2B 3503   8.676  -0.010   4.861  0.2904 -0.2665  0.3094
  266POPC   C3B 3504   8.554   0.245   5.052 -0.1078 -0.2595  0.0533
  266POPC   C4B 3505   8.675   0.634   5.197 -0.0842  0.0687 -0.0407
  267POPC   NC3 3506   9.159   8.049   2.816  0.3862 -0.0396 -0.1954
  267POPC   PO4 3507   8.867   8.160   3.133 -0.0634  0.0236 -0.3438
  267POPC   GL1 3508   9.156   8.015   3.503 -0.0721  0.3037  0.1394
  267POPC   GL2 3509   8.939   7.784   3.544 -0.0244 -0.3688 -0.2035
  267POPC   C1A 3510   9.463   7.800   3.856  0.1329  0.0353 -0.2184
  267POPC   D2A 3511   9.485   7.829   4.274 -0.0592  0.0569  0.3560
  267POPC   C3A 3512   9.676   8.078   4.506  0.0286 -0.3120 -0.0714
  267POPC   C4A 3513   9.650   8.232   4.919  0.4426  0.0430  0.2392
  267POPC   C1B 3514   8.996   7.918   3.982  0.0559 -0.0195 -0.0953
  267POPC   C2B 3515   8.905   8.083   4.402  0.0058  0.2888  0.1992
  267POPC   C3B 3516   8.652   8.298   4.671 -0.3029 -0.1765 -0.0952
  267POPC   C4B 3517   8.485   8.552   4.994  0.2529 -0.0570 -0.1753
  268POPC   NC3 3518   7.660   9.675   3.036 -0.0787  0.2884 -0.2503
  268POPC   PO4 3519   7.862   9.355   3.364  0.1718 -0.0539 -0.0153
  268POPC   GL1 3520   7.728   9.350   3.705 -0.1393 -0.1205 -0.1478
  268POPC   GL2 3521   7.795   9.131   3.967 -0.0522  0.1079  0.0582
  268POPC   C1A 3522   7.840   9.618   4.044  0.2446 -0.0767  0.3379
  268POPC   D2A 3523   7.989   9.696   4.506  0.1527  0.2878  0.1804
  268POPC   C3A 3524   7.771   9.886   4.828 -0.1157 -0.1279  0.1116
  268POPC   C4A 3525   7.866   9.492   4.994 -0.5012 -0.2047  0.3105
  268POPC   C1B 3526   7.759   8.831   4.317  0.0770 -0.0002 -0.1936
  268POPC   C2B 3527   7.332   8.772   4.602 -0.1318  0.1547  0.3283
  268POPC   C3B 3528   7.031   8.771   4.906 -0.0390  0.0100  0.0694
  268POPC   C4B 3529   6.966   8.740   5.421  0.1343 -0.0282 -0.1778
  269POPC   NC3 3530   6.990   6.956   3.270  0.1160  0.1027  0.1349
  269POPC   PO4 3531   6.852   7.381   3.597 -0.0230 -0.0850 -0.0467
  269POPC   GL1 3532   6.744   7.398   4.086 -0.3175  0.2552  0.0167
  269POPC   GL2 3533   7.014   7.555   4.256  0.0463 -0.0793 -0.0098
  269POPC   C1A 3534   6.600   7.404   4.517 -0.0530  0.0006  0.1007
  269POPC   D2A 3535   6.258   7.516   4.779 -0.4181 -0.2530  0.2350
  269POPC   C3A 3536   6.400   7.229   5.114 -0.0917  0.3109  0.0785
  269POPC   C4A 3537   6.183   6.969   5.506 -0.3615  0.1127  0.1501
  269POPC   C1B 3538   7.167   7.609   4.705  0.2940 -0.1283 -0.2933
  269POPC   C2B 3539   7.155   7.939   5.081 -0.1311 -0.2435 -0.2011
  269POPC   C3B 3540   7.368   8.442   5.106  0.1139 -0.0671 -0.3008
  269POPC   C4B 3541   7.563   8.828   5.135  0.3223 -0.0833  0.1921
  270POPC   NC3 3542   6.799   0.964   3.452  0.1118 -0.0258 -0.1649
  270POPC   PO4 3543   6.495   0.794   3.752  0.0777 -0.3276  0.2434
  270POPC   GL1 3544   6.562   0.788   4.271  0.0019  0.2141 -0.1140
  270POPC   GL2 3545   6.460   0.533   4.378  0.1173 -0.2175 -0.3562
  270POPC   C1A 3546   6.614   0.695   4.814 -0.0979  0.1401 -0.1603
  270POPC   D2A 3547   6.586   0.482   5.272  0.0656  0.0091 -0.0437
  270POPC   C3A 3548   6.348   0.590   5.520 -0.2242  0.0411  0.0972
  270POPC   C4A 3549   5.904   0.573   5.730 -0.0097  0.0469  0.2183
  270POPC   C1B 3550   6.111   0.664   4.621  0.0385  0.1140 -0.0098
  270POPC   C2B 3551   5.852   0.498   4.948 -0.1382  0.1102  0.3128
  270POPC   C3B 3552   5.573   0.133   5.083  0.4283 -0.0633  0.0905
  270POPC   C4B 3553   5.268  -0.164   5.347 -0.0336 -0.2385 -0.2194
  271POPC   NC3 3554   1.525   7.947   3.584  0.2875 -0.0047 -0.0432
  271POPC   PO4 3555   1.292   8.248   3.744 -0.0646 -0.0639 -0.1233
  271POPC   GL1 3556   1.268   8.546   4.069 -0.3895 -0.0910 -0.1845
  271POPC   GL2 3557   1.468   8.824   3.946  0.1360 -0.0078  0.3370
  271POPC   C1A 3558   1.469   8.747   4.446 -0.1874 -0.2614  0.2158
  271POPC   D2A 3559   1.378   9.146   4.643 -0.0736 -0.1045  0.1720
  271POPC   C3A 3560   1.146   9.246   4.370 -0.3689 -0.1359 -0.1298
  271POPC   C4A 3561   1.004   8.951   4.111  0.1788 -0.1110 -0.2521
  271POPC   C1B 3562   1.756   9.099   4.308 -0.0509  0.2845  0.0905
  271POPC   C2B 3563   1.876   9.202   4.708 -0.0813  0.0238  0.0174
  271POPC   C3B 3564   1.777   9.280   5.158 -0.1108  0.2623 -0.2655
  271POPC   C4B 3565   2.007   9.656   5.418  0.0888  0.2331  0.0553
  272POPC   NC3 3566   2.904   9.662   3.610 -0.3743  0.5326 -0.0718
  272POPC   PO4 3567   3.177   9.364   3.476  0.2721 -0.0259  0.1006
  272POPC   GL1 3568   3.288   9.289   3.858 -0.0480  0.1421  0.1901
  272POPC   GL2 3569   3.147   9.560   4.113  0.1724 -0.0197  0.1312
  272POPC   C1A 3570   3.150   9.065   4.236 -0.0533  0.0027  0.3043
  272POPC   D2A 3571   3.099   9.164   4.646  0.4052 -0.1196 -0.2104
  272POPC   C3A 3572   3.483   9.345   4.914 -0.1588 -0.0469  0.0865
  272POPC   C4A 3573   3.668   9.301   5.321 -0.2400  0.0145  0.0065
  272POPC   C1B 3574   3.295   9.595   4.472 -0.1836 -0.0931  0.0657
  272POPC   C2B 3575   3.218   9.852   4.902  0.0508  0.1519 -0.0852
  272POPC   C3B 3576   3.007  10.042   5.186  0.5843  0.1918  0.0196
  272POPC   C4B 3577   3.049  10.271   5.577 -0.0667 -0.0796 -0.1586
  273POPC   NC3 3578   6.107   0.994   3.986  0.0751  0.4335 -0.2381
  273POPC   PO4 3579   6.026   0.674   3.513  0.2786  0.2377  0.1257
  273POPC   GL1 3580   5.754   0.572   3.894  0.2365  0.2638  0.0593
  273POPC   GL2 3581   5.941   0.445   4.135  0.0415  0.0317 -0.1171
  273POPC   C1A 3582   5.521   0.201   4.213  0.0837  0.0002  0.4352
  273POPC   D2A 3583   5.685   0.207   4.556 -0.0065 -0.3300 -0.2140
  273POPC   C3A 3584   6.107   0.151   4.707 -0.1258 -0.0488 -0.2588
  273POPC   C4A 3585   6.340   0.314   4.901 -0.0785 -0.0614 -0.1285
  273POPC   C1B 3586   5.644   0.686   4.419 -0.2634  0.2819 -0.0198
  273POPC   C2B 3587   5.574   0.925   4.782  0.0908  0.0155  0.2204
  273POPC   C3B 3588   5.549   0.973   5.280 -0.0821 -0.2857 -0.2142
  273POPC   C4B 3589   5.473   0.906   5.753 -0.0687  0.1420  0.4169
  274POPC   NC3 3590   6.407   6.680   3.814 -0.0933 -0.1448 -0.0877
  274POPC   PO4 3591   6.561   6.345   3.850 -0.3357 -0.1183 -0.1152
  274POPC   GL1 3592   6.588   6.527   4.277 -0.0520 -0.3406  0.0495
  274POPC   GL2 3593   6.453   6.947   4.285 -0.0097 -0.0427 -0.0579
  274POPC   C1A 3594   6.514   6.355   4.704 -0.1027  0.0063  0.0908
  274POPC   D2A 3595   6.418   6.120   5.056  0.2878 -0.0202 -0.1000
  274POPC   C3A 3596   6.606   5.899   5.235  0.0094 -0.1432  0.1299
  274POPC   C4A 3597   6.503   5.641   5.440 -0.0446  0.2024  0.2608
  274POPC   C1B 3598   6.549   6.898   4.731  0.0854 -0.1870 -0.0692
  274POPC   C2B 3599   6.250   6.716   5.019  0.1702 -0.1357  0.2074
  274POPC   C3B 3600   6.322   6.448   5.345  0.0157  0.1553  0.0909
  274POPC   C4B 3601   6.355   6.210   5.622 -0.1770  0.0311  0.0797
  275POPC   NC3 3602   7.762   1.556   3.931 -0.1402  0.2313  0.1180
  275POPC   PO4 3603   7.829   1.199   3.717  0.1876 -0.1363  0.0137
  275POPC   GL1 3604   7.925   1.127   4.140 -0.1172 -0.0800 -0.2059
  275POPC   GL2 3605   7.612   1.087   4.281  0.0144 -0.0259 -0.1084
  275POPC   C1A 3606   8.104   1.434   4.502  0.1007 -0.1380 -0.1255
  275POPC   D2A 3607   8.328   1.585   4.873  0.0254 -0.0706 -0.1566
  275POPC   C3A 3608   8.063   1.734   5.115 -0.1303 -0.0150 -0.0667
  275POPC   C4A 3609   7.631   1.748   5.254  0.3179  0.0303  0.0115
  275POPC   C1B 3610   7.292   1.032   4.484  0.0902 -0.0613  0.0992
  275POPC   C2B 3611   7.273   1.011   4.935  0.2577 -0.1053 -0.3876
  275POPC   C3B 3612   7.035   1.245   5.206  0.0688 -0.3492 -0.0065
  275POPC   C4B 3613   6.694   1.541   5.329  0.1730  0.2824 -0.2462
  276POPC   NC3 3614   2.310   9.354   2.820  0.0889  0.0188 -0.3419
  276POPC   PO4 3615   2.011   9.203   3.261  0.3663 -0.0884 -0.5010
  276POPC   GL1 3616   2.326   9.187   3.661  0.2139  0.2503 -0.0686
  276POPC   GL2 3617   2.658   9.219   3.545 -0.1808  0.1268 -0.0578
  276POPC   C1A 3618   2.199   9.114   4.036  0.1464  0.2407 -0.1007
  276POPC   D2A 3619   2.306   8.966   4.403 -0.0759  0.0006 -0.1651
  276POPC   C3A 3620   2.424   9.180   4.752  0.1011 -0.2122 -0.1772
  276POPC   C4A 3621   2.354   9.252   5.174 -0.1098  0.0399 -0.2874
  276POPC   C1B 3622   2.690   8.946   4.037 -0.0886 -0.0865  0.0895
  276POPC   C2B 3623   2.797   8.811   4.457 -0.1005 -0.0264  0.2892
  276POPC   C3B 3624   2.829   8.857   4.930 -0.1175  0.0121 -0.2285
  276POPC   C4B 3625   3.191   8.876   5.261 -0.0454  0.0768  0.0387
  277POPC   NC3 3626   1.613   3.115   3.701 -0.0598 -0.0885 -0.2667
  277POPC   PO4 3627   1.733   3.520   3.567 -0.1362 -0.0386  0.3421
  277POPC   GL1 3628   1.799   3.475   4.019 -0.0672 -0.1422 -0.1091
  277POPC   GL2 3629   1.779   3.259   4.195  0.2124  0.0750  0.1423
  277POPC   C1A 3630   2.139   3.635   4.227  0.1384  0.5006 -0.0121
  277POPC   D2A 3631   2.208   3.740   4.656  0.1044  0.0096 -0.2035
  277POPC   C3A 3632   2.500   3.901   4.851 -0.0892  0.0074 -0.0118
  277POPC   C4A 3633   2.905   3.609   4.828 -0.0564 -0.1094 -0.1179
  277POPC   C1B 3634   1.942   3.318   4.650  0.0625 -0.0647  0.0355
  277POPC   C2B 3635   2.041   3.352   4.989  0.1806  0.0225 -0.1935
  277POPC   C3B 3636   2.218   3.331   5.423  0.1010 -0.3853  0.0876
  277POPC   C4B 3637   2.492   3.256   5.624  0.1023  0.0048  0.3242
  278POPC   NC3 3638   2.827   7.947   3.826 -0.0479 -0.1117  0.2116
  278POPC   PO4 3639   2.420   8.119   3.921 -0.2473  0.0754 -0.1457
  278POPC   GL1 3640   2.368   8.240   4.322  0.2672  0.1561 -0.1151
  278POPC   GL2 3641   2.476   8.027   4.443  0.0183  0.1522  0.1480
  278POPC   C1A 3642   2.352   8.495   4.608 -0.1911 -0.1168  0.0142
  278POPC   D2A 3643   2.365   8.688   5.042  0.0955  0.2629 -0.3786
  278POPC   C3A 3644   1.979   8.756   5.243 -0.0562  0.2552  0.0466
  278POPC   C4A 3645   1.644   8.896   5.584  0.2647  0.0810  0.0701
  278POPC   C1B 3646   2.390   8.035   4.768  0.0803 -0.3903  0.2113
  278POPC   C2B 3647   2.585   8.277   5.176 -0.0289 -0.0321  0.2398
  278POPC   C3B 3648   2.837   8.514   5.362 -0.0973 -0.3257  0.1212
  278POPC   C4B 3649   3.081   8.753   5.776  0.0254  0.0968  0.0617
  279POPC   NC3 3650   7.495   6.331   3.746 -0.1099 -0.0926  0.3226
  279POPC   PO4 3651   7.372   6.770   3.843  0.1118 -0.0420  0.2295
  279POPC   GL1 3652   7.105   6.783   4.266  0.0659  0.1154  0.4029
  279POPC   GL2 3653   6.929   7.048   4.398 -0.0508 -0.1798  0.1094
  279POPC   C1A 3654   6.956   6.608   4.699  0.2579 -0.2100 -0.1121
  279POPC   D2A 3655   6.785   6.631   5.078  0.3096  0.0739  0.0504
  279POPC   C3A 3656   6.777   6.957   5.275 -0.3184  0.2369 -0.0394
  279POPC   C4A 3657   6.758   7.174   5.647 -0.0522  0.1368 -0.0120
  279POPC   C1B 3658   7.025   7.131   4.761  0.1647 -0.0302  0.0589
  279POPC   C2B 3659   6.869   7.424   5.100 -0.2414 -0.2111  0.2526
  279POPC   C3B 3660   6.702   7.654   5.371  0.1178  0.3148  0.1321
  279POPC   C4B 3661   6.155   7.641   5.465 -0.3258 -0.2619 -0.2814
  280POPC   NC3 3662   1.583   0.381   3.284 -0.0499  0.0223  0.0252
  280POPC   PO4 3663   1.396  -0.078   3.341  0.2723  0.0397 -0.1885
  280POPC   GL1 3664   1.428  -0.230   3.811 -0.0617 -0.2371  0.1838
  280POPC   GL2 3665   1.735  -0.353   3.931 -0.2335  0.1749  0.4446
  280POPC   C1A 3666   1.109  -0.060   4.194 -0.4829 -0.0410 -0.0221
  280POPC   D2A 3667   0.933  -0.010   4.635  0.2887 -0.1261  0.0282
  280POPC   C3A 3668   0.668  -0.071   4.812 -0.0976 -0.1456  0.0986
  280POPC   C4A 3669   0.477   0.011   5.242  0.3810  0.1531 -0.0129
  280POPC   C1B 3670   1.586  -0.230   4.282 -0.1614  0.0671  0.0432
  280POPC   C2B 3671   1.397  -0.032   4.575 -0.1012 -0.1170  0.0269
  280POPC   C3B 3672   1.328  -0.181   4.912  0.1393  0.1165  0.0132
  280POPC   C4B 3673   1.385  -0.070   5.412  0.2427 -0.2133 -0.1650
  281POPC   NC3 3674   9.674  10.429   3.760 -0.1237 -0.2020  0.3791
  281POPC   PO4 3675  10.003  10.191   3.749 -0.1343 -0.0955  0.2440
  281POPC   GL1 3676   9.833  10.254   4.212  0.0882  0.0295 -0.2121
  281POPC   GL2 3677   9.605  10.541   4.261  0.0193 -0.4552 -0.3124
  281POPC   C1A 3678   9.795  10.049   4.593  0.0007  0.0836  0.0365
  281POPC   D2A 3679   9.572  10.167   5.014  0.1585 -0.0732 -0.2380
  281POPC   C3A 3680   9.833  10.217   5.517  0.2681  0.1079  0.1624
  281POPC   C4A 3681  10.198  10.362   5.463 -0.0899 -0.2358  0.2388
  281POPC   C1B 3682   9.955  10.558   4.580 -0.0941  0.1560  0.0048
  281POPC   C2B 3683  10.042  10.311   4.999 -0.1550  0.3102  0.0728
  281POPC   C3B 3684  10.018   9.861   5.160 -0.1432 -0.2771 -0.1890
  281POPC   C4B 3685  10.280   9.674   5.449  0.0491 -0.2015 -0.0164
  282POPC   NC3 3686   8.945   4.159   3.413 -0.1394  0.0932  0.0929
  282POPC   PO4 3687   9.312   3.983   3.513 -0.0826 -0.0165 -0.0013
  282POPC   GL1 3688   9.512   3.956   3.855 -0.0854 -0.0611 -0.0140
  282POPC   GL2 3689   9.886   3.945   3.910  0.2939 -0.0393 -0.0053
  282POPC   C1A 3690   9.673   3.698   4.250  0.1063  0.1127  0.1080
  282POPC   D2A 3691  10.056   3.383   4.410 -0.4254  0.2540  0.0024
  282POPC   C3A 3692  10.317   3.717   4.309  0.1991 -0.1274  0.1434
  282POPC   C4A 3693  10.465   4.186   4.411  0.4190  0.1093 -0.0372
  282POPC   C1B 3694  10.009   4.233   4.245  0.0662 -0.1451  0.2065
  282POPC   C2B 3695   9.936   3.928   4.586  0.0645  0.2945 -0.2429
  282POPC   C3B 3696  10.039   3.613   4.865 -0.1558 -0.1287 -0.1152
  282POPC   C4B 3697   9.912   3.334   5.118 -0.2825 -0.1061  0.0274
  283POPC   NC3 3698   6.869   7.832   3.803  0.2493 -0.1702 -0.0435
  283POPC   PO4 3699   7.162   8.289   3.751 -0.0609 -0.0302 -0.1945
  283POPC   GL1 3700   7.261   8.187   4.186  0.0595  0.2741 -0.0824
  283POPC   GL2 3701   7.502   8.319   4.390  0.2447 -0.2308  0.1394
  283POPC   C1A 3702   7.433   7.796   4.347 -0.1535 -0.0365  0.2643
  283POPC   D2A 3703   7.890   7.654   4.588  0.1943 -0.0102  0.0002
  283POPC   C3A 3704   8.261   7.648   4.796  0.0868 -0.3872  0.2134
  283POPC   C4A 3705   8.640   7.899   4.983  0.0243 -0.3475 -0.0637
  283POPC   C1B 3706   7.446   8.159   4.727 -0.0699  0.1910 -0.1237
  283POPC   C2B 3707   7.705   8.033   5.022 -0.0085 -0.0426 -0.2031
  283POPC   C3B 3708   7.601   7.823   5.299 -0.0630 -0.5009 -0.0164
  283POPC   C4B 3709   7.268   7.605   5.473  0.3025 -0.2204 -0.0264
  284POPC   NC3 3710   1.040   1.464   3.619  0.1302 -0.0759 -0.0012
  284POPC   PO4 3711   0.853   1.082   3.631  0.1514 -0.2687 -0.0822
  284POPC   GL1 3712   1.016   1.004   3.981 -0.1452  0.0116  0.2089
  284POPC   GL2 3713   1.216   0.762   3.986 -0.1032  0.0447 -0.0362
  284POPC   C1A 3714   0.778   0.904   4.343  0.1161  0.1434 -0.0136
  284POPC   D2A 3715   0.623   0.967   4.668 -0.1821 -0.1710  0.4182
  284POPC   C3A 3716   0.384   0.981   4.981  0.1912  0.4137  0.2185
  284POPC   C4A 3717   0.137   1.151   5.259 -0.4131 -0.0483 -0.1363
  284POPC   C1B 3718   1.448   0.522   4.293 -0.0054 -0.2793  0.1578
  284POPC   C2B 3719   1.549   0.510   4.745 -0.1939  0.1328  0.1351
  284POPC   C3B 3720   1.563   0.288   5.039  0.0606 -0.0814 -0.1710
  284POPC   C4B 3721   1.827   0.117   5.379  0.3045  0.3814  0.0742
  285POPC   NC3 3722   6.886   2.097   3.785 -0.1080  0.1072 -0.1833
  285POPC   PO4 3723   6.926   1.738   3.711 -0.1983 -0.3388  0.3361
  285POPC   GL1 3724   6.898   1.632   4.087  0.0447 -0.2729 -0.0576
  285POPC   GL2 3725   6.915   1.264   4.073  0.6498  0.0695 -0.0593
  285POPC   C1A 3726   7.251   1.500   4.353 -0.1110  0.0908  0.2615
  285POPC   D2A 3727   7.510   1.665   4.640 -0.3336  0.0339  0.0406
  285POPC   C3A 3728   7.719   1.301   4.934 -0.1615  0.0700 -0.1725
  285POPC   C4A 3729   7.816   0.921   4.992 -0.2098 -0.2399  0.3054
  285POPC   C1B 3730   6.770   1.196   4.465 -0.0916  0.0014  0.2029
  285POPC   C2B 3731   6.598   1.206   4.913  0.0235 -0.0486  0.0785
  285POPC   C3B 3732   6.510   1.056   5.299  0.2617  0.1209 -0.4199
  285POPC   C4B 3733   6.407   1.353   5.664  0.0550 -0.0984  0.0760
  286POPC   NC3 3734   5.682  10.567   3.491  0.1401 -0.0837  0.1104
  286POPC   PO4 3735   6.120  10.823   3.491  0.2411  0.0072  0.1452
  286POPC   GL1 3736   5.902  10.862   3.833 -0.0679  0.1679  0.3317
  286POPC   GL2 3737   6.082  10.825   4.048  0.3021  0.1041  0.0609
  286POPC   C1A 3738   5.691  10.547   4.220 -0.1329 -0.0818 -0.1478
  286POPC   D2A 3739   5.281  10.471   4.392 -0.1741  0.0662  0.1056
  286POPC   C3A 3740   5.045  10.186   4.610  0.1904  0.2066 -0.3673
  286POPC   C4A 3741   4.742   9.737   4.537 -0.1451  0.2656 -0.0648
  286POPC   C1B 3742   6.397  10.890   4.217 -0.0554  0.0773  0.0317
  286POPC   C2B 3743   6.711  11.020   4.635 -0.0600  0.0543 -0.0457
  286POPC   C3B 3744   6.770  10.849   5.069 -0.2574 -0.0399  0.2338
  286POPC   C4B 3745   7.193  10.917   5.190  0.2707  0.3642  0.0528
  287POPC   NC3 3746   9.213   3.418   3.508  0.0018  0.3080  0.3386
  287POPC   PO4 3747   9.672   3.585   3.579  0.2933 -0.1781  0.1382
  287POPC   GL1 3748   9.538   3.325   3.865  0.5507  0.2043 -0.1260
  287POPC   GL2 3749   9.197   3.254   4.001 -0.0286  0.0527  0.1004
  287POPC   C1A 3750   9.659   3.051   4.299  0.1309 -0.3412  0.2356
  287POPC   D2A 3751   9.710   3.219   4.720  0.0640  0.2099 -0.0303
  287POPC   C3A 3752   9.698   2.923   5.026  0.2570  0.0055 -0.2052
  287POPC   C4A 3753   9.883   2.697   5.351  0.0334  0.0156 -0.0502
  287POPC   C1B 3754   8.943   3.278   4.307 -0.2122 -0.2443 -0.0735
  287POPC   C2B 3755   9.182   3.405   4.668  0.3131 -0.2329  0.0486
  287POPC   C3B 3756   9.378   3.806   4.702 -0.0220  0.0486  0.1204
  287POPC   C4B 3757   9.547   4.186   4.749  0.0224  0.2070  0.1546
  288POPC   NC3 3758   9.909   0.178   3.559  0.0594 -0.1406 -0.0974
  288POPC   PO4 3759   9.507   0.006   3.824 -0.3284 -0.0909  0.0983
  288POPC   GL1 3760   9.470   0.187   4.270 -0.3483  0.0579 -0.0423
  288POPC   GL2 3761   9.160   0.084   4.285  0.3359 -0.0903  0.0750
  288POPC   C1A 3762   9.676   0.038   4.633 -0.3642  0.1937  0.2451
  288POPC   D2A 3763  10.007  -0.026   4.945  0.0244 -0.0655 -0.0207
  288POPC   C3A 3764   9.958   0.291   5.215 -0.0355  0.1099 -0.1775
  288POPC   C4A 3765   9.909   0.698   5.257 -0.0231  0.0791  0.0777
  288POPC   C1B 3766   8.762   0.266   4.450  0.1232  0.0286 -0.2763
  288POPC   C2B 3767   8.387   0.459   4.658 -0.1345  0.2364 -0.0469
  288POPC   C3B 3768   8.279   0.672   4.979 -0.1753  0.1752 -0.0743
  288POPC   C4B 3769   8.330   1.069   5.237 -0.1161 -0.0788  0.0578
  289POPC   NC3 3770   8.122   3.494   3.495  0.0314  0.0204  0.1896
  289POPC   PO4 3771   8.671   3.356   3.424  0.0175  0.0917 -0.3079
  289POPC   GL1 3772   8.630   3.302   3.862  0.0225 -0.1993 -0.2166
  289POPC   GL2 3773   8.602   3.011   3.894 -0.0140  0.1904  0.0554
  289POPC   C1A 3774   8.452   3.394   4.296 -0.0873  0.1310  0.1492
  289POPC   D2A 3775   8.652   3.512   4.629  0.0542  0.0402  0.2238
  289POPC   C3A 3776   8.618   3.301   5.046  0.1238  0.0733  0.0293
  289POPC   C4A 3777   8.571   2.929   5.426 -0.2623 -0.4931  0.2182
  289POPC   C1B 3778   8.597   2.846   4.243 -0.0931  0.3274 -0.0412
  289POPC   C2B 3779   8.718   2.963   4.697  0.1523  0.0646  0.1198
  289POPC   C3B 3780   9.044   3.008   5.077 -0.2248  0.1900  0.0896
  289POPC   C4B 3781   9.344   3.321   5.176  0.0485  0.1664 -0.2692
  290POPC   NC3 3782   8.867   9.497   3.353 -0.2409  0.0984  0.1364
  290POPC   PO4 3783   9.152   9.885   3.413  0.2287  0.0766  0.1694
  290POPC   GL1 3784   9.112   9.673   3.853 -0.0240  0.0125  0.0511
  290POPC   GL2 3785   8.790   9.769   3.866  0.4155 -0.1950  0.1149
  290POPC   C1A 3786   9.200   9.673   4.360 -0.3364  0.0131 -0.1801
  290POPC   D2A 3787   9.466   9.537   4.676 -0.1889  0.3674  0.1685
  290POPC   C3A 3788   9.591   9.627   5.009  0.1926  0.1038 -0.1333
  290POPC   C4A 3789   9.253   9.523   5.337 -0.1633  0.0254  0.1397
  290POPC   C1B 3790   8.786   9.990   4.303  0.2985 -0.1094 -0.0276
  290POPC   C2B 3791   8.786  10.179   4.728  0.2953  0.0431 -0.0356
  290POPC   C3B 3792   8.985  10.464   5.037 -0.0490  0.0087 -0.2186
  290POPC   C4B 3793   9.499  10.667   5.131  0.2047  0.2657  0.0280
  291POPC   NC3 3794   9.438   2.994   3.304 -0.1740  0.1828  0.0072
  291POPC   PO4 3795   9.627   2.815   3.729  0.2571 -0.1953  0.4133
  291POPC   GL1 3796   9.335   2.579   3.958  0.0745  0.1529  0.0346
  291POPC   GL2 3797   9.073   2.802   4.124 -0.1724 -0.2258 -0.0658
  291POPC   C1A 3798   9.230   2.467   4.405 -0.0701  0.1818 -0.2454
  291POPC   D2A 3799   9.109   2.534   4.836 -0.0140 -0.0231 -0.0002
  291POPC   C3A 3800   9.409   2.544   5.110 -0.3227  0.2065  0.2506
  291POPC   C4A 3801   9.460   2.844   5.454  0.2995  0.0775  0.0654
  291POPC   C1B 3802   9.261   2.937   4.578  0.1548  0.0803 -0.0905
  291POPC   C2B 3803   9.576   2.694   4.654 -0.1973 -0.3472 -0.0651
  291POPC   C3B 3804   9.915   2.482   4.822  0.1639 -0.0247 -0.0097
  291POPC   C4B 3805  10.223   2.289   5.165  0.0651 -0.3242 -0.3885
  292POPC   NC3 3806   2.744   6.891   3.294 -0.1193 -0.3873  0.1377
  292POPC   PO4 3807   2.673   6.670   3.688  0.2066 -0.0037 -0.2256
  292POPC   GL1 3808   2.756   6.624   4.157 -0.0501  0.0136  0.3832
  292POPC   GL2 3809   2.890   6.970   4.123  0.2213 -0.0911  0.0701
  292POPC   C1A 3810   2.600   6.616   4.489 -0.3817  0.1609 -0.1221
  292POPC   D2A 3811   2.564   6.736   4.963  0.1260 -0.2009 -0.1832
  292POPC   C3A 3812   2.862   6.935   5.255  0.0707 -0.0406  0.0868
  292POPC   C4A 3813   2.884   7.227   5.619 -0.0456  0.1533  0.1589
  292POPC   C1B 3814   2.885   7.254   4.480  0.1305  0.0552  0.1711
  292POPC   C2B 3815   2.695   7.295   4.905 -0.0576 -0.0037 -0.0393
  292POPC   C3B 3816   2.508   7.287   5.314  0.3408  0.0827 -0.0324
  292POPC   C4B 3817   2.447   7.339   5.735  0.0278 -0.0087 -0.3012
  293POPC   NC3 3818   3.052   4.447   3.761 -0.0835  0.2053  0.0468
  293POPC   PO4 3819   3.151   4.750   3.660 -0.0543  0.1746  0.0409
  293POPC   GL1 3820   3.098   5.114   4.012 -0.0254  0.1793  0.2925
  293POPC   GL2 3821   2.873   4.775   4.127 -0.0166  0.2165  0.0620
  293POPC   C1A 3822   2.998   5.265   4.401 -0.0617  0.5574  0.1390
  293POPC   D2A 3823   2.766   5.282   4.633  0.3624 -0.0969 -0.1825
  293POPC   C3A 3824   2.638   4.852   4.971  0.0301  0.0256  0.0120
  293POPC   C4A 3825   2.790   4.529   5.295 -0.2763 -0.0059  0.2284
  293POPC   C1B 3826   3.000   4.767   4.580  0.2077 -0.2581  0.2153
  293POPC   C2B 3827   3.078   4.549   4.898 -0.1303 -0.0010  0.1076
  293POPC   C3B 3828   3.312   4.290   5.217 -0.0852 -0.1221 -0.0465
  293POPC   C4B 3829   3.329   3.878   5.517 -0.1197  0.5579  0.2280
  294POPC   NC3 3830   9.721   2.156   3.569 -0.1421  0.4218  0.4591
  294POPC   PO4 3831   9.902   1.739   3.356 -0.1265 -0.5665  0.1675
  294POPC   GL1 3832   9.988   1.736   3.856  0.0964  0.2025  0.0667
  294POPC   GL2 3833  10.069   1.440   4.036  0.0019  0.2166 -0.1750
  294POPC   C1A 3834   9.911   1.933   4.427 -0.0096  0.1552 -0.0285
  294POPC   D2A 3835   9.966   1.873   4.855  0.0172 -0.0284 -0.0593
  294POPC   C3A 3836  10.422   1.868   5.094  0.0414 -0.0761 -0.1524
  294POPC   C4A 3837  10.763   1.672   5.280 -0.3782  0.3312  0.1159
  294POPC   C1B 3838  10.321   1.442   4.357 -0.0698  0.0487  0.0423
  294POPC   C2B 3839  10.310   1.388   4.843  0.0483  0.3206  0.0335
  294POPC   C3B 3840  10.487   1.297   5.203 -0.2907  0.0651 -0.0234
  294POPC   C4B 3841  10.624   1.101   5.624 -0.0297 -0.0173 -0.2268
  295POPC   NC3 3842   0.584   4.854   3.409 -0.2115  0.1482 -0.0698
  295POPC   PO4 3843   0.722   4.401   3.483 -0.2362 -0.0966  0.2236
  295POPC   GL1 3844   0.726   4.380   3.932 -0.0274  0.0240 -0.3514
  295POPC   GL2 3845   0.550   4.147   4.111  0.1422 -0.0814 -0.1696
  295POPC   C1A 3846   0.877   4.538   4.378 -0.0518  0.1545  0.1926
  295POPC   D2A 3847   0.902   4.464   4.806  0.3752  0.0466  0.0418
  295POPC   C3A 3848   0.751   4.571   5.152 -0.0605 -0.0898  0.0657
  295POPC   C4A 3849   0.993   4.376   5.301 -0.0796 -0.1722  0.0814
  295POPC   C1B 3850   0.639   4.078   4.568  0.0547 -0.1511  0.0160
  295POPC   C2B 3851   0.520   4.154   5.109 -0.1184 -0.0586  0.1703
  295POPC   C3B 3852   0.467   4.342   5.452 -0.1132  0.1729 -0.1951
  295POPC   C4B 3853   0.305   4.466   5.886  0.1929 -0.1208 -0.0120
  296POPC   NC3 3854   6.917  10.894   3.664 -0.2744 -0.1101 -0.2745
  296POPC   PO4 3855   6.956  10.471   3.617  0.1962 -0.2562  0.0710
  296POPC   GL1 3856   7.022  10.395   3.948 -0.0843  0.1806  0.0754
  296POPC   GL2 3857   6.908  10.673   4.114 -0.1668  0.1481 -0.0096
  296POPC   C1A 3858   7.045  10.107   4.270 -0.2473 -0.1300  0.1541
  296POPC   D2A 3859   7.047  10.038   4.779  0.0768 -0.3933 -0.0296
  296POPC   C3A 3860   6.667  10.075   5.027 -0.0888 -0.0799  0.0091
  296POPC   C4A 3861   6.462  10.009   5.410 -0.0150  0.0560  0.0835
  296POPC   C1B 3862   7.050  10.600   4.586  0.0536 -0.1777 -0.1105
  296POPC   C2B 3863   7.019  10.441   5.058  0.0860 -0.0480  0.0499
  296POPC   C3B 3864   7.130  10.148   5.349  0.0227  0.0498  0.2116
  296POPC   C4B 3865   7.392   9.881   5.784 -0.0128  0.0017  0.3173
  297POPC   NC3 3866   9.634   9.155   3.254  0.0953 -0.1474  0.0355
  297POPC   PO4 3867   9.273   8.913   3.168  0.1191 -0.0411  0.4106
  297POPC   GL1 3868   9.207   9.091   3.586  0.0673  0.2775  0.1258
  297POPC   GL2 3869   9.448   8.742   3.758 -0.0849  0.1397 -0.1167
  297POPC   C1A 3870   9.450   9.311   3.962 -0.0962 -0.0523 -0.1484
  297POPC   D2A 3871   9.539   9.133   4.421 -0.1197  0.1315 -0.1493
  297POPC   C3A 3872   9.391   8.779   4.479  0.2009  0.3504 -0.2107
  297POPC   C4A 3873   9.246   8.409   4.619  0.0016  0.1460 -0.1443
  297POPC   C1B 3874   9.116   8.948   4.075  0.0174  0.0813  0.0145
  297POPC   C2B 3875   8.866   8.771   4.373  0.2432 -0.1019 -0.0597
  297POPC   C3B 3876   8.940   8.720   4.812 -0.2297  0.1267  0.3710
  297POPC   C4B 3877   9.310   8.544   5.137 -0.0007  0.1906  0.1509
  298POPC   NC3 3878   7.742   0.102   3.520  0.1183 -0.0715 -0.4391
  298POPC   PO4 3879   7.307   0.366   3.714  0.1278  0.1578  0.0195
  298POPC   GL1 3880   7.192   0.185   4.201  0.1937  0.2163  0.3488
  298POPC   GL2 3881   7.067   0.475   4.467  0.1491  0.4377  0.2378
  298POPC   C1A 3882   7.340   0.066   4.710 -0.4460 -0.0312  0.0399
  298POPC   D2A 3883   7.612  -0.062   4.915  0.1991 -0.0595  0.0859
  298POPC   C3A 3884   7.616  -0.227   5.378  0.0514 -0.3461 -0.1173
  298POPC   C4A 3885   7.263  -0.255   5.607  0.0604  0.0764 -0.1553
  298POPC   C1B 3886   7.518   0.559   4.625  0.1890  0.2326 -0.0013
  298POPC   C2B 3887   7.828   0.747   4.503  0.2618  0.0058 -0.0800
  298POPC   C3B 3888   8.207   0.927   4.522  0.0938 -0.1535 -0.1106
  298POPC   C4B 3889   8.514   1.134   4.734  0.0833  0.0345 -0.1799
  299POPC   NC3 3890   1.078   2.160   3.192 -0.3912  0.0856 -0.0021
  299POPC   PO4 3891   1.060   1.992   3.580 -0.2255 -0.1652  0.1334
  299POPC   GL1 3892   1.062   1.976   3.955  0.1198  0.2289  0.0195
  299POPC   GL2 3893   0.951   2.248   4.187  0.1112  0.0509  0.0549
  299POPC   C1A 3894   1.290   1.880   4.343  0.1422 -0.0611  0.0865
  299POPC   D2A 3895   1.288   1.683   4.744  0.2830  0.0126 -0.1973
  299POPC   C3A 3896   1.436   1.329   4.775  0.0121 -0.0157  0.2324
  299POPC   C4A 3897   1.651   1.053   4.896 -0.2010  0.1407  0.2948
  299POPC   C1B 3898   0.842   2.528   4.558 -0.1835  0.0546  0.1348
  299POPC   C2B 3899   0.694   2.326   4.887  0.1269 -0.1890  0.0069
  299POPC   C3B 3900   0.694   2.308   5.254 -0.1160  0.0253 -0.2757
  299POPC   C4B 3901   0.754   2.294   5.729 -0.0541  0.2747  0.3864
  300POPC   NC3 3902   2.194   4.361   3.610  0.1085  0.0087 -0.1530
  300POPC   PO4 3903   2.558   4.495   3.657 -0.0632  0.0127 -0.0605
  300POPC   GL1 3904   2.554   4.407   4.099 -0.1001  0.0376  0.2912
  300POPC   GL2 3905   2.281   4.377   4.050 -0.1309  0.1591 -0.1202
  300POPC   C1A 3906   2.524   4.650   4.503  0.0747 -0.1344 -0.1022
  300POPC   D2A 3907   2.559   4.381   4.817  0.2103 -0.1790 -0.2035
  300POPC   C3A 3908   2.377   4.213   5.170  0.1617 -0.2127 -0.1546
  300POPC   C4A 3909   1.962   3.823   5.159  0.1681 -0.0115  0.1952
  300POPC   C1B 3910   2.392   4.101   4.377  0.1257 -0.0045  0.1701
  300POPC   C2B 3911   2.646   3.695   4.363  0.3775 -0.2741  0.3151
  300POPC   C3B 3912   2.593   3.336   4.593 -0.1303 -0.0901 -0.1594
  300POPC   C4B 3913   2.507   3.421   5.027 -0.1768 -0.2527 -0.1066
  301POPC   NC3 3914   2.775   3.538   3.493  0.1282  0.1345  0.1075
  301POPC   PO4 3915   2.959   3.905   3.586 -0.1815 -0.0575  0.0781
  301POPC   GL1 3916   2.966   3.691   3.981  0.1775 -0.1360 -0.3323
  301POPC   GL2 3917   2.924   4.057   4.166  0.0311 -0.1307  0.2760
  301POPC   C1A 3918   3.112   3.530   4.367  0.0532  0.0119 -0.2244
  301POPC   D2A 3919   3.069   3.150   4.639 -0.0602 -0.2313 -0.3047
  301POPC   C3A 3920   3.258   2.826   4.848 -0.1000 -0.2385  0.2118
  301POPC   C4A 3921   3.331   2.592   5.173 -0.3348  0.1796 -0.0204
  301POPC   C1B 3922   2.889   4.070   4.555 -0.1938 -0.0317 -0.2519
  301POPC   C2B 3923   2.891   4.097   5.071  0.1812 -0.2410 -0.2095
  301POPC   C3B 3924   2.848   4.058   5.577  0.2696 -0.2864  0.0494
  301POPC   C4B 3925   2.892   3.806   5.953 -0.0119  0.1042  0.0104
  302POPC   NC3 3926   4.241   6.845   4.073  0.2289  0.0760 -0.1241
  302POPC   PO4 3927   3.869   7.168   3.902 -0.0784 -0.1406  0.0563
  302POPC   GL1 3928   3.930   7.148   4.347  0.0129  0.0270  0.1936
  302POPC   GL2 3929   3.755   7.129   4.574 -0.3712  0.2733 -0.1281
  302POPC   C1A 3930   4.166   7.126   4.841 -0.0774  0.1064  0.1549
  302POPC   D2A 3931   4.279   6.759   5.143 -0.0604  0.0081 -0.1246
  302POPC   C3A 3932   4.120   6.815   5.569 -0.1176 -0.3052 -0.1322
  302POPC   C4A 3933   4.295   6.828   5.958  0.0912 -0.0030  0.0471
  302POPC   C1B 3934   3.383   7.137   4.821 -0.2477 -0.4222  0.2017
  302POPC   C2B 3935   3.168   7.278   5.049 -0.0840 -0.2537 -0.0185
  302POPC   C3B 3936   3.011   7.580   5.246  0.1467  0.2778 -0.3658
  302POPC   C4B 3937   2.918   7.942   5.312 -0.2245  0.1469  0.0229
  303POPC   NC3 3938   2.732   5.856   2.912 -0.1441 -0.0361  0.2161
  303POPC   PO4 3939   3.006   5.852   3.284  0.2605  0.1697 -0.1146
  303POPC   GL1 3940   3.202   5.805   3.699 -0.0105 -0.2715  0.0503
  303POPC   GL2 3941   3.026   5.623   3.991 -0.0661 -0.2805 -0.0483
  303POPC   C1A 3942   3.247   6.090   4.041 -0.0733  0.0379 -0.1002
  303POPC   D2A 3943   3.491   6.377   4.295 -0.0248 -0.0555  0.0071
  303POPC   C3A 3944   3.328   6.667   4.491  0.1687 -0.2820  0.1502
  303POPC   C4A 3945   2.987   6.841   4.734  0.2265 -0.0605 -0.0058
  303POPC   C1B 3946   3.044   5.800   4.394 -0.0235  0.1199  0.1479
  303POPC   C2B 3947   2.851   6.141   4.519 -0.3881 -0.0988  0.3221
  303POPC   C3B 3948   2.940   6.299   4.975  0.2353 -0.1570 -0.0599
  303POPC   C4B 3949   3.038   6.482   5.408  0.3405  0.2275  0.2256
  304POPC   NC3 3950   7.279   4.407   3.261  0.1834 -0.0851  0.1839
  304POPC   PO4 3951   7.063   4.153   3.529  0.0741 -0.1300  0.2043
  304POPC   GL1 3952   6.718   4.155   3.737  0.1217  0.2245 -0.0171
  304POPC   GL2 3953   6.869   4.060   4.054 -0.0887  0.0770 -0.1015
  304POPC   C1A 3954   6.349   3.930   4.093 -0.0876 -0.2138  0.2271
  304POPC   D2A 3955   6.196   3.638   4.426 -0.2925 -0.1656  0.0934
  304POPC   C3A 3956   6.227   3.956   4.881  0.0566  0.2864  0.0435
  304POPC   C4A 3957   6.070   3.868   5.299 -0.1588 -0.1655  0.1451
  304POPC   C1B 3958   6.676   4.144   4.458 -0.1556 -0.1158  0.3981
  304POPC   C2B 3959   6.742   4.118   4.900  0.2228 -0.4149  0.1428
  304POPC   C3B 3960   6.541   4.119   5.341  0.1796  0.1286  0.3455
  304POPC   C4B 3961   6.791   3.941   5.660 -0.2170  0.1269  0.2024
  305POPC   NC3 3962   0.539   2.413   3.907 -0.0723  0.1283  0.1903
  305POPC   PO4 3963   0.156   2.441   4.069 -0.0636 -0.1605  0.3121
  305POPC   GL1 3964   0.399   2.370   4.398  0.0752  0.1116 -0.3052
  305POPC   GL2 3965   0.463   2.090   4.275 -0.1348 -0.1980 -0.2385
  305POPC   C1A 3966   0.261   2.504   4.768  0.1909  0.1325 -0.0534
  305POPC   D2A 3967   0.297   2.510   5.142 -0.1869  0.3020 -0.1599
  305POPC   C3A 3968   0.000   2.637   5.340  0.3666  0.3260  0.0403
  305POPC   C4A 3969  -0.463   2.569   5.567  0.0353  0.1422  0.2324
  305POPC   C1B 3970   0.848   1.903   4.586  0.0070  0.3311 -0.0012
  305POPC   C2B 3971   0.969   1.948   4.987  0.2130 -0.1423  0.0735
  305POPC   C3B 3972   0.928   1.864   5.367 -0.2068  0.1196  0.2193
  305POPC   C4B 3973   0.934   1.433   5.459 -0.0732 -0.1593  0.0477
  306POPC   NC3 3974   1.783   6.448   3.493 -0.0141 -0.0564  0.0553
  306POPC   PO4 3975   1.546   6.100   3.558  0.1264  0.0945 -0.0652
  306POPC   GL1 3976   1.588   6.204   4.020  0.0834  0.0368  0.1030
  306POPC   GL2 3977   1.931   6.100   4.122  0.1022 -0.0813  0.4032
  306POPC   C1A 3978   1.600   6.177   4.468  0.3127  0.1397  0.3463
  306POPC   D2A 3979   1.327   6.233   4.863  0.2070 -0.1792 -0.1127
  306POPC   C3A 3980   1.314   5.902   5.203 -0.1356  0.2384 -0.2348
  306POPC   C4A 3981   1.461   5.416   5.174  0.2836 -0.0313 -0.1215
  306POPC   C1B 3982   1.992   5.988   4.588 -0.2249  0.2762  0.1124
  306POPC   C2B 3983   1.869   6.033   5.000  0.2493 -0.2325 -0.1123
  306POPC   C3B 3984   1.955   6.187   5.429  0.0369  0.4300 -0.0682
  306POPC   C4B 3985   2.177   6.430   5.838 -0.0940 -0.3181  0.0260
  307POPC   NC3 3986   4.182   3.737   3.502 -0.0603 -0.1546  0.0645
  307POPC   PO4 3987   4.232   3.241   3.515 -0.1834  0.2370  0.3621
  307POPC   GL1 3988   4.243   3.045   3.930  0.2131  0.2679 -0.0137
  307POPC   GL2 3989   4.487   2.814   4.124 -0.2003  0.1678 -0.0379
  307POPC   C1A 3990   4.230   3.184   4.370  0.0597 -0.0236  0.0704
  307POPC   D2A 3991   4.225   3.314   4.870  0.1658 -0.4832  0.4589
  307POPC   C3A 3992   4.714   3.183   4.970  0.0288  0.0400  0.1071
  307POPC   C4A 3993   5.150   3.345   5.216 -0.3363  0.1452  0.1262
  307POPC   C1B 3994   4.609   2.744   4.521 -0.0331 -0.1830 -0.2760
  307POPC   C2B 3995   4.767   2.657   4.936 -0.0644 -0.4329  0.3693
  307POPC   C3B 3996   4.888   2.232   5.032 -0.0873  0.0035  0.0298
  307POPC   C4B 3997   5.207   2.060   5.224 -0.1723 -0.0950 -0.0606
  308POPC   NC3 3998   6.831   9.590   3.380  0.4226  0.0574 -0.0260
  308POPC   PO4 3999   6.440   9.594   3.379  0.0211  0.1054  0.1132
  308POPC   GL1 4000   6.579   9.531   3.813 -0.5055 -0.0201 -0.3864
  308POPC   GL2 4001   6.854   9.723   4.041  0.3664 -0.1456  0.0140
  308POPC   C1A 4002   6.373   9.608   4.188 -0.2158  0.1229 -0.0025
  308POPC   D2A 4003   6.442   9.792   4.503 -0.3671 -0.1254  0.1115
  308POPC   C3A 4004   6.204   9.938   4.816 -0.2515  0.0728  0.1601
  308POPC   C4A 4005   6.009  10.201   4.958  0.0778  0.2673 -0.2235
  308POPC   C1B 4006   7.287   9.539   4.149  0.1557  0.1747  0.1811
  308POPC   C2B 4007   7.589   9.304   4.378 -0.0558  0.0318 -0.0047
  308POPC   C3B 4008   7.582   9.124   4.733 -0.1149 -0.1911  0.0821
  308POPC   C4B 4009   7.181   9.225   4.945  0.1752  0.1982  0.1296
  309POPC   NC3 4010   5.307   1.295   3.513  0.2163 -0.2812  0.0543
  309POPC   PO4 4011   5.554   1.009   3.738 -0.0730 -0.1640  0.3097
  309POPC   GL1 4012   5.518   1.145   4.053  0.0758  0.0195  0.1512
  309POPC   GL2 4013   5.316   1.405   4.206  0.1000  0.1246  0.1172
  309POPC   C1A 4014   5.733   1.245   4.410 -0.3788  0.1879 -0.1401
  309POPC   D2A 4015   5.867   1.539   4.713  0.0808  0.0776 -0.1033
  309POPC   C3A 4016   6.249   1.572   4.990  0.0759 -0.1175  0.1524
  309POPC   C4A 4017   6.217   1.779   5.523 -0.0942  0.0706 -0.2111
  309POPC   C1B 4018   5.333   1.402   4.631  0.5560 -0.2584 -0.0085
  309POPC   C2B 4019   5.177   1.438   5.025 -0.1231  0.1284  0.1808
  309POPC   C3B 4020   5.345   1.410   5.451 -0.1655  0.3410 -0.0081
  309POPC   C4B 4021   5.590   1.412   5.780 -0.2933 -0.0423 -0.2525
  310POPC   NC3 4022   5.097   8.003   3.252 -0.0565 -0.1925 -0.2050
  310POPC   PO4 4023   4.958   7.789   3.625 -0.2316  0.1944  0.2545
  310POPC   GL1 4024   4.947   7.815   4.035  0.0741 -0.1004  0.3242
  310POPC   GL2 4025   5.080   8.036   4.162 -0.1709 -0.0410 -0.1113
  310POPC   C1A 4026   4.928   7.672   4.510 -0.1078 -0.0434  0.0498
  310POPC   D2A 4027   4.557   7.685   4.788 -0.2589 -0.1560  0.1111
  310POPC   C3A 4028   4.406   8.113   4.922  0.1476  0.3629 -0.0989
  310POPC   C4A 4029   4.582   8.507   4.720 -0.0611  0.1427  0.0441
  310POPC   C1B 4030   5.081   8.247   4.581 -0.0257  0.2537 -0.3012
  310POPC   C2B 4031   5.123   8.437   4.888  0.0028  0.3028  0.3410
  310POPC   C3B 4032   5.324   8.676   5.172 -0.1528 -0.0677 -0.0605
  310POPC   C4B 4033   5.501   9.083   5.333  0.2446 -0.1799 -0.4197
  311POPC   NC3 4034   8.153   7.167   3.333 -0.0824  0.0111 -0.1503
  311POPC   PO4 4035   8.488   7.482   3.419  0.0642 -0.0659 -0.2241
  311POPC   GL1 4036   8.601   7.566   3.849  0.1647  0.1099  0.0841
  311POPC   GL2 4037   8.491   7.812   3.934  0.3040 -0.1840  0.1686
  311POPC   C1A 4038   8.662   7.333   4.128 -0.2406 -0.1158  0.0922
  311POPC   D2A 4039   8.582   7.317   4.570  0.1199 -0.0889 -0.1611
  311POPC   C3A 4040   8.798   7.319   4.955  0.0514 -0.0958 -0.1626
  311POPC   C4A 4041   8.981   7.670   5.193 -0.0254 -0.3159  0.0385
  311POPC   C1B 4042   8.270   7.949   4.325 -0.0555  0.3107  0.0833
  311POPC   C2B 4043   8.119   8.124   4.739 -0.2823  0.0477 -0.0801
  311POPC   C3B 4044   8.151   8.020   5.180  0.2157 -0.3312  0.0729
  311POPC   C4B 4045   8.498   8.162   5.341 -0.0432 -0.2797  0.1019
  312POPC   NC3 4046   4.323   6.067   3.585  0.0544  0.2838  0.0033
  312POPC   PO4 4047   3.849   5.837   3.582 -0.1246  0.2775  0.1126
  312POPC   GL1 4048   3.701   5.906   3.985 -0.2970 -0.4125  0.1212
  312POPC   GL2 4049   3.512   5.543   3.990  0.0780  0.1467  0.1366
  312POPC   C1A 4050   3.668   5.885   4.396  0.0205 -0.1869 -0.0590
  312POPC   D2A 4051   3.458   6.010   4.644 -0.2655 -0.1561 -0.1088
  312POPC   C3A 4052   3.560   6.316   4.928 -0.2276 -0.1775 -0.0963
  312POPC   C4A 4053   3.339   6.719   5.087 -0.3045  0.0074 -0.1257
  312POPC   C1B 4054   3.447   5.484   4.321 -0.0421 -0.1235  0.1347
  312POPC   C2B 4055   3.345   5.532   4.761 -0.1794  0.3823 -0.0381
  312POPC   C3B 4056   3.279   5.815   5.069  0.0617  0.0138  0.3165
  312POPC   C4B 4057   3.180   5.717   5.517  0.1727  0.0293  0.3137
  313POPC   NC3 4058   3.403   4.168   3.455 -0.2840 -0.0768  0.0400
  313POPC   PO4 4059   3.639   4.517   3.643 -0.0599 -0.3008  0.0825
  313POPC   GL1 4060   3.477   4.499   4.009 -0.0648  0.0271  0.0551
  313POPC   GL2 4061   3.475   4.205   3.946 -0.2318 -0.0754 -0.1257
  313POPC   C1A 4062   3.222   4.390   4.337 -0.1634 -0.0484 -0.1076
  313POPC   D2A 4063   3.279   4.132   4.767 -0.1878  0.3053 -0.0630
  313POPC   C3A 4064   3.525   3.846   5.055 -0.0924 -0.1018  0.0389
  313POPC   C4A 4065   3.826   3.565   5.172 -0.2859 -0.1198  0.1956
  313POPC   C1B 4066   3.410   3.890   4.374  0.2858 -0.1260  0.2244
  313POPC   C2B 4067   3.494   3.509   4.650  0.0799 -0.2479  0.0981
  313POPC   C3B 4068   3.408   3.284   5.028 -0.1688  0.0503 -0.3459
  313POPC   C4B 4069   3.436   3.343   5.477 -0.2870  0.0035  0.0192
  314POPC   NC3 4070   8.115   4.303   3.798  0.1670 -0.0960  0.1696
  314POPC   PO4 4071   8.568   4.388   3.665  0.2840 -0.2727  0.2174
  314POPC   GL1 4072   8.565   4.066   3.852  0.1576 -0.1844  0.1076
  314POPC   GL2 4073   8.405   3.785   3.834  0.1902 -0.1113 -0.0526
  314POPC   C1A 4074   8.784   3.842   4.132 -0.1360 -0.1812 -0.0692
  314POPC   D2A 4075   9.156   3.734   4.138 -0.0143  0.4043 -0.1361
  314POPC   C3A 4076   9.393   4.136   4.300  0.2474  0.2610 -0.0272
  314POPC   C4A 4077   9.600   4.524   4.266  0.0847 -0.2741  0.0526
  314POPC   C1B 4078   8.184   3.795   4.207 -0.1349  0.2442 -0.3522
  314POPC   C2B 4079   8.262   3.903   4.608 -0.0225 -0.2686  0.0965
  314POPC   C3B 4080   8.293   3.847   5.049 -0.0568  0.1474 -0.0594
  314POPC   C4B 4081   8.444   3.599   5.439  0.1133 -0.1456  0.1324
  315POPC   NC3 4082   6.679   5.447   3.784 -0.0344  0.1005  0.0041
  315POPC   PO4 4083   6.310   5.079   3.874  0.1430  0.0268 -0.1023
  315POPC   GL1 4084   6.323   4.784   4.027  0.2664  0.0108 -0.1249
  315POPC   GL2 4085   6.535   4.584   3.946  0.2308  0.0904  0.1206
  315POPC   C1A 4086   6.329   4.521   4.507  0.0403 -0.0338 -0.0830
  315POPC   D2A 4087   6.323   4.500   4.947 -0.0581  0.1161 -0.0221
  315POPC   C3A 4088   6.672   4.647   5.188  0.0614 -0.2880 -0.4188
  315POPC   C4A 4089   6.707   5.058   5.330 -0.3099 -0.1459  0.1187
  315POPC   C1B 4090   6.735   4.593   4.254 -0.4207 -0.2498  0.3286
  315POPC   C2B 4091   6.786   4.588   4.691 -0.1486 -0.1559  0.1855
  315POPC   C3B 4092   7.090   4.471   4.968  0.2245  0.0488  0.1663
  315POPC   C4B 4093   7.163   4.251   5.351  0.1628 -0.1170 -0.0249
  316POPC   NC3 4094   5.241   6.105   3.578  0.0355 -0.3535 -0.1689
  316POPC   PO4 4095   5.533   6.240   3.942 -0.2188 -0.2889 -0.2509
  316POPC   GL1 4096   5.182   6.119   4.122 -0.0837 -0.1787 -0.0122
  316POPC   GL2 4097   5.477   6.077   4.429 -0.0587 -0.0159 -0.0254
  316POPC   C1A 4098   4.772   5.965   4.287 -0.0670  0.2425 -0.0045
  316POPC   D2A 4099   4.332   5.912   4.219  0.1840  0.1902 -0.2020
  316POPC   C3A 4100   4.070   5.731   4.615  0.0305  0.0992  0.2333
  316POPC   C4A 4101   3.792   5.754   4.928  0.3844  0.0645  0.0665
  316POPC   C1B 4102   5.663   6.405   4.649  0.4626  0.0655  0.1704
  316POPC   C2B 4103   5.767   6.575   4.992  0.1126  0.0747 -0.1977
  316POPC   C3B 4104   5.846   6.278   5.288 -0.4280  0.1792  0.0222
  316POPC   C4B 4105   5.760   6.191   5.725 -0.2376  0.3358  0.1323
  317POPC   NC3 4106   4.783   4.338   3.554 -0.0214  0.2736 -0.1678
  317POPC   PO4 4107   4.942   4.774   3.363 -0.0855  0.0659  0.0660
  317POPC   GL1 4108   4.850   4.757   3.842 -0.1381  0.2924 -0.1433
  317POPC   GL2 4109   4.668   5.071   3.875  0.0353  0.0973  0.0365
  317POPC   C1A 4110   4.769   4.577   4.253 -0.3062 -0.0226  0.0013
  317POPC   D2A 4111   5.003   4.388   4.601  0.2793 -0.0396 -0.0523
  317POPC   C3A 4112   4.892   4.432   5.118  0.0230 -0.3039 -0.0192
  317POPC   C4A 4113   4.553   4.135   5.308 -0.0335  0.0389  0.1484
  317POPC   C1B 4114   4.265   4.991   4.265 -0.0649  0.0833  0.1076
  317POPC   C2B 4115   4.284   4.719   4.633  0.0143  0.0827 -0.0097
  317POPC   C3B 4116   4.400   4.632   5.120 -0.2056 -0.2386 -0.2419
  317POPC   C4B 4117   4.594   4.882   5.523  0.1938 -0.0266  0.3023
  318POPC   NC3 4118   1.527   1.419   3.046 -0.2800 -0.3735 -0.3875
  318POPC   PO4 4119   1.471   1.230   3.462  0.0495  0.0327  0.0556
  318POPC   GL1 4120   1.454   1.314   3.888 -0.0203 -0.2471  0.0201
  318POPC   GL2 4121   1.700   1.350   3.991  0.1378  0.0966  0.1877
  318POPC   C1A 4122   1.317   1.181   4.297 -0.0637  0.2649 -0.2218
  318POPC   D2A 4123   1.225   0.966   4.582 -0.0407 -0.1373 -0.1020
  318POPC   C3A 4124   1.038   0.474   4.670  0.1149 -0.3084 -0.1300
  318POPC   C4A 4125   1.058   0.190   5.076 -0.2317  0.1440  0.0386
  318POPC   C1B 4126   1.728   1.514   4.407 -0.3544 -0.1274  0.1060
  318POPC   C2B 4127   1.929   1.782   4.598 -0.3062  0.4763  0.0005
  318POPC   C3B 4128   2.405   2.036   4.613 -0.1479  0.0169  0.1887
  318POPC   C4B 4129   2.691   1.903   4.995  0.2980  0.2520 -0.2643
  319POPC   NC3 4130   1.570   9.946   3.298  0.0165 -0.0452 -0.2876
  319POPC   PO4 4131   1.881   9.597   3.546 -0.0666 -0.0449 -0.2978
  319POPC   GL1 4132   2.014   9.582   4.058  0.1368  0.2729 -0.0163
  319POPC   GL2 4133   1.698   9.591   4.319  0.0824 -0.1718  0.1318
  319POPC   C1A 4134   2.235   9.508   4.389  0.1880 -0.0384 -0.4334
  319POPC   D2A 4135   2.155   9.613   4.893 -0.1515 -0.2719  0.1210
  319POPC   C3A 4136   2.374  10.001   5.169  0.0429 -0.1982 -0.0393
  319POPC   C4A 4137   2.476  10.493   5.365 -0.1160  0.0051  0.0879
  319POPC   C1B 4138   1.545   9.758   4.745 -0.0498  0.1763  0.0506
  319POPC   C2B 4139   1.529   9.696   5.224  0.1644  0.2811 -0.1137
  319POPC   C3B 4140   1.623   9.497   5.667 -0.1748 -0.0292  0.4230
  319POPC   C4B 4141   1.615   9.227   6.051  0.0099 -0.0695 -0.3753
  320POPC   NC3 4142  10.263   2.792   3.628 -0.3385  0.3942  0.1487
  320POPC   PO4 4143  10.711   2.977   3.697  0.0743  0.0415  0.0407
  320POPC   GL1 4144  11.038   3.119   4.002  0.0203 -0.1167  0.0583
  320POPC   GL2 4145  11.279   2.898   4.035  0.0196  0.1967 -0.2383
  320POPC   C1A 4146  10.914   2.949   4.413 -0.0234  0.0576 -0.0541
  320POPC   D2A 4147  10.552   3.000   4.549 -0.2765  0.0410  0.0595
  320POPC   C3A 4148  10.450   3.396   4.786  0.1716 -0.2776  0.1307
  320POPC   C4A 4149  10.366   3.523   5.214 -0.1859 -0.1723 -0.2597
  320POPC   C1B 4150  11.356   2.937   4.493  0.2543 -0.3191  0.2585
  320POPC   C2B 4151  11.441   3.127   4.830  0.1790  0.1949 -0.1592
  320POPC   C3B 4152  11.657   2.812   5.042 -0.0108 -0.3591 -0.3084
  320POPC   C4B 4153  12.035   2.494   5.161 -0.0126 -0.3380  0.3066
  321POPC   NC3 4154   5.402   4.832   3.432 -0.2628  0.2874 -0.2888
  321POPC   PO4 4155   5.598   5.243   3.605  0.3109 -0.0237 -0.4729
  321POPC   GL1 4156   5.708   5.185   4.020 -0.0255  0.0361 -0.1803
  321POPC   GL2 4157   5.761   4.851   4.207  0.2020 -0.2436  0.4489
  321POPC   C1A 4158   5.450   5.188   4.439  0.1422  0.2172  0.4502
  321POPC   D2A 4159   5.200   5.154   4.736 -0.0510 -0.1522  0.1316
  321POPC   C3A 4160   4.931   5.346   4.789 -0.0836 -0.2724 -0.1320
  321POPC   C4A 4161   4.646   5.594   4.662 -0.1283  0.0583  0.0751
  321POPC   C1B 4162   5.865   4.898   4.567  0.2316 -0.1819  0.2730
  321POPC   C2B 4163   5.847   4.764   4.983 -0.1116 -0.0527  0.1127
  321POPC   C3B 4164   5.741   4.750   5.475  0.3003 -0.2080 -0.1369
  321POPC   C4B 4165   5.938   4.804   5.862  0.2162  0.1738  0.1284
  322POPC   NC3 4166   5.858   8.725   3.288 -0.1522  0.2774  0.1881
  322POPC   PO4 4167   5.999   8.857   3.705  0.0628  0.0815  0.2178
  322POPC   GL1 4168   5.962   8.588   4.088 -0.2161  0.1278  0.1253
  322POPC   GL2 4169   5.662   8.519   4.166  0.0951 -0.0209  0.0146
  322POPC   C1A 4170   6.279   8.219   4.220 -0.3285 -0.0200  0.0662
  322POPC   D2A 4171   6.434   8.292   4.685 -0.2395  0.0988  0.2830
  322POPC   C3A 4172   6.132   8.385   4.964  0.1127 -0.1654 -0.2732
  322POPC   C4A 4173   6.009   8.212   5.421  0.0054  0.1010  0.1290
  322POPC   C1B 4174   5.769   8.341   4.608 -0.1262 -0.0372 -0.1017
  322POPC   C2B 4175   5.613   8.276   4.973 -0.1040 -0.0819 -0.0457
  322POPC   C3B 4176   5.481   8.221   5.438  0.5551  0.1014 -0.1676
  322POPC   C4B 4177   5.474   8.113   5.895 -0.0583  0.0243 -0.1197
  323POPC   NC3 4178   1.172   7.022   3.611  0.1896 -0.2972 -0.1493
  323POPC   PO4 4179   1.341   7.239   3.936  0.1632  0.0233  0.1126
  323POPC   GL1 4180   1.132   7.136   4.221  0.0080  0.1165 -0.4214
  323POPC   GL2 4181   1.011   7.368   4.334 -0.0687  0.2889  0.3162
  323POPC   C1A 4182   1.334   6.946   4.613  0.0165 -0.2025  0.2542
  323POPC   D2A 4183   1.177   6.678   4.974  0.2028  0.4449  0.0416
  323POPC   C3A 4184   0.880   6.740   5.259 -0.1156 -0.0374  0.1101
  323POPC   C4A 4185   0.828   6.821   5.699 -0.1843 -0.0788  0.1399
  323POPC   C1B 4186   0.865   7.629   4.659 -0.1947 -0.1715 -0.0400
  323POPC   C2B 4187   0.514   7.866   4.724  0.0693 -0.2037 -0.0827
  323POPC   C3B 4188   0.279   8.183   4.968  0.3288  0.1611 -0.0990
  323POPC   C4B 4189   0.202   8.408   5.203 -0.0419  0.1044 -0.1299
  324POPC   NC3 4190   5.274   2.997   3.520  0.1614 -0.1571 -0.1132
  324POPC   PO4 4191   5.144   3.391   3.680 -0.2232 -0.0653  0.1570
  324POPC   GL1 4192   5.441   3.517   4.040  0.2847  0.1370  0.1654
  324POPC   GL2 4193   5.209   3.554   4.330 -0.2397  0.0046 -0.1089
  324POPC   C1A 4194   5.704   3.738   4.266 -0.4267  0.2674  0.1904
  324POPC   D2A 4195   5.811   3.784   4.695 -0.0456 -0.3500  0.0240
  324POPC   C3A 4196   5.666   3.612   5.107  0.3204 -0.1163 -0.2653
  324POPC   C4A 4197   5.438   3.704   5.398  0.3857  0.0960 -0.0068
  324POPC   C1B 4198   5.073   3.673   4.758  0.2740 -0.2234  0.0161
  324POPC   C2B 4199   4.953   3.871   5.059  0.0176  0.2409  0.0856
  324POPC   C3B 4200   4.853   3.726   5.442  0.0434  0.4114 -0.0579
  324POPC   C4B 4201   4.887   3.889   5.886 -0.1962 -0.2451  0.1038
  325POPC   NC3 4202  10.899   9.747   3.082 -0.2409 -0.4396 -0.2362
  325POPC   PO4 4203  10.893   9.458   3.404  0.2938  0.0163  0.0814
  325POPC   GL1 4204  10.693   9.537   3.817  0.1385  0.1498 -0.1609
  325POPC   GL2 4205  10.682   9.922   3.972  0.1157 -0.1899  0.0224
  325POPC   C1A 4206  10.872   9.462   4.235 -0.2973 -0.1469 -0.1973
  325POPC   D2A 4207  10.986   9.393   4.625  0.1532  0.0340  0.1585
  325POPC   C3A 4208  11.286   9.566   4.905 -0.1937  0.3397  0.0174
  325POPC   C4A 4209  11.600   9.488   5.263 -0.0568  0.0035 -0.2007
  325POPC   C1B 4210  10.715   9.841   4.507 -0.0673  0.2988  0.0553
  325POPC   C2B 4211  10.937   9.983   4.907 -0.0669  0.2410  0.1586
  325POPC   C3B 4212  11.169  10.017   5.181 -0.1383  0.0160  0.2955
  325POPC   C4B 4213  11.504   9.999   5.292  0.0482 -0.0888  0.0729
  326POPC   NC3 4214   0.444   5.538   3.299 -0.0573 -0.3528 -0.0892
  326POPC   PO4 4215   0.631   5.297   3.647 -0.0935  0.0695 -0.1553
  326POPC   GL1 4216   0.368   5.091   3.970 -0.0699 -0.0178 -0.0929
  326POPC   GL2 4217   0.603   4.843   4.013  0.1559  0.0402  0.1126
  326POPC   C1A 4218   0.111   5.072   4.383  0.1136  0.0167  0.2025
  326POPC   D2A 4219   0.199   5.097   4.817  0.1288 -0.0812 -0.1301
  326POPC   C3A 4220  -0.163   5.118   5.085  0.2443  0.1752  0.0150
  326POPC   C4A 4221  -0.440   4.938   5.285  0.0326 -0.0252  0.2051
  326POPC   C1B 4222   0.586   5.012   4.448  0.2269  0.2358 -0.2598
  326POPC   C2B 4223   0.689   5.054   4.792 -0.0968  0.1225  0.5035
  326POPC   C3B 4224   0.601   5.136   5.175 -0.1891 -0.0374 -0.0662
  326POPC   C4B 4225   0.699   5.335   5.592  0.1058  0.2055 -0.3403
  327POPC   NC3 4226   0.374   6.644   3.249 -0.0247 -0.0405  0.1433
  327POPC   PO4 4227   0.464   6.107   3.270  0.0726  0.0589 -0.0435
  327POPC   GL1 4228   0.338   5.904   3.646 -0.1360 -0.0486 -0.0381
  327POPC   GL2 4229   0.281   5.637   3.867 -0.1123  0.0263 -0.3325
  327POPC   C1A 4230   0.418   6.068   4.033  0.0965  0.0607 -0.0757
  327POPC   D2A 4231   0.532   6.464   4.210  0.1385  0.0434  0.3011
  327POPC   C3A 4232   0.220   6.751   4.434  0.0695  0.1626  0.2838
  327POPC   C4A 4233  -0.118   6.796   4.652 -0.1111  0.0660 -0.2721
  327POPC   C1B 4234   0.337   5.514   4.290 -0.1004 -0.3169  0.3147
  327POPC   C2B 4235   0.368   5.507   4.591 -0.1233  0.2553  0.3198
  327POPC   C3B 4236   0.404   5.504   4.939  0.0444 -0.0991  0.2022
  327POPC   C4B 4237   0.179   5.469   5.231  0.1624 -0.1597 -0.4197
  328POPC   NC3 4238   3.441   2.690   3.617  0.1619 -0.0150 -0.0046
  328POPC   PO4 4239   3.685   2.321   3.852  0.0532  0.2344  0.0849
  328POPC   GL1 4240   3.759   2.726   4.074  0.3832 -0.0208  0.0978
  328POPC   GL2 4241   3.876   2.569   4.219 -0.3615  0.1343 -0.2587
  328POPC   C1A 4242   3.569   3.054   4.373 -0.1045 -0.2342 -0.0542
  328POPC   D2A 4243   3.830   3.096   4.772  0.0918  0.2318  0.1355
  328POPC   C3A 4244   3.676   2.926   5.186 -0.0905  0.1217 -0.3283
  328POPC   C4A 4245   3.480   2.896   5.671 -0.2739 -0.0281 -0.1970
  328POPC   C1B 4246   4.106   2.625   4.554  0.0430 -0.0182  0.3277
  328POPC   C2B 4247   4.209   2.800   5.010 -0.1446 -0.1650 -0.2457
  328POPC   C3B 4248   4.352   3.104   5.268 -0.1136  0.1473  0.2332
  328POPC   C4B 4249   4.666   3.203   5.538  0.1118  0.2429  0.0794
  329POPC   NC3 4250   3.125   9.948   3.264  0.1336  0.0299 -0.0133
  329POPC   PO4 4251   2.666   9.979   3.333 -0.1027  0.0041  0.2112
  329POPC   GL1 4252   2.860  10.118   3.729 -0.0211 -0.1372 -0.2335
  329POPC   GL2 4253   2.743   9.979   3.944 -0.1156 -0.0069 -0.4948
  329POPC   C1A 4254   3.174  10.166   4.072  0.1153  0.0021 -0.1462
  329POPC   D2A 4255   3.534   9.978   4.302 -0.1546 -0.3852 -0.0610
  329POPC   C3A 4256   3.665   9.854   4.739  0.3033  0.1760  0.0544
  329POPC   C4A 4257   3.598   9.807   5.201 -0.1410 -0.1492 -0.0520
  329POPC   C1B 4258   2.803   9.908   4.263 -0.2618 -0.1102 -0.0280
  329POPC   C2B 4259   2.808   9.614   4.530  0.2491  0.1248 -0.3755
  329POPC   C3B 4260   2.762   9.511   4.929  0.1053  0.0141 -0.0237
  329POPC   C4B 4261   3.098   9.384   5.205 -0.4679 -0.2133  0.0915
  330POPC   NC3 4262   5.916   5.971   4.167 -0.1628  0.2199  0.2793
  330POPC   PO4 4263   6.067   5.535   4.083 -0.0664 -0.0774  0.0129
  330POPC   GL1 4264   6.055   5.436   4.484  0.0326  0.0330 -0.0740
  330POPC   GL2 4265   5.714   5.650   4.579  0.0899  0.0214  0.2089
  330POPC   C1A 4266   5.895   5.244   4.882  0.1672  0.1697  0.0731
  330POPC   D2A 4267   5.493   5.217   5.100  0.0909 -0.1389 -0.2189
  330POPC   C3A 4268   5.437   5.616   5.409 -0.2669  0.0470 -0.3568
  330POPC   C4A 4269   5.448   6.023   5.421 -0.0144 -0.0643 -0.4137
  330POPC   C1B 4270   5.641   5.923   4.927  0.0159 -0.2012  0.0851
  330POPC   C2B 4271   5.329   6.228   4.946  0.0374 -0.0333  0.1975
  330POPC   C3B 4272   5.355   6.497   5.302 -0.1242 -0.1374  0.1817
  330POPC   C4B 4273   5.188   6.752   5.713  0.1428  0.0230 -0.1694
  331POPC   NC3 4274   9.114   2.056   3.706  0.0864 -0.1494  0.2222
  331POPC   PO4 4275   9.081   1.827   4.071  0.2822  0.6194 -0.0435
  331POPC   GL1 4276   9.206   1.694   4.477 -0.1022  0.2344 -0.0334
  331POPC   GL2 4277   9.405   1.963   4.511 -0.2156 -0.0029  0.0873
  331POPC   C1A 4278   9.371   1.593   4.870 -0.4762  0.1422  0.4085
  331POPC   D2A 4279   9.342   1.251   5.199 -0.2138 -0.2093 -0.0218
  331POPC   C3A 4280   8.963   1.182   5.510 -0.0320  0.0721  0.0667
  331POPC   C4A 4281   8.451   1.337   5.626  0.1731 -0.0304 -0.0178
  331POPC   C1B 4282   9.512   2.082   4.822  0.1839 -0.0714  0.0246
  331POPC   C2B 4283   9.754   2.209   5.256  0.1752  0.2202  0.0770
  331POPC   C3B 4284   9.511   2.358   5.589  0.0707  0.3021  0.2448
  331POPC   C4B 4285   9.357   2.529   5.870 -0.0928  0.0500 -0.0677
  332POPC   NC3 4286   1.343   8.971   3.471  0.2028  0.1560 -0.0213
  332POPC   PO4 4287   0.961   9.029   3.329  0.0769 -0.2309 -0.0051
  332POPC   GL1 4288   0.668   8.897   3.628  0.1150 -0.2191  0.0495
  332POPC   GL2 4289   0.650   8.566   3.633  0.1800  0.2464  0.0584
  332POPC   C1A 4290   0.420   8.860   3.999 -0.0598 -0.1542 -0.1544
  332POPC   D2A 4291   0.461   8.705   4.408  0.3930  0.3989 -0.0894
  332POPC   C3A 4292   0.293   8.900   4.780  0.2092 -0.0808 -0.0072
  332POPC   C4A 4293   0.130   9.129   5.065 -0.3912  0.1507  0.0497
  332POPC   C1B 4294   0.771   8.447   4.066  0.2441  0.0594  0.0449
  332POPC   C2B 4295   0.925   8.080   4.261 -0.0771  0.1564  0.0718
  332POPC   C3B 4296   1.032   8.062   4.856 -0.0547 -0.0812 -0.0024
  332POPC   C4B 4297   0.932   7.788   5.167  0.0172 -0.2485  0.0986
  333POPC   NC3 4298   4.930   1.304   3.866  0.0794  0.0374 -0.0047
  333POPC   PO4 4299   4.967   0.972   3.545 -0.1546 -0.0722  0.1637
  333POPC   GL1 4300   5.106   0.890   4.052  0.1660  0.1493  0.2300
  333POPC   GL2 4301   5.224   0.584   4.120  0.2722  0.1770 -0.1933
  333POPC   C1A 4302   5.122   1.016   4.433 -0.0629  0.1324  0.0899
  333POPC   D2A 4303   5.012   0.944   4.815 -0.0224 -0.0518  0.1252
  333POPC   C3A 4304   4.875   1.172   5.308  0.1792  0.0826  0.3191
  333POPC   C4A 4305   4.983   1.193   5.828 -0.0123  0.1318 -0.0601
  333POPC   C1B 4306   5.240   0.496   4.553  0.0907  0.1524 -0.0237
  333POPC   C2B 4307   5.293   0.590   5.005 -0.1104  0.1450 -0.1881
  333POPC   C3B 4308   5.524   0.475   5.437  0.1840 -0.1846 -0.0254
  333POPC   C4B 4309   5.569   0.114   5.690 -0.0704 -0.4034 -0.0542
  334POPC   NC3 4310   5.712   6.724   3.920 -0.1439  0.0136 -0.1910
  334POPC   PO4 4311   6.076   7.034   3.927  0.1228 -0.1899 -0.2837
  334POPC   GL1 4312   5.676   7.056   4.263  0.1523  0.0917  0.0075
  334POPC   GL2 4313   5.401   7.218   4.304 -0.0444 -0.0470  0.1598
  334POPC   C1A 4314   5.596   6.904   4.638 -0.1121 -0.1674 -0.1811
  334POPC   D2A 4315   5.276   6.786   4.867  0.0451 -0.2852  0.2625
  334POPC   C3A 4316   5.119   7.037   5.227 -0.4065  0.0459  0.0042
  334POPC   C4A 4317   4.946   7.395   5.531  0.2194  0.1049 -0.1190
  334POPC   C1B 4318   5.021   7.222   4.594 -0.2652  0.3050  0.0150
  334POPC   C2B 4319   4.723   7.211   4.961 -0.0825  0.0664  0.1236
  334POPC   C3B 4320   4.426   7.290   5.329 -0.1604 -0.0862  0.2114
  334POPC   C4B 4321   4.259   7.262   5.697 -0.0223 -0.0351 -0.3119
  335POPC   NC3 4322   2.741   5.078   3.674  0.0070  0.1916  0.2522
  335POPC   PO4 4323   2.683   5.515   3.616 -0.3501 -0.0534 -0.0502
  335POPC   GL1 4324   2.607   5.425   4.133 -0.1296  0.1334  0.0328
  335POPC   GL2 4325   2.415   5.038   4.149 -0.0311 -0.2046 -0.0281
  335POPC   C1A 4326   2.604   5.698   4.458  0.0111  0.1956  0.1426
  335POPC   D2A 4327   2.834   5.737   4.907 -0.0614  0.1737 -0.1694
  335POPC   C3A 4328   3.005   5.385   5.136 -0.0539  0.0886 -0.2018
  335POPC   C4A 4329   2.753   5.083   5.359 -0.0589  0.0351 -0.0620
  335POPC   C1B 4330   2.259   5.080   4.590 -0.0088  0.1637  0.2510
  335POPC   C2B 4331   2.136   5.143   5.037  0.0052 -0.0709 -0.2211
  335POPC   C3B 4332   2.207   5.228   5.505 -0.2056 -0.0614  0.2993
  335POPC   C4B 4333   2.066   4.965   5.864  0.2994  0.1391  0.4063
  336POPC   NC3 4334   3.310   0.008   3.658  0.1160 -0.0793 -0.3005
  336POPC   PO4 4335   2.926   0.164   3.747  0.1059  0.0828  0.1385
  336POPC   GL1 4336   2.939   0.103   4.160 -0.2967  0.1562  0.0692
  336POPC   GL2 4337   2.648   0.244   4.129 -0.0347 -0.1132 -0.1195
  336POPC   C1A 4338   2.914   0.382   4.530 -0.1819 -0.0337 -0.1762
  336POPC   D2A 4339   3.137   0.624   4.845  0.0703 -0.1393  0.0412
  336POPC   C3A 4340   2.966   0.675   5.253  0.2525  0.0558 -0.0490
  336POPC   C4A 4341   2.612   0.597   5.479 -0.2235  0.0063  0.2090
  336POPC   C1B 4342   2.378  -0.050   4.410  0.3001 -0.0333  0.0995
  336POPC   C2B 4343   2.018  -0.243   4.562 -0.0623  0.1154  0.1245
  336POPC   C3B 4344   1.763  -0.358   4.861  0.2805 -0.1444  0.3599
  336POPC   C4B 4345   1.449  -0.565   5.213 -0.3246 -0.1724 -0.0426
  337POPC   NC3 4346   6.880   5.943   4.096  0.0791 -0.0833  0.0633
  337POPC   PO4 4347   7.326   5.989   4.234 -0.1022 -0.0429  0.4089
  337POPC   GL1 4348   7.061   6.125   4.545 -0.3563 -0.1251 -0.0109
  337POPC   GL2 4349   6.869   5.966   4.598 -0.1109  0.0624 -0.1163
  337POPC   C1A 4350   7.090   6.145   5.006  0.0502 -0.1430  0.0537
  337POPC   D2A 4351   7.293   6.581   5.099  0.0189 -0.4254 -0.0182
  337POPC   C3A 4352   7.217   6.661   5.495 -0.0537  0.0132 -0.1223
  337POPC   C4A 4353   7.092   6.838   5.907  0.4280 -0.2095 -0.3651
  337POPC   C1B 4354   6.778   5.604   4.804  0.2256  0.4927 -0.1441
  337POPC   C2B 4355   6.452   5.462   4.961 -0.0389 -0.1600 -0.1475
  337POPC   C3B 4356   6.103   5.698   5.083  0.0001 -0.0609  0.1025
  337POPC   C4B 4357   6.063   5.795   5.483 -0.0705 -0.4486 -0.1081
  338POPC   NC3 4358   8.146   8.980   3.182  0.1774 -0.0022 -0.1030
  338POPC   PO4 4359   8.365   9.318   3.237  0.3071 -0.0209  0.1218
  338POPC   GL1 4360   8.222   9.079   3.672  0.0026  0.1405  0.0871
  338POPC   GL2 4361   8.640   9.068   3.825  0.1498  0.2644  0.0068
  338POPC   C1A 4362   8.251   8.827   4.085  0.0513 -0.0483  0.4671
  338POPC   D2A 4363   8.291   8.709   4.488 -0.1700 -0.1932 -0.1949
  338POPC   C3A 4364   8.488   9.052   4.800 -0.3097 -0.2340  0.0597
  338POPC   C4A 4365   8.809   9.137   5.094  0.2129 -0.0118 -0.0961
  338POPC   C1B 4366   8.795   9.318   4.206 -0.0621 -0.0564 -0.4367
  338POPC   C2B 4367   8.580   9.534   4.606 -0.0837 -0.0136 -0.0010
  338POPC   C3B 4368   8.882   9.700   4.873  0.0208  0.0654 -0.3984
  338POPC   C4B 4369   9.172   9.957   4.772 -0.1386  0.1283  0.1870
  339POPC   NC3 4370  10.550   5.160   3.408 -0.3956 -0.0773 -0.2096
  339POPC   PO4 4371  10.333   4.788   3.718 -0.1451  0.0697  0.0823
  339POPC   GL1 4372  10.471   4.566   4.000 -0.0451  0.1204 -0.0753
  339POPC   GL2 4373  10.789   4.452   3.983  0.2414 -0.0844  0.0246
  339POPC   C1A 4374  10.604   4.643   4.478 -0.3420 -0.3888 -0.0691
  339POPC   D2A 4375  10.684   4.683   4.840 -0.1032  0.3179 -0.1143
  339POPC   C3A 4376  10.393   4.381   5.077 -0.1488 -0.2194  0.0192
  339POPC   C4A 4377  10.195   4.305   5.488  0.1912  0.1773  0.2941
  339POPC   C1B 4378  11.135   4.566   4.191 -0.0577  0.0298 -0.1158
  339POPC   C2B 4379  11.341   4.584   4.659 -0.0953  0.3292 -0.0510
  339POPC   C3B 4380  11.127   4.691   5.110  0.1687  0.1544 -0.1019
  339POPC   C4B 4381  11.034   4.879   5.502 -0.1371  0.1215  0.0102
  340POPC   NC3 4382   0.178   4.100   3.778 -0.3550  0.1256  0.0428
  340POPC   PO4 4383  -0.289   3.842   3.763 -0.2680  0.0865  0.0183
  340POPC   GL1 4384  -0.092   3.785   4.221  0.0598  0.4052 -0.1320
  340POPC   GL2 4385   0.193   3.827   4.378 -0.0072 -0.4717  0.2164
  340POPC   C1A 4386  -0.234   3.803   4.656  0.1779 -0.1461 -0.0534
  340POPC   D2A 4387  -0.502   3.937   4.941 -0.0110  0.0013 -0.0929
  340POPC   C3A 4388  -0.347   3.948   5.337  0.0242  0.0215 -0.0323
  340POPC   C4A 4389  -0.385   4.078   5.738 -0.0093  0.0922  0.0594
  340POPC   C1B 4390   0.090   4.207   4.630 -0.3311 -0.0456 -0.1531
  340POPC   C2B 4391  -0.013   4.233   5.038 -0.0186  0.0398 -0.3697
  340POPC   C3B 4392  -0.073   4.428   5.473 -0.1229  0.0310  0.0654
  340POPC   C4B 4393  -0.329   4.578   5.692 -0.2772  0.3099  0.0551
  341POPC   NC3 4394   8.610   0.443   3.855 -0.0540  0.3309  0.0245
  341POPC   PO4 4395   8.219   0.195   3.791 -0.2117  0.2917 -0.0577
  341POPC   GL1 4396   8.062  -0.085   4.093 -0.0431  0.0820  0.0095
  341POPC   GL2 4397   7.682   0.103   4.087 -0.1090 -0.4701  0.1027
  341POPC   C1A 4398   7.974  -0.346   4.467  0.1436 -0.2821 -0.0997
  341POPC   D2A 4399   8.007  -0.577   4.911  0.2122 -0.1897  0.4042
  341POPC   C3A 4400   8.223  -0.971   4.918 -0.2319  0.3483  0.1468
  341POPC   C4A 4401   8.458  -1.379   5.089 -0.1551 -0.0739 -0.0195
  341POPC   C1B 4402   7.889   0.160   4.534  0.0801  0.1814  0.0776
  341POPC   C2B 4403   7.868   0.386   4.946  0.0903  0.1903  0.0188
  341POPC   C3B 4404   7.546   0.435   5.263 -0.0129  0.0289 -0.3024
  341POPC   C4B 4405   7.115   0.509   5.071  0.0123  0.0598  0.0891
  342W        W 4406  10.566   2.701   1.058 -0.0232 -0.1471  0.2041
  343W        W 4407  10.571   2.227   9.100 -0.2881 -0.3145 -0.0836
  344W        W 4408   3.625   1.052   9.018 -0.0186  0.1575 -0.2438
  345W        W 4409   3.158   0.866  10.523  0.0214 -0.3330 -0.2320
  346W        W 4410   7.736   1.859   2.014  0.0709 -0.1931 -0.1468
  347W        W 4411   5.574   1.682   8.746  0.1997 -0.1070 -0.1131
  348W        W 4412   1.948   3.519   9.655 -0.1891  0.1533  0.0164
  349W        W 4413   1.707   8.115  10.580  0.0872  0.1073  0.0201
  350W        W 4414   3.888   1.598  10.217  0.0883  0.0658 -0.2489
  351W        W 4415   8.165   7.467   0.973 -0.1925  0.0674  0.4513
  352W        W 4416   0.665   2.349   2.894 -0.1370  0.1263 -0.1792
  353W        W 4417   4.053   2.244   1.080 -0.2267 -0.0962 -0.0806
  354W        W 4418   3.485   6.564   2.743 -0.2247 -0.1564  0.2120
  355W        W 4419   0.967   0.125   0.950 -0.6433 -0.2324  0.0015
  356W        W 4420   1.331   5.009   8.714  0.2998 -0.0778 -0.1338
  357W        W 4421   9.019   9.518   1.175 -0.1144  0.1393  0.1324
  358W        W 4422   7.496   7.103  10.071  0.0735  0.2324 -0.1208
  359W        W 4423   1.989   3.497   2.106 -0.0364  0.1376  0.0097
  360W        W 4424   3.142   0.576   1.844  0.0986  0.1282  0.3299
  361W        W 4425   3.265   9.119   2.785 -0.0333 -0.1565  0.1406
  362W        W 4426   7.531   1.879   2.958  0.0015  0.0822  0.1096
  363W        W 4427   5.043   3.115   7.788 -0.1200 -0.2558  0.2489
  364W        W 4428   7.270   7.126   8.989  0.1796 -0.0344  0.3485
  365W        W 4429   9.367   1.610   8.638  0.0723 -0.2060 -0.1537
  366W        W 4430   7.972   2.778   8.491 -0.2784  0.0525  0.4264
  367W        W 4431   2.493   9.989   1.602 -0.2138 -0.0063  0.3259
  368W        W 4432  10.078   1.510   7.383 -0.0678 -0.5378 -0.1866
  369W        W 4433   4.889   1.040   1.171  0.1842 -0.1917  0.0560
  370W        W 4434   9.045   2.131   7.107 -0.1142  0.2490  0.4135
  371W        W 4435   8.010   2.969  10.006 -0.3598 -0.0519 -0.1440
  372W        W 4436   9.641   5.254   0.016 -0.1497  0.0649 -0.1381
  373W        W 4437   2.416   7.093   1.936  0.1786  0.2202  0.1168
  374W        W 4438   3.860   3.562   9.081  0.2282 -0.1592  0.1628
  375W        W 4439   4.303   6.533   3.168 -0.0205  0.0741  0.0254
  376W        W 4440   0.118   5.696   9.352  0.1556  0.1760  0.1724
  377W        W 4441   8.284   0.923   2.171  0.1209 -0.2019  0.4518
  378W        W 4442  10.203   9.426   7.532 -0.0267 -0.0463  0.0966
  379W        W 4443   1.225   9.262   2.771 -0.1202  0.2960 -0.2030
  380W        W 4444   6.714   9.932   8.815 -0.2063  0.0228  0.0279
  381W        W 4445   1.335   9.081   8.090 -0.3040 -0.0746  0.2201
  382W        W 4446   5.616   9.433   0.588 -0.1089 -0.1838  0.0875
  383W        W 4447   7.507   3.751  10.287  0.2224 -0.0579  0.3315
  384W        W 4448   3.007   8.251   9.720 -0.3124  0.0847 -0.1455
  385W        W 4449   0.137   7.042   2.581  0.0258  0.2561  0.0345
  386W        W 4450   2.452   8.121   0.593  0.0227  0.2068  0.0747
  387W        W 4451  10.508   6.000   7.854 -0.0601  0.4697 -0.1938
  388W        W 4452   8.842   0.862   8.685  0.1610  0.0205  0.0158
  389W        W 4453   6.782   1.061   2.957  0.1942  0.1608 -0.1271
  390W        W 4454   2.328   5.798   9.461  0.1591  0.0477  0.0816
  391W        W 4455   5.216   2.859   1.426  0.0821 -0.4366 -0.2635
  392W        W 4456   0.962   8.804   2.749 -0.1224  0.1918 -0.2932
  393W        W 4457   7.816   4.288   7.730 -0.1000 -0.1857  0.3795
  394W        W 4458   3.178   7.785   1.473  0.0112  0.0875 -0.1056
  395W        W 4459   6.252   2.464   3.629 -0.2452  0.2422  0.1263
  396W        W 4460   2.947   3.089   2.388  0.1172  0.0937  0.2619
  397W        W 4461   5.692   1.365   9.270 -0.2111 -0.4269  0.3479
  398W        W 4462   7.123   5.088   1.491  0.1262 -0.2616 -0.1820
  399W        W 4463   8.122   9.453   8.777 -0.0371  0.0644  0.1160
  400W        W 4464   6.391   4.275   0.889  0.0884  0.3006  0.1756
  401W        W 4465   5.162   7.522   3.167 -0.2590  0.0346 -0.2365
  402W        W 4466  10.118   4.277  10.357 -0.0757 -0.0476 -0.5758
  403W        W 4467   6.035   5.663   8.589 -0.2826  0.4191  0.1629
  404W        W 4468   3.119   9.087  10.763  0.0048 -0.3574  0.1929
  405W        W 4469   9.339   4.471   2.023  0.1575 -0.0646  0.0549
  406W        W 4470   4.020   0.298  10.589 -0.1197 -0.0290  0.0464
  407W        W 4471   1.031   7.687   9.051 -0.1318 -0.1481 -0.1242
  408W        W 4472   9.632   3.518   8.570  0.2017  0.1492  0.3359
  409W        W 4473   2.599   2.211   0.303 -0.3419  0.1356  0.0269
  410W        W 4474  10.859   9.454  10.609 -0.2558  0.0420 -0.0965
  411W        W 4475   2.369   1.892   2.048 -0.0302  0.1575 -0.0774
  412W        W 4476   3.811   9.077   3.820 -0.0531  0.1691 -0.0020
  413W        W 4477   3.303   2.339   0.612  0.1721  0.0197 -0.0641
  414W        W 4478   4.853   7.551   9.729  0.1983 -0.1105  0.1310
  415W        W 4479   0.371   6.519   9.366  0.1470  0.2389 -0.0339
  416W        W 4480   3.858   9.057   2.100  0.1152  0.3467  0.0688
  417W        W 4481   3.912   9.806   9.758  0.0673  0.0552 -0.0097
  418W        W 4482   1.840   1.643   2.682 -0.0870  0.0212 -0.1165
  419W        W 4483   3.275   5.457   2.054 -0.0011 -0.1172  0.1767
  420W        W 4484   8.682   3.073  10.565  0.2281  0.1394  0.2176
  421W        W 4485   9.394   5.036   6.925  0.0321 -0.0316 -0.0799
  422W        W 4486   5.543   3.237   1.541 -0.0068 -0.0650  0.2191
  423W        W 4487   7.555  10.547   2.112  0.0936 -0.0451  0.4841
  424W        W 4488   4.595   7.954  10.236  0.2107 -0.3256 -0.0267
  425W        W 4489   1.507   8.317   9.626  0.4045  0.1191  0.0723
  426W        W 4490   3.203   1.859   2.440  0.0329 -0.1607  0.0757
  427W        W 4491  10.608   9.208  10.924 -0.1153  0.0950  0.0283
  428W        W 4492   4.718   9.582   1.342  0.2311 -0.3616 -0.1074
  429W        W 4493   3.474   8.780   8.278 -0.1356 -0.0057  0.1796
  430W        W 4494   3.207   1.899   8.384  0.2664 -0.0686  0.2124
  431W        W 4495   6.846   2.084   2.026 -0.0242 -0.0207  0.1827
  432W        W 4496   4.116   5.912  10.707 -0.2970 -0.0237 -0.2294
  433W        W 4497   4.847   9.980   8.696 -0.2900 -0.2972 -0.0654
  434W        W 4498   3.861   8.419   7.433 -0.2766 -0.1476  0.1576
  435W        W 4499  10.287   2.554   7.969 -0.1492  0.1323  0.2781
  436W        W 4500   6.413  10.221   8.256 -0.1742 -0.2614 -0.0573
  437W        W 4501  10.863   4.752   3.294 -0.5127 -0.0679  0.3921
  438W        W 4502   7.358   5.472   1.307  0.2552  0.0069  0.3826
  439W        W 4503   3.684   4.852   0.410 -0.0271 -0.2576 -0.1120
  440W        W 4504   1.305   0.863   8.551 -0.2933  0.0246  0.1548
  441W        W 4505   9.813   7.355   2.983  0.2581 -0.1167  0.1291
  442W        W 4506   1.888   1.536   7.832  0.7043 -0.1735 -0.1671
  443W        W 4507   1.849   5.188  10.099 -0.0882 -0.4800  0.0867
  444W        W 4508   1.307   1.183   1.157 -0.1697  0.3406  0.0750
  445W        W 4509  10.759   6.267   2.586  0.1793  0.3319 -0.0174
  446W        W 4510   4.523   1.453   7.359  0.0191  0.1482 -0.0100
  447W        W 4511   2.657   7.261   2.857  0.0075 -0.0707 -0.2064
  448W        W 4512   6.890   7.798  10.112  0.1930  0.0488 -0.1336
  449W        W 4513   0.222  10.344   1.263 -0.1612 -0.1653 -0.1782
  450W        W 4514   8.322   9.157   0.597  0.1259 -0.0460 -0.0637
  451W        W 4515   0.956   0.535   0.409 -0.0401 -0.2372  0.1009
  452W        W 4516   0.024   8.147  10.774 -0.0560  0.0102  0.2209
  453W        W 4517   9.900   8.989   0.022  0.1158  0.0270 -0.1730
  454W        W 4518   4.645   9.199   3.508 -0.1453 -0.2810 -0.3179
  455W        W 4519   9.920   9.920   8.734  0.2383  0.0563 -0.2347
  456W        W 4520   4.346  10.006   1.141  0.0834 -0.0830  0.0216
  457W        W 4521   6.101   7.814   3.074 -0.2839  0.1044  0.0597
  458W        W 4522   9.584   6.194   1.266  0.2076  0.0219 -0.0538
  459W        W 4523   6.688   7.735   1.291 -0.0390 -0.2185 -0.2949
  460W        W 4524  10.722   3.803   2.106 -0.1593  0.0793 -0.1376
  461W        W 4525   7.786   6.072  11.006  0.0867 -0.1509  0.1668
  462W        W 4526   4.398   0.435   0.400 -0.1090 -0.0128 -0.1933
  463W        W 4527   2.428   1.524   3.782  0.3779  0.0766 -0.1265
  464W        W 4528  10.011   7.265   1.634  0.1362 -0.1624  0.1008
  465W        W 4529   5.298   7.929   1.149  0.0290  0.0575  0.0381
  466W        W 4530   7.362   1.408   3.695  0.2041  0.4329  0.0313
  467W        W 4531   4.838   1.176  10.288  0.4682 -0.0563  0.0843
  468W        W 4532   9.218   6.797  10.904  0.1720 -0.0121  0.1358
  469W        W 4533   5.614   4.109   8.327 -0.1534  0.1203 -0.0218
  470W        W 4534   0.798   8.420   8.540  0.1168  0.2287  0.2299
  471W        W 4535   6.548   3.074   9.415  0.2865  0.1464 -0.0232
  472W        W 4536  10.451  10.835   9.816  0.0942 -0.1887  0.1018
  473W        W 4537   7.499   3.443   0.493 -0.0710 -0.1151  0.1252
  474W        W 4538   4.798   8.570   8.351 -0.0724 -0.0302 -0.1609
  475W        W 4539   6.683   8.153   8.044 -0.0369 -0.0933 -0.2065
  476W        W 4540   9.661   4.864   8.793 -0.0325  0.1332 -0.1078
  477W        W 4541   1.139   7.523   0.482 -0.0532 -0.0015 -0.0475
  478W        W 4542   6.099   2.015   2.711  0.0088 -0.1162  0.0570
  479W        W 4543   2.091   1.189   8.489 -0.2574  0.1155  0.2025
  480W        W 4544   9.617   4.654   7.210 -0.0755  0.0963  0.0550
  481W        W 4545   8.012   4.069   7.201 -0.3386  0.0398  0.1509
  482W        W 4546   7.483   8.717   2.543  0.0218  0.1771  0.0889
  483W        W 4547   4.678   7.622   1.914  0.0032  0.1092  0.1052
  484W        W 4548   9.838  10.487  10.513  0.2985 -0.1053 -0.0802
  485W        W 4549   0.326   4.018   1.483  0.1384  0.2635 -0.1476
  486W        W 4550   1.946   5.705  10.496  0.0680  0.3556 -0.3553
  487W        W 4551   6.243   7.819   8.428  0.0743  0.0422  0.1138
  488W        W 4552   0.943   7.232   3.239 -0.0724 -0.1149  0.2634
  489W        W 4553   7.577   2.115   2.516 -0.1277 -0.0108  0.0882
  490W        W 4554   8.197   3.764   1.072 -0.1263  0.1856  0.1313
  491W        W 4555   5.075  10.649   8.934 -0.0753 -0.0726 -0.0317
  492W        W 4556   0.904   8.732   9.809 -0.1027 -0.3300 -0.2740
  493W        W 4557   8.598   7.339   1.266  0.3023  0.1559 -0.0109
  494W        W 4558   6.995  10.042   0.876  0.0024  0.3634  0.0309
  495W        W 4559   9.474   0.173   1.725 -0.0121 -0.0077 -0.0453
  496W        W 4560   6.799   3.370   8.030  0.0088 -0.2304 -0.2713
  497W        W 4561   9.525   3.370   9.465  0.0714  0.1153 -0.1302
  498W        W 4562   5.649   8.528   1.679 -0.5631 -0.1078  0.4205
  499W        W 4563   1.340   7.485  10.481 -0.0468  0.4204 -0.1144
  500W        W 4564   1.093   6.281   1.059  0.1770  0.2166 -0.0376
  501W        W 4565   6.591   2.116   7.933  0.1315  0.1880  0.1830
  502W        W 4566   3.552   3.917   0.330  0.1277  0.0791  0.0255
  503W        W 4567   8.568   4.906   0.945 -0.0884 -0.0851 -0.0250
  504W        W 4568   8.530   4.332   0.886  0.0295 -0.3435 -0.2919
  505W        W 4569   5.541   0.953   2.234 -0.1405  0.0539 -0.2572
  506W        W 4570   1.666  10.503   1.938  0.1126 -0.2401  0.0784
  507W        W 4571   0.439   3.624   9.962  0.0143 -0.0988  0.1259
  508W        W 4572   0.775   5.675   0.516  0.1967 -0.0219 -0.1427
  509W        W 4573   8.681   0.283  10.902 -0.1887 -0.0642  0.0906
  510W        W 4574   3.867   9.946   8.283  0.2950  0.2668  0.3789
  511W        W 4575   2.445   5.377   8.403  0.0069  0.0343  0.1234
  512W        W 4576   4.972   2.929   8.769  0.0490 -0.2067 -0.0358
  513W        W 4577   4.651   2.043  10.664 -0.1349  0.3087  0.0823
  514W        W 4578   5.414   6.292   0.122  0.2299 -0.0956  0.1447
  515W        W 4579   0.837   8.484   0.196  0.1191 -0.0818 -0.1140
  516W        W 4580   4.315   0.479   4.336 -0.1888 -0.4749 -0.0373
  517W        W 4581   9.018   4.146   1.632  0.3220 -0.1146 -0.0033
  518W        W 4582   1.292   3.076   1.899 -0.0612 -0.0455  0.1377
  519W        W 4583   9.477   1.838   2.686 -0.0239 -0.2268 -0.2128
  520W        W 4584   9.695   7.875   1.756 -0.0401 -0.2452 -0.1503
  521W        W 4585  10.095   8.227   9.555 -0.2145 -0.5554 -0.0861
  522W        W 4586   2.105   0.657   2.394 -0.0681  0.0385 -0.0862
  523W        W 4587   2.750   5.509   9.789 -0.2523  0.2670 -0.0550
  524W        W 4588   1.398   7.714   8.206  0.0984  0.2372  0.0583
  525W        W 4589   9.980   4.502   1.180  0.1173  0.2835  0.1717
  526W        W 4590   6.583   8.042   9.258  0.0628  0.0286  0.0804
  527W        W 4591   4.209   1.766   1.311 -0.1490  0.0627 -0.2563
  528W        W 4592   8.066   4.212   0.984 -0.2088  0.0686 -0.0221
  529W        W 4593   6.832   0.365   9.562 -0.0156  0.1381  0.2448
  530W        W 4594   0.951   9.074   9.364  0.1274 -0.1250  0.1047
  531W        W 4595   5.498   9.819  10.560  0.0907 -0.1926  0.2121
  532W        W 4596   9.054   9.166   8.498 -0.1447  0.4232 -0.1731
  533W        W 4597   5.284   2.620   3.794 -0.1269 -0.1016  0.0660
  534W        W 4598   6.818   2.578   7.223  0.0731 -0.1579  0.2484
  535W        W 4599   0.036   7.533   2.137  0.0031 -0.3459  0.2625
  536W        W 4600   4.218   7.184   2.346  0.2399  0.1125 -0.0725
  537W        W 4601   3.448   4.071  10.351  0.3577  0.2578  0.2619
  538W        W 4602   1.197   1.024   2.341 -0.2565  0.0780  0.2218
  539W        W 4603   4.086   8.649   3.570  0.0195 -0.2529  0.2150
  540W        W 4604   1.689   3.036   0.994 -0.0557  0.1435  0.1089
  541W        W 4605   0.547   1.208   7.947  0.0998  0.2512 -0.1544
  542W        W 4606   7.217   1.404   3.107  0.0340 -0.0002 -0.1165
  543W        W 4607   9.083   2.176  10.930  0.1577  0.2059 -0.2071
  544W        W 4608   8.044   3.703  10.570 -0.2415  0.0661  0.3885
  545W        W 4609   7.319   2.121   1.743  0.0353 -0.0090 -0.2987
  546W        W 4610   9.361   3.219   8.775  0.0055 -0.0503  0.1148
  547W        W 4611   5.023   8.940   8.667  0.0509  0.0995  0.0947
  548W        W 4612   9.292   9.603   2.997  0.0296  0.2183  0.1186
  549W        W 4613   4.208   2.271   2.562 -0.3658  0.1391  0.2604
  550W        W 4614   7.700   9.068   9.220  0.1937 -0.2869  0.1302
  551W        W 4615   5.000   0.203  10.592  0.2436 -0.2867 -0.1029
  552W        W 4616  10.748   4.396   2.933 -0.0800 -0.0773  0.2250
  553W        W 4617   7.794   1.313   9.364  0.1980 -0.1650  0.0168
  554W        W 4618   5.053   2.570   0.917  0.1275 -0.1343 -0.1714
  555W        W 4619   1.392   1.809   7.898 -0.1214 -0.0652 -0.2582
  556W        W 4620   9.079   6.260   7.901  0.2741  0.2622  0.0348
  557W        W 4621   8.660   8.343   9.838  0.1855  0.1072 -0.4948
  558W        W 4622   3.008   0.989   8.754  0.0993 -0.0563  0.1962
  559W        W 4623   0.604  10.124  10.425 -0.2533  0.1246 -0.4747
  560W        W 4624   0.627   2.609   9.034  0.2642  0.1272  0.1425
  561W        W 4625   9.361   8.541   2.166  0.0863 -0.1442  0.2209
  562W        W 4626   9.309   7.201   7.471  0.1904 -0.0062  0.0646
  563W        W 4627   7.755   5.818   1.488  0.0083  0.3466  0.1925
  564W        W 4628   0.077   3.298   0.411  0.1103 -0.0701 -0.0957
  565W        W 4629   4.330   5.768  10.156  0.0881  0.0269  0.0385
  566W        W 4630   1.610   9.858  10.694 -0.3395 -0.3565  0.0736
  567W        W 4631   7.107   9.514   0.255 -0.2734 -0.1747  0.0393
  568W        W 4632   8.361   1.461   9.970  0.0688 -0.0179 -0.6180
  569W        W 4633   0.651   8.621   1.722  0.0726 -0.0300 -0.1263
  570W        W 4634   9.808   8.869   9.006  0.3226  0.4532 -0.3397
  571W        W 4635   1.902   3.558   9.075  0.2869 -0.1696  0.0147
  572W        W 4636   7.135   5.928  10.321  0.3091 -0.3170  0.0936
  573W        W 4637   1.121   6.898   9.895  0.2724  0.2736 -0.3071
  574W        W 4638   5.619   2.363   8.048  0.1660 -0.1014  0.0280
  575W        W 4639   5.575  10.648   8.725  0.2284 -0.1015 -0.0828
  576W        W 4640   7.811   2.355   2.092  0.4481 -0.0809  0.1329
  577W        W 4641   1.482   8.614   7.824  0.0516  0.1720  0.2335
  578W        W 4642   0.990  10.041   7.224  0.0287  0.0314 -0.4594
  579W        W 4643   8.667   9.341   0.114  0.0540 -0.1706  0.1502
  580W        W 4644   9.256   1.215   8.908  0.0676  0.2124  0.1413
  581W        W 4645   5.322  10.143   8.801 -0.2682 -0.2411  0.1524
  582W        W 4646   5.476   3.744   9.627 -0.0018  0.0247 -0.3520
  583W        W 4647   5.902   2.821   8.144  0.2272 -0.1912  0.0800
  584W        W 4648   9.777  10.436  11.023  0.1608 -0.0367  0.1483
  585W        W 4649   9.470   0.515   0.403  0.2455  0.0441  0.1318
  586W        W 4650   1.148   1.947   0.666  0.1796  0.0314 -0.1711
  587W        W 4651   5.899   8.985   2.333 -0.0498  0.0713  0.0666
  588W        W 4652   5.449   3.702  10.393  0.0799  0.1487 -0.1281
  589W        W 4653   6.113   6.438   3.054  0.1636 -0.2815 -0.1422
  590W        W 4654   9.415   9.565   8.598 -0.3499 -0.3798 -0.0731
  591W        W 4655   3.204   9.656   9.477 -0.3787 -0.0669  0.0340
  592W        W 4656   5.005   3.569   0.292  0.0916  0.1355 -0.0362
  593W        W 4657   1.287   0.439   9.352 -0.1383  0.2977 -0.0793
  594W        W 4658   3.286   5.938   1.858  0.1509 -0.4077 -0.3815
  595W        W 4659   5.449  10.353   2.115 -0.3943  0.1655 -0.0657
  596W        W 4660   3.708   7.057   8.571 -0.2672  0.0710 -0.0825
  597W        W 4661   6.157   4.402   2.212  0.1953 -0.0414  0.0634
  598W        W 4662   0.794   5.960   2.537 -0.1329  0.1236 -0.0192
  599W        W 4663   9.422  10.074  10.880 -0.3238 -0.1665 -0.0548
  600W        W 4664   3.795   7.469   2.436 -0.0251 -0.0168  0.0444
  601W        W 4665   9.744   1.919   9.474  0.0782  0.1663 -0.1113
  602W        W 4666   0.829   9.400   2.456 -0.3858  0.1613 -0.1653
  603W        W 4667   3.541   2.058   0.928  0.0312  0.0344 -0.0156
  604W        W 4668   0.142   6.772   0.868 -0.1571 -0.1497  0.0975
  605W        W 4669   9.885   2.414   9.827 -0.0743 -0.1504 -0.2635
  606W        W 4670   6.539   3.394  10.335  0.0537 -0.0765 -0.3872
  607W        W 4671   0.551   5.907   1.762  0.3094 -0.1989 -0.2807
  608W        W 4672   6.756   4.335   2.107  0.2364  0.1414 -0.1490
  609W        W 4673   1.665   9.232   1.015 -0.0235  0.0172  0.0065
  610W        W 4674   1.904   7.435   9.049  0.0626 -0.0512  0.2232
  611W        W 4675   3.592   9.056   3.395 -0.1791  0.0507  0.0237
  612W        W 4676   1.524   1.290   9.666  0.0692 -0.1761 -0.1754
  613W        W 4677   3.227   5.280  10.022 -0.1251  0.0676 -0.2893
  614W        W 4678   5.737   1.006  10.276  0.0254 -0.0998  0.2155
  615W        W 4679   3.889   9.617   1.149  0.2456  0.0634 -0.1053
  616W        W 4680   5.168   4.765  10.644  0.1704  0.0627 -0.0993
  617W        W 4681   7.553   3.836  10.780 -0.1836  0.4537 -0.0729
  618W        W 4682   1.709   2.004   8.328  0.1250 -0.0184 -0.3781
  619W        W 4683   8.677   3.946   8.345 -0.1057  0.0667 -0.3482
  620W        W 4684   5.189  10.842   8.103 -0.2329  0.0586  0.0734
  621W        W 4685   4.378   6.476   8.390  0.0415  0.0114  0.1722
  622W        W 4686   4.360   4.969   1.546  0.0135  0.5392  0.0322
  623W        W 4687   6.283   6.355   9.945  0.2942  0.2370  0.4094
  624W        W 4688   6.689   4.320   3.231  0.0484 -0.0810 -0.1114
  625W        W 4689   3.314   6.741   3.183  0.0094  0.2282  0.2778
  626W        W 4690   8.420   7.063   1.783 -0.1001 -0.1885  0.1167
  627W        W 4691   9.259   7.808   8.226 -0.2239  0.1515  0.0043
  628W        W 4692   5.053   3.336   9.059 -0.2111  0.1908 -0.0340
  629W        W 4693  10.044  10.250   6.969 -0.1429  0.3999 -0.1873
  630W        W 4694   2.247   8.665   3.910 -0.0113 -0.0848  0.0576
  631W        W 4695   8.315   1.295   8.737 -0.0977  0.1423  0.0671
  632W        W 4696   8.224   0.858   2.663 -0.0120  0.2515 -0.0112
  633W        W 4697   0.922   7.936   2.655 -0.3036  0.0138 -0.1721
  634W        W 4698   7.490   4.791   2.876 -0.0018 -0.1323 -0.0674
  635W        W 4699   3.089   6.925   3.681  0.1806  0.1011 -0.0612
  636W        W 4700   5.798   5.971   0.165 -0.3077 -0.1347 -0.3659
  637W        W 4701   5.381   1.454   7.637  0.1845 -0.1393 -0.1458
  638W        W 4702   7.160   9.640   1.249  0.0422  0.0297 -0.0230
  639W        W 4703   4.436   0.407   8.415 -0.0500  0.2263  0.0412
  640W        W 4704   0.655   6.938   2.886 -0.0241  0.3174 -0.2532
  641W        W 4705   0.815  10.128   6.757 -0.1404 -0.1692  0.1057
  642W        W 4706   8.763   6.850   2.147  0.1336  0.0069  0.1815
  643W        W 4707   8.440   2.600   2.579  0.0970 -0.5828  0.1460
  644W        W 4708   4.419   7.275   3.157 -0.0025  0.1775 -0.0759
  645W        W 4709   8.349   7.940   3.036 -0.2512  0.0349  0.2461
  646W        W 4710   8.020  10.508   9.119 -0.2106 -0.2429 -0.0682
  647W        W 4711   2.372   3.796   2.188 -0.1301  0.1923  0.1299
  648W        W 4712  10.625   7.736   8.950 -0.3398  0.1015 -0.0248
  649W        W 4713   7.627   0.673   7.668 -0.2128 -0.1205 -0.0891
  650W        W 4714   0.102   2.405   9.143 -0.0397 -0.1502  0.0498
  651W        W 4715  10.372   0.154   2.856 -0.1292 -0.1858 -0.0594
  652W        W 4716   1.141   4.142   9.494  0.2640 -0.1497 -0.1695
  653W        W 4717   3.294   9.551  10.970  0.0544  0.1070  0.1789
  654W        W 4718   8.069   4.169   8.144 -0.2342 -0.2638 -0.0582
  655W        W 4719   7.935   6.245   3.553 -0.1909 -0.2080  0.1376
  656W        W 4720   1.523   3.358  10.578 -0.1033  0.0125 -0.0994
  657W        W 4721   9.859  10.321   0.641 -0.3217  0.0572  0.0786
  658W        W 4722   9.279   4.499   7.554  0.2133 -0.0717 -0.0389
  659W        W 4723   6.335   7.339   0.894 -0.0466 -0.3799  0.3779
  660W        W 4724   6.331   4.035   7.713 -0.4743 -0.0958 -0.1866
  661W        W 4725   7.835   4.657   5.959 -0.1644 -0.1967  0.0406
  662W        W 4726   5.941   5.269  10.215 -0.0680 -0.3436 -0.1670
  663W        W 4727   2.806   0.039   0.741  0.1375  0.0910 -0.2446
  664W        W 4728   6.654   1.568   9.265  0.2572  0.0566 -0.1639
  665W        W 4729   6.459   4.888   9.607  0.2479 -0.2005  0.0272
  666W        W 4730  10.262   8.736   8.030 -0.0546  0.0541 -0.0524
  667W        W 4731   9.751   4.998   8.312 -0.1368  0.0510  0.4762
  668W        W 4732   2.865   0.180   1.643  0.1784  0.0638 -0.1455
  669W        W 4733   6.559   6.416   1.261  0.0102 -0.1015  0.0515
  670W        W 4734   7.534   9.371   9.995  0.1568  0.1765  0.2011
  671W        W 4735  10.223   8.402   2.349 -0.2935 -0.0199 -0.0120
  672W        W 4736   7.994   8.837   8.630  0.2542  0.1617 -0.1904
  673W        W 4737   3.409   5.106  10.475 -0.0990 -0.4339  0.1204
  674W        W 4738  10.443   8.211   7.935 -0.1886 -0.1850  0.1727
  675W        W 4739   4.410   2.220   9.811  0.1568 -0.2648  0.0294
  676W        W 4740   7.487   3.164   8.790  0.2503 -0.2262 -0.1562
  677W        W 4741   3.713   2.632   3.143  0.1464 -0.0462  0.0322
  678W        W 4742   7.659   8.395   0.413  0.0068  0.0207  0.1207
  679W        W 4743   7.251   0.631   8.809  0.1885  0.0331  0.0938
  680W        W 4744  10.563   4.154   0.865 -0.1895  0.1240 -0.1088
  681W        W 4745   7.728   8.621   8.957 -0.0288 -0.0570  0.1409
  682W        W 4746   1.192   8.510   1.887 -0.3259 -0.0170  0.1407
  683W        W 4747   7.097   3.769   9.314 -0.1512  0.0259  0.3416
  684W        W 4748   2.568   9.779   2.881 -0.1038 -0.2263 -0.4942
  685W        W 4749   5.640   7.853   0.728 -0.1833  0.2960  0.3425
  686W        W 4750   4.620   1.563   0.077  0.0641 -0.0658  0.1514
  687W        W 4751   9.504   0.653   1.363 -0.4194  0.4706 -0.2006
  688W        W 4752   0.470  10.743   1.168  0.0048 -0.0706 -0.0655
  689W        W 4753   2.351   9.088   9.188  0.0126  0.2225  0.0534
  690W        W 4754   6.833   6.098   0.056  0.0174 -0.0617  0.0949
  691W        W 4755   7.748   8.464   9.420  0.2142  0.0284  0.0776
  692W        W 4756   8.332   1.713   9.071 -0.3519 -0.0036  0.0720
  693W        W 4757   8.604   4.882   3.321 -0.3104 -0.2132  0.0745
  694W        W 4758   7.256   4.462   7.372  0.0168  0.3042  0.1574
  695W        W 4759   8.840   4.657   8.631 -0.2032  0.0220  0.0826
  696W        W 4760   2.867   6.870   0.915  0.0516 -0.0848 -0.1764
  697W        W 4761   7.750   8.032   9.641 -0.2390  0.0470 -0.0714
  698W        W 4762   1.666   5.541   7.946 -0.3994  0.3692 -0.1272
  699W        W 4763   5.187   8.927   3.199  0.0231  0.1446 -0.1319
  700W        W 4764   1.067   5.125   2.298  0.0430  0.0597  0.3368
  701W        W 4765   8.339   7.448  10.672 -0.0917 -0.1246  0.0486
  702W        W 4766   9.521   3.982   2.544 -0.2428 -0.0208  0.0219
  703W        W 4767   6.292   1.866   0.705 -0.2121  0.0072  0.2049
  704W        W 4768   3.117   3.541   8.256 -0.2867 -0.2190 -0.1431
  705W        W 4769   7.018   2.282  10.433  0.0015 -0.1144 -0.1529
  706W        W 4770   5.027   1.801   2.845  0.1107 -0.0392  0.2577
  707W        W 4771   2.448   5.664  10.320 -0.0554 -0.1212 -0.3730
  708W        W 4772   9.278   0.237  10.892  0.2057  0.0580  0.0613
  709W        W 4773   0.468   9.199   7.980 -0.1314  0.1246  0.0986
  710W        W 4774   6.684  10.701   8.306  0.2445  0.1739  0.2130
  711W        W 4775   2.645   8.359   8.416 -0.0069  0.2219 -0.2111
  712W        W 4776  10.284   5.280   9.785  0.1402 -0.1784  0.1205
  713W        W 4777   1.387   7.257   2.139 -0.2031  0.2523  0.0720
  714W        W 4778   1.134   1.660   1.035  0.3672 -0.0770 -0.2509
  715W        W 4779   5.154   3.005   0.615  0.2419  0.2319 -0.0961
  716W        W 4780   8.834   5.603   7.518  0.1114  0.0820  0.0123
  717W        W 4781   5.607  10.737  10.228 -0.2033  0.0159  0.2779
  718W        W 4782   2.690   7.874   9.187  0.3527 -0.1389  0.0219
  719W        W 4783   5.364  10.794   2.394  0.1130 -0.1806 -0.1345
  720W        W 4784   2.562   8.217   0.140  0.1439  0.2401 -0.4886
  721W        W 4785   8.079   3.818   7.678 -0.2606 -0.1154  0.3636
  722W        W 4786   0.343   7.308   3.044  0.5366  0.1882  0.2196
  723W        W 4787   7.217   9.727   9.237 -0.0435 -0.2598 -0.1543
  724W        W 4788   2.843   5.382   3.138  0.0514  0.0949 -0.3805
  725W        W 4789  10.781   8.729  10.978 -0.4842  0.2519 -0.1232
  726W        W 4790   6.382   0.580   1.274 -0.3265  0.0076  0.2165
  727W        W 4791   4.383   5.982   3.042  0.0748  0.1272 -0.0308
  728W        W 4792   9.387   9.290  10.959  0.0559  0.1081  0.0249
  729W        W 4793   9.455   9.158   2.804  0.0491  0.4568 -0.2619
  730W        W 4794   6.706   3.117   2.105  0.1761 -0.0301  0.0188
  731W        W 4795   4.873   3.815   8.435  0.1485 -0.3521  0.0484
  732W        W 4796   3.882   9.347   7.061 -0.0897  0.0650 -0.2860
  733W        W 4797   3.640  10.682   8.466 -0.4044  0.4554 -0.0601
  734W        W 4798   5.854   2.641   1.979  0.5879  0.0926  0.1182
  735W        W 4799   7.385   9.637   8.179 -0.2559  0.4041 -0.3033
  736W        W 4800   2.328  10.427   2.248 -0.1166 -0.1351 -0.0927
  737W        W 4801   5.150   9.616   9.726 -0.1210  0.0838  0.3798
  738W        W 4802   4.381   3.700  10.216 -0.2663 -0.0405 -0.1770
  739W        W 4803   5.729   0.513  10.262 -0.0162 -0.1974  0.1013
  740W        W 4804   3.221   5.737   2.868  0.2914  0.0872  0.0364
  741W        W 4805   9.828   0.868  10.116 -0.0267  0.2108 -0.1259
  742W        W 4806   5.607   2.066   0.567 -0.0705 -0.2825 -0.0457
  743W        W 4807   8.054  10.051   8.818  0.0619 -0.0911  0.3400
  744W        W 4808   1.471   2.104   1.102 -0.1788 -0.3630 -0.3178
  745W        W 4809   6.439   7.882   7.715 -0.1576 -0.2779 -0.0031
  746W        W 4810   8.567   9.856   0.237 -0.0209 -0.1425 -0.2287
  747W        W 4811   7.807   8.941   0.515  0.2010 -0.5033  0.0074
  748W        W 4812   0.309   2.377   8.601 -0.1985  0.1944  0.1837
  749W        W 4813   1.052   4.621   1.914  0.0524  0.1221 -0.2864
  750W        W 4814   3.404   1.046   2.671  0.0099  0.0307  0.0574
  751W        W 4815   2.078   3.406   8.587  0.1069  0.3413  0.0836
  752W        W 4816   4.486   4.276   9.113  0.0933  0.0728  0.0015
  753W        W 4817   8.431   3.009   2.920  0.0317  0.2707 -0.0311
  754W        W 4818   8.905   1.071   7.815  0.1403 -0.0113  0.0467
  755W        W 4819   0.120   8.279   7.106  0.4233  0.1283  0.1340
  756W        W 4820   0.760   6.689   1.527 -0.0551  0.3433 -0.0138
  757W        W 4821   0.563   5.917   9.422 -0.0062 -0.0691 -0.4205
  758W        W 4822   0.929   7.799  10.811 -0.1298 -0.0195  0.0104
  759W        W 4823  10.652   9.059   0.738 -0.1416 -0.2966  0.2404
  760W        W 4824   7.458   5.252   0.326 -0.0235  0.0125 -0.0546
  761W        W 4825   4.223   7.403   1.622  0.0835  0.0469  0.1036
  762W        W 4826   8.600   5.031   1.932  0.3037  0.5477 -0.2315
  763W        W 4827   7.497   9.896   1.549  0.2990  0.0624 -0.0073
  764W        W 4828   6.353  10.406   8.717  0.0237  0.4284  0.0474
  765W        W 4829   4.796   3.895   9.977  0.1649  0.3263  0.2645
  766W        W 4830   3.538   9.058   0.147  0.0822  0.0041 -0.0245
  767W        W 4831   2.435   1.621   9.395 -0.1291  0.0245  0.1152
  768W        W 4832   4.378   4.921   0.799 -0.3487 -0.2828 -0.0881
  769W        W 4833   8.821   6.687   7.800 -0.2985 -0.0651 -0.1817
  770W        W 4834   8.002   6.140   1.049 -0.1341 -0.1604 -0.1458
  771W        W 4835   3.918   6.038   9.425  0.0915  0.0634 -0.5396
  772W        W 4836   2.876   2.339   9.750  0.1890  0.1530 -0.1965
  773W        W 4837   1.562   4.590   8.930  0.2945  0.0216  0.3506
  774W        W 4838   3.534   8.801   2.418  0.2486 -0.1708  0.0622
  775W        W 4839   8.545   2.236   7.197  0.0634 -0.0520  0.1705
  776W        W 4840   4.607  10.685   3.552 -0.1759  0.0467 -0.1657
  777W        W 4841   9.154   4.879   4.018 -0.0734  0.2665  0.0502
  778W        W 4842   2.156   0.602  10.246 -0.2016 -0.0089  0.0991
  779W        W 4843   0.950   0.806   8.124  0.2239 -0.0327  0.4544
  780W        W 4844   1.503   9.834   2.199 -0.1408  0.1939 -0.1337
  781W        W 4845  10.053   8.013   8.147  0.3664 -0.0822  0.2262
  782W        W 4846   9.125   7.669   2.489 -0.0580 -0.4013 -0.0732
  783W        W 4847  10.146   3.672   1.479  0.2937 -0.1621  0.0331
  784W        W 4848   2.031   2.818   0.298 -0.2432  0.1037  0.1890
  785W        W 4849   7.856   6.865   1.584  0.1288 -0.1102  0.0508
  786W        W 4850   4.215   9.057   3.274  0.2316  0.1086 -0.1059
  787W        W 4851   4.449   4.765   8.174  0.0282 -0.2441  0.1240
  788W        W 4852  10.448   4.670  10.560 -0.1885 -0.0544 -0.3073
  789W        W 4853   4.300   5.812   9.129 -0.0212 -0.0961  0.1998
  790W        W 4854  10.775   4.786   0.301  0.2222 -0.0139  0.0875
  791W        W 4855   1.307   6.911  10.807  0.1063  0.0998 -0.1811
  792W        W 4856   2.232   8.272   2.836  0.0575  0.1109  0.0177
  793W        W 4857   7.523  10.246   0.816  0.1563  0.1070  0.1205
  794W        W 4858  10.587   5.370   9.334  0.1150 -0.0253 -0.2098
  795W        W 4859   6.880   9.627   8.359  0.0514  0.0060  0.0369
  796W        W 4860   1.778  10.794   3.018 -0.0708 -0.0891  0.0966
  797W        W 4861   2.381   0.471   0.731 -0.1483 -0.0710 -0.1310
  798W        W 4862   9.908   1.850  10.566  0.0518 -0.1297  0.0176
  799W        W 4863   0.970   5.105   1.268 -0.0072  0.0937 -0.1260
  800W        W 4864   6.178   1.209  10.451 -0.1164 -0.0992 -0.0968
  801W        W 4865   5.183   4.582   9.661 -0.2053 -0.1018 -0.1919
  802W        W 4866   1.375  10.429   8.625 -0.0592 -0.3095 -0.0990
  803W        W 4867   4.089   5.061   0.187 -0.3436 -0.0166 -0.0799
  804W        W 4868   6.364   2.486   2.773 -0.0169  0.0219 -0.1580
  805W        W 4869   4.113   8.942   1.665 -0.0311 -0.0075  0.2129
  806W        W 4870   8.900  10.031   9.966  0.0233 -0.1042 -0.0559
  807W        W 4871   8.258   8.616   7.745 -0.0812 -0.3329  0.0309
  808W        W 4872   6.351   5.866   3.815 -0.2180  0.6572  0.0878
  809W        W 4873   9.890  10.376   1.193  0.0548  0.1034  0.1867
  810W        W 4874   4.523   2.395  10.241  0.0707 -0.1274 -0.0442
  811W        W 4875  10.576   0.639   3.390  0.1605 -0.1495  0.2444
  812W        W 4876   1.875   1.848   1.747 -0.0337  0.2005 -0.1868
  813W        W 4877   3.484   0.630  10.166 -0.1582  0.0659  0.0910
  814W        W 4878  10.615   1.662   8.241  0.1445 -0.2530  0.0799
  815W        W 4879   0.102   1.247   2.594 -0.0999  0.3131  0.0610
  816W        W 4880   7.404   8.301   2.851 -0.1604 -0.2465  0.0688
  817W        W 4881   5.426   4.649   9.247  0.1225  0.1607  0.2863
  818W        W 4882   5.046   7.105   8.813 -0.2699 -0.0732 -0.2728
  819W        W 4883   8.295   8.100   0.845 -0.0366 -0.0464  0.0584
  820W        W 4884   7.009   2.753   8.707  0.0772  0.0210 -0.1146
  821W        W 4885   3.759   6.610   3.149 -0.0452  0.1719  0.2533
  822W        W 4886   4.727   4.568  10.650  0.2490  0.0058  0.2483
  823W        W 4887   8.254   6.870   2.242 -0.3575  0.1474  0.1643
  824W        W 4888   1.074   8.510   3.357  0.0845 -0.1934  0.0055
  825W        W 4889   3.680   0.829   3.301  0.1252 -0.0506 -0.1634
  826W        W 4890   7.292   1.352  10.938 -0.3019  0.3337  0.1029
  827W        W 4891   6.999   9.435   7.897  0.0692 -0.1022  0.1391
  828W        W 4892   5.694   1.918   8.222 -0.2321 -0.1437 -0.0467
  829W        W 4893   7.831   7.854   1.120  0.4650 -0.1290  0.1430
  830W        W 4894   0.471   3.792   3.257  0.1123 -0.0284  0.0382
  831W        W 4895   3.345   9.533  10.472  0.0380 -0.0448  0.1722
  832W        W 4896   0.286   9.067  10.893 -0.2308  0.0708  0.0746
  833W        W 4897   0.561   7.687   9.087 -0.1461  0.2417  0.1085
  834W        W 4898   2.569   0.574   9.286 -0.1809  0.3979  0.0860
  835W        W 4899   9.402   9.241   9.063  0.1493  0.0363  0.1370
  836W        W 4900   6.109   2.269   0.848  0.0202 -0.2097 -0.2740
  837W        W 4901   4.876   8.440   8.821 -0.1813 -0.5034  0.3798
  838W        W 4902   2.716   0.008   7.696  0.0122  0.1694 -0.0331
  839W        W 4903   3.195   4.641   1.777 -0.0206 -0.1826  0.0043
  840W        W 4904   1.160   4.363   3.226  0.0915 -0.0684  0.1387
  841W        W 4905   5.926   1.745   1.879  0.2753  0.1553 -0.1362
  842W        W 4906   0.846   2.779   4.150 -0.3905 -0.0489  0.1196
  843W        W 4907   1.743   3.466   8.199  0.0324  0.1431  0.0699
  844W        W 4908   3.760   8.591   1.934 -0.0689 -0.1796  0.1655
  845W        W 4909   8.435   0.598   7.996  0.3187  0.0253  0.1271
  846W        W 4910   0.537   0.234   2.479  0.0941  0.1940 -0.2721
  847W        W 4911   0.511   3.818   1.941 -0.1216 -0.1310  0.1968
  848W        W 4912   8.968   4.634   2.950  0.0063 -0.0821 -0.1556
  849W        W 4913   2.961   7.020  10.280  0.1130 -0.1426  0.0683
  850W        W 4914   1.357   7.186   0.873  0.2438  0.0135  0.0014
  851W        W 4915   8.473   2.146   2.711 -0.2966  0.2013 -0.2028
  852W        W 4916   0.496   4.450   0.835 -0.1294  0.2264  0.1669
  853W        W 4917   2.698   6.190  10.327  0.0857  0.1204 -0.0638
  854W        W 4918   3.453  10.698   9.949 -0.2272 -0.1384  0.3946
  855W        W 4919  10.644   7.412   1.364 -0.1390 -0.0465  0.3596
  856W        W 4920   7.653   2.048   9.885 -0.3859 -0.0677  0.2454
  857W        W 4921   3.992   0.627  10.166 -0.1362 -0.2483  0.3718
  858W        W 4922   1.089   8.288  10.890 -0.2350  0.0410 -0.0974
  859W        W 4923  10.315   2.115   8.331 -0.1333  0.1201  0.0136
  860W        W 4924   6.126   2.331   8.842  0.0267  0.3538  0.0247
  861W        W 4925  10.158   6.241   2.527  0.2022 -0.0607 -0.3168
  862W        W 4926   1.769   2.077   0.679  0.3842  0.0543  0.1304
  863W        W 4927   1.302  10.021   0.017  0.2139 -0.1618  0.3954
  864W        W 4928   8.460   9.371   2.600  0.2305  0.1150 -0.1147
  865W        W 4929   0.169   4.310   7.946  0.3232  0.1342 -0.0326
  866W        W 4930   1.283   1.078  10.081 -0.1594  0.1214  0.1505
  867W        W 4931   4.413   4.788  10.161  0.1920  0.0922 -0.1119
  868W        W 4932   3.941   7.788   1.512  0.3116  0.3623  0.1576
  869W        W 4933   6.073   8.353   9.113 -0.4724 -0.0243 -0.0070
  870W        W 4934   2.814   6.044   1.611 -0.0276 -0.1498 -0.0496
  871W        W 4935   6.172   7.135   1.864  0.0901 -0.0730  0.1511
  872W        W 4936   8.510   2.378   7.866 -0.3472 -0.1470  0.0175
  873W        W 4937   1.274   0.275   7.856 -0.0173  0.0934 -0.1556
  874W        W 4938   3.781   4.230   2.722 -0.1312  0.3043 -0.3041
  875W        W 4939   4.166   8.175  10.489 -0.1242  0.0740  0.1215
  876W        W 4940   7.325   1.714   0.270  0.1299  0.1215  0.1613
  877W        W 4941   4.887   1.550  10.717  0.0067 -0.2322 -0.0870
  878W        W 4942   0.985   5.245   8.447 -0.3858  0.0361  0.0108
  879W        W 4943   3.201  10.625   8.663  0.0278 -0.0898 -0.0248
  880W        W 4944   4.669   9.619   1.864 -0.1259 -0.1726  0.2786
  881W        W 4945   2.519   9.735   8.595 -0.1146 -0.0285 -0.2451
  882W        W 4946  10.374   9.333   1.650 -0.3397 -0.0948 -0.0052
  883W        W 4947   3.672   0.736   3.901 -0.0160 -0.3856 -0.1563
  884W        W 4948   9.597   5.645   1.029 -0.0443 -0.2152  0.2449
  885W        W 4949   4.035  10.514   8.056 -0.2353  0.2647 -0.0949
  886W        W 4950   5.715   6.651   2.016 -0.1828  0.0078 -0.1761
  887W        W 4951   2.952   5.177   7.757  0.0978 -0.1848  0.0016
  888W        W 4952   5.724   7.170   8.187  0.0072  0.1948  0.1212
  889W        W 4953   0.971   0.193   2.837 -0.0526 -0.1353 -0.1186
  890W        W 4954   1.946   1.253   7.345 -0.0421  0.1579 -0.1620
  891W        W 4955   0.182   4.071   8.792 -0.1105  0.2791  0.1297
  892W        W 4956   9.150   2.901  10.574  0.0498 -0.0020  0.0501
  893W        W 4957   8.373  10.267  11.017  0.0933  0.1658  0.2565
  894W        W 4958   3.891   8.766   7.846 -0.3338 -0.1430  0.4215
  895W        W 4959   3.938   9.530   0.698 -0.0861 -0.1911 -0.1065
  896W        W 4960   5.712   3.823   2.717  0.0087 -0.0749  0.1206
  897W        W 4961   7.704   3.358   7.772  0.0997 -0.2846  0.2842
  898W        W 4962  10.121   9.055  10.678 -0.2150  0.0569  0.1715
  899W        W 4963   6.162   1.766  10.354 -0.0529  0.0984  0.0080
  900W        W 4964   7.091   3.900   7.379  0.1904  0.0582  0.2339
  901W        W 4965   5.582   0.963   2.752  0.0219 -0.2915 -0.1462
  902W        W 4966   0.477   5.221   1.439 -0.2642  0.0652 -0.0757
  903W        W 4967  10.522   9.091   8.258  0.0961  0.2116  0.0748
  904W        W 4968   5.950   0.142  10.497 -0.0395 -0.4076  0.1326
  905W        W 4969   6.447   0.994   8.778  0.1221  0.3905 -0.1337
  906W        W 4970   8.792  10.628   9.032 -0.0239  0.3107 -0.3741
  907W        W 4971   2.863   3.798   2.008 -0.0028  0.1825 -0.1544
  908W        W 4972   8.825   4.745   2.326 -0.2118  0.0492  0.0428
  909W        W 4973   5.360   4.400   2.464 -0.0517 -0.0404 -0.1539
  910W        W 4974   7.287   5.721   2.309  0.0780  0.0245  0.1434
  911W        W 4975   1.285   4.642   9.473 -0.1951  0.1770  0.4011
  912W        W 4976   8.764   7.914   8.118  0.1389  0.1693  0.0300
  913W        W 4977  10.539   1.380   7.814 -0.2027 -0.0854 -0.1322
  914W        W 4978   0.504  10.452   0.281  0.2693  0.0215 -0.1600
  915W        W 4979   5.154   3.513  10.847  0.0989 -0.2749 -0.1278
  916W        W 4980   6.614   3.440   0.558 -0.0949  0.2078  0.0159
  917W        W 4981   8.291   5.756   3.101 -0.0250  0.1456 -0.0923
  918W        W 4982   2.252  10.863   0.535  0.1166 -0.2260 -0.0014
  919W        W 4983   5.998  10.468   3.033  0.1282 -0.0376 -0.1305
  920W        W 4984   8.869   5.334   7.019 -0.0051 -0.1743 -0.0440
  921W        W 4985   3.072   3.872   9.612  0.3146 -0.1887  0.0506
  922W        W 4986   2.065   0.503   8.996  0.2303  0.0815  0.2465
  923W        W 4987  10.742   0.528   1.363  0.1947  0.0193 -0.1860
  924W        W 4988   0.293   6.735   1.350  0.0127 -0.2471  0.0875
  925W        W 4989   5.406   1.589   0.677  0.1213  0.0127 -0.2207
  926W        W 4990   1.850   9.635   9.645 -0.0730 -0.1508  0.2942
  927W        W 4991   3.513   4.352   0.655  0.0362  0.0933 -0.0322
  928W        W 4992   0.246   4.337   9.559  0.0104 -0.0933 -0.0746
  929W        W 4993   7.639  10.881   0.090  0.1931 -0.0242 -0.1569
  930W        W 4994   8.565   0.501   0.630 -0.0883  0.1164  0.0615
  931W        W 4995   3.827   7.195   9.478  0.1788 -0.0975 -0.3460
  932W        W 4996   9.792   5.453   9.594 -0.1186  0.0209  0.1903
  933W        W 4997   0.058   1.088  10.770  0.0510 -0.0496 -0.1187
  934W        W 4998   0.408   1.073   2.989  0.1043 -0.0754  0.1917
  935W        W 4999   1.038   2.251   9.517 -0.2231  0.0550 -0.2828
  936W        W 5000   5.991   5.018  11.002  0.1349  0.0956 -0.1797
  937W        W 5001   2.180   5.205   8.891  0.1963 -0.1740 -0.0774
  938W        W 5002   8.037   8.190   2.121  0.3706  0.2599  0.0107
  939W        W 5003   2.664  10.015   0.253  0.2132 -0.0385 -0.0249
  940W        W 5004   6.225   1.521   3.009 -0.3744 -0.1680 -0.0936
  941W        W 5005   9.601  10.843   2.131 -0.0764 -0.0263 -0.1514
  942W        W 5006   3.999  10.341   8.582 -0.0932  0.0903 -0.1060
  943W        W 5007   0.172   2.155   3.579 -0.1891 -0.2182 -0.3613
  944W        W 5008   6.929   3.228   2.844 -0.0310 -0.2574  0.1183
  945W        W 5009  10.674   2.345  10.889  0.1833 -0.0741 -0.1986
  946W        W 5010   5.186   3.692   1.977 -0.0326  0.0857 -0.6075
  947W        W 5011   2.766   2.076   1.584 -0.0489  0.0024 -0.3294
  948W        W 5012   0.379   9.601   1.292  0.2621 -0.0590 -0.2127
  949W        W 5013   0.976   1.461  10.394  0.1131  0.0569  0.1170
  950W        W 5014   9.042   7.064  10.458 -0.0820  0.2402  0.5274
  951W        W 5015   8.389   4.728  10.037  0.0334 -0.0239  0.2402
  952W        W 5016   9.237   6.781   2.502  0.0357  0.2150 -0.0517
  953W        W 5017   5.574  10.826   9.225  0.0376  0.1510  0.0394
  954W        W 5018   7.617  10.443  10.289 -0.1810 -0.0395 -0.1719
  955W        W 5019   4.235   0.242   9.934  0.3221  0.0836  0.0470
  956W        W 5020   0.110   6.644   8.893 -0.3784 -0.2321  0.2334
  957W        W 5021   5.613   7.787  10.886  0.0362 -0.1586  0.0547
  958W        W 5022   0.131   8.401   9.586  0.0391  0.0547  0.0139
  959W        W 5023   7.002   7.703   7.805 -0.0978 -0.2073 -0.0919
  960W        W 5024   6.215   1.384   8.994  0.3717  0.0723 -0.1902
  961W        W 5025   9.901   9.578   8.354  0.0394  0.0461 -0.2531
  962W        W 5026   6.348  10.038   2.388 -0.0145  0.1704  0.1496
  963W        W 5027   9.953   3.166   3.453 -0.0755 -0.1948  0.1322
  964W        W 5028   2.211   0.010   9.171  0.0399  0.0954  0.2648
  965W        W 5029   4.659   6.106   7.512  0.1723  0.3388 -0.3062
  966W        W 5030   0.414   5.436   1.894 -0.3766  0.2701  0.0921
  967W        W 5031   8.092   2.317  11.038 -0.1410 -0.1981  0.0810
  968W        W 5032   5.542   5.695  10.844 -0.1042 -0.1135  0.0445
  969W        W 5033   4.787   5.670   1.072  0.1995 -0.5943 -0.0574
  970W        W 5034   6.150   3.407   9.570  0.0329 -0.3672  0.3055
  971W        W 5035   8.166   2.615   8.865  0.0222 -0.1299 -0.0725
  972W        W 5036   7.119   5.112   0.877 -0.0101 -0.0238 -0.2675
  973W        W 5037   4.185   1.961   4.137  0.1114  0.3865 -0.0003
  974W        W 5038   1.310   3.324   0.720  0.3786  0.2682  0.3218
  975W        W 5039   2.364   3.475   8.971 -0.0227 -0.0818  0.0015
  976W        W 5040   9.070   5.976   2.740 -0.0335  0.0350 -0.1624
  977W        W 5041   9.075   0.382   8.625  0.1433 -0.4609 -0.0389
  978W        W 5042   9.102   2.487   9.065  0.0551 -0.0015  0.2158
  979W        W 5043   0.523   3.066   1.390 -0.1695  0.1594 -0.0391
  980W        W 5044   5.786   7.218   1.387  0.0778 -0.2435 -0.1000
  981W        W 5045   3.856   9.276   7.628 -0.1383 -0.0926  0.0544
  982W        W 5046   8.555  10.616   1.239 -0.1437 -0.1156  0.5024
  983W        W 5047   5.740   8.047   8.824  0.0230 -0.0786 -0.3377
  984W        W 5048   9.882  10.851   1.116 -0.2409  0.1461  0.1659
  985W        W 5049   7.168  10.227   1.764 -0.1015  0.0728  0.0011
  986W        W 5050  10.401   3.790  10.388  0.0316 -0.1134 -0.0310
  987W        W 5051   3.805   8.913   1.239  0.0859  0.0119 -0.0116
  988W        W 5052   6.424   3.788  10.727  0.1799  0.0966  0.1268
  989W        W 5053   3.592   3.975   2.220 -0.0600 -0.1150 -0.1032
  990W        W 5054   8.593   1.814   2.275  0.0487 -0.0833 -0.1514
  991W        W 5055   6.498   3.658   9.847 -0.1377  0.3146 -0.1176
  992W        W 5056   7.314   2.420   9.906 -0.3243 -0.1690  0.1355
  993W        W 5057   9.376   6.656   1.375 -0.1509 -0.1871  0.1157
  994W        W 5058   4.177   1.267   0.049 -0.0580 -0.1326 -0.0804
  995W        W 5059   9.653   6.963   2.633 -0.2086  0.1097 -0.0482
  996W        W 5060   0.379   1.896   9.816  0.1019 -0.1380 -0.0040
  997W        W 5061   1.745   4.257   1.435 -0.0271  0.2902  0.1129
  998W        W 5062   7.416   5.368   7.583  0.1035 -0.0955 -0.0127
  999W        W 5063  10.446   7.818   8.437  0.1176  0.0272 -0.0921
 1000W        W 5064   5.303  10.200   1.637 -0.0042  0.0465 -0.0243
 1001W        W 5065   7.954   3.195   9.590  0.2535  0.1084  0.0212
 1002W        W 5066   8.857   2.032   0.738  0.2050  0.1094 -0.0538
 1003W        W 5067   5.627   5.965  10.368  0.0739  0.1224 -0.1817
 1004W        W 5068   0.311   5.398   9.726 -0.1356  0.3552 -0.0081
 1005W        W 5069   1.476   8.242   8.759 -0.1188  0.2701 -0.0576
 1006W        W 5070   3.485   6.667   9.511 -0.4399  0.2238  0.0784
 1007W        W 5071   0.961   0.698  10.034  0.2690  0.4685 -0.2270
 1008W        W 5072   8.879   4.610  10.791 -0.0366 -0.2453 -0.0153
 1009W        W 5073   6.983   3.782   8.329 -0.0653 -0.1170 -0.1716
 1010W        W 5074  10.377   5.241   3.983  0.0691  0.0997  0.1233
 1011W        W 5075   4.216   4.381   1.780 -0.1708  0.2660  0.2060
 1012W        W 5076   3.853   0.834   9.692 -0.4615 -0.1025 -0.0859
 1013W        W 5077   4.342   8.005   4.010  0.0675  0.0746 -0.4529
 1014W        W 5078   0.890   7.765   8.095  0.0350  0.0386 -0.1361
 1015W        W 5079   8.299   6.832   9.151  0.1342  0.1453  0.1133
 1016W        W 5080   7.987   5.775   8.606  0.0992 -0.4154  0.1180
 1017W        W 5081   9.372  10.364   9.154  0.1098 -0.1539  0.1823
 1018W        W 5082   1.647   8.330   0.022  0.0913 -0.0824 -0.1909
 1019W        W 5083   5.142   9.896  10.188  0.1725 -0.0854  0.2965
 1020W        W 5084   8.566   6.776   2.673 -0.2185 -0.0325 -0.0418
 1021W        W 5085   4.056   3.184   9.393 -0.2025  0.2307 -0.1250
 1022W        W 5086   9.589   4.169   0.439 -0.0971  0.1025  0.0119
 1023W        W 5087   5.690   3.706   1.767 -0.1983  0.0225  0.0040
 1024W        W 5088   0.399   1.528  10.195 -0.0763  0.1836  0.1266
 1025W        W 5089   9.714   4.418   8.606 -0.0320  0.3019 -0.1462
 1026W        W 5090   7.459   5.962   1.078 -0.1355 -0.3005 -0.0380
 1027W        W 5091   2.630   0.609   1.721  0.1504 -0.1532  0.3545
 1028W        W 5092   6.151   6.908   2.281 -0.1207 -0.0950 -0.0009
 1029W        W 5093   3.239   0.675   7.060  0.0725 -0.2983 -0.2377
 1030W        W 5094   0.463   2.292   9.445 -0.0448  0.0250  0.0530
 1031W        W 5095   0.388   6.368   0.147  0.3393  0.4000  0.1592
 1032W        W 5096   0.693  10.488   0.808 -0.0582 -0.0593  0.2228
 1033W        W 5097   6.017   1.231   0.108 -0.0770 -0.1363  0.0951
 1034W        W 5098   6.521   0.107   0.311 -0.1648  0.3249 -0.0632
 1035W        W 5099   0.796   7.260   8.927  0.0920  0.2421 -0.3715
 1036W        W 5100   4.334   1.912   0.352  0.1088 -0.1118 -0.0164
 1037W        W 5101   9.896   0.461   1.090 -0.1558  0.0256 -0.0899
 1038W        W 5102   3.441   7.513   9.899 -0.1865 -0.1467  0.4131
 1039W        W 5103   8.312   2.270   2.206 -0.0029  0.1462  0.1177
 1040W        W 5104   0.079   2.562   2.656 -0.1835 -0.1042 -0.0277
 1041W        W 5105   0.217  10.330   9.486  0.0528 -0.0717 -0.1336
 1042W        W 5106   0.826   0.992   1.875 -0.2066 -0.2900  0.0931
 1043W        W 5107   9.284   3.238   8.292  0.2979 -0.0292  0.0622
 1044W        W 5108   2.907   7.286   1.813 -0.0981 -0.0549  0.1867
 1045W        W 5109   7.854   1.595   8.889  0.0228  0.1428  0.0329
 1046W        W 5110   0.596  10.417   9.894  0.2076  0.2413 -0.2453
 1047W        W 5111   7.522   4.810   3.509 -0.1720  0.0283 -0.1598
 1048W        W 5112   1.325   2.910   2.936  0.1496  0.2084 -0.0577
 1049W        W 5113   3.245  10.660   0.825 -0.0224 -0.2256  0.4129
 1050W        W 5114   0.462   1.188   9.484  0.1667  0.1299 -0.0736
 1051W        W 5115   3.403   9.490   3.064  0.1560 -0.4449 -0.1324
 1052W        W 5116   9.637   3.287   1.837 -0.1549 -0.0450  0.3774
 1053W        W 5117   9.668   6.927   8.981  0.1854 -0.0261 -0.1168
 1054W        W 5118   8.077   8.096   0.410 -0.0202 -0.1028 -0.1904
 1055W        W 5119   9.852   9.497   0.645  0.1714 -0.0224  0.1678
 1056W        W 5120   0.831   0.327   9.704  0.1670 -0.0106 -0.0591
 1057W        W 5121   1.234   3.453   8.252 -0.2521 -0.0827  0.0463
 1058W        W 5122   8.907   3.718   3.689 -0.0871  0.1466  0.1760
 1059W        W 5123   5.108   2.545   7.934  0.2906 -0.1027 -0.3783
 1060W        W 5124   2.187   4.325   9.587 -0.1538  0.1393 -0.3726
 1061W        W 5125   2.707   4.330   2.812 -0.2624 -0.1275 -0.0066
 1062W        W 5126   4.818   8.612   2.991 -0.0840 -0.0511 -0.5332
 1063W        W 5127   3.086  10.175   0.603  0.2878 -0.0134  0.2661
 1064W        W 5128   3.832   7.695   9.662 -0.0765  0.0569  0.2748
 1065W        W 5129   0.034   6.726  10.761 -0.1173  0.2427 -0.0954
 1066W        W 5130   4.821   0.077   0.512 -0.0199  0.0611 -0.2950
 1067W        W 5131   8.093   1.897   2.443  0.0732 -0.1364 -0.3227
 1068W        W 5132   5.820   1.191   7.672  0.0453  0.0985 -0.0154
 1069W        W 5133   4.759   2.207   0.076 -0.1764  0.0250  0.3821
 1070W        W 5134   3.406   0.251   4.082 -0.0765 -0.0633 -0.0537
 1071W        W 5135   1.863   5.895   1.672  0.1609  0.1906  0.0038
 1072W        W 5136   2.021   3.377   0.295  0.0770  0.0581 -0.1809
 1073W        W 5137   5.573   6.889  10.812 -0.0145  0.1167  0.0374
 1074W        W 5138   2.830   6.382   0.710  0.1544  0.1508  0.1705
 1075W        W 5139   4.542   6.555   3.668  0.0538  0.1711 -0.0984
 1076W        W 5140  10.552   5.904   9.233  0.1065 -0.2841 -0.1856
 1077W        W 5141   7.147   7.882   3.326  0.0307  0.1579  0.0942
 1078W        W 5142   0.926  10.486   3.974 -0.0699 -0.0631 -0.0646
 1079W        W 5143   9.649   4.489  10.242 -0.0090 -0.1646 -0.4288
 1080W        W 5144   9.723   8.337   2.612  0.1511  0.0130  0.0974
 1081W        W 5145   4.570   8.824   1.966  0.1046  0.0461  0.2954
 1082W        W 5146   5.052   8.657  10.611  0.3668 -0.2690 -0.1303
 1083W        W 5147   4.855   3.177   1.244  0.1853 -0.0707  0.0333
 1084W        W 5148   4.488  10.536   1.292 -0.0408  0.1143 -0.0644
 1085W        W 5149  10.507   3.096   9.675  0.1944  0.3647 -0.0221
 1086W        W 5150  10.457   3.947   2.756  0.2428  0.2001  0.0038
 1087W        W 5151   7.012   8.998   0.834  0.0564  0.1561  0.1920
 1088W        W 5152   9.022   9.494   9.734  0.0242  0.2457 -0.1165
 1089W        W 5153   6.262   3.355   0.080  0.2386  0.0329  0.1149
 1090W        W 5154   1.348   1.831   2.412  0.2995  0.1705 -0.0085
 1091W        W 5155   2.056   1.763  10.773 -0.3089  0.2443 -0.1376
 1092W        W 5156   4.883   2.237   0.536 -0.0422  0.0636 -0.0463
 1093W        W 5157   5.199  10.393   7.844  0.0544  0.0666  0.3592
 1094W        W 5158   2.808   9.529   0.048  0.2390  0.1177 -0.0800
 1095W        W 5159   1.902   0.437  10.865  0.2369  0.2118 -0.1178
 1096W        W 5160   2.177   2.114   9.620 -0.0324 -0.1404  0.1660
 1097W        W 5161   8.547   6.268   0.974 -0.4303 -0.0434  0.0191
 1098W        W 5162   4.833   1.743   0.572  0.0353 -0.0237  0.2350
 1099W        W 5163   2.241   6.404  10.317  0.0002 -0.3294  0.0332
 1100W        W 5164   2.197   5.153   7.977 -0.0056 -0.1905  0.4560
 1101W        W 5165   5.411   4.970   8.522 -0.1690 -0.1758  0.2955
 1102W        W 5166  10.779  10.781   2.056 -0.1423 -0.2240 -0.1060
 1103W        W 5167   1.343   8.403   1.372  0.1313  0.0624  0.2112
 1104W        W 5168  10.294   6.059  10.492 -0.1676  0.3333 -0.4865
 1105W        W 5169   5.891   4.467   7.966  0.0729 -0.0466 -0.0894
 1106W        W 5170   8.718   5.145   8.878  0.2130 -0.1244 -0.1062
 1107W        W 5171   2.575   4.035   3.312 -0.0583  0.0348  0.0099
 1108W        W 5172  10.372   4.136  10.772  0.1563  0.0154  0.1382
 1109W        W 5173   3.298   6.670  10.210 -0.0201 -0.2968 -0.0760
 1110W        W 5174   6.990   3.259   9.021 -0.2054 -0.2681 -0.2599
 1111W        W 5175   4.736   6.084   3.773 -0.3779 -0.0717  0.1722
 1112W        W 5176   0.314  10.778  11.027 -0.1019 -0.0342 -0.0955
 1113W        W 5177   9.361   8.089   9.714  0.0183  0.1877  0.1063
 1114W        W 5178   1.792   4.297   8.511 -0.0197 -0.1124 -0.0389
 1115W        W 5179   0.631   1.358   1.571 -0.3561  0.0688  0.3980
 1116W        W 5180  10.741   6.079  10.806  0.1394  0.4146 -0.1374
 1117W        W 5181   2.410   7.629   4.143 -0.0037 -0.1556  0.1126
 1118W        W 5182   3.385   0.610   8.842  0.0868 -0.0220  0.0807
 1119W        W 5183   5.944   0.471   8.185 -0.1300 -0.1498 -0.0178
 1120W        W 5184   9.615  10.025   8.375 -0.2208  0.3467  0.0928
 1121W        W 5185  10.119   9.259   7.991  0.0461 -0.1436  0.1619
 1122W        W 5186   1.358   3.129   2.446  0.1945 -0.1730  0.0764
 1123W        W 5187  10.366   5.585   8.940 -0.0950  0.0191 -0.0111
 1124W        W 5188   9.203  10.607   7.864 -0.0739 -0.0802 -0.2845
 1125W        W 5189   5.633   0.450   2.280  0.0496  0.2752 -0.0542
 1126W        W 5190  10.060   4.749   2.890  0.2555  0.0583  0.0410
 1127W        W 5191   8.475  10.246   9.060  0.1620 -0.2886  0.1776
 1128W        W 5192   4.337   0.174   1.741  0.2168 -0.4233 -0.3170
 1129W        W 5193   2.066   2.799   1.278  0.1445 -0.1259  0.1628
 1130W        W 5194   2.087   8.266  10.827  0.1023  0.1497 -0.1552
 1131W        W 5195   9.740   1.733   2.264  0.0965  0.1200  0.2948
 1132W        W 5196   9.296   2.855   0.100 -0.0100  0.1148  0.0250
 1133W        W 5197   1.612   3.723   8.681 -0.2448 -0.0743  0.0920
 1134W        W 5198   3.944   4.846   8.126 -0.1064  0.1473  0.0439
 1135W        W 5199   3.872   5.611   1.133 -0.1257  0.1282  0.1017
 1136W        W 5200   0.920   9.420   7.895 -0.3392  0.2372  0.2138
 1137W        W 5201   4.097   9.035   0.854  0.0265 -0.2968 -0.1052
 1138W        W 5202   4.584   3.376  11.042 -0.1382 -0.1458 -0.0112
 1139W        W 5203   6.542   8.488   7.678 -0.1637  0.1372 -0.4274
 1140W        W 5204   3.861   4.049   1.784  0.1411  0.0670  0.1099
 1141W        W 5205   1.074   2.327   1.930  0.1379 -0.3062  0.2115
 1142W        W 5206   1.499   5.115   1.315  0.5205  0.1015  0.0226
 1143W        W 5207   5.238   5.150   9.342  0.0563  0.0682 -0.1970
 1144W        W 5208   7.968   2.180   3.131 -0.0706 -0.1005 -0.1845
 1145W        W 5209   4.986   2.582   3.365 -0.2258  0.2921 -0.0619
 1146W        W 5210   4.761   4.347   9.548  0.0179  0.0728 -0.0203
 1147W        W 5211   2.936   1.375   0.756  0.1366  0.1186 -0.1309
 1148W        W 5212   1.860   0.658   2.841 -0.0999 -0.0087  0.0976
 1149W        W 5213  10.352   4.210   8.307 -0.0331  0.0057 -0.4550
 1150W        W 5214   3.169   2.409   8.414 -0.0362 -0.1851 -0.1011
 1151W        W 5215   6.480   9.056   3.577  0.1988 -0.2946 -0.1083
 1152W        W 5216   5.316   9.617   8.747 -0.1613 -0.0848 -0.3049
 1153W        W 5217   7.491   9.022   3.214 -0.0097  0.1021  0.0935
 1154W        W 5218   8.289   2.061   8.658  0.1452 -0.3637  0.1954
 1155W        W 5219   2.780  10.168   1.960 -0.1961  0.1457 -0.0950
 1156W        W 5220   4.920   7.932   1.466  0.1990 -0.0973 -0.1240
 1157W        W 5221   0.272   6.311   8.028  0.1545 -0.2328 -0.1925
 1158W        W 5222   7.390   2.156   0.575 -0.0460  0.0224  0.0240
 1159W        W 5223  10.803   9.409   7.969 -0.2080 -0.2811  0.0317
 1160W        W 5224   8.929   2.353   8.207  0.1165 -0.4262 -0.0117
 1161W        W 5225   2.620   3.562   8.534  0.0617  0.5092  0.1096
 1162W        W 5226   1.168   2.823   0.498  0.1106 -0.0601  0.2042
 1163W        W 5227   3.407   2.852   2.211 -0.1488 -0.1057 -0.3193
 1164W        W 5228   0.159   3.629   8.553  0.0552  0.1492 -0.0690
 1165W        W 5229   5.038   4.833   1.571  0.0783 -0.0064  0.0741
 1166W        W 5230   2.163   0.307   9.559  0.0780 -0.1533  0.1822
 1167W        W 5231   9.665   0.229  10.506  0.3216  0.0856  0.3424
 1168W        W 5232   7.394   4.399  10.327 -0.3520 -0.2694  0.0746
 1169W        W 5233  10.081   7.517   2.052  0.1873 -0.2074  0.0400
 1170W        W 5234  10.023   4.660   8.039  0.2989 -0.2054  0.0223
 1171W        W 5235   7.946   7.687   2.060 -0.0629  0.0242  0.0137
 1172W        W 5236  10.449   2.577   2.948  0.1508  0.1518  0.0946
 1173W        W 5237   4.679   8.240   3.274  0.0801 -0.0961  0.0636
 1174W        W 5238   7.565   4.627   5.521  0.0345 -0.2383  0.1866
 1175W        W 5239   8.998   6.581   0.283 -0.0641 -0.1688  0.2182
 1176W        W 5240   8.307   9.670   0.765 -0.4315 -0.1867  0.2955
 1177W        W 5241  10.372   3.935   1.802  0.0293 -0.2404 -0.3479
 1178W        W 5242   6.011   3.986   1.363 -0.3097 -0.1471  0.2563
 1179W        W 5243   2.961   1.085   8.159  0.0695  0.1614  0.0134
 1180W        W 5244   6.962   7.440   8.572  0.0525  0.0834 -0.0642
 1181W        W 5245   5.833   4.317  11.016 -0.1291  0.0163 -0.2047
 1182W        W 5246   0.019   0.734   8.605  0.0339 -0.1118  0.3040
 1183W        W 5247   8.943   0.424   0.281  0.1988 -0.2114 -0.3966
 1184W        W 5248   6.905   9.937   0.348  0.0535 -0.2963  0.0701
 1185W        W 5249   6.164   7.535   7.412  0.0497 -0.0826  0.2301
 1186W        W 5250   7.426   3.278   9.933  0.1533  0.1464  0.0458
 1187W        W 5251   5.220   1.248   9.949  0.1600  0.0839  0.0452
 1188W        W 5252   3.258   5.166   2.936  0.0017  0.0580 -0.1334
 1189W        W 5253   0.977   5.446   9.473 -0.1406  0.2066  0.2180
 1190W        W 5254   6.201   1.206   8.442 -0.0516 -0.0530  0.1753
 1191W        W 5255   9.058   9.058   0.326  0.3911 -0.0873 -0.2500
 1192W        W 5256   6.367   8.732   8.886  0.0463 -0.2230 -0.2319
 1193W        W 5257   9.028  10.674   3.918  0.1721  0.1067  0.1450
 1194W        W 5258   8.814  10.825   9.754  0.0937  0.3062 -0.2075
 1195W        W 5259   4.836   5.086   0.824 -0.1773 -0.1376 -0.0776
 1196W        W 5260   0.347   4.560   0.237  0.0269  0.0783  0.3186
 1197W        W 5261   1.365   8.880   9.565 -0.1906 -0.1769 -0.0339
 1198W        W 5262   9.160   7.558  10.650 -0.1783 -0.1253  0.1011
 1199W        W 5263   8.953   6.236   0.625 -0.1688  0.0060  0.1063
 1200W        W 5264   7.146   1.884   9.737  0.1887 -0.0650  0.2756
 1201W        W 5265   6.342   8.288   1.197  0.2729  0.1000  0.0414
 1202W        W 5266   4.610   8.921   4.319  0.1033 -0.3063 -0.2200
 1203W        W 5267   6.653   3.725   0.077 -0.0335  0.1763  0.1895
 1204W        W 5268   0.137   0.207   0.260 -0.2421 -0.0255 -0.1197
 1205W        W 5269   3.997   8.225   0.068  0.0552  0.3366  0.1403
 1206W        W 5270   6.000   2.704   9.262  0.1422  0.2933  0.0534
 1207W        W 5271   2.665   6.508   9.066  0.0195 -0.3124  0.1318
 1208W        W 5272   6.494   1.290   3.813 -0.1149 -0.0687  0.0628
 1209W        W 5273   7.333   6.574   8.999  0.0527  0.2120 -0.0102
 1210W        W 5274   8.931   6.062   9.325  0.1075  0.1615 -0.0148
 1211W        W 5275   8.267   0.981  10.246 -0.0932 -0.1358 -0.1800
 1212W        W 5276   3.175   4.821   0.549 -0.2623  0.2465  0.4269
 1213W        W 5277   7.990   9.277   8.312  0.2066  0.0712  0.1153
 1214W        W 5278   6.055   8.192   9.606  0.1016  0.0895  0.1946
 1215W        W 5279   9.449   9.651   8.101  0.2323 -0.1470  0.3311
 1216W        W 5280   2.127   9.237   1.105  0.1531  0.1281  0.0444
 1217W        W 5281   3.372   3.392   0.546  0.0518  0.2427 -0.0238
 1218W        W 5282   5.988   3.808  11.003 -0.1766  0.1584  0.0696
 1219W        W 5283   0.600   1.065   2.345  0.1788 -0.1495 -0.0871
 1220W        W 5284   1.017   3.334   0.266  0.0985  0.5288 -0.4699
 1221W        W 5285   5.286   0.770  10.477 -0.1184 -0.3051  0.4711
 1222W        W 5286   1.551   0.579   0.163 -0.2428  0.1846  0.1734
 1223W        W 5287   2.006   8.026   8.721  0.0266  0.1178 -0.0412
 1224W        W 5288   3.733   2.614   9.440 -0.1022  0.2664  0.1484
 1225W        W 5289   3.320   7.752   3.329 -0.0468  0.0449 -0.3639
 1226W        W 5290   0.606   4.138   9.159 -0.3026  0.0178 -0.1094
 1227W        W 5291   2.089   4.528  10.800  0.2334  0.1171 -0.2226
 1228W        W 5292   2.413   4.345  10.158 -0.2444  0.2862 -0.1339
 1229W        W 5293   6.164   5.334   9.518  0.1083 -0.1289  0.1161
 1230W        W 5294   2.406   2.145   3.639 -0.0056 -0.0509 -0.0739
 1231W        W 5295   5.800   0.579  10.789  0.0011  0.0509  0.1961
 1232W        W 5296   5.433   3.158   8.139 -0.0202 -0.3955  0.4525
 1233W        W 5297   9.554   9.636   2.503 -0.0723 -0.0981  0.0839
 1234W        W 5298   7.317   0.050  10.748 -0.1626 -0.1626  0.4175
 1235W        W 5299   7.033   6.701   1.247  0.1894  0.2303  0.2454
 1236W        W 5300   2.731   6.013   8.046 -0.2509  0.1953  0.0827
 1237W        W 5301   7.987   6.965  10.197  0.1692  0.0858 -0.0330
 1238W        W 5302   7.454   7.927  10.208 -0.3106  0.0471 -0.0801
 1239W        W 5303   7.101   4.896   0.374 -0.0313  0.3076 -0.0590
 1240W        W 5304   8.101   0.263   8.659 -0.1556  0.3559  0.1585
 1241W        W 5305   8.275   3.228   1.194 -0.2110  0.2318 -0.0618
 1242W        W 5306   1.493  10.529   1.512  0.1717 -0.0924 -0.0133
 1243W        W 5307  10.011   6.178   1.615  0.1559 -0.0744  0.2412
 1244W        W 5308   7.338   5.617   3.137  0.3614  0.2231  0.1382
 1245W        W 5309   9.432  10.525  10.256 -0.1140 -0.1970  0.2644
 1246W        W 5310   3.603   8.725   9.193  0.0470 -0.2453 -0.2431
 1247W        W 5311   0.610   9.531   1.838 -0.0482  0.0178 -0.0650
 1248W        W 5312  10.547   2.634   2.411 -0.0804 -0.4175  0.0463
 1249W        W 5313   9.326   4.806   8.449 -0.1074 -0.1918 -0.0042
 1250W        W 5314   9.344   0.352   2.279 -0.1496 -0.0656  0.1923
 1251W        W 5315   1.010   1.091   7.667  0.1324 -0.1836 -0.0573
 1252W        W 5316   9.858   0.147   0.637  0.0450  0.1317  0.1182
 1253W        W 5317   5.225   1.297   2.636  0.0028 -0.0711 -0.0483
 1254W        W 5318   1.255   1.074   0.249 -0.1058 -0.2128  0.1864
 1255W        W 5319   6.632   5.978   9.958 -0.3513  0.2612  0.1909
 1256W        W 5320   8.727   1.312   3.284 -0.3108 -0.0856 -0.0783
 1257W        W 5321   9.228   7.077   1.167  0.1420  0.2090 -0.3963
 1258W        W 5322   4.309   8.654   0.289  0.1134 -0.0426  0.0709
 1259W        W 5323   5.764   9.934   1.126  0.3177  0.0631 -0.1923
 1260W        W 5324   6.173  10.668   0.746  0.0848  0.0514 -0.0328
 1261W        W 5325  10.341   1.025   3.178 -0.0690  0.2573 -0.0483
 1262W        W 5326   1.066   5.848   9.140 -0.1714  0.0419 -0.1027
 1263W        W 5327   9.897   3.903  10.659 -0.3039  0.1034  0.2662
 1264W        W 5328   0.945   1.408   2.105  0.0914  0.1563 -0.2098
 1265W        W 5329  10.434   2.259   2.075  0.2351 -0.2412 -0.1135
 1266W        W 5330   0.600   8.952   0.291 -0.1948  0.1396  0.2360
 1267W        W 5331  10.556   2.959  10.211 -0.0321 -0.0900  0.3976
 1268W        W 5332   8.340   4.596   2.188 -0.0922 -0.4139  0.1025
 1269W        W 5333   6.497   2.911   3.003 -0.0615  0.1339 -0.5560
 1270W        W 5334   8.457   4.235   1.396 -0.2190  0.1425  0.0361
 1271W        W 5335   0.161   5.633  10.923  0.1153  0.1567 -0.0682
 1272W        W 5336  10.304   0.837   7.952  0.0718  0.1762  0.3821
 1273W        W 5337  10.887   4.354   0.540  0.3157 -0.0784  0.1224
 1274W        W 5338   1.942   9.503   7.783 -0.1086  0.0359  0.3654
 1275W        W 5339  10.178   9.324   6.863 -0.2671  0.1645 -0.1576
 1276W        W 5340   6.487   5.727   3.278 -0.2185  0.0050  0.2735
 1277W        W 5341   6.564   0.687   0.096  0.1272 -0.0854  0.1159
 1278W        W 5342   2.440   4.857   8.554  0.1239  0.0230  0.2002
 1279W        W 5343   2.607   4.209   1.879 -0.1127  0.2171 -0.0220
 1280W        W 5344   2.106   9.428  10.460 -0.0930 -0.1618 -0.2162
 1281W        W 5345   9.108   1.123   8.303  0.0752 -0.3020 -0.1675
 1282W        W 5346   1.670   6.590   7.552  0.1877  0.1226  0.0481
 1283W        W 5347   6.655   5.122   0.613  0.3578 -0.0371  0.1072
 1284W        W 5348   3.831   8.239   0.557 -0.3224 -0.1178 -0.1944
 1285W        W 5349   9.174   5.024   3.239 -0.1039  0.1212 -0.0693
 1286W        W 5350   7.551  10.542   1.583  0.2936  0.1910 -0.1782
 1287W        W 5351   0.095   1.979   8.837 -0.0647  0.0663 -0.1935
 1288W        W 5352   3.561  10.866   1.731 -0.0771 -0.0810 -0.3168
 1289W        W 5353   0.307   0.588   1.667  0.2536 -0.0032  0.1954
 1290W        W 5354   8.095   6.509   2.570  0.1635  0.0337 -0.2416
 1291W        W 5355   6.988   0.719   3.972  0.2894  0.2236 -0.1541
 1292W        W 5356   4.332   2.484   0.223  0.1816 -0.1112 -0.1224
 1293W        W 5357   4.017   1.803   0.840 -0.2953 -0.2190  0.2419
 1294W        W 5358   4.976   4.422   8.998  0.2026  0.1398 -0.2602
 1295W        W 5359   5.264   0.082   8.592 -0.1990 -0.0811  0.0555
 1296W        W 5360   9.742   5.452   2.303  0.0701 -0.2191  0.0040
 1297W        W 5361   4.613   7.747   9.334  0.1137  0.0973 -0.1939
 1298W        W 5362  10.321   2.851   1.987  0.0147  0.0600  0.1888
 1299W        W 5363   0.549   4.561   8.821 -0.2943 -0.0405  0.0322
 1300W        W 5364   5.834   3.032  10.365  0.3990  0.2831 -0.0531
 1301W        W 5365  10.649   1.735   9.445 -0.0828  0.0396 -0.2241
 1302W        W 5366   0.809   5.506   2.203 -0.0430  0.0320  0.1595
 1303W        W 5367   2.972  10.690   9.728 -0.1432  0.0302  0.1907
 1304W        W 5368   5.892   2.533   0.423 -0.2061  0.0874 -0.2281
 1305W        W 5369   2.047   1.583   1.195 -0.2345 -0.2302 -0.0272
 1306W        W 5370   7.857   7.965   4.079 -0.2274 -0.2192 -0.0312
 1307W        W 5371  10.320   1.802   2.356  0.0396 -0.2338  0.0513
 1308W        W 5372   0.971   7.856   9.579 -0.1313 -0.2077  0.1351
 1309W        W 5373  10.034   3.531  10.112  0.0209 -0.4077  0.3745
 1310W        W 5374   0.679   4.466   8.159 -0.0829 -0.2339 -0.0604
 1311W        W 5375   2.040   3.562  10.453  0.3769  0.1052 -0.0382
 1312W        W 5376   7.187   5.190   8.422 -0.0004 -0.0537  0.2883
 1313W        W 5377   5.377   0.265   9.874 -0.0399  0.0707  0.2114
 1314W        W 5378   3.654   0.628   0.461  0.0834  0.2798 -0.0953
 1315W        W 5379   1.224   4.302   3.827  0.2677 -0.0516 -0.0395
 1316W        W 5380   1.138   8.359   2.713 -0.1529 -0.4946 -0.1573
 1317W        W 5381   1.683   5.422   1.744 -0.2894  0.1277 -0.0953
 1318W        W 5382  10.077   9.553  10.426  0.0667  0.2134  0.0681
 1319W        W 5383   1.423   4.965   0.844 -0.4853 -0.1196 -0.2018
 1320W        W 5384   2.456   6.835   0.314  0.1597  0.4098 -0.1357
 1321W        W 5385   1.549   7.946   0.436 -0.0056 -0.0730  0.2222
 1322W        W 5386   8.772  10.230   8.558  0.3176 -0.1037  0.4706
 1323W        W 5387   7.911   1.205  10.045  0.0714 -0.0526  0.1890
 1324W        W 5388   9.950   7.887   1.105 -0.1819 -0.3280  0.4749
 1325W        W 5389   9.637   5.503   0.557  0.2487  0.1743 -0.0979
 1326W        W 5390   1.968   2.482  10.925 -0.1383  0.0083  0.0884
 1327W        W 5391   0.323   5.112  10.132  0.0803  0.0149  0.1166
 1328W        W 5392   8.552   5.805  10.864  0.1057  0.1017 -0.2429
 1329W        W 5393   4.207   2.691   0.756 -0.0993  0.1250 -0.0260
 1330W        W 5394   5.092   7.962   9.525 -0.1402 -0.1797  0.0483
 1331W        W 5395   3.118  10.539   1.940  0.1016  0.2544  0.0560
 1332W        W 5396   1.299   5.799   9.678 -0.0505 -0.1650 -0.1802
 1333W        W 5397   1.628   5.801   0.348 -0.2486  0.0735  0.0238
 1334W        W 5398   8.877   2.959   8.155 -0.1308 -0.0563 -0.0105
 1335W        W 5399   2.428   9.522  10.810 -0.0633 -0.4073 -0.0019
 1336W        W 5400   7.170   3.947   0.831 -0.0878 -0.2094 -0.0716
 1337W        W 5401   2.255   8.744   0.783 -0.1478  0.0012 -0.0160
 1338W        W 5402   5.074   1.811   2.342  0.2766 -0.0140  0.2167
 1339W        W 5403   0.554   6.790   2.371  0.1620  0.0815 -0.1309
 1340W        W 5404  10.206   5.621   7.972 -0.0347 -0.1894  0.2966
 1341W        W 5405   7.278   7.598   0.123 -0.2439  0.1441  0.2412
 1342W        W 5406   9.574   4.222   9.715 -0.2632 -0.0028  0.0896
 1343W        W 5407   5.127   9.130   9.460  0.0448 -0.1797  0.0540
 1344W        W 5408   6.346   9.230   8.657 -0.2561  0.4396  0.2390
 1345W        W 5409   0.343   0.517   9.896  0.0537 -0.0406  0.3372
 1346W        W 5410   6.046   5.871   2.479  0.0722  0.0267 -0.2622
 1347W        W 5411   6.634   7.659   8.164 -0.0285  0.0802  0.2759
 1348W        W 5412   6.791   9.432   8.880  0.2340  0.0842  0.3349
 1349W        W 5413   3.257   4.051   1.107 -0.1103 -0.3265  0.0769
 1350W        W 5414  10.627   8.957   1.847  0.0426 -0.0542 -0.0902
 1351W        W 5415   0.347   6.888   7.165  0.1727  0.1997 -0.1065
 1352W        W 5416   7.087   3.910   1.993  0.1682  0.1572  0.0989
 1353W        W 5417   9.269   5.609   2.480  0.0175  0.0479  0.1329
 1354W        W 5418   1.562   8.767   0.335 -0.2013  0.1376  0.1455
 1355W        W 5419   4.589   3.712   2.582  0.0729 -0.0024  0.0685
 1356W        W 5420   4.778   0.753  10.566  0.0961  0.2111  0.0039
 1357W        W 5421   9.363   8.772   0.701  0.0398 -0.1135  0.2090
 1358W        W 5422   8.999   3.386  10.706  0.1514  0.1190 -0.3182
 1359W        W 5423   3.153   0.210   7.937  0.2022 -0.1071 -0.2469
 1360W        W 5424   6.970   9.232   3.859 -0.0458 -0.0071 -0.2568
 1361W        W 5425   7.270   9.166  10.840 -0.0890  0.2499 -0.2026
 1362W        W 5426   0.202   8.966   1.973 -0.2312 -0.0529 -0.1495
 1363W        W 5427   5.577   2.536   9.021 -0.0515 -0.0738 -0.1015
 1364W        W 5428   5.652   8.091   3.218 -0.0618  0.0951 -0.0041
 1365W        W 5429   0.889   3.097   8.203  0.0083  0.0251 -0.2373
 1366W        W 5430   6.989   6.621   2.009  0.3281 -0.1844 -0.1341
 1367W        W 5431   8.202   1.010   9.143 -0.0121 -0.2491 -0.1130
 1368W        W 5432   2.009   1.410   0.241 -0.3383 -0.0384  0.0076
 1369W        W 5433   8.264   6.630  10.451 -0.0604  0.1973  0.0915
 1370W        W 5434   5.768   7.512   8.532 -0.3476 -0.0716 -0.0167
 1371W        W 5435   3.826   9.440  11.002 -0.0661 -0.2064 -0.0790
 1372W        W 5436   2.591   6.429   9.589  0.1535 -0.0964 -0.3818
 1373W        W 5437   4.843   7.294   4.143  0.2926  0.0620  0.0231
 1374W        W 5438  10.350   2.117   9.593 -0.0047  0.3524  0.1168
 1375W        W 5439   1.902   3.634  10.947  0.2441 -0.0811  0.0419
 1376W        W 5440   4.851   3.627  10.470  0.0492 -0.0005  0.0031
 1377W        W 5441   9.323   8.870  10.305 -0.0230 -0.0485 -0.1395
 1378W        W 5442   1.611   2.599   1.227  0.0850  0.0331 -0.1475
 1379W        W 5443   0.230   3.624  11.043 -0.0227  0.1148 -0.1755
 1380W        W 5444   4.829   6.461   0.271  0.1119  0.1595 -0.1535
 1381W        W 5445   9.452   1.402   0.075  0.1071 -0.0164 -0.1743
 1382W        W 5446  10.692   8.457   1.991 -0.2338 -0.0954  0.1451
 1383W        W 5447   1.300   9.542  10.306  0.4727  0.1792  0.1437
 1384W        W 5448   7.993   0.319   9.613  0.0118 -0.0032  0.0822
 1385W        W 5449  10.246  10.174  10.566 -0.5393  0.0998 -0.3517
 1386W        W 5450   0.547   1.016   9.915 -0.2648 -0.0031  0.3307
 1387W        W 5451   1.406   8.680   7.274  0.0246 -0.0648  0.3146
 1388W        W 5452   1.451   2.634   1.905  0.1322 -0.0792 -0.3122
 1389W        W 5453   0.788  10.496   9.352  0.0078  0.1369 -0.1376
 1390W        W 5454   2.673   0.957   0.764  0.1378  0.3041 -0.2108
 1391W        W 5455   0.132   1.470   3.090  0.0638 -0.0163 -0.0304
 1392W        W 5456   7.091   1.259   9.999 -0.1236  0.2847 -0.0768
 1393W        W 5457   2.547   1.782   0.671 -0.1055  0.1288 -0.3605
 1394W        W 5458   1.672   6.902   3.666 -0.0550 -0.2825  0.1058
 1395W        W 5459   6.973   9.624   9.747 -0.0735  0.3251 -0.0634
 1396W        W 5460   6.302   0.629   9.626  0.0594  0.1182  0.0374
 1397W        W 5461   5.261   0.267   3.242  0.0448  0.0408  0.5079
 1398W        W 5462   2.610   7.296   0.285  0.0666 -0.3270  0.0648
 1399W        W 5463   7.469   9.825   9.727  0.1418 -0.1271 -0.1000
 1400W        W 5464   1.199   7.475   2.725 -0.0476 -0.1076 -0.1900
 1401W        W 5465  10.570   2.994   0.249 -0.0994  0.2124  0.5470
 1402W        W 5466   2.847   2.847   9.557  0.1167 -0.0955 -0.1546
 1403W        W 5467   0.613   9.160   2.849 -0.0855 -0.1576 -0.0917
 1404W        W 5468   3.868   4.299   9.671  0.0323 -0.2577 -0.2545
 1405W        W 5469  10.264   2.251   2.534 -0.3181 -0.5123  0.2018
 1406W        W 5470   8.770   2.200   8.823 -0.3968  0.2534  0.0785
 1407W        W 5471   4.444   0.872   0.787 -0.0460 -0.0147  0.2812
 1408W        W 5472   9.880   7.383   9.132 -0.0560 -0.1140 -0.0049
 1409W        W 5473   1.963   1.336   3.610 -0.0063 -0.3967  0.1775
 1410W        W 5474   6.393   6.062   4.255 -0.3515 -0.5036  0.1066
 1411W        W 5475   9.667   6.509   2.525 -0.1309  0.3484 -0.0605
 1412W        W 5476   6.797   6.149   8.097 -0.1640  0.0189 -0.1746
 1413W        W 5477   3.855   1.260   1.421 -0.0001  0.1603 -0.2055
 1414W        W 5478   3.951   9.982   0.791 -0.1471  0.2260  0.0954
 1415W        W 5479   2.153   5.941  10.039 -0.2247 -0.1706  0.2886
 1416W        W 5480   3.759   4.509   1.895 -0.0524  0.0130  0.4693
 1417W        W 5481   4.564   4.567   2.349  0.0413 -0.2566  0.0573
 1418W        W 5482   9.142   9.006   9.497 -0.2591 -0.0926  0.6390
 1419W        W 5483   4.234   0.642   2.580  0.1564 -0.1158 -0.0540
 1420W        W 5484   9.285   0.694   2.699 -0.0636 -0.0817 -0.3596
 1421W        W 5485   4.229   4.407  10.637  0.2690  0.0084  0.4279
 1422W        W 5486   5.648   9.921   9.112  0.0797 -0.1491 -0.1594
 1423W        W 5487   6.367  10.574   9.797  0.0274  0.0695 -0.3677
 1424W        W 5488   2.245   0.940   2.021 -0.0195  0.1248 -0.0716
 1425W        W 5489   4.630   4.673   2.993 -0.1815 -0.0297 -0.1350
 1426W        W 5490   5.007   4.322   8.484 -0.0428  0.1378 -0.2507
 1427W        W 5491   7.455   2.566   9.348  0.0624 -0.2297  0.0663
 1428W        W 5492   9.006  10.514   0.626  0.1288 -0.3350 -0.0973
 1429W        W 5493   1.868   0.947   6.966 -0.2251 -0.1623  0.1163
 1430W        W 5494   8.363   3.284  10.100 -0.0278 -0.0391  0.0239
 1431W        W 5495   4.734   8.248  10.718 -0.1418  0.1042 -0.2048
 1432W        W 5496   9.940   3.239   1.262  0.0136 -0.0789 -0.0768
 1433W        W 5497   6.921   4.473   8.951  0.1723  0.0916  0.1221
 1434W        W 5498   6.929   7.593   3.000  0.0159  0.1165  0.1657
 1435W        W 5499   4.080   6.239   2.683 -0.1377 -0.1141  0.2458
 1436W        W 5500   7.193   1.321   2.577  0.2100  0.0284  0.0790
 1437W        W 5501   5.737   5.495   1.295  0.1009  0.0048  0.3403
 1438W        W 5502   4.755  10.232   3.079  0.1315 -0.0004  0.2657
 1439W        W 5503   2.891   5.793  10.622  0.2237 -0.2087 -0.0053
 1440W        W 5504   7.038   0.723   7.630 -0.1427  0.0753  0.0760
 1441W        W 5505   7.232   9.385   2.910  0.0586 -0.2765  0.0470
 1442W        W 5506   7.494   3.912   0.318  0.1669 -0.2296  0.0194
 1443W        W 5507   4.880   1.706   1.852  0.0519  0.1906 -0.1240
 1444W        W 5508   7.542   9.846   3.499  0.2119 -0.1914 -0.0373
 1445W        W 5509  10.183   5.487   1.962  0.1805  0.0007 -0.0621
 1446W        W 5510   6.225   0.166   1.069 -0.3344  0.1887 -0.0561
 1447W        W 5511   1.395   3.794   0.887  0.0087  0.2154 -0.0669
 1448W        W 5512   1.150   1.800   1.895 -0.2682  0.3909  0.1205
 1449W        W 5513   0.031   6.053   1.581 -0.0270 -0.2699  0.2502
 1450W        W 5514   3.702   3.476   2.294 -0.2323 -0.1585  0.1452
 1451W        W 5515   6.792   5.969   3.585  0.1781  0.0279 -0.1672
 1452W        W 5516   0.410   7.114   9.628  0.0419  0.2301 -0.0137
 1453W        W 5517  10.215   0.647   2.731 -0.0180 -0.3632  0.2623
 1454W        W 5518   0.219   1.680   1.652  0.0686 -0.5089  0.0057
 1455W        W 5519   7.051   3.663   0.373  0.1361  0.1235 -0.3128
 1456W        W 5520   1.375   4.724   7.810  0.2135 -0.0233  0.2143
 1457W        W 5521  10.339   5.959   8.327 -0.1835  0.1154  0.0157
 1458W        W 5522   6.845   2.464   9.962 -0.0458 -0.1027 -0.1408
 1459W        W 5523   0.234   7.485   8.140 -0.1079 -0.0122  0.2232
 1460W        W 5524   2.890   9.455   3.106 -0.2691 -0.1564  0.3050
 1461W        W 5525   0.957   4.701   8.536  0.0037  0.0220 -0.4862
 1462W        W 5526   6.448   9.579   2.425  0.1722 -0.0255  0.4202
 1463W        W 5527   8.115   6.451   9.537 -0.1849  0.0451 -0.0400
 1464W        W 5528   4.474   8.630   7.907  0.0493  0.1858  0.2063
 1465W        W 5529   9.544   7.330  10.844 -0.1388  0.2257 -0.0077
 1466W        W 5530   1.826   4.095  11.045  0.1200 -0.1818  0.4070
 1467W        W 5531   6.546   4.491   9.400  0.2880  0.1025 -0.0675
 1468W        W 5532   8.993   9.940   1.449 -0.0931 -0.2145  0.0714
 1469W        W 5533   3.629   1.065   7.987 -0.2486 -0.2165 -0.3227
 1470W        W 5534   4.668   7.182   9.146 -0.1292 -0.1426  0.2006
 1471W        W 5535   0.669   2.836  10.700  0.2634  0.1583 -0.1111
 1472W        W 5536   3.936   5.060   1.245 -0.2495  0.1431 -0.4867
 1473W        W 5537   9.946   6.756   0.313  0.1844 -0.3379  0.1602
 1474W        W 5538   0.175   3.338   2.985  0.1788 -0.1231 -0.2665
 1475W        W 5539   5.160   1.288   2.095  0.1863  0.1778 -0.0689
 1476W        W 5540   8.557   5.865   9.747 -0.1969  0.3433 -0.1256
 1477W        W 5541   7.032   8.500   8.511  0.0775  0.4188 -0.1304
 1478W        W 5542   8.331   7.747   0.064 -0.2578 -0.1470 -0.1127
 1479W        W 5543   0.532   3.212  10.195  0.2150  0.2832  0.2880
 1480W        W 5544   1.944   6.596   2.844 -0.0539  0.0618  0.0002
 1481W        W 5545  10.872   0.284   2.430 -0.1968 -0.1317  0.1384
 1482W        W 5546   8.348   7.677   0.535 -0.0767 -0.1258 -0.3312
 1483W        W 5547   0.475   2.124   1.021  0.0126  0.3303  0.3117
 1484W        W 5548   0.785  10.708  11.031  0.0966  0.1051 -0.0055
 1485W        W 5549   4.636  10.449   8.772  0.2922 -0.0439 -0.2541
 1486W        W 5550   9.191   4.935   8.938  0.2649  0.0736 -0.1147
 1487W        W 5551   6.347   4.706  11.040 -0.2177 -0.2606 -0.1231
 1488W        W 5552   8.402   5.934   9.315  0.1617  0.0124  0.2826
 1489W        W 5553   2.586  10.461   9.303  0.3780  0.0280  0.0481
 1490W        W 5554   3.655   8.336   8.770 -0.0668  0.0367  0.0077
 1491W        W 5555   2.417   1.901   8.905  0.2645 -0.2953  0.1141
 1492W        W 5556   2.888  10.487  11.048 -0.0525  0.0787 -0.3648
 1493W        W 5557   6.769   9.697   2.888  0.1132 -0.2483  0.0156
 1494W        W 5558   1.220   2.859   0.987 -0.3052 -0.2575 -0.3588
 1495W        W 5559   1.030   1.202   9.466 -0.0047  0.0063 -0.1233
 1496W        W 5560   8.633   7.634   2.539 -0.3899 -0.0318 -0.1120
 1497W        W 5561   8.598   9.469   9.270  0.0650  0.1199  0.2801
 1498W        W 5562   2.026   9.930  10.951 -0.2675 -0.1522  0.1905
 1499W        W 5563   7.143   9.222   8.501  0.0037 -0.2899  0.3187
 1500W        W 5564   5.296   0.599  10.993 -0.1691 -0.0837 -0.1145
 1501W        W 5565   3.278   2.540   9.532 -0.0079  0.4541 -0.2525
 1502W        W 5566   0.488   4.930   8.404 -0.2065 -0.0651  0.2511
 1503W        W 5567   9.116  10.645   3.001  0.3770  0.0550 -0.3237
 1504W        W 5568   7.704   4.475   1.239 -0.4421  0.0498  0.0137
 1505W        W 5569   5.309   8.467   1.265 -0.1704  0.2674  0.1215
 1506W        W 5570   8.384   6.233   0.522 -0.2472  0.0370 -0.1882
 1507W        W 5571   0.711   2.880   0.122  0.1652  0.0447 -0.2132
 1508W        W 5572   3.533   2.489   7.524 -0.1099  0.0507  0.2945
 1509W        W 5573   8.364   7.016   8.476 -0.1854 -0.3818  0.2043
 1510W        W 5574   9.203   0.039   8.975  0.1141 -0.2979 -0.1949
 1511W        W 5575   1.376   0.312   3.799  0.2424  0.0340 -0.0355
 1512W        W 5576   8.017   0.685   1.179 -0.0833 -0.1348 -0.1372
 1513W        W 5577   9.900   2.089   0.393  0.1556  0.0024  0.0481
 1514W        W 5578   2.895   4.589   9.322 -0.0161 -0.0259 -0.1816
 1515W        W 5579   2.293   0.630   8.364 -0.1989  0.0098  0.1440
 1516W        W 5580   6.435   6.532   2.094 -0.0868 -0.1219 -0.2047
 1517W        W 5581   2.844   3.225   9.160 -0.1196  0.2038  0.0416
 1518W        W 5582   0.686   9.412   3.821  0.0148 -0.3560 -0.1474
 1519W        W 5583   5.982   7.254   0.040 -0.0148  0.1243  0.1382
 1520W        W 5584   6.426   6.459  10.489  0.1715 -0.1437  0.1378
 1521W        W 5585   0.191   8.753   2.922 -0.1370  0.1997  0.3776
 1522W        W 5586   5.765   9.829   8.574  0.0773  0.1128 -0.1739
 1523W        W 5587   2.737   4.969   0.741  0.2212  0.1299 -0.2213
 1524W        W 5588   1.194   7.091   0.271 -0.1400 -0.0102 -0.2714
 1525W        W 5589  10.226   2.849   1.358  0.1349  0.1462 -0.2866
 1526W        W 5590   7.508   4.862   0.679 -0.1056  0.0925  0.1694
 1527W        W 5591   3.622  10.356   1.633  0.1358  0.0639 -0.2724
 1528W        W 5592   5.029   8.289   2.680 -0.0098 -0.2561 -0.2385
 1529W        W 5593  10.109   7.428   1.109  0.4134 -0.2079  0.0357
 1530W        W 5594   0.624   7.078   1.041  0.0860 -0.0655 -0.2022
 1531W        W 5595   8.651   0.749   9.264 -0.1811 -0.1225  0.0910
 1532W        W 5596   6.630   1.525  10.231 -0.0294 -0.0189  0.0526
 1533W        W 5597   7.132  10.642   2.346  0.0067  0.1033  0.4498
 1534W        W 5598  10.374  10.289   0.423  0.0248 -0.3877  0.1093
 1535W        W 5599  10.047   8.192  10.528 -0.1335 -0.1706  0.0428
 1536W        W 5600   4.283   5.723   9.652  0.2892  0.1012  0.0719
 1537W        W 5601   3.823   2.374   7.897 -0.3695  0.0165 -0.2722
 1538W        W 5602   9.246   9.597  10.600 -0.0597 -0.0683  0.0675
 1539W        W 5603   3.704   3.211   3.672 -0.0088 -0.0320  0.0095
 1540W        W 5604   7.061   7.669   2.074  0.1190  0.2158 -0.0598
 1541W        W 5605   8.910   6.939   8.474 -0.0275  0.1095 -0.1750
 1542W        W 5606   6.537   9.174   0.840  0.3046 -0.0262 -0.2701
 1543W        W 5607   5.393   6.650   4.295  0.1729  0.2858 -0.0311
 1544W        W 5608   0.737   4.389  10.714  0.0445  0.0040  0.0444
 1545W        W 5609   3.045   8.233   0.325  0.0825 -0.0831  0.0461
 1546W        W 5610   7.333  10.820   3.373 -0.3980  0.1842 -0.1536
 1547W        W 5611   2.163   8.683   7.840  0.1977  0.1982 -0.0536
 1548W        W 5612   8.868   3.208   8.661  0.1389 -0.1411 -0.0775
 1549W        W 5613   7.334   2.651  10.646  0.2110  0.1310  0.2465
 1550W        W 5614   8.473   7.438   8.788  0.3803 -0.0893  0.3606
 1551W        W 5615   2.673   6.995   9.429  0.1128  0.3010  0.1085
 1552W        W 5616   6.845   0.481   3.557 -0.1712  0.3383  0.0695
 1553W        W 5617   8.371   2.817  10.850  0.0121 -0.0819 -0.1378
 1554W        W 5618   9.909   3.865   7.580 -0.1692  0.0130  0.0639
 1555W        W 5619   8.232   0.485   4.157  0.0168 -0.0314  0.1176
 1556W        W 5620   1.379   0.497   2.006  0.0474  0.2392 -0.0488
 1557W        W 5621  10.393   4.162   1.352  0.0259 -0.0298  0.0178
 1558W        W 5622   0.015   9.751  11.027  0.0847  0.0031 -0.1994
 1559W        W 5623   5.386   0.003   0.443  0.1282  0.4124 -0.0393
 1560W        W 5624   6.731   4.755   0.963 -0.1689 -0.2114  0.2332
 1561W        W 5625  10.229   0.625  10.269  0.1679 -0.1376 -0.0104
 1562W        W 5626   5.961   9.505   8.946  0.0383 -0.2695  0.2085
 1563W        W 5627   3.170  10.672   8.175  0.1325 -0.0703 -0.0971
 1564W        W 5628  10.167   9.503  10.989  0.0885 -0.1220  0.0170
 1565W        W 5629   7.770   0.098   9.212  0.3365  0.1706  0.0819
 1566W        W 5630  10.618   7.721   0.172 -0.0501  0.1135 -0.1129
 1567W        W 5631   9.168   5.086   7.429 -0.1224  0.0722  0.0346
 1568W        W 5632   8.218   4.493   7.462  0.2188  0.2270 -0.0723
 1569W        W 5633   3.627   1.836   3.082 -0.0581  0.1793 -0.2160
 1570W        W 5634   3.902   8.629   4.112 -0.1888  0.0567 -0.1674
 1571W        W 5635   7.044  10.546   0.861  0.0045  0.2785  0.0995
 1572W        W 5636   7.852  10.602   3.070  0.2168  0.2230 -0.0650
 1573W        W 5637   7.528   0.537   2.356  0.0818  0.0003 -0.1202
 1574W        W 5638   1.081   1.912  10.385  0.0423 -0.0173  0.0441
 1575W        W 5639   1.538   3.003   1.470 -0.1234 -0.0132 -0.4825
 1576W        W 5640   5.201   8.346   8.113  0.1037 -0.0559  0.1272
 1577W        W 5641   2.869   2.574   9.168 -0.1338 -0.0740 -0.3763
 1578W        W 5642   3.718   6.864   1.606  0.0195  0.2996  0.0780
 1579W        W 5643   1.580   5.078   2.100 -0.0054 -0.2387  0.0850
 1580W        W 5644   7.030   1.326   2.040  0.3545 -0.2621  0.0585
 1581W        W 5645   0.774   3.477   8.532 -0.2452  0.0344  0.1903
 1582W        W 5646   8.575   0.464   8.451 -0.0229 -0.1823  0.0337
 1583W        W 5647   8.347   5.062   2.416  0.0863 -0.0729  0.0419
 1584W        W 5648   0.750   4.777   1.545 -0.0805 -0.0968  0.2535
 1585W        W 5649   4.931   9.951   2.638 -0.0395 -0.0962  0.2469
 1586W        W 5650   1.078  10.581   1.888  0.1698 -0.2857  0.1340
 1587W        W 5651   8.594   9.538  10.108 -0.1244  0.2051  0.0406
 1588W        W 5652   1.970   5.269   2.471 -0.0694  0.2336 -0.1208
 1589W        W 5653   7.054   8.161   1.103  0.0487 -0.0469  0.0323
 1590W        W 5654   6.053   3.756   8.438  0.0687 -0.1094 -0.2477
 1591W        W 5655   3.935   6.014   8.730 -0.2416  0.1844 -0.1621
 1592W        W 5656   9.121   5.462   1.134  0.2900  0.0735  0.1421
 1593W        W 5657   4.759   0.942   9.286 -0.1370  0.1955  0.0480
 1594W        W 5658   9.570   6.830   9.459 -0.1822 -0.0063 -0.1488
 1595W        W 5659   6.975   4.694  10.202  0.0309  0.0627 -0.0612
 1596W        W 5660   9.765   2.604   8.090 -0.3278  0.2303  0.0487
 1597W        W 5661   9.834   7.023  10.483  0.1763 -0.3501  0.0471
 1598W        W 5662   5.035   8.519   2.219  0.4270 -0.3648  0.0037
 1599W        W 5663   2.470   2.945   9.065  0.0435  0.3599 -0.1863
 1600W        W 5664   5.028   9.158   9.961 -0.0673 -0.0861  0.1501
 1601W        W 5665   8.592   1.999   3.653  0.1852  0.0012  0.0327
 1602W        W 5666   5.250   0.784   1.450  0.0886  0.1936 -0.0294
 1603W        W 5667   1.147   6.346   1.626  0.0285  0.0652  0.1789
 1604W        W 5668   6.751   8.332   4.028  0.0112  0.2091  0.1064
 1605W        W 5669   9.613   5.526   6.522 -0.0382 -0.1174  0.1800
 1606W        W 5670   8.879   6.267   8.872  0.2083  0.0224  0.0902
 1607W        W 5671   3.535  10.358  10.946 -0.1440 -0.3010  0.1019
 1608W        W 5672   4.571   6.671   9.892  0.0431  0.2418  0.0427
 1609W        W 5673   6.025   2.944   9.667 -0.2316 -0.2146 -0.2995
 1610W        W 5674   6.638   5.442   9.853  0.0138 -0.1262  0.2996
 1611W        W 5675   7.806   5.286   7.991  0.1799  0.3193 -0.0306
 1612W        W 5676   6.637   2.121   2.511 -0.3235  0.0328 -0.3200
 1613W        W 5677   4.473   6.344  10.843 -0.0306  0.0285 -0.0796
 1614W        W 5678   2.521   5.757   8.794 -0.2539  0.5132 -0.0307
 1615W        W 5679   9.932   9.442   1.504  0.2259 -0.1153 -0.0529
 1616W        W 5680   6.311   2.852  10.309 -0.0477 -0.0286  0.1886
 1617W        W 5681   9.399   5.720   9.334 -0.1249  0.2048 -0.1794
 1618W        W 5682   6.015   4.558   9.178  0.3417 -0.2298  0.0936
 1619W        W 5683   9.867   4.035   1.301 -0.1623  0.1211  0.1777
 1620W        W 5684   5.461   3.017   9.986  0.0079 -0.0065 -0.1665
 1621W        W 5685   3.036   6.429   9.444  0.0198 -0.1567  0.2679
 1622W        W 5686   2.337   4.507   2.472 -0.1042 -0.0970  0.0307
 1623W        W 5687   1.762  10.194   7.074 -0.3865  0.0828  0.0827
 1624W        W 5688   1.748   2.760   9.979  0.3601 -0.1564  0.0019
 1625W        W 5689   7.377   1.585   1.785 -0.2117 -0.0195 -0.0665
 1626W        W 5690   6.410   7.305   2.642 -0.1200 -0.0217  0.2305
 1627W        W 5691   0.119   7.948   9.210  0.2346  0.0165  0.2148
 1628W        W 5692   1.055  10.757   8.022  0.1194  0.1913  0.3635
 1629W        W 5693   2.836   7.529   8.228 -0.0678  0.2900  0.3198
 1630W        W 5694   3.234  10.061   1.809 -0.0177  0.0077  0.0520
 1631W        W 5695   4.154   5.545   3.256  0.1169 -0.1138 -0.4587
 1632W        W 5696   8.270   3.828   9.117 -0.0400  0.0578  0.2187
 1633W        W 5697   5.850   9.208   0.056 -0.1542 -0.1121  0.1702
 1634W        W 5698  10.647  10.817   4.092 -0.0256 -0.3163  0.2860
 1635W        W 5699   0.598   8.435   2.634 -0.0975 -0.2172 -0.2236
 1636W        W 5700   3.543   6.085   2.709 -0.0663 -0.1714 -0.0083
 1637W        W 5701   4.213  10.626   9.350 -0.0816 -0.0553 -0.1365
 1638W        W 5702  10.639   0.006  10.291 -0.0487  0.0420 -0.4192
 1639W        W 5703   8.242  10.803   3.360 -0.1537  0.1672 -0.3512
 1640W        W 5704   0.086   8.910   9.618 -0.3717  0.0741 -0.0301
 1641W        W 5705   2.810   2.197   0.746 -0.0399  0.2923  0.2941
 1642W        W 5706   3.809   3.746  10.880 -0.1081  0.0472  0.2632
 1643W        W 5707   7.667   0.924   6.862  0.0525  0.3969 -0.0667
 1644W        W 5708   0.419   9.061   1.523  0.0030 -0.1233 -0.0302
 1645W        W 5709   4.743   7.945   0.550  0.0645 -0.1438 -0.1560
 1646W        W 5710   1.800   1.436  10.107 -0.1633 -0.2330 -0.0532
 1647W        W 5711   4.976   1.631   3.430  0.3674  0.2659  0.0408
 1648W        W 5712   9.807   0.078   8.082  0.0655  0.0017  0.0048
 1649W        W 5713   2.123   2.240   8.599  0.0907 -0.0386  0.0801
 1650W        W 5714   5.700   4.649   2.217 -0.2819 -0.2105  0.1308
 1651W        W 5715   8.576   9.349   8.626  0.2110  0.0603 -0.0380
 1652W        W 5716   7.972   7.927   1.644 -0.1689 -0.1084 -0.0999
 1653W        W 5717   1.696   5.390   0.693 -0.0390 -0.2072 -0.1453
 1654W        W 5718   8.727   7.544  10.391 -0.2659 -0.1591  0.2471
 1655W        W 5719   9.403   1.811   0.773  0.2107 -0.0247  0.0860
 1656W        W 5720   5.616   0.975   0.196 -0.1569 -0.2483 -0.1605
 1657W        W 5721   8.131   9.785   3.232 -0.0239  0.1945  0.1896
 1658W        W 5722   4.513   1.934   7.490  0.0736  0.0693  0.1879
 1659W        W 5723   1.141   7.808   1.265  0.3010 -0.4610  0.1016
 1660W        W 5724   7.100   2.351   2.365 -0.0627 -0.0449  0.0733
 1661W        W 5725   0.966   4.999   9.310  0.1483  0.0517  0.3137
 1662W        W 5726   8.380   6.054   8.783  0.1215 -0.0558  0.0361
 1663W        W 5727   7.438   8.148   9.229 -0.0309 -0.0358 -0.0149
 1664W        W 5728  10.570   2.497  10.417  0.1040 -0.1931  0.0669
 1665W        W 5729   9.101  10.142  10.434 -0.6094  0.0717 -0.0095
 1666W        W 5730   8.642   3.133   2.422  0.0365  0.0465  0.0004
 1667W        W 5731   3.642  10.650   1.216 -0.1162  0.2542 -0.1443
 1668W        W 5732   3.000   6.452   1.276 -0.0840 -0.1911  0.0277
 1669W        W 5733   3.947  10.272   9.551  0.3448 -0.2324 -0.0969
 1670W        W 5734   6.287   9.521  11.037 -0.2964 -0.1633  0.1163
 1671W        W 5735   5.513   0.508   9.321 -0.1722 -0.3334  0.0382
 1672W        W 5736   3.271   2.725   1.274 -0.3970  0.0464 -0.1233
 1673W        W 5737   7.349   5.476  10.275  0.0059 -0.1615  0.0703
 1674W        W 5738   0.863   9.302  10.263 -0.2047  0.1370 -0.1746
 1675W        W 5739   5.666   3.947  10.027 -0.0212  0.1324 -0.0329
 1676W        W 5740   1.592   1.476   7.076 -0.1160  0.0920 -0.2511
 1677W        W 5741   9.000   5.123   1.551 -0.5836 -0.1648 -0.0434
 1678W        W 5742   0.538   0.281   9.277 -0.1760 -0.0799 -0.0229
 1679W        W 5743  10.707   4.555   8.198 -0.3788  0.0012 -0.1227
 1680W        W 5744   8.699   7.797   0.906 -0.3334  0.1185 -0.0659
 1681W        W 5745   9.806   7.040   1.202 -0.2610 -0.0707 -0.0808
 1682W        W 5746   6.588   7.840   3.338 -0.2022 -0.0839 -0.1229
 1683W        W 5747   1.652   5.950   0.897 -0.0432  0.2268  0.0924
 1684W        W 5748   7.031   5.650  10.710 -0.1650 -0.2772  0.2025
 1685W        W 5749  10.437   1.139   2.719  0.5951  0.1606  0.1204
 1686W        W 5750  10.210  10.286   2.553 -0.1160 -0.0659  0.3423
 1687W        W 5751   9.297  10.298   9.829 -0.0393  0.0019  0.3998
 1688W        W 5752   7.699   7.509   3.973  0.0924  0.2474  0.3761
 1689W        W 5753   3.440  10.251   0.979 -0.0230  0.0679 -0.1290
 1690W        W 5754   4.637  10.371   0.340 -0.0964  0.1340 -0.0338
 1691W        W 5755  10.563   7.360   8.616 -0.2161 -0.0433  0.2614
 1692W        W 5756   3.476   9.364   1.228 -0.1123 -0.2399  0.0676
 1693W        W 5757   3.591   5.451   1.520 -0.2184 -0.0107 -0.5846
 1694W        W 5758  10.879  10.508   7.065 -0.0951 -0.1041 -0.0632
 1695W        W 5759   0.995  10.752   8.495  0.0842 -0.0005 -0.2342
 1696W        W 5760   4.086   8.425   8.976  0.1614 -0.1730  0.2257
 1697W        W 5761   6.616   8.887   2.615  0.1217  0.0499  0.0142
 1698W        W 5762   3.712   9.915  10.816 -0.1231  0.2899 -0.2369
 1699W        W 5763   7.499   4.075   9.427  0.1262 -0.0061  0.2235
 1700W        W 5764   4.279   9.678   1.544 -0.4009  0.2112 -0.0527
 1701W        W 5765   4.963   9.597   2.310  0.2296  0.1599 -0.0878
 1702W        W 5766   7.725   3.271   8.354 -0.3368 -0.6727  0.0437
 1703W        W 5767   5.234   1.999   0.315  0.0062 -0.2077 -0.0633
 1704W        W 5768   2.476   5.252   1.146  0.0898  0.2082  0.1315
 1705W        W 5769   3.556   8.483   0.998 -0.3115 -0.4422 -0.0069
 1706W        W 5770   3.155   6.472   8.895  0.0525 -0.0565 -0.1013
 1707W        W 5771   9.852   8.774   2.369 -0.0639 -0.1022  0.0817
 1708W        W 5772   2.911   7.837   0.006 -0.1858 -0.0837  0.2124
 1709W        W 5773   7.414   8.818   7.796  0.3874  0.3864 -0.1302
 1710W        W 5774   8.389   3.415   8.574  0.0983  0.0261  0.0582
 1711W        W 5775   7.478   8.827   8.584 -0.0221 -0.0521 -0.3432
 1712W        W 5776  10.505   4.925   2.924  0.2341 -0.3069  0.2725
 1713W        W 5777   9.880   2.039   1.426  0.2225  0.0866  0.3278
 1714W        W 5778  10.086   5.514   0.851  0.0942  0.2032 -0.1762
 1715W        W 5779   2.838   1.088  10.084 -0.0032 -0.1146  0.0211
 1716W        W 5780   7.945   4.264   2.224  0.0479  0.3215 -0.0208
 1717W        W 5781   1.341  10.394   7.105  0.0991 -0.3361  0.0371
 1718W        W 5782   9.977   6.272   0.134  0.0286  0.1173  0.0979
 1719W        W 5783   8.628   3.699   9.921 -0.1238 -0.0765  0.2643
 1720W        W 5784   8.843  10.318   9.529 -0.1560  0.2265  0.2124
 1721W        W 5785   9.258   5.987   8.927  0.0948  0.0840  0.3630
 1722W        W 5786   0.112   9.218   2.904 -0.0299  0.1422  0.3112
 1723W        W 5787   8.319   8.851   1.084 -0.2345  0.1622 -0.0633
 1724W        W 5788   5.646   3.539   2.221  0.3022 -0.0048  0.4364
 1725W        W 5789   7.282   6.790   2.830  0.0356 -0.0426 -0.2013
 1726W        W 5790   0.748   4.705   2.442  0.0102  0.0390 -0.1522
 1727W        W 5791   4.190   3.437   2.004 -0.0557 -0.4673 -0.2794
 1728W        W 5792   6.439   7.761   4.289 -0.0388 -0.0244 -0.1956
 1729W        W 5793   9.993   0.941   4.079  0.1977 -0.2194  0.0122
 1730W        W 5794   5.136   7.839  10.021  0.0580 -0.1755  0.0868
 1731W        W 5795   5.318   0.743   9.935 -0.1535 -0.1360 -0.2468
 1732W        W 5796   3.958   0.050   2.067 -0.0215  0.1265 -0.2168
 1733W        W 5797   4.826   0.955   9.826 -0.0676 -0.1767 -0.0821
 1734W        W 5798   3.942   7.247   9.983  0.0774  0.0257  0.0763
 1735W        W 5799   2.936   5.814   1.049  0.1603 -0.3256  0.4994
 1736W        W 5800   6.795   8.521   1.984 -0.1720 -0.0800 -0.2703
 1737W        W 5801   8.609   6.346   1.447 -0.1745  0.0251  0.2369
 1738W        W 5802   6.850   1.699   0.512 -0.2216 -0.0343  0.0582
 1739W        W 5803   4.501   0.985   3.137 -0.2484 -0.0965 -0.0784
 1740W        W 5804   2.859   9.963  10.805 -0.0358 -0.0590 -0.0976
 1741W        W 5805   0.543   8.865   8.513  0.0543 -0.0540  0.3457
 1742W        W 5806  10.438   0.963   3.845  0.1153 -0.1709 -0.0360
 1743W        W 5807   4.158   8.348   2.724  0.1635 -0.0028  0.0610
 1744W        W 5808   6.194   2.767   0.955 -0.2735  0.3219 -0.1845
 1745W        W 5809   0.301  10.232   0.781 -0.2115  0.0161 -0.0370
 1746W        W 5810   2.628   0.257   8.142 -0.2757  0.3569  0.2069
 1747W        W 5811  10.369   8.628  10.718 -0.0148  0.0215  0.3361
 1748W        W 5812   9.167   8.643   8.614  0.2766 -0.1714 -0.2725
 1749W        W 5813  10.783   8.853   8.701  0.3216  0.0059 -0.0046
 1750W        W 5814   5.543   8.926   1.235 -0.1154 -0.0925 -0.2253
 1751W        W 5815   7.383   5.038  10.480  0.0712 -0.1646  0.6479
 1752W        W 5816   0.750  10.204   2.053  0.3135 -0.1464  0.1751
 1753W        W 5817   0.264   8.285  10.220 -0.4083  0.0645 -0.1630
 1754W        W 5818   9.636   7.708   9.869 -0.1843 -0.0965 -0.1178
 1755W        W 5819  10.575   3.528   2.942 -0.2547 -0.1775  0.0299
 1756W        W 5820   7.351  10.586   8.610  0.1810 -0.3291  0.3263
 1757W        W 5821   7.057   4.505   2.498 -0.1792  0.0608 -0.0760
 1758W        W 5822   8.284  10.230   1.005 -0.2240  0.1890 -0.1990
 1759W        W 5823   5.417   8.971  10.297 -0.0344 -0.0850 -0.0280
 1760W        W 5824   4.699   3.177   2.680  0.0146  0.1621  0.1872
 1761W        W 5825   4.845   8.292   1.061  0.0576 -0.0319  0.0119
 1762W        W 5826   8.373  10.257   1.900 -0.1756  0.3289 -0.1244
 1763W        W 5827   3.497   2.143   8.677  0.1229 -0.0905 -0.0757
 1764W        W 5828   1.439   6.577   2.634 -0.1158  0.0206 -0.2887
 1765W        W 5829  10.722   5.334   0.051  0.1447 -0.1151 -0.0251
 1766W        W 5830   7.199  10.772  10.230  0.0776  0.0418 -0.1506
 1767W        W 5831  10.470   2.113  10.080  0.3512  0.3429  0.0533
 1768W        W 5832   2.912   1.927  10.211 -0.2005  0.0605 -0.2057
 1769W        W 5833  10.314   0.369   0.684  0.1731 -0.3135  0.1567
 1770W        W 5834   9.454   4.751   2.437 -0.0906  0.1176  0.1279
 1771W        W 5835   3.731   4.228   1.127 -0.2667 -0.3438 -0.0197
 1772W        W 5836   8.069   1.224   8.333  0.1838  0.1068  0.2990
 1773W        W 5837   6.070   2.043  10.792 -0.0197 -0.1580 -0.0402
 1774W        W 5838   4.684   5.630   8.788 -0.0944  0.1971  0.0846
 1775W        W 5839   5.567   8.248   7.818  0.1907  0.0268 -0.2492
 1776W        W 5840   1.917   3.793   1.678 -0.3335  0.0255 -0.0141
 1777W        W 5841   7.760   5.070   3.170  0.0481  0.0880  0.1293
 1778W        W 5842   1.728   8.804  10.823  0.4730  0.0434  0.1009
 1779W        W 5843   6.848   3.260   0.174 -0.1332  0.0453 -0.0589
 1780W        W 5844   6.162   9.274   0.557  0.5647 -0.2058 -0.1832
 1781W        W 5845  10.196   9.782   3.908  0.0575  0.1365 -0.3576
 1782W        W 5846   8.826   1.492   9.513  0.0925  0.0190  0.2150
 1783W        W 5847   7.095  10.748   1.293  0.2338 -0.0213 -0.0500
 1784W        W 5848   0.863   7.129   2.054  0.0799  0.1700  0.1671
 1785W        W 5849   6.167   0.888   2.846  0.1823 -0.2540  0.3223
 1786W        W 5850   1.700   5.641   3.343 -0.1301  0.0243 -0.1507
 1787W        W 5851   4.360   3.104   0.403 -0.1930  0.1328 -0.0594
 1788W        W 5852  10.011   7.319  10.056 -0.0549 -0.1180 -0.1449
 1789W        W 5853   1.277   5.560   1.400 -0.0577 -0.2403 -0.3958
 1790W        W 5854   2.681   8.145   1.383 -0.0319 -0.1556 -0.0539
 1791W        W 5855  10.459   6.795   0.552 -0.0166  0.3356 -0.2235
 1792W        W 5856   6.699  10.875   0.780  0.0831  0.0169  0.2063
 1793W        W 5857   4.035   6.525   9.559  0.0320 -0.1806  0.1545
 1794W        W 5858   4.969   7.434   7.597 -0.0867 -0.2444  0.1504
 1795W        W 5859   9.329   4.570   0.654  0.0585  0.2225 -0.0183
 1796W        W 5860   6.676   3.076   1.623 -0.1969  0.2698 -0.0497
 1797W        W 5861   4.242   7.539   1.067 -0.0494  0.0407  0.2413
 1798W        W 5862   3.028   9.482   8.511 -0.1792  0.1110  0.0501
 1799W        W 5863   3.214   7.878   8.928 -0.2548 -0.0595 -0.0706
 1800W        W 5864   3.342   4.963   8.068  0.2220 -0.1922  0.1337
 1801W        W 5865   5.915   6.866   9.182  0.0249 -0.1446 -0.0291
 1802W        W 5866   2.073   4.033  10.632  0.0240 -0.0694  0.0103
 1803W        W 5867   5.058   2.986   3.046 -0.2043 -0.2650 -0.3318
 1804W        W 5868   4.069   3.381   9.947  0.0393 -0.1112  0.2785
 1805W        W 5869   3.377   7.330   8.884  0.0203 -0.0714  0.2351
 1806W        W 5870   8.774   1.286  10.171  0.1150 -0.1310 -0.0879
 1807W        W 5871   5.147   5.160   0.031 -0.1813 -0.0960 -0.0887
 1808W        W 5872  10.248  10.604   9.322 -0.0842  0.0959 -0.0248
 1809W        W 5873   2.974  10.420  10.524 -0.0456  0.0717 -0.0179
 1810W        W 5874   4.294   2.844   1.196 -0.1517  0.1066 -0.1128
 1811W        W 5875   8.700   0.816   4.281  0.0627  0.2194  0.4263
 1812W        W 5876   5.313   6.877   1.001 -0.0051  0.4225 -0.2383
 1813W        W 5877   9.057   8.122   0.864 -0.2443  0.1628 -0.0721
 1814W        W 5878   4.646   2.947   0.848  0.0197 -0.0652  0.0902
 1815W        W 5879   7.779   4.837   8.970 -0.0273  0.2825 -0.2271
 1816W        W 5880   3.321   9.869   3.742  0.3907  0.1062  0.4167
 1817W        W 5881   7.228   7.960  10.642 -0.0831  0.1696  0.1443
 1818W        W 5882   0.586   3.040   7.835  0.1713 -0.0716  0.1641
 1819W        W 5883   5.187   0.204   1.358  0.2071  0.1617  0.0204
 1820W        W 5884  10.062   4.867  10.195 -0.1864  0.1855 -0.0196
 1821W        W 5885   8.380   6.669   9.940  0.2672 -0.1548  0.0448
 1822W        W 5886   1.176   1.792   9.566 -0.3253  0.0754  0.0857
 1823W        W 5887  10.122   5.243   9.246 -0.0402  0.1588 -0.1174
 1824W        W 5888   3.004   9.647  10.007  0.2236 -0.2371  0.0018
 1825W        W 5889   2.475   3.314   2.158  0.1439  0.1657 -0.4464
 1826W        W 5890   0.806   9.364   1.414  0.1485  0.1361  0.1594
 1827W        W 5891   2.875   5.041   0.190 -0.0305  0.1192  0.3339
 1828W        W 5892   6.806   1.158  10.786  0.1208  0.2476  0.0911
 1829W        W 5893   3.868   1.563   1.866 -0.2252  0.0974 -0.0131
 1830W        W 5894   4.647   3.710   1.224  0.1757  0.0788 -0.0286
 1831W        W 5895   0.670  10.672   2.202  0.2228 -0.1626 -0.0479
 1832W        W 5896   7.921   2.413   1.220  0.0172 -0.3976  0.2211
 1833W        W 5897   7.589   3.776   9.023 -0.1507  0.0314  0.1077
 1834W        W 5898   7.359   8.812   9.542  0.0123  0.0912 -0.1873
 1835W        W 5899  10.726   3.022   1.721  0.0369 -0.0910  0.0877
 1836W        W 5900   2.310   3.771   9.362  0.0613 -0.2227 -0.0720
 1837W        W 5901   9.995   9.977  10.944  0.2313  0.2228 -0.0376
 1838W        W 5902  10.899   2.889   2.182  0.0141  0.0198  0.0460
 1839W        W 5903   2.809   0.539   8.875 -0.1864 -0.0918 -0.1734
 1840W        W 5904   5.084   3.237   1.816 -0.1370 -0.2239  0.0925
 1841W        W 5905   5.541   4.850   0.049  0.2354  0.0684  0.3200
 1842W        W 5906   5.175  10.636   3.370  0.1086 -0.0498  0.2164
 1843W        W 5907   8.252   1.849   1.899  0.2180 -0.1825 -0.0246
 1844W        W 5908   9.744   0.296  10.001 -0.1240 -0.0764 -0.0758
 1845W        W 5909   1.981   5.143   1.125 -0.0763  0.1509 -0.0392
 1846W        W 5910   5.150   9.312   1.295 -0.0199 -0.1181  0.0560
 1847W        W 5911   8.680   0.233   8.037 -0.0382 -0.0145 -0.0891
 1848W        W 5912   2.247   5.204   0.724  0.0828 -0.2204  0.1992
 1849W        W 5913   8.441   3.414   1.607  0.0967 -0.2185 -0.2222
 1850W        W 5914   3.066   3.590   8.841  0.0192 -0.2329  0.0188
 1851W        W 5915   4.728   6.144   0.812 -0.1475 -0.1714 -0.2692
 1852W        W 5916   8.615   0.872  10.883 -0.2476  0.0602 -0.0766
 1853W        W 5917   8.934   2.623   3.134 -0.0165 -0.0882  0.1096
 1854W        W 5918   4.309   4.527   9.537 -0.1774 -0.0542 -0.4994
 1855W        W 5919   0.444   1.755   7.939  0.0074 -0.0625 -0.2481
 1856W        W 5920   0.360   1.025   8.435 -0.2244 -0.0221  0.0846
 1857W        W 5921   4.615   5.153   8.522  0.0734  0.4838  0.3180
 1858W        W 5922   3.841   4.701   0.886 -0.0233 -0.0101  0.5918
 1859W        W 5923   6.374   0.409   2.680  0.1917  0.1557 -0.2968
 1860W        W 5924   2.126   2.785   8.698  0.0931 -0.1505 -0.0362
 1861W        W 5925   2.155   2.191  10.488 -0.0613 -0.0346  0.0177
 1862W        W 5926  10.493   3.614   9.956 -0.1738 -0.1143  0.0674
 1863W        W 5927   3.027   6.922   9.068  0.1229 -0.0101 -0.0762
 1864W        W 5928   2.206   3.912   9.870 -0.2967  0.2059  0.0725
 1865W        W 5929   4.145   8.561   9.897  0.0993  0.3170 -0.1769
 1866W        W 5930   1.417   5.648   8.589  0.3276  0.0820 -0.0743
 1867W        W 5931   1.555   3.652   3.071 -0.0844  0.0801 -0.1859
 1868W        W 5932   4.220   7.067   8.729  0.0209 -0.1803 -0.1153
 1869W        W 5933   2.123   2.321   0.379 -0.3134  0.0038  0.1553
 1870W        W 5934   1.118   4.913   9.900  0.2426  0.4591 -0.0736
 1871W        W 5935   2.079   2.962   7.401 -0.1082 -0.0519  0.1181
 1872W        W 5936   7.624   6.941  10.506  0.0748  0.1526 -0.1670
 1873W        W 5937   0.861   0.698   9.315  0.3310 -0.4490 -0.0940
 1874W        W 5938   1.943   1.398   9.339 -0.2233  0.1301  0.0106
 1875W        W 5939   6.008   8.533   7.736  0.1736 -0.0076  0.0814
 1876W        W 5940   7.050   8.065   0.222 -0.0795  0.0228 -0.2476
 1877W        W 5941   6.308   1.037   3.314  0.3435  0.1797  0.0238
 1878W        W 5942   2.519   8.799   8.749 -0.0346  0.0003  0.0041
 1879W        W 5943   7.807   1.165   1.450 -0.2589  0.3015 -0.0407
 1880W        W 5944   8.021   5.638   3.486  0.0862  0.1518 -0.0799
 1881W        W 5945   7.234  10.193   9.470  0.2067  0.0084 -0.1018
 1882W        W 5946   8.391   8.968  10.766 -0.1809  0.2063  0.2145
 1883W        W 5947   4.585   6.176   8.047 -0.1196  0.3275 -0.2460
 1884W        W 5948   6.151   6.071  10.320  0.2403 -0.0368 -0.1949
 1885W        W 5949   7.578   2.902  10.265  0.1748  0.0626 -0.2897
 1886W        W 5950  10.500   9.776  10.729 -0.1938  0.2141 -0.0429
 1887W        W 5951   7.478   2.077   8.751 -0.1603  0.0892 -0.2243
 1888W        W 5952   5.343   9.166   8.911  0.0381  0.1936  0.0364
 1889W        W 5953   8.880   1.262   0.067 -0.0328 -0.4121  0.0537
 1890W        W 5954   2.777   1.853   9.717  0.1217  0.1024 -0.2232
 1891W        W 5955   3.310   3.750   1.759  0.1167 -0.2882 -0.2214
 1892W        W 5956   7.083   0.740   3.136  0.0582 -0.1103  0.3833
 1893W        W 5957   5.414   6.437  10.163 -0.3402  0.1279 -0.1931
 1894W        W 5958  10.055   2.692   8.902  0.0873 -0.0080  0.1644
 1895W        W 5959   0.713   2.342  10.707  0.1462  0.1866 -0.0085
 1896W        W 5960   5.733   9.751  10.060  0.1381 -0.2358 -0.0315
 1897W        W 5961   2.458   7.895  10.775 -0.2249  0.0954 -0.1620
 1898W        W 5962   1.478   0.037   8.334 -0.2463 -0.2513  0.1661
 1899W        W 5963   4.738   5.903   9.822  0.0094  0.5061  0.2064
 1900W        W 5964  10.617  10.865   8.966 -0.2843  0.1584  0.0949
 1901W        W 5965   0.710   9.343   0.604 -0.4705 -0.1535 -0.0819
 1902W        W 5966   7.979   0.436   8.232  0.0579  0.0733  0.0797
 1903W        W 5967   8.470   7.849   9.313  0.1774  0.0031 -0.1587
 1904W        W 5968   9.526   3.436   3.074  0.1323 -0.1668  0.0982
 1905W        W 5969   5.668   0.947   1.232 -0.0732  0.0488  0.2976
 1906W        W 5970  10.446   7.911   3.179 -0.0679  0.1835 -0.0114
 1907W        W 5971   3.979   2.221  11.021  0.0072  0.2055 -0.1351
 1908W        W 5972   1.164  10.426   9.072  0.4392  0.2032 -0.0648
 1909W        W 5973   2.289  10.888   3.957 -0.0133 -0.0415  0.0161
 1910W        W 5974   4.703   2.920   3.641 -0.1215 -0.0424  0.2639
 1911W        W 5975   3.359   2.229   7.949 -0.3487  0.1463  0.0994
 1912W        W 5976   6.414  10.041   1.165 -0.2247  0.0297 -0.0193
 1913W        W 5977   0.487  10.764   2.878 -0.1604 -0.0016 -0.1305
 1914W        W 5978   4.953   2.189   4.366 -0.0490  0.1462 -0.0303
 1915W        W 5979   8.335   7.411  10.086 -0.3007  0.3916  0.0004
 1916W        W 5980   6.165   9.706   7.659  0.0244 -0.0853  0.1782
 1917W        W 5981   0.400  10.181   8.993  0.3665 -0.0883  0.2533
 1918W        W 5982   3.348   4.557  10.196  0.0150 -0.1818 -0.0425
 1919W        W 5983   3.890   2.263   9.781  0.3955  0.0360 -0.0303
 1920W        W 5984   5.175   8.590   0.803 -0.1436  0.1123 -0.0300
 1921W        W 5985   0.826   0.029   3.726  0.1637  0.0033 -0.0831
 1922W        W 5986   4.465   3.949   9.472 -0.0151  0.2598 -0.0724
 1923W        W 5987   8.619   5.453   1.106  0.0044 -0.4548  0.0469
 1924W        W 5988   1.226   7.551   1.761 -0.3253  0.0895 -0.0757
 1925W        W 5989   5.351   0.340   2.707  0.0346  0.3049  0.3036
 1926W        W 5990   2.587   3.666   2.998 -0.1994 -0.0502  0.0434
 1927W        W 5991   9.920   3.982   3.414  0.0726 -0.0723 -0.4255
 1928W        W 5992   6.558   1.177   0.133 -0.1793 -0.3859  0.1462
 1929W        W 5993   7.390   7.646   9.821 -0.2427 -0.1319  0.0368
 1930W        W 5994   9.881  10.121  10.095  0.0390  0.0832 -0.1366
 1931W        W 5995   5.659   6.077   3.255 -0.2362 -0.0563  0.0613
 1932W        W 5996   1.285   6.680   0.626  0.0201  0.0961 -0.2978
 1933W        W 5997   8.029   2.851   3.593 -0.1660  0.1320  0.0236
 1934W        W 5998   2.857   8.021   3.293 -0.1407  0.0378  0.0992
 1935W        W 5999   6.187   0.916   0.473  0.1634 -0.2161 -0.1570
 1936W        W 6000   2.820   6.446   8.404 -0.0410 -0.1310  0.1932
 1937W        W 6001   8.536   5.661   3.561  0.2053 -0.0813  0.2097
 1938W        W 6002   9.426   5.151   4.842 -0.3314  0.2539  0.5502
 1939W        W 6003   4.043   5.077  10.275  0.0670 -0.0149 -0.5246
 1940W        W 6004   1.737   7.280  10.805  0.0685 -0.0451  0.0425
 1941W        W 6005   0.421   6.848  10.512 -0.2262 -0.3152 -0.1378
 1942W        W 6006   4.464   5.325  10.022 -0.2934  0.1714 -0.0473
 1943W        W 6007   1.503   2.136   2.052  0.0186 -0.0512  0.1252
 1944W        W 6008  10.058   1.986   1.959 -0.1307  0.1137  0.2445
 1945W        W 6009   7.900   5.333   8.868 -0.4089  0.3434  0.0935
 1946W        W 6010   5.437   1.706   3.781 -0.0195 -0.0014 -0.0243
 1947W        W 6011   1.820  10.793   9.628  0.1559 -0.0553  0.4709
 1948W        W 6012   0.269   7.561   2.609  0.0601 -0.0060 -0.0978
 1949W        W 6013   6.393   2.796   8.444  0.1948 -0.1746 -0.5770
 1950W        W 6014   2.539   9.848   0.694 -0.0403  0.3155  0.0146
 1951W        W 6015   8.692   7.652   1.701  0.2480  0.3760 -0.1007
 1952W        W 6016   7.324   4.532   9.806 -0.3496 -0.0089  0.2265
 1953W        W 6017   1.886   9.290   9.103  0.1264 -0.0514  0.2219
 1954W        W 6018   3.472   2.322   2.390 -0.2532  0.4224  0.1081
 1955W        W 6019   0.078   2.359  10.099  0.1383 -0.2327  0.3860
 1956W        W 6020   2.471   4.294   9.184  0.0853  0.1942 -0.0328
 1957W        W 6021  10.090   9.682   9.179 -0.2398  0.5228 -0.1630
 1958W        W 6022   6.327   6.368  10.967 -0.0014 -0.3182  0.0465
 1959W        W 6023   4.792   3.310   8.214 -0.0646  0.2300 -0.0083
 1960W        W 6024   2.020   2.569   2.400 -0.2888 -0.0121  0.1678
 1961W        W 6025   8.405   8.804   2.335  0.1507  0.0775 -0.1316
 1962W        W 6026   6.702   5.049  11.029 -0.2983 -0.3828 -0.1592
 1963W        W 6027   1.066   6.943   7.808 -0.1633  0.1892 -0.1332
 1964W        W 6028   1.652   9.108   7.568  0.1160  0.2238 -0.2822
 1965W        W 6029   6.433   6.430   7.694 -0.2355  0.1994  0.0753
 1966W        W 6030   4.309   6.630   7.920 -0.2544 -0.0829  0.0838
 1967W        W 6031   9.255   3.310   7.331  0.0280 -0.0246  0.2436
 1968W        W 6032   2.771   7.750   0.543  0.2462  0.1246 -0.0608
 1969W        W 6033   7.456   6.586  10.082  0.1878 -0.0435 -0.0403
 1970W        W 6034  10.710   2.350   8.631 -0.0557 -0.1463  0.0225
 1971W        W 6035   2.205   7.540   7.227  0.2147  0.0148  0.1117
 1972W        W 6036   1.831   9.322   2.011 -0.2403  0.2560  0.3747
 1973W        W 6037   4.708   9.472   9.555  0.0285 -0.4088 -0.1505
 1974W        W 6038   6.361   2.849   7.373  0.0489 -0.2176  0.2234
 1975W        W 6039   1.566   6.337   0.444  0.0675 -0.0557 -0.0999
 1976W        W 6040   0.117   7.365   9.980  0.0065 -0.2117  0.0705
 1977W        W 6041   0.675   5.245   0.219 -0.3411  0.2342  0.2368
 1978W        W 6042   4.554   5.512   1.748  0.1440 -0.1159  0.0109
 1979W        W 6043   0.013   3.819   0.482  0.0058 -0.0693  0.0444
 1980W        W 6044   0.722   2.542   8.287 -0.0088 -0.0299  0.1270
 1981W        W 6045   4.092   2.772   3.497  0.0119  0.1520 -0.0982
 1982W        W 6046   4.022  10.720   1.598 -0.1849  0.0433 -0.1863
 1983W        W 6047   7.936   2.268   0.719  0.0504  0.1009  0.0864
 1984W        W 6048   8.268   6.245   8.370  0.1234  0.3055  0.0173
 1985W        W 6049   5.490   2.602   3.256  0.0781  0.0887  0.0329
 1986W        W 6050   5.920   7.898   3.593 -0.0658  0.1994  0.3042
 1987W        W 6051   8.924   8.590   0.374 -0.0856  0.2339  0.0968
 1988W        W 6052   3.235   8.375   2.645 -0.0158  0.0001  0.0058
 1989W        W 6053   3.000   3.198   0.195 -0.0364 -0.2969  0.3666
 1990W        W 6054   2.959   4.440  10.433 -0.1309 -0.0837 -0.1414
 1991W        W 6055   6.358   9.240   1.280  0.0293  0.1661  0.1611
 1992W        W 6056   0.984   7.980   0.287  0.3607  0.0671 -0.3801
 1993W        W 6057   1.750  10.100   1.429 -0.2454  0.0575 -0.0545
 1994W        W 6058   2.211   7.724   9.356  0.3022 -0.3070  0.0615
 1995W        W 6059   2.083   9.077   2.447  0.0545  0.1301 -0.1332
 1996W        W 6060  10.301   6.316   9.063 -0.0710  0.0863 -0.0026
 1997W        W 6061   6.699   1.477   8.005  0.1453 -0.0616 -0.3434
 1998W        W 6062  10.088   5.366   3.574 -0.0036 -0.1155 -0.2843
 1999W        W 6063   4.440   6.210   9.980  0.0858  0.1167 -0.1231
 2000W        W 6064   0.129   0.388  10.648 -0.0436 -0.1237 -0.2615
 2001W        W 6065   1.407   7.849   9.845 -0.1074  0.2645 -0.0079
 2002W        W 6066   3.036   3.998   8.553 -0.1975 -0.0001  0.0823
 2003W        W 6067   7.476   6.557  10.983  0.0832 -0.0951  0.0793
 2004W        W 6068   2.623   5.654   1.363  0.0046  0.0731 -0.0494
 2005W        W 6069   8.397   0.603  10.544  0.1242  0.1380 -0.1898
 2006W        W 6070   0.392  10.486   3.307 -0.1403 -0.1102 -0.6410
 2007W        W 6071   0.450   1.588   8.966  0.0742 -0.1266 -0.3074
 2008W        W 6072   4.523   1.820   2.229 -0.0718 -0.0266  0.0931
 2009W        W 6073   0.946   9.509   8.917 -0.1940 -0.0535 -0.2324
 2010W        W 6074   7.454   3.627   8.547 -0.1998  0.2597  0.0324
 2011W        W 6075   2.977   6.552   0.088 -0.2124  0.0347  0.3446
 2012W        W 6076   7.797  10.219   9.805  0.1953 -0.4810 -0.0257
 2013W        W 6077   0.949   7.462   0.934  0.0639 -0.0424 -0.1050
 2014W        W 6078   5.093   9.080   2.244  0.0033  0.0529  0.0604
 2015W        W 6079  10.149   4.659   7.492  0.0978 -0.4167 -0.1074
 2016W        W 6080   0.165   7.707   1.469  0.1234 -0.0284 -0.0021
 2017W        W 6081   1.715   8.198  10.106  0.2295  0.0002 -0.2636
 2018W        W 6082   5.188   9.988   0.191 -0.2427 -0.1055 -0.0921
 2019W        W 6083   7.724  10.088   9.316  0.3613 -0.1838 -0.0210
 2020W        W 6084   2.919   5.103   2.102  0.0593 -0.0328 -0.4934
 2021W        W 6085   5.628   5.996   2.776  0.0076 -0.0407  0.0923
 2022W        W 6086   9.584   3.182   0.308  0.0302  0.0530  0.1045
 2023W        W 6087   4.462   6.918   2.803  0.1321 -0.1278  0.1041
 2024W        W 6088   5.157   5.331  10.640  0.1292 -0.0228 -0.0167
 2025W        W 6089   6.361   5.126   2.564  0.1009  0.1376  0.0204
 2026W        W 6090   3.492   0.538   9.387 -0.2798  0.2227 -0.1379
 2027W        W 6091   2.722   3.843   8.162  0.0792  0.0028 -0.1813
 2028W        W 6092   1.381   3.972   3.453  0.6881 -0.1435 -0.2662
 2029W        W 6093   9.027   9.758   7.822 -0.0881 -0.3021 -0.0769
 2030W        W 6094   0.204   2.974  11.020  0.0567  0.0924 -0.1311
 2031W        W 6095   6.306   0.371  10.796  0.4964  0.3830  0.0253
 2032W        W 6096   8.937   4.209   7.971 -0.2997 -0.0011  0.2390
 2033W        W 6097   4.983   5.602   0.049 -0.2179 -0.2198  0.0869
 2034W        W 6098   7.945  10.510   0.710 -0.1445 -0.2671 -0.0319
 2035W        W 6099   5.502   5.834   7.892  0.0931  0.0519  0.0656
 2036W        W 6100   9.729   2.980   8.609  0.3267  0.1139 -0.0458
 2037W        W 6101   4.802   3.388   0.710  0.0506 -0.4265 -0.1339
 2038W        W 6102   8.320   7.954   8.808 -0.1017  0.0176  0.1850
 2039W        W 6103   9.200   6.336  10.145 -0.1828  0.2812 -0.3939
 2040W        W 6104   4.973   1.591   1.008  0.1169 -0.0661 -0.1920
 2041W        W 6105   3.195   7.176   8.388  0.0559 -0.1185 -0.1501
 2042W        W 6106   4.585   8.101   2.766 -0.1252  0.2219  0.0809
 2043W        W 6107   2.418   7.765   8.259  0.0697 -0.5239  0.1739
 2044W        W 6108   0.900   2.303   8.678  0.2571  0.2881 -0.0222
 2045W        W 6109   3.076   9.699   0.468 -0.0186  0.0105  0.0319
 2046W        W 6110   3.227   7.220   3.318  0.1556  0.0160  0.1883
 2047W        W 6111  10.691   9.820   9.729  0.0371  0.1226  0.0811
 2048W        W 6112  10.388   1.625   0.523  0.1279  0.1882 -0.0772
 2049W        W 6113   4.872   4.772   9.293 -0.0136 -0.1465  0.3498
 2050W        W 6114   2.124   1.628   9.782  0.1489 -0.0644 -0.1413
 2051W        W 6115   7.738   7.804   2.522  0.2826 -0.1699 -0.1121
 2052W        W 6116   7.848   0.220   0.962  0.0772 -0.1489  0.0392
 2053W        W 6117   7.971   3.927   9.600 -0.2018 -0.2613 -0.0893
 2054W        W 6118   0.973   2.352  10.136  0.1185 -0.1435  0.0596
 2055W        W 6119   0.544   7.765   2.927 -0.1793 -0.2063  0.1001
 2056W        W 6120   1.656   1.257  10.986 -0.0695  0.0186  0.3366
 2057W        W 6121   9.444   9.173   1.563  0.0329  0.0474 -0.0425
 2058W        W 6122   6.826   4.990   9.226  0.3278  0.3878  0.0110
 2059W        W 6123   9.536   2.149   9.015 -0.0410 -0.1458 -0.4389
 2060W        W 6124   9.157   9.546   0.294 -0.2305  0.0617 -0.1695
 2061W        W 6125   3.064   1.302   2.252  0.0746  0.1006 -0.1240
 2062W        W 6126   1.854   4.692   1.209 -0.0193  0.0421 -0.0428
 2063W        W 6127   9.458   7.401   3.356  0.0486 -0.2066 -0.0884
 2064W        W 6128   3.037   6.227   2.781 -0.0731  0.0582  0.0803
 2065W        W 6129   9.139   3.625   1.810 -0.0051  0.3987  0.0209
 2066W        W 6130   8.688   7.040   9.958 -0.1317 -0.3044 -0.0589
 2067W        W 6131   3.523  10.272   0.387  0.2138  0.1826 -0.0699
 2068W        W 6132   2.812   6.255   2.052  0.0873  0.1180 -0.0822
 2069W        W 6133  10.873   7.674   1.043 -0.1945 -0.2173  0.0686
 2070W        W 6134   9.876   4.520   3.406  0.1803  0.0577  0.1030
 2071W        W 6135   1.746   4.604   0.149  0.1793  0.0999 -0.0245
 2072W        W 6136   1.963   5.603   8.455  0.1328 -0.1217 -0.0370
 2073W        W 6137   8.440   6.073   2.676 -0.0494 -0.2184  0.0477
 2074W        W 6138   4.679   2.232   9.348 -0.2240  0.3721 -0.0184
 2075W        W 6139   9.231   2.782   8.546  0.1132 -0.2106 -0.0056
 2076W        W 6140   7.772   7.329   1.225 -0.3036 -0.0161 -0.0857
 2077W        W 6141   3.447   0.388   1.446 -0.0704 -0.0737 -0.0897
 2078W        W 6142   3.790  10.788  10.774 -0.0381  0.3506  0.0763
 2079W        W 6143   5.235   6.491   2.062  0.1967 -0.0453  0.2228
 2080W        W 6144  10.105   1.405   3.003 -0.0339  0.1595 -0.4059
 2081W        W 6145   8.278   0.809   3.745 -0.3938  0.1002  0.2130
 2082W        W 6146   9.008   0.786   1.376 -0.1145  0.1807  0.0808
 2083W        W 6147   1.111   1.526   0.322  0.3618  0.2614 -0.0745
 2084W        W 6148   9.321   6.190   3.373 -0.1376  0.3759 -0.0239
 2085W        W 6149   9.356   8.698   9.100 -0.1082 -0.3181 -0.1361
 2086W        W 6150   5.280   6.531   0.591 -0.0548  0.1324  0.0741
 2087W        W 6151   3.567   2.633  10.026 -0.1449  0.1549  0.0490
 2088W        W 6152   1.290   9.682   1.489 -0.0673  0.1322 -0.6346
 2089W        W 6153   1.982   2.076   1.217 -0.0872  0.2183  0.1830
 2090W        W 6154  10.762   1.072   1.196 -0.0465 -0.1212 -0.2271
 2091W        W 6155   5.257  10.276   0.914 -0.0283  0.1351  0.1981
 2092W        W 6156   5.859   3.497   3.070 -0.3016 -0.1513 -0.0134
 2093W        W 6157   6.927   9.477   0.845 -0.1123  0.1580 -0.1502
 2094W        W 6158   8.893   9.077   9.032  0.1230 -0.1127  0.1547
 2095W        W 6159   4.269   9.293   1.930 -0.3075 -0.5244  0.1348
 2096W        W 6160   4.074   1.747   2.803 -0.1380  0.1743 -0.1314
 2097W        W 6161  10.125   5.708   9.363 -0.0193  0.2763 -0.2699
 2098W        W 6162   0.620   0.028   8.767 -0.0827 -0.1631 -0.3272
 2099W        W 6163   6.504   0.950   1.914  0.3180  0.0957 -0.5162
 2100W        W 6164  10.436   3.497   0.430  0.0692  0.2093  0.0018
 2101W        W 6165   2.801   3.307   0.690 -0.0583 -0.0105  0.0172
 2102W        W 6166   5.536   2.795   2.736  0.1292 -0.2117 -0.2150
 2103W        W 6167   4.294   8.489  10.863  0.0555  0.1684 -0.0322
 2104W        W 6168   5.848   6.165   9.943  0.0993  0.0115  0.2252
 2105W        W 6169   6.609   3.922  10.279 -0.1550  0.0701  0.2957
 2106W        W 6170   9.582   0.869   9.162 -0.0797  0.1566  0.0840
 2107W        W 6171   1.310   3.979   1.364 -0.1741 -0.1922  0.1374
 2108W        W 6172   3.449   3.208  10.203 -0.0322 -0.1802 -0.1344
 2109W        W 6173   9.772   1.615   0.462  0.1817 -0.2411 -0.0594
 2110W        W 6174   2.382   2.154  10.923 -0.1205  0.1859  0.2369
 2111W        W 6175   2.264  10.187   1.214 -0.1205  0.2324 -0.1398
 2112W        W 6176   3.063   2.609   2.531 -0.0588  0.2907  0.2539
 2113W        W 6177  10.032  10.142   2.071  0.0371  0.0574  0.0973
 2114W        W 6178   4.455   1.890   8.976  0.2435 -0.0984 -0.0170
 2115W        W 6179   0.606   3.266  10.935 -0.1549 -0.2305  0.2265
 2116W        W 6180   4.094   5.768   2.449  0.2007 -0.2459 -0.2001
 2117W        W 6181   5.841   3.731   9.234  0.0171 -0.2465  0.0529
 2118W        W 6182   4.519   9.359  10.694 -0.2746 -0.0822 -0.0169
 2119W        W 6183   6.056   6.418   9.437  0.0518  0.0198  0.1419
 2120W        W 6184   8.162   9.633   0.323 -0.2055  0.1497 -0.0065
 2121W        W 6185   0.004   9.258   9.155 -0.1030 -0.1847 -0.0021
 2122W        W 6186   9.219   6.343  10.670  0.1569  0.0208  0.0468
 2123W        W 6187   5.521   8.684  10.720 -0.4013  0.0735  0.2101
 2124W        W 6188   0.027   7.806  10.294 -0.0962 -0.1216  0.6080
 2125W        W 6189   7.490   0.419  10.403  0.0533 -0.1232  0.2263
 2126W        W 6190   8.754   5.782   0.410  0.2455  0.1298  0.2920
 2127W        W 6191   2.211   2.444   3.148 -0.2104 -0.2899 -0.4287
 2128W        W 6192  10.828  10.719   1.189  0.0308 -0.2534 -0.3323
 2129W        W 6193  10.277   6.978   1.301  0.0472  0.1733  0.0501
 2130W        W 6194   9.652   9.684   0.104  0.2298  0.1183  0.1979
 2131W        W 6195   4.591   6.594   1.962  0.1488 -0.0402 -0.1068
 2132W        W 6196   1.576   1.868   3.971  0.0270  0.0357  0.3203
 2133W        W 6197   2.948   1.794   3.732  0.0481 -0.3272  0.1920
 2134W        W 6198   7.689   4.073   8.515 -0.2284  0.0226 -0.2674
 2135W        W 6199   3.752   6.993   2.343  0.0335  0.2225  0.2386
 2136W        W 6200   0.237   9.268   3.834  0.2061  0.1514 -0.0624
 2137W        W 6201   0.729   4.986   1.980  0.1663 -0.2807  0.1984
 2138W        W 6202   3.171   3.580   1.024  0.1214 -0.0013  0.0398
 2139W        W 6203   9.898  10.261   9.138 -0.3462  0.2290  0.1893
 2140W        W 6204  10.808   5.720   1.176  0.0377  0.3428 -0.1239
 2141W        W 6205   5.605   1.468   2.211 -0.2070  0.2057  0.1709
 2142W        W 6206   2.195   8.684   2.002 -0.0889 -0.2353 -0.2496
 2143W        W 6207   7.040   6.373   3.964 -0.0693 -0.3099 -0.2626
 2144W        W 6208   7.711   3.977   1.832  0.1592  0.2002  0.0353
 2145W        W 6209   9.446   1.388   9.404 -0.1841  0.0083 -0.2199
 2146W        W 6210   6.352   8.121   2.342  0.0643  0.0645 -0.0413
 2147W        W 6211   9.036   9.174   2.463  0.0264 -0.0005  0.0181
 2148W        W 6212   1.338   7.491   3.526 -0.0066  0.0270  0.0608
 2149W        W 6213   7.027   5.832   8.445 -0.4389  0.3713 -0.3228
 2150W        W 6214   4.591   9.366   8.681 -0.0801  0.1715 -0.3063
 2151W        W 6215   5.520   9.634   7.536 -0.1377 -0.2954 -0.0387
 2152W        W 6216  10.236  10.664   8.147 -0.2438  0.1533  0.1791
 2153W        W 6217   7.555   4.347  10.838 -0.1273  0.2535  0.3435
 2154W        W 6218   1.024   3.144  10.391 -0.1320  0.0658 -0.0546
 2155W        W 6219   7.881   9.130  10.715 -0.0872  0.1160 -0.2259
 2156W        W 6220   2.437   8.190   8.849  0.0976  0.2534 -0.0744
 2157W        W 6221   1.425   0.458  10.733  0.0443 -0.1811  0.3815
 2158W        W 6222   1.234   2.215   8.339  0.2442 -0.0171 -0.0773
 2159W        W 6223   1.397   7.832  10.936  0.0904  0.2679 -0.0507
 2160W        W 6224   8.270   5.819   0.758 -0.1753  0.2115  0.2196
 2161W        W 6225   3.643   8.657   9.747 -0.0038  0.1206  0.3048
 2162W        W 6226   3.604   8.380   7.966  0.0257  0.0894  0.3503
 2163W        W 6227   9.465   5.846  10.558  0.0078 -0.1528  0.4250
 2164W        W 6228   3.664   8.512  10.243  0.0554 -0.0281 -0.1664
 2165W        W 6229  10.242  10.663   1.522 -0.1039 -0.1654 -0.2120
 2166W        W 6230   5.949   9.699   2.358 -0.0508  0.2957  0.2854
 2167W        W 6231   1.461   0.931   2.785  0.1483 -0.2306 -0.4385
 2168W        W 6232   6.072   8.411   8.574  0.3709 -0.2909  0.0828
 2169W        W 6233   3.564   5.443   2.593  0.1548 -0.1243 -0.3075
 2170W        W 6234   1.831   6.609   2.320 -0.0704 -0.0087 -0.0098
 2171W        W 6235   6.021   2.116   7.837 -0.0761  0.1833  0.0099
 2172W        W 6236   9.697   7.859   2.676  0.1975  0.2081  0.1086
 2173W        W 6237   0.584   4.408   2.089  0.1397 -0.0251  0.1268
 2174W        W 6238   5.172  10.724   7.367  0.1092  0.0032 -0.1262
 2175W        W 6239   3.614   0.361   7.919 -0.0071  0.1191  0.0973
 2176W        W 6240   8.726   5.274   0.553  0.2326  0.1202 -0.2927
 2177W        W 6241   7.365   8.273   9.801  0.3228  0.2344  0.0329
 2178W        W 6242  10.347   2.722   0.590 -0.0281 -0.0187  0.2221
 2179W        W 6243  10.625   4.265  10.386  0.0106  0.1242 -0.2101
 2180W        W 6244   9.761   6.694   1.695  0.0205 -0.0009 -0.0014
 2181W        W 6245  10.498   6.851   0.030 -0.3926 -0.4050 -0.4606
 2182W        W 6246   6.872   0.272   1.761  0.2652 -0.2160 -0.0554
 2183W        W 6247   1.492   5.016   9.209 -0.0789 -0.2973 -0.2714
 2184W        W 6248   0.774   3.354   1.691  0.2290 -0.2396 -0.2014
 2185W        W 6249   5.314   9.517   0.169 -0.4078 -0.3125  0.3327
 2186W        W 6250   3.948   4.147   9.214  0.0046 -0.2116  0.0389
 2187W        W 6251   5.739   3.420   9.908  0.1865  0.1917  0.0659
 2188W        W 6252   7.585   0.891  10.819  0.4124 -0.2099 -0.1053
 2189W        W 6253   2.449   7.314   9.112  0.1305 -0.1136  0.0907
 2190W        W 6254   3.171   1.772   3.254  0.1870  0.3073  0.0517
 2191W        W 6255   6.065   0.592   8.779 -0.0296  0.0901  0.1917
 2192W        W 6256   7.081   4.024  10.957 -0.0623 -0.0069 -0.0736
 2193W        W 6257   6.528   7.320  10.115  0.0852 -0.2468 -0.2226
 2194W        W 6258   6.225   6.802   9.701 -0.1715 -0.1130  0.1819
 2195W        W 6259   4.705   4.550   1.844 -0.2418  0.1466 -0.0904
 2196W        W 6260   0.323   6.170  10.752  0.3325 -0.4695  0.0936
 2197W        W 6261   5.525   6.588   3.545  0.1290 -0.0855 -0.0133
 2198W        W 6262   6.938   6.002   3.144 -0.3017 -0.0345  0.2376
 2199W        W 6263   5.299   8.606   0.064 -0.2787  0.0523 -0.0642
 2200W        W 6264   3.239   6.469   3.656 -0.1371  0.1351  0.0110
 2201W        W 6265   4.823   1.488   8.307 -0.2037  0.2459  0.1783
 2202W        W 6266   9.177   1.066   1.753  0.0362  0.0346 -0.0541
 2203W        W 6267   6.665   5.280   1.122 -0.2243 -0.2373 -0.4774
 2204W        W 6268   5.943   3.907   7.999  0.0472 -0.2616 -0.2148
 2205W        W 6269   6.703  10.544   1.669  0.0447  0.1777 -0.1224
 2206W        W 6270   5.829  10.587  10.702 -0.1450 -0.0132  0.1262
 2207W        W 6271   9.976   3.852   2.573 -0.0905  0.0231 -0.1610
 2208W        W 6272   1.933   6.164   8.611 -0.3971 -0.2048 -0.1216
 2209W        W 6273   7.851   8.812   2.180 -0.0896 -0.0520  0.0616
 2210W        W 6274   3.132   8.756   9.438  0.4433  0.0170  0.1339
 2211W        W 6275   9.579  10.522   8.237 -0.0397 -0.1907 -0.0549
 2212W        W 6276   0.909   7.068   0.653 -0.1718 -0.1845  0.0623
 2213W        W 6277   8.646   6.772   9.458  0.1717 -0.0828  0.0475
 2214W        W 6278   9.658  10.055   9.544  0.0910  0.1312  0.2677
 2215W        W 6279   6.358   0.697   8.368 -0.1995  0.1711  0.2603
 2216W        W 6280  10.528   3.386   7.869 -0.3238 -0.0678 -0.1959
 2217W        W 6281   3.448   1.527   0.782  0.0598  0.0577 -0.2679
 2218W        W 6282   9.621   2.094   4.067 -0.0107  0.2498  0.3661
 2219W        W 6283   3.927   6.289  10.982  0.1346 -0.1660  0.2138
 2220W        W 6284   5.249   2.588   9.889 -0.0435  0.2435  0.2339
 2221W        W 6285   6.348   4.968   1.373  0.1235 -0.1551  0.1325
 2222W        W 6286   0.703   3.693   0.201  0.2433  0.1645  0.0927
 2223W        W 6287   8.800   7.565   0.250 -0.2818  0.2621  0.0189
 2224W        W 6288   7.961   1.857   9.411  0.1226  0.0243 -0.2673
 2225W        W 6289   0.807   4.283   0.119  0.2398  0.3036 -0.0877
 2226W        W 6290   7.172   5.517   4.098  0.0914 -0.3657  0.2306
 2227W        W 6291  10.739   1.145   3.490 -0.0440 -0.3895 -0.0014
 2228W        W 6292   7.270   9.678  10.793 -0.2130 -0.1164 -0.0379
 2229W        W 6293   9.178   8.546  10.684  0.1324  0.2250 -0.3420
 2230W        W 6294   0.198  10.699   2.471  0.1380 -0.0391 -0.0063
 2231W        W 6295   0.612   2.377   1.418 -0.0059 -0.2958  0.0687
 2232W        W 6296   9.365   0.824   8.593  0.0617 -0.3860 -0.1791
 2233W        W 6297  10.322   3.681   0.951 -0.1776  0.0403 -0.0416
 2234W        W 6298   1.689   0.223   9.245 -0.1429  0.2655  0.0374
 2235W        W 6299   1.975   0.985   7.799 -0.0006 -0.1104 -0.0178
 2236W        W 6300   0.480   8.649   1.223 -0.0320 -0.0872  0.1931
 2237W        W 6301   0.875   1.253   8.964  0.0232  0.0663  0.2364
 2238W        W 6302   9.241   0.274   2.991  0.1436  0.1893 -0.1337
 2239W        W 6303   5.500   3.032   2.061  0.0372  0.1231 -0.3828
 2240W        W 6304   5.103   9.966   3.334  0.0619 -0.1226 -0.1883
 2241W        W 6305   2.819   2.798   8.216 -0.0657  0.0218 -0.0302
 2242W        W 6306   7.364   3.532   8.041 -0.3425 -0.4172  0.1329
 2243W        W 6307   4.504   9.040   0.111  0.0952 -0.1499 -0.2380
 2244W        W 6308   2.662   7.383   1.001  0.1260 -0.0385  0.1637
 2245W        W 6309   4.225   5.917   7.348 -0.3029  0.0585  0.0868
 2246W        W 6310   1.505   8.560   9.223  0.0475  0.2024  0.0526
 2247W        W 6311   2.262   1.085  10.149  0.1546 -0.2741  0.2834
 2248W        W 6312   8.284   3.464   2.058  0.0756 -0.2214 -0.1103
 2249W        W 6313   2.548   4.769  10.543  0.1015  0.3342 -0.0923
 2250W        W 6314   1.301   8.858  10.085  0.0140  0.2577 -0.4199
 2251W        W 6315   3.312   9.181   7.043  0.1468  0.2428 -0.0115
 2252W        W 6316   2.952   3.954   3.047  0.1394 -0.0485  0.1051
 2253W        W 6317  10.213   8.682   1.901 -0.1272  0.0209 -0.1192
 2254W        W 6318   9.027   5.687  10.595  0.1170 -0.0725 -0.1636
 2255W        W 6319   0.711   0.783   3.242 -0.1334 -0.1032  0.0857
 2256W        W 6320   0.881   6.651  10.478  0.0315 -0.2500  0.1598
 2257W        W 6321   6.638   1.939  10.567 -0.1789  0.0467  0.2578
 2258W        W 6322   9.952   1.760  11.043 -0.1704 -0.0479 -0.1466
 2259W        W 6323   7.043   2.997  10.873  0.1756  0.2509  0.0865
 2260W        W 6324   4.542   3.317   9.281 -0.1681  0.0902  0.2757
 2261W        W 6325   6.236  10.475   1.987  0.4931 -0.0226  0.1229
 2262W        W 6326   7.876   2.274   7.945 -0.2478  0.3948  0.0983
 2263W        W 6327  10.726  10.424  10.336  0.4012 -0.1896  0.0746
 2264W        W 6328   0.993   9.251   0.165 -0.1708  0.1720 -0.0771
 2265W        W 6329   2.283   2.421   9.031 -0.1887 -0.1843 -0.0569
 2266W        W 6330   0.830   8.162   3.089 -0.0737  0.1864  0.3167
 2267W        W 6331   4.423   2.857  10.415 -0.2841 -0.2239 -0.1014
 2268W        W 6332   4.212   6.414   1.654  0.2430 -0.0114 -0.0911
 2269W        W 6333  10.686   0.057   0.682 -0.0192  0.0142  0.0431
 2270W        W 6334   0.196   8.562   3.428 -0.0055 -0.1852 -0.2185
 2271W        W 6335   2.003   2.505   7.648 -0.1683 -0.2752  0.1947
 2272W        W 6336   3.829   9.882   1.649  0.3048  0.3033  0.1093
 2273W        W 6337   4.262  10.466   3.076  0.0087 -0.4006 -0.3377
 2274W        W 6338   4.681   1.959   1.001  0.1122  0.2127  0.0020
 2275W        W 6339   2.054   6.815   1.106  0.0680 -0.0192 -0.2671
 2276W        W 6340   7.309   2.969   1.034 -0.0563  0.1084 -0.1673
 2277W        W 6341   1.880   9.041   9.536  0.3512  0.2167 -0.1212
 2278W        W 6342   2.991   5.909   8.625  0.0941  0.1308  0.2188
 2279W        W 6343   0.685   4.042   7.869  0.0366  0.2144  0.3064
 2280W        W 6344   9.330   2.241   9.471  0.0694 -0.2336 -0.1610
 2281W        W 6345   2.885   2.825   1.995 -0.2657  0.1768 -0.1747
 2282W        W 6346   5.232  10.806   0.988 -0.0260  0.1212 -0.0546
 2283W        W 6347   5.411   7.326  11.037 -0.2986  0.1676  0.2288
 2284W        W 6348   0.789   3.270   8.989  0.0200  0.0103 -0.0008
 2285W        W 6349   7.124   4.660  10.691  0.0136 -0.0543  0.1015
 2286W        W 6350   9.281   6.474   8.712  0.0748 -0.2790 -0.1993
 2287W        W 6351  10.053   0.938  10.587 -0.1218 -0.1936 -0.2395
 2288W        W 6352   6.311  10.818   2.887 -0.3119  0.3315 -0.1547
 2289W        W 6353   0.697   7.329   2.631 -0.1166  0.0553  0.2722
 2290W        W 6354   6.472  10.609   3.775 -0.2977 -0.0269 -0.2314
 2291W        W 6355   3.699   0.755  10.604  0.0472 -0.0533 -0.0116
 2292W        W 6356   9.463   6.897   8.418  0.1027 -0.1206  0.0623
 2293W        W 6357   2.760   4.962   8.165 -0.1084  0.0674 -0.0443
 2294W        W 6358  10.708   6.300   8.769  0.1689 -0.0770  0.5136
 2295W        W 6359   9.172   3.746   8.103  0.0244  0.0290 -0.1468
 2296W        W 6360  10.237   4.128   7.317 -0.1270 -0.2347 -0.0963
 2297W        W 6361   1.886   2.526   7.146 -0.0550  0.1377 -0.1360
 2298W        W 6362   0.907   4.569   7.716 -0.1835  0.1108  0.1910
 2299W        W 6363   1.241   5.438   0.454 -0.1876 -0.2355 -0.1206
 2300W        W 6364  10.130   9.985   1.460 -0.0664  0.0896  0.3364
 2301W        W 6365   9.025   8.000   7.724 -0.3063  0.1630 -0.1466
 2302W        W 6366   9.138   2.425   1.003 -0.1108 -0.1019 -0.1003
 2303W        W 6367   2.754   1.768   0.093 -0.2287  0.0473  0.0588
 2304W        W 6368   3.348   1.468   8.201 -0.3962 -0.0213  0.1805
 2305W        W 6369   9.027   6.886   2.944  0.2619 -0.0247  0.0495
 2306W        W 6370   9.812   5.526   8.961 -0.3962 -0.0150  0.0512
 2307W        W 6371   1.242   5.793   3.210  0.0542  0.0126 -0.1086
 2308W        W 6372   3.073  10.703   2.874 -0.0263  0.0902  0.0014
 2309W        W 6373   5.786   8.776   8.732  0.4555 -0.1345  0.4779
 2310W        W 6374   6.897  10.689   3.027  0.1418 -0.1556 -0.1595
 2311W        W 6375   6.642   5.870   9.455  0.0707  0.0012  0.1398
 2312W        W 6376   8.881   6.242   3.613 -0.0092 -0.2367  0.0710
 2313W        W 6377   1.648   7.030   1.319  0.0847 -0.0984 -0.0732
 2314W        W 6378   8.726  10.270   3.733 -0.1058 -0.1121 -0.0802
 2315W        W 6379   4.445   0.946   7.499 -0.2714  0.0123 -0.1151
 2316W        W 6380   3.229   2.241   3.830  0.0574 -0.2024  0.0968
 2317W        W 6381   4.778   3.334   3.359 -0.2328  0.3197  0.2379
 2318W        W 6382   5.032   5.223   3.568 -0.1876 -0.2487  0.2101
 2319W        W 6383   7.312   9.198   1.266 -0.0907 -0.1019  0.2462
 2320W        W 6384   0.838   8.306   8.028  0.2789 -0.1377  0.1373
 2321W        W 6385   9.197   3.972   8.918  0.0858  0.0712  0.1071
 2322W        W 6386   0.889   8.893   8.034  0.2654  0.0859  0.1175
 2323W        W 6387   0.673  10.440   1.598  0.1177  0.3572 -0.0453
 2324W        W 6388   3.843   8.757   0.496 -0.3056  0.4933  0.1182
 2325W        W 6389   5.581   3.299  10.637 -0.0743  0.0922 -0.0369
 2326W        W 6390   4.208   7.635   2.111  0.0591  0.0492 -0.0629
 2327W        W 6391   3.957   4.605  10.972 -0.2080  0.0467 -0.1191
 2328W        W 6392   7.100   5.407   3.532 -0.0787  0.1135 -0.0434
 2329W        W 6393   5.835   9.348   2.001  0.0038 -0.0474 -0.2416
 2330W        W 6394  10.634   7.273   9.727 -0.0058  0.1663  0.2988
 2331W        W 6395   7.983   2.326   2.624  0.2635  0.0241 -0.1589
 2332W        W 6396   9.337   1.159   1.284 -0.1235 -0.1275 -0.3758
 2333W        W 6397  10.355   3.318  10.468 -0.1486 -0.0057 -0.0423
 2334W        W 6398   8.288   3.432  11.020 -0.1849 -0.0703 -0.0608
 2335W        W 6399   2.629  10.702  10.204  0.0848  0.0825  0.2270
 2336W        W 6400   8.699   6.850   1.316  0.0918  0.0114 -0.0618
 2337W        W 6401   0.033   3.046   1.311 -0.1353  0.0454 -0.1110
 2338W        W 6402   7.391   0.107   8.888  0.0613  0.0178 -0.1856
 2339W        W 6403   1.351   0.292   0.629 -0.2800  0.2469 -0.0544
 2340W        W 6404   5.083   2.526   9.294 -0.0049  0.1978 -0.1291
 2341W        W 6405   1.833   0.965   8.949 -0.1472 -0.1756 -0.0782
 2342W        W 6406   5.113   0.043  11.038 -0.2568  0.2054 -0.0179
 2343W        W 6407   1.562  10.825  10.782 -0.0621  0.1310 -0.5427
 2344W        W 6408   0.014   1.981   7.716  0.3118  0.2450  0.0103
 2345W        W 6409  10.529   1.263   2.242  0.2266  0.0445 -0.3971
 2346W        W 6410   8.880   1.017   0.943 -0.0957  0.2132 -0.2589
 2347W        W 6411   5.948   8.218   2.785 -0.2142  0.4686 -0.2232
 2348W        W 6412   8.617   8.650   6.926  0.0548 -0.3023  0.0701
 2349W        W 6413   8.188   5.628   8.107 -0.2247  0.1274  0.0142
 2350W        W 6414   6.433   9.937   0.294 -0.0478  0.0612 -0.0234
 2351W        W 6415   3.563   9.429   2.542  0.3680 -0.0936  0.0392
 2352W        W 6416   8.537   7.868  10.003  0.2153 -0.2097 -0.0152
 2353W        W 6417   1.686   9.727   0.194 -0.0490  0.1262  0.0061
 2354W        W 6418   7.747   5.786   7.862  0.2587  0.0097  0.3044
 2355W        W 6419   1.283   4.214   8.639  0.1291 -0.2570 -0.0269
 2356W        W 6420   7.850   2.862   9.208 -0.3033  0.0314 -0.0579
 2357W        W 6421  10.472   9.815   0.186 -0.3348 -0.0278 -0.1769
 2358W        W 6422   7.329   1.088   1.689  0.0041 -0.2193 -0.1527
 2359W        W 6423   0.194   4.480   8.489  0.0897  0.1066 -0.0689
 2360W        W 6424   3.938   3.054   8.072  0.1937 -0.0831 -0.0508
 2361W        W 6425   1.945   9.683   1.181  0.2425 -0.4417  0.0680
 2362W        W 6426   0.182   0.955   2.059  0.1766  0.1727 -0.1503
 2363W        W 6427   8.150   3.142  10.558 -0.4159  0.0288  0.0887
 2364W        W 6428   7.064   5.627   0.958 -0.3362 -0.0005 -0.1562
 2365W        W 6429   2.239   0.520   0.224 -0.0536 -0.0351 -0.0884
 2366W        W 6430   1.951   3.066   9.179  0.0212  0.1451 -0.2366
 2367W        W 6431   8.399   1.300  11.019  0.1293  0.1351  0.0794
 2368W        W 6432   5.172   0.764   1.999 -0.0020 -0.2137 -0.2314
 2369W        W 6433   7.808   4.465   3.247 -0.1324 -0.2074 -0.0726
 2370W        W 6434   8.647   5.577   2.721 -0.2929 -0.0378  0.1488
 2371W        W 6435   2.803  10.689   1.213 -0.0200 -0.0876  0.1272
 2372W        W 6436  10.009   2.120   8.784 -0.0997 -0.0649  0.0460
 2373W        W 6437   0.211  10.137   8.401  0.1557  0.1276  0.0363
 2374W        W 6438   7.124   1.853   2.642  0.1915 -0.0987  0.1029
 2375W        W 6439   6.729   2.577   3.752 -0.0236 -0.3211 -0.1005
 2376W        W 6440  10.054  10.345   9.676 -0.2696  0.1274  0.0547
 2377W        W 6441   1.477   9.952   7.350 -0.1216  0.0896 -0.0795
 2378W        W 6442   2.163   3.829   0.867 -0.1207  0.2293 -0.1303
 2379W        W 6443   6.062   1.905   9.838  0.0111 -0.0546  0.1481
 2380W        W 6444   3.664   6.363   1.729  0.3635 -0.0888  0.3022
 2381W        W 6445   8.474   0.181   9.469  0.1227 -0.2866 -0.2138
 2382W        W 6446   7.396   4.061   7.990  0.1217  0.2888 -0.2910
 2383W        W 6447   5.521   9.113   1.706 -0.1975  0.0557 -0.3043
 2384W        W 6448   4.192   2.637   9.601  0.1778 -0.4695  0.0067
 2385W        W 6449   6.280  10.855   1.601 -0.0585  0.2975  0.0460
 2386W        W 6450  10.478   6.984  10.565  0.2327 -0.0568 -0.1656
 2387W        W 6451   8.813   9.659   7.146  0.0544  0.1494 -0.0284
 2388W        W 6452   9.634   2.471   8.541 -0.1278  0.2193  0.2325
 2389W        W 6453   8.489   0.875   7.584  0.3357 -0.0275  0.0564
 2390W        W 6454   4.189   7.966   8.455 -0.0964 -0.2948 -0.1246
 2391W        W 6455   1.892   0.904   0.153  0.3051 -0.1008  0.2643
 2392W        W 6456   6.108   4.915  10.478 -0.0812 -0.2600 -0.2715
 2393W        W 6457   9.127   4.616   7.084  0.2258 -0.0655 -0.1417
 2394W        W 6458   7.345   4.451   0.223 -0.3662 -0.0630 -0.0299
 2395W        W 6459   2.295   7.722   0.141  0.2126  0.2833 -0.2828
 2396W        W 6460  10.053   3.153   0.367  0.1442 -0.0188 -0.0487
 2397W        W 6461   2.958   1.084   1.716 -0.2712 -0.1351 -0.2487
 2398W        W 6462   9.867   0.730   1.694  0.1147  0.3766 -0.4019
 2399W        W 6463   9.863   0.575   9.497  0.0801  0.3138 -0.1724
 2400W        W 6464   9.103   3.457   9.156  0.1942 -0.3602  0.0397
 2401W        W 6465   6.609  10.338   0.713  0.0026  0.2342  0.3971
 2402W        W 6466   4.985  10.168   4.109 -0.1117 -0.3810 -0.2248
 2403W        W 6467   5.194   5.075  10.191 -0.0870 -0.0827 -0.1377
 2404W        W 6468   6.049   6.166   2.029 -0.0264  0.3274  0.1302
 2405W        W 6469   8.414   5.252   6.828 -0.3391  0.2872 -0.2642
 2406W        W 6470   8.489   3.573   7.675 -0.0071  0.3835 -0.0287
 2407W        W 6471   9.201   8.438   1.220 -0.1049  0.3324  0.2129
 2408W        W 6472   2.155   7.336   1.182  0.0594 -0.0389 -0.1004
 2409W        W 6473   8.685   1.415   1.870  0.1614 -0.2001 -0.0604
 2410W        W 6474   5.964   5.410   2.761 -0.0065 -0.0614  0.0460
 2411W        W 6475   4.111  10.221   9.070  0.0200  0.3630 -0.1216
 2412W        W 6476   7.790   7.310   2.590 -0.0270  0.2779  0.1387
 2413W        W 6477   5.475   7.551   9.708 -0.0966  0.0357  0.0093
 2414W        W 6478   0.186   4.042   0.960 -0.1949  0.1901 -0.0999
 2415W        W 6479   6.905   0.258   9.103 -0.0460  0.2580 -0.1236
 2416W        W 6480   7.837   1.139   8.755  0.1413  0.1052 -0.1036
 2417W        W 6481   5.560   1.308   1.753 -0.0223 -0.0994 -0.0239
 2418W        W 6482   4.109   3.876   1.078 -0.0328  0.0869 -0.0403
 2419W        W 6483   3.671   1.661   1.208 -0.1230 -0.3874  0.2754
 2420W        W 6484   8.624   3.119   9.709 -0.2139 -0.0022  0.1328
 2421W        W 6485  10.735   8.561   1.038  0.0469 -0.3688  0.1861
 2422W        W 6486   0.993   2.490   3.688  0.0340 -0.0813 -0.0026
 2423W        W 6487  10.702   8.447   2.622 -0.1767 -0.1904  0.3308
 2424W        W 6488   2.975   4.146   9.151 -0.4090 -0.1765 -0.0342
 2425W        W 6489  10.506   5.671   1.553 -0.0715  0.1162 -0.4492
 2426W        W 6490   5.311   9.258   2.760  0.2539  0.0059 -0.3179
 2427W        W 6491  10.658   0.668  10.553 -0.0263 -0.0848  0.2081
 2428W        W 6492   9.011   2.859   2.192 -0.1822 -0.2859 -0.3002
 2429W        W 6493   2.834   5.363   8.710 -0.2711  0.1397 -0.1839
 2430W        W 6494   6.775   3.018   3.964  0.2977 -0.1193  0.3255
 2431W        W 6495  10.798  10.619   8.125  0.1754  0.0413  0.2302
 2432W        W 6496  10.693   6.594   9.764  0.1135 -0.0174 -0.6343
 2433W        W 6497   1.149  10.867   9.313  0.0506 -0.0067  0.2082
 2434W        W 6498  10.374   1.670  10.384 -0.0728 -0.3026  0.0634
 2435W        W 6499   0.326   9.220  10.350  0.1046 -0.1252 -0.2835
 2436W        W 6500   2.826   6.976  10.895  0.0252  0.1688  0.0995
 2437W        W 6501   4.856   0.192   9.832  0.1486  0.1454  0.1322
 2438W        W 6502   6.137   6.684   1.716  0.1024  0.0436  0.0046
 2439W        W 6503  10.375   4.084   2.307  0.0550 -0.0439 -0.0390
 2440W        W 6504   7.079   5.653   9.840  0.5010  0.1527 -0.1280
 2441W        W 6505   8.814   5.898   3.198  0.0700  0.2245 -0.1961
 2442W        W 6506   2.523   4.947   2.358 -0.0103 -0.0908  0.1478
 2443W        W 6507   7.250   1.084  10.432  0.1380 -0.0366 -0.3650
 2444W        W 6508   3.052   4.401   3.236 -0.0032 -0.0679 -0.2405
 2445W        W 6509   1.970   6.552   0.253  0.1990  0.1076 -0.2851
 2446W        W 6510   4.667   8.708   0.842  0.1379 -0.0688 -0.3587
 2447W        W 6511   9.977   0.753   3.603 -0.1044 -0.0078  0.1871
 2448W        W 6512   3.540   5.766   9.924 -0.0755 -0.0654 -0.0641
 2449W        W 6513   0.042   7.762   8.565  0.3079  0.2217  0.0218
 2450W        W 6514   6.783   6.608   8.856 -0.0982  0.1013 -0.0092
 2451W        W 6515   4.121   4.439   8.564  0.0267  0.1386  0.1273
 2452W        W 6516  10.455   7.716   0.741 -0.0019  0.0252  0.1741
 2453W        W 6517   1.298   6.088  10.220  0.0708 -0.0965  0.1155
 2454W        W 6518   6.811   2.515  10.766  0.1481 -0.0266  0.0006
 2455W        W 6519   3.719   7.622  10.358  0.2919  0.1517 -0.0406
 2456W        W 6520   3.111   1.783   0.487  0.4894  0.0488 -0.1836
 2457W        W 6521   2.297   4.780   0.974 -0.1057  0.0079  0.3322
 2458W        W 6522   0.452   0.674   0.351  0.0119  0.0981 -0.1450
 2459W        W 6523   9.108   7.434   9.933 -0.0278  0.0535 -0.4941
 2460W        W 6524   6.774   8.355   3.408 -0.1285 -0.1081 -0.0405
 2461W        W 6525   8.921   8.197   0.015 -0.2033 -0.0967 -0.0025
 2462W        W 6526  10.422   4.341   7.747 -0.3598 -0.0718 -0.0598
 2463W        W 6527   1.954   4.263   0.976 -0.1537 -0.3094 -0.3054
 2464W        W 6528   1.759   3.305   2.653 -0.0583  0.2050  0.1411
 2465W        W 6529   1.218   6.100  10.675  0.1059 -0.1385  0.1334
 2466W        W 6530   8.076   1.094   0.370 -0.1494  0.2550 -0.3634
 2467W        W 6531   1.999   7.225  10.103 -0.2194  0.2705 -0.0822
 2468W        W 6532   3.291   3.051   3.986 -0.0109  0.1331 -0.2181
 2469W        W 6533   9.630   3.989  10.236 -0.2526 -0.0247  0.0490
 2470W        W 6534  10.083   1.653   8.524 -0.1481 -0.2024 -0.3612
 2471W        W 6535   4.700  10.898   9.304 -0.2391  0.2973 -0.2122
 2472W        W 6536   2.486   9.280   0.646  0.0387 -0.1774  0.0664
 2473W        W 6537   5.951   8.672   9.685  0.0511  0.0038  0.0823
 2474W        W 6538   1.069   0.302   3.331  0.0355 -0.1464  0.0330
 2475W        W 6539   0.119   1.464   9.719  0.1226  0.2002  0.2587
 2476W        W 6540   2.084   7.121   0.407  0.1720  0.0118 -0.1864
 2477W        W 6541   4.235   9.637   7.722  0.0364 -0.0081 -0.1865
 2478W        W 6542   9.968  10.304   7.847  0.1731  0.0415  0.1358
 2479W        W 6543   4.297   3.834   1.682 -0.2177  0.2064 -0.0976
 2480W        W 6544   7.428   7.964   1.445 -0.3704  0.2359 -0.0138
 2481W        W 6545   7.743   0.130   1.462 -0.1880  0.0544  0.0411
 2482W        W 6546   8.997   1.567   3.651  0.1262  0.1457  0.3200
 2483W        W 6547   0.964   1.687   3.132 -0.1493 -0.3630 -0.0736
 2484W        W 6548   4.128   4.965   8.644 -0.0317  0.4895  0.0736
 2485W        W 6549   6.676   4.591   1.474 -0.0422 -0.1178 -0.2049
 2486W        W 6550   3.224   4.567   1.169 -0.1697 -0.1577  0.1055
 2487W        W 6551   1.391   1.228   1.843 -0.0957  0.0825  0.0326
 2488W        W 6552   8.629   8.837   9.402 -0.2083  0.0294 -0.4637
 2489W        W 6553   7.110  10.484   8.023 -0.0121  0.2533  0.1710
 2490W        W 6554   2.657   3.157   3.156 -0.0697 -0.1366 -0.0027
 2491W        W 6555   5.219   6.657   8.774  0.0997  0.1412 -0.0911
 2492W        W 6556   7.731   6.412   0.305  0.0993 -0.1935  0.0399
 2493W        W 6557   6.542   7.780   2.744  0.0020 -0.0332 -0.1192
 2494W        W 6558   9.402   0.836   8.085 -0.0505 -0.0280  0.0063
 2495W        W 6559   7.796   3.766   3.919 -0.3151 -0.0409  0.1601
 2496W        W 6560  10.065  10.614   2.138  0.0412  0.0697  0.0239
 2497W        W 6561   7.571   0.522   9.958 -0.0337 -0.1844 -0.3563
 2498W        W 6562   7.250   1.082   8.555 -0.0284 -0.0409 -0.2441
 2499W        W 6563   2.836  10.329   8.911  0.5364 -0.0522  0.0622
 2500W        W 6564   7.802   7.399   9.841  0.0605 -0.1340  0.1390
 2501W        W 6565   1.826   2.216   2.747 -0.1004 -0.1156  0.0505
 2502W        W 6566   9.137   4.248   9.372 -0.2054  0.4071  0.0001
 2503W        W 6567   4.075   1.326   0.905 -0.2310 -0.1078 -0.2573
 2504W        W 6568   2.022   4.747   8.814 -0.0632  0.2489  0.3167
 2505W        W 6569   9.198   4.449  10.043  0.0643 -0.0246  0.1470
 2506W        W 6570   8.329   6.096   3.786 -0.4221 -0.1000  0.0823
 2507W        W 6571   1.781   0.433   9.850 -0.0223  0.0015  0.1229
 2508W        W 6572   2.582  10.330   9.896  0.2139  0.0790 -0.2433
 2509W        W 6573   0.020   1.408   2.059 -0.1207  0.0677 -0.1236
 2510W        W 6574   3.932   0.357   2.996  0.1117 -0.0658 -0.3310
 2511W        W 6575   5.626   1.111  10.721  0.0230  0.2216 -0.0655
 2512W        W 6576   8.132   6.147   2.199 -0.0504  0.0474  0.4125
 2513W        W 6577   1.331   0.064  10.255 -0.1170 -0.0116  0.0043
 2514W        W 6578   7.004   1.873   3.160  0.1260  0.2522  0.1071
 2515W        W 6579   7.392  10.117   8.308  0.2048 -0.3670 -0.0455
 2516W        W 6580   1.117   6.257   2.914  0.0077  0.0250 -0.0145
 2517W        W 6581   0.466   8.649   7.165 -0.0880  0.0581  0.1406
 2518W        W 6582   3.194   5.076   1.537 -0.1799  0.1329  0.0071
 2519W        W 6583   3.151   0.623   8.352 -0.0919  0.0389 -0.1891
 2520W        W 6584   5.394   7.510  10.560  0.0128 -0.1542  0.1680
 2521W        W 6585   5.653   8.566   0.885  0.1400  0.1382  0.1141
 2522W        W 6586   6.679   2.368   8.403  0.1951  0.0136  0.0846
 2523W        W 6587   8.395   8.087   1.752  0.1049 -0.2332 -0.0253
 2524W        W 6588   2.283   7.008   7.425 -0.1284 -0.4532 -0.0375
 2525W        W 6589   7.949   3.760   0.343 -0.1535  0.0030  0.0619
 2526W        W 6590   8.993   0.038   2.602  0.2534  0.0479  0.2602
 2527W        W 6591   7.257   8.895   0.383 -0.2693  0.4112  0.1085
 2528W        W 6592   0.458   6.355   1.808  0.0675  0.1688 -0.2060
 2529W        W 6593   1.036   8.925   0.643  0.0548 -0.3655  0.0373
 2530W        W 6594   6.616   2.474   3.216 -0.1017  0.1049 -0.0025
 2531W        W 6595   7.908   6.393  10.043  0.0583 -0.1694  0.1308
 2532W        W 6596   3.754   8.361   2.417 -0.2015  0.2106 -0.1891
 2533W        W 6597   9.526   9.539   3.496  0.0081 -0.1829  0.0195
 2534W        W 6598   1.375   6.590  10.258  0.0317  0.0746 -0.0811
 2535W        W 6599   0.580   2.140   8.982  0.1296  0.1617 -0.1271
 2536W        W 6600   6.422   6.180   3.377  0.2844 -0.2710  0.1184
 2537W        W 6601   8.424  10.687   2.205 -0.1364  0.2929 -0.1242
 2538W        W 6602   6.341   2.428  10.648 -0.2724  0.2275  0.1695
 2539W        W 6603   1.562   6.404  10.939 -0.1766  0.1774  0.1368
 2540W        W 6604  10.193   4.987   6.980  0.1036 -0.0098 -0.3032
 2541W        W 6605   0.251   2.436   0.036  0.1869 -0.2258 -0.2734
 2542W        W 6606   9.346   5.523   7.100  0.1413  0.2452 -0.1531
 2543W        W 6607   0.935   8.029   1.777 -0.2948 -0.2105 -0.0832
 2544W        W 6608   2.915   6.745   2.831 -0.0454  0.0322 -0.4387
 2545W        W 6609   3.183   7.240   2.831  0.0891 -0.0145 -0.3196
 2546W        W 6610   2.837   2.161   3.361 -0.0461  0.0411 -0.2007
 2547W        W 6611   3.263   6.150  10.006 -0.0137 -0.0653  0.3462
 2548W        W 6612   6.081   9.179   9.779 -0.2177 -0.2340  0.0012
 2549W        W 6613   6.192   3.938   2.981 -0.0230  0.2405  0.0422
 2550W        W 6614   8.615   4.992   8.305  0.1429 -0.0779  0.1470
 2551W        W 6615   6.345   3.446   2.182 -0.1646 -0.0436  0.4016
 2552W        W 6616   1.149   1.234   0.711 -0.1908  0.1238  0.0470
 2553W        W 6617   3.293   3.489   9.269  0.0984  0.2035  0.2037
 2554W        W 6618  10.382   7.846  10.479  0.3012 -0.2712 -0.1167
 2555W        W 6619  10.405   6.491   2.995  0.1734  0.2143  0.3259
 2556W        W 6620   2.060  10.782   2.027 -0.0160  0.1430  0.3416
 2557W        W 6621   8.791   2.388   1.380 -0.4316  0.0673  0.0761
 2558W        W 6622   0.246   9.609   7.269 -0.3284 -0.0594  0.0895
 2559W        W 6623   4.513   9.211   9.201 -0.1023 -0.0335 -0.1366
 2560W        W 6624   3.215   4.354   8.836 -0.2077 -0.0153  0.4175
 2561W        W 6625   4.918   7.795  10.582 -0.4286 -0.3472 -0.0069
 2562W        W 6626   6.012   1.557   4.089  0.0737 -0.1108  0.2065
 2563W        W 6627  10.336   8.741   0.187 -0.1086  0.1747 -0.0047
 2564W        W 6628   5.913   5.512  11.044 -0.1160 -0.1386 -0.0140
 2565W        W 6629   9.875   2.678   3.251 -0.5561  0.1304 -0.0006
 2566W        W 6630   1.561   7.660   3.040  0.1740 -0.0293  0.1765
 2567W        W 6631   8.560   0.060   0.309  0.1661  0.0573 -0.1911
 2568W        W 6632   7.877   9.425   0.749 -0.2880 -0.2772 -0.0224
 2569W        W 6633   8.525   1.073   9.631  0.1543  0.3463  0.0741
 2570W        W 6634   6.170   3.276   8.579 -0.1761 -0.1054  0.0585
 2571W        W 6635   3.833  10.237   2.948 -0.0654  0.1422  0.1676
 2572W        W 6636   0.676  10.407   7.801 -0.3386 -0.0850 -0.2650
 2573W        W 6637   7.469   5.630   6.918 -0.0864 -0.1347 -0.0308
 2574W        W 6638   9.746   8.883   7.953 -0.0012 -0.2161 -0.1439
 2575W        W 6639   7.563   5.353   0.810  0.0803 -0.0193 -0.0616
 2576W        W 6640   9.186   5.012   2.076  0.4065 -0.0512  0.0983
 2577W        W 6641   2.601   1.938   1.123  0.0113  0.0684 -0.1848
 2578W        W 6642   5.295  10.665  10.655 -0.3495  0.1630 -0.2893
 2579W        W 6643   9.135   7.467   0.686  0.2465  0.0602 -0.3746
 2580W        W 6644   8.532   2.197  10.209  0.5071  0.2196 -0.2269
 2581W        W 6645   0.740  10.223   3.014  0.2823 -0.2775  0.0016
 2582W        W 6646   6.708  10.302   9.177 -0.0583 -0.2090 -0.0889
 2583W        W 6647   1.559   7.452   0.220 -0.0480 -0.1350  0.1439
 2584W        W 6648   0.015   4.597  10.892  0.2998 -0.5283  0.1603
 2585W        W 6649   4.343   7.655   9.833 -0.1777  0.3088  0.0984
 2586W        W 6650   0.743   1.166   0.370 -0.2628 -0.2621 -0.1940
 2587W        W 6651   6.644   9.801   9.300  0.0166 -0.1679 -0.0983
 2588W        W 6652   4.973   5.597   3.036  0.3229 -0.1777 -0.0143
 2589W        W 6653   0.542   3.144   2.075 -0.0539  0.0677 -0.0098
 2590W        W 6654   9.756   2.186   2.488 -0.4515  0.0338 -0.2649
 2591W        W 6655   8.248   5.369   2.779  0.5342 -0.0820 -0.0608
 2592W        W 6656   5.592   1.671   9.700  0.0229  0.1547 -0.2559
 2593W        W 6657   9.846   4.888   1.506 -0.2268  0.2168 -0.1961
 2594W        W 6658  10.270   9.577   2.975  0.0031 -0.0841  0.2521
 2595W        W 6659   7.051   4.481   0.629 -0.0099  0.1899 -0.0098
 2596W        W 6660   4.037  10.517   2.600  0.1509  0.1718  0.2001
 2597W        W 6661   3.677   9.346   9.493 -0.0601 -0.0010  0.1854
 2598W        W 6662   1.190   8.998   8.541  0.0959  0.2251  0.2421
 2599W        W 6663   6.761   5.589   0.047  0.0416 -0.1110 -0.1207
 2600W        W 6664   1.830   2.722   2.924  0.0524  0.1106 -0.0109
 2601W        W 6665   2.736   7.970   1.921  0.2515  0.0911 -0.1001
 2602W        W 6666   1.413   0.745   0.624  0.2711  0.0120  0.0345
 2603W        W 6667   5.579   5.745   0.781 -0.2162  0.2242 -0.0156
 2604W        W 6668  10.738  10.539   7.628 -0.3276 -0.0648 -0.0089
 2605W        W 6669   4.604   1.369   2.085  0.0433  0.0692 -0.0948
 2606W        W 6670   3.143  10.381  10.067 -0.1492  0.1775  0.0455
 2607W        W 6671   2.830   2.802  10.417 -0.0549  0.0774 -0.0369
 2608W        W 6672   0.624   8.302   9.794 -0.2450 -0.2728  0.1075
 2609W        W 6673  10.564   5.095   1.613  0.1072  0.0232  0.0703
 2610W        W 6674   5.977   5.376   9.033 -0.2479 -0.0754  0.2346
 2611W        W 6675   0.194   2.595   0.919 -0.1125  0.1471 -0.0639
 2612W        W 6676   1.111   6.355   8.806  0.1119 -0.0908 -0.0589
 2613W        W 6677  10.075  10.180   8.351  0.1276 -0.1808 -0.2889
 2614W        W 6678   0.014   3.114   9.322 -0.2206  0.1832 -0.1501
 2615W        W 6679   2.980   9.841   0.949  0.2121  0.1176  0.1857
 2616W        W 6680   9.886   4.205   8.116 -0.3423  0.0424 -0.3280
 2617W        W 6681   8.264   5.387  10.002 -0.1403 -0.0047 -0.4761
 2618W        W 6682   2.591   3.219   2.686  0.1089  0.0169  0.1930
 2619W        W 6683   6.910  10.670   8.853 -0.0678  0.0554  0.2795
 2620W        W 6684   3.448   4.719   9.719  0.0260 -0.2504 -0.1369
 2621W        W 6685   0.774   3.199   0.929  0.2868 -0.1212 -0.3011
 2622W        W 6686   2.992  10.207   9.578  0.0123 -0.1741 -0.0120
 2623W        W 6687   5.257   7.274   1.881 -0.1339  0.2884 -0.0545
 2624W        W 6688   8.442   0.603   9.777  0.1164 -0.0582  0.2600
 2625W        W 6689   6.272   5.652  10.103  0.2151  0.0544  0.0725
 2626W        W 6690   3.136   2.354  10.223  0.0526  0.1228 -0.0559
 2627W        W 6691   7.722   9.738   8.578  0.2878 -0.1568  0.1028
 2628W        W 6692   1.026   3.715   3.185  0.0112 -0.1452  0.1490
 2629W        W 6693   0.193   1.078   1.575  0.0367 -0.0156 -0.1849
 2630W        W 6694   6.164   3.133  10.713  0.0479 -0.1705 -0.0238
 2631W        W 6695   6.733   3.022   7.682  0.0648 -0.1780  0.0243
 2632W        W 6696   4.288   5.514   0.023 -0.2252 -0.1184 -0.3581
 2633W        W 6697   8.333   9.471   7.932 -0.3399  0.0378  0.1253
 2634W        W 6698   5.312   5.227   3.137  0.1863  0.0088 -0.3618
 2635W        W 6699  10.534   1.514   3.186  0.0661 -0.3082 -0.2751
 2636W        W 6700   5.778   6.619   8.385  0.0507 -0.0632 -0.0229
 2637W        W 6701   8.947   2.168   7.573 -0.0486  0.0073  0.0425
 2638W        W 6702   6.898   8.903   7.566  0.0006 -0.3218 -0.0331
 2639W        W 6703   6.580   2.080   0.025 -0.1469  0.0551  0.0401
 2640W        W 6704   8.056   0.152   0.440  0.0194  0.2071 -0.1480
 2641W        W 6705   1.802   2.575   9.046 -0.1350 -0.1322 -0.0030
 2642W        W 6706   4.186   0.091  11.024  0.3612  0.0626  0.0041
 2643W        W 6707   6.192   5.948   9.629 -0.1642 -0.2959  0.2254
 2644W        W 6708   5.296   5.484   7.547  0.0005 -0.2418  0.1757
 2645W        W 6709   4.701   9.179   0.989  0.1252 -0.0666 -0.2653
 2646W        W 6710  10.663   9.493   2.642  0.2221  0.4314 -0.0805
 2647W        W 6711  10.473   2.928   7.701 -0.0300 -0.1679  0.0200
 2648W        W 6712   8.318   2.731   1.270 -0.1605  0.2201 -0.0228
 2649W        W 6713   7.620   3.397   0.958  0.1877  0.0369  0.0502
 2650W        W 6714   9.805   5.682   1.646  0.3193  0.0445 -0.1237
 2651W        W 6715   7.137   0.727  10.085  0.0009 -0.0808  0.1094
 2652W        W 6716   5.583   5.240   9.748  0.2581  0.0780 -0.3337
 2653W        W 6717   7.050   9.141   9.820 -0.0114  0.1104  0.1374
 2654W        W 6718   2.632   6.633  10.075  0.3535  0.0991 -0.1494
 2655W        W 6719   9.043   7.576   1.248 -0.1170 -0.1699  0.2468
 2656W        W 6720   9.066   4.955   1.051  0.1218 -0.0375  0.0141
 2657W        W 6721   2.656   6.555   2.415 -0.0437 -0.0007  0.1654
 2658W        W 6722   5.673   3.450   8.809  0.2328  0.1946  0.1685
 2659W        W 6723   4.947   1.868   9.169  0.2582  0.0540 -0.0919
 2660W        W 6724  10.254   8.941   3.644  0.0226  0.0481 -0.0823
 2661W        W 6725   9.133   1.377   0.493  0.3324 -0.0098 -0.0520
 2662W        W 6726   7.078  10.002   3.640 -0.0536 -0.1396 -0.0777
 2663W        W 6727   0.345   8.675  10.531 -0.1093  0.3305  0.2551
 2664W        W 6728   2.327   0.823   1.101 -0.1263  0.2002 -0.0656
 2665W        W 6729   4.578   4.623   8.709 -0.3179  0.0754  0.0477
 2666W        W 6730   0.130   5.256   2.974  0.0055  0.1520  0.0162
 2667W        W 6731   4.993   3.651   2.849 -0.1496  0.1304  0.1058
 2668W        W 6732   5.994   3.309   1.854  0.0550 -0.0334  0.2257
 2669W        W 6733   0.386   5.134   2.363 -0.0789  0.0938 -0.3083
 2670W        W 6734   0.236   6.580   2.730 -0.0379 -0.0900 -0.1200
 2671W        W 6735   7.248  10.516   0.000 -0.0388 -0.1228  0.0451
 2672W        W 6736   2.557   9.121   0.101  0.0795  0.3035 -0.1462
 2673W        W 6737   8.653  10.490   0.294 -0.1706 -0.2118  0.1782
 2674W        W 6738   9.983   7.265   2.507  0.1952 -0.2402 -0.0146
 2675W        W 6739  10.270  10.566   2.944  0.1429 -0.1888  0.0560
 2676W        W 6740   6.747   5.055   8.126  0.2554  0.3518 -0.2908
 2677W        W 6741   3.341   3.008   9.526  0.0578  0.2523  0.1655
 2678W        W 6742   3.373   5.299   0.618 -0.1079 -0.0850 -0.4617
 2679W        W 6743   8.961   8.027   1.491  0.0057  0.0111  0.3229
 2680W        W 6744   3.198   9.004  10.295  0.1795 -0.0855  0.3316
 2681W        W 6745   6.631  10.470   2.345 -0.0310 -0.4208  0.0280
 2682W        W 6746   6.877   4.132   1.601 -0.2129 -0.0864  0.2504
 2683W        W 6747   6.593   7.514   1.780  0.1063 -0.0548 -0.3396
 2684W        W 6748  10.846   4.212   1.775 -0.0104  0.1678 -0.2066
 2685W        W 6749   6.117   6.869  10.760  0.1587 -0.1782 -0.0475
 2686W        W 6750  10.197   5.104  10.653 -0.1651  0.1815  0.0150
 2687W        W 6751  10.395   3.961   0.458 -0.2575 -0.2777  0.1530
 2688W        W 6752   0.600   6.519   8.872 -0.0314  0.1630  0.0726
 2689W        W 6753   8.461   4.121   7.925 -0.1142 -0.1705  0.2148
 2690W        W 6754   4.273  10.727   8.854  0.3352 -0.0344  0.2959
 2691W        W 6755   0.783   4.806   0.040 -0.4063  0.0493  0.1738
 2692W        W 6756   1.553   8.514   3.384 -0.3614  0.3114  0.2275
 2693W        W 6757   6.707   0.508   8.701 -0.1361 -0.0455  0.2144
 2694W        W 6758   6.299  10.117  10.343 -0.0586 -0.2010 -0.3328
 2695W        W 6759   5.330   9.938   8.323  0.2798 -0.1937 -0.0890
 2696W        W 6760   7.181   5.253   9.533  0.2905  0.1054 -0.0971
 2697W        W 6761   9.386   1.958   7.428  0.1187 -0.6089 -0.1263
 2698W        W 6762   5.028   1.412   9.458 -0.2752  0.0521 -0.2142
 2699W        W 6763  10.487  10.292   3.690  0.0005  0.0867  0.2688
 2700W        W 6764  10.685   4.253   0.117  0.2511 -0.0909  0.2749
 2701W        W 6765   9.744   3.416   2.564  0.0300  0.1739 -0.1876
 2702W        W 6766   9.416   2.590  10.149 -0.0781  0.0280 -0.0110
 2703W        W 6767  10.575  10.019   1.684  0.0276  0.0950 -0.0407
 2704W        W 6768   5.060   6.367   7.692  0.1648 -0.2161  0.2049
 2705W        W 6769   1.113   8.655   8.852 -0.2371 -0.0032  0.3597
 2706W        W 6770   5.685   3.598   0.958 -0.1164 -0.1441 -0.1537
 2707W        W 6771   1.796   1.908  10.022  0.2866  0.1045  0.1048
 2708W        W 6772   9.742   3.650   0.993 -0.5339  0.0280  0.3068
 2709W        W 6773   3.100   2.334   1.961 -0.0175 -0.4794  0.1000
 2710W        W 6774   2.405   6.124   8.396 -0.0058  0.1952  0.0658
 2711W        W 6775   1.449   5.304   2.533  0.3782  0.1629 -0.3978
 2712W        W 6776   7.298   3.320  10.450 -0.1881 -0.2115  0.2803
 2713W        W 6777   8.772   5.253   3.789  0.4017 -0.1946 -0.0617
 2714W        W 6778   5.926   8.699  11.035  0.2720  0.0623 -0.0437
 2715W        W 6779   4.325   5.034   9.680 -0.3288 -0.2106 -0.1478
 2716W        W 6780   8.693   3.674   8.881 -0.2107  0.1276  0.0425
 2717W        W 6781   6.459   3.100   2.564 -0.0050  0.2581  0.1078
 2718W        W 6782   4.783   8.271   9.324 -0.2040  0.1656 -0.3088
 2719W        W 6783   9.514   4.722   1.067  0.0629  0.3653 -0.0133
 2720W        W 6784   0.262   6.586   9.811  0.2808 -0.0100  0.0502
 2721W        W 6785   4.381   1.412   0.466 -0.0881  0.1398  0.2330
 2722W        W 6786   3.595   3.868   0.816 -0.1652  0.1055  0.2496
 2723W        W 6787  10.799   5.054  10.726 -0.0486 -0.4538 -0.2817
 2724W        W 6788   2.585   1.201   2.342 -0.1983  0.0158 -0.0021
 2725W        W 6789   8.409   3.918   0.066 -0.0870 -0.1057 -0.0249
 2726W        W 6790   7.027   5.420   0.445 -0.0490 -0.3201  0.2541
 2727W        W 6791   9.651  10.540   9.542  0.0343 -0.0931  0.0639
 2728W        W 6792   6.009   8.672   1.359  0.1089 -0.0873 -0.1887
 2729W        W 6793   7.672   1.602   2.471  0.0679  0.0482  0.2279
 2730W        W 6794   9.910   5.504   8.453  0.0587 -0.2485 -0.0479
 2731W        W 6795   7.227   9.749   8.678  0.1212 -0.1019 -0.1630
 2732W        W 6796   5.172   5.924  10.036  0.3571 -0.2364 -0.3420
 2733W        W 6797  10.001   5.913   2.172 -0.2462 -0.4382 -0.1075
 2734W        W 6798   5.067   4.073   0.508 -0.0533 -0.1417 -0.0994
 2735W        W 6799   1.449   4.474   0.572 -0.1398 -0.0897 -0.1108
 2736W        W 6800   0.030  10.119   3.483  0.0602  0.2420  0.1053
 2737W        W 6801   9.210   4.163   2.969 -0.0230 -0.2701  0.2950
 2738W        W 6802   8.184   3.915   1.656 -0.2035  0.0301  0.0068
 2739W        W 6803   2.598   1.438   1.902 -0.0917 -0.0620  0.0109
 2740W        W 6804   3.434   5.721   0.265 -0.3057 -0.0032  0.1746
 2741W        W 6805   0.467   1.642   0.123  0.3117  0.0919  0.0903
 2742W        W 6806   1.167   5.649   8.122 -0.0341 -0.0427  0.0417
 2743W        W 6807   9.162   2.932   9.308 -0.0125  0.0913  0.1049
 2744W        W 6808   8.730   4.048   2.931  0.0256 -0.1684 -0.1562
 2745W        W 6809   7.992   1.731   8.005 -0.0197 -0.1354  0.0101
 2746W        W 6810   2.697  10.566   8.093 -0.2098 -0.1821  0.1292
 2747W        W 6811   2.122   4.740   9.964 -0.0784  0.0117 -0.1222
 2748W        W 6812   1.344   9.488   8.601  0.0185  0.0961 -0.0681
 2749W        W 6813   4.086   5.413   1.563  0.1876  0.1544 -0.0847
 2750W        W 6814   6.738   5.451   8.484  0.0310 -0.5045  0.0265
 2751W        W 6815   1.436   2.959   9.097  0.0373 -0.2774  0.4403
 2752W        W 6816   6.390   2.552   1.672  0.0202  0.2887 -0.4009
 2753W        W 6817   5.693   2.220   8.636  0.0257  0.0199 -0.1973
 2754W        W 6818   5.467   8.773   7.794  0.1928 -0.2979  0.0543
 2755W        W 6819   7.786   9.578  10.863  0.1308  0.0005  0.0552
 2756W        W 6820   0.126   2.864   8.641 -0.1901 -0.5062  0.1738
 2757W        W 6821  10.697   8.153   0.764 -0.0148 -0.1046 -0.0272
 2758W        W 6822   7.623   7.439   8.791  0.0670  0.0026  0.0022
 2759W        W 6823   1.285   3.357  10.051  0.0371 -0.2176 -0.0278
 2760W        W 6824   5.733   3.967   3.201  0.0153  0.0392 -0.4004
 2761W        W 6825   0.776   9.373  10.768  0.0042 -0.1595 -0.0321
 2762W        W 6826   3.497   3.388   1.378  0.2522 -0.2607  0.0264
 2763W        W 6827   0.357   5.762   2.313 -0.1339  0.3252  0.1376
 2764W        W 6828   3.046   3.348   9.715  0.3435  0.0820  0.1081
 2765W        W 6829   3.104   2.847   9.982 -0.3313 -0.0988  0.0721
 2766W        W 6830   8.793   6.495   8.256 -0.0535  0.0911 -0.2831
 2767W        W 6831  10.165   7.906   2.355  0.2605  0.1445  0.0112
 2768W        W 6832   9.545   8.883  10.741 -0.1494 -0.1586  0.0077
 2769W        W 6833   7.969   8.470   0.842 -0.0122 -0.1081  0.0370
 2770W        W 6834   6.389   8.646   2.188  0.2311 -0.3959 -0.1271
 2771W        W 6835   7.575  10.717   1.034  0.2042  0.2714 -0.2919
 2772W        W 6836   3.797   5.856   1.612  0.0844  0.1481 -0.0221
 2773W        W 6837   6.700   3.751   2.768 -0.2443  0.1793  0.0989
 2774W        W 6838   8.138   0.500   9.165  0.2113 -0.0806  0.1978
 2775W        W 6839   3.679   5.213   8.383 -0.3448 -0.2589  0.0936
 2776W        W 6840   4.420   5.548   2.820  0.1979 -0.0793 -0.1394
 2777W        W 6841   3.779   0.672   8.273 -0.0218  0.2684 -0.0801
 2778W        W 6842   8.912   3.357   1.379  0.0393  0.0197  0.3918
 2779W        W 6843   4.000   5.238   7.255 -0.0900 -0.1215 -0.0290
 2780W        W 6844   4.035   7.390   2.900 -0.0209 -0.0767 -0.1321
 2781W        W 6845   9.618   8.185   3.592 -0.0782  0.0693  0.0665
 2782W        W 6846   6.486   2.057   1.673 -0.0766  0.2696  0.2695
 2783W        W 6847   7.752   9.010  10.247 -0.2327  0.3515  0.1842
 2784W        W 6848   4.695   2.585   9.740  0.1400  0.1622 -0.1465
 2785W        W 6849   1.793   1.756   2.213 -0.3345 -0.2554  0.0944
 2786W        W 6850   2.424   5.341   0.250 -0.2617 -0.2414 -0.1656
 2787W        W 6851   8.094   4.168   2.767 -0.2856 -0.0137  0.1223
 2788W        W 6852   7.221   7.120   2.426 -0.0950  0.0112  0.1312
 2789W        W 6853   8.269   0.357   2.925  0.1852 -0.1951  0.1642
 2790W        W 6854   5.623   2.603   0.967  0.0239 -0.2163  0.1210
 2791W        W 6855   1.615   3.406   1.767 -0.2695  0.1999 -0.0023
 2792W        W 6856   6.644   8.274   0.407 -0.0891 -0.2278  0.0654
 2793W        W 6857   5.473   0.993   8.075  0.0921 -0.0226  0.0392
 2794W        W 6858   1.959   2.029   9.147 -0.0101 -0.2477 -0.0466
 2795W        W 6859   7.615   0.930   8.268  0.1984  0.3183  0.1748
 2796W        W 6860   5.485   2.893   0.158  0.0878 -0.0876 -0.0227
 2797W        W 6861   6.140   6.358   0.381 -0.1707  0.0917  0.0754
 2798W        W 6862   8.624   2.679   2.003 -0.2803 -0.2094  0.1105
 2799W        W 6863   0.977   0.476   1.679 -0.2229  0.1278 -0.1906
 2800W        W 6864   4.958   1.194   0.718 -0.0042  0.0302  0.0619
 2801W        W 6865  10.175  10.672   3.858 -0.0471  0.2235 -0.4184
 2802W        W 6866  10.568   2.663   9.309 -0.2084 -0.0553 -0.2745
 2803W        W 6867   0.565   0.286   3.213  0.0241  0.2501 -0.2504
 2804W        W 6868   6.381   3.128   8.023 -0.1435 -0.1880 -0.4593
 2805W        W 6869   5.445   9.721   3.024 -0.0404 -0.3526 -0.0664
 2806W        W 6870   0.414   1.548   8.461 -0.0256  0.3031 -0.3094
 2807W        W 6871   2.615   7.956   9.683  0.0508  0.1608  0.2169
 2808W        W 6872   1.806  10.612   8.430  0.1881  0.5489 -0.3787
 2809W        W 6873   7.746   3.701   1.356  0.2256 -0.0192  0.1479
 2810W        W 6874   1.463   2.918  10.450 -0.0480  0.0070 -0.0951
 2811W        W 6875   7.884   1.662   1.549  0.2679 -0.3098  0.1713
 2812W        W 6876   5.111   9.808   9.258 -0.1748  0.1351  0.2077
 2813W        W 6877   0.058   6.161   9.576  0.1000 -0.3503  0.1226
 2814W        W 6878   7.209  10.385  10.553  0.1795 -0.0885 -0.1106
 2815W        W 6879   9.520   6.319   1.810  0.0832  0.2581  0.0728
 2816W        W 6880   1.287  10.332   3.170  0.0373 -0.0598  0.0360
 2817W        W 6881   7.992   1.689   3.011  0.2289 -0.3881  0.0058
 2818W        W 6882   2.774   3.974  11.032  0.0882 -0.2108 -0.1256
 2819W        W 6883  10.732   7.880   2.728 -0.1367  0.2375 -0.3905
 2820W        W 6884   6.506   9.768   8.024 -0.2441 -0.0506 -0.0560
 2821W        W 6885   7.181   6.383   8.454  0.1898 -0.3182  0.0068
 2822W        W 6886   1.590   0.509   1.570 -0.1091 -0.2998 -0.0990
 2823W        W 6887   8.617   9.784   1.097 -0.1273 -0.3331  0.0134
 2824W        W 6888   0.295   6.234   8.582  0.0584  0.0048 -0.2218
 2825W        W 6889  10.821   6.945   9.300 -0.0953 -0.1100  0.0084
 2826W        W 6890   7.906   5.102   0.513  0.1639 -0.0267 -0.0705
 2827W        W 6891   7.591   4.712   7.688 -0.2434  0.0415  0.0486
 2828W        W 6892   8.659   2.771   8.927  0.2907 -0.1311 -0.1869
 2829W        W 6893   9.451   2.472  10.709  0.0565 -0.0961 -0.0205
 2830W        W 6894   7.498   0.602   4.137  0.3936  0.2075  0.0514
 2831W        W 6895   9.247   2.114   8.568 -0.4196  0.0655 -0.1134
 2832W        W 6896   1.621   3.187   9.538 -0.0337 -0.0503 -0.0362
 2833W        W 6897   9.645   4.104   9.023 -0.0577  0.2497  0.1584
 2834W        W 6898  10.212   3.200   0.839  0.0708  0.0307 -0.1105
 2835W        W 6899   4.484   4.738   0.104 -0.0079  0.0071 -0.0819
 2836W        W 6900   7.318   1.015   2.173  0.1448  0.0377  0.2373
 2837W        W 6901   3.421   5.179   9.473  0.3304  0.2625 -0.2117
 2838W        W 6902   4.424   1.576  10.478 -0.0201  0.1234  0.0300
 2839W        W 6903   7.893   6.925   0.195  0.0695 -0.3994 -0.3044
 2840W        W 6904   0.931   1.868  10.864  0.0549 -0.1452 -0.2301
 2841W        W 6905   3.276  10.029  10.517 -0.0897  0.1076 -0.1213
 2842W        W 6906   1.526   5.651   9.249  0.0303  0.3923  0.2052
 2843W        W 6907   7.448   8.274   8.696  0.0350  0.1584  0.1723
 2844W        W 6908   0.983   2.652   3.196 -0.2182 -0.2214 -0.1736
 2845W        W 6909   2.685   4.362   8.234  0.0094 -0.2709  0.3162
 2846W        W 6910   9.953   6.109   3.092  0.1487  0.0724  0.0614
 2847W        W 6911   8.138   1.661   0.216  0.0924 -0.1837 -0.0375
 2848W        W 6912   1.559   1.599   0.886 -0.0199  0.0840  0.0812
 2849W        W 6913   6.146   8.195   0.728  0.1017 -0.0314  0.2461
 2850W        W 6914   0.265   6.404  10.310  0.1333 -0.2891 -0.0048
 2851W        W 6915   6.440   7.103   3.613 -0.2538 -0.2026  0.2224
 2852W        W 6916   5.484   0.427   1.003 -0.3213 -0.1951 -0.3324
 2853W        W 6917   2.781   7.866   8.603 -0.0085  0.0417  0.0129
 2854W        W 6918   2.469  10.871   3.517 -0.2945  0.1127 -0.2244
 2855W        W 6919   9.882   3.410  10.583  0.0597  0.0897  0.1346
 2856W        W 6920   6.088   0.987   7.258  0.3570 -0.1474 -0.0710
 2857W        W 6921   7.636   2.026   1.149 -0.0966 -0.0433 -0.0662
 2858W        W 6922   5.014   7.130   1.454  0.2556 -0.0178 -0.0660
 2859W        W 6923   8.788   0.801  10.288 -0.1676  0.2554 -0.0167
 2860W        W 6924   2.005   1.114   9.735  0.0591 -0.0560 -0.0607
 2861W        W 6925   8.576   6.889   3.187 -0.2423 -0.2672 -0.0643
 2862W        W 6926   5.572  10.375   1.264  0.0552 -0.1728 -0.1575
 2863W        W 6927   7.872   5.599   0.483  0.1334 -0.0118  0.3394
 2864W        W 6928  10.761   3.473   7.446 -0.2276  0.0449 -0.0046
 2865W        W 6929   2.431   2.570   9.516  0.0145  0.5342  0.0851
 2866W        W 6930   7.884   1.859   8.487 -0.2561  0.0350 -0.1214
 2867W        W 6931   4.820   9.483   0.254 -0.0840  0.0029 -0.0164
 2868W        W 6932   8.187   8.213   9.713 -0.3838 -0.1229 -0.0766
 2869W        W 6933   6.369   8.542   9.964 -0.3135 -0.0565 -0.2840
 2870W        W 6934   5.685   7.546   2.953 -0.0617  0.0674  0.3218
 2871W        W 6935   9.577   8.758   1.266 -0.0040  0.0438  0.0477
 2872W        W 6936   6.104   6.893   1.078  0.2178 -0.0245 -0.0866
 2873W        W 6937   8.683   3.436   0.951 -0.1790  0.2348 -0.1956
 2874W        W 6938   0.986   8.779   1.237 -0.5923  0.1885 -0.4157
 2875W        W 6939  10.851   8.193   1.375 -0.0621 -0.1065 -0.0308
 2876W        W 6940   5.131   7.748   1.859 -0.0191  0.4080 -0.2751
 2877W        W 6941   4.935   6.384   9.999 -0.1445  0.0074 -0.0404
 2878W        W 6942   9.746   7.437   7.507  0.0125 -0.0627 -0.2010
 2879W        W 6943   4.371   3.733   9.005 -0.2160  0.3562 -0.0773
 2880W        W 6944   0.484   0.302   0.752  0.1278  0.2321  0.0397
 2881W        W 6945   4.556   5.676   2.322 -0.2902  0.2491 -0.1358
 2882W        W 6946   8.259   2.879   2.216 -0.0634 -0.0515 -0.0095
 2883W        W 6947   4.474   9.312   0.553  0.1774  0.0781  0.1478
 2884W        W 6948   7.598   5.155   6.732 -0.1518 -0.1497 -0.3534
 2885W        W 6949   8.207   2.744   8.012  0.1703 -0.1255 -0.0191
 2886W        W 6950   6.140   8.252   8.083 -0.1162  0.1298 -0.1354
 2887W        W 6951   2.854   0.659   7.845  0.0953 -0.1517 -0.1603
 2888W        W 6952   2.214   7.145  10.908  0.2156 -0.0199 -0.2263
 2889W        W 6953   5.436   5.528   2.688 -0.0549  0.3021 -0.1191
 2890W        W 6954   4.969   9.391   9.010 -0.0138  0.0090 -0.0220
 2891W        W 6955   2.317   2.195   0.822  0.0727 -0.2323 -0.0555
 2892W        W 6956   9.282   6.272   2.301 -0.0970 -0.3109  0.0593
 2893W        W 6957   6.130   8.330   3.254 -0.1349 -0.2210  0.1540
 2894W        W 6958   6.251   8.925   7.833 -0.1414 -0.0728  0.0546
 2895W        W 6959   3.412   4.298   9.333 -0.3191  0.0145 -0.2500
 2896W        W 6960   0.960   5.323   2.769 -0.1506 -0.0913  0.0681
 2897W        W 6961  10.786  10.355   2.555  0.2489 -0.1027 -0.1198
 2898W        W 6962   4.413   2.917   3.146 -0.1993  0.2229  0.1117
 2899W        W 6963   4.118   5.334   9.279 -0.1327 -0.1098  0.0272
 2900W        W 6964   6.643   6.198   8.585 -0.3257  0.2259  0.0243
 2901W        W 6965   5.404   4.518   8.190  0.3427 -0.2054 -0.1950
 2902W        W 6966   2.580   9.525   2.496 -0.1267  0.2525  0.1555
 2903W        W 6967   8.283   0.019   9.037  0.2752  0.2174  0.2780
 2904W        W 6968   5.516  10.304  10.936  0.2015  0.2433  0.0473
 2905W        W 6969   0.884   5.175   0.770 -0.1264  0.3025  0.2414
 2906W        W 6970   9.024  10.871   1.641  0.4974 -0.1074  0.1097
 2907W        W 6971   6.431   1.239   2.347 -0.0477 -0.1043 -0.0132
 2908W        W 6972   3.125  10.649   9.224 -0.1742  0.0323 -0.0902
 2909W        W 6973   9.818   4.683   1.966  0.3503  0.0357 -0.1507
 2910W        W 6974  10.546   9.840   2.259 -0.4249 -0.0553  0.0086
 2911W        W 6975   0.396   9.734  10.781  0.0712  0.1884 -0.1068
 2912W        W 6976   9.661   2.849  10.497  0.2142  0.0427  0.2537
 2913W        W 6977   4.657   7.537   1.435  0.0506 -0.0765 -0.1038
 2914W        W 6978   8.489   9.595   1.546  0.1145  0.0697  0.1176
 2915W        W 6979   4.862  10.521   9.710 -0.0296 -0.1628  0.3392
 2916W        W 6980   9.180   9.648   2.187  0.0184  0.0150  0.1018
 2917W        W 6981   3.916   7.198   1.948 -0.1454  0.3724 -0.0190
 2918W        W 6982   4.470   5.050   8.985 -0.1781 -0.1699  0.0473
 2919W        W 6983   8.412   1.597   8.364  0.0965 -0.2301 -0.3274
 2920W        W 6984   4.019   0.514   0.850 -0.4281 -0.1191 -0.3634
 2921W        W 6985   8.145   0.208  11.005  0.1907 -0.1193 -0.0689
 2922W        W 6986   9.007   1.595   7.626  0.3152  0.1201  0.1367
 2923W        W 6987   8.327   8.971  10.289  0.2409  0.0052  0.1126
 2924W        W 6988   1.770   2.038   0.070 -0.0344  0.1509 -0.0989
 2925W        W 6989   6.614   7.609   9.683 -0.1428  0.3801 -0.4168
 2926W        W 6990   6.645   0.488   2.237 -0.1766  0.2279  0.1177
 2927W        W 6991   9.654   4.536   9.224 -0.2411  0.0658 -0.0268
 2928W        W 6992   7.978   6.659   3.840  0.1801 -0.2864  0.0952
 2929W        W 6993   3.926   3.463   8.572  0.0756  0.3187 -0.0941
 2930W        W 6994   7.647   2.239  10.630  0.0423  0.1732  0.0076
 2931W        W 6995  10.509   0.949  10.039  0.0196  0.1717  0.0855
 2932W        W 6996   6.033   6.271   3.714 -0.0250 -0.0372  0.2175
 2933W        W 6997   9.549   9.173   0.340  0.0129 -0.0669  0.2334
 2934W        W 6998   3.141  10.609   7.699 -0.0309 -0.3504 -0.0470
 2935W        W 6999   2.337   0.868   8.788  0.1442 -0.0404 -0.1913
 2936W        W 7000   5.226   4.149   9.898 -0.1725 -0.0760  0.0390
 2937W        W 7001   8.987   6.595   0.960  0.1481 -0.0019  0.0615
 2938W        W 7002   1.758   8.129   1.335  0.0368 -0.2301 -0.2391
 2939W        W 7003  10.037   1.803  10.025 -0.0137  0.0030 -0.0402
 2940W        W 7004   9.484   3.219  10.864  0.0612 -0.1863  0.0551
 2941W        W 7005   4.263   7.574  10.366  0.2739  0.1137 -0.0819
 2942W        W 7006   1.918   0.389   2.013 -0.0792  0.0957 -0.1669
 2943W        W 7007   7.489   7.697   3.045 -0.1356  0.2208  0.2644
 2944W        W 7008   7.061   6.447   3.414 -0.0821  0.2209 -0.0336
 2945W        W 7009   9.592   6.464   9.893 -0.3671  0.3870 -0.2151
 2946W        W 7010   1.873   6.742  10.254  0.2033 -0.1120 -0.0874
 2947W        W 7011   6.472   5.756   1.888 -0.0016  0.1727 -0.1676
 2948W        W 7012   9.591   7.657   2.220  0.0877  0.2149 -0.0362
 2949W        W 7013   1.728  10.585   2.455 -0.1418 -0.0612  0.2930
 2950W        W 7014   4.030   3.840   2.448 -0.1592  0.0587  0.1033
 2951W        W 7015   6.815   2.571   1.868 -0.3872  0.0836 -0.0471
 2952W        W 7016   9.931   4.362   6.942  0.0438 -0.2468 -0.1612
 2953W        W 7017  10.433   8.171  10.871 -0.0482 -0.0875  0.1033
 2954W        W 7018   2.508   6.625   1.171  0.0952 -0.3699  0.0329
 2955W        W 7019   2.402   7.132   8.612 -0.1762  0.4080 -0.2015
 2956W        W 7020   8.340   4.612   1.694  0.2110  0.0456 -0.2671
 2957W        W 7021   8.803   2.511   3.628 -0.1932  0.2266  0.2001
 2958W        W 7022   7.342   4.531   9.283  0.1865  0.0557 -0.0277
 2959W        W 7023   4.469   8.316   2.194  0.0867 -0.1432 -0.1502
 2960W        W 7024   4.727   2.687   0.431 -0.0888  0.0430 -0.0143
 2961W        W 7025   4.899   0.940   8.381 -0.3661  0.0419  0.3220
 2962W        W 7026   0.997   3.811   9.871  0.0033  0.0406 -0.1107
 2963W        W 7027  10.452   9.270  10.419 -0.0196 -0.4987  0.1660
 2964W        W 7028   6.431   7.644  10.481  0.1734  0.0836 -0.3617
 2965W        W 7029   8.272  10.215   9.605  0.3452  0.0900  0.0937
 2966W        W 7030   3.077   0.226   0.014 -0.2169 -0.5626 -0.2313
 2967W        W 7031   6.520   8.564   0.014 -0.1955  0.0471 -0.3887
 2968W        W 7032   2.823   7.131   2.320 -0.1096 -0.0778  0.2808
 2969W        W 7033   7.940   2.818   2.604 -0.0546  0.0450  0.0814
 2970W        W 7034   1.375   5.258   3.068 -0.0897 -0.0005 -0.2337
 2971W        W 7035   4.319   8.618   1.255 -0.1530  0.1980  0.2037
 2972W        W 7036   5.681   4.168   9.564  0.0720 -0.0878 -0.1296
 2973W        W 7037   3.904  10.747   9.714 -0.3605 -0.1058 -0.0122
 2974W        W 7038   2.046   9.053   1.623  0.1904  0.2120 -0.0419
 2975W        W 7039   0.819  10.232  10.881 -0.4035 -0.0124  0.0126
 2976W        W 7040   3.245   4.214   2.631  0.1887  0.0235  0.1780
 2977W        W 7041   1.479   5.292   9.689  0.0124  0.1061  0.3575
 2978W        W 7042   8.343  10.212   7.690  0.1502  0.1086  0.0040
 2979W        W 7043   1.563  10.130   8.964  0.3141 -0.1138 -0.0321
 2980W        W 7044  10.015   7.770  10.208  0.3084 -0.0053 -0.0538
 2981W        W 7045   5.597   4.048   2.127  0.0567  0.0847  0.3406
 2982W        W 7046   4.921   0.660   3.082  0.2311 -0.1640 -0.0805
 2983W        W 7047   0.693   8.844  10.842 -0.0045 -0.3438  0.0725
 2984W        W 7048   7.888   2.656  10.812 -0.2349 -0.4433 -0.2622
 2985W        W 7049  10.628   6.855   7.108 -0.1071 -0.0882 -0.3180
 2986W        W 7050   1.748   3.258  10.095  0.0069 -0.1007 -0.0819
 2987W        W 7051   3.662   1.874   8.172 -0.1357  0.3381 -0.1697
 2988W        W 7052   2.584   8.669   0.338  0.0176  0.1193 -0.1591
 2989W        W 7053   8.856   5.757   1.464 -0.2134 -0.1153 -0.3669
 2990W        W 7054  10.581  10.536   8.550  0.0663  0.0579  0.1160
 2991W        W 7055   1.481   8.987   1.520  0.0754 -0.2555  0.0753
 2992W        W 7056   8.157   7.029   2.874 -0.0585  0.2183 -0.1189
 2993W        W 7057   7.679   7.982   8.272 -0.1521  0.1038  0.0937
 2994W        W 7058   3.651   5.903   2.199  0.0592 -0.0544 -0.2560
 2995W        W 7059  10.407   9.665   1.266  0.2359 -0.0663  0.1645
 2996W        W 7060   4.669   6.000   2.628 -0.3784 -0.1968  0.3399
 2997W        W 7061   8.013   6.670   8.757 -0.0182  0.2458 -0.0326
 2998W        W 7062   6.312   5.845   0.240 -0.1450 -0.0951  0.1873
 2999W        W 7063   1.963   1.626   3.209  0.4498 -0.1194 -0.0621
 3000W        W 7064   5.519   7.959   2.745  0.0209 -0.0352 -0.2467
 3001W        W 7065  10.304   5.233   8.213  0.3116 -0.0280  0.2971
 3002W        W 7066   9.862   9.794   7.893  0.0693  0.0939 -0.0939
 3003W        W 7067  10.381   1.850   1.018 -0.2720 -0.1230 -0.0001
 3004W        W 7068   6.912   8.106   7.556  0.0903  0.0156 -0.2375
 3005W        W 7069   8.420   0.094   9.955 -0.0457  0.0821 -0.2111
 3006W        W 7070   5.503  10.888   7.711 -0.0451 -0.1526  0.1094
 3007W        W 7071   5.203   6.523   3.201 -0.0504  0.0938  0.3476
 3008W        W 7072   6.468   8.830   1.669  0.1176  0.1455 -0.0097
 3009W        W 7073   1.038   9.782   2.021  0.1238 -0.0289  0.2499
 3010W        W 7074   9.950   8.406   7.783  0.1953 -0.1338  0.0514
 3011W        W 7075   1.782   7.361   8.085  0.2967  0.1115  0.0494
 3012W        W 7076   3.411   6.031   9.537 -0.2237  0.1070 -0.1258
 3013W        W 7077   3.173  10.056   0.098  0.4392  0.1863  0.1488
 3014W        W 7078   7.861   8.392   2.603  0.2967  0.0172 -0.1649
 3015W        W 7079   6.148  10.131   0.727 -0.2794  0.2135 -0.0014
 3016W        W 7080   7.391   3.083   9.372  0.2928  0.0228  0.0935
 3017W        W 7081   9.513   7.138   0.780 -0.0559 -0.1802  0.1897
 3018W        W 7082   6.876   6.845   3.745  0.2183 -0.1509 -0.2565
 3019W        W 7083   6.238   8.192  10.795  0.0084 -0.1721 -0.2820
 3020W        W 7084  10.439   6.441   2.196  0.3125 -0.1319  0.1482
 3021W        W 7085   3.770   9.187   2.911  0.3750  0.2427  0.0535
 3022W        W 7086   6.204   9.680   1.438 -0.1186 -0.2354 -0.0316
 3023W        W 7087   0.732   5.381  10.790 -0.3118  0.3875  0.0733
 3024W        W 7088   4.720   2.389   8.301 -0.0695 -0.0603  0.0686
 3025W        W 7089   1.550   5.656  10.142  0.1124  0.1042  0.2041
 3026W        W 7090  10.264   9.179   9.104 -0.0338  0.0379 -0.1005
 3027W        W 7091   4.171   2.115   8.245 -0.3394 -0.1869  0.2457
 3028W        W 7092   7.999  10.589   7.919 -0.1950 -0.0172  0.1097
 3029W        W 7093   8.342   2.648  10.297 -0.0244 -0.2544 -0.0333
 3030W        W 7094   5.037   6.009   2.042  0.4158 -0.0558 -0.4310
 3031W        W 7095   6.388  10.082   1.616 -0.1647  0.1080  0.0988
 3032W        W 7096   1.468   3.344   0.006  0.0793 -0.1643 -0.3479
 3033W        W 7097   7.407   6.982   1.462 -0.0276 -0.1269  0.0009
 3034W        W 7098   0.651   0.295   0.036 -0.2399  0.1539  0.2280
 3035W        W 7099   5.424   8.316   2.045 -0.0453  0.3238  0.0779
 3036W        W 7100   7.711   9.228   1.909 -0.0864 -0.0696  0.0778
 3037W        W 7101   3.915   8.828  11.034 -0.2904  0.0679  0.2370
 3038W        W 7102   0.318   6.007   9.968 -0.0981 -0.1906  0.1594
 3039W        W 7103   9.162   4.033   0.621  0.0551 -0.4941  0.4274
 3040W        W 7104   7.117   6.167   2.156 -0.4218  0.1297  0.2214
 3041W        W 7105   2.520   8.374   2.292  0.0120 -0.2274 -0.2723
 3042W        W 7106   9.675   9.295  10.417  0.1789 -0.1244 -0.1574
 3043W        W 7107   3.929   2.010   2.150 -0.2031  0.1860 -0.0463
 3044W        W 7108   6.566   5.795   8.830  0.0926 -0.1236 -0.1840
 3045W        W 7109  10.570   3.521   1.723 -0.4903  0.1092  0.1519
 3046W        W 7110   9.145   6.744   9.184 -0.3480 -0.0146 -0.3836
 3047W        W 7111   5.625  10.443   2.663  0.0044  0.1077 -0.0835
 3048W        W 7112   2.669   7.493   9.609  0.1728 -0.0216 -0.1944
 3049W        W 7113   4.575   1.601   3.020 -0.0398 -0.1212 -0.0015
 3050W        W 7114   7.620  10.290  10.824  0.1077 -0.0923  0.2753
 3051W        W 7115   5.350   4.826   3.896  0.1820 -0.0773  0.0369
 3052W        W 7116   9.547   2.274   0.625 -0.2192 -0.2675 -0.2697
 3053W        W 7117   3.597   3.839   9.433  0.0539 -0.5085 -0.1524
 3054W        W 7118   9.298   2.392   2.438 -0.1837  0.3104  0.0734
 3055W        W 7119   1.839   2.104   3.212  0.0062  0.1681 -0.1251
 3056W        W 7120  10.872   4.958   8.396  0.0658 -0.0207 -0.4174
 3057W        W 7121  10.687   0.842   2.378 -0.2980  0.0037  0.1409
 3058W        W 7122   1.712   8.559   1.643 -0.0130 -0.1749  0.1872
 3059W        W 7123   4.797   0.681   0.543  0.0216 -0.1078  0.0041
 3060W        W 7124   5.766   2.245   1.683 -0.0986 -0.1393  0.0076
 3061W        W 7125   6.867   4.237   1.118  0.0430 -0.1653 -0.2435
 3062W        W 7126   2.189   3.835   0.376 -0.3253  0.1319 -0.1869
 3063W        W 7127   9.127  10.068   8.283 -0.1993 -0.0486 -0.1481
 3064W        W 7128   2.954   5.442   8.188 -0.0392  0.1869  0.0291
 3065W        W 7129  10.033   3.418   9.556  0.1739  0.0509 -0.1624
 3066W        W 7130  10.010   1.537   9.637  0.1126  0.0041  0.1278
 3067W        W 7131   2.594   1.880   7.800 -0.1116 -0.0615  0.0385
 3068W        W 7132   8.412   9.130   7.588 -0.2308 -0.0418 -0.1852
 3069W        W 7133   8.907   0.091   0.680  0.5519 -0.0551 -0.0009
 3070W        W 7134   8.042   7.187   8.865  0.2794  0.1412  0.0196
 3071W        W 7135   9.732   7.698   8.339  0.1471  0.3430  0.0687
 3072W        W 7136   6.882   0.725   9.249 -0.0360 -0.4263 -0.2057
 3073W        W 7137   2.382  10.101   8.871  0.3399 -0.0359 -0.1444
 3074W        W 7138   0.798   3.821   1.514  0.3429  0.1206 -0.2577
 3075W        W 7139   6.236   4.233   8.347  0.1768 -0.0936  0.0494
 3076W        W 7140   9.866   6.078  10.722  0.0476 -0.0570 -0.0463
 3077W        W 7141   7.804   3.461  11.001 -0.2050  0.0564  0.0329
 3078W        W 7142   2.556   6.385   2.961  0.2456  0.1638  0.0927
 3079W        W 7143   6.002   1.936   3.704  0.0229  0.1522 -0.1063
 3080W        W 7144   5.698   6.773   2.563 -0.1603 -0.0819 -0.0390
 3081W        W 7145   8.383  10.324   8.165 -0.2675  0.0064 -0.1595
 3082W        W 7146   0.024   6.101   2.108 -0.1619 -0.1144  0.0377
 3083W        W 7147   1.752  10.691   9.048 -0.2540 -0.1135  0.0192
 3084W        W 7148   5.085   6.849   2.841 -0.1647 -0.6566  0.3031
 3085W        W 7149   3.723   2.974   9.078  0.2774 -0.1068  0.1677
 3086W        W 7150   9.412  10.490   0.330 -0.2490  0.3243 -0.0309
 3087W        W 7151   0.966   7.688  10.195 -0.2299  0.1722 -0.0619
 3088W        W 7152   3.050   2.064  10.661  0.1897  0.1383 -0.0802
 3089W        W 7153   8.102   0.912  10.860  0.2718  0.0142  0.0732
 3090W        W 7154   5.608   6.167   1.762 -0.2147 -0.0446 -0.1463
 3091W        W 7155   4.804   8.474   0.450 -0.4279 -0.3941 -0.0375
 3092W        W 7156   3.691   7.016  10.783  0.2640 -0.0482 -0.2051
 3093W        W 7157   0.534   0.093  10.666  0.1903 -0.0722  0.0463
 3094W        W 7158   1.778  10.640  10.262  0.1107  0.3881 -0.3041
 3095W        W 7159   5.189   6.764   0.074 -0.3043 -0.1250 -0.0210
 3096W        W 7160   1.766   7.483   9.763  0.0346  0.0701 -0.1371
 3097W        W 7161   6.075   5.787   0.923  0.0970 -0.0809 -0.1986
 3098W        W 7162   4.695   0.622   8.902 -0.1724  0.3922  0.1197
 3099W        W 7163   6.444   8.641  10.506 -0.2319 -0.0354  0.1360
 3100W        W 7164   7.683   6.871   9.198  0.0304  0.1059 -0.2295
 3101W        W 7165   1.404   1.308  10.514 -0.0958 -0.4146  0.3380
 3102W        W 7166   8.614   9.807   7.634  0.0761 -0.0957 -0.0047
 3103W        W 7167   2.840   0.641  10.930  0.0095  0.2976  0.1012
 3104W        W 7168   6.256   9.190   2.628  0.4185 -0.0672 -0.1501
 3105W        W 7169   9.813   6.271   7.429 -0.1725 -0.2813  0.0926
 3106W        W 7170   3.812   3.469   0.988  0.1104  0.3269  0.1576
 3107W        W 7171   5.291   8.684   8.989 -0.3785  0.2538  0.1560
 3108W        W 7172   0.199   1.764   2.745 -0.1308 -0.4370 -0.2079
 3109W        W 7173   5.871   8.166   1.187  0.3293  0.1491  0.1770
 3110W        W 7174   8.432   5.580   2.227 -0.0013  0.0695  0.1232
 3111W        W 7175   4.882   7.615   8.092 -0.1194  0.1012 -0.2075
 3112W        W 7176   2.315   6.494   3.345  0.1366 -0.2905 -0.1473
 3113W        W 7177   0.518   8.739   9.452  0.2665  0.1383  0.1276
 3114W        W 7178   7.739   7.446   0.223 -0.1634  0.1426  0.0535
 3115W        W 7179   8.792   9.592   0.648 -0.1827  0.1238  0.2765
 3116W        W 7180   8.093   6.149   7.443  0.2011 -0.0343 -0.3026
 3117W        W 7181   7.723   6.372   9.173  0.0655 -0.2003  0.0493
 3118W        W 7182   0.178   2.350   3.100  0.1764 -0.0394 -0.1265
 3119W        W 7183   5.878   7.927   0.290 -0.0435  0.2977  0.1015
 3120W        W 7184   1.353   0.776   9.690  0.0807 -0.0477  0.0629
 3121W        W 7185   8.633   5.539   7.953 -0.2746  0.0544 -0.1048
 3122W        W 7186   6.335   1.245   7.640 -0.2313 -0.1971  0.0851
 3123W        W 7187   4.658   0.645   2.058 -0.1416 -0.1387 -0.1167
 3124W        W 7188   3.566  10.757   7.991 -0.2183 -0.1430  0.0099
 3125W        W 7189  10.591   0.090   1.621  0.1322  0.1232 -0.1066
 3126W        W 7190   5.683   5.195   2.354 -0.3401  0.2322 -0.1310
 3127W        W 7191   7.449   5.897   2.766  0.2320  0.0697 -0.3070
 3128W        W 7192   6.616   4.200   9.790  0.1287 -0.0585  0.0425
 3129W        W 7193   3.557   2.391   0.173 -0.1741  0.3922  0.4136
 3130W        W 7194   6.427   0.094  10.372  0.0432 -0.0162  0.0117
 3131W        W 7195   6.315   6.670   8.767 -0.1167  0.2138  0.1860
 3132W        W 7196   7.306   6.302   3.013 -0.1393  0.2162  0.2036
 3133W        W 7197   0.566   3.203   0.438  0.1598 -0.0986  0.0988
 3134W        W 7198   1.669   6.953   9.818  0.1204  0.1982  0.2105
 3135W        W 7199   5.632   4.602   2.973  0.0011 -0.1815 -0.1068
 3136W        W 7200   8.286   1.573   4.077  0.0506  0.0414 -0.0266
 3137W        W 7201   9.997   6.807   8.296 -0.2705  0.1127  0.1892
 3138W        W 7202   4.671   6.884   0.534  0.0489 -0.0807 -0.2133
 3139W        W 7203  10.240   9.687   1.916  0.2889  0.1845 -0.0216
 3140W        W 7204   0.796   5.787   3.054 -0.3647 -0.2334  0.2479
 3141W        W 7205   5.469   2.037   3.116 -0.0209  0.1657 -0.2191
 3142W        W 7206   0.703   2.725   1.080 -0.0161 -0.0378  0.0619
 3143W        W 7207   8.725   3.452   8.205  0.1630  0.0870  0.2075
 3144W        W 7208   6.272   4.574   8.732  0.0284 -0.0364 -0.1019
 3145W        W 7209   3.774   5.488   9.552 -0.2888  0.0187 -0.0031
 3146W        W 7210   7.297   6.574   2.372  0.3519 -0.1143  0.3346
 3147W        W 7211   9.183   1.157   2.905 -0.2007  0.0279 -0.2033
 3148W        W 7212   7.059   3.067   0.547  0.2539  0.1175  0.0970
 3149W        W 7213   4.363   8.020   1.214  0.0146 -0.0376  0.1440
 3150W        W 7214   7.624   9.271   8.727 -0.2290 -0.4389 -0.3128
 3151W        W 7215   0.107   5.893   0.722 -0.4077 -0.2939 -0.3290
 3152W        W 7216   2.049   3.116   1.705  0.2338  0.1912 -0.2827
 3153W        W 7217   9.612   5.372   3.398  0.2061  0.0857 -0.2459
 3154W        W 7218   6.919   7.238   1.360 -0.3391  0.0874 -0.1349
 3155W        W 7219   1.692   7.181   9.387  0.1074 -0.0144 -0.1413
 3156W        W 7220   3.421  10.390   3.148 -0.1567 -0.0047 -0.2421
 3157W        W 7221   5.820   9.438   2.750  0.1434 -0.1230 -0.1708
 3158W        W 7222   1.482  10.466   9.461  0.1216 -0.0893 -0.0036
 3159W        W 7223   9.908   2.879   7.219  0.0909 -0.1720  0.2579
 3160W        W 7224   6.525   2.971  10.965 -0.0842  0.0658  0.0811
 3161W        W 7225   2.220  10.816  10.517  0.3829  0.0434 -0.2014
 3162W        W 7226   1.080   5.630  11.028 -0.3637  0.1561 -0.1454
 3163W        W 7227   8.415   2.450   3.090  0.1077 -0.1847  0.1341
 3164W        W 7228   8.742   5.754   4.006  0.1156 -0.0427  0.1048
 3165W        W 7229   9.556   7.894  10.312 -0.1790 -0.1938  0.1738
 3166W        W 7230   6.727   1.045  10.281  0.1891 -0.1817  0.2110
 3167W        W 7231   9.520   0.794  10.505  0.2090  0.2009 -0.1664
 3168W        W 7232   3.526   8.060   1.684  0.2322  0.2518  0.0599
 3169W        W 7233   0.008   3.851  10.131 -0.1727  0.3123  0.1587
 3170W        W 7234   2.385   5.819  10.866 -0.2721  0.1550 -0.0305
 3171W        W 7235   0.948   4.270   2.488 -0.2423 -0.2242 -0.2225
 3172W        W 7236   1.390   2.385   0.720 -0.2622  0.0211  0.3972
 3173W        W 7237   9.385  10.510   1.463  0.0076 -0.1784  0.0583
 3174W        W 7238   9.360   6.158   9.552  0.0014 -0.1235  0.2646
 3175W        W 7239   4.244   1.142  10.198  0.1715 -0.0854  0.2385
 3176W        W 7240   8.014   4.722   2.568  0.0878 -0.1778 -0.2188
 3177W        W 7241   9.122   4.030   2.127  0.3248  0.0595 -0.0331
 3178W        W 7242   0.450   0.528   8.860 -0.1611 -0.1059 -0.2071
 3179W        W 7243  10.840   9.493   0.956  0.0722 -0.1012 -0.2050
 3180W        W 7244  10.006  10.564   3.389 -0.0786  0.1743 -0.3080
 3181W        W 7245  10.327   1.253   1.152 -0.1668  0.0628 -0.2142
 3182W        W 7246   6.136   3.989  10.263 -0.0155 -0.0802  0.1749
 3183W        W 7247   3.825   9.259   8.164  0.0262 -0.0150 -0.2917
 3184W        W 7248   8.008   0.003   2.065 -0.0739  0.2567  0.0191
 3185W        W 7249   4.674  10.820   3.037 -0.0024  0.1836  0.2299
 3186W        W 7250   3.086   0.367  10.587 -0.0059  0.2348  0.0362
 3187W        W 7251   6.389   9.342   9.222 -0.4555  0.0352 -0.1454
 3188W        W 7252   5.016   9.088   1.751  0.0522 -0.2347 -0.2164
 3189W        W 7253  10.816   4.317   2.275  0.1748 -0.0042  0.1154
 3190W        W 7254  10.547   9.918   8.507  0.2301 -0.0650 -0.0501
 3191W        W 7255  10.291   6.301   0.595 -0.3011 -0.1039 -0.0268
 3192W        W 7256   5.144  10.396   8.428  0.1231  0.0561 -0.1177
 3193W        W 7257   5.806   5.204   1.774 -0.1392 -0.0867  0.0185
 3194W        W 7258   0.654   1.878   1.803 -0.1580 -0.1274 -0.1982
 3195W        W 7259   6.792   6.646   8.315  0.3185  0.1524 -0.0390
 3196W        W 7260   7.476   1.120   9.679  0.1625  0.0864  0.3916
 3197W        W 7261  10.759  10.489   0.774  0.0066  0.3322  0.2196
 3198W        W 7262   7.287   2.559   3.837 -0.3036  0.1290  0.1185
 3199W        W 7263   9.442   0.994   7.531  0.1915  0.3098 -0.1269
 3200W        W 7264   4.680   2.562   2.869 -0.3581 -0.0870 -0.1219
 3201W        W 7265   6.125   7.302   9.797 -0.1636  0.0130  0.2226
 3202W        W 7266   4.669   3.095   2.158 -0.0184  0.0229  0.0426
 3203W        W 7267   0.392   2.810   9.527  0.6948 -0.0179 -0.0731
 3204W        W 7268   4.197   6.730  10.816  0.2331  0.0937 -0.0487
 3205W        W 7269   3.984   3.937   8.788  0.0570 -0.3252  0.0617
 3206W        W 7270   3.266   3.566   3.444  0.4800  0.2991 -0.0367
 3207W        W 7271   9.978   6.070   7.897 -0.3287  0.1485 -0.1194
 3208W        W 7272   4.013   7.256   0.321  0.0805 -0.0003 -0.3058
 3209W        W 7273   5.468   2.811   7.771  0.0540 -0.3053 -0.0662
 3210W        W 7274   6.917   2.246   1.456  0.1440  0.2517 -0.0836
 3211W        W 7275   4.592   0.134   7.939 -0.0908 -0.0222  0.1861
 3212W        W 7276  10.632   4.353   8.711  0.2164 -0.2971  0.1536
 3213W        W 7277   2.202   1.034   0.581 -0.1250  0.1654 -0.2471
 3214W        W 7278   6.460   4.809   2.972 -0.1427  0.3668  0.1576
 3215W        W 7279   1.069   5.645  10.457 -0.0899 -0.0877 -0.5192
 3216W        W 7280   7.543   2.689   2.380 -0.0286  0.0473 -0.2817
 3217W        W 7281   7.593   0.040   2.431  0.0518 -0.1054  0.0489
 3218W        W 7282   5.641   9.662   1.578  0.0433  0.0663 -0.1606
 3219W        W 7283   7.226   8.362   1.698  0.0090 -0.0631  0.2529
 3220W        W 7284   0.783   4.561   2.928  0.3859  0.1032  0.1906
 3221W        W 7285   9.163   4.368   2.475  0.0264  0.0027 -0.1151
 3222W        W 7286   9.622   0.610   3.963  0.0922  0.0513 -0.1548
 3223W        W 7287   4.535   1.902   3.510 -0.0897  0.1300 -0.0573
 3224W        W 7288   6.850   1.794   1.176  0.1435 -0.0245 -0.1505
 3225W        W 7289   3.212   8.627   9.949  0.0928  0.1152 -0.2322
 3226W        W 7290   7.635   5.928   3.335 -0.1571  0.1188 -0.2059
 3227W        W 7291   1.768   6.705   9.401 -0.1959  0.0294 -0.0362
 3228W        W 7292   3.329   8.357   2.120 -0.0490  0.4362 -0.0448
 3229W        W 7293   0.317   7.078   0.079 -0.2641  0.1064 -0.0731
 3230W        W 7294   3.491   1.389  10.579 -0.0439  0.1885 -0.0098
 3231W        W 7295  10.163   0.469   3.236  0.1684  0.2514 -0.0572
 3232W        W 7296   2.348   1.752   1.546  0.2543  0.2598  0.1807
 3233W        W 7297   9.141   0.559   1.852 -0.0434 -0.2887 -0.1659
 3234W        W 7298   4.421   8.510   3.999 -0.0331 -0.0075 -0.0874
 3235W        W 7299   6.824  10.176   1.354 -0.1836 -0.1249 -0.0811
 3236W        W 7300   4.321   2.441  10.733  0.1565  0.2778 -0.1581
 3237W        W 7301   2.008   7.879   4.291 -0.0427 -0.1764 -0.1979
 3238W        W 7302   5.797   0.588   9.745  0.0128  0.0790 -0.0027
 3239W        W 7303  10.259   0.464   7.652 -0.0264  0.0240  0.1220
 3240W        W 7304   9.962   7.128   3.434  0.2107  0.0673 -0.0053
 3241W        W 7305   9.558   6.786   7.385  0.0749 -0.1677  0.2824
 3242W        W 7306   2.335   7.183   3.323  0.0553 -0.0153 -0.1297
 3243W        W 7307   7.307   5.164   2.228  0.0463  0.5123 -0.1495
 3244W        W 7308   6.750   5.235   2.969  0.1429  0.0779  0.2038
 3245W        W 7309   4.002   6.699   2.670 -0.0109 -0.2931  0.1866
 3246W        W 7310   9.993   0.262   9.114 -0.1490 -0.1485 -0.0284
 3247W        W 7311   8.444   2.529   9.825 -0.0284 -0.1734  0.3264
 3248W        W 7312   6.903   1.723   1.702 -0.2676 -0.0389  0.0999
 3249W        W 7313   0.921   1.887   2.703  0.2311 -0.2118  0.3244
 3250W        W 7314  10.177   4.191   8.916 -0.0378 -0.1776  0.1368
 3251W        W 7315   2.958   4.028  10.088 -0.2339  0.1614  0.1129
 3252W        W 7316  10.238   2.597   0.115  0.1846  0.2311 -0.0845
 3253W        W 7317  10.896   2.068   1.695 -0.3571 -0.0387 -0.2014
 3254W        W 7318   8.385   6.562   1.852 -0.2638  0.0375 -0.1579
 3255W        W 7319   8.932   0.429   9.845 -0.2439  0.0604  0.0420
 3256W        W 7320   5.171   5.904   2.513  0.1720  0.3310 -0.1069
 3257W        W 7321   2.758   6.591   7.670  0.1773  0.1031 -0.1025
 3258W        W 7322   4.397   4.236   3.208  0.0132  0.3315 -0.2494
 3259W        W 7323   0.425   5.438   0.795 -0.3780 -0.1144 -0.2863
 3260W        W 7324   8.342   2.258   1.542 -0.0561 -0.2504  0.2127
 3261W        W 7325   1.925   2.986   8.269  0.2077  0.0573  0.0306
 3262W        W 7326   8.733   8.152   7.358 -0.1392  0.0666  0.1795
 3263W        W 7327   7.225  10.160   2.261 -0.1815  0.3606 -0.2438
 3264W        W 7328   3.307   6.674   8.465 -0.1288  0.0347  0.2295
 3265W        W 7329   7.155   1.595   8.873  0.2022  0.1586  0.0460
 3266W        W 7330   0.394   1.006   8.946  0.0899  0.1225  0.1939
 3267W        W 7331   0.960   4.660   1.011 -0.1994 -0.0200 -0.0014
 3268W        W 7332   0.057   0.670   0.013 -0.1272  0.1863 -0.0225
 3269W        W 7333   9.131   0.718   9.041 -0.2212 -0.1337  0.0782
 3270W        W 7334   2.220   4.304   0.561 -0.1898  0.0630  0.0675
 3271W        W 7335  10.671   5.387   0.688 -0.0853 -0.0941  0.2373
 3272W        W 7336   3.168  10.135   2.339 -0.1672  0.1538  0.2732
 3273W        W 7337   4.507   6.731  10.401  0.0859  0.2459  0.0922
 3274W        W 7338   7.317   8.739   2.027  0.0446 -0.0015 -0.0114
 3275W        W 7339   3.625   7.456   0.051  0.0385 -0.2145  0.1030
 3276W        W 7340   2.533   3.388   1.227  0.2949 -0.2519  0.1761
 3277W        W 7341   0.616  10.006   8.054 -0.0056  0.0543  0.3730
 3278W        W 7342   1.129   2.707   8.483  0.1573  0.1884  0.1736
 3279W        W 7343   9.594   2.786   9.733  0.2780 -0.3576 -0.1987
 3280W        W 7344   9.461   1.703   3.602 -0.1645 -0.1990 -0.1130
 3281W        W 7345   0.231   4.628   3.663  0.0296  0.0803 -0.0419
 3282W        W 7346   8.847   4.623   9.148  0.0191 -0.0374  0.3091
 3283W        W 7347   0.016   2.351   2.128 -0.1650  0.0003  0.2867
 3284W        W 7348   0.331   3.159   2.522 -0.2683 -0.1973 -0.1430
 3285W        W 7349   3.800  10.656   0.229 -0.0017 -0.2887 -0.0191
 3286W        W 7350  10.582   1.025  11.050 -0.2201  0.1602  0.1174
 3287W        W 7351   8.816   5.430   0.023  0.0095  0.1981 -0.3565
 3288W        W 7352   9.869   9.234   3.704  0.0263 -0.0687  0.0359
 3289W        W 7353   3.662   9.010  10.630  0.1683 -0.0526  0.1828
 3290W        W 7354   6.459  10.250   2.866  0.2770 -0.1041  0.0406
 3291W        W 7355   5.921   9.236   1.459  0.1592  0.1218  0.3748
 3292W        W 7356   2.193   2.869  10.207 -0.0395 -0.4706 -0.2129
 3293W        W 7357   3.912   2.538   2.298  0.4857 -0.1615  0.0857
 3294W        W 7358   8.968   0.240   9.374  0.0256 -0.0110 -0.2185
 3295W        W 7359   3.120   8.567   0.728  0.0518 -0.1683 -0.1095
 3296W        W 7360   0.045   5.357   8.964  0.0781  0.0259  0.1128
 3297W        W 7361   0.254   8.331   0.893  0.1191  0.0340  0.1773
 3298W        W 7362   8.268   9.247   1.802  0.0970 -0.1641  0.3241
 3299W        W 7363   5.909   8.479   6.884  0.1456 -0.0993  0.1054
 3300W        W 7364   9.790   5.174   1.918 -0.0789  0.1913  0.1416
 3301W        W 7365   3.492   2.739   2.722 -0.1818 -0.0424  0.0482
 3302W        W 7366   6.062   3.832   2.140 -0.0233 -0.2433  0.1197
 3303W        W 7367   5.736   9.720  10.956 -0.0767  0.2579 -0.0645
 3304W        W 7368   4.801   1.091   1.698 -0.3257 -0.1989 -0.0667
 3305W        W 7369   5.298  10.729   1.804  0.1526  0.2641  0.1445
 3306W        W 7370   3.460   7.868   3.876  0.0783  0.3165  0.1702
 3307W        W 7371   5.061   8.180   0.169  0.2838 -0.0087 -0.2351
 3308W        W 7372   0.542   1.144  11.020 -0.0017 -0.0617  0.1060
 3309W        W 7373   8.816   7.668   7.403  0.1651 -0.1949 -0.1046
 3310W        W 7374   3.623   9.967   3.328 -0.0399 -0.0062  0.2508
 3311W        W 7375   4.753   9.952   9.695  0.2765  0.0137  0.3357
 3312W        W 7376   2.295  10.378   0.655 -0.1617  0.3100 -0.2579
 3313W        W 7377   1.712   5.329   8.911  0.3615 -0.1410 -0.0866
 3314W        W 7378   4.824   8.503   4.231 -0.1676 -0.2840 -0.1463
 3315W        W 7379   7.582   5.199   1.731 -0.2904 -0.1060 -0.0826
 3316W        W 7380   1.266   8.986  10.596 -0.5594 -0.0762  0.0307
 3317W        W 7381   6.990   8.552   2.438 -0.3619  0.4022  0.3444
 3318W        W 7382   2.520   7.533   2.121 -0.0243 -0.3846  0.1552
 3319W        W 7383   7.505   2.731   3.363 -0.0279  0.0462 -0.0308
 3320W        W 7384   5.227   6.336   1.539 -0.0160  0.0884  0.1810
 3321W        W 7385   7.920   3.817   2.413 -0.0306 -0.1607 -0.1293
 3322W        W 7386  10.758  10.706   9.404 -0.2649 -0.0335  0.0782
 3323W        W 7387   0.364   2.161   0.559 -0.0369 -0.0893 -0.1516
 3324W        W 7388   1.651   5.718   2.294 -0.0598 -0.0145  0.1002
 3325W        W 7389   7.678   1.345  10.512 -0.2598 -0.0111  0.0949
 3326W        W 7390   8.198   6.566   1.250  0.1201 -0.0479 -0.0675
 3327W        W 7391  10.339  10.672   0.079 -0.1867  0.0465 -0.2160
 3328W        W 7392   6.990   7.305  10.004 -0.1767  0.0290 -0.3804
 3329W        W 7393   6.277  10.426   0.293 -0.1878 -0.0163 -0.0571
 3330W        W 7394   5.391   2.513   1.758  0.1899  0.0410  0.1972
 3331W        W 7395   6.611   8.598   8.242  0.1338  0.1917 -0.0378
 3332W        W 7396   4.420   1.025   8.935 -0.1270  0.0987  0.3840
 3333W        W 7397   0.125   3.565   3.790 -0.0234 -0.0529 -0.2294
 3334W        W 7398   0.517   4.117   0.494 -0.2048 -0.0846  0.2054
 3335W        W 7399   5.576   8.301   0.443  0.0357  0.3452  0.1544
 3336W        W 7400   1.015   4.231   0.727 -0.0956 -0.1391  0.1148
 3337W        W 7401   1.725   9.046   7.054  0.2663  0.1078 -0.0559
 3338W        W 7402   9.065   8.530   9.523 -0.0130 -0.1973  0.0363
 3339W        W 7403   8.252   7.966  10.603 -0.0007 -0.0237  0.1724
 3340W        W 7404   6.255   7.779  10.012  0.0668 -0.2758 -0.0445
 3341W        W 7405  10.031   1.495   0.860  0.0841  0.0207  0.2044
 3342W        W 7406   8.878   8.436   1.830  0.0982  0.1994 -0.1123
 3343W        W 7407   7.783   5.301  10.176 -0.1913 -0.0511 -0.3212
 3344W        W 7408   9.858   0.623   7.965 -0.0857 -0.2384  0.3202
 3345W        W 7409   0.230   5.381   0.349 -0.1441 -0.1478  0.0386
 3346W        W 7410   6.736  10.264   9.698  0.0825 -0.0448  0.0228
 3347W        W 7411   1.388   4.166   2.322 -0.2071  0.2726  0.2093
 3348W        W 7412  10.849   9.842   1.338  0.1873  0.0488 -0.2361
 3349W        W 7413  10.740   2.026  10.503 -0.0059 -0.0899  0.0228
 3350W        W 7414   9.979   9.147  10.055 -0.3941  0.1458  0.1826
 3351W        W 7415   2.230   2.796   2.043 -0.1995  0.4059  0.0070
 3352W        W 7416   7.559   4.258   0.753  0.1193  0.0749  0.0265
 3353W        W 7417  10.629   1.588   1.410 -0.1959 -0.1801  0.0487
 3354W        W 7418   2.548  10.035   2.492 -0.2747  0.0502  0.4426
 3355W        W 7419   4.139   4.761   2.740  0.2948 -0.4673  0.0518
 3356W        W 7420   7.886  10.198   1.763  0.0605 -0.2211  0.1121
 3357W        W 7421  10.413   7.729   9.895  0.0546  0.3058  0.0961
 3358W        W 7422   8.511   5.497   1.694  0.2136  0.3382  0.0349
 3359W        W 7423   6.111   5.800   9.129 -0.1444  0.0148  0.1150
 3360W        W 7424   6.169   6.174   8.684  0.2058  0.1943  0.3944
 3361W        W 7425   2.538   9.472  10.105 -0.1145  0.1704 -0.2711
 3362W        W 7426   9.576   3.782   1.649  0.1153 -0.0402  0.1633
 3363W        W 7427   5.179   6.070   3.025 -0.1417  0.0654 -0.0499
 3364W        W 7428   0.923  10.701   3.109 -0.4233 -0.0925 -0.2012
 3365W        W 7429   2.813   2.328   2.867  0.1019  0.3676 -0.0253
 3366W        W 7430   8.085   5.547  10.505 -0.1592 -0.2783  0.0080
 3367W        W 7431   1.010   7.137  10.350  0.2633  0.2521 -0.2059
 3368W        W 7432  10.669   8.004   2.235  0.0730 -0.1626 -0.2073
 3369W        W 7433  10.608   6.480  10.451  0.0936 -0.0678  0.2081
 3370W        W 7434   6.523   3.497   1.215 -0.1495 -0.1115 -0.1140
 3371W        W 7435   5.534   2.645   8.457 -0.2634  0.1665 -0.0600
 3372W        W 7436   0.573   8.133   9.315 -0.1818 -0.0621 -0.3036
 3373W        W 7437  10.043   8.983   8.471  0.0858 -0.0615 -0.1394
 3374W        W 7438   3.227   8.892   1.229 -0.1665  0.2879 -0.1104
 3375W        W 7439   2.113   0.193   7.331  0.1158  0.2351 -0.0621
 3376W        W 7440   5.922   8.482   2.245  0.0275  0.0877 -0.1513
 3377W        W 7441   7.026   8.494   7.824 -0.2543 -0.2054 -0.3603
 3378W        W 7442   6.684   9.637   1.276 -0.1749 -0.0028  0.2106
 3379W        W 7443   4.232   6.921   1.695 -0.4441 -0.1314 -0.0152
 3380W        W 7444   0.194   7.590   0.058 -0.0431  0.2465 -0.1792
 3381W        W 7445   4.270   0.091   2.708 -0.1757 -0.1557  0.3386
 3382W        W 7446   5.452   5.331   8.827  0.0255 -0.1352  0.2771
 3383W        W 7447   3.782   0.937   0.034 -0.4008  0.2440 -0.4017
 3384W        W 7448   5.015   5.326   2.461  0.3036  0.0766  0.0424
 3385W        W 7449   1.841  10.512   0.462  0.0023 -0.1107  0.1258
 3386W        W 7450  10.561   8.611   9.764  0.4007 -0.3152 -0.1056
 3387W        W 7451   5.796  10.577   0.213 -0.0772  0.1792 -0.3731
 3388W        W 7452   9.480   5.197   1.336 -0.2697 -0.1494  0.0746
 3389W        W 7453   0.913   6.824   9.074  0.0675  0.1762 -0.2531
 3390W        W 7454   1.185   3.584   1.804  0.2042  0.1389  0.0808
 3391W        W 7455   2.328  10.424   0.172 -0.5894  0.0583 -0.0249
 3392W        W 7456   2.630   4.388   7.353 -0.0542  0.3343  0.1316
 3393W        W 7457   0.499   1.707   2.288  0.0406  0.2041 -0.3290
 3394W        W 7458   7.253   2.630   0.535 -0.2507  0.2127  0.2001
 3395W        W 7459   6.719   4.096   9.251 -0.1639  0.2483 -0.1920
 3396W        W 7460   6.489   8.194  10.336  0.0460  0.0178  0.0983
 3397W        W 7461   4.453   4.030   8.649 -0.0947  0.1043  0.0479
 3398W        W 7462   5.953   4.468  10.180 -0.1218 -0.0175 -0.0465
 3399W        W 7463   8.547   7.489   8.302  0.0769  0.1146 -0.2587
 3400W        W 7464   3.263   6.691   0.680 -0.1090 -0.0232 -0.2727
 3401W        W 7465   3.731   1.105  10.156  0.0028  0.1337  0.1692
 3402W        W 7466   4.597   3.104   7.347 -0.3092 -0.1645 -0.0972
 3403W        W 7467   9.959   4.319   1.683  0.4988  0.0192  0.3591
 3404W        W 7468   1.723   7.351   7.284 -0.0912  0.2561  0.0117
 3405W        W 7469  10.895   0.574   0.603 -0.5444  0.3527 -0.1430
 3406W        W 7470   6.163   6.997  10.229 -0.0529  0.0021 -0.1166
 3407W        W 7471   2.345   2.354   2.666 -0.0736 -0.0127 -0.2528
 3408W        W 7472   6.417   6.734   9.257  0.0466  0.2324 -0.3150
 3409W        W 7473   2.348   6.855   3.001  0.1334  0.1067  0.0409
 3410W        W 7474   5.678   7.090   9.775 -0.1382 -0.0431 -0.1490
 3411W        W 7475   2.014  10.041   0.382 -0.1545 -0.1615  0.0788
 3412W        W 7476   8.148   5.238   1.946  0.0298  0.2103  0.4884
 3413W        W 7477   8.202   2.035   7.625  0.0594 -0.4004  0.0407
 3414W        W 7478   9.292   3.806   9.448  0.1807  0.0958  0.1865
 3415W        W 7479   1.188   4.402   8.168 -0.0643 -0.1829 -0.1668
 3416W        W 7480   0.402   7.108   7.679 -0.0454  0.3282  0.0109
 3417W        W 7481   1.971   7.586   8.469  0.0505 -0.1019 -0.3649
 3418W        W 7482   8.426   8.951   8.115 -0.1165 -0.1907 -0.2868
 3419W        W 7483   8.902   8.895   7.844  0.3236 -0.0378 -0.0111
 3420W        W 7484  10.055   4.232   2.954 -0.1179 -0.1160  0.1762
 3421W        W 7485   0.877   1.643   8.181 -0.0625  0.0052 -0.4374
 3422W        W 7486   4.610   7.258  10.599 -0.0505 -0.0440 -0.1186
 3423W        W 7487   7.610   5.559   9.772 -0.0932  0.3904  0.2130
 3424W        W 7488   0.496  10.515   8.288  0.0507 -0.0620  0.0848
 3425W        W 7489   1.875   2.557  10.453 -0.0899 -0.2494  0.1296
 3426W        W 7490   6.210   5.313   0.905 -0.3172  0.0031  0.2295
 3427W        W 7491   2.656   3.567   0.310  0.1576  0.1079  0.0003
 3428W        W 7492   1.126   3.781   8.752  0.1847  0.0041 -0.2206
 3429W        W 7493   6.130   8.756   2.804  0.2256  0.0783 -0.0590
 3430W        W 7494   6.097   5.436   3.532  0.0969 -0.0237  0.1349
 3431W        W 7495   4.680   5.249  10.850 -0.1014 -0.2208  0.0926
 3432W        W 7496   6.006   7.898  10.432  0.3287 -0.0101  0.2957
 3433W        W 7497   3.642   4.378   0.193  0.0717 -0.0582  0.4969
 3434W        W 7498   4.848   8.878   9.117 -0.0151 -0.1313  0.1930
 3435W        W 7499   2.938   5.417   2.625 -0.0788  0.1744  0.3055
 3436W        W 7500   2.736   5.546   9.271 -0.0800  0.2857  0.0172
 3437W        W 7501   0.882   7.427   3.716  0.4760  0.2678  0.1543
 3438W        W 7502   6.671  10.430  10.181 -0.0247 -0.1658  0.2110
 3439W        W 7503   8.712   7.534   9.668 -0.0061  0.1144  0.0243
 3440W        W 7504   1.608   9.432   8.188  0.1663 -0.3534  0.0694
 3441W        W 7505   7.906   7.253  10.816 -0.3034  0.2087 -0.0140
 3442W        W 7506   6.069   1.537   7.215 -0.0634 -0.4346  0.0177
 3443W        W 7507   8.466  10.743  10.914 -0.1057  0.2367  0.1310
 3444W        W 7508   2.610   9.211   8.445 -0.1935 -0.0707 -0.1034
 3445W        W 7509   7.846   9.742  10.207 -0.1270  0.3365 -0.0036
 3446W        W 7510   8.733   0.176   1.183 -0.1029  0.0249 -0.1023
 3447W        W 7511   1.418   3.474   9.096  0.0549  0.0162 -0.0887
 3448W        W 7512   4.309   5.431  10.535  0.5549 -0.1414 -0.3661
 3449W        W 7513   4.025   6.836   8.263  0.2525  0.0423 -0.1174
 3450W        W 7514   7.205   9.332   1.764  0.0007  0.0628 -0.4358
 3451W        W 7515   9.978   1.799   2.720 -0.0904  0.1461 -0.0013
 3452W        W 7516   7.353   6.800   8.162 -0.2630  0.1330 -0.2571
 3453W        W 7517   6.057   1.754   8.496  0.1119  0.5297  0.2035
 3454W        W 7518   4.560   7.118   2.040  0.0180 -0.1901  0.0768
 3455W        W 7519   8.622   9.403  10.572 -0.2967  0.2602 -0.1489
 3456W        W 7520   5.178   2.011   0.861 -0.3816  0.0611  0.0617
 3457W        W 7521  10.276   0.745   9.276  0.1421  0.1239  0.1339
 3458W        W 7522   8.190   4.807   3.085 -0.2140 -0.1620  0.1770
 3459W        W 7523   4.835  10.643  10.545  0.2080  0.0772 -0.1840
 3460W        W 7524   0.994   2.765   2.269 -0.0453 -0.0162  0.1610
 3461W        W 7525   4.698   0.072   8.689 -0.2754  0.0903  0.1480
 3462W        W 7526   0.278   0.757   2.498  0.1061  0.2043 -0.1921
 3463W        W 7527  10.577   9.765   7.635 -0.2366  0.2033  0.2701
 3464W        W 7528   0.971   3.677   9.284  0.0671  0.0601 -0.0281
 3465W        W 7529   5.030   2.860   8.305 -0.1892  0.1610 -0.0871
 3466W        W 7530  10.064   3.580   3.062  0.0926  0.1839  0.0873
 3467W        W 7531   0.761   9.345   8.381 -0.0659 -0.0238  0.0264
 3468W        W 7532   5.551   7.592   3.436 -0.0712 -0.1015  0.4451
 3469W        W 7533   3.194   7.850   9.448 -0.0854 -0.1405 -0.2002
 3470W        W 7534   2.710  10.904   8.981 -0.3051 -0.1899  0.1023
 3471W        W 7535   3.567   7.556   1.086 -0.0711 -0.1946  0.2342
 3472W        W 7536   8.696   1.798   7.334  0.0570  0.0721 -0.1045
 3473W        W 7537   4.576   5.822   0.356  0.1637  0.0472 -0.1060
 3474W        W 7538   0.443   2.727   2.352  0.0233  0.2648  0.2775
 3475W        W 7539   2.273   6.862   2.521  0.3999 -0.0722  0.1542
 3476W        W 7540   4.984   7.137   7.984  0.1585 -0.1195  0.0469
 3477W        W 7541   4.991   6.430   9.456 -0.1024 -0.0085  0.0039
 3478W        W 7542   8.298  10.337   3.021  0.0485 -0.2031 -0.0836
 3479W        W 7543   0.214   2.635   3.524  0.1989 -0.1259 -0.2842
 3480W        W 7544   2.897   9.462   9.040  0.0339  0.2265 -0.1248
 3481W        W 7545   9.899   8.276   1.419 -0.1340 -0.1173 -0.2290
 3482W        W 7546   1.919   5.112   8.450  0.2235 -0.1696 -0.0693
 3483W        W 7547   1.797   0.092   0.683  0.0562  0.3989 -0.1752
 3484W        W 7548   2.451   8.442  10.360  0.0096  0.1186  0.0613
 3485W        W 7549   8.685   0.966   1.825  0.0339  0.1232  0.2645
 3486W        W 7550   6.985   3.794   7.848 -0.1333  0.0419 -0.0435
 3487W        W 7551   9.783   9.640   3.006 -0.1864 -0.0714  0.1432
 3488W        W 7552   4.779   4.370  10.042 -0.1906  0.0268 -0.1726
 3489W        W 7553   9.538   9.041   8.495  0.0129  0.3346 -0.0017
 3490W        W 7554   8.914   2.552   9.560 -0.0445 -0.0092  0.2078
 3491W        W 7555   3.998   0.280   9.453  0.1312  0.3058 -0.0225
 3492W        W 7556   2.258  10.761   8.283  0.0990 -0.2755  0.0051
 3493W        W 7557  10.756   5.618   1.986  0.1572  0.3292  0.0199
 3494W        W 7558   3.646   0.617   2.712  0.1389 -0.0321 -0.0391
 3495W        W 7559  10.206   8.410   1.096 -0.0909 -0.2059  0.3537
 3496W        W 7560   5.967   2.254  10.279 -0.2998 -0.0043 -0.0319
 3497W        W 7561   4.076   7.407   8.373 -0.0079  0.2290 -0.1313
 3498W        W 7562   4.664   3.288  10.188  0.0097  0.0843 -0.1649
 3499W        W 7563   9.420   6.871   0.361  0.1377 -0.0196  0.1772
 3500W        W 7564   9.735  10.043   2.718 -0.1085  0.3251 -0.0072
 3501W        W 7565   3.670   0.161   0.720 -0.0430 -0.1002  0.1966
 3502W        W 7566   6.812   3.691   8.858 -0.3155 -0.0340 -0.0350
 3503W        W 7567   8.826   5.853   0.961  0.3158  0.1078 -0.0184
 3504W        W 7568   9.713   9.331   7.758 -0.3748  0.4370 -0.1902
 3505W        W 7569  10.706   0.558   7.928 -0.2014 -0.0071 -0.0558
 3506W        W 7570   1.162   9.100   2.283  0.0472 -0.1895  0.1259
 3507W        W 7571   4.455   2.236   4.467  0.4251  0.0977  0.2489
 3508W        W 7572   7.867   7.687   0.633  0.2390 -0.0427 -0.1669
 3509W        W 7573   2.093  10.135   3.248  0.0733 -0.3452 -0.0602
 3510W        W 7574   7.997  10.123  10.525  0.0275  0.4566  0.1100
 3511W        W 7575   2.676   5.489   0.732 -0.0859  0.1211  0.0979
 3512W        W 7576   6.789  10.013   2.488 -0.5284 -0.1310 -0.2262
 3513W        W 7577   7.302   7.271   2.882  0.2209  0.1466 -0.3252
 3514W        W 7578   7.707  10.079   2.223  0.0874 -0.0866 -0.4280
 3515W        W 7579   9.172  10.562   1.987 -0.2239 -0.5022 -0.3129
 3516W        W 7580  10.638  10.283  10.902 -0.2203 -0.2352  0.2688
 3517W        W 7581   5.037   1.928   1.431  0.0942  0.0128  0.2243
 3518W        W 7582   8.187   9.446  10.373 -0.0803  0.0968 -0.1860
 3519W        W 7583   1.468   3.654   0.391 -0.1177  0.1090  0.1006
 3520W        W 7584  10.373   7.246   7.492  0.2036 -0.1750  0.2084
 3521W        W 7585   7.429   7.410  10.657 -0.2547 -0.0335 -0.0208
 3522W        W 7586   7.248   5.732   0.109  0.1882 -0.1379 -0.0819
 3523W        W 7587   3.956   2.882  10.853 -0.2396 -0.1961  0.1507
 3524W        W 7588   0.743   7.329   0.221  0.6148 -0.0820 -0.0487
 3525W        W 7589  10.843  10.586   0.272  0.1476  0.1595 -0.1941
 3526W        W 7590   1.977   9.132   0.611 -0.0426  0.0726  0.3816
 3527W        W 7591   4.484   0.248   2.241 -0.1579 -0.2428 -0.0970
 3528W        W 7592   0.843   6.400  10.920  0.0010 -0.2079  0.0721
 3529W        W 7593   5.359   2.573   0.517 -0.0588 -0.1769 -0.1946
 3530W        W 7594   3.107   7.770   2.912 -0.2334  0.2656 -0.0238
 3531W        W 7595   9.545   3.704   9.859  0.1613 -0.1926 -0.0579
 3532W        W 7596   1.789   8.710   9.867  0.0900  0.0956 -0.0394
 3533W        W 7597   4.145   6.954   0.727 -0.1843 -0.1831  0.3626
 3534W        W 7598   2.561   8.983   1.749 -0.1531 -0.2175  0.0617
 3535W        W 7599   8.488   8.387   9.361  0.1237  0.0176 -0.2383
 3536W        W 7600   8.877   8.528   9.036  0.3423 -0.2615 -0.0375
 3537W        W 7601   2.287   7.426   2.577  0.1117 -0.2757 -0.0874
 3538W        W 7602   6.778   0.417   8.121 -0.2002 -0.1940  0.3777
 3539W        W 7603   6.135   7.033   3.023 -0.0126 -0.1513 -0.1773
 3540W        W 7604   9.467   3.947   8.415 -0.3730 -0.1859  0.0639
 3541W        W 7605   5.871   8.071   1.825 -0.0872  0.1099  0.0127
 3542W        W 7606   6.968   6.216   1.017  0.0264 -0.0592 -0.1281
 3543W        W 7607   5.394   7.824   0.259 -0.1945  0.0454  0.0358
 3544W        W 7608   5.111   7.509   9.287 -0.1886 -0.4660  0.3686
 3545W        W 7609   4.146   5.977   8.208 -0.5914 -0.0985 -0.1731
 3546W        W 7610   2.036   8.123   0.237  0.0102 -0.2341 -0.0794
 3547W        W 7611   3.082   5.607   1.504  0.0467  0.0438 -0.1017
 3548W        W 7612   2.430   3.271   9.504  0.0341  0.0133  0.1791
 3549W        W 7613   8.046   7.529   2.979 -0.3261  0.0358 -0.2110
 3550W        W 7614   3.703   7.348   3.374  0.1101 -0.1002 -0.1125
 3551W        W 7615   5.470   5.521  10.224  0.1526  0.0888  0.0509
 3552W        W 7616   4.819   0.566   1.591 -0.1399 -0.0214  0.1933
 3553W        W 7617   7.467   4.976   9.837 -0.0789  0.1657 -0.2289
 3554W        W 7618   7.691   0.889  10.341  0.1912  0.2371 -0.0796
 3555W        W 7619  10.348   7.412  10.801  0.0502  0.0860  0.2493
 3556W        W 7620   1.084   6.586   8.275 -0.3140  0.4065  0.0882
 3557W        W 7621   9.580   1.346   2.478 -0.1008  0.1176 -0.1204
 3558W        W 7622   5.582   9.325   9.744  0.1378 -0.1847  0.5387
 3559W        W 7623   8.794   8.021   8.941  0.1415  0.1550  0.1190
 3560W        W 7624   8.108   1.826   1.100  0.1364 -0.1033  0.0934
 3561W        W 7625   8.481   7.340   2.944  0.1288 -0.1390 -0.1394
 3562W        W 7626   6.821   5.003   8.663  0.2029  0.1895  0.0530
 3563W        W 7627   1.789   6.906   0.687  0.0770  0.1618 -0.0228
 3564W        W 7628   3.575   6.847   9.044  0.1328 -0.1158 -0.1098
 3565W        W 7629   3.832   3.509   3.289 -0.0965 -0.0847 -0.3423
 3566W        W 7630   1.832   0.703   8.552 -0.0431  0.2558  0.0612
 3567W        W 7631   6.765   2.943  10.497  0.0739 -0.1754  0.3111
 3568W        W 7632   4.639   1.009   0.216  0.1883  0.1417  0.1795
 3569W        W 7633   3.722   0.315   9.842  0.0352  0.0756 -0.0402
 3570W        W 7634   9.136   1.633  10.873 -0.1373 -0.2193  0.1933
 3571W        W 7635   3.752   1.758   9.734  0.1973  0.2306 -0.0734
 3572W        W 7636   3.168   8.217   1.130 -0.0168 -0.1242 -0.1661
 3573W        W 7637   2.020   7.833   2.899 -0.1548 -0.1131 -0.0455
 3574W        W 7638   8.314   1.964   0.624 -0.0468  0.1038  0.0932
 3575W        W 7639   8.669   8.493  10.768  0.0384 -0.0574 -0.1123
 3576W        W 7640   3.698   3.149   0.233 -0.1878  0.2552 -0.1179
 3577W        W 7641   2.517   3.963   3.842  0.0849  0.1338  0.0504
 3578W        W 7642   7.078   0.927   1.212  0.0996 -0.0599  0.1760
 3579W        W 7643   5.135   7.100  10.592 -0.4218 -0.1157  0.0609
 3580W        W 7644   7.560   0.497   3.267  0.1563 -0.0630  0.1542
 3581W        W 7645   5.209   4.146   9.366  0.0897  0.1486 -0.2346
 3582W        W 7646   9.178  10.074   2.538  0.0747 -0.3314  0.1322
 3583W        W 7647   0.066   1.357   8.081  0.3938 -0.2479 -0.0278
 3584W        W 7648   7.026   8.553   0.121 -0.0130 -0.0564 -0.0244
 3585W        W 7649   6.053   2.081   0.259  0.0831  0.0431  0.1537
 3586W        W 7650  10.034   4.536  10.767 -0.2262  0.1261 -0.0555
 3587W        W 7651   2.992   9.149   1.563 -0.1954 -0.1471  0.0389
 3588W        W 7652   4.140   1.670   8.457  0.2049 -0.0059 -0.1926
 3589W        W 7653   0.092   6.295   1.111  0.4218 -0.1680  0.0725
 3590W        W 7654   4.246   9.265   7.371  0.1955 -0.0251  0.0168
 3591W        W 7655   1.360  10.118   1.780  0.0591  0.1688  0.2156
 3592W        W 7656   8.777   4.574  10.291 -0.5040  0.2594 -0.0141
 3593W        W 7657   5.672   0.250   3.519  0.1922  0.3283  0.0551
 3594W        W 7658   0.532   7.610   1.849 -0.2428 -0.2734 -0.0471
 3595W        W 7659   7.566   3.563   9.465 -0.0235  0.2357  0.1356
 3596W        W 7660   5.736   5.992   9.453  0.0788 -0.1420  0.0287
 3597W        W 7661   7.684   8.257   7.181 -0.0392  0.1025  0.1794
 3598W        W 7662   2.815   5.345  10.415 -0.0665 -0.0928  0.2514
 3599W        W 7663   1.156   4.193  10.714  0.1053 -0.1546  0.2359
 3600W        W 7664   0.291   4.766   9.788 -0.0936  0.2501  0.1738
 3601W        W 7665   1.601   1.247   2.298  0.2287 -0.0618 -0.1222
 3602W        W 7666   4.484   8.164   0.172  0.1571 -0.1001  0.0416
 3603W        W 7667   4.649   0.929   2.684 -0.2132  0.0444  0.4734
 3604W        W 7668   3.924   5.008   1.783  0.1034  0.1406  0.0238
 3605W        W 7669   9.977   1.118   2.566 -0.0211 -0.2246  0.0949
 3606W        W 7670  10.776   6.354   0.646 -0.4222 -0.3907  0.1239
 3607W        W 7671  10.058   0.303   1.551  0.2273  0.1852 -0.0068
 3608W        W 7672   5.865   4.581   8.445  0.2640  0.1228  0.1278
 3609W        W 7673   8.648   5.454   9.372  0.2009  0.1897 -0.1414
 3610W        W 7674   9.259   8.115   8.643 -0.2277 -0.0085  0.1781
 3611W        W 7675   3.040   7.802  10.018 -0.0246 -0.1642 -0.0353
 3612W        W 7676  10.578   2.867   8.851 -0.0891  0.1321  0.1838
 3613W        W 7677  10.673   9.326   2.158 -0.2557 -0.1127  0.2055
 3614W        W 7678   2.208   6.759   9.197  0.0079 -0.1606 -0.0468
 3615W        W 7679   5.010   5.874   1.507  0.1296 -0.0500  0.2152
 3616W        W 7680   4.906   7.179   0.982  0.0064  0.2398  0.2055
 3617W        W 7681   5.817  10.391   1.705 -0.0536 -0.0557  0.3246
 3618W        W 7682   9.612   0.444   8.395  0.2337 -0.1599  0.0893
 3619W        W 7683   5.465   9.467   9.284 -0.3606 -0.0324 -0.1476
 3620W        W 7684   0.171   6.852   8.030 -0.0391  0.2020 -0.2332
 3621W        W 7685   1.482   7.108   3.149  0.2358 -0.3076  0.1439
 3622W        W 7686   8.654   3.821   1.780  0.0854 -0.2018 -0.2438
 3623W        W 7687   3.613   3.832   8.468 -0.3427  0.0677  0.0486
 3624W        W 7688   8.671   8.665   1.406 -0.2216 -0.1951 -0.2527
 3625W        W 7689   7.602   0.344   0.575  0.2380  0.0252  0.1887
 3626W        W 7690  10.364   2.013   0.195  0.1557 -0.0224 -0.1379
 3627W        W 7691   8.001   1.398   2.074 -0.1980 -0.0689  0.0313
 3628W        W 7692   4.394   7.115  11.053  0.0711 -0.0364  0.0717
 3629W        W 7693   7.030   7.865   9.602  0.0873 -0.4945 -0.3111
 3630W        W 7694   3.922   0.586   2.230 -0.1971  0.0339  0.2011
 3631W        W 7695   9.208   3.689   2.760 -0.1529 -0.0791  0.3359
 3632W        W 7696   7.715   8.643   3.013  0.2325 -0.1120 -0.0133
 3633W        W 7697   3.906   6.618   8.769 -0.1551 -0.3468  0.3218
 3634W        W 7698   6.224   1.717   2.254 -0.1364 -0.2237 -0.0812
 3635W        W 7699   9.321   9.819  10.100  0.0271  0.1092 -0.0390
 3636W        W 7700   7.381   1.168   9.096 -0.1165  0.3483  0.2030
 3637W        W 7701   1.472   1.913   2.894  0.2661 -0.0736 -0.1221
 3638W        W 7702   9.601   1.487   2.988 -0.0497 -0.0586 -0.0823
 3639W        W 7703   0.931   6.183   4.008  0.2313  0.4498  0.0047
 3640W        W 7704   7.634  10.304   8.894  0.2367  0.0094  0.3185
 3641W        W 7705   0.667   8.189   0.650  0.0011 -0.0529 -0.2763
 3642W        W 7706   5.453   4.542   8.775 -0.1490 -0.3445  0.0223
 3643W        W 7707   8.955   2.825   2.698 -0.0350 -0.2305  0.0428
 3644W        W 7708   9.481   5.169   0.859 -0.2141 -0.1020 -0.0878
 3645W        W 7709   9.787   8.304   2.125  0.0387  0.0366  0.0760
 3646W        W 7710   5.220   4.445   0.844 -0.0866  0.0940 -0.1719
 3647W        W 7711   9.447   2.935   7.603 -0.0428 -0.1419 -0.0150
 3648W        W 7712   0.134   5.202   3.491 -0.1742 -0.3704  0.3127
 3649W        W 7713   0.630   2.254   3.417 -0.2027 -0.2474 -0.0432
 3650W        W 7714   4.226   2.733   9.039  0.1649  0.0741  0.1419
 3651W        W 7715   5.150   9.652   1.697 -0.1112  0.0917 -0.0844
 3652W        W 7716   4.336   1.023   9.655 -0.0852  0.1481  0.0974
 3653W        W 7717   8.243   9.834   9.250 -0.2018  0.0838  0.0746
 3654W        W 7718   8.681   6.340   9.667  0.2663  0.0356  0.1620
 3655W        W 7719   4.309   9.468   2.988  0.1565 -0.1338  0.0064
 3656W        W 7720   8.135   7.435   3.787  0.0438  0.1553 -0.0244
 3657W        W 7721   7.207   1.624   7.852 -0.0154  0.0586 -0.0830
 3658W        W 7722   3.255   6.868   2.417  0.2404  0.2143  0.1270
 3659W        W 7723   8.104  10.548  10.215 -0.3074  0.2070  0.1695
 3660W        W 7724   1.229   0.882   1.538  0.0573 -0.0309 -0.1887
 3661W        W 7725   2.954   4.494   9.871  0.1624  0.0510  0.0525
 3662W        W 7726   6.143   7.690  10.896  0.1836  0.0132 -0.2681
 3663W        W 7727   2.865   9.692   1.879  0.5163 -0.3415 -0.1879
 3664W        W 7728   9.985   9.349   9.536  0.2172  0.2069 -0.0272
 3665W        W 7729   8.844   4.633   0.655 -0.2897 -0.0592 -0.1939
 3666W        W 7730   7.748   9.623   2.400  0.0601 -0.1569  0.1410
 3667W        W 7731  10.001   4.530   9.846 -0.2211  0.0639 -0.3930
 3668W        W 7732   3.681   3.812   3.619  0.0569 -0.2146  0.0721
 3669W        W 7733   8.438   1.777   3.203 -0.1026 -0.0769 -0.2115
 3670W        W 7734   9.979   3.966   9.900  0.0917 -0.2138 -0.2015
 3671W        W 7735   4.821   7.013   9.664 -0.2868  0.1614  0.4107
 3672W        W 7736   7.796   8.476  10.020  0.1778  0.3543 -0.1673
 3673W        W 7737   4.524   5.120   2.543  0.0425 -0.0189  0.1737
 3674W        W 7738  10.237   5.806   0.445 -0.0985 -0.0130 -0.2420
 3675W        W 7739   3.227   9.422   8.014  0.3485  0.2771 -0.0277
 3676W        W 7740   1.701   9.098   8.536 -0.2393 -0.1414  0.1133
 3677W        W 7741   1.882   5.214   2.995  0.0389 -0.1977  0.1459
 3678W        W 7742   3.918   3.027  10.346 -0.1123  0.0070 -0.0335
 3679W        W 7743   4.866   2.421   1.564 -0.0994 -0.0164  0.0863
 3680W        W 7744   7.634   4.930   8.451  0.2129 -0.0966 -0.1203
 3681W        W 7745   5.093  10.140  10.654 -0.3063  0.0150 -0.0930
 3682W        W 7746  10.717   2.136   2.750 -0.1454 -0.0730 -0.2750
 3683W        W 7747  10.279   1.142   8.698 -0.0499  0.2790 -0.0458
 3684W        W 7748   9.581   5.916   8.503 -0.0228  0.0646 -0.1482
 3685W        W 7749  10.768   5.795   8.645 -0.0777 -0.2579  0.1833
 3686W        W 7750  10.320  10.660  10.614  0.0543 -0.2055 -0.0711
 3687W        W 7751  10.277   3.836   7.977  0.3040  0.0850  0.0972
 3688W        W 7752   0.409   7.884   1.058  0.2518 -0.0407 -0.0201
 3689W        W 7753   2.016   9.273  11.038  0.3227 -0.0468 -0.1193
 3690W        W 7754   1.453   6.923   7.264 -0.1433  0.0227  0.0971
 3691W        W 7755   3.646   1.632   8.588 -0.4329 -0.0259  0.4099
 3692W        W 7756   1.122   8.038   8.507  0.1726 -0.0172  0.0979
 3693W        W 7757   5.342   5.017   2.025  0.1307 -0.1466  0.2145
 3694W        W 7758   8.438   0.833   3.171 -0.4387  0.3174  0.2203
 3695W        W 7759   5.305   3.216   1.014  0.1136  0.1214  0.0254
 3696W        W 7760   0.842   9.749   0.043  0.1053  0.3519  0.2472
 3697W        W 7761   2.098   4.889   9.428  0.1310  0.0863  0.1170
 3698W        W 7762   3.777   5.430   1.976 -0.0474 -0.2657 -0.1111
 3699W        W 7763   5.871   9.000  10.623  0.1923 -0.0611 -0.0990
 3700W        W 7764  10.081   7.352   8.330  0.0461  0.1889  0.1621
 3701W        W 7765   4.564   2.445   1.109 -0.0498  0.2459 -0.0767
 3702W        W 7766   7.356   9.706   2.036  0.0066 -0.2217 -0.1819
 3703W        W 7767   9.128   5.424   9.059  0.2027 -0.3410  0.1787
 3704W        W 7768   8.134   9.785   8.320 -0.3295 -0.1043 -0.2132
 3705W        W 7769   5.856   1.585   1.015 -0.2040  0.1488  0.1712
 3706W        W 7770   7.293   5.618   1.782 -0.2444 -0.3971  0.1534
 3707W        W 7771   5.087   0.261   9.036 -0.1325  0.3349 -0.0232
 3708W        W 7772   4.590   8.765   7.060 -0.1063  0.0191  0.0001
 3709W        W 7773   7.560   3.822   7.607 -0.0889  0.0634 -0.0670
 3710W        W 7774   7.024   3.757   1.271 -0.2487  0.2117 -0.1213
 3711W        W 7775   8.913   5.901  10.171  0.1980  0.4039  0.0945
 3712W        W 7776   9.491   3.630   2.226  0.1328  0.2258  0.0797
 3713W        W 7777   2.956   6.746   2.025 -0.0200  0.0574 -0.0912
 3714W        W 7778  10.516  10.754   2.500  0.1334  0.1232  0.0054
 3715W        W 7779   2.029   9.574   2.430  0.0373 -0.0093  0.0264
 3716W        W 7780   4.805   8.630  11.044 -0.0045  0.1369  0.1594
 3717W        W 7781   9.106   6.619   9.677  0.0313  0.0407  0.1825
 3718W        W 7782   8.335   9.052   8.969 -0.0441 -0.1102 -0.1481
 3719W        W 7783   6.786   1.527   2.794  0.0472  0.0316  0.1500
 3720W        W 7784   9.770   3.177   8.152 -0.2550 -0.0452  0.0359
 3721W        W 7785   6.356   1.520  10.794  0.1298 -0.0232  0.2691
 3722W        W 7786   7.236   4.098   8.970  0.1768  0.1057 -0.0251
 3723W        W 7787   5.500   7.578   2.301 -0.0927  0.1840 -0.3329
 3724W        W 7788   4.656   3.352   8.702  0.4508  0.0726 -0.1120
 3725W        W 7789   2.952   0.899   2.666 -0.1222 -0.2806 -0.1179
 3726W        W 7790   2.613   2.398   8.449  0.3050  0.2575 -0.0447
 3727W        W 7791   3.417   6.175   3.272  0.0118  0.1628  0.0678
 3728W        W 7792   4.708   7.426   8.514  0.1246  0.0477 -0.0608
 3729W        W 7793   6.300   4.958   9.160 -0.0428 -0.2565  0.1389
 3730W        W 7794   2.574   1.511  10.028  0.1632  0.0056  0.0080
 3731W        W 7795   9.631   1.729   7.844 -0.1668  0.3790 -0.0593
 3732W        W 7796   9.187   0.720   3.222  0.2162  0.3635  0.0499
 3733W        W 7797   5.914   0.311   1.836  0.1860  0.2605  0.0160
 3734W        W 7798   7.124   2.868  10.169 -0.0065 -0.1128 -0.0504
 3735W        W 7799  10.233   2.594   8.469 -0.0744  0.1408  0.2981
 3736W        W 7800   2.905   4.600   2.334 -0.2601  0.3359  0.2734
 3737W        W 7801  10.119   5.103   8.728  0.1741 -0.2327  0.1861
 3738W        W 7802   4.650   5.199   7.939  0.0872 -0.1063  0.0131
 3739W        W 7803   3.371   6.294   0.378  0.0828 -0.3568 -0.1882
 3740W        W 7804   3.451   0.895   2.118  0.0527  0.3861 -0.0628
 3741W        W 7805   0.113   3.852   2.822 -0.0046  0.0306  0.1486
 3742W        W 7806   0.406   7.702  10.724 -0.3412  0.1929 -0.0965
 3743W        W 7807   9.228   4.957  11.015  0.2014  0.2036 -0.0008
 3744W        W 7808   5.979   0.055   7.873  0.0136 -0.2479  0.2166
 3745W        W 7809   5.939   8.473  10.532 -0.1087  0.1073 -0.0167
 3746W        W 7810   3.128   4.526   8.263  0.1534 -0.2147  0.0749
 3747W        W 7811   3.203   3.163   7.850 -0.0838 -0.2255  0.1369
 3748W        W 7812   1.638   4.148   3.088  0.0593 -0.1690 -0.1126
 3749W        W 7813   4.225   8.848   8.292  0.1580  0.0723  0.1236
 3750W        W 7814   1.471   8.190   7.494  0.2807  0.1655  0.1106
 3751W        W 7815   3.481   5.026   1.019  0.1626 -0.1290  0.2079
 3752W        W 7816   6.654   6.475   9.644 -0.4091  0.0265  0.1888
 3753W        W 7817  10.551   3.851   9.002 -0.1626  0.5163 -0.2550
 3754W        W 7818   7.674   6.360  10.577  0.5573 -0.0670  0.0249
 3755W        W 7819   7.018   7.383   9.413  0.0807  0.1489  0.0964
 3756W        W 7820   2.534   3.943   8.804  0.1982  0.0568 -0.0168
 3757W        W 7821   9.897   0.947   8.311 -0.1785 -0.0790 -0.2955
 3758W        W 7822   8.154   5.353   1.349 -0.0175  0.0062 -0.1155
 3759W        W 7823   3.520   6.989   9.851 -0.0177  0.2218 -0.1922
 3760W        W 7824   7.042   1.999   8.156 -0.1129 -0.1156 -0.0096
 3761W        W 7825   6.819   8.046   1.751  0.1314 -0.1220 -0.1443
 3762W        W 7826   5.660  10.834   1.458  0.2773  0.2531  0.2061
 3763W        W 7827   0.600   1.918   3.808  0.2895  0.1517  0.0834
 3764W        W 7828   3.475   8.226   9.201 -0.0288 -0.0481  0.3607
 3765W        W 7829   9.042   0.520   0.894  0.1284  0.0400 -0.5531
 3766W        W 7830   6.738   8.419   8.944 -0.1625 -0.1322 -0.1680
 3767W        W 7831   8.240   7.385   2.475 -0.3519 -0.0409 -0.1513
 3768W        W 7832   9.818   9.634   9.912 -0.1087 -0.0450  0.1915
 3769W        W 7833   4.066   5.443   8.671 -0.0762  0.2106 -0.0131
 3770W        W 7834   3.959   0.037   7.699  0.0776 -0.0604  0.2976
 3771W        W 7835   7.822   2.258   9.083  0.0024 -0.0761  0.1478
 3772W        W 7836   3.764   7.694   8.661 -0.0087  0.0979 -0.1082
 3773W        W 7837   3.445   3.531   0.054  0.1415 -0.1147 -0.2595
 3774W        W 7838   6.328   1.639   0.241  0.1207  0.1690 -0.0505
 3775W        W 7839   8.015   7.732   7.979 -0.2570  0.2162  0.2113
 3776W        W 7840   3.454   1.081   0.484  0.0377  0.4684  0.3268
 3777W        W 7841   5.535   2.362   0.113  0.0097 -0.0054  0.1370
 3778W        W 7842   6.564   4.099   8.758  0.1406 -0.0241 -0.0157
 3779W        W 7843   4.931   6.914  10.114 -0.3020  0.1590  0.3326
 3780W        W 7844   6.882   5.175  10.550  0.0697 -0.4115  0.0112
 3781W        W 7845   9.088   5.249   8.299 -0.0085  0.0948 -0.1499
 3782W        W 7846   3.225   5.859   8.193  0.3770 -0.1371 -0.1617
 3783W        W 7847   6.844   0.490   0.968  0.1402  0.0850 -0.3835
 3784W        W 7848   9.497   9.736   7.594 -0.0062  0.1140 -0.2096
 3785W        W 7849   6.554   7.627   8.994 -0.4693 -0.0315 -0.0035
 3786W        W 7850   4.088   6.180   7.770  0.0844 -0.2503 -0.0909
 3787W        W 7851   1.307   3.983   0.044 -0.0195  0.0689  0.0222
 3788W        W 7852   1.404   6.649   3.321  0.1487 -0.2137  0.0425
 3789W        W 7853   4.150   1.695   9.371  0.0418  0.1380  0.0888
 3790W        W 7854   0.475   6.243   2.310  0.2709 -0.1532  0.0523
 3791W        W 7855   2.329   7.576   0.665 -0.0749  0.0110  0.0554
 3792W        W 7856   1.135   4.901   2.749  0.3178  0.3016 -0.0425
 3793W        W 7857   7.798   0.124   2.840 -0.2415 -0.2519  0.2307
 3794W        W 7858   8.688   2.922   1.547 -0.0283 -0.2051 -0.0008
 3795W        W 7859   7.779  10.886  10.476  0.0409  0.0095 -0.0172
 3796W        W 7860   4.504   4.126   2.148 -0.0544 -0.0582 -0.0031
 3797W        W 7861   9.645   1.696   1.721 -0.3546 -0.0147  0.0211
 3798W        W 7862   6.464   8.092   7.252 -0.2689  0.0234 -0.0392
 3799W        W 7863   2.852   0.818   2.152  0.0295 -0.0337 -0.1438
 3800W        W 7864   1.082   9.272   9.853  0.0216 -0.0347 -0.2826
 3801W        W 7865   0.400   8.048   8.809  0.0972  0.0442  0.1356
 3802W        W 7866   4.887   0.512   1.077 -0.2545 -0.1457  0.3084
 3803W        W 7867   6.325   2.169   2.092 -0.2011 -0.0633  0.1749
 3804W        W 7868   3.021   9.922   8.712 -0.0619  0.1362 -0.6937
 3805W        W 7869   9.815   4.971   9.584 -0.2181  0.1050 -0.3208
 3806W        W 7870   1.207   2.538   7.970  0.2608 -0.1660  0.2644
 3807W        W 7871   6.848   1.619   0.029 -0.0321  0.1438  0.2801
 3808W        W 7872   9.353   5.080   7.929 -0.1271 -0.0679  0.0177
 3809W        W 7873   4.857   3.069  10.661  0.1888 -0.0080 -0.1272
 3810W        W 7874   7.199   9.124  10.315 -0.1486  0.2156 -0.1654
 3811W        W 7875   0.986   8.386   9.425 -0.2062 -0.1926 -0.1907
 3812W        W 7876   9.615   7.530   1.225  0.2026 -0.1823 -0.0692
 3813W        W 7877  10.538   7.412  10.299  0.4836  0.0100  0.0846
 3814W        W 7878   0.515   9.798   2.204 -0.4163 -0.0212 -0.1613
 3815W        W 7879   8.321   7.982   8.297  0.0891 -0.0901  0.0607
 3816W        W 7880   0.267   2.692   8.222 -0.0481  0.2083 -0.1533
 3817W        W 7881   3.050   5.307   1.075  0.1317 -0.1680 -0.0377
 3818W        W 7882   8.437   6.225  10.111  0.4064 -0.0047  0.2414
 3819W        W 7883   9.524   2.707   2.015 -0.1010 -0.0564  0.0837
 3820W        W 7884   1.176   3.400   2.828  0.1499  0.3189  0.0149
 3821W        W 7885   7.665   3.707   3.339 -0.0181 -0.1061  0.0052
 3822W        W 7886   1.189   9.760   0.397  0.0411  0.0300 -0.1791
 3823W        W 7887   6.582   5.930   1.215  0.1470 -0.1162  0.0038
 3824W        W 7888   9.530   3.621   9.015 -0.1862  0.3112 -0.0910
 3825W        W 7889   3.621   1.933   0.417  0.1125  0.1082  0.1424
 3826W        W 7890   7.027   0.232   3.154 -0.0811  0.0746  0.1800
 3827W        W 7891   2.153  10.616   2.710  0.0915  0.3233  0.1850
 3828W        W 7892  10.835   0.483   2.010 -0.0358 -0.1617 -0.0272
 3829W        W 7893   1.302   0.013   8.833  0.2697  0.1226  0.2463
 3830W        W 7894   7.706   9.486   0.265  0.2163 -0.0508  0.0217
 3831W        W 7895   7.487   0.659   1.034  0.3250  0.2442  0.1639
 3832W        W 7896   3.335   0.132   8.914  0.0082  0.0392  0.0348
 3833W        W 7897   9.716   5.028   0.440 -0.2100  0.1008  0.0570
 3834W        W 7898   9.632   3.981   3.032 -0.2455  0.0487  0.0052
 3835W        W 7899   1.747   0.929  10.075 -0.3565  0.1957  0.1563
 3836W        W 7900   7.474   2.817   8.388  0.2482  0.0495 -0.0695
 3837W        W 7901   3.583   6.257   9.061 -0.1365 -0.2303  0.0855
 3838W        W 7902   3.224   6.344   2.295  0.1850  0.0426  0.4944
 3839W        W 7903   4.323  10.103   8.136 -0.1205  0.0520 -0.0811
 3840W        W 7904   6.156   9.830   3.747  0.0849  0.1818 -0.1481
 3841W        W 7905   3.413   6.577  10.914  0.3483 -0.1447  0.1644
 3842W        W 7906   9.663   1.939   8.391 -0.1299  0.0191  0.2162
 3843W        W 7907   9.347  10.035   8.776  0.1981  0.1523  0.1698
 3844W        W 7908   1.300  10.554   0.063 -0.2543  0.0218  0.0573
 3845W        W 7909   6.279   0.949  10.030  0.2340 -0.0864 -0.1820
 3846W        W 7910   1.834   8.049   9.180 -0.0862  0.0544 -0.2214
 3847W        W 7911   9.703  10.199   1.654  0.0040  0.1800  0.0569
 3848W        W 7912   7.318   0.535   8.062 -0.0848 -0.1123  0.0304
 3849W        W 7913   5.315   3.925   8.700  0.2278 -0.1932  0.3084
 3850W        W 7914   3.759   0.153   2.538 -0.3655 -0.0233  0.1678
 3851W        W 7915   0.878   9.889   3.812 -0.2288 -0.0544  0.2346
 3852W        W 7916   0.394   9.279   8.722  0.2251  0.2030 -0.1400
 3853W        W 7917   6.617   7.136   0.502 -0.0893  0.1813 -0.0956
 3854W        W 7918   0.281   9.164   0.678  0.0812 -0.1257 -0.4140
 3855W        W 7919   9.556   9.710   9.081 -0.3685  0.1701  0.1368
 3856W        W 7920  10.088  10.051   3.119  0.0450 -0.0566 -0.4583
 3857W        W 7921   7.493   0.070   1.873 -0.2396 -0.4042 -0.1405
 3858W        W 7922   6.383   9.114  10.783 -0.0865  0.2361  0.1783
 3859W        W 7923  10.398   6.888  10.050  0.2313  0.0894  0.1797
 3860W        W 7924   2.685   0.231   9.645  0.0518 -0.1624 -0.2133
 3861W        W 7925   3.132   7.472  10.399  0.1620 -0.0563 -0.2333
 3862W        W 7926   6.121   0.970   7.992 -0.0857  0.2141  0.0107
 3863W        W 7927   8.406   1.657   1.462  0.0559  0.0022  0.0486
 3864W        W 7928   2.351   8.196   9.359  0.2087 -0.0642  0.4128
 3865W        W 7929   4.026   5.278   2.631  0.2075  0.1962  0.0016
 3866W        W 7930  10.547   9.994   2.757  0.2649 -0.0626 -0.0693
 3867W        W 7931   8.984   4.650   3.539 -0.2108 -0.1388  0.0769
 3868W        W 7932   8.799   9.136   0.761  0.0700  0.0909  0.0492
 3869W        W 7933   6.077   7.710   9.445 -0.4355  0.0095  0.1399
 3870W        W 7934   1.512   0.479   8.911 -0.2271 -0.3059 -0.0173
 3871W        W 7935   4.228   9.248   1.271 -0.0930 -0.0522 -0.2514
 3872W        W 7936   6.934   8.608   9.783 -0.0736 -0.4866 -0.0543
 3873W        W 7937   3.575   6.020  10.855  0.0333  0.3800 -0.1774
 3874W        W 7938   8.410   4.797   0.454 -0.2647  0.0157 -0.1462
 3875W        W 7939   0.047   2.858   9.923 -0.2644 -0.1041  0.1428
 3876W        W 7940   6.420   8.607   9.425  0.1273 -0.0936  0.1073
 3877W        W 7941   3.882   5.580   0.365 -0.0609 -0.0111 -0.0810
 3878W        W 7942   9.204   4.810  10.412  0.0344  0.1344 -0.2501
 3879W        W 7943   0.947   4.726   0.519 -0.0189  0.0807 -0.0997
 3880W        W 7944   5.403   8.508   3.076 -0.0073  0.0058  0.4410
 3881W        W 7945   9.357  10.629  10.783  0.0275  0.0269 -0.4921
 3882W        W 7946   9.385   6.747  10.418 -0.0616 -0.2347  0.2546
 3883W        W 7947   3.075   7.310   0.709 -0.1214 -0.1626  0.2836
 3884W        W 7948   6.402   6.122   0.776 -0.4337 -0.0800  0.2124
 3885W        W 7949   5.973   5.632   8.005  0.1531 -0.2723 -0.0910
 3886W        W 7950   5.248   7.337   8.427 -0.2256 -0.1706  0.1953
 3887W        W 7951   3.264   3.387   2.088  0.1621 -0.1256 -0.4905
 3888W        W 7952   4.418   1.236   8.424  0.1752  0.1560 -0.0403
 3889W        W 7953   4.960   9.140  10.478 -0.1476 -0.1591 -0.1299
 3890W        W 7954   9.640   9.273   1.110 -0.1058 -0.0723  0.1321
 3891W        W 7955   1.988   9.667   3.065 -0.0894  0.0122  0.0186
 3892W        W 7956   0.291   9.062   3.343 -0.3206  0.1617 -0.3501
 3893W        W 7957   8.194   0.769   8.689 -0.2354  0.1604  0.0470
 3894W        W 7958   0.359   6.370   0.664 -0.0111  0.1484 -0.1536
 3895W        W 7959   2.036   8.767   0.167 -0.0446  0.2664  0.0365
 3896W        W 7960   2.321   2.071   8.182 -0.0332  0.0331 -0.2055
 3897W        W 7961   4.747   5.796   9.272 -0.1221  0.1000 -0.2631
 3898W        W 7962   4.123   2.575  10.071  0.1552  0.2249 -0.2733
 3899W        W 7963   4.179   3.379   1.451 -0.1128  0.0799  0.1793
 3900W        W 7964   5.582   1.715   1.384 -0.2938  0.1890  0.0015
 3901W        W 7965   1.662   6.217   3.075 -0.0765 -0.0676 -0.0854
 3902W        W 7966   5.344   4.548   1.795 -0.1474  0.0272  0.3648
 3903W        W 7967   6.089   3.650   3.476 -0.1284 -0.0716 -0.2662
 3904W        W 7968   2.148   6.290   9.433  0.0413  0.3021 -0.0881
 3905W        W 7969   5.735  10.083   0.247 -0.1372  0.1406  0.0090
 3906W        W 7970   5.970   3.466   1.317 -0.1237 -0.0930 -0.0623
 3907W        W 7971   8.399   0.973   0.823 -0.2055  0.1705 -0.0620
 3908W        W 7972   9.800   3.861   9.449 -0.0884  0.1863  0.2138
 3909W        W 7973   2.643   6.048   9.207  0.3446 -0.0547 -0.2072
 3910W        W 7974   1.980   4.754   3.212  0.0425  0.0539 -0.0399
 3911W        W 7975   4.807   0.299   2.726 -0.1027 -0.1081 -0.2633
 3912W        W 7976  10.807   8.947  10.497  0.1600  0.3013 -0.0662
 3913W        W 7977   9.871   1.991   0.925 -0.1356 -0.0094 -0.3942
 3914W        W 7978   2.433   9.621   1.145 -0.1999  0.0852 -0.1926
 3915W        W 7979   0.292   3.084   0.873  0.2084  0.1919  0.2759
 3916W        W 7980   4.607   6.711   9.345  0.0904 -0.0050 -0.3579
 3917W        W 7981   6.335   8.670   0.694  0.0640 -0.1157  0.0556
 3918W        W 7982   7.194   8.635   1.237  0.2012  0.1286  0.0321
 3919W        W 7983   9.059   4.977   4.523  0.1130  0.1057  0.1559
 3920W        W 7984   9.168   1.919   2.276  0.0244  0.2836  0.4767
 3921W        W 7985   7.592   5.470   8.484  0.1118 -0.1668  0.1250
 3922W        W 7986   5.971   5.714   1.909 -0.3423  0.2023 -0.1447
 3923W        W 7987   8.095   0.400   2.417 -0.0426  0.1661 -0.3326
 3924W        W 7988   1.793   9.265   2.824  0.1215 -0.1695  0.0971
 3925W        W 7989   6.556   1.988   9.932  0.0822 -0.0702  0.2421
 3926W        W 7990   2.656   5.254   1.597 -0.0968 -0.0089 -0.1676
 3927W        W 7991   8.039   4.780   8.124 -0.1654 -0.1046  0.0174
 3928W        W 7992   6.995   4.005   2.444 -0.0050 -0.0865  0.0003
 3929W        W 7993   1.662   4.845   9.747  0.0212  0.0149  0.0727
 3930W        W 7994   3.093   2.107   9.348 -0.2519  0.1761 -0.0375
 3931W        W 7995   6.471  10.805   7.874  0.2266  0.0423  0.3130
 3932W        W 7996   7.155   6.241   1.528  0.2635  0.0439 -0.0612
 3933W        W 7997   6.962   4.672   2.985 -0.0081  0.2585 -0.0342
 3934W        W 7998   0.837   9.044   8.886  0.0910  0.3396 -0.0517
 3935W        W 7999   3.519   5.596   3.243 -0.0873  0.1214 -0.0535
 3936W        W 8000   5.437   9.432   2.311  0.5479  0.0113  0.0188
 3937W        W 8001   7.577   6.099   8.794  0.0476  0.0129 -0.5366
 3938W        W 8002   5.593   7.825   9.315 -0.1650 -0.0448 -0.0850
 3939W        W 8003   2.499   3.238  10.520 -0.3947  0.2843 -0.1485
 3940W        W 8004   2.183  10.619   3.203  0.1796 -0.1908 -0.0001
 3941W        W 8005   5.148   3.647   1.446  0.0138 -0.1201  0.2477
 3942W        W 8006   8.181   7.605   9.670 -0.1313 -0.0020  0.0125
 3943W        W 8007   9.534   5.139   9.236 -0.0121  0.0143 -0.1247
 3944W        W 8008   1.728   1.568   8.857 -0.1375  0.0802 -0.0645
 3945W        W 8009   6.520   5.409   9.137  0.1153  0.0305  0.2923
 3946W        W 8010   6.206   3.287   0.807 -0.1198  0.1952 -0.0667
 3947W        W 8011   8.442   5.729   7.228 -0.0622 -0.1627 -0.2282
 3948W        W 8012   6.291   7.532   0.434 -0.1563  0.0188  0.0483
 3949W        W 8013   4.245   3.346   2.472 -0.1802  0.2626 -0.1846
 3950W        W 8014   2.116   4.280   7.635  0.0449 -0.2842 -0.0835
 3951W        W 8015   1.455   9.341   9.421  0.0808  0.2104 -0.0859
 3952W        W 8016   2.523   2.981   1.530 -0.3207  0.1242 -0.0303
 3953W        W 8017   0.406   9.690  10.310  0.1571 -0.0254  0.2602
 3954W        W 8018   9.935   2.556   2.231 -0.5210  0.1700 -0.0721
 3955W        W 8019   0.061   9.409   9.658 -0.1163  0.0499 -0.2731
 3956W        W 8020   9.123   1.579   3.181 -0.1020 -0.1128 -0.2920
 3957W        W 8021   8.229   1.222   1.672 -0.1707  0.1339  0.2675
 3958W        W 8022   8.237   4.030  10.181 -0.1142  0.1739 -0.1066
 3959W        W 8023   2.727   6.224  10.858  0.1757  0.3909  0.0731
 3960W        W 8024   8.810   3.757   2.400 -0.0427 -0.4943  0.0147
 3961W        W 8025   7.509   4.828  11.021 -0.0467 -0.3890  0.3581
 3962W        W 8026   1.362   9.687   9.814 -0.0757 -0.0589  0.4143
 3963W        W 8027   7.840   4.459   9.438  0.0086  0.4234  0.1560
 3964W        W 8028   8.080   3.318   0.769  0.1032 -0.0171  0.0913
 3965W        W 8029   9.497   7.875   3.169 -0.1794 -0.1759  0.0836
 3966W        W 8030   8.241   5.087   8.606  0.1783  0.0445  0.0108
 3967W        W 8031   3.288   2.049   9.835  0.0160 -0.0358 -0.0750
 3968W        W 8032   0.510   7.794  10.080  0.2762 -0.0680 -0.1235
 3969W        W 8033   1.438   4.006   1.847 -0.0259  0.2396  0.2440
 3970W        W 8034   7.669   0.028   9.958  0.2305  0.1634  0.0954
 3971W        W 8035   3.622   3.206  10.743  0.0036  0.0177  0.1060
 3972W        W 8036   0.099   9.831   2.548 -0.0678 -0.2645 -0.0660
 3973W        W 8037  10.735   4.297   3.489  0.0535  0.1134 -0.2599
 3974W        W 8038   8.531   1.001   8.265  0.1462  0.1163 -0.2900
 3975W        W 8039   6.799   8.304  10.700  0.1645  0.2683  0.2723
 3976W        W 8040   9.830   5.278   7.856 -0.0021  0.0499  0.1279
 3977W        W 8041   7.862   3.365   1.734 -0.2866 -0.2347  0.2229
 3978W        W 8042   3.686   8.086   2.825 -0.0400 -0.2898 -0.1494
 3979W        W 8043   5.401  10.151   3.716 -0.4459  0.2330  0.1461
 3980W        W 8044   9.041   4.739   8.068 -0.2228  0.2938 -0.1331
 3981W        W 8045   3.759   4.405   8.887 -0.2091 -0.2095  0.5949
 3982W        W 8046   4.953   6.891   1.907 -0.1067 -0.1111 -0.0634
 3983W        W 8047   8.634   9.859   8.144 -0.1520  0.2135  0.1003
 3984W        W 8048   8.173   7.452   1.622 -0.1747  0.3141 -0.1090
 3985W        W 8049   7.668   6.856   2.476 -0.0693  0.0619 -0.1293
 3986W        W 8050   5.210   6.967   3.418  0.2513  0.2206 -0.1658
 3987W        W 8051   0.242   4.690   2.299 -0.1799 -0.0227  0.2343
 3988W        W 8052   5.869   5.653   9.873  0.1150  0.3594  0.0895
 3989W        W 8053   5.245   7.907   8.380  0.1151  0.0296 -0.0723
 3990W        W 8054   0.801   3.279   9.785  0.3480  0.0512  0.2203
 3991W        W 8055   4.029   0.909   2.964  0.1335  0.1944  0.0289
 3992W        W 8056   3.458   5.006   1.934 -0.2831 -0.1208 -0.1592
 3993W        W 8057   8.791  10.154   2.916  0.1358 -0.1890 -0.0384
 3994W        W 8058   1.856   8.543   7.505  0.0283 -0.1720 -0.0321
 3995W        W 8059   2.350  10.690   1.016  0.3195  0.2052  0.2297
 3996W        W 8060   8.117   2.250  10.526 -0.2578 -0.1483  0.2332
 3997W        W 8061  10.772   9.379   8.516  0.0309 -0.1459 -0.0138
 3998W        W 8062   5.780   9.052   8.048 -0.0669 -0.0797 -0.3671
 3999W        W 8063   7.600   8.134   3.387 -0.1697 -0.2217  0.2558
 4000W        W 8064  10.828   9.628  10.178 -0.0137  0.1247  0.2549
 4001W        W 8065   6.747   2.073   7.185  0.0587  0.0364 -0.2682
 4002W        W 8066   4.615   2.717   7.918  0.4963  0.2517  0.2604
 4003W        W 8067   6.829   7.410   0.917  0.0380 -0.2787  0.3022
 4004W        W 8068   2.757   3.721   9.216 -0.3660 -0.0783 -0.0971
 4005W        W 8069   6.645   2.682   0.693 -0.2218 -0.0732  0.0684
 4006W        W 8070   8.673   8.831   8.602 -0.0320 -0.3214  0.1095
 4007W        W 8071   6.393   1.539   1.105  0.0227 -0.2809 -0.1474
 4008W        W 8072   5.771   1.687   3.329 -0.0308  0.3252  0.1134
 4009W        W 8073   5.869  10.250   8.762  0.1633 -0.0472  0.2552
 4010W        W 8074   4.855   3.892   8.964  0.0953  0.1831 -0.1124
 4011W        W 8075   4.399   7.998   1.808  0.1769 -0.2869 -0.0342
 4012W        W 8076   6.906   8.794  10.690 -0.0522  0.1485 -0.0304
 4013W        W 8077   3.841   4.952   9.492 -0.3476  0.3146  0.1655
 4014W        W 8078   0.085   8.666   1.563 -0.3937 -0.0397 -0.0247
 4015W        W 8079   5.011   4.708   2.244 -0.1120 -0.2062 -0.3374
 4016W        W 8080  10.469  10.036  10.142  0.2033  0.0057 -0.1600
 4017W        W 8081   8.481   4.601   2.745  0.0700  0.2704  0.1756
 4018W        W 8082   5.151   1.961  10.878  0.2727  0.0643 -0.1234
 4019W        W 8083   4.479   9.736   2.461 -0.2481  0.0813 -0.0497
 4020W        W 8084   3.927   8.044   9.972 -0.2311 -0.2209 -0.0942
 4021W        W 8085  10.262   0.691   8.462  0.3063  0.3561  0.0134
 4022W        W 8086   3.243   7.087  10.737 -0.3149 -0.0845  0.0587
 4023W        W 8087   9.056   9.343  10.233 -0.1941  0.0658 -0.4084
 4024W        W 8088   9.179  10.059   1.871 -0.2107  0.0712 -0.0899
 4025W        W 8089   3.819   9.841   8.710 -0.1099  0.2370 -0.0154
 4026W        W 8090   9.265  10.425   3.439 -0.1150 -0.0589 -0.3235
 4027W        W 8091   4.293   3.308   0.913 -0.3284  0.0866  0.0633
 4028W        W 8092   5.070   0.803   2.530  0.1455 -0.0736 -0.0927
 4029W        W 8093   8.014   4.091  10.915 -0.1749 -0.0801  0.2004
 4030W        W 8094   7.474   9.931   0.116 -0.0309  0.1715  0.0200
 4031W        W 8095  10.733   8.366  10.383  0.3708 -0.1241 -0.0121
 4032W        W 8096   1.391   0.579  10.222  0.1682  0.1717  0.2653
 4033W        W 8097   1.818   3.809   1.206  0.0533 -0.1913  0.0374
 4034W        W 8098   5.565   6.523   9.404 -0.1007  0.1329  0.2154
 4035W        W 8099   2.833   2.725   8.724 -0.1821 -0.3086 -0.0524
 4036W        W 8100   1.351   4.681   2.352 -0.4677  0.2598 -0.0904
 4037W        W 8101   6.432   1.906   8.899 -0.0955  0.2581 -0.3106
 4038W        W 8102   6.241   9.627   2.875 -0.2830 -0.0275  0.0099
 4039W        W 8103   9.232   4.464   8.881 -0.0105  0.2034 -0.2785
 4040W        W 8104   1.078   2.020   9.094  0.1055 -0.2039 -0.1252
 4041W        W 8105   6.349   6.644   0.739 -0.2186 -0.3910  0.0304
 4042W        W 8106   6.674   9.346  10.076  0.2989  0.2882 -0.1140
 4043W        W 8107   6.059  10.555  10.199 -0.1161 -0.4887  0.3174
 4044W        W 8108   0.877   0.412   4.162 -0.0237 -0.1045 -0.0687
 4045W        W 8109   6.745   8.529   7.180  0.1236  0.2008  0.0221
 4046W        W 8110   1.000   4.811   3.744  0.0862 -0.0135 -0.3026
 4047W        W 8111   1.125   6.463   7.608 -0.0207  0.0525  0.1393
 4048W        W 8112   5.827   1.253   8.738  0.0581 -0.2073 -0.2963
 4049W        W 8113   4.077   6.756  10.034  0.1362  0.3459 -0.1021
 4050W        W 8114   7.022   6.868   9.328 -0.1630  0.0253  0.0991
 4051W        W 8115   3.473   6.109   8.581 -0.2013 -0.3755 -0.3046
 4052W        W 8116   9.382   1.875   0.247  0.1097 -0.2784 -0.1651
 4053W        W 8117   0.425   7.285   2.212 -0.2024 -0.0088 -0.1055
 4054W        W 8118   6.996   8.808   1.640 -0.0176 -0.2955 -0.5504
 4055W        W 8119  10.322   5.056   0.512 -0.1282 -0.1047  0.0275
 4056W        W 8120   1.579   7.284   8.552  0.1502  0.2305 -0.2311
 4057W        W 8121  10.705   6.501   9.259  0.2050 -0.0768  0.0814
 4058W        W 8122   6.526   1.881   8.356 -0.4283  0.1038 -0.1224
 4059W        W 8123   4.542  10.272  10.760  0.2623 -0.1612 -0.1082
 4060W        W 8124   9.226   7.330   8.425  0.0181  0.4200  0.3196
 4061W        W 8125   6.858   9.338  10.590  0.1108  0.1128 -0.3111
 4062W        W 8126   9.140   8.799   1.616  0.0245  0.0585  0.1232
 4063W        W 8127   0.463   9.242   9.431  0.1601 -0.0448  0.0185
 4064W        W 8128   4.475   1.545   3.960  0.3357 -0.1585 -0.1434
 4065W        W 8129   0.785  10.393   8.740  0.5698  0.1230 -0.2310
 4066W        W 8130   6.112   0.791   1.686  0.1061  0.2876  0.0380
 4067W        W 8131   1.065  10.180   9.790 -0.0090 -0.0732 -0.2975
 4068W        W 8132  10.447   1.474   9.903 -0.0495 -0.1642  0.1085
 4069W        W 8133   1.942   4.060   8.968  0.0977  0.1944  0.2600
 4070W        W 8134   5.203   7.968   2.363  0.2232  0.0617 -0.3280
 4071W        W 8135   8.600   5.582  10.359 -0.0145  0.1402 -0.0208
 4072W        W 8136   7.594   5.170   9.313 -0.1116  0.3197 -0.2788
 4073W        W 8137  10.335   4.706   8.458  0.0444  0.0031 -0.1638
 4074W        W 8138   4.246   0.736   1.706  0.0854 -0.0130 -0.1196
 4075W        W 8139   3.067   3.136   8.548  0.1120 -0.3750 -0.2379
 4076W        W 8140   4.276   9.588   8.231  0.1618  0.0237  0.0760
 4077W        W 8141   5.744   3.244   9.317 -0.2936 -0.1748 -0.0907
 4078W        W 8142   5.326   1.575   8.270  0.0172 -0.2099  0.1133
 4079W        W 8143  10.863   9.317   1.539  0.0008 -0.0506  0.1923
 4080W        W 8144   2.031   3.331   1.259 -0.1263  0.4591 -0.0428
 4081W        W 8145   5.660   8.606   7.375 -0.0949  0.0162 -0.2202
 4082W        W 8146  10.624   1.601   2.704  0.0448 -0.1611 -0.0733
 4083W        W 8147   1.837   3.868   7.852  0.2807 -0.2690 -0.4780
 4084W        W 8148   6.194   9.595  10.109 -0.1074 -0.1372  0.2700
 4085W        W 8149   9.246   9.002   2.036 -0.0683 -0.0301 -0.3638
 4086W        W 8150   8.185   6.713   8.131  0.1579 -0.1530  0.0953
 4087W        W 8151   4.293   2.036   3.117 -0.1670  0.2148 -0.1760
 4088W        W 8152   2.293   3.416   3.424  0.1651  0.1117 -0.0307
 4089W        W 8153   0.889   0.206   2.094 -0.2054 -0.2096  0.0358
 4090W        W 8154   3.448   3.880   8.962  0.0892 -0.1590 -0.0631
 4091W        W 8155   2.575   8.622   9.237 -0.1584  0.1424  0.2010
 4092W        W 8156   9.079   2.345   0.412 -0.4868  0.2252 -0.3668
 4093W        W 8157  10.261   2.150  10.604  0.1937 -0.0538  0.2504
 4094W        W 8158   2.994   4.974   9.658 -0.2151  0.0518 -0.1544
 4095W        W 8159   9.722   8.006   9.312  0.2277  0.1118 -0.2037
 4096W        W 8160   5.851   4.289   1.818  0.2960 -0.3139  0.0187
 4097W        W 8161   9.090   3.666   8.569  0.0411 -0.0277  0.0216
 4098W        W 8162   1.239   6.078   0.129 -0.2516 -0.1644 -0.3732
 4099W        W 8163   7.019   4.773   3.487  0.0852  0.0290 -0.1335
 4100W        W 8164   4.524   8.951  10.199 -0.0186  0.2027 -0.0736
 4101W        W 8165   4.615   1.960   8.488  0.1468  0.2225  0.0995
 4102W        W 8166   3.877   8.457   8.365 -0.2358 -0.2018 -0.1038
 4103W        W 8167   4.232   6.322   9.037 -0.1156 -0.2636 -0.0366
 4104W        W 8168   5.354   1.526   3.089  0.0464 -0.0603 -0.0257
 4105W        W 8169   6.157  10.041   3.255  0.0311  0.1523  0.1356
 4106W        W 8170   5.072   9.378   3.239 -0.0403  0.1232 -0.2668
 4107W        W 8171   2.667   7.521  10.243  0.1708 -0.0802  0.1298
 4108W        W 8172   9.449   5.287   8.686  0.0774 -0.2584  0.1758
 4109W        W 8173   9.814  10.683  10.013 -0.3028  0.1632 -0.0938
 4110W        W 8174   0.791   1.465   9.865  0.1605  0.2496  0.0263
 4111W        W 8175   7.241   9.189   9.015  0.1358  0.1154  0.1148
 4112W        W 8176   7.348   9.754   0.592 -0.0775 -0.0482  0.0377
 4113W        W 8177   2.138   7.495  10.527 -0.2252 -0.0540 -0.0068
 4114W        W 8178   9.352   3.076   2.817 -0.2126  0.0365  0.2830
 4115W        W 8179   7.433   2.071   9.409 -0.0713  0.1385  0.0304
 4116W        W 8180   9.252   5.130   2.683 -0.1007  0.1056  0.2131
 4117W        W 8181   8.870   2.635  11.020 -0.0810  0.0946  0.3677
 4118W        W 8182   0.721   6.317   9.867  0.0484 -0.0768 -0.1648
 4119W        W 8183   3.089   9.342   0.905 -0.0965 -0.1454 -0.3349
 4120W        W 8184   3.050   0.306   9.296 -0.0879  0.1187  0.1780
 4121W        W 8185   0.968   9.891   7.754 -0.1595  0.4083  0.1671
 4122W        W 8186  10.681   7.893   1.728 -0.1844  0.1841  0.1090
 4123W        W 8187   8.371   3.602   2.532 -0.1392 -0.0695 -0.0485
 4124W        W 8188   3.540   1.216   9.501 -0.2543 -0.0535 -0.0507
 4125W        W 8189  10.337   1.969   3.057  0.1027 -0.0128 -0.1607
 4126W        W 8190  10.770   1.519   0.910 -0.1558  0.1819 -0.0693
 4127W        W 8191   5.465   9.917   0.647 -0.0084 -0.0903  0.0066
 4128W        W 8192   1.292   0.078   1.651  0.0576  0.2574  0.1369
 4129W        W 8193   8.727  10.519   3.303 -0.3683  0.0696 -0.1382
 4130W        W 8194   7.885   8.105   2.985  0.2345 -0.0328 -0.1379
 4131W        W 8195   5.179   0.075   9.484  0.2219 -0.0599 -0.3344
 4132W        W 8196   5.593   9.205   3.338 -0.0340 -0.3011  0.2680
 4133W        W 8197   3.633   3.841   1.406  0.2252  0.0262  0.3830
 4134W        W 8198   9.081   9.512   1.750  0.1406 -0.1736  0.1395
 4135W        W 8199   7.426   2.499   1.406  0.0114  0.3641  0.0589
 4136W        W 8200  10.267   8.278  10.111 -0.0386  0.1504  0.0626
 4137W        W 8201   2.929   1.816   1.957  0.0505 -0.2484 -0.1776
 4138W        W 8202   9.964   4.980   0.968 -0.3280  0.1533  0.2567
 4139W        W 8203   7.336   4.325   2.056 -0.0860 -0.0295 -0.2611
 4140W        W 8204   8.021  10.663   9.742  0.3149  0.1872 -0.0212
 4141W        W 8205   2.314   1.502   2.806  0.0694 -0.1067 -0.0050
 4142W        W 8206   8.445   4.295   7.001  0.0552  0.1122  0.3344
 4143W        W 8207   6.358   5.158   8.585 -0.0029  0.0394  0.0131
 4144W        W 8208   7.691   2.982   0.657 -0.0247 -0.0259  0.0416
 4145W        W 8209   7.644   0.706   9.204 -0.1596  0.1955 -0.2009
 4146W        W 8210   4.612   3.777   3.126 -0.2052 -0.2466 -0.0680
 4147W        W 8211   1.722   7.709  10.241  0.2182  0.0820  0.1454
 4148W        W 8212   0.198  10.251   7.862 -0.0901 -0.1547  0.3238
 4149W        W 8213   8.811   2.051   9.303  0.0793  0.0424 -0.2609
 4150W        W 8214   3.442   1.054   8.572  0.3030  0.2416  0.1568
 4151W        W 8215   2.151   2.946   0.742  0.0997  0.1575 -0.2103
 4152W        W 8216   2.355   4.240   0.054 -0.0045 -0.2523 -0.0294
 4153W        W 8217   0.629   4.022   9.632 -0.0046 -0.0853 -0.0063
 4154W        W 8218   0.686   9.833   8.576 -0.2199 -0.2053  0.3003
 4155W        W 8219   1.609   0.082   0.220 -0.0675  0.2188 -0.1880
 4156W        W 8220  10.795   7.286   7.877 -0.0039  0.0561 -0.0862
 4157W        W 8221   6.527   9.653  10.472  0.0687 -0.1581  0.1646
 4158W        W 8222   0.458   8.084   1.615  0.1695 -0.0471 -0.0200
 4159W        W 8223   8.585   0.951   0.349  0.0217 -0.2712 -0.2348
 4160W        W 8224   0.828   5.562   1.129 -0.1648  0.3170  0.2493
 4161W        W 8225   9.505   8.410  10.370 -0.2135 -0.1951  0.1419
 4162W        W 8226   9.175   1.735   9.130 -0.1660 -0.0863  0.2224
 4163W        W 8227   5.968   9.928   1.860  0.0890  0.0578 -0.0492
 4164W        W 8228   2.480   6.026   3.358  0.1632 -0.2085  0.0130
 4165W        W 8229   3.365   1.138  10.992 -0.0050  0.1222  0.0389
 4166W        W 8230   3.471   2.266   3.372 -0.2007  0.1566 -0.2399
 4167W        W 8231   7.056   6.368   9.370 -0.2738 -0.0405  0.1472
 4168W        W 8232   8.809   5.062   7.839 -0.0655  0.0038 -0.1671
 4169W        W 8233   8.186  10.847   8.322  0.1162  0.3892  0.2961
 4170W        W 8234   7.773   7.066   3.590 -0.2395 -0.0614  0.1381
 4171W        W 8235   3.098   0.170   1.148 -0.0489  0.1708 -0.1522
 4172W        W 8236   7.924   9.357   1.428 -0.0083  0.2586 -0.1929
 4173W        W 8237   7.230   0.661   9.580 -0.1062 -0.2311  0.0617
 4174W        W 8238   8.100   5.538   7.570 -0.0744 -0.0625  0.0439
 4175W        W 8239   8.648   3.878   0.747 -0.0661  0.1856  0.0049
 4176W        W 8240   5.516   2.465   2.337 -0.2420 -0.1312 -0.1797
 4177W        W 8241   5.262   4.874   1.126 -0.2478  0.0831  0.1857
 4178W        W 8242   9.330   8.309   0.487  0.4788  0.1158 -0.0648
 4179W        W 8243  10.633   6.785   2.576 -0.0809 -0.0581  0.1086
 4180W        W 8244   8.917   2.465  10.550 -0.1375 -0.0368 -0.2537
 4181W        W 8245   6.634   9.462   0.421  0.1840  0.0967 -0.1992
 4182W        W 8246   2.240   3.548   2.599 -0.0248  0.1804  0.0091
 4183W        W 8247   2.818   7.536   3.338 -0.3453 -0.1623  0.0799
 4184W        W 8248   1.211   6.375   9.764  0.0800  0.0156 -0.1383
 4185W        W 8249   7.218   1.807   2.164 -0.1439 -0.3191  0.0361
 4186W        W 8250   4.305  10.389   9.822  0.0228  0.4115  0.4212
 4187W        W 8251   7.420   6.379   7.909  0.1237  0.2091 -0.1090
 4188W        W 8252   3.334   1.402   1.777 -0.1106  0.2911 -0.0918
 4189W        W 8253   2.342   2.745  10.643 -0.0349  0.1564 -0.0314
 4190W        W 8254   8.513   6.018   1.864  0.0527 -0.0606 -0.0533
 4191W        W 8255   0.552   2.627  10.301 -0.1007 -0.0010 -0.0592
 4192W        W 8256   2.280   4.355   8.679  0.0715  0.0287  0.2457
 4193W        W 8257   4.618   6.703   8.867  0.3577  0.2216 -0.2278
 4194W        W 8258   0.961   9.634   9.571 -0.0028 -0.0892  0.0596
 4195W        W 8259   9.359   0.633  10.080  0.0636  0.0340 -0.2312
 4196W        W 8260   1.105   0.965  10.527  0.2507 -0.0055  0.4621
 4197W        W 8261   4.559   7.588   0.195 -0.2709  0.1941  0.2380
 4198W        W 8262   5.598   4.508   1.271  0.0577  0.2771  0.2835
 4199W        W 8263   6.729   0.297   4.056  0.1520 -0.2242 -0.0180
 4200W        W 8264   4.074   7.748   0.181  0.1661  0.0958 -0.3268
 4201W        W 8265   4.522   1.182  10.748  0.0670 -0.1805  0.0256
 4202W        W 8266   2.176   2.994   2.556  0.2308  0.3019 -0.0456
 4203W        W 8267   1.408   1.707  10.918 -0.1437  0.0568  0.1132
 4204W        W 8268   3.090   5.870   2.312  0.0607 -0.1388 -0.2266
 4205W        W 8269   8.950   3.813   7.688 -0.2284  0.1740  0.0312
 4206W        W 8270   5.566   5.690   2.199 -0.0081  0.0095  0.0831
 4207W        W 8271   8.932  10.592  10.198 -0.0264  0.0788  0.0246
 4208W        W 8272   8.904   5.559   1.995 -0.0907 -0.0641 -0.1086
 4209W        W 8273   6.657   3.083   0.998  0.0181  0.1229  0.3340
 4210W        W 8274   1.495   7.675   0.908  0.1590 -0.0970 -0.0818
 4211W        W 8275   3.505   0.281   8.464  0.1333  0.1179  0.1408
 4212W        W 8276   3.915   7.185   1.224 -0.2241  0.2825  0.0668
 4213W        W 8277  10.604   3.507   9.413 -0.0170  0.0685 -0.0577
 4214W        W 8278   1.076   7.517   8.603  0.2182  0.1696 -0.2274
 4215W        W 8279   8.123   9.311   2.277 -0.0986 -0.3919 -0.1341
 4216W        W 8280   6.656   9.372   1.732 -0.1137  0.0786  0.1118
 4217W        W 8281   9.813   8.946   0.753 -0.0617 -0.0292 -0.2656
 4218W        W 8282   6.682   6.214   1.752 -0.2401  0.0278 -0.2071
 4219W        W 8283   0.802   2.958   2.774 -0.0211 -0.3007  0.3271
 4220W        W 8284   7.303   0.399   0.164 -0.0453 -0.0153  0.0055
 4221W        W 8285   8.051   0.441  10.130  0.1061 -0.2357 -0.2005
 4222W        W 8286   3.822   8.691   2.789  0.0936 -0.2752  0.2251
 4223W        W 8287   0.622   8.299   2.114 -0.1185  0.0749  0.1362
 4224W        W 8288   2.221   0.961   9.281 -0.1363  0.0007  0.1310
 4225W        W 8289  10.780   3.500   2.503  0.2950 -0.0388 -0.2774
 4226W        W 8290   4.305   6.548   0.258  0.2594  0.0431 -0.0110
 4227W        W 8291  10.812   6.131   8.260  0.0439 -0.1503  0.0850
 4228W        W 8292   6.662   4.301   2.691 -0.2060  0.0631 -0.0788
 4229W        W 8293   2.681   8.487   0.871  0.3322 -0.2504  0.0288
 4230W        W 8294   6.963   8.094   2.906  0.1928  0.1678  0.1962
 4231W        W 8295   9.804   6.904   9.935 -0.2957  0.0766 -0.0286
 4232W        W 8296   6.881   1.234   1.566 -0.0931  0.1451 -0.1562
 4233W        W 8297  10.572   7.151   0.880 -0.0190 -0.1378  0.0842
 4234W        W 8298   2.330  10.901   1.597  0.1435 -0.2137  0.0486
 4235W        W 8299   0.234  10.766   0.697 -0.2413 -0.2050  0.1202
 4236W        W 8300   6.037   0.800   2.166 -0.1676  0.0142  0.3066
 4237W        W 8301   5.767   7.286   9.256 -0.1811 -0.1022  0.0618
 4238W        W 8302   5.160   5.833  10.593 -0.3346 -0.2798  0.0700
 4239W        W 8303   0.465   2.876   3.126 -0.1095 -0.0847  0.0492
 4240W        W 8304   9.167   1.520   1.527  0.3321 -0.2940 -0.0407
 4241W        W 8305   4.142   1.423   3.176  0.0515 -0.0468 -0.0618
 4242W        W 8306   9.212   4.105   0.083 -0.0097  0.2055  0.1249
 4243W        W 8307   5.634   3.060   3.185  0.1275 -0.0442 -0.0187
 4244W        W 8308   2.200   9.920  10.511 -0.1357 -0.3017 -0.1681
 4245W        W 8309   9.120   0.605   4.300  0.2639  0.0320  0.1548
 4246W        W 8310   9.320   7.796   7.347  0.2257 -0.0089  0.0344
 4247W        W 8311   3.007   3.142   1.291 -0.0417 -0.2568 -0.1147
 4248W        W 8312   3.888   8.268   1.401 -0.1331  0.4073 -0.0983
 4249W        W 8313   3.267   9.144   9.782  0.0319  0.0142 -0.0728
 4250W        W 8314   1.691   9.816   2.710  0.2935  0.4588  0.1503
 4251W        W 8315   4.739   1.482   2.598  0.0559 -0.0337 -0.0039
 4252W        W 8316   8.152   2.003   9.966  0.3905 -0.0704 -0.0768
 4253W        W 8317   2.024   7.788   8.007  0.0027  0.1979  0.0082
 4254W        W 8318   3.058   8.257   1.659  0.0748  0.0886 -0.0406
 4255W        W 8319   3.508   9.535   8.424 -0.2190  0.1698 -0.1478
 4256W        W 8320   1.293   6.188   2.334  0.1380  0.2094  0.2506
 4257W        W 8321   2.328   6.066   1.555  0.2288 -0.0505  0.1386
 4258W        W 8322   9.094   9.933   0.856  0.0221  0.3288  0.2706
 4259W        W 8323  10.340   9.014   2.245 -0.0873  0.1951 -0.0253
 4260W        W 8324   9.730   9.987  10.511  0.0998 -0.1754  0.0446
 4261W        W 8325  10.221   1.355   3.542 -0.2160  0.2916  0.2941
 4262W        W 8326   2.399   7.927   2.474 -0.0746  0.0655 -0.0194
 4263W        W 8327   2.341   8.869  10.198 -0.3624 -0.3470 -0.2015
 4264W        W 8328   5.690   4.664   9.665  0.1423 -0.1161 -0.3258
 4265W        W 8329   9.615   7.420   0.359 -0.1210  0.1884  0.0431
 4266W        W 8330   9.189   0.860   3.808  0.1145 -0.1516 -0.0078
 4267W        W 8331   2.936   0.582  10.109 -0.1851  0.0338 -0.1298
 4268W        W 8332   1.995   3.522   7.365  0.0984 -0.1340  0.1554
 4269W        W 8333  10.039   8.657   9.898  0.1051  0.0267  0.0154
 4270W        W 8334  10.794   2.907   3.198 -0.1981 -0.0523  0.0489
 4271W        W 8335   1.459   7.729   9.324 -0.0511  0.0802  0.2463
 4272W        W 8336   5.505   3.628   8.263 -0.0647 -0.2203 -0.1140
 4273W        W 8337  10.371   0.631   1.862  0.2451  0.2771 -0.2116
 4274W        W 8338   7.699   2.087   0.212 -0.0146 -0.3687  0.1255
 4275W        W 8339   0.976   3.726   0.622  0.0526  0.0939 -0.0068
 4276W        W 8340   5.094   9.023   6.990  0.0762  0.0040 -0.2946
 4277W        W 8341   4.807   5.528  10.309  0.2218  0.1190  0.2737
 4278W        W 8342  10.764   8.129   7.556  0.0176  0.0688  0.2893
 4279W        W 8343   9.371   2.188   7.946 -0.0058  0.0658 -0.1253
 4280W        W 8344   9.661   1.449   8.271  0.0151  0.1378  0.0329
 4281W        W 8345   8.809   2.323   2.365  0.0953  0.1032 -0.2150
 4282W        W 8346   6.666   0.692  10.657  0.0149 -0.2214  0.3332
 4283W        W 8347   3.414  10.424   3.666 -0.1743 -0.0440 -0.0216
 4284W        W 8348   7.007   9.788   1.656  0.1214 -0.0169 -0.0958
 4285W        W 8349  10.062   4.301   9.364 -0.1591 -0.0744  0.3382
 4286W        W 8350   2.422  10.188   8.391 -0.0933  0.0079  0.1396
 4287W        W 8351  10.112   7.051   8.740 -0.0670 -0.0107 -0.0335
 4288W        W 8352   8.370   2.287   9.260  0.0512 -0.2151  0.0554
 4289W        W 8353  10.316   9.723   7.136  0.1437  0.3715 -0.1726
 4290W        W 8354   7.698   7.079   3.083  0.0610  0.0956 -0.1089
 4291W        W 8355   5.954   4.889   2.737 -0.2007  0.0256  0.2126
 4292W        W 8356   7.100   0.205   2.262 -0.0164 -0.3042  0.0707
 4293W        W 8357   7.234   0.583   1.886  0.0587 -0.1742 -0.1555
 4294W        W 8358   8.745   4.172   8.798 -0.2339 -0.1998 -0.0579
 4295W        W 8359   4.409   7.774  10.829 -0.2523  0.1918  0.1782
 4296W        W 8360   2.915   2.143   8.851  0.1420 -0.0017  0.4191
 4297W        W 8361   5.259   6.957   3.916  0.1442 -0.2024  0.1409
 4298W        W 8362   3.084   7.388   0.087 -0.3605  0.4020  0.1796
 4299W        W 8363   4.022   9.009   9.623 -0.0363  0.2608 -0.3803
 4300W        W 8364   2.179   7.252   9.560  0.0475  0.0058  0.6306
 4301W        W 8365   5.152   3.187   7.305 -0.1125 -0.2369 -0.0062
 4302W        W 8366   1.030   0.363   8.295  0.1988 -0.2080  0.0701
 4303W        W 8367   3.204  10.656   1.440 -0.0471 -0.2466  0.2105
 4304W        W 8368   8.265   3.095   8.937  0.2500 -0.1273  0.0467
 4305W        W 8369   2.001   7.665   2.175 -0.3942  0.0020  0.2083
 4306W        W 8370   7.926   4.164   8.942 -0.0983  0.0547 -0.3221
 4307W        W 8371   9.168   4.321   8.399 -0.0623 -0.2913 -0.0031
 4308W        W 8372   6.302   5.066   7.233  0.0998 -0.0153 -0.0239
 4309W        W 8373   4.756   6.919   8.458  0.1751 -0.0250 -0.0086
 4310W        W 8374   6.103   9.424   8.105 -0.0547  0.2686 -0.2570
 4311W        W 8375   0.042   1.341   9.192 -0.1886  0.1073 -0.0145
 4312W        W 8376   3.699   6.725   4.068 -0.3342 -0.0661  0.0529
 4313W        W 8377   5.235   2.311  10.501  0.0669 -0.0772  0.1254
 4314W        W 8378  10.072   3.642   9.098  0.0590  0.2288  0.2276
 4315W        W 8379   6.371   2.591   7.924  0.1850  0.2729  0.0950
 4316W        W 8380   7.748  10.403   0.274  0.4105  0.2932 -0.3062
 4317W        W 8381   8.840   8.613   0.925  0.0245  0.0936 -0.3319
 4318W        W 8382   5.039   9.454   7.452 -0.0799 -0.0838  0.1882
 4319W        W 8383   8.733   1.259   1.410  0.0692  0.0784 -0.1158
 4320W        W 8384   2.426   0.636   9.883  0.1417  0.0691  0.0193
 4321W        W 8385   6.207   2.455   9.812 -0.1004 -0.1644 -0.1096
 4322W        W 8386   3.940   2.740   0.363 -0.0545  0.0042  0.0105
 4323W        W 8387   1.761   7.405   1.806  0.1853  0.0720 -0.2066
 4324W        W 8388   6.362   4.166   1.720 -0.0531 -0.0611 -0.2007
 4325W        W 8389   3.230   0.687   3.039 -0.0939  0.4849 -0.2982
 4326W        W 8390   4.334  10.383   0.759 -0.2593  0.3158  0.0140
 4327W        W 8391   8.158   6.084  10.532 -0.0658  0.4108 -0.0896
 4328W        W 8392   7.535   8.853   1.569 -0.0702  0.0043  0.1122
 4329W        W 8393   8.861   7.229   2.621  0.0604  0.0137 -0.0321
 4330W        W 8394   0.983   0.382   8.899 -0.1260  0.0100  0.1536
 4331W        W 8395   9.797   3.568  11.052  0.0126 -0.1844 -0.0895
 4332W        W 8396   2.135   7.970  10.365  0.0284  0.0914 -0.1783
 4333W        W 8397   2.796   1.830   2.891 -0.2597 -0.0074  0.1093
 4334W        W 8398  10.089   5.841   1.232  0.2923  0.0475  0.0713
 4335W        W 8399   8.815   2.785  10.051  0.3603  0.0609 -0.1249
 4336W        W 8400   9.929   2.238  10.968 -0.0548  0.0554 -0.0306
 4337W        W 8401   0.070   1.214   7.563 -0.4304  0.1246 -0.0807
 4338W        W 8402   7.807   5.543   3.013  0.0857  0.0154 -0.1736
 4339W        W 8403  10.633   1.053   0.646  0.2377 -0.0186 -0.1610
 4340W        W 8404   8.664   1.224   9.148 -0.0175 -0.2903 -0.3908
 4341W        W 8405   7.020  10.079  10.969  0.1477  0.1035  0.1546
 4342W        W 8406   1.496   7.738   8.792 -0.0884 -0.1727  0.1864
 4343W        W 8407   9.945   6.398   2.068 -0.1550  0.0361  0.1082
 4344W        W 8408   4.626   0.246  10.256  0.1651 -0.0544  0.1676
 4345W        W 8409   4.208   8.126   3.495 -0.1557  0.1725  0.2658
 4346W        W 8410  10.684   3.070   0.784 -0.0325 -0.0257  0.1375
 4347W        W 8411   6.018   0.245  10.012 -0.1079 -0.0819 -0.1859
 4348W        W 8412   1.948  10.077   2.239 -0.0249 -0.0738 -0.0093
 4349W        W 8413   3.988  10.371   2.029  0.0472 -0.4185 -0.4648
 4350W        W 8414  10.417   4.025   3.263  0.1254  0.0906 -0.1071
 4351W        W 8415   2.749   9.029   1.056  0.1976 -0.2181  0.1783
 4352W        W 8416   6.813   9.088   2.087  0.1024  0.2226  0.0322
 4353W        W 8417   4.846   4.889   9.840 -0.1910  0.1229  0.0363
 4354W        W 8418   0.455   3.617   0.614  0.1146  0.0228  0.0557
 4355W        W 8419   2.291   1.187   1.463 -0.0143  0.0343 -0.0944
 4356W        W 8420   9.514   1.934  10.804  0.1734  0.0288 -0.2508
 4357W        W 8421   5.641   4.176   9.083 -0.0317  0.2909  0.3129
 4358W        W 8422   1.190   3.206   8.727 -0.0188 -0.1863  0.4073
 4359W        W 8423   5.614  10.358   8.318 -0.0041 -0.1564 -0.1565
 4360W        W 8424   9.876   7.740  10.710 -0.0323 -0.0919  0.0086
 4361W        W 8425   8.347   9.360   1.154  0.0178  0.1058 -0.1225
 4362W        W 8426   6.348   4.634   3.475  0.3442 -0.1827 -0.1563
 4363W        W 8427   9.813   4.318   7.595 -0.1180  0.1470 -0.2231
 4364W        W 8428   9.072   1.516   0.991 -0.2808 -0.2847 -0.1136
 4365W        W 8429   2.302   9.446   9.525 -0.1704 -0.2524 -0.2278
 4366W        W 8430   7.610   8.729   0.031 -0.1322 -0.0587  0.1090
 4367W        W 8431   8.287   9.604   3.680 -0.2035 -0.0313  0.1982
 4368W        W 8432   6.028   2.672   2.496 -0.4022  0.0232  0.1275
 4369W        W 8433   2.368   9.534   1.661 -0.2149  0.1837 -0.3233
 4370W        W 8434   1.096   2.078   1.466 -0.0203 -0.0385 -0.2902
 4371W        W 8435   0.965   0.792  11.002 -0.0814 -0.0639  0.1677
 4372W        W 8436   4.504   0.326  10.714 -0.2395  0.0219 -0.0343
 4373W        W 8437   7.210   0.398   1.355 -0.2379  0.1905 -0.0165
 4374W        W 8438   2.173   8.306   8.252 -0.2039 -0.0325 -0.1979
 4375W        W 8439   5.568   4.003   0.627  0.2423  0.1480  0.2530
 4376W        W 8440   3.623   9.108   0.731  0.1513 -0.1588  0.3270
 4377W        W 8441   9.982   8.682  10.424  0.2497  0.1003  0.0656
 4378W        W 8442   2.346   3.504   1.704  0.0576  0.4174  0.0750
 4379W        W 8443   4.244   1.283   2.687  0.0605  0.1548 -0.0226
 4380W        W 8444   8.846  10.381   1.672  0.0132  0.0108  0.2266
 4381W        W 8445   2.931   9.626   1.371 -0.2289 -0.1698 -0.2015
 4382W        W 8446   3.579   4.770   1.487 -0.0581  0.1382  0.1359
 4383W        W 8447   1.278   2.311   2.628 -0.1261  0.0887  0.1315
 4384W        W 8448   1.318   4.001  10.196 -0.1086  0.0580 -0.1328
 4385W        W 8449   5.508   5.628   4.114 -0.0700  0.3563  0.2443
 4386W        W 8450   5.835   7.278   2.548 -0.1066  0.0192 -0.0732
 4387W        W 8451   0.544   7.821   2.293 -0.1747 -0.1681 -0.3431
 4388W        W 8452  10.263  10.749   0.659  0.4955  0.0255  0.1561
 4389W        W 8453   7.300   2.156   7.633  0.1242 -0.2252  0.3152
 4390W        W 8454  10.281   4.478   2.029  0.4118  0.0804  0.1986
 4391W        W 8455   2.330   9.317   2.120 -0.1346  0.0530 -0.0626
 4392W        W 8456   8.900  10.766  10.672 -0.3287  0.0922  0.0614
 4393W        W 8457   6.867   4.957   3.873  0.0231  0.1013  0.0484
 4394W        W 8458   8.004   5.826   7.043  0.0168 -0.3759 -0.1844
 4395W        W 8459   1.544   4.266   9.775 -0.2544 -0.0617  0.2653
 4396W        W 8460   9.218   7.674   1.779  0.1055 -0.2321 -0.3089
 4397W        W 8461   8.281   9.771   2.128  0.0874  0.2296 -0.0046
 4398W        W 8462  10.476   8.519   1.485 -0.2526  0.4689  0.1308
 4399W        W 8463   1.865   9.019   8.052  0.1131 -0.1666 -0.0706
 4400W        W 8464   8.451   3.490   0.432  0.1680 -0.0164 -0.0967
 4401W        W 8465   6.745   0.833   9.760 -0.3767 -0.0619 -0.0508
 4402W        W 8466   1.724   5.262  10.590 -0.1314 -0.1060 -0.2221
 4403W        W 8467   5.716   7.986   8.308  0.0808 -0.0288  0.0312
 4404W        W 8468   5.912   8.311  10.057 -0.1772  0.0884  0.2195
 4405W        W 8469   4.713   5.183   2.070  0.1893 -0.0630 -0.2521
 4406W        W 8470   4.277   6.288   0.752  0.0926 -0.1592 -0.0785
 4407W        W 8471   4.469   3.754   0.734 -0.3485  0.0949  0.1414
 4408W        W 8472   3.192   5.332   3.529  0.1247  0.2256 -0.1816
 4409W        W 8473   2.465   5.192   9.516 -0.2284  0.0877 -0.0519
 4410W        W 8474   5.286   3.867   2.446 -0.1831  0.0858 -0.2747
 4411W        W 8475   4.008  10.699  10.181  0.2400  0.2391 -0.6012
 4412W        W 8476   9.101   5.668   8.509 -0.3580 -0.0302 -0.0294
 4413W        W 8477   3.198   1.255   7.790  0.0127 -0.0283  0.0696
 4414W        W 8478   5.149   1.491   0.252 -0.2029  0.3371 -0.2624
 4415W        W 8479   6.555   4.753  10.610  0.0521 -0.0191 -0.1515
 4416W        W 8480   6.152   1.089   0.988 -0.0445 -0.0850 -0.0170
 4417W        W 8481   6.731  10.105   2.001  0.0269  0.1606 -0.1489
 4418W        W 8482   4.033  10.021   2.493  0.2416  0.2547  0.3288
 4419W        W 8483   4.161   9.858  10.533  0.2121  0.4698 -0.1054
 4420W        W 8484   2.438   6.055   1.029  0.0176  0.1785  0.0938
 4421W        W 8485   2.841   1.347   2.794  0.0236  0.2075  0.0283
 4422W        W 8486   9.694   0.943   2.963  0.0094 -0.0518 -0.1611
 4423W        W 8487   6.917  10.170   8.438  0.0950 -0.0958  0.1884
 4424W        W 8488   0.742   0.784   1.379 -0.3697  0.1819 -0.0300
 4425W        W 8489   0.423   6.966   9.154  0.0465  0.2599  0.4134
 4426W        W 8490   1.193   2.840   9.959 -0.3453  0.3181 -0.0004
 4427W        W 8491   6.124   6.015   1.494 -0.0055  0.1034  0.2699
 4428W        W 8492   6.137   7.626   1.607 -0.1415  0.3602  0.2297
 4429W        W 8493   9.710  10.755   9.060  0.0788 -0.3629 -0.2704
 4430W        W 8494   2.350   5.115   3.241  0.1895  0.0720 -0.4399
 4431W        W 8495   8.410   1.797  10.375  0.0398  0.1284 -0.1291
 4432W        W 8496   3.849   3.025   2.457  0.1331  0.1695  0.0718
 4433W        W 8497   3.477  10.392   9.535 -0.2299  0.1220  0.0954
 4434W        W 8498   6.708   4.527   8.441 -0.0719 -0.2892  0.1852
 4435W        W 8499   5.400   0.306   1.831  0.2037 -0.2178 -0.1910
 4436W        W 8500   8.840   8.633   2.873  0.0078 -0.0429  0.1814
 4437W        W 8501   7.732   1.791   0.677 -0.1230  0.1190 -0.2764
 4438W        W 8502   3.787   1.514  10.970  0.0129  0.2366 -0.0076
 4439W        W 8503   3.914   0.723   9.165  0.0030 -0.1384 -0.1479
 4440W        W 8504   7.439   7.096   0.068  0.0924 -0.1477  0.0864
 4441W        W 8505  10.357   3.105   3.116  0.2414  0.0608 -0.7418
 4442W        W 8506   2.770   4.500   8.705 -0.3403  0.2564 -0.0902
 4443W        W 8507   7.525   4.511   8.153 -0.1287 -0.1240  0.1248
 4444W        W 8508   9.972   2.438   1.733  0.0289 -0.1726 -0.2464
 4445W        W 8509   9.532   7.405  10.227  0.1983  0.1743  0.0821
 4446W        W 8510   1.229   6.505   3.762  0.2905  0.0205 -0.0102
 4447W        W 8511   7.139  10.232   8.917  0.1140  0.1583  0.0096
 4448W        W 8512   7.583   4.577   2.376 -0.0081 -0.0551 -0.0007
 4449W        W 8513  10.565   2.518   1.633 -0.3219 -0.3325 -0.0109
 4450W        W 8514   5.856   4.756   1.580 -0.0926  0.0872  0.1478
 4451W        W 8515  10.174   0.133  10.213  0.1666 -0.1884  0.0590
 4452W        W 8516   8.472   6.563   3.583 -0.1494  0.0500  0.2053
 4453W        W 8517   9.809   2.665   0.443 -0.0752  0.0181 -0.0900
 4454W        W 8518   1.479   2.439   3.064  0.0079  0.0672 -0.0625
 4455W        W 8519   3.044   8.724   1.869  0.3563  0.0707  0.1079
 4456W        W 8520   2.684   9.602   8.089 -0.2366 -0.0048 -0.0673
 4457W        W 8521   5.120   7.481   0.454 -0.1700  0.0399  0.0586
 4458W        W 8522   7.401   3.165   2.545 -0.0009  0.1528  0.0810
 4459W        W 8523  10.236   1.312   8.246 -0.1648 -0.3075  0.1197
 4460W        W 8524   7.023   2.586   0.962  0.2544  0.1407  0.0815
 4461W        W 8525   6.586   6.795  10.098 -0.1240  0.3227  0.2507
 4462W        W 8526   7.485   6.794   0.531  0.2547 -0.5188  0.0038
 4463W        W 8527   4.072   4.036   0.572  0.0233 -0.2096  0.1035
 4464W        W 8528   7.824   2.691   1.653  0.1710  0.0016  0.0974
 4465W        W 8529   7.124   3.658   3.222 -0.1420 -0.1506 -0.4135
 4466W        W 8530   6.852   2.691   0.217  0.0028 -0.0621  0.0555
 4467W        W 8531   3.977   4.673   3.213 -0.1842 -0.2579 -0.1796
 4468W        W 8532   5.659   7.948   9.823 -0.0216  0.0847 -0.1105
 4469W        W 8533   0.763   2.898   8.686 -0.0593 -0.1530 -0.1556
 4470W        W 8534   9.765   0.598   7.319  0.1790  0.2345  0.2879
 4471W        W 8535   4.776   4.634   0.602  0.0508 -0.2382  0.1863
 4472W        W 8536   1.919   6.535   8.144 -0.2127  0.2241 -0.0221
 4473W        W 8537   9.310   8.188   9.182 -0.0359  0.0834  0.0609
 4474W        W 8538   4.692  10.106   1.552 -0.1732  0.1549 -0.0880
 4475W        W 8539   5.084   1.787   8.623  0.0142 -0.3398 -0.2328
 4476W        W 8540   2.382   0.357  10.808 -0.0501  0.1393  0.0894
 4477W        W 8541   5.348   4.096   1.645  0.1165  0.1862  0.0979
 4478W        W 8542   7.941   6.546  10.946 -0.0165 -0.0337  0.0755
 4479W        W 8543   6.904  10.719   0.346 -0.0821  0.0773  0.2569
 4480W        W 8544   7.762   3.814   0.840  0.0550  0.2392  0.2871
 4481W        W 8545   1.857  10.146  10.240 -0.0167 -0.1049  0.2507
 4482W        W 8546   4.469   6.244   9.458 -0.2880  0.0704  0.0650
 4483W        W 8547   2.954   3.349   7.404  0.2607 -0.0258  0.0124
 4484W        W 8548   1.445   2.743   3.417 -0.0452  0.0390  0.1232
 4485W        W 8549   8.253   5.292   0.792 -0.1195  0.0556  0.1776
 4486W        W 8550   8.137   5.025  10.391  0.0417 -0.0140 -0.3183
 4487W        W 8551   2.216   1.900   2.509  0.2738  0.2414  0.1474
 4488W        W 8552   8.217   7.977   2.527 -0.1991  0.1265 -0.0610
 4489W        W 8553   6.650   6.387   0.381 -0.1484  0.0685 -0.1138
 4490W        W 8554   0.424   5.813   1.303 -0.0710  0.1295  0.2845
 4491W        W 8555   9.293   5.985   0.337  0.1369 -0.2040 -0.2153
 4492W        W 8556   7.060   0.158   8.449  0.0516  0.0076 -0.0442
 4493W        W 8557   8.308   7.036   9.655 -0.2964 -0.1113  0.0015
 4494W        W 8558   3.884   5.218   0.760 -0.0074 -0.0048 -0.0889
 4495W        W 8559  10.111   1.083   9.697  0.3304 -0.0244 -0.3282
 4496W        W 8560   4.353  10.297  10.334  0.0499 -0.2855  0.0501
 4497W        W 8561   1.535   2.697  10.861  0.0753 -0.4399 -0.2329
 4498W        W 8562   8.774   3.803   9.348 -0.1615 -0.0561 -0.1497
 4499W        W 8563  10.375   9.575   0.670  0.3004 -0.2527  0.3140
 4500W        W 8564   8.596   1.628   2.758  0.1798 -0.2548 -0.0108
 4501W        W 8565   7.125   2.825   9.703 -0.2975  0.1140  0.1836
 4502W        W 8566   8.797   8.821  10.430  0.0627 -0.0640 -0.0359
 4503W        W 8567   6.700   3.193   8.612  0.0780 -0.1473  0.1200
 4504W        W 8568   5.014   6.930   7.512  0.1106  0.1528  0.2350
 4505W        W 8569   7.395   8.223   2.352  0.0533 -0.1515 -0.1318
 4506W        W 8570   6.798   7.622   0.464  0.0342 -0.1751 -0.0269
 4507W        W 8571   2.807   9.076   9.931 -0.1412 -0.0860  0.2439
 4508W        W 8572   3.968   3.587   8.110  0.1253 -0.2354 -0.1942
 4509W        W 8573   1.423   4.378   1.048 -0.1268  0.1569  0.4473
 4510W        W 8574   8.816   1.785  10.034 -0.0209  0.1390  0.5348
 4511W        W 8575   1.813   8.282   2.026 -0.3022 -0.2081  0.1785
 4512W        W 8576  10.837   2.922   7.318  0.3144  0.3511  0.0585
 4513W        W 8577   6.352   5.355  10.731 -0.2353 -0.1298 -0.0439
 4514W        W 8578   1.628   7.023   2.550 -0.1294 -0.1386  0.1977
 4515W        W 8579   4.231   7.916   0.694  0.2177  0.0052  0.1298
 4516W        W 8580   8.848   1.455   8.620  0.1691 -0.3884  0.0648
 4517W        W 8581   2.670   4.146   9.670  0.1301 -0.0542  0.0624
 4518W        W 8582   2.449   6.977  10.496 -0.1708 -0.1693 -0.0012
 4519W        W 8583   0.934   4.329   1.447 -0.0571  0.2275 -0.1491
 4520W        W 8584  10.128   2.680  10.627 -0.1051 -0.2381  0.0216
 4521W        W 8585   3.348   9.498   7.468  0.0357 -0.0991 -0.1289
 4522W        W 8586   1.425   2.980   8.187 -0.3294  0.1676  0.1523
 4523W        W 8587   2.174   9.391   8.195 -0.0452 -0.2293  0.1017
 4524W        W 8588   3.106   5.999   0.041 -0.1720 -0.1063  0.4271
 4525W        W 8589   0.007  10.010  10.547 -0.2622  0.1600 -0.0815
 4526W        W 8590   2.168   8.383   1.550  0.4982  0.1426 -0.0227
 4527W        W 8591   2.843   0.766   9.625 -0.1745  0.1826 -0.0611
 4528W        W 8592   3.602   9.503  10.015 -0.1197 -0.3010  0.3912
 4529W        W 8593   2.218   1.861   0.286  0.0758  0.0854  0.0670
 4530W        W 8594   0.548   2.628   0.492  0.1377  0.2510 -0.1539
 4531W        W 8595   7.026   6.133   2.651 -0.0941  0.0560 -0.0153
 4532W        W 8596   1.498   2.285   9.280  0.1701  0.1863 -0.2146
 4533W        W 8597   1.310   9.561  11.007 -0.0106 -0.2032  0.0119
 4534W        W 8598   2.863   2.112   8.122 -0.0798 -0.1458 -0.0934
 4535W        W 8599  10.256   3.580  10.882  0.2481  0.2178  0.3224
 4536W        W 8600   9.704   3.148  10.054 -0.1560 -0.2213 -0.0241
 4537W        W 8601   7.018   1.902   9.259 -0.0060 -0.0981 -0.1052
 4538W        W 8602   9.918   6.672   2.936  0.2625  0.0363  0.1443
 4539W        W 8603   9.778   1.243   8.689  0.0129 -0.1439  0.3091
 4540W        W 8604   2.460  10.898   2.437 -0.1287 -0.2653 -0.1297
 4541W        W 8605   9.679   4.979   3.117  0.1177 -0.0638  0.1413
 4542W        W 8606  10.755   8.326   3.093  0.1483 -0.0601  0.0799
 4543W        W 8607   6.197  10.629   7.451  0.0139  0.1346  0.1040
 4544W        W 8608  10.516   9.892   3.436 -0.2021  0.1737  0.0179
 4545W        W 8609   1.662  10.882   7.760 -0.1076 -0.0144 -0.0016
 4546W        W 8610  10.869   2.191   9.639 -0.0080 -0.1152 -0.2434
 4547W        W 8611  10.389   9.498   9.933 -0.1762 -0.0545 -0.4810
 4548W        W 8612   9.487  10.598   0.890 -0.2871  0.2491  0.2641
 4549W        W 8613   2.481   3.098   0.323  0.2978 -0.1525 -0.2364
 4550W        W 8614  10.372   4.837   9.453  0.0214 -0.3460 -0.1520
 4551W        W 8615  10.158   1.783   9.184 -0.0951 -0.0748  0.2017
 4552W        W 8616   6.436  10.499   3.266 -0.0174 -0.0707 -0.3007
 4553W        W 8617   5.170   8.126   0.723 -0.0661  0.0675 -0.0206
 4554W        W 8618  10.666   3.062   2.692  0.0165 -0.2522 -0.4164
 4555W        W 8619   6.127   2.293   8.322 -0.2121 -0.0788  0.1220
 4556W        W 8620   3.770   7.925   8.193 -0.0397  0.2152  0.2422
 4557W        W 8621   4.960   8.864   1.232 -0.2452  0.1502  0.1129
 4558W        W 8622   7.883   4.823   2.067 -0.0960 -0.2900  0.0463
 4559W        W 8623   2.347   3.890   1.360 -0.0571  0.1519  0.0116
 4560W        W 8624   7.950  10.004   0.013  0.1326 -0.4605  0.0197
 4561W        W 8625   9.978   6.480   1.212  0.2603  0.0713 -0.3236
 4562W        W 8626   5.044   9.388   8.418  0.0460  0.2580 -0.0950
 4563W        W 8627   4.148   5.328   8.103  0.2375 -0.0868  0.1649
 4564W        W 8628   2.449   3.810  10.372  0.2410 -0.4448 -0.0519
 4565W        W 8629   7.107   4.029   6.871 -0.2657 -0.2729  0.0595
 4566W        W 8630   3.258  10.063   9.162 -0.2305 -0.0025  0.1371
 4567W        W 8631   9.430   8.125  10.925 -0.2299  0.0492 -0.2775
 4568W        W 8632   3.784   6.704  10.427 -0.0244 -0.1070  0.0093
 4569W        W 8633   8.712   4.707   4.024  0.1283 -0.2720 -0.0063
 4570W        W 8634   0.564   5.973   7.834 -0.0063  0.2147 -0.0815
 4571W        W 8635   6.816   0.949   2.353  0.0120 -0.1974 -0.1348
 4572W        W 8636   4.082   6.637   1.106 -0.0364 -0.3274 -0.1582
 4573W        W 8637   4.675   9.754   3.364 -0.0640 -0.0586 -0.5138
 4574W        W 8638   8.065  10.639   1.639  0.1055  0.3723 -0.0602
 4575W        W 8639   8.518   0.821   1.273  0.4352 -0.0356  0.1564
 4576W        W 8640  10.474   1.383   9.062 -0.0449 -0.2289 -0.0317
 4577W        W 8641   8.677   4.235   2.436 -0.2024  0.2038  0.0039
 4578W        W 8642   3.095   2.620   7.770  0.0413  0.0479  0.2137
 4579W        W 8643   0.661   7.164   1.602 -0.0829  0.1139  0.2920
 4580W        W 8644   3.107   6.027   9.128 -0.1280 -0.1824  0.1580
 4581W        W 8645   8.617   7.066   3.702 -0.2554  0.1923  0.1510
 4582W        W 8646  10.534   1.110   1.714 -0.0390 -0.4044  0.1748
 4583W        W 8647   5.171   5.846   9.527  0.0539  0.0422  0.1194
 4584W        W 8648   3.905   0.424   8.744  0.0383 -0.0048 -0.1449
 4585W        W 8649   6.162   4.423   3.012  0.1582 -0.3563 -0.2147
 4586W        W 8650   9.997   4.913   2.406  0.1399 -0.0662  0.0651
 4587W        W 8651   0.591   7.695   0.584 -0.3178  0.1021  0.4560
 4588W        W 8652   3.519   7.461   7.682 -0.0083 -0.2171 -0.4346
 4589W        W 8653   2.965   3.768   1.441 -0.0929 -0.1125  0.1025
 4590W        W 8654   7.056   4.768   2.023  0.0989  0.0957  0.2031
 4591W        W 8655   1.781   0.263  10.338 -0.2806 -0.4058 -0.0724
 4592W        W 8656   9.567   2.757   9.016  0.1120  0.1546  0.1390
 4593W        W 8657   0.950   0.459  10.588 -0.3476 -0.1912 -0.1256
 4594W        W 8658   7.236   9.930   3.105 -0.0249 -0.1263 -0.0042
 4595W        W 8659   8.863  10.525   7.465  0.0015 -0.0496 -0.0287
 4596W        W 8660   3.493   4.911   3.385  0.0374 -0.2115 -0.3142
 4597W        W 8661   9.148   0.886   0.556 -0.0636  0.0979 -0.0043
 4598W        W 8662   5.102   6.008   0.527  0.0275 -0.0574  0.2558
 4599W        W 8663   5.111   8.624   9.509  0.1714 -0.0729 -0.0343
 4600W        W 8664   8.531   4.423   8.351  0.0315 -0.0208  0.0546
 4601W        W 8665   7.716   8.436   1.817 -0.1061 -0.3516 -0.0363
 4602W        W 8666   7.093   6.913   8.565  0.0517  0.1631  0.2519
 4603W        W 8667   0.018   4.359  10.031  0.1090 -0.2077  0.3796
 4604W        W 8668   9.705   8.365   8.752  0.1022  0.1277 -0.3727
 4605W        W 8669   2.562   7.067   1.456  0.4639 -0.1695 -0.0686
 4606W        W 8670   4.604   5.783  10.791  0.3449 -0.1343  0.0871
 4607W        W 8671   6.664   3.023   9.893  0.1469  0.2645  0.0054
 4608W        W 8672   0.071   2.793   0.490  0.1096 -0.1061 -0.2283
 4609W        W 8673   3.462   4.571   2.283 -0.1454 -0.1164  0.3527
 4610W        W 8674   4.760  10.449   8.171 -0.0345 -0.1964 -0.1209
 4611W        W 8675   8.272   6.887  10.892 -0.2233 -0.0625  0.0575
 4612W        W 8676   4.503   3.498   9.737 -0.0143  0.1231  0.1778
 4613W        W 8677   0.764   6.213   8.395 -0.1209  0.0581  0.2740
 4614W        W 8678   6.079  10.631   8.344 -0.0426  0.0716 -0.1786
 4615W        W 8679   1.487   2.245   9.809  0.2923 -0.0726 -0.1405
 4616W        W 8680   7.186   3.303   2.027 -0.0555  0.3253  0.1414
 4617W        W 8681   8.334   3.550   9.558 -0.0014 -0.1064  0.1642
 4618W        W 8682   3.871   9.028  10.110 -0.1260  0.1308 -0.1408
 4619W        W 8683   4.384   3.556   7.353  0.0770 -0.0663  0.0177
 4620W        W 8684   6.184   4.378  10.614  0.2182  0.0616  0.2733
 4621W        W 8685  10.086   8.338   9.095 -0.1335  0.1101  0.2222
 4622W        W 8686   4.535   1.407   0.967 -0.0173 -0.0140  0.1636
 4623W        W 8687   4.197   1.465   8.888  0.2011 -0.0662 -0.2829
 4624W        W 8688   1.450   6.025   1.352 -0.0417  0.0265 -0.1628
 4625W        W 8689   5.138   1.429   1.545  0.1211  0.1701  0.1444
 4626W        W 8690   0.627   6.791  10.054  0.2083  0.0923 -0.1615
 4627W        W 8691   1.988  10.387  10.676  0.2035  0.0718  0.3639
 4628W        W 8692   7.011   8.278  10.193  0.0295  0.0105 -0.0786
 4629W        W 8693   5.404   6.283  10.689  0.0553  0.1494 -0.0508
 4630W        W 8694   6.694   4.137   8.103  0.1477  0.0786  0.0213
 4631W        W 8695   8.295   9.670  10.843  0.5037 -0.0074  0.3752
 4632W        W 8696   7.983   8.281   7.967 -0.0270  0.0873  0.3586
 4633W        W 8697   6.760  10.867   9.959  0.2638 -0.2016  0.5169
 4634W        W 8698   7.760   1.032   2.407 -0.2004  0.0965  0.2041
 4635W        W 8699   4.771   6.902   2.457  0.0962  0.1648 -0.0187
 4636W        W 8700   1.714   1.823   9.506 -0.0630 -0.0661 -0.0369
 4637W        W 8701   1.318   4.652   1.436 -0.2551 -0.1696  0.1280
 4638W        W 8702   3.848   1.069   2.465 -0.2036 -0.0744 -0.1691
 4639W        W 8703   4.407   3.750  10.796  0.2773  0.2131  0.3199
 4640W        W 8704   3.790   5.194   3.093 -0.0422  0.1530  0.1142
 4641W        W 8705   8.824   7.566   9.120 -0.1753  0.0486  0.1472
 4642W        W 8706   7.870   5.207   2.513 -0.2567 -0.1801 -0.1485
 4643W        W 8707   2.552  10.501   1.580 -0.1431  0.4984  0.1013
 4644W        W 8708   0.307   3.148   7.117  0.0885 -0.0561  0.0224
 4645W        W 8709   7.625   5.879  10.477  0.1443 -0.1372  0.0991
 4646W        W 8710   0.966   4.112   1.883  0.1187  0.0589 -0.2248
 4647W        W 8711  10.171   7.852   9.143  0.1341  0.1780 -0.0647
 4648W        W 8712   8.478   4.654   7.888  0.0614 -0.1088  0.0459
 4649W        W 8713   0.981   4.483   9.032 -0.1275 -0.1874  0.2483
 4650W        W 8714   1.906   0.216   8.203 -0.2017  0.2167  0.0564
 4651W        W 8715   3.076   7.325   1.278 -0.1343 -0.0632 -0.3763
 4652W        W 8716   5.832   2.111   2.207  0.0991 -0.3631  0.0483
 4653W        W 8717   5.052   5.528   0.625  0.0499 -0.3663 -0.1238
 4654W        W 8718   9.616   7.857   7.810  0.1325  0.1838  0.0358
 4655W        W 8719   9.076   8.062  10.566 -0.4961  0.2557 -0.3710
 4656W        W 8720   8.256   5.055   9.190 -0.1621 -0.3796  0.3007
 4657W        W 8721   3.515   6.519   1.288  0.0564 -0.1752  0.0408
 4658W        W 8722   4.830   9.994   0.591 -0.1884 -0.0358  0.1919
 4659W        W 8723   1.778   0.016   1.568  0.2605  0.3014  0.2137
 4660W        W 8724  10.234   8.138   1.937 -0.1883  0.1098 -0.1806
 4661W        W 8725   2.335   8.878   9.669 -0.0295  0.0554 -0.1455
 4662W        W 8726   7.584   7.289   0.767 -0.2331  0.0362 -0.1868
 4663W        W 8727   2.352   8.789   1.335  0.1941 -0.0196  0.2479
 4664W        W 8728   4.801  10.240  10.097  0.1518 -0.2794 -0.3206
 4665W        W 8729   4.750   8.208   9.809  0.1899 -0.1661  0.0654
 4666W        W 8730   2.659   3.089   9.996 -0.1756  0.0145  0.0008
 4667W        W 8731   8.540   4.977   4.801 -0.0121  0.1488 -0.3398
 4668W        W 8732   3.404   5.476   7.933  0.1995 -0.1185 -0.0779
 4669W        W 8733   5.646  10.842   8.244 -0.1213  0.2023 -0.1731
 4670W        W 8734   8.106   5.217   4.387  0.0918 -0.0974 -0.1640
 4671W        W 8735   2.594   5.894   2.467  0.2432 -0.2812  0.3253
 4672W        W 8736   0.286  10.753   7.926 -0.0113 -0.1498  0.1687
 4673W        W 8737   5.977   4.350   0.456  0.0216  0.3189  0.1895
 4674W        W 8738   7.828   0.470   1.919 -0.1027 -0.2729 -0.0209
 4675W        W 8739   2.769   8.200   2.751  0.0333  0.0181 -0.1568
 4676W        W 8740   7.668   8.423   3.872 -0.1738  0.3368  0.0721
 4677W        W 8741   4.101   7.893   7.372  0.0438  0.1599  0.1071
 4678W        W 8742   3.851   4.939   2.258  0.4385 -0.2906 -0.2005
 4679W        W 8743   1.766   4.495   9.404 -0.2053 -0.4349  0.0275
 4680W        W 8744   7.274  10.601   9.775 -0.1915  0.0620 -0.0249
 4681W        W 8745   7.175   8.041   8.106 -0.2955 -0.2307 -0.1360
 4682W        W 8746   1.160   4.720  10.552 -0.4299  0.2804  0.0160
 4683W        W 8747   1.506   8.403   2.366  0.1411 -0.3437 -0.0664
 4684W        W 8748   0.319   3.242   8.914 -0.0231 -0.4291 -0.2811
 4685W        W 8749   9.495   2.365   0.156 -0.1378 -0.0257 -0.0495
 4686W        W 8750   7.153   4.252   8.340  0.0529 -0.2430 -0.3446
 4687W        W 8751   7.510   7.476   2.170  0.1959 -0.0402  0.0986
 4688W        W 8752   3.564   0.085  10.325  0.1891  0.1669 -0.4400
 4689W        W 8753   5.221   5.488   1.141 -0.1663 -0.0951 -0.0054
 4690W        W 8754   7.775   2.120   7.359 -0.0838 -0.2231 -0.1178
 4691W        W 8755   9.207   5.548   3.100  0.0625  0.2137  0.0102
 4692W        W 8756   6.894   9.299   2.557  0.0600  0.1854  0.1080
 4693W        W 8757   2.584   1.728   3.338  0.0841 -0.4138  0.4369
 4694W        W 8758   5.979   3.084   2.829 -0.1010 -0.0857 -0.0216
 4695W        W 8759   1.175   7.697   3.979  0.4267 -0.0132  0.4571
 4696W        W 8760   0.489   5.538   2.724  0.1035  0.1316  0.1597
 4697W        W 8761   7.983   5.775   2.554 -0.0083 -0.2091  0.1675
 4698W        W 8762   6.367   9.187   2.094  0.2562 -0.2861 -0.3489
 4699W        W 8763  10.502   4.666  10.051  0.0557  0.1412  0.1545
 4700W        W 8764   4.181   2.643   8.228  0.1205 -0.2948 -0.0164
 4701W        W 8765   3.502   0.010   9.473  0.6208 -0.1308  0.0920
 4702W        W 8766   2.160   5.510   1.520 -0.0235 -0.0906 -0.0210
 4703W        W 8767   0.667   6.771   0.351 -0.2576  0.1107  0.0204
 4704W        W 8768   5.786   6.614   9.849  0.3574 -0.3172 -0.0126
 4705W        W 8769   3.752   5.758   8.306 -0.0237  0.0876 -0.0563
 4706W        W 8770   2.388   5.973   2.022  0.2654 -0.1670 -0.0755
 4707W        W 8771   3.778   8.813   8.717  0.3887 -0.2381 -0.0745
 4708W        W 8772   1.224   9.827   2.874 -0.0912  0.3186  0.0261
 4709W        W 8773   8.534  10.822   1.700 -0.2375 -0.2126  0.0369
 4710W        W 8774   7.014   5.198  10.072 -0.1674  0.1404  0.0910
 4711W        W 8775   1.939   6.888   3.270  0.0604 -0.1998 -0.1748
 4712W        W 8776   3.840  10.884   9.051 -0.0437  0.3437  0.0971
 4713W        W 8777   9.436   7.228   1.675 -0.0496  0.0500  0.1165
 4714W        W 8778   5.980   0.264   9.316  0.0024 -0.2566 -0.0860
 4715W        W 8779   8.407   2.199   1.063  0.2554  0.1998 -0.1197
 4716W        W 8780   8.646   0.389   8.932  0.2297 -0.1074  0.0362
 4717W        W 8781   6.225  10.499   9.282  0.1549  0.0182 -0.0732
 4718W        W 8782   8.345   8.506   8.349  0.1179 -0.1464  0.0428
 4719W        W 8783   7.908   6.811   9.752 -0.1560  0.0606  0.1576
 4720W        W 8784   8.195   1.343  10.547  0.0751  0.3462  0.1293
 4721W        W 8785   7.190   2.403   8.442 -0.0811  0.1400 -0.0562
 4722W        W 8786  10.326   8.788   2.729  0.2786 -0.3389 -0.0684
 4723W        W 8787   5.729   7.737   1.300  0.1251 -0.0630 -0.0986
 4724W        W 8788   9.513   6.037   8.013 -0.0457 -0.0700  0.0146
 4725W        W 8789   3.797   3.482   2.769  0.0406 -0.1042 -0.1236
 4726W        W 8790   5.285  10.322   9.225  0.1426 -0.1129 -0.1439
 4727W        W 8791   3.847   5.738   2.878 -0.1107  0.0858 -0.3739
 4728W        W 8792   6.398   5.630   2.763 -0.0227 -0.0926 -0.0001
 4729W        W 8793   7.551   7.480   1.656  0.0764 -0.2354 -0.1301
 4730W        W 8794   2.720   4.995   2.816  0.0367 -0.0410  0.1159
 4731W        W 8795  10.731   5.588   8.172 -0.1059 -0.2264 -0.0090
 4732W        W 8796   6.021   9.743   0.450  0.0186  0.2496 -0.3378
 4733W        W 8797  10.461   1.735  10.855  0.0069 -0.3976  0.0086
 4734W        W 8798   3.577   7.589   2.850 -0.2583  0.1187  0.0901
 4735W        W 8799   5.932   3.532   7.623  0.0976 -0.4239 -0.2762
 4736W        W 8800   7.825   0.568   0.100 -0.2682  0.1120 -0.0425
 4737W        W 8801   7.387   4.158   1.470  0.0851 -0.2141  0.0362
 4738W        W 8802   5.506   4.591   7.699  0.3260  0.2570  0.3988
 4739W        W 8803   2.291   4.900   1.440 -0.5753  0.1029 -0.0064
 4740W        W 8804   5.668   6.024   1.286 -0.1637 -0.1102 -0.0974
 4741W        W 8805   5.204   5.968   1.071 -0.2605  0.2087  0.1598
 4742W        W 8806   4.769   6.262   9.036 -0.2951  0.0290 -0.1421
 4743W        W 8807   6.891   5.973   0.561 -0.0368  0.2995 -0.2404
 4744W        W 8808   2.860   8.031   8.051  0.0351 -0.1748 -0.1797
 4745W        W 8809   9.672   4.759   7.690 -0.4181 -0.0720 -0.1674
 4746W        W 8810   5.589  10.074   7.863 -0.1013 -0.1919  0.1204
 4747W        W 8811   1.675   8.367   2.894  0.0295  0.1777 -0.0366
 4748W        W 8812   0.541   7.471   8.501  0.3536 -0.1308 -0.0286
 4749W        W 8813   1.780   0.464   7.810 -0.0520 -0.2620 -0.0088
 4750W        W 8814   6.851   8.072   2.305 -0.1361 -0.2292 -0.0233
 4751W        W 8815  10.670   6.356   0.150  0.0954 -0.0233  0.2932
 4752W        W 8816   7.936   0.852   9.639 -0.0740  0.2201 -0.2433
 4753W        W 8817   3.437  10.139   8.589  0.2924 -0.0300 -0.1777
 4754W        W 8818   7.913   4.496   8.508  0.0241 -0.1461 -0.1180
 4755W        W 8819   8.780   9.391   8.143 -0.0294  0.0051  0.4028
 4756W        W 8820   0.881  10.894   0.483  0.1773  0.0088  0.0524
 4757W        W 8821  10.706   4.991   2.502  0.1665  0.1338 -0.0014
 4758W        W 8822   1.897   7.912   1.736 -0.0568  0.2469 -0.2472
 4759W        W 8823   5.899   9.620   3.203  0.1087  0.1295 -0.0484
 4760W        W 8824  10.024   8.758   7.099  0.1396 -0.0361  0.2918
 4761W        W 8825  10.183   8.118   8.691  0.0323 -0.0514 -0.1810
 4762W        W 8826   5.504   3.893   0.042  0.1009 -0.0189  0.0996
 4763W        W 8827   0.768   9.603   7.000  0.2973  0.2553 -0.1212
 4764W        W 8828   4.988   9.552   0.854  0.1829 -0.3321 -0.0914
 4765W        W 8829   0.075   5.859   7.828  0.0439 -0.0364 -0.1255
 4766W        W 8830   4.765   4.989  10.385  0.0899 -0.2813 -0.0612
 4767W        W 8831   7.345   0.298   2.777 -0.0247  0.0546  0.0137
 4768W        W 8832   1.255   5.767   2.739  0.2257 -0.1800  0.0292
 4769W        W 8833   0.662   5.981   0.852 -0.3011  0.0512 -0.6687
 4770W        W 8834   5.302   2.814  10.533 -0.0282  0.1153 -0.1694
 4771W        W 8835   7.953   6.114   2.973 -0.1301 -0.1708  0.0722
 4772W        W 8836   1.093   9.502   4.036  0.4867 -0.0180  0.2268
 4773W        W 8837  10.053   5.644   3.164 -0.0883  0.0670  0.1318
 4774W        W 8838   3.462   8.070  10.384 -0.0633  0.1112 -0.0761
 4775W        W 8839   2.327   1.512   8.090  0.0525 -0.0142  0.0223
 4776W        W 8840   1.914   4.053   2.069  0.0944 -0.0676  0.2696
 4777W        W 8841   0.079   7.306  10.461 -0.2765  0.0584 -0.1485
 4778W        W 8842   4.297   3.195   8.383  0.1182  0.1422 -0.0191
 4779W        W 8843   7.944   2.678   3.086  0.1010 -0.0035  0.0241
 4780W        W 8844   6.973   8.323   9.395  0.1213  0.2538  0.0056
 4781W        W 8845  10.111   1.288  10.176  0.1711  0.1978  0.0153
 4782W        W 8846  10.247   6.978   2.007 -0.1322  0.1890 -0.1317
 4783W        W 8847   9.029   4.568   0.182  0.1264  0.1126 -0.0025
 4784W        W 8848   6.277   5.292   3.111  0.1666 -0.1041 -0.1610
 4785W        W 8849   2.861   4.553  10.961  0.2615  0.1293  0.0950
 4786W        W 8850   6.715   9.799   7.592 -0.3598  0.1098 -0.0179
 4787W        W 8851   0.108   8.958   8.261 -0.2108 -0.2951  0.4735
 4788W        W 8852   0.008   4.961   9.363 -0.2076  0.4660  0.1858
 4789W        W 8853   9.476   6.423   9.153 -0.1578 -0.1295  0.0462
 4790W        W 8854   4.042   2.550   1.534 -0.1704 -0.1010 -0.0764
 4791W        W 8855   6.422   6.744   2.763  0.0742  0.1138 -0.1248
 4792W        W 8856  10.842  10.159   8.869  0.1061  0.1909  0.2651
 4793W        W 8857   1.122   3.032  10.899 -0.1515 -0.2749  0.1368
 4794W        W 8858   2.621   8.499   1.808  0.0499  0.0936  0.1074
 4795W        W 8859   3.074   5.702   7.696  0.2546  0.0709 -0.2007
 4796W        W 8860   8.667   0.017   3.001  0.0497  0.3549  0.2182
 4797W        W 8861   1.985   2.197   2.084 -0.1564 -0.2308 -0.0227
 4798W        W 8862   4.368   9.905   8.637  0.2297  0.2595  0.0741
 4799W        W 8863   5.369  10.395   0.341  0.1253  0.1645  0.1646
 4800W        W 8864   0.078   4.425   9.101  0.0396 -0.0499  0.1070
 4801W        W 8865   3.030   8.966   8.060  0.1429 -0.0932 -0.0066
 4802W        W 8866   5.622   5.226  10.687 -0.2001 -0.1117 -0.1016
 4803W        W 8867   8.675   5.108   2.860 -0.1022 -0.2927  0.0141
 4804W        W 8868  10.901   3.874   3.284  0.3084 -0.0928  0.1948
 4805W        W 8869   8.537   0.168   2.493  0.0303 -0.3213  0.0970
 4806W        W 8870   8.777   6.640  10.258 -0.2591  0.2442  0.2064
 4807W        W 8871   7.141  10.708   1.773  0.4590 -0.1757 -0.2187
 4808W        W 8872  10.172   0.889   0.810  0.1054 -0.1606  0.0757
 4809W        W 8873   6.592   1.490   8.703 -0.2451  0.0167  0.0866
 4810W        W 8874   3.454   9.008   7.818  0.7707  0.1532  0.0860
 4811W        W 8875   7.626   9.763   1.070  0.3054  0.2445  0.3263
 4812W        W 8876   2.817   1.595   1.497 -0.1272  0.1205  0.0652
 4813W        W 8877   9.473  10.145   7.872  0.2474  0.3066  0.1657
 4814W        W 8878   8.956   3.455   9.638 -0.0582  0.0214 -0.4020
 4815W        W 8879   4.509   0.654   3.521  0.1665 -0.0914 -0.1532
 4816W        W 8880   3.385   7.078   4.229  0.0774 -0.1953 -0.0518
 4817W        W 8881   9.320   5.306   9.696 -0.2659 -0.1960 -0.2395
 4818W        W 8882   5.496   6.402   1.052 -0.1709 -0.1393  0.1693
 4819W        W 8883   2.471   5.434   2.258  0.1279  0.0362 -0.0110
 4820W        W 8884   1.165   3.926   2.763 -0.1721  0.0114  0.2321
 4821W        W 8885   5.418   9.061   0.246 -0.0648  0.0644 -0.2089
 4822W        W 8886   4.068   3.968  10.474  0.1073 -0.1483 -0.1629
 4823W        W 8887   3.468   8.512   1.531 -0.0701  0.0352 -0.0144
 4824W        W 8888   8.729   3.835   1.220 -0.2206 -0.0454  0.1168
 4825W        W 8889   2.058   6.997   1.590 -0.0950 -0.0121 -0.0425
 4826W        W 8890   0.487   9.940   0.293  0.3234  0.1062 -0.3388
 4827W        W 8891   8.073   0.649   0.631 -0.4536  0.0224 -0.2762
 4828W        W 8892   8.521   3.035   0.671 -0.0568 -0.0541  0.1730
 4829W        W 8893   1.062   3.590  10.842 -0.4952  0.2448  0.0692
 4830W        W 8894  10.754   8.599   7.948  0.2136  0.0253 -0.1789
 4831W        W 8895   0.212   3.494   1.636 -0.2358 -0.0913  0.2613
 4832W        W 8896   7.459   8.746   0.828  0.1040 -0.2862 -0.0389
 4833W        W 8897   6.515   1.967   2.978 -0.0570  0.1159  0.0624
 4834W        W 8898   2.892   7.410   8.696  0.0253  0.1640 -0.1094
 4835W        W 8899   8.094   1.813  10.799 -0.1184 -0.0929  0.3070
 4836W        W 8900  10.662   8.346   0.226 -0.0223  0.0004  0.0542
 4837W        W 8901   2.459   6.648  10.859 -0.4672 -0.0565  0.2053
 4838W        W 8902   5.746  10.219   9.905  0.0437  0.0903  0.0365
 4839W        W 8903  10.301   3.898   9.499 -0.0144  0.1095 -0.0088
 4840W        W 8904  10.620   5.580  10.683 -0.2012  0.0335  0.2125
 4841W        W 8905   1.799   3.469   0.793 -0.1661 -0.2404 -0.3015
 4842W        W 8906  10.387   5.356   2.423  0.0866 -0.4767 -0.0551
 4843W        W 8907   5.022   6.422   1.058 -0.0116 -0.0164  0.0067
 4844W        W 8908   2.158   4.319   3.023 -0.0398  0.0804 -0.1510
 4845W        W 8909  10.570  10.106   9.318  0.2229  0.2301 -0.0084
 4846W        W 8910   0.278  10.220  10.971  0.2386  0.3696  0.0850
 4847W        W 8911  10.110  10.660   8.662  0.0214 -0.0082  0.2646
 4848W        W 8912  10.620   8.933   3.210 -0.1364 -0.0662  0.0158
 4849W        W 8913   2.496   2.458   1.144 -0.2279  0.1562  0.1043
 4850W        W 8914   9.703   4.882  10.565  0.2886 -0.1615 -0.1244
 4851W        W 8915   5.795   1.657   7.779 -0.2796  0.0618  0.2369
 4852W        W 8916   9.977   0.136   4.094 -0.0085 -0.0487 -0.5282
 4853W        W 8917   6.875   4.493   0.058  0.0653  0.2249  0.0929
 4854W        W 8918   6.233   4.803   0.964 -0.2134  0.1084  0.1992
 4855W        W 8919   6.264   7.166   8.791  0.1725  0.0680  0.1634
 4856W        W 8920   5.139   2.598  11.045 -0.2352  0.1504  0.1133
 4857W        W 8921   5.802   5.010   9.342 -0.0252 -0.0670  0.3265
 4858W        W 8922   5.286   8.136   9.019  0.0423  0.0572  0.1482
 4859W        W 8923   3.378   8.756   3.078  0.1526 -0.2349 -0.2007
 4860W        W 8924   1.543   3.821  10.609  0.1907 -0.3708  0.0309
 4861W        W 8925   1.064  10.714   1.338  0.0607 -0.1309 -0.1109
 4862W        W 8926   2.147  10.902  10.035  0.2423  0.0153  0.1091
 4863W        W 8927   4.171   6.388  10.445 -0.1179 -0.0988  0.2339
 4864W        W 8928   1.679   3.779   9.973 -0.1026  0.1080  0.0013
 4865W        W 8929   2.968   2.756   0.835 -0.2412 -0.2269  0.2446
 4866W        W 8930  10.119   5.704   2.660 -0.2039  0.0720 -0.2784
 4867W        W 8931   4.932   6.404   8.485 -0.1509  0.0026  0.4623
 4868W        W 8932   5.979   0.103   0.461 -0.1410  0.0222  0.0862
 4869W        W 8933   8.981   5.167  10.649 -0.1288 -0.1930  0.1523
 4870W        W 8934   1.656   6.938   0.131  0.1992  0.4662  0.4943
 4871W        W 8935   8.056   7.573   8.499 -0.0220 -0.2155  0.0716
 4872W        W 8936   6.091   1.223   9.576  0.3588 -0.0472  0.1802
 4873W        W 8937   9.355   0.054   0.562 -0.1760  0.2511  0.1214
 4874W        W 8938   5.009   7.712  11.041  0.1857  0.0579  0.1983
 4875W        W 8939   7.545   0.224   8.368  0.0095 -0.0723  0.0850
 4876W        W 8940   6.876   5.611   1.475 -0.0842  0.0534  0.0804
 4877W        W 8941   8.066   7.645   9.082  0.2252 -0.1027  0.0984
 4878W        W 8942   2.565   0.242   1.128 -0.0949 -0.1229 -0.0238
 4879W        W 8943   9.409   2.796   0.672  0.7147  0.1737  0.2650
 4880W        W 8944   0.312   8.056   7.890 -0.1893 -0.2065 -0.0461
 4881W        W 8945   4.468   4.700   3.478  0.1481  0.0104 -0.3161
 4882W        W 8946   6.620   7.139   2.212  0.0533 -0.1552  0.0511
 4883W        W 8947   9.612   1.585   1.202  0.0453 -0.3426  0.1343
 4884W        W 8948   6.393   0.478   9.151 -0.2225  0.1385 -0.2240
 4885W        W 8949   4.995  10.021   2.044 -0.1164  0.2624 -0.0419
 4886W        W 8950   1.387   4.038   9.093  0.1398  0.2045  0.4240
 4887W        W 8951   4.512   0.328   0.868 -0.1011 -0.1429 -0.1137
 4888W        W 8952  10.490   4.772   1.182  0.4387  0.3206 -0.0098
 4889W        W 8953   0.590   1.497  10.695 -0.0447 -0.0656  0.3195
 4890W        W 8954   2.976   2.542  10.827  0.1228 -0.1313 -0.2087
 4891W        W 8955   0.701   3.899  10.780  0.0939 -0.2825  0.0928
 4892W        W 8956   4.740   8.067   8.479  0.0061  0.0881 -0.0129
 4893W        W 8957   7.572  10.666   8.158 -0.0913  0.2409  0.3168
 4894W        W 8958   0.440   8.907   2.458  0.0536 -0.1096  0.2993
 4895W        W 8959   9.910   2.145   7.969  0.4476  0.1862 -0.0034
 4896W        W 8960  10.574   4.628   1.647 -0.0438  0.0178 -0.2230
 4897W        W 8961   4.846   6.397   2.344  0.1445 -0.3676  0.1140
 4898W        W 8962   2.993   0.708   1.383  0.1342 -0.2197 -0.2140
 4899W        W 8963   3.339   4.854   0.009  0.1236  0.0307 -0.2409
 4900W        W 8964   4.830   2.562  10.645  0.0498  0.3770 -0.5982
 4901W        W 8965   5.487   4.026   1.153  0.0934  0.0134 -0.0653
 4902W        W 8966   4.234   5.281   2.107 -0.0414 -0.0586  0.1703
 4903W        W 8967   3.291   5.074   2.428 -0.1123  0.1824  0.0357
 4904W        W 8968   8.426  10.634   7.170 -0.0093  0.1578 -0.0970
 4905W        W 8969   0.107   6.564   2.230  0.1907 -0.2479 -0.0009
 4906W        W 8970   4.384  10.749   8.364  0.1288  0.1885 -0.0460
 4907W        W 8971   7.045   4.217   9.550 -0.1629 -0.1313 -0.4325
 4908W        W 8972   0.594   1.285   7.434 -0.0306 -0.1415 -0.1990
 4909W        W 8973   3.841   9.831   0.290  0.1601 -0.1369  0.2095
 4910W        W 8974   9.429   2.359   1.586  0.0198 -0.1447 -0.2098
 4911W        W 8975   1.665   6.859   1.882 -0.2648 -0.0580  0.0181
 4912W        W 8976   7.308   9.425   3.435  0.0346  0.0040 -0.2180
 4913W        W 8977   8.763   0.859   3.572  0.0872  0.0923  0.2256
 4914W        W 8978   4.902  10.482   1.985  0.0719 -0.1238  0.2862
 4915W        W 8979   3.336   3.676  10.025 -0.1500  0.0748 -0.1137
 4916W        W 8980   6.498   2.044   9.375 -0.3388  0.1242  0.0673
 4917W        W 8981   8.315   0.123   0.913  0.2960 -0.0124  0.1727
 4918W        W 8982   0.648   0.617   2.146 -0.2816 -0.4037 -0.1603
 4919W        W 8983   5.756   9.915   3.975 -0.0268 -0.2155  0.1539
 4920W        W 8984   9.925   2.839   7.700  0.2518 -0.1006 -0.1075
 4921W        W 8985   3.652  10.023   2.134  0.2727  0.1377 -0.0711
 4922W        W 8986   1.205   6.841   1.691  0.1185  0.3655 -0.2459
 4923W        W 8987   7.705   2.352   8.405 -0.0056  0.2024  0.0075
 4924W        W 8988   5.299   7.486   1.422 -0.1300 -0.1848 -0.0192
 4925W        W 8989   6.145   8.840   8.346  0.2532 -0.0426 -0.3415
 4926W        W 8990   9.513   0.019   2.666 -0.1787 -0.0760  0.2026
 4927W        W 8991   4.838   6.637   1.501  0.0935  0.0199 -0.0099
 4928W        W 8992   4.032   4.123   0.057 -0.1754 -0.0820 -0.3164
 4929W        W 8993   2.002   1.861   3.678 -0.1387 -0.0250 -0.1524
 4930W        W 8994   5.007   9.122  10.987  0.0064  0.1214  0.1636
 4931W        W 8995   7.443   4.901   7.226 -0.1251  0.0698 -0.0805
 4932W        W 8996   3.341   4.497  10.738  0.3426  0.1720 -0.2762
 4933W        W 8997   0.105   1.870   1.206 -0.0548  0.0600  0.0282
 4934W        W 8998  10.158   9.258   1.009  0.0198  0.1115 -0.0002
 4935W        W 8999   9.341   2.873   1.251  0.0702  0.2532  0.0996
 4936W        W 9000   3.815   8.036   1.013  0.0448 -0.0490  0.0328
 4937W        W 9001   4.430   3.661   8.270  0.2057  0.0440  0.2793
 4938W        W 9002   6.564   3.873   2.065  0.2386  0.2393 -0.0383
 4939W        W 9003   7.676   4.975   4.388  0.1348  0.0436  0.0118
 4940W        W 9004   6.405   4.608  10.063 -0.2753  0.0733 -0.0148
 4941W        W 9005   3.583   4.779   8.629  0.2790 -0.1039 -0.0504
 4942W        W 9006   6.435   9.971  10.816 -0.0312  0.0063 -0.0165
 4943W        W 9007   6.065  10.444   1.175  0.1346 -0.2014  0.0444
 4944W        W 9008   7.198   9.689   2.531 -0.1533 -0.0055 -0.1270
 4945W        W 9009   2.230   4.532   1.928 -0.1724  0.0895  0.4033
 4946W        W 9010   3.255   8.172  10.884  0.2504  0.2122  0.2891
 4947W        W 9011   6.347   0.309   3.772  0.1710 -0.1309  0.2800
 4948W        W 9012   5.264   8.239  10.711  0.2095 -0.5043  0.0746
 4949W        W 9013   1.954   6.141   1.216 -0.2053  0.1147  0.1009
 4950W        W 9014   9.600   0.675   6.860  0.0615  0.2236 -0.2383
 4951W        W 9015   4.964   2.719   1.925 -0.1593  0.1432 -0.0964
 4952W        W 9016   2.005   1.374   1.881  0.1579  0.0495 -0.2378
 4953W        W 9017   6.775   7.592   7.394 -0.0318  0.0263  0.4653
 4954W        W 9018   4.683   8.214   7.981  0.3746  0.4354  0.0242
 4955W        W 9019   4.596  10.346   2.598  0.2211 -0.2789 -0.0267
 4956W        W 9020   6.931   5.318   1.881 -0.2839  0.0826  0.2431
 4957W        W 9021   7.868  10.735   8.692  0.1289  0.2276 -0.3137
 4958W        W 9022   5.294   0.843   0.860 -0.0783 -0.3146 -0.1313
 4959W        W 9023   4.749   5.183   0.314 -0.3969 -0.0683 -0.0118
 4960W        W 9024   5.158   5.686   9.016  0.0540  0.1010  0.3270
 4961W        W 9025   2.192   5.464   9.869  0.2006  0.0725  0.1736
 4962W        W 9026   9.505   0.480   3.474 -0.0793 -0.0331 -0.2155
 4963W        W 9027  10.301   0.096   2.006 -0.0245 -0.0610 -0.1780
 4964W        W 9028   8.506  10.483   9.956  0.0642 -0.0523  0.0728
 4965W        W 9029   7.785   6.529   8.327 -0.1207  0.3928  0.2152
 4966W        W 9030   0.205   5.255   8.083 -0.0282  0.0951 -0.2259
 4967W        W 9031   8.151   5.937   0.220  0.0591 -0.2685  0.3634
 4968W        W 9032  10.578   7.693   9.452  0.1985 -0.0337 -0.1191
 4969W        W 9033   6.551   3.601   9.300 -0.3742 -0.0809  0.1286
 4970W        W 9034   0.052   7.659   0.549 -0.1419 -0.4550  0.2074
 4971W        W 9035   1.758   0.713   9.410  0.1136 -0.0549 -0.2060
 4972W        W 9036   3.321   7.721   8.038  0.1677 -0.0281  0.0298
 4973W        W 9037   5.114   4.589   2.845 -0.0726  0.2462 -0.3471
 4974W        W 9038   1.454   0.896   7.857  0.0406 -0.3673 -0.2107
 4975W        W 9039   9.148   1.047   2.335 -0.1779  0.1688  0.0243
 4976W        W 9040   4.414   2.262   0.700 -0.0771 -0.0572  0.3268
 4977W        W 9041   6.640   4.984   2.218  0.0637  0.0683  0.0089
 4978W        W 9042   8.723   9.371   2.125  0.5761  0.0841 -0.0241
 4979W        W 9043   5.777   8.222  10.970  0.1542  0.0761 -0.0331
 4980W        W 9044   4.625   4.703   1.145  0.0926  0.0833  0.1799
 4981W        W 9045   3.749   2.971   1.279  0.2636  0.1353  0.2774
 4982W        W 9046  10.778   8.988   3.711 -0.0775  0.0339  0.1159
 4983W        W 9047   8.150   4.960   0.041 -0.0861  0.1257 -0.1245
 4984W        W 9048   9.394   8.281   1.695  0.0182  0.0992 -0.1363
 4985W        W 9049   3.067   9.686   2.633 -0.2056  0.0231  0.0350
 4986W        W 9050  10.608   0.921   7.571  0.3302  0.0053 -0.1195
 4987W        W 9051   9.826   8.508  10.898 -0.1657  0.4329 -0.3565
 4988W        W 9052   0.757   8.778  10.266 -0.0182  0.0281  0.0812
 4989W        W 9053   2.955   4.911  10.192 -0.5401  0.0729  0.0364
 4990W        W 9054   8.131   1.503   0.713  0.0391  0.1290 -0.1007
 4991W        W 9055   7.735   0.618   8.696  0.0212 -0.2147 -0.1851
 4992W        W 9056   6.159  10.857   0.006 -0.2588  0.1154  0.4144
 4993W        W 9057   0.006   8.676   0.582  0.0342 -0.0383  0.1504
 4994W        W 9058   3.105   0.843   9.217 -0.1110 -0.2148  0.1473
 4995W        W 9059  10.084   5.967   8.745  0.0214  0.3031 -0.1647
 4996W        W 9060   0.146   0.621   3.317  0.2059  0.3003  0.0849
 4997W        W 9061   3.107   2.124   0.133  0.1796  0.0714 -0.2711
 4998W        W 9062   6.783   9.649  10.983  0.3049 -0.0487 -0.1808
 4999W        W 9063   3.503   9.495   0.372  0.0655 -0.0268  0.0843
 5000W        W 9064   7.758   4.709  10.168  0.0785  0.4350  0.1606
 5001W        W 9065   3.137   4.279   0.255 -0.0274 -0.1381  0.0911
 5002W        W 9066   0.708   0.403   7.909  0.1412 -0.0464 -0.1363
 5003W        W 9067   2.968   8.046   2.341 -0.0316  0.2687 -0.0780
 5004W        W 9068   9.145   8.987   1.179 -0.0583 -0.2389 -0.1145
 5005W        W 9069   0.046   5.385   1.577 -0.1360 -0.1563  0.0331
 5006W        W 9070   5.850   7.368   0.883  0.1995  0.1158  0.0525
 5007W        W 9071   5.600   9.591   8.059  0.1401 -0.3822  0.2195
 5008W        W 9072   5.220   7.029   0.550  0.0266 -0.3233  0.3713
 5009W        W 9073   1.722   1.174   1.422  0.1689 -0.1294  0.0468
 5010W        W 9074   0.171   7.087   8.484 -0.0077 -0.0632 -0.0731
 5011W        W 9075  10.354   4.959   2.082 -0.2030 -0.0806 -0.0713
 5012W        W 9076  10.822   4.069   8.314 -0.3460 -0.2195  0.1462
 5013W        W 9077   1.898   4.198  10.152 -0.1240  0.1055 -0.0403
 5014W        W 9078   2.383   9.827   2.061  0.3176 -0.1115 -0.3191
 5015W        W 9079   5.032   5.401   8.489 -0.1890 -0.1626  0.0612
 5016W        W 9080   8.741   4.956   0.078  0.1148  0.1055 -0.1398
 5017W        W 9081  10.011   9.124   1.871 -0.0637  0.0842 -0.5597
 5018W        W 9082   5.673   1.603  10.253  0.3039 -0.3504  0.0727
 5019W        W 9083   2.870   4.898   3.259 -0.0785  0.0028  0.0568
 5020W        W 9084   5.297   2.340   1.309 -0.2654 -0.2242  0.1574
 5021W        W 9085   5.683   5.155   0.362 -0.1957  0.0580  0.0075
 5022W        W 9086   1.038   6.122   7.951  0.2712 -0.1225 -0.0734
 5023W        W 9087   1.930   5.172   0.313  0.1107  0.1584 -0.2429
 5024W        W 9088   2.138   3.219   3.002 -0.0982 -0.0476  0.2564
 5025W        W 9089   9.480   4.473   8.055  0.1689  0.0639 -0.0027
 5026W        W 9090   0.954   7.559   2.287  0.0241 -0.0036 -0.0098
 5027W        W 9091   8.565   8.091   3.517 -0.1021  0.3334 -0.3381
 5028W        W 9092   7.847   1.055   0.797 -0.1008 -0.5921  0.1902
 5029W        W 9093  10.533   0.043   7.833  0.3814  0.0191 -0.4536
 5030W        W 9094   0.511   2.352   1.971 -0.1533  0.2303 -0.1595
 5031W        W 9095  10.294   2.202   0.689 -0.0531 -0.0535 -0.0525
 5032W        W 9096   8.685   2.501   0.720  0.1261  0.2308  0.0333
 5033W        W 9097   1.200   6.757   1.174 -0.3889  0.0728 -0.0740
 5034W        W 9098   8.609   3.601  10.532  0.3256 -0.1707 -0.2482
 5035W        W 9099   4.627   8.632   2.513  0.0249 -0.1032 -0.0708
 5036W        W 9100   5.852   2.035   7.359 -0.3797 -0.0528 -0.1520
 5037W        W 9101   8.651   4.268   1.937  0.2637  0.3343 -0.1301
 5038W        W 9102   7.955   5.551  11.001 -0.1098  0.0807 -0.1500
 5039W        W 9103  10.157   8.285   0.200  0.0243 -0.1219  0.1818
 5040W        W 9104   8.891   2.137   3.289  0.3826 -0.0830  0.2527
 5041W        W 9105   7.269   7.762   2.600  0.1544 -0.1702  0.1172
 5042W        W 9106   6.913   2.113   0.779 -0.1195  0.0096  0.1204
 5043W        W 9107   3.011   1.268   0.234 -0.2249  0.1024 -0.3215
 5044W        W 9108  10.877   5.503   2.591 -0.1239  0.0134  0.0161
 5045W        W 9109   1.772   6.388   9.826 -0.0556 -0.0694  0.0180
 5046W        W 9110   1.842   0.167   8.721  0.2317  0.1305 -0.0452
 5047W        W 9111   0.192   4.875   8.837  0.3238 -0.3902 -0.1464
 5048W        W 9112   0.969   3.891   8.331  0.0540 -0.0392  0.1243
 5049W        W 9113   7.600   1.757  10.884 -0.2096  0.1321  0.0296
 5050W        W 9114   6.000   5.654  10.534  0.1436  0.0864 -0.1425
 5051W        W 9115   7.326   7.302   3.364 -0.0831 -0.2132  0.1088
 5052W        W 9116   9.978   4.877   0.017  0.1098 -0.3268 -0.0354
 5053W        W 9117   7.456   3.631   2.298  0.1612 -0.1854  0.0589
 5054W        W 9118   3.349   7.173   1.962 -0.0228  0.0976 -0.2402
 5055W        W 9119   3.035   3.471   2.970 -0.0953  0.0163 -0.1817
 5056W        W 9120   5.970   5.563   0.491 -0.2283 -0.2054  0.2224
 5057W        W 9121  10.807   3.389  10.310 -0.3393 -0.1715  0.4380
 5058W        W 9122   1.480   5.653  10.733  0.4528 -0.2736 -0.0671
 5059W        W 9123   7.391   5.390   2.642  0.3286  0.0224 -0.0491
 5060W        W 9124   2.557   0.934   3.654  0.2880  0.0375 -0.1257
 5061W        W 9125   7.668   0.170   7.853 -0.1308  0.1855 -0.1215
 5062W        W 9126   6.478   7.673   2.237 -0.2878 -0.1466 -0.0923
 5063W        W 9127   3.720   8.436  10.768  0.0053 -0.2666  0.3701
 5064W        W 9128  10.423  10.812   3.394 -0.2632 -0.1685 -0.3664
 5065W        W 9129   9.012   5.728   9.661 -0.2347  0.1935  0.0097
 5066W        W 9130   0.839   7.010   8.466 -0.0070  0.1368  0.1053
 5067W        W 9131   5.622   0.342   8.840  0.0775 -0.1240  0.3294
 5068W        W 9132   8.954   3.685   3.204  0.0035 -0.0677 -0.1609
 5069W        W 9133   2.488   4.748   9.030 -0.0814  0.1091 -0.1550
 5070W        W 9134   2.920  10.621   3.810 -0.3775  0.4161 -0.1048
 5071W        W 9135   9.051   2.934   3.601 -0.3400 -0.2258 -0.3463
 5072W        W 9136   8.789   1.945   8.428  0.1473  0.0450 -0.0427
 5073W        W 9137  10.013   7.169   0.028 -0.1561  0.0166 -0.0653
 5074W        W 9138   9.193   1.407   9.841  0.2183 -0.0773  0.2025
 5075W        W 9139   9.678   8.480   9.421 -0.1158  0.2249 -0.2915
 5076W        W 9140   7.945   5.311   7.119 -0.1480  0.5132  0.1390
 5077W        W 9141   5.099   1.083  10.840 -0.0071  0.2144 -0.3212
 5078W        W 9142   2.818  10.560   2.483  0.1389 -0.1090 -0.0550
 5079W        W 9143   9.837   4.136   0.024 -0.0292  0.0429 -0.0101
 5080W        W 9144   7.024   5.409   8.996 -0.1653 -0.2066 -0.1708
 5081W        W 9145   7.243   0.139   0.868  0.0141 -0.2204 -0.0685
 5082W        W 9146   9.780   9.754   1.105 -0.1071 -0.1742  0.0648
 5083W        W 9147   1.710  10.382   3.468  0.1151 -0.0961  0.2583
 5084W        W 9148   7.439   6.577   1.709 -0.3710 -0.0033  0.3023
 5085W        W 9149   9.122   1.068   9.422 -0.2552  0.1813  0.0523
 5086W        W 9150   3.654   2.611   0.927  0.0022  0.1645  0.0645
 5087W        W 9151   4.766   6.783   3.234 -0.2715  0.1925  0.0962
 5088W        W 9152   4.181   0.789   8.562 -0.1354  0.0359  0.2043
 5089W        W 9153   5.381   8.396   8.614  0.3987  0.1081 -0.3611
 5090W        W 9154   8.891   2.282   4.135 -0.0485  0.1881 -0.1643
 5091W        W 9155   7.501   0.994   3.142  0.2401 -0.0994 -0.4551
 5092W        W 9156   9.205   0.861  11.047 -0.1840 -0.1199 -0.0537
 5093W        W 9157   3.489   8.578   0.149 -0.0014 -0.0940 -0.5634
 5094W        W 9158   3.166  10.866   2.403  0.0035 -0.0251  0.3749
 5095W        W 9159   9.301   3.869   1.267 -0.0274  0.3710  0.0058
 5096W        W 9160   1.776   8.999  10.351 -0.0170  0.3047  0.1723
 5097W        W 9161  10.788   8.900   2.437  0.1405 -0.2294 -0.0894
 5098W        W 9162   2.441   7.611   3.663  0.0820 -0.1124  0.1491
 5099W        W 9163   1.033   7.956   7.608  0.0979 -0.2035  0.2645
 5100W        W 9164   6.038   2.226   9.363 -0.0742  0.0172  0.2500
 5101W        W 9165   8.703   1.458  10.648  0.0407 -0.1776  0.1402
 5102W        W 9166   7.348   0.202   9.411  0.0124 -0.1714  0.0182
 5103W        W 9167   5.062   0.310   2.321  0.1224 -0.1024  0.2356
 5104W        W 9168   0.575   0.782   7.586 -0.1447 -0.3437 -0.0403
 5105W        W 9169   2.658   7.432  10.784  0.2755 -0.1435  0.0024
 5106W        W 9170   4.700   9.054   8.231  0.1242  0.0397 -0.2150
 5107W        W 9171   7.797   2.445  10.161  0.0066 -0.0250  0.2629
 5108W        W 9172   0.384   1.893   3.205 -0.3043  0.0484 -0.0353
 5109W        W 9173   1.887   0.148   2.486 -0.4263  0.2579  0.0809
 5110W        W 9174   1.328   4.422   2.767  0.0434 -0.0670 -0.1326
 5111W        W 9175  10.614   3.335   4.084  0.1073 -0.0556  0.0995
 5112W        W 9176   3.424   4.785   9.134 -0.0483 -0.2548  0.1903
 5113W        W 9177   8.757   7.368   2.140 -0.1685  0.3249 -0.0516
 5114W        W 9178  10.555   1.813   8.713  0.1166 -0.0656  0.1424
 5115W        W 9179   7.852   4.411   1.747  0.1667 -0.2225 -0.4824
 5116W        W 9180   6.905   5.289   7.539  0.1301  0.1947 -0.2447
 5117W        W 9181   0.205   8.075   2.507 -0.2389  0.3376  0.0859
 5118W        W 9182   1.670   3.152   3.161 -0.0038  0.2320  0.0960
 5119W        W 9183   7.599  10.193   7.029 -0.1270  0.0220  0.0435
 5120W        W 9184   6.064   4.134   8.809  0.0682  0.0315  0.2965
 5121W        W 9185  10.497   9.527   9.386 -0.3865 -0.0044 -0.1076
 5122W        W 9186  10.596   4.806   8.957  0.1558  0.0293 -0.0838
 5123W        W 9187   5.785   1.141   3.182 -0.0353  0.1930 -0.3807
 5124W        W 9188   2.774   9.956   9.212  0.3322 -0.0738 -0.0891
 5125W        W 9189  10.381   2.920   4.074  0.2709  0.2484  0.1783
 5126W        W 9190   1.266   8.408   0.472 -0.2316  0.2944 -0.1817
 5127W        W 9191   7.171   6.496  10.500  0.0441 -0.3541  0.0293
 5128W        W 9192   0.474   0.520   8.340 -0.2279  0.3360 -0.1140
 5129W        W 9193  10.157   9.994   0.876 -0.1263  0.2702 -0.0613
 5130W        W 9194   6.088   4.867   0.455  0.0100 -0.1758  0.0050
 5131W        W 9195   3.001   5.499   0.387  0.1691 -0.1366  0.0089
 5132W        W 9196   0.192  10.579   8.691 -0.0823  0.0230 -0.1900
 5133W        W 9197   0.659   1.700   1.256  0.0878 -0.0234 -0.0546
 5134W        W 9198   1.892   8.016   2.459  0.0673  0.2261 -0.0715
 5135W        W 9199  10.535   0.526   8.847  0.1112 -0.2594  0.2210
 5136W        W 9200   4.635   1.528   1.419  0.1798 -0.3118 -0.0330
 5137W        W 9201   7.092   2.899   2.319 -0.1566  0.4138  0.2194
 5138W        W 9202   7.402   1.969   4.031  0.1522 -0.0636  0.0459
 5139W        W 9203   3.778   8.027   7.701  0.1900  0.2332 -0.1316
 5140W        W 9204   9.236   0.607   7.262  0.0688 -0.0715  0.0927
 5141W        W 9205   0.655   0.582   2.789 -0.0579 -0.0120 -0.1754
 5142W        W 9206   2.633  10.754   2.002 -0.0095  0.1579  0.2226
 5143W        W 9207   6.614   6.083   2.329 -0.0206  0.0949  0.3573
 5144W        W 9208   7.931   8.187  10.956 -0.0049  0.1793  0.4318
 5145W        W 9209   6.564   7.334   7.787  0.0692 -0.2477  0.3315
 5146W        W 9210   6.614   7.261   3.165  0.0817 -0.1327  0.0634
 5147W        W 9211   4.832  10.780   2.429 -0.3306  0.0925 -0.1270
 5148W        W 9212   8.044  10.700   1.197 -0.0666  0.1920  0.2746
 5149W        W 9213   6.216   7.777   1.148  0.1271  0.4314  0.0567
 5150W        W 9214   5.341   5.259   1.556 -0.1264 -0.1911 -0.0964
 5151W        W 9215   9.144   1.797   9.627  0.0811 -0.3154  0.4700
 5152W        W 9216   8.852   4.653   1.823 -0.1243  0.2292  0.1808
 5153W        W 9217   8.434   8.498   0.537  0.1985  0.2092  0.0251
 5154W        W 9218   1.880   8.661   1.171  0.2097 -0.0601 -0.2450
 5155W        W 9219  10.266   5.881  10.931 -0.0097 -0.0257  0.0179
 5156W        W 9220   2.515   4.638   3.176  0.1341 -0.1279  0.0316
 5157W        W 9221   4.311   5.090   3.056 -0.2747 -0.0222 -0.1463
 5158W        W 9222   8.664   8.217   1.185  0.1458  0.0220  0.0999
 5159W        W 9223   0.661   2.082   0.125 -0.1591 -0.0605  0.0026
 5160W        W 9224   7.958   3.639   8.688 -0.1406  0.1276 -0.0172
 5161W        W 9225   9.618   4.614   0.186  0.0237  0.1620  0.0476
 5162W        W 9226   3.910   0.208   1.289  0.0224  0.2020 -0.1058
 5163W        W 9227   7.241   6.260   0.375 -0.4874 -0.2161 -0.1074
 5164W        W 9228   7.499   4.089   2.489 -0.1307 -0.2343  0.2555
 5165W        W 9229   0.890   9.522   3.068 -0.1420  0.2839 -0.0790
 5166W        W 9230   6.864   9.361   9.357  0.0157  0.0390 -0.0712
 5167W        W 9231   8.516  10.110   1.452 -0.2318 -0.1276 -0.1943
 5168W        W 9232   5.791   0.075   7.373 -0.0106  0.2836  0.0769
 5169W        W 9233   1.354  10.040  10.164  0.0229 -0.1161 -0.3913
 5170W        W 9234  10.381   0.220  10.706  0.0928  0.3247 -0.0120
 5171W        W 9235   3.377   5.553   8.604  0.0341  0.1913  0.0384
 5172W        W 9236   6.415   1.533   1.736  0.0813 -0.2661  0.3568
 5173W        W 9237   0.257   8.865   8.969 -0.0537 -0.0737 -0.0816
 5174W        W 9238   6.370   5.839  10.791  0.3289 -0.0824  0.2229
 5175W        W 9239   2.400   0.969   2.728  0.2452  0.4438 -0.1502
 5176W        W 9240   9.382   6.375   2.907  0.1167  0.1975 -0.0269
 5177W        W 9241   0.298   2.029  10.827 -0.2029  0.0269  0.1883
 5178W        W 9242   3.442   1.532   0.244  0.1180  0.0814 -0.0415
 5179W        W 9243  10.018   4.109   0.806 -0.1616 -0.0622  0.3351
 5180W        W 9244   6.438   7.940   0.161 -0.1165 -0.1078  0.1303
 5181W        W 9245   6.496   3.938   1.301  0.0335 -0.0144 -0.1675
 5182W        W 9246   0.285  10.601   1.896 -0.0440  0.1012 -0.0865
 5183W        W 9247   5.349   3.687   9.143 -0.1698 -0.1008  0.1006
 5184W        W 9248   6.660   9.856  10.056 -0.0034 -0.0956 -0.2879
 5185W        W 9249   2.345   9.935   7.869 -0.0803  0.2501 -0.0251
 5186W        W 9250   9.718   4.092   2.082 -0.2786 -0.0836  0.3720
 5187W        W 9251   2.464   2.604   0.561 -0.1380 -0.1559 -0.0188
 5188W        W 9252   2.479  10.317   2.959  0.0641  0.0669  0.1554
 5189W        W 9253   7.777   1.281  11.041 -0.0059  0.0524  0.1337
 5190W        W 9254   5.915   3.560   0.468 -0.0593  0.0428  0.2048
 5191W        W 9255   6.934   3.353   9.535 -0.0521 -0.0019  0.5326
 5192W        W 9256   5.706   4.690  10.649 -0.0347  0.1674  0.2950
 5193W        W 9257   4.770   0.566   0.034 -0.5890  0.2156 -0.0727
 5194W        W 9258   7.476   6.459   4.243 -0.1199  0.2767  0.0663
 5195W        W 9259   0.691   6.129  10.357 -0.1408 -0.0812 -0.1857
 5196W        W 9260   0.515   9.706   2.816  0.1927 -0.1441  0.0058
 5197W        W 9261   0.342   5.819   8.281  0.4499 -0.1240  0.0892
 5198W        W 9262   4.706   0.099   1.366  0.2244 -0.2080 -0.0178
 5199W        W 9263   0.413   6.853   1.893  0.1716  0.0893 -0.0790
 5200W        W 9264   5.279   4.313   3.392  0.0586  0.2618 -0.0644
 5201W        W 9265   4.386   7.759   8.063  0.2897  0.0508  0.1837
 5202W        W 9266   6.188   3.263  10.043  0.3410  0.4452 -0.2559
 5203W        W 9267   8.372   5.905   1.337 -0.4499 -0.2099  0.3785
 5204W        W 9268   7.470   7.955   1.903 -0.0214 -0.1277 -0.2068
 5205W        W 9269   5.246  10.199   2.949  0.2324 -0.2075  0.2432
 5206W        W 9270   8.533   9.249   9.739 -0.3808  0.0783  0.2233
 5207W        W 9271   1.119   9.734   8.228  0.0549 -0.1965 -0.1959
 5208W        W 9272   1.883   7.980   9.690 -0.2210 -0.0319 -0.0315
 5209W        W 9273   3.325   1.443  10.019  0.2209  0.0850  0.3314
 5210W        W 9274   1.955   6.118   2.168  0.1024  0.1515 -0.1486
 5211W        W 9275   2.198   0.847  10.684  0.2009 -0.3116  0.0871
 5212W        W 9276   5.823  10.864   9.666  0.0116 -0.2150  0.0603
 5213W        W 9277   1.113   7.948   0.792  0.1880 -0.1328  0.1391
 5214W        W 9278   8.119   3.231   8.070 -0.0877  0.0590  0.1999
 5215W        W 9279   2.859   9.427  10.505  0.2210  0.1636 -0.0141
 5216W        W 9280   1.518   9.151   0.054 -0.1082 -0.4848 -0.3136
 5217W        W 9281   8.711   2.019   1.738  0.0389  0.0589 -0.3219
 5218W        W 9282   4.191   5.752   1.944  0.0481  0.1748  0.2620
 5219W        W 9283   6.867   8.893   8.709  0.0834  0.1995  0.1535
 5220W        W 9284   0.641   1.505   2.736  0.0007 -0.1545  0.1695
 5221W        W 9285   8.316   3.569   3.058  0.0254 -0.0152 -0.0719
 5222W        W 9286   4.846   3.066   9.736  0.0311 -0.1492  0.1486
 5223W        W 9287   0.796   8.169   1.218  0.1910  0.2829  0.1126
 5224W        W 9288   2.690   1.686   2.394 -0.0993  0.2656  0.2511
 5225W        W 9289  10.104   5.245   2.839 -0.0735 -0.2937  0.0519
 5226W        W 9290   7.643   4.129   9.933 -0.0165  0.1406  0.1237
 5227W        W 9291   4.361   0.274   9.086 -0.3875  0.1282 -0.1056
 5228W        W 9292   5.741   1.525   2.738 -0.6549  0.1358  0.0262
 5229W        W 9293   5.696   7.151   2.006 -0.1297  0.1662 -0.2051
 5230W        W 9294   3.852   6.778   0.205  0.3261  0.0158  0.1426
 5231W        W 9295   7.043   2.371   3.432 -0.1689  0.0216 -0.1002
 5232W        W 9296   2.431   0.967   0.093 -0.1286  0.0934 -0.0325
 5233W        W 9297   7.519   6.706   3.351  0.0037  0.1106 -0.1040
 5234W        W 9298   9.756   5.116   7.343  0.0530  0.0788 -0.3541
 5235W        W 9299  10.579   0.669   0.965  0.0422 -0.2256  0.1797
 5236W        W 9300   4.907   7.659   0.955 -0.0137 -0.0941  0.0579
 5237W        W 9301   0.517  10.004   3.410 -0.0107  0.1171  0.1233
 5238W        W 9302   9.638   9.000   9.453  0.0081  0.1243 -0.3272
 5239W        W 9303   1.590   7.107  10.363  0.1524 -0.0630 -0.0214
 5240W        W 9304   3.913   4.763   7.477  0.5150 -0.1598 -0.0146
 5241W        W 9305   4.288   1.049   2.229 -0.1245  0.0961 -0.0659
 5242W        W 9306   5.301   6.925   2.298  0.1175 -0.2022 -0.0305
 5243W        W 9307   4.172   9.573   8.956  0.2415  0.0151 -0.1377
 5244W        W 9308   2.040   4.795   2.274 -0.0802 -0.2068  0.2753
 5245W        W 9309   5.147   8.602   1.737 -0.1114 -0.1423  0.0978
 5246W        W 9310   4.147   9.429   9.449  0.2829  0.0574 -0.1473
 5247W        W 9311   2.633   9.806   9.765 -0.0028  0.1388  0.4795
 5248W        W 9312   9.774  10.742   1.668 -0.1414  0.1606 -0.0227
 5249W        W 9313  10.274   8.714   8.849  0.0403  0.3863 -0.1246
 5250W        W 9314   5.329   0.871   3.237  0.4440  0.0451  0.2919
 5251W        W 9315   5.622   2.305   9.518  0.1836 -0.0618 -0.1580
 5252W        W 9316   9.104   0.349   3.887  0.3739 -0.0126  0.0868
 5253W        W 9317   9.190  10.689   9.420  0.2338 -0.0949 -0.1583
 5254W        W 9318   2.571   9.516   4.002  0.3759  0.1487 -0.1098
 5255W        W 9319   0.460   9.427   0.173 -0.0866 -0.1108 -0.2088
 5256W        W 9320   2.699   8.596   9.865  0.0157 -0.1175 -0.1466
 5257W        W 9321   3.502   6.693   2.011  0.1806 -0.0865 -0.0488
 5258W        W 9322   9.959   3.079   2.206 -0.0741 -0.3789 -0.3711
 5259W        W 9323   0.284   9.684   7.768 -0.1320  0.0948 -0.1008
 5260W        W 9324   2.620  10.817   3.012  0.1767 -0.2128 -0.1057
 5261W        W 9325   1.421   8.479  10.520  0.0155 -0.1771 -0.2678
 5262W        W 9326   4.161   7.098  10.473  0.1874  0.2440 -0.2142
 5263W        W 9327   1.416   9.464   3.177 -0.0026  0.0453  0.2187
 5264W        W 9328   0.721   5.514   8.081  0.1942  0.3057 -0.5865
 5265W        W 9329   7.766   3.638   7.215 -0.1413  0.1706 -0.1066
 5266W        W 9330   9.730   9.617   1.958 -0.0066  0.0261  0.1861
 5267W        W 9331   0.154   8.704  10.043  0.1618  0.1308  0.1093
 5268W        W 9332   9.623   2.870   2.511 -0.0910 -0.1294  0.2652
 5269W        W 9333   8.801   5.930   2.358  0.0117 -0.0649 -0.1675
 5270W        W 9334   0.732   0.799   0.797  0.2495  0.1374 -0.4120
 5271W        W 9335   3.731   6.050   0.790  0.1408  0.0309  0.2155
 5272W        W 9336   2.120   1.696   8.551  0.0315 -0.0752 -0.0227
 5273W        W 9337   0.856   9.858  10.089 -0.0618  0.1626 -0.1008
 5274W        W 9338   4.139   2.274   9.244 -0.0333  0.0001 -0.2928
 5275W        W 9339   5.158   4.552  10.236  0.1345  0.0762 -0.2065
 5276W        W 9340   7.884   8.729   8.170  0.0620 -0.2295  0.0691
 5277W        W 9341   3.220   2.940   8.992  0.0167  0.1520 -0.1450
 5278W        W 9342   7.371   1.570   9.445 -0.0499 -0.0642 -0.0923
 5279W        W 9343   6.985   4.982   2.571  0.2018 -0.0227 -0.3489
 5280W        W 9344   3.232   1.374   1.307  0.2008  0.2835  0.0651
 5281W        W 9345   6.427   6.234   9.145 -0.0975 -0.0662 -0.0144
 5282W        W 9346   7.939   6.231   7.957  0.0184 -0.1099  0.2503
 5283W        W 9347   8.780   5.813   8.914  0.1872  0.2465 -0.0316
 5284W        W 9348  10.051   9.638   2.412 -0.0531 -0.0209 -0.2454
 5285W        W 9349   0.368   5.897   0.309 -0.3968  0.1365  0.1914
 5286W        W 9350  10.195   2.934   2.618 -0.0765  0.1191  0.4436
 5287W        W 9351   1.455   5.269   8.273  0.2301  0.4403 -0.1929
 5288W        W 9352   9.440   4.063   7.819 -0.2414  0.0165  0.0836
 5289W        W 9353   0.109   0.320   1.024  0.1583 -0.1720  0.1788
 5290W        W 9354   7.157   1.647   7.285  0.0806  0.0576  0.5291
 5291W        W 9355  10.028   7.662   9.571 -0.0226 -0.1000 -0.2068
 5292W        W 9356   5.657  10.877   3.082 -0.0816 -0.0734 -0.0984
 5293W        W 9357   6.233   6.386   8.207 -0.0569  0.2080  0.3370
 5294W        W 9358   8.663   9.885  10.448  0.0880  0.0059 -0.3387
 5295W        W 9359   4.417   6.542   2.446 -0.1099 -0.1311  0.0395
 5296W        W 9360   6.844   1.351   0.947 -0.1325  0.0011  0.1293
 5297W        W 9361   1.945   5.378   9.404 -0.2933 -0.0731 -0.2583
 5298W        W 9362   5.285   8.274   9.841  0.2377 -0.2162 -0.2561
 5299W        W 9363   8.982   0.939   9.891  0.1673  0.1882 -0.1060
 5300W        W 9364   8.694   8.161   2.628 -0.0933 -0.0836  0.1486
 5301W        W 9365   9.316   5.879   1.584 -0.0367 -0.0398  0.0833
 5302W        W 9366   2.686  10.656   8.579  0.0251 -0.3340  0.0917
 5303W        W 9367   2.948   0.350   2.830  0.0139  0.0079 -0.0216
 5304W        W 9368   4.839   4.130   2.531  0.2229  0.0019  0.0136
 5305W        W 9369   5.265   1.408   9.030  0.0530  0.1692 -0.0491
 5306W        W 9370   0.847   5.125  10.375  0.1337 -0.2524  0.5346
 5307W        W 9371   7.556   0.908   0.325  0.1407 -0.3136 -0.3375
 5308W        W 9372   9.182   1.956   1.785  0.0679 -0.5080  0.0329
 5309W        W 9373   8.629   8.881   3.328 -0.1990 -0.1674 -0.1800
 5310W        W 9374   8.733   3.292   1.946  0.3314 -0.0657 -0.0017
 5311W        W 9375  10.279   3.426   2.536  0.1549  0.0624 -0.1072
 5312W        W 9376   7.146   4.714   8.430  0.0082  0.0877  0.2433
 5313W        W 9377   5.039   5.429   9.796  0.2180 -0.1973 -0.0469
 5314W        W 9378   0.526   5.668  10.260  0.0499  0.2294 -0.3931
 5315W        W 9379   0.049   9.636   1.862 -0.0927  0.0364 -0.2285
 5316W        W 9380   1.141   0.143  10.957  0.0573  0.1137  0.1401
 5317W        W 9381   6.628   9.190   8.243 -0.1351  0.1228  0.2233
 5318W        W 9382   7.017   1.538   8.375 -0.1062 -0.1009 -0.1337
 5319W        W 9383   1.613   1.685   0.390  0.2298  0.1957 -0.0824
 5320W        W 9384  10.688   3.372   8.875  0.1574  0.1016 -0.0309
 5321W        W 9385   9.853   2.323  10.338  0.0293  0.1728  0.0864
 5322W        W 9386   2.624   8.003  10.145  0.1558 -0.0903  0.1175
 5323W        W 9387   9.548   1.047   0.384  0.0583  0.1433 -0.1616
 5324W        W 9388  10.248   8.574   3.190 -0.0302 -0.3469  0.1987
 5325W        W 9389   2.240   4.388   1.438  0.1724 -0.2360  0.0682
 5326W        W 9390   2.333   3.414   0.670  0.0588  0.1204 -0.1633
 5327W        W 9391   5.294  10.598   3.881  0.1601 -0.1727 -0.1023
 5328W        W 9392   8.300   5.195   7.904 -0.0976  0.0176 -0.1623
 5329W        W 9393   2.815   4.343   1.416 -0.0272 -0.1705  0.0633
 5330W        W 9394  10.851   1.741  10.091 -0.0662  0.1486 -0.1201
 5331W        W 9395   7.536  10.255   7.798  0.1339  0.0110  0.0930
 5332W        W 9396   9.141   3.312   2.339  0.0870 -0.0245  0.3386
 5333W        W 9397   7.373   1.876  10.375 -0.1189 -0.1976 -0.1820
 5334W        W 9398   3.680   5.224   8.994  0.0211 -0.0077 -0.0331
 5335W        W 9399   8.891   8.631   2.295  0.5498  0.2755  0.4174
 5336W        W 9400   5.475   4.434   0.375 -0.0742 -0.1132  0.0411
 5337W        W 9401   0.976  10.443  10.226  0.0441  0.1380  0.0035
 5338W        W 9402   8.694   7.073   0.275  0.2096 -0.0910 -0.0387
 5339W        W 9403   6.915   6.650   0.688 -0.1961  0.0660 -0.0921
 5340W        W 9404   5.520   9.681   3.568 -0.0210  0.0781  0.3812
 5341W        W 9405   1.202   8.762  10.994  0.1421  0.0665 -0.0048
 5342W        W 9406   4.963   8.667   9.983 -0.0156 -0.1790  0.0103
 5343W        W 9407   7.729   7.604   3.451 -0.1168 -0.1973  0.0776
 5344W        W 9408   1.696   9.416   1.487  0.1191  0.2820  0.0736
 5345W        W 9409   8.416   5.275  10.780 -0.1188  0.0966  0.1091
 5346W        W 9410   3.557   9.002   1.654  0.1477  0.1257 -0.0213
 5347W        W 9411   2.773   9.303   9.484 -0.5218  0.0291  0.1321
 5348W        W 9412   8.641  10.561   2.650 -0.0582  0.0418  0.1676
 5349W        W 9413  10.036   6.978   0.750 -0.3128 -0.0499 -0.0863
 5350W        W 9414   8.911   7.905   2.087 -0.1770  0.1038  0.0686
 5351W        W 9415   8.031   5.846  10.101  0.4144 -0.3000 -0.0403
 5352W        W 9416   3.742   4.225  10.702  0.4792 -0.1139  0.0104
 5353W        W 9417   0.387   8.570   0.083  0.0120 -0.0494  0.0670
 5354W        W 9418   3.588   7.100   0.581  0.0373  0.1142  0.0228
 5355W        W 9419   7.913   4.896   1.558  0.0612  0.1373 -0.0592
 5356W        W 9420   1.790   0.469   7.019  0.0219  0.1545  0.1191
 5357W        W 9421   9.229   7.227   8.979 -0.1857 -0.1822  0.0891
 5358W        W 9422   1.130   2.530   0.083 -0.1098  0.1423 -0.1041
 5359W        W 9423   5.783  10.726   2.145 -0.3138  0.1778  0.3602
 5360W        W 9424   4.005   1.013   0.549  0.0802  0.1250 -0.1151
 5361W        W 9425   4.787   7.491  10.217  0.0572  0.0410 -0.1684
 5362W        W 9426   9.854   5.923  10.185 -0.3581 -0.0512 -0.1281
 5363W        W 9427   5.996   7.605   8.959 -0.1678 -0.0925  0.2998
 5364W        W 9428   3.961   6.049   9.940 -0.0169 -0.0593 -0.3585
 5365W        W 9429   5.440   2.981   8.927  0.1212 -0.0976 -0.1633
 5366W        W 9430   0.054   4.894   1.427  0.0136  0.1128  0.0657
 5367W        W 9431   3.469   2.822  10.486 -0.1110 -0.0900 -0.3114
 5368W        W 9432   1.073   1.321  10.885 -0.0366 -0.3368  0.1071
 5369W        W 9433  10.722   2.215   1.182  0.1772 -0.0349  0.0589
 5370W        W 9434   3.946   8.148   1.996  0.0448 -0.0304 -0.2807
 5371W        W 9435   8.917   3.973   7.080 -0.0323 -0.2564  0.2823
 5372W        W 9436   7.236   1.401   1.295 -0.3462  0.0323 -0.3024
 5373W        W 9437   2.201   8.276   0.995 -0.1047 -0.0141  0.1560
 5374W        W 9438   5.267   6.760   9.758  0.0060 -0.2223  0.0706
 5375W        W 9439   3.542  10.594   2.178  0.4164  0.1344 -0.1955
 5376W        W 9440   3.796   2.485   8.931  0.1781 -0.1312  0.1558
 5377W        W 9441   9.410   3.843  10.700  0.2532  0.1000  0.3649
 5378W        W 9442   3.453   7.954   2.427 -0.0029  0.3883  0.0437
 5379W        W 9443  10.089   3.376   3.915  0.1511 -0.0377  0.1086
 5380W        W 9444   0.620   0.060   8.269  0.0498 -0.1331 -0.0629
 5381W        W 9445   1.825   8.407   0.595  0.1317 -0.0760 -0.0768
 5382W        W 9446   1.145   2.558   1.444 -0.0042 -0.0628  0.0903
 5383W        W 9447   4.237   2.384   3.894  0.1249  0.0137  0.0515
 5384W        W 9448   6.848  10.777  10.606 -0.2530  0.2396  0.2002
 5385W        W 9449   8.555   1.493   0.448 -0.0129  0.3593  0.1532
 5386W        W 9450   1.262   2.061   0.167  0.1533  0.1496  0.1370
 5387W        W 9451   7.252   4.952   8.924 -0.0890  0.0943 -0.2002
 5388W        W 9452  10.698   8.164   8.753 -0.0348 -0.5327 -0.0329
 5389W        W 9453   9.181  10.502   8.655 -0.0012  0.3080  0.3167
 5390W        W 9454   1.528   2.104   8.796  0.1914  0.1015  0.0539
 5391W        W 9455   7.007   8.642   2.957 -0.0673 -0.3179  0.0510
 5392W        W 9456   0.643   9.077   1.024 -0.0544 -0.0511 -0.1157
 5393W        W 9457  10.749   6.975   1.495 -0.0437 -0.0132 -0.2866
 5394W        W 9458   7.603   1.362   0.492  0.2063  0.0766  0.2494
 5395W        W 9459   4.394   3.310   7.881 -0.3248 -0.0826 -0.1891
 5396W        W 9460   1.418   2.695   9.518  0.2879 -0.2560  0.0445
 5397W        W 9461   7.097   0.887   0.103 -0.1056  0.3425 -0.0690
 5398W        W 9462   7.899   9.664   1.820 -0.3505 -0.2064 -0.2549
 5399W        W 9463   9.477   9.739   1.556 -0.1585 -0.0832  0.0131
 5400W        W 9464   9.438   3.551   0.631  0.1823  0.1009  0.2192
 5401W        W 9465   7.761   5.909   3.879 -0.0607 -0.1791 -0.1078
 5402W        W 9466   8.730   9.747   2.478  0.3285 -0.1881  0.1340
 5403W        W 9467  10.750   5.774   0.348 -0.0954  0.0659 -0.0110
 5404W        W 9468   4.599   4.172   0.475 -0.1421  0.0377  0.2195
 5405W        W 9469   3.629  10.425   9.027 -0.1974  0.3889  0.0355
 5406W        W 9470   2.635   7.111   7.748 -0.0490 -0.1847 -0.0244
 5407W        W 9471  10.121   1.238  11.043 -0.4305  0.0744  0.0594
 5408W        W 9472   0.173   1.936   8.347 -0.0061 -0.0783  0.3508
 5409W        W 9473   2.260   7.656   9.947  0.3518 -0.1602  0.0363
 5410W        W 9474   1.084   5.460  10.018 -0.3240 -0.3474  0.2051
 5411W        W 9475  10.653   9.994   0.750 -0.2037 -0.0793 -0.0393
 5412W        W 9476   9.181   0.160  10.345 -0.2032 -0.1295  0.0807
 5413W        W 9477   8.370   4.244  10.579 -0.0611  0.1716 -0.3210
 5414W        W 9478   2.995   1.270   9.535 -0.1241 -0.2872 -0.0058
 5415W        W 9479   3.663   6.448   9.910 -0.1940 -0.1316 -0.0110
 5416W        W 9480  10.884  10.685   2.916  0.3173 -0.0014 -0.2706
 5417W        W 9481   6.540   0.071   3.359  0.0828  0.0105 -0.0676
 5418W        W 9482  10.626   9.647   8.928 -0.0053 -0.2079  0.3533
 5419W        W 9483   1.710   4.868   2.614 -0.0785 -0.0893  0.0016
 5420W        W 9484   3.443   3.804   3.042 -0.1529 -0.0889  0.2636
 5421W        W 9485   4.865   8.155   1.971  0.3523  0.0526  0.1219
 5422W        W 9486   0.208   4.615   1.782  0.1001 -0.1678 -0.3078
 5423W        W 9487   1.125   9.478   3.541  0.2523 -0.1927 -0.0972
 5424W        W 9488   7.546  10.085   2.666  0.2096 -0.3701 -0.4151
 5425W        W 9489   3.361   3.998  10.917 -0.1174 -0.5416  0.1273
 5426W        W 9490   3.053   7.745   0.981 -0.1874  0.2714 -0.0424
 5427W        W 9491  10.685   2.371   0.334  0.0975  0.3342 -0.2078
 5428W        W 9492   5.728  10.864   0.929  0.1153  0.1950 -0.0896
 5429W        W 9493   0.913   0.893   7.185  0.0188  0.1342  0.2809
 5430W        W 9494   2.483  10.332  10.742  0.5605  0.0089 -0.0932
 5431W        W 9495   3.965   1.302   9.801  0.3700 -0.2682  0.0320
 5432W        W 9496   7.439   2.987   0.176  0.1123  0.3381 -0.0026
 5433W        W 9497   1.555   4.874  10.831  0.0986 -0.0332  0.2674
 5434W        W 9498   6.956   7.132  10.961 -0.0784  0.1341  0.0130
 5435W        W 9499   4.273   0.079   3.253  0.2936 -0.2414  0.0603
 5436W        W 9500   0.729   1.193   1.110 -0.0515 -0.1336  0.2329
 5437W        W 9501   0.103   7.802   3.155 -0.0466  0.0293 -0.0006
 5438W        W 9502   0.269   4.278  10.454  0.1277 -0.0434  0.2295
 5439W        W 9503   1.090   6.983   2.521 -0.0184  0.0426  0.0278
 5440W        W 9504   9.817   6.531   8.774 -0.3257  0.1361 -0.0602
 5441W        W 9505   0.983   8.200   8.961 -0.2364 -0.1119  0.0842
 5442W        W 9506   2.576   2.427   1.951  0.2703 -0.0673  0.0595
 5443W        W 9507   7.376  10.699   2.865 -0.0445  0.0259  0.1473
 5444W        W 9508   6.080   4.968   2.193 -0.1422 -0.1556 -0.0989
 5445W        W 9509  10.625   0.622   9.614 -0.1671  0.0593  0.0865
 5446W        W 9510   5.975   3.587  10.507 -0.1129  0.0754 -0.2072
 5447W        W 9511   7.950   4.991   9.749 -0.0153 -0.1715 -0.1126
 5448W        W 9512   2.725   2.963   7.664 -0.2813  0.1964 -0.0776
 5449W        W 9513   8.280   2.099   8.167  0.0138 -0.1136 -0.0683
 5450W        W 9514   9.450   8.423   3.162  0.2368 -0.1912 -0.0087
 5451W        W 9515   4.067   4.469   2.302  0.0111 -0.1220  0.1298
 5452W        W 9516   6.439   6.801   0.183  0.4096 -0.4107  0.2304
 5453W        W 9517   7.011   3.455   0.854  0.0355 -0.1482 -0.1678
 5454W        W 9518   7.379   2.479   0.043  0.3395 -0.0226  0.0928
 5455W        W 9519   9.143   3.766  10.299  0.0674 -0.1295  0.1302
 5456W        W 9520   5.762   2.670  10.020 -0.1268 -0.0679 -0.0664
 5457W        W 9521   3.711   9.960  10.287 -0.0101 -0.2725  0.2120
 5458W        W 9522   2.392   2.616   0.072 -0.1038 -0.3442 -0.3861
 5459W        W 9523   6.004   2.877   0.073  0.3802  0.3634  0.1488
 5460W        W 9524  10.245   6.398   8.109  0.0076 -0.0227 -0.1199
 5461W        W 9525   0.694   6.421   2.908  0.2299  0.1982  0.0116
 5462W        W 9526   0.518   7.960   0.085 -0.3652  0.1524  0.0624
 5463W        W 9527   2.844   0.318   2.233  0.2054 -0.4489 -0.1443
 5464W        W 9528   3.045   1.764   1.028  0.0099 -0.1321 -0.2633
 5465W        W 9529   6.838   9.131   1.298  0.0509 -0.1561 -0.1925
 5466W        W 9530   1.427   5.004  10.268  0.2814 -0.0619 -0.0277
 5467W        W 9531  10.587   1.104   9.480  0.0043  0.0219 -0.1908
 5468W        W 9532   1.210   5.913   0.602 -0.1050 -0.0608 -0.0433
 5469W        W 9533  10.453   5.297   1.148  0.3950  0.0891 -0.0695
 5470W        W 9534   6.435   1.076   1.426 -0.1120 -0.1206  0.4387
 5471W        W 9535   9.302   4.696   9.578 -0.1316 -0.0265 -0.4174
 5472W        W 9536   4.861  10.008   1.065 -0.1168  0.1426 -0.2835
 5473W        W 9537   1.960   7.206   2.934 -0.3759 -0.2114  0.0611
 5474W        W 9538   1.117   5.087  10.895  0.3913 -0.1665  0.0527
 5475W        W 9539   0.897   9.653   1.046  0.1768 -0.0068 -0.2031
 5476W        W 9540   9.831   3.170   9.085 -0.0570 -0.0736  0.0290
 5477W        W 9541   7.822   9.890   0.532 -0.0716 -0.0640 -0.0794
 5478W        W 9542   5.967   8.890   1.851 -0.0901 -0.0879 -0.0798
 5479W        W 9543   4.299   9.924   9.494 -0.5502  0.1576 -0.1952
 5480W        W 9544   9.643   1.012  10.940  0.0810  0.3410  0.0571
 5481W        W 9545   4.750   2.432   8.918 -0.3602 -0.2185  0.1463
 5482W        W 9546   9.201   7.281   0.193  0.3391 -0.3777 -0.1332
 5483W        W 9547   4.317   4.821   2.027  0.2983 -0.2320 -0.0239
 5484W        W 9548   5.732   7.475  10.123  0.2658  0.4711  0.0632
 5485W        W 9549   1.466   0.121   1.190  0.0244  0.0144 -0.2496
 5486W        W 9550   4.981   7.391   2.324 -0.2611 -0.0403  0.0983
 5487W        W 9551   8.766   4.431   9.765  0.1233  0.0056  0.3155
 5488W        W 9552   2.876   1.672   9.227  0.1924 -0.0929 -0.1912
 5489W        W 9553   8.019   9.360   2.816 -0.0777  0.0221  0.0583
 5490W        W 9554  10.391   9.086   9.627 -0.2778  0.0449  0.1201
 5491W        W 9555   5.462   8.476  10.281 -0.3448 -0.1048 -0.3181
 5492W        W 9556   0.451   4.030   8.314  0.5708 -0.2072  0.1812
 5493W        W 9557   4.541   1.379   3.484  0.2138 -0.1539  0.1041
 5494W        W 9558  10.402   6.785   3.406 -0.1851 -0.2118  0.0378
 5495W        W 9559   6.415   4.662   2.527  0.0479  0.1664  0.1218
 5496W        W 9560   6.197   3.253   9.109 -0.3696  0.2506  0.1291
 5497W        W 9561   9.766   2.883   1.596  0.1868  0.0220 -0.0187
 5498W        W 9562   4.819  10.523   0.878  0.4098 -0.1506 -0.1326
 5499W        W 9563   2.969   2.558   0.255 -0.2759  0.2826 -0.3398
 5500W        W 9564   1.181   5.053   1.700 -0.0552 -0.1880 -0.0287
 5501W        W 9565   2.844   8.924   3.201  0.1151  0.0147 -0.0928
 5502W        W 9566   3.016   2.286   1.180 -0.1270  0.0571  0.0130
 5503W        W 9567   1.796   9.639  10.120  0.2421  0.2579 -0.1808
 5504W        W 9568   4.135   7.891   3.000  0.1325  0.3768 -0.0239
 5505W        W 9569   9.099   8.270   8.184 -0.1644 -0.1566  0.1870
 5506W        W 9570   0.606   5.982   8.910  0.1285 -0.0716 -0.1123
 5507W        W 9571   3.499  10.491  10.422  0.0140 -0.1723  0.1865
 5508W        W 9572   2.767   0.932   3.120  0.0428  0.2877  0.2577
 5509W        W 9573   7.026   1.527  10.509  0.2277  0.0137 -0.0407
 5510W        W 9574  10.669   3.785   0.066 -0.0355  0.0615  0.3976
 5511W        W 9575   0.226   1.591   0.564 -0.2724  0.0324 -0.1801
 5512W        W 9576   1.345   9.376   1.873  0.1582  0.0296  0.0024
 5513W        W 9577   6.813   0.923   8.454  0.0976  0.0047 -0.1906
 5514W        W 9578   9.491   5.857   2.058  0.2717 -0.1535  0.1137
 5515W        W 9579  10.449   6.045   1.853 -0.0113 -0.1144  0.1597
 5516W        W 9580   5.697   8.541   8.213  0.2367 -0.1917 -0.0532
 5517W        W 9581   3.987   2.197   3.451  0.0494  0.3329 -0.1207
 5518W        W 9582   3.155   8.873   3.620  0.0412 -0.1894 -0.2222
 5519W        W 9583   9.448   9.563   9.541  0.0548  0.3030  0.1852
 5520W        W 9584  10.838   2.029   0.731  0.3093 -0.0078 -0.4789
 5521W        W 9585  10.485   0.670   0.306  0.0750  0.0814 -0.0850
 5522W        W 9586   4.697   9.499  10.044  0.1013  0.0133  0.1064
 5523W        W 9587   3.464   8.132   9.788 -0.0423 -0.2114  0.1294
 5524W        W 9588   8.888  10.256   1.130  0.0535  0.2167  0.0196
 5525W        W 9589   4.242   5.819   0.803 -0.1249 -0.0932 -0.0875
 5526W        W 9590   8.344   5.531   8.971 -0.1909  0.0540  0.0154
 5527W        W 9591   9.432   3.376   1.370 -0.2864 -0.0916 -0.2478
 5528W        W 9592   1.741   5.567   1.278 -0.2461  0.0297  0.1651
 5529W        W 9593   4.379   7.586   2.618 -0.1658 -0.4422  0.2443
 5530W        W 9594   0.881   6.372   0.537 -0.2377 -0.1219  0.1086
 5531W        W 9595   5.856   4.296   2.562 -0.0359 -0.0411 -0.3055
 5532W        W 9596   5.873   2.577  10.701 -0.2166  0.1191  0.1626
 5533W        W 9597   7.916   7.840   7.071 -0.0108  0.2174  0.0301
 5534W        W 9598   4.578   8.940   9.638 -0.0296  0.1896 -0.1460
 5535W        W 9599   9.462   0.228   0.982 -0.0495  0.1088  0.0087
 5536W        W 9600   3.937   4.753   9.916 -0.1719 -0.0363  0.0323
 5537W        W 9601   7.384   9.631   7.106  0.0883 -0.0238  0.1989
 5538W        W 9602  10.529   1.712   1.912 -0.3273  0.1755 -0.0058
 5539W        W 9603   2.414   3.667  10.938  0.3813 -0.2557 -0.0552
 5540W        W 9604   7.633   0.657   1.491  0.3329 -0.1015  0.0267
 5541W        W 9605   3.599   2.458   1.855  0.2787 -0.0392 -0.0078
 5542W        W 9606   3.489   0.898   1.493  0.3905  0.2018  0.1456
 5543W        W 9607   4.223   1.799   9.868  0.1392  0.1749  0.1101
 5544W        W 9608  10.376   9.649   8.120  0.5924 -0.0330 -0.0203
 5545W        W 9609   1.904   6.413   9.034 -0.1948 -0.1260  0.1947
 5546W        W 9610   0.497   0.681  10.806  0.2010  0.0205  0.1501
 5547W        W 9611   8.021   8.408   3.476  0.0573 -0.1957 -0.0040
 5548W        W 9612   9.318   8.678   2.709 -0.2134 -0.1195 -0.0575
 5549W        W 9613   2.550   4.219  10.612 -0.0889 -0.3196 -0.1641
 5550W        W 9614   2.720   2.166   2.412  0.0858  0.0922 -0.1372
 5551W        W 9615   0.956   3.838   4.135  0.1091  0.0418 -0.3022
 5552W        W 9616   0.528   8.244  10.786 -0.3406 -0.0659 -0.1780
 5553W        W 9617   8.783   0.428   3.346  0.2343  0.1593 -0.0971
 5554W        W 9618   2.283   4.804   0.448  0.3330 -0.0829  0.0753
 5555W        W 9619   2.948   8.959   8.969  0.0390 -0.3363  0.0845
 5556W        W 9620   3.051   4.906   8.560 -0.3514  0.0253  0.1374
 5557W        W 9621   9.331   1.111  10.222 -0.1293 -0.1089 -0.2423
 5558W        W 9622   6.848   0.530   7.227 -0.0213 -0.0731  0.0987
 5559W        W 9623   5.858   8.798  10.156 -0.0246  0.2639  0.4665
 5560W        W 9624  10.255   2.999   8.183  0.3574  0.0947 -0.0695
 5561W        W 9625   9.625   2.374   1.131 -0.0709  0.0753 -0.0151
 5562W        W 9626   6.240   5.451   2.227 -0.3655 -0.4729 -0.0399
 5563W        W 9627   8.218   4.839   4.132  0.2047  0.1743  0.1147
 5564W        W 9628  10.826   4.417   1.266 -0.0678  0.0529 -0.0378
 5565W        W 9629   3.362   0.655   0.076  0.1531 -0.2725 -0.2646
 5566W        W 9630   4.045   3.710   9.563  0.1900  0.1096 -0.0675
 5567W        W 9631   9.341   2.153  10.375 -0.1097  0.0849 -0.1119
 5568W        W 9632   3.478   3.201   3.064  0.0755  0.4206  0.1096
 5569W        W 9633   6.360   7.286   9.367  0.1487  0.2465 -0.0333
 5570W        W 9634   2.245   3.372  10.050  0.2516 -0.1779 -0.2137
 5571W        W 9635   3.819  10.526   0.750 -0.0201 -0.3072  0.1031
 5572W        W 9636   1.220   2.534   8.955  0.0362  0.1566 -0.0108
 5573W        W 9637   0.722   2.457   7.807 -0.0749 -0.1416  0.0027
 5574W        W 9638  10.018   9.893   0.371 -0.1667 -0.1054  0.1384
 5575W        W 9639   2.196   7.874   1.313 -0.0763  0.2735  0.1527
 5576W        W 9640   6.160   4.868   8.203 -0.3052 -0.1063  0.0483
 5577W        W 9641   7.727   8.202  10.524 -0.0074  0.0460  0.0454
 5578W        W 9642   3.829   1.976  10.613  0.1759  0.0038 -0.0741
 5579W        W 9643   9.470   4.923  10.009  0.1371 -0.3801 -0.1459
 5580W        W 9644   0.699   1.720   9.428 -0.0808  0.0218  0.3968
 5581W        W 9645  10.730   6.972   2.140 -0.0083 -0.2522 -0.1150
 5582W        W 9646   3.680   7.698   1.983 -0.2896  0.4302  0.2351
 5583W        W 9647   6.561   9.035   9.709 -0.0907 -0.1093  0.1047
 5584W        W 9648   7.517   8.161   0.833  0.0527 -0.0184  0.0458
 5585W        W 9649   5.850   0.884   8.443  0.2345  0.1238  0.0919
 5586W        W 9650   6.038   7.398   3.359 -0.5533  0.0274  0.0755
 5587W        W 9651  10.000   6.506   3.362  0.1661 -0.1461  0.0962
 5588W        W 9652   1.257   8.539   8.341 -0.0885  0.1412 -0.0128
 5589W        W 9653   2.029  10.413   9.352 -0.1956  0.1165 -0.1937
 5590W        W 9654   2.023  10.754   0.058  0.0927 -0.1764  0.2714
 5591W        W 9655   2.260   3.531   8.140 -0.4764 -0.1967  0.2684
 5592W        W 9656   9.664   8.022   0.287  0.0665 -0.1105  0.0083
 5593W        W 9657   5.020  10.443  11.055  0.0547  0.0549  0.1111
 5594W        W 9658   0.322   6.073   2.779 -0.0580  0.1701 -0.0453
 5595W        W 9659   6.558   4.561   0.492 -0.0791  0.0771  0.1206
 5596W        W 9660   4.621   4.095  10.522  0.1334  0.0735  0.2845
 5597W        W 9661  10.190   7.660   2.797 -0.1523  0.0364  0.0905
 5598W        W 9662   5.636   6.480   2.948 -0.1316  0.0905  0.0698
 5599W        W 9663   9.321   6.969  10.004 -0.0750 -0.0152  0.0419
 5600W        W 9664   3.987   0.441   3.465  0.4698  0.4582  0.2126
 5601W        W 9665   8.329   3.971   2.158 -0.0014 -0.0598  0.2396
 5602W        W 9666   0.189   0.798  10.296  0.1087  0.2513 -0.1166
 5603W        W 9667  10.762   9.113  10.037 -0.0300  0.0107  0.0432
 5604W        W 9668  10.273   9.405   8.666 -0.3365  0.0595  0.3334
 5605W        W 9669   4.523   6.293   1.257 -0.0635  0.3076  0.1565
 5606W        W 9670   3.192   5.530   9.089  0.0014  0.2209 -0.3517
 5607W        W 9671   1.009   8.463   0.887  0.2937  0.0551 -0.2399
 5608W        W 9672   2.897   0.538   0.925 -0.4364 -0.0370  0.2540
 5609W        W 9673  10.113   7.722   0.141 -0.0563 -0.1954 -0.0591
 5610W        W 9674   1.602   8.891   2.565 -0.1664  0.0409 -0.0289
 5611W        W 9675   3.353   2.828   0.488  0.0180  0.2422  0.0851
 5612W        W 9676  10.811   7.204  10.901  0.0640  0.2838  0.0272
 5613W        W 9677   5.693   4.728   0.780  0.0222  0.0947 -0.1706
 5614W        W 9678   7.586   2.625   8.855 -0.0602  0.3534  0.2333
 5615W        W 9679  10.103   1.431   1.959  0.0045 -0.2924 -0.0950
 5616W        W 9680   6.596   7.071   8.439  0.0197  0.0590 -0.0978
 5617W        W 9681   3.628   2.357   1.357  0.0355  0.3656  0.2520
 5618W        W 9682   6.364   5.219   1.787 -0.0947 -0.1175 -0.0877
 5619W        W 9683   5.013   0.368   8.252 -0.0036 -0.1262 -0.3136
 5620W        W 9684   2.658   2.316  10.503 -0.0074 -0.1562  0.3696
 5621W        W 9685   8.250   4.604   1.199  0.0446  0.1388 -0.0391
 5622W        W 9686   5.289   2.125   3.537 -0.2585 -0.1223 -0.1798
 5623W        W 9687   7.879   7.715  10.801  0.0835  0.0762 -0.1257
 5624W        W 9688   1.019   4.377   9.982  0.0448  0.0097 -0.1700
 5625W        W 9689   2.917   3.479  10.184 -0.2224 -0.1676  0.0689
 5626W        W 9690   9.168   0.027   8.290 -0.0309 -0.1640  0.2712
 5627W        W 9691   5.138   4.067  10.393  0.0365  0.0879  0.2156
 5628W        W 9692   4.642   1.840  10.173 -0.1347 -0.0468 -0.0007
 5629W        W 9693   6.509   5.583   4.257 -0.1997  0.3140  0.0470
 5630W        W 9694   6.620  10.896   2.100 -0.0828 -0.0219  0.0494
 5631W        W 9695   7.191   5.163  10.980  0.1389 -0.0024 -0.1293
 5632W        W 9696   5.738  10.347   9.465 -0.2798 -0.2084  0.0394
 5633W        W 9697   1.207   1.413   2.675 -0.2399  0.2796  0.1552
 5634W        W 9698   0.628   8.685   3.149 -0.0927 -0.0503  0.0758
 5635W        W 9699   6.025  10.227  10.953  0.2087  0.0914 -0.2010
 5636W        W 9700   1.092   2.618  10.578 -0.1711  0.1425 -0.0954
 5637W        W 9701   4.517  10.724  10.109  0.0268  0.0858 -0.1798
 5638W        W 9702   9.322   8.598   0.087  0.2964 -0.2185 -0.0767
 5639W        W 9703   2.149   5.611   1.009 -0.0979 -0.0505  0.0458
 5640W        W 9704   3.785   7.933   3.368 -0.0611  0.1094 -0.1025
 5641W        W 9705   8.785   4.083  10.833  0.0020  0.0263  0.1220
 5642W        W 9706   2.160   6.724   9.805 -0.2217  0.1125  0.1019
 5643W        W 9707   9.424  10.147   1.134  0.0252 -0.1806 -0.0549
 5644W        W 9708   7.837   8.904   9.743  0.1837 -0.1339 -0.0336
 5645W        W 9709   6.150   4.471   9.654  0.0662 -0.2301 -0.2578
 5646W        W 9710   5.358   9.042   0.814 -0.0300 -0.2178  0.0215
 5647W        W 9711   6.151   3.524   2.639  0.0778  0.0178  0.1820
 5648W        W 9712   7.798  10.279   1.225 -0.1845 -0.1260  0.2819
 5649W        W 9713   2.923  10.209   1.372 -0.3412 -0.0500 -0.2013
 5650W        W 9714   6.701   5.571  10.352 -0.2066 -0.4322 -0.3216
 5651W        W 9715   4.813   3.923   1.681 -0.0739 -0.1995 -0.1336
 5652W        W 9716   3.943   0.770   1.297  0.0483  0.1445 -0.1891
 5653W        W 9717   9.004   2.254   9.988 -0.2433  0.0638  0.0941
 5654W        W 9718   9.037   0.577  10.652 -0.0104  0.1634 -0.0884
 5655W        W 9719   3.298   1.692   9.499 -0.1545  0.0277  0.0166
 5656W        W 9720   9.979   2.406   9.307  0.0922  0.0268 -0.3961
 5657W        W 9721   9.355   0.323   7.955 -0.0979  0.1396  0.0956
 5658W        W 9722   6.458   1.055   9.298 -0.0718 -0.2664 -0.3297
 5659W        W 9723   0.613   8.837   7.606  0.0286 -0.0976 -0.0433
 5660W        W 9724   7.926   9.088   7.781 -0.1375 -0.0195 -0.1016
 5661W        W 9725   2.921  10.459   3.326  0.0086 -0.1142 -0.3142
 5662W        W 9726   1.501   3.940   8.295  0.1684 -0.1150 -0.0200
 5663W        W 9727   8.716   4.800   7.429  0.0758 -0.0926  0.1010
 5664W        W 9728   5.984   7.588   2.110  0.1338 -0.0735 -0.2052
 5665W        W 9729   0.759   4.151   8.717 -0.3832  0.1541  0.1158
 5666W        W 9730   3.857   7.328   8.969 -0.3621  0.2420 -0.0731
 5667W        W 9731   2.761   2.999  10.893  0.0165  0.0032 -0.3270
 5668W        W 9732   5.446   9.276  10.684  0.1789 -0.2341 -0.3273
 5669W        W 9733   2.259   2.282   1.597  0.0545 -0.1234  0.0573
 5670W        W 9734   1.851   3.973   9.427  0.0354  0.2887 -0.0780
 5671W        W 9735   9.563   4.402  10.731  0.2033  0.2620  0.1736
 5672W        W 9736   0.856   7.362   9.827  0.1208  0.1243 -0.3180
 5673W        W 9737   6.585   1.289   9.763  0.0762 -0.0564 -0.1964
 5674W        W 9738  10.867   1.888   2.317 -0.1299  0.2204 -0.0706
 5675W        W 9739   1.947   6.962   7.843  0.0076 -0.2138 -0.0953
 5676W        W 9740   4.133   1.557   2.308  0.0447 -0.1264  0.1424
 5677W        W 9741   2.125   6.052   0.189 -0.2437  0.0249 -0.1058
 5678W        W 9742   9.367   8.941   7.072  0.0135  0.1205 -0.3328
 5679W        W 9743   4.665   7.713   3.225  0.1360  0.1624  0.2384
 5680W        W 9744   6.810   4.142   0.434  0.1383  0.1462  0.1295
 5681W        W 9745   1.619   6.538   1.364  0.3295  0.2343  0.0218
 5682W        W 9746   1.272   0.557   7.035  0.0899 -0.2092  0.0033
 5683W        W 9747   6.543   0.445  10.074  0.0673 -0.1379  0.0203
 5684W        W 9748   5.822   6.452   8.925 -0.2827  0.1040 -0.2136
 5685W        W 9749   8.024   4.408   9.863  0.2740 -0.1741 -0.1853
 5686W        W 9750   7.904   7.270   9.376 -0.1392 -0.0632 -0.2163
 5687W        W 9751   1.245   4.556  11.036  0.3074 -0.1983 -0.3984
 5688W        W 9752   8.535   6.387   2.302 -0.0273  0.0238 -0.3206
 5689W        W 9753   1.564   6.461   8.497  0.1117  0.1063 -0.0681
 5690W        W 9754   6.754   8.795   0.428  0.1037  0.3667 -0.1441
 5691W        W 9755   3.184   0.230   0.488  0.1622  0.1722 -0.0359
 5692W        W 9756   0.046   3.404   9.747  0.3594 -0.1885  0.0012
 5693W        W 9757  10.128   0.257   0.254  0.2616  0.2542 -0.2109
 5694W        W 9758   9.020  10.123   0.305 -0.0594 -0.3604  0.1097
 5695W        W 9759   3.270   8.611  10.646  0.0058 -0.0898  0.0417
 5696W        W 9760   7.504   8.452   8.255 -0.0130 -0.1070  0.0413
 5697W        W 9761   3.771   9.220   9.021  0.0748 -0.0186 -0.1419
 5698W        W 9762   8.183   1.255   1.162 -0.0850 -0.0338 -0.1135
 5699W        W 9763   6.793   3.403  10.748 -0.3299 -0.3071  0.2177
 5700W        W 9764  10.366   0.139   1.135 -0.0756  0.1378  0.1057
 5701W        W 9765   4.197   2.496   3.025  0.1146 -0.1760  0.0880
 5702W        W 9766   3.656   7.368   1.577  0.1392 -0.1286 -0.1114
 5703W        W 9767   0.695   5.887  10.835  0.2735 -0.1718 -0.1219
 5704W        W 9768   8.027  10.535  10.761 -0.0095 -0.0981  0.0313
 5705W        W 9769   5.892   0.033   2.660 -0.0003  0.0528  0.1457
 5706W        W 9770   7.476   6.921   2.017  0.0055 -0.4691 -0.0397
 5707W        W 9771  10.841   9.889   8.086  0.1149 -0.0745  0.2118
 5708W        W 9772   5.828   9.982   2.809 -0.1741  0.1235 -0.1293
 5709W        W 9773   0.445   4.439   1.352 -0.1806 -0.0702  0.2800
 5710W        W 9774   5.952   3.150   2.350 -0.4629  0.2139  0.4977
 5711W        W 9775   7.516  10.595   9.308 -0.2396 -0.0450 -0.1049
 5712W        W 9776   5.677   1.160   0.728 -0.1893 -0.4738  0.0398
 5713W        W 9777   3.469   9.742   0.852 -0.0435  0.3177 -0.0775
 5714W        W 9778   8.439   0.930   7.093 -0.1294  0.1051  0.3608
 5715W        W 9779   5.174   8.799   2.657 -0.0024  0.1402 -0.3137
 5716W        W 9780   6.919   0.303  10.388  0.3760 -0.3604  0.3011
 5717W        W 9781   8.090   9.821   1.244  0.4277  0.0847 -0.0952
 5718W        W 9782   4.521   0.702  10.092  0.0454 -0.2490  0.0197
 5719W        W 9783  10.347   3.204   7.252 -0.1295 -0.0910  0.0757
 5720W        W 9784  10.338   4.593   0.756 -0.1925 -0.2434 -0.0256
 5721W        W 9785   5.271   2.205   8.345 -0.0176 -0.0958  0.0055
 5722W        W 9786   8.003   7.052   0.681 -0.3003  0.0074  0.1047
 5723W        W 9787  10.732   5.501   3.770 -0.1495  0.2740  0.0723
 5724W        W 9788   7.523   1.587   9.998  0.0827 -0.0327 -0.0817
 5725W        W 9789   1.751   3.816   2.660 -0.3675 -0.0509  0.0830
 5726W        W 9790   1.528   1.747   1.418  0.1513  0.2177 -0.0455
 5727W        W 9791   8.405   6.629   0.220  0.3069 -0.0573  0.0713
 5728W        W 9792   2.218   7.482   1.662  0.2118  0.0543  0.0282
 5729W        W 9793   3.576   3.427   9.685 -0.1374 -0.0529 -0.0268
 5730W        W 9794   5.052   2.402   2.454 -0.2567  0.2961 -0.2492
 5731W        W 9795   3.705   2.144  10.175  0.0611  0.0029  0.0609
 5732W        W 9796   2.724   8.817  10.549 -0.0804 -0.0779  0.2280
 5733W        W 9797   5.830   7.264  10.579 -0.2767 -0.4049  0.1853
 5734W        W 9798   6.882   7.460   2.480 -0.1542 -0.1310  0.1077
 5735W        W 9799   8.727   4.619   1.299 -0.1107  0.3054  0.0670
 5736W        W 9800   4.089   8.703  10.470  0.0161  0.1437  0.4221
 5737W        W 9801   3.263  10.738  10.811 -0.0511 -0.1400 -0.0852
 5738W        W 9802   1.085   8.280   9.902  0.2483  0.0758  0.1696
 5739W        W 9803   7.417   8.620  10.571 -0.1708 -0.1757 -0.2875
 5740W        W 9804   7.582   9.214   2.645 -0.0255  0.3992  0.1607
 5741W        W 9805   8.463   2.966   8.440 -0.4097 -0.1185  0.0122
 5742W        W 9806   9.767   7.091   2.062  0.0046 -0.2241 -0.0036
 5743W        W 9807  10.013   7.172   9.559 -0.1820 -0.1096 -0.0944
 5744W        W 9808   7.912   5.117   3.742  0.1052 -0.2700  0.0094
 5745W        W 9809   0.527   3.631   8.030 -0.0952  0.0191 -0.0256
 5746W        W 9810  10.157   4.958   3.304 -0.1856  0.0946  0.1313
 5747W        W 9811   5.493   0.847   8.891  0.4018 -0.1530  0.2168
 5748W        W 9812   2.734   0.457   0.314 -0.0298  0.1688 -0.1246
 5749W        W 9813   7.934   0.428  10.645 -0.2014  0.0993  0.5496
 5750W        W 9814   5.265   6.840   8.332  0.0547 -0.2267 -0.3850
 5751W        W 9815   2.222   4.852   2.815  0.2599 -0.2029 -0.0201
 5752W        W 9816  10.859   5.438  10.167  0.1795  0.0167 -0.4379
 5753W        W 9817   0.169   7.217   1.152 -0.1990  0.1521 -0.0526
 5754W        W 9818   8.403   4.090   9.733 -0.0215  0.0786 -0.0914
 5755W        W 9819   3.565  10.310   8.090 -0.0846 -0.2069  0.1372
 5756W        W 9820   2.990   7.479   9.200 -0.1097  0.0648 -0.0595
 5757W        W 9821   6.744   0.856   0.505 -0.0310  0.1166 -0.1573
 5758W        W 9822   8.407   8.102   7.771 -0.0788  0.2002 -0.0104
 5759W        W 9823   6.926   2.781   8.172 -0.1011 -0.3328 -0.0657
 5760W        W 9824   0.972  10.267   0.311 -0.0453 -0.1368 -0.0528
 5761W        W 9825   2.459   8.618  10.921  0.0546  0.0118 -0.0566
 5762W        W 9826   9.809   9.352   8.794 -0.2786 -0.1436 -0.0070
 5763W        W 9827   6.863   7.035   2.777  0.1376 -0.0050  0.0992
 5764W        W 9828   0.392   1.117   0.758  0.3720  0.1570  0.2024
 5765W        W 9829  10.479   7.043   8.246  0.0707  0.1789  0.0180
 5766W        W 9830   6.509   7.355   0.054  0.1920  0.0590  0.0446
 5767W        W 9831   8.597   1.323   2.321 -0.1698 -0.1305  0.0452
 5768W        W 9832   3.793   6.584   0.637  0.0209  0.3434  0.0219
 5769W        W 9833   9.481   9.974   0.615 -0.3956  0.3106 -0.0528
 5770W        W 9834   4.340   7.564   8.836  0.2127 -0.0173  0.1476
 5771W        W 9835   7.780   0.631   2.818 -0.2274  0.1581  0.0013
 5772W        W 9836   1.358  10.649   0.576  0.3145 -0.0967 -0.1353
 5773W        W 9837   9.648   7.375   8.660 -0.1037  0.1141 -0.0230
 5774W        W 9838   0.078  10.618   9.984 -0.1538 -0.0635 -0.0999
 5775W        W 9839   6.037   1.363   1.452 -0.1126 -0.2194  0.0098
 5776W        W 9840   0.300   4.094  11.035 -0.0888 -0.0658 -0.2925
 5777W        W 9841  10.292   6.594   8.618 -0.1402  0.0932 -0.3656
 5778W        W 9842   9.734   6.666  10.802  0.1769 -0.0339  0.1866
 5779W        W 9843   4.178   7.586   3.401 -0.0856  0.0839  0.0293
 5780W        W 9844   0.467   3.400   9.454 -0.1256 -0.1993  0.0462
 5781W        W 9845   7.816   5.143  10.709  0.4777  0.0599 -0.1016
 5782W        W 9846   9.007   5.086   9.404  0.1059  0.2375  0.0664
 5783W        W 9847   7.000   6.964  10.388  0.3058  0.0364 -0.0352
 5784W        W 9848   9.293   5.596  11.017  0.1910 -0.0563  0.0638
 5785W        W 9849   8.610   5.161   4.316 -0.2694 -0.0740  0.1188
 5786W        W 9850   5.572   5.517   9.360 -0.1413  0.0867 -0.1470
 5787W        W 9851   1.610   3.082   0.386  0.0658 -0.0598 -0.0431
 5788W        W 9852   9.476   4.261   1.559 -0.1089 -0.2434 -0.1140
 5789W        W 9853   0.528   0.891   3.940  0.0592 -0.1092  0.2461
 5790W        W 9854   1.524   6.809   8.103 -0.1259  0.2548 -0.0650
 5791W        W 9855   9.384   2.566   2.915  0.1872  0.2392  0.2814
 5792W        W 9856   7.742   2.903   8.027 -0.0261 -0.1997  0.0852
 5793W        W 9857   8.922   9.808  10.932 -0.0908  0.1054 -0.0697
 5794W        W 9858   8.096   9.118   0.141 -0.0827 -0.1139  0.2899
 5795W        W 9859   7.702   3.615   2.840  0.0060  0.2097 -0.1763
 5796W        W 9860   5.114  10.362   2.429 -0.1213 -0.0822 -0.1057
 5797W        W 9861   6.126   6.393   2.572  0.1704 -0.2138 -0.1662
 5798W        W 9862   0.085   8.426   9.073 -0.2931 -0.1460 -0.1796
 5799W        W 9863   9.907   1.996   7.413  0.0012  0.0365 -0.4053
 5800W        W 9864   8.772   0.516   2.836  0.0245 -0.2625 -0.2278
 5801W        W 9865   3.382   2.957   1.733 -0.2427  0.2161  0.2566
 5802W        W 9866   3.248   7.150   9.420 -0.0451  0.2116 -0.5826
 5803W        W 9867   1.513   9.288   3.817 -0.0594  0.1866  0.1823
 5804W        W 9868   5.324   8.917   8.271  0.2762  0.0932 -0.1423
 5805W        W 9869   1.409   0.140   9.743  0.1797  0.1685 -0.0837
 5806W        W 9870   2.069   4.632   8.259 -0.3387 -0.0217  0.0363
 5807W        W 9871   6.509   8.367   2.766  0.0255  0.1081 -0.3507
 5808W        W 9872   1.006  10.744  10.600 -0.2496  0.4160 -0.1563
 5809W        W 9873   7.366   7.492   8.187  0.4191  0.1347 -0.3040
 5810W        W 9874   4.295   1.766   1.828 -0.0900  0.1310  0.1738
 5811W        W 9875   4.647   6.747   0.985  0.3633  0.0825  0.2859
 5812W        W 9876   2.094   0.728   1.567 -0.2104  0.0060 -0.1380
 5813W        W 9877   2.074  10.422   9.888 -0.1203  0.1292  0.1093
 5814W        W 9878   4.557   1.384   9.305 -0.0306  0.0766 -0.0241
 5815W        W 9879   1.477   4.536  10.175  0.0960  0.0450  0.0443
 5816W        W 9880   6.628   8.139   9.789 -0.1349 -0.1411  0.4057
 5817W        W 9881   4.935   7.730   8.829 -0.0177  0.4079  0.3825
 5818W        W 9882   1.278   5.239   3.614  0.2049  0.0228  0.0755
 5819W        W 9883   7.961   8.285   8.584  0.0897 -0.1914  0.0527
 5820W        W 9884   1.394   5.907   7.633  0.2690 -0.0935  0.0157
 5821W        W 9885   7.454   5.655   8.987 -0.0892 -0.1286  0.2744
 5822W        W 9886   1.240   6.722   9.438  0.2236 -0.1495 -0.0801
 5823W        W 9887   6.029   0.517   0.198 -0.2208  0.0263 -0.1055
 5824W        W 9888   1.947   6.980   8.376  0.3446 -0.2397  0.1465
 5825W        W 9889   2.743   4.564   0.418  0.2219 -0.5314 -0.1507
 5826W        W 9890  10.697   3.256   8.377  0.0870  0.1310  0.2005
 5827W        W 9891   1.958   7.559   3.405  0.2524  0.1851 -0.0114
 5828W        W 9892   5.364   0.676   8.430  0.1693 -0.3212 -0.0467
 5829W        W 9893   8.602   2.229   0.299 -0.0874 -0.3826  0.1349
 5830W        W 9894   7.651   1.428   3.341  0.0278 -0.2041 -0.0742
 5831W        W 9895   1.677   3.137   8.674 -0.3187 -0.2463 -0.1202
 5832W        W 9896  10.532   2.582   9.853 -0.0710  0.0405  0.0659
 5833W        W 9897   3.999   6.993   3.221 -0.0278  0.0077 -0.2151
 5834W        W 9898   8.701   0.152  10.360 -0.4508 -0.3035  0.0029
 5835W        W 9899   6.217  10.112   9.645 -0.2084  0.1099 -0.0834
 5836W        W 9900  10.773   3.927   9.642  0.2030 -0.1317  0.2699
 5837W        W 9901   0.308   9.385   2.309  0.0436 -0.2664  0.0119
 5838W        W 9902   2.744   4.135   2.340 -0.1743  0.1075 -0.1571
 5839W        W 9903   5.796   5.813   3.691 -0.0302 -0.0524  0.1728
 5840W        W 9904   6.179   7.393   8.187  0.0820 -0.2916 -0.2552
 5841W        W 9905   3.736   6.108  10.364  0.1003 -0.0900 -0.1171
 5842W        W 9906   8.028   6.685   3.283 -0.2433  0.1278 -0.1804
 5843W        W 9907   4.561   8.844  10.677  0.0521 -0.2493  0.0663
 5844W        W 9908   2.351   7.695   8.833 -0.0842 -0.0499 -0.1418
 5845W        W 9909   1.711  10.281   0.015 -0.0408  0.3263  0.1405
 5846W        W 9910   3.821   2.977   9.837  0.1346 -0.1832 -0.1692
 5847W        W 9911   1.572   6.134   9.340 -0.0111 -0.0721 -0.3158
 5848W        W 9912   8.444   9.136   7.004 -0.0022  0.0376  0.1825
 5849W        W 9913   9.382   5.855  10.024 -0.4014  0.4128  0.1050
 5850W        W 9914   1.165   5.420   8.972 -0.2631 -0.0229 -0.2445
 5851W        W 9915   0.091   7.343   8.878 -0.2681 -0.5470 -0.1578
 5852W        W 9916   4.487   4.172   1.386 -0.0828  0.0435  0.0711
 5853W        W 9917   5.294   7.391   2.715  0.0870 -0.3900 -0.0099
 5854W        W 9918   5.780   3.108   0.488 -0.1135  0.1420 -0.0518
 5855W        W 9919   1.565   0.047   2.103 -0.0721  0.0949  0.3485
 5856W        W 9920   7.282   5.840   3.693  0.2120 -0.0371 -0.0964
 5857W        W 9921   7.525   1.944   8.128  0.1630  0.2586 -0.1296
 5858W        W 9922   8.892   1.973  10.495 -0.3120  0.2678 -0.0352
 5859W        W 9923   5.733  10.420   0.722  0.0969 -0.3867 -0.2169
 5860W        W 9924   5.881  10.194   2.258  0.1589 -0.1510  0.0526
 5861W        W 9925   4.563   8.064   4.475 -0.2051  0.2807  0.1170
 5862W        W 9926   0.965   2.775   9.335  0.0859 -0.2274  0.0361
 5863W        W 9927  10.571   3.739   8.510  0.0696 -0.3818  0.0070
 5864W        W 9928   9.181   1.761   8.179 -0.1898  0.3483  0.0834
 5865W        W 9929   5.001   3.427   2.377 -0.0810  0.1098  0.1351
 5866W        W 9930   6.208   0.906  10.873 -0.0799  0.0976  0.2165
 5867W        W 9931   9.509   6.896   3.207 -0.1118 -0.0085 -0.0041
 5868W        W 9932   5.038   6.553   3.685  0.0791  0.1596 -0.1895
 5869W        W 9933   2.572   5.862   0.435  0.0703 -0.2363 -0.2190
 5870W        W 9934   9.897   4.630   3.856  0.1453  0.0346 -0.0121
 5871W        W 9935  10.321   0.370   3.738 -0.0671  0.0674 -0.0133
 5872W        W 9936  10.772   2.266   8.160  0.0577 -0.0420 -0.0595
 5873W        W 9937   4.182   7.456   9.300  0.0525  0.0134 -0.0837
 5874W        W 9938   1.471   0.211   2.821 -0.1718 -0.1431  0.3686
 5875W        W 9939   9.940   3.616   0.516  0.1379 -0.1195 -0.1243
 5876W        W 9940   3.208   1.243   3.150 -0.1496  0.0310  0.1263
 5877W        W 9941   1.952   9.609   0.666 -0.1561 -0.3610  0.0596
 5878W        W 9942   1.217   1.237   8.174  0.2748  0.0233 -0.0481
 5879W        W 9943   2.120   1.375   2.362  0.0805 -0.1574 -0.1731
 5880W        W 9944   0.253   1.408   1.203  0.0897 -0.0772 -0.0636
 5881W        W 9945   7.868   3.593   9.905  0.0289 -0.0124 -0.1500
 5882W        W 9946   9.544   1.289   0.832  0.0214  0.0102  0.1878
 5883W        W 9947   6.988   9.039   3.350  0.0831 -0.1401 -0.2061
 5884W        W 9948   7.532   2.485   0.921 -0.2611  0.1477 -0.1013
 5885W        W 9949   7.438   4.457   8.763 -0.4595  0.0723  0.1598
 5886W        W 9950   7.121  10.129   9.993  0.1379 -0.0069 -0.0735
 5887W        W 9951   5.494   3.350   2.663 -0.0357  0.1422  0.0442
 5888W        W 9952   9.602   4.471   2.812  0.1121 -0.1992  0.2919
 5889W        W 9953   5.512   2.816   9.455  0.3370  0.1240  0.0054
 5890W        W 9954   8.522   8.322   2.149  0.0695  0.1317 -0.2091
 5891W        W 9955   9.139   5.550   0.639  0.3085  0.1642 -0.2543
 5892W        W 9956   3.484   3.336   8.810  0.0036 -0.3673  0.2243
 5893W        W 9957   4.735   5.244   9.393  0.0441 -0.0924  0.3639
 5894W        W 9958   4.682   1.811   9.620  0.0290 -0.1367 -0.3076
 5895W        W 9959   5.170   5.019   7.805  0.0494 -0.0856  0.3521
 5896W        W 9960   4.420   1.029   1.283  0.0956 -0.2141 -0.1920
 5897W        W 9961   8.011   9.780   9.674 -0.0434 -0.1512  0.0633
 5898W        W 9962   8.118   2.723   0.790 -0.0430 -0.1489  0.1712
 5899W        W 9963   6.856   9.135   0.102 -0.0561  0.0319  0.5011
 5900W        W 9964   2.585   1.331   8.552  0.3404  0.0417 -0.2115
 5901W        W 9965  10.737   0.456  10.126  0.0703 -0.1822  0.0613
 5902W        W 9966   3.884   1.501   0.504 -0.2943  0.2246 -0.0914
 5903W        W 9967   9.572   2.168   2.042 -0.1268 -0.2888 -0.1552
 5904W        W 9968  10.101   9.135   3.227  0.0936 -0.3239  0.3472
 5905W        W 9969   1.359   7.140   9.001  0.2120 -0.1580 -0.0835
 5906W        W 9970   3.722   3.545   1.799 -0.4664 -0.2251 -0.3126
 5907W        W 9971   8.158  10.639   0.211 -0.0943  0.1092  0.1081
 5908W        W 9972   5.129   0.932   0.270  0.0552 -0.1838 -0.1320
 5909W        W 9973   8.078   6.531   0.729 -0.0542 -0.0458 -0.1311
 5910W        W 9974   4.361   5.400   0.555  0.0945 -0.0953  0.1076
 5911W        W 9975   0.168   0.094   1.500  0.1750 -0.3884  0.1397
 5912W        W 9976  10.798   3.544   0.875 -0.0675 -0.1521  0.2627
 5913W        W 9977   1.338   0.917   9.123  0.2375  0.1236 -0.0866
 5914W        W 9978   8.691   9.859   1.915 -0.1416  0.2506 -0.1732
 5915W        W 9979   4.135   1.030   3.524 -0.1385  0.2685 -0.0581
 5916W        W 9980   2.768   1.162   1.244  0.1595 -0.0160 -0.1046
 5917W        W 9981   4.161  10.506  11.004 -0.0787  0.5011 -0.1580
 5918W        W 9982   1.573   9.228   9.921  0.0732  0.1592 -0.1251
 5919W        W 9983   7.802   0.974   1.915 -0.4377 -0.0306  0.2997
 5920W        W 9984   2.024   5.066  10.898  0.0481  0.1589 -0.0500
 5921W        W 9985   9.510   0.972   9.749 -0.2389  0.1793 -0.1954
 5922W        W 9986   2.160   6.257  10.780 -0.0385  0.0871  0.0660
 5923W        W 9987   9.924   0.701   0.371 -0.0493  0.0168 -0.3635
 5924W        W 9988   5.496   8.784   2.098 -0.3977 -0.0884  0.0789
 5925W        W 9989   6.986   6.647   0.124 -0.0815 -0.3254  0.3181
 5926W        W 9990   1.729   0.850  10.605 -0.0364 -0.0456  0.1048
 5927W        W 9991   1.936  10.133   8.641  0.2163 -0.0295  0.0780
 5928W        W 9992   3.561   4.310   8.440  0.1309 -0.0325 -0.3608
 5929W        W 9993   3.106   0.773   0.569  0.0065  0.1432 -0.2734
 5930W        W 9994   7.500   5.965   8.275  0.1569 -0.0662  0.2891
 5931W        W 9995   0.427  10.853   9.620 -0.0631  0.1406  0.0501
 5932W        W 9996   5.025  10.522   1.444  0.1340  0.0515 -0.0538
 5933W        W 9997   5.116   1.754   9.871  0.1389 -0.0102  0.1097
 5934W        W 9998   9.708  10.386   8.706  0.1353  0.0707 -0.2958
 5935W        W 9999   2.152   0.176   2.971  0.1722 -0.1451 -0.1611
 5936W        W10000   0.589   5.060   2.978 -0.1566  0.0394  0.0680
 5937W        W10001   7.012   2.316   9.483  0.1005 -0.0560  0.2035
 5938W        W10002   1.070   4.869   3.252  0.1993  0.0101 -0.0774
 5939W        W10003   1.041   3.038   1.397  0.1677  0.2242  0.1155
 5940W        W10004   9.296   9.422   0.777  0.0644  0.3399  0.1800
 5941W        W10005   3.305   2.200   2.867  0.0699 -0.0298  0.0973
 5942W        W10006   7.385   1.136   0.908 -0.0310 -0.1150  0.2770
 5943W        W10007   8.425   8.223   0.094 -0.1061 -0.2144  0.2894
 5944W        W10008   3.420   0.182   2.913 -0.1976 -0.0001 -0.2757
 5945W        W10009   2.034   5.584   2.042  0.1779  0.2037 -0.2163
 5946W        W10010   3.784  10.309   9.997  0.1402 -0.1063  0.0675
 5947W        W10011   4.977   7.793   2.786 -0.1521 -0.2977 -0.2276
 5948W        W10012   8.108   9.311   9.925 -0.2327  0.1554 -0.0537
 5949W        W10013   4.201  10.197   1.661 -0.1869 -0.1126  0.2239
 5950W        W10014   2.404   1.347   0.993  0.0987 -0.0036 -0.3374
 5951W        W10015   0.866   1.946   9.939 -0.0391  0.1210 -0.0928
 5952W        W10016   3.488   1.951  11.003 -0.2208  0.0501 -0.2350
 5953W        W10017   6.613   3.861   0.829 -0.1477  0.1901  0.1823
 5954W        W10018   8.472   8.939   2.852 -0.2060  0.3264  0.0108
 5955W        W10019   5.743   3.090   0.980 -0.4221  0.1095  0.3842
 5956W        W10020   1.412   3.752   9.547 -0.1360  0.5192 -0.0895
 5957W        W10021   6.407   2.990   0.414 -0.1330  0.5455  0.2071
 5958W        W10022   8.698   4.220   0.309 -0.1814 -0.1646 -0.2765
 5959W        W10023   4.954   5.279   7.176  0.0441  0.2681 -0.1053
 5960W        W10024  10.615   0.155   0.137 -0.0632  0.2968  0.1635
 5961W        W10025   4.547   5.593   8.274 -0.0481 -0.1538 -0.1791
 5962W        W10026   4.293   8.077   9.570 -0.1121 -0.1239  0.0084
 5963W        W10027   7.848   4.531   0.183  0.1039 -0.1542  0.1794
 5964W        W10028   6.066   3.839   9.789 -0.0769  0.0604 -0.3422
 5965W        W10029  10.509   7.376   2.423  0.0971  0.1073 -0.1088
 5966W        W10030   5.431   7.546   8.885 -0.2595  0.0838  0.0772
 5967W        W10031   3.132   3.184  10.593 -0.2594 -0.1266 -0.1021
 5968W        W10032   9.003   9.631   8.999  0.1574  0.0840  0.2245
 5969W        W10033   5.959   7.692   7.900 -0.1042 -0.0902  0.0461
 5970W        W10034   9.054   5.447   4.205 -0.0237  0.1233  0.1652
 5971W        W10035   0.577   3.716   8.938 -0.0063  0.1534 -0.1171
 5972W        W10036   9.981   3.903   8.533 -0.0364 -0.0606  0.0268
 5973W        W10037  10.326   0.459   2.324  0.0649  0.0771  0.1374
 5974W        W10038   9.583  10.037   2.189  0.4425 -0.0497  0.0966
 5975W        W10039   0.046   0.345   9.232 -0.3368  0.0992  0.0806
 5976W        W10040   1.911   7.757  10.964  0.1323  0.3435  0.2605
 5977W        W10041   2.565   0.526   2.574  0.2891 -0.3065 -0.0855
 5978W        W10042   3.452   2.371  10.728 -0.0077  0.0878  0.0905
 5979W        W10043   2.683   1.162   9.147  0.1773  0.0817  0.4545
 5980W        W10044   6.765   8.820  10.187 -0.3802 -0.0281  0.3095
 5981W        W10045  10.835   6.509   1.702 -0.0266 -0.0135 -0.2479
 5982W        W10046   7.748   7.934   8.805  0.0895  0.1536  0.1391
 5983W        W10047  10.535   5.898   2.358 -0.2361  0.0704  0.0425
 5984W        W10048   8.134   0.737   1.650 -0.2234 -0.0131  0.2648
 5985W        W10049   9.471   6.354   0.027  0.4173  0.2232 -0.0214
 5986W        W10050   7.477   7.625   9.238  0.0311  0.0951  0.1312
 5987W        W10051   3.876   9.377   1.651  0.0490 -0.2458 -0.4785
 5988W        W10052   5.933   0.875   9.198 -0.0730 -0.1789 -0.1737
 5989W        W10053   7.827   9.072   1.043 -0.1765  0.3957  0.0041
 5990W        W10054   7.794   3.740   8.103  0.0308  0.1112 -0.2266
 5991W        W10055   8.557   2.874   3.397 -0.0108 -0.1545  0.0890
 5992W        W10056   2.816   4.836   1.220  0.0207 -0.2748  0.2031
 5993W        W10057   0.183   8.030   2.006  0.1731  0.1477 -0.1494
 5994W        W10058   7.869   6.060   0.636  0.0560  0.4057  0.1998
 5995W        W10059   0.340   0.222   2.025 -0.0268 -0.0201  0.3256
 5996W        W10060   1.144  10.328   7.666 -0.0942  0.1873  0.1069
 5997W        W10061   6.804  10.083  10.472 -0.2295  0.2757 -0.1771
 5998W        W10062  10.865   5.083   2.028 -0.5362 -0.2461  0.0194
 5999W        W10063   5.355   1.318   1.090  0.1503 -0.0739  0.1674
 6000W        W10064   4.732   7.844   2.345  0.0990 -0.0080  0.1213
 6001W        W10065   8.496   7.064  10.431 -0.0156  0.1208  0.0055
 6002W        W10066   4.438   4.080   3.866  0.0300 -0.2708  0.0522
 6003W        W10067   9.801   3.827   7.056 -0.0148 -0.2715  0.0363
 6004W        W10068   3.398   5.708   0.891  0.0661  0.0985 -0.0217
 6005W        W10069   7.194   5.087   3.186 -0.0307  0.0974 -0.1700
 6006W        W10070   8.531   6.747   0.773  0.1176  0.4072  0.0322
 6007W        W10071   2.354   2.996   7.949  0.1650  0.1899 -0.1913
 6008W        W10072   9.744  10.436   2.994  0.0041  0.2785  0.0829
 6009W        W10073   3.824   3.065   0.724  0.0545  0.4083  0.3489
 6010W        W10074   4.736   9.782   8.247  0.0340 -0.0932 -0.2099
 6011W        W10075   0.201   0.800   7.986 -0.2310 -0.2381  0.1766
 6012W        W10076   2.476   4.807  11.042  0.1270 -0.2448 -0.1475
 6013W        W10077   0.895  10.465   2.578 -0.3952 -0.0302  0.1492
 6014W        W10078   8.276   4.003   8.575  0.2875 -0.0342 -0.2226
 6015W        W10079   9.858   1.032   1.215 -0.1326 -0.1461  0.0997
 6016W        W10080   6.462   8.781   1.208 -0.1947 -0.0542  0.5540
 6017W        W10081   3.906   6.166   3.238 -0.0367  0.1042  0.0957
 6018W        W10082  10.158   5.346   0.053  0.0250  0.0439  0.2953
 6019W        W10083   1.961   1.319  10.574  0.0323 -0.0403 -0.0892
 6020W        W10084   6.852   6.359  10.153 -0.1900  0.0812 -0.3354
 6021W        W10085   0.709   6.601   0.954  0.3472 -0.1478 -0.0059
 6022W        W10086   6.603   2.669   1.208  0.1184  0.2303  0.0944
 6023W        W10087   7.127   1.967  10.809  0.4423  0.1848 -0.0112
 6024W        W10088   0.884   3.641  10.317  0.2120 -0.1693  0.2080
 6025W        W10089   2.776   5.617   0.006  0.1639  0.0821  0.0529
 6026W        W10090   8.146   0.460   3.394 -0.1061 -0.1515  0.0153
 6027W        W10091   1.859   0.999   0.990 -0.0443 -0.4647 -0.3681
 6028W        W10092   6.021   9.906   8.117  0.3217  0.1616  0.3111
 6029W        W10093   6.037   2.405   1.322 -0.0598 -0.1256  0.1027
 6030W        W10094  10.430   0.229   9.400  0.1259  0.1257 -0.0341
 6031W        W10095   2.498   7.803   2.951  0.3227  0.2230  0.3847
 6032W        W10096   2.287   7.278   8.135 -0.2977  0.0083  0.0665
 6033W        W10097   4.818   2.193   2.017  0.2026 -0.1699  0.1462
 6034W        W10098   2.112   2.977   9.693 -0.0408 -0.2108  0.1010
 6035W        W10099   3.319   2.455   9.034  0.1403  0.1024 -0.1635
 6036W        W10100   4.036   9.188   0.350 -0.1947 -0.2209  0.1893
 6037W        W10101   3.093   4.693   2.827  0.0914  0.6241 -0.2210
 6038W        W10102   6.207   0.678  10.428 -0.1111 -0.3729  0.1722
 6039W        W10103  10.887   9.053   0.256  0.2076 -0.1518 -0.2631
 6040W        W10104   3.869   2.522  10.476  0.0119  0.0747 -0.3603
 6041W        W10105   8.900   8.010   9.607  0.2235 -0.0024 -0.0263
 6042W        W10106   3.047   1.438   8.646 -0.1873  0.0132 -0.1396
 6043W        W10107  10.767   3.393   3.410  0.1808 -0.0311  0.2409
 6044W        W10108   0.718  10.878   7.646  0.2056  0.3826  0.5704
 6045W        W10109   0.340   3.202   3.478 -0.0232 -0.2299 -0.2572
 6046W        W10110   8.668   5.941   8.251  0.0108 -0.1381  0.0746
 6047W        W10111   0.567   4.585  10.209  0.3054  0.2522  0.2183
 6048W        W10112   6.892   0.368   0.465 -0.2114 -0.0466 -0.1356
 6049W        W10113   5.589   7.053   2.985 -0.1553  0.0034 -0.0533
 6050W        W10114   8.715   0.618   2.188 -0.0740  0.1554  0.0655
 6051W        W10115   0.812   2.739   1.781  0.2479 -0.0515  0.0234
 6052W        W10116   8.644   8.244  10.347  0.2534  0.0384 -0.1389
 6053W        W10117   4.318   4.303   0.909  0.2509 -0.1472  0.0315
 6054W        W10118   6.149  10.485   2.518 -0.0684 -0.0412  0.0636
 6055W        W10119  10.874   1.944   0.141  0.0058 -0.1053 -0.1609
 6056W        W10120   2.923   8.289   9.082 -0.2369  0.0562 -0.1410
 6057W        W10121   2.675   8.643   3.664 -0.0256  0.1168 -0.1288
 6058W        W10122   9.355   8.075   2.290 -0.0172  0.1260 -0.0640
 6059W        W10123   1.445   7.932   2.633 -0.0883  0.3624  0.1548
 6060W        W10124   4.850   2.124   3.198 -0.1235  0.1185 -0.1556
 6061W        W10125   5.675  10.086   3.309 -0.1371 -0.0518  0.0344
 6062W        W10126   4.337   9.927  10.028 -0.2527  0.0306  0.0332
 6063W        W10127   3.842   8.405   3.189 -0.1254 -0.2186  0.2706
 6064W        W10128   1.479   8.211   0.916  0.2277 -0.0969 -0.3572
 6065W        W10129   4.671   2.912   1.598  0.0250 -0.3764  0.1464
 6066W        W10130   3.835   3.864  10.010 -0.1620 -0.1407 -0.3894
 6067W        W10131   9.675   6.653   0.847 -0.0113  0.0293 -0.2052
 6068W        W10132   8.447   5.987   7.784  0.1366  0.1051 -0.1130
 6069W        W10133   6.135   3.805   0.898  0.1693 -0.2658 -0.1568
 6070W        W10134   9.711   5.409  10.079 -0.0258  0.3647  0.0498
 6071W        W10135   4.013   6.669   2.069 -0.0119 -0.4393  0.0795
 6072W        W10136   6.773   6.530   2.457  0.1886 -0.0545 -0.1614
 6073W        W10137   4.830   4.113   0.988 -0.0444 -0.0046  0.0805
 6074W        W10138   8.233   2.989   1.721  0.1907  0.1536 -0.1535
 6075W        W10139   6.035  10.765   8.956  0.0659 -0.1465  0.1855
 6076W        W10140   7.893   5.646   1.007 -0.0544 -0.2141 -0.0156
 6077W        W10141   8.346   5.394   0.214  0.4588  0.2114 -0.0446
 6078W        W10142   4.264   2.388   8.669  0.3565  0.2448  0.0671
 6079W        W10143   6.992   1.212   9.437 -0.1840  0.0007 -0.0520
 6080W        W10144   7.505   9.123   8.173 -0.0485 -0.1121  0.0701
 6081W        W10145   6.412   2.552   9.387  0.0371 -0.1152 -0.0334
 6082W        W10146   3.355   0.477   3.597  0.0441 -0.2024  0.4780
 6083W        W10147   9.307   0.579   9.531  0.2507 -0.2934 -0.0499
 6084W        W10148   1.218   3.238   3.303 -0.0282 -0.2502 -0.0213
 6085W        W10149   0.387   2.225   7.494 -0.1287  0.1267  0.1450
 6086W        W10150   6.676   4.287  10.634  0.3318  0.3593  0.0399
 6087W        W10151   7.188   0.226   9.881  0.0685 -0.0217  0.3217
 6088W        W10152   7.219   0.721   0.583  0.2884 -0.1699 -0.2027
 6089W        W10153   6.415   0.428   0.688  0.3917 -0.0322  0.0308
 6090W        W10154   4.347   2.974   9.948 -0.2390  0.1222  0.2817
 6091W        W10155   4.604   4.230   8.200 -0.0636  0.1710 -0.2393
 6092W        W10156   3.411   9.577   8.925 -0.1537 -0.2715  0.1721
 6093W        W10157   7.703   1.502   1.091 -0.2744  0.1020  0.0555
 6094W        W10158   4.212   1.822  10.878  0.4477  0.0838 -0.0299
 6095W        W10159   1.149   3.242   9.436  0.0811 -0.0712  0.1441
 6096W        W10160   2.850   6.878   8.599 -0.0708 -0.0561 -0.1597
 6097W        W10161   4.508  10.650   1.753  0.1028  0.0491 -0.0177
 6098W        W10162   7.272   9.204   2.245  0.2648  0.0451  0.1022
 6099W        W10163   4.113   8.927   9.112 -0.0551  0.2008 -0.1212
 6100W        W10164   7.791   3.344  10.330 -0.0936 -0.0936  0.0100
 6101W        W10165   9.683   8.362   0.915  0.0301  0.0024  0.4310
 6102W        W10166   6.308   8.359   1.702 -0.2414 -0.4436 -0.0897
 6103W        W10167   0.339   3.555   1.135  0.0796 -0.0220 -0.1097
 6104W        W10168   8.223   4.209   0.508 -0.1454  0.0172 -0.0398
 6105W        W10169   8.135   5.735   1.836  0.0725  0.1004 -0.0900
 6106W        W10170   5.999   9.611   9.411 -0.3349  0.0126 -0.1495
 6107W        W10171   1.127  10.024   8.700 -0.0169  0.0091 -0.0207
 6108W        W10172  10.527  10.209   1.198 -0.0430  0.1115 -0.1831
 6109W        W10173   3.370   2.297   7.126  0.1159 -0.1289  0.1134
 6110W        W10174   2.398   0.317   2.042  0.0010 -0.2318 -0.1391
 6111W        W10175  10.471   7.914   1.202 -0.0002 -0.1953  0.0360
 6112W        W10176   4.495  10.142   2.122  0.1890 -0.0129  0.0916
 6113W        W10177   0.514   7.093   3.528  0.0954  0.0863 -0.2146
 6114W        W10178   3.647   7.039   2.883  0.1817  0.0814 -0.0037
 6115W        W10179   0.960   3.774   2.323  0.0513 -0.3862 -0.1464
 6116W        W10180   4.188  10.854   0.943 -0.1822  0.1915  0.1597
 6117W        W10181   9.116   4.247  10.467 -0.0767  0.0587 -0.1756
 6118W        W10182   4.928   3.666   9.522  0.1093  0.2934  0.4372
 6119W        W10183  10.753   7.175   0.356  0.0800 -0.1106  0.0763
 6120W        W10184   3.227   5.453  10.879  0.0926 -0.0224 -0.2712
 6121W        W10185   6.406   3.433   3.044  0.0761  0.3461  0.2513
 6122W        W10186   7.485   6.541   9.595 -0.2268  0.2123 -0.2020
 6123W        W10187   6.590   7.985   0.809  0.0033  0.0830  0.0479
 6124W        W10188   1.988  10.417   7.992 -0.1022 -0.0651 -0.3072
 6125W        W10189   3.665   4.817   2.722  0.0344 -0.3024 -0.1568
 6126W        W10190   4.304  10.774   0.422 -0.1523  0.1712  0.1306
 6127W        W10191   8.065   4.068   3.367 -0.0142 -0.1585  0.0110
 6128W        W10192   3.395   8.081   0.678 -0.0740 -0.0533 -0.2010
 6129W        W10193   5.746   0.677   7.727 -0.0150 -0.0664 -0.1076
 6130W        W10194   3.235   4.004   8.074 -0.0357 -0.2724  0.1491
 6131W        W10195   8.529   6.597   8.672 -0.0242  0.3466 -0.2020
 6132W        W10196   6.828   5.626   8.044 -0.0389 -0.1493 -0.2724
 6133W        W10197   0.654   7.630   1.384  0.0943 -0.2698  0.2965
 6134W        W10198   6.097   1.883   1.393  0.3272  0.0811  0.1779
 6135W        W10199   8.793   1.008   2.684 -0.0847 -0.1638  0.1292
 6136W        W10200   8.705   6.167  10.553  0.1966 -0.2001  0.1817
 6137W        W10201   5.671   8.900   2.862  0.3040  0.0763 -0.0102
 6138W        W10202   5.890   0.553   2.670 -0.0413  0.0283 -0.2553
 6139W        W10203   2.111   9.287   9.956  0.1752 -0.1340 -0.0825
 6140W        W10204   8.937   1.820   0.223  0.1455 -0.1947  0.0981
 6141W        W10205   5.559   8.907   9.326 -0.0121  0.0307 -0.0899
 6142W        W10206   8.794   5.386   3.219  0.1312 -0.1890 -0.2528
 6143W        W10207   8.355   7.819   1.282 -0.3305 -0.0510  0.6083
 6144W        W10208   4.991   8.267  10.253 -0.1209 -0.1009 -0.1438
 6145W        W10209   6.127   7.075   0.532 -0.0171  0.3957 -0.3155
 6146W        W10210   3.960  10.341   3.406 -0.0530  0.0960 -0.4058
 6147W        W10211   9.487   7.898   0.767  0.0935 -0.0847 -0.0702
 6148W        W10212   2.236   6.274   2.582 -0.2477 -0.0016  0.2334
 6149W        W10213   9.799   8.532   0.456 -0.1696 -0.4091  0.0738
 6150W        W10214   2.713  10.302   0.914 -0.0345  0.0357 -0.0409
 6151W        W10215   0.411   8.576   8.115 -0.1672 -0.1861 -0.1688
 6152W        W10216   4.716   9.859  10.465 -0.0754 -0.0104  0.0658
 6153W        W10217   9.506   0.729   0.875  0.0784 -0.2933 -0.1209
 6154W        W10218   8.245   2.518   4.073 -0.0442 -0.1763 -0.3327
 6155W        W10219   6.343   8.037   8.854  0.2498  0.1771  0.1856
 6156W        W10220   3.085   0.059  10.185 -0.0600  0.2580  0.3284
 6157W        W10221   2.982   4.344   0.790 -0.0276 -0.3251 -0.3700
 6158W        W10222   5.909   6.123  10.741  0.1241 -0.2088  0.1456
 6159W        W10223   9.149   2.949   1.711 -0.1575  0.1497 -0.1564
 6160W        W10224   7.156   5.677   7.315  0.0606  0.0224 -0.0544
 6161W        W10225   6.547   0.020   9.365  0.2272  0.0932 -0.1830
 6162W        W10226   1.667   8.840   2.043  0.0297  0.0804  0.0053
 6163W        W10227   6.842   0.182  11.005 -0.0323 -0.1688 -0.1099
 6164W        W10228   5.248   6.416   2.635 -0.2541  0.0126 -0.1727
 6165W        W10229   1.363   1.288   8.776 -0.0273  0.0236  0.0073
 6166W        W10230   3.206  10.670   0.323  0.0476 -0.1278 -0.1329
 6167W        W10231   0.211   1.878   9.317 -0.3378 -0.1841  0.0435
 6168W        W10232   4.258   6.996   9.634  0.2099  0.0463 -0.0133
 6169W        W10233   9.822   5.982   9.708  0.1879  0.2961  0.0622
 6170W        W10234   5.377  10.592   9.770 -0.0843  0.0758 -0.1713
 6171W        W10235   8.445   4.759  10.629  0.3463 -0.1062 -0.2302
 6172W        W10236   1.567   2.713   2.496  0.1238 -0.0026 -0.0041
 6173W        W10237   7.969   4.986   7.519  0.1185  0.1031  0.2240
 6174W        W10238   0.605   8.526   8.970  0.0229  0.2184  0.2234
 6175W        W10239   9.805   9.232   7.176 -0.1876 -0.0207 -0.1239
 6176W        W10240   4.354   0.497   1.276 -0.1020 -0.0049 -0.1893
 6177W        W10241   7.805   4.184  10.430 -0.0761  0.0225 -0.0606
 6178W        W10242   9.975   5.335   1.331  0.0354  0.1435  0.1448
 6179W        W10243   1.000  10.761   9.810 -0.2231 -0.0581 -0.1670
 6180W        W10244  10.202   0.624  10.976  0.1325 -0.0184  0.2132
 6181W        W10245   8.950   0.643   8.215  0.0991 -0.1231  0.0643
 6182W        W10246   2.684   4.052   0.499 -0.0027  0.4310 -0.0731
 6183W        W10247   8.063   7.223   7.849  0.2807  0.3156 -0.0778
 6184W        W10248   2.133   5.786   2.551  0.0515  0.2780 -0.1390
 6185W        W10249  10.223   0.448   9.832  0.0508  0.0311  0.0865
 6186W        W10250  10.069   8.856   1.351  0.1465  0.0538  0.0378
 6187W        W10251   2.485   2.079  10.045 -0.2590 -0.1059  0.1516
 6188W        W10252   1.107   6.775   2.957  0.4385 -0.1574 -0.1157
 6189W        W10253   0.463   4.234   2.577 -0.1185 -0.1310 -0.2308
 6190W        W10254   1.846  10.061   0.912 -0.2929  0.1093  0.0714
 6191W        W10255   3.590   6.876   3.555  0.0858  0.2538  0.2007
 6192W        W10256   4.092   4.055   8.239  0.0088  0.2504  0.0083
 6193W        W10257   6.245   4.025   9.313  0.1468  0.1066 -0.2242
 6194W        W10258   3.931   3.021   2.928 -0.1798 -0.2647  0.2560
 6195W        W10259   3.359   5.998   1.364  0.0562  0.1023  0.0090
 6196W        W10260  10.869   6.824  10.213 -0.1226  0.0650 -0.0226
 6197W        W10261   2.377   9.591   3.371  0.0733 -0.0810 -0.0558
 6198W        W10262   1.758   5.634   2.821 -0.2848  0.0584  0.1078
 6199W        W10263   7.778   0.620   3.716  0.0597 -0.2353 -0.1932
 6200W        W10264   7.146   1.223   0.441  0.2422  0.2168  0.2103
 6201W        W10265   6.039   2.085   3.171 -0.2438  0.0106 -0.1084
 6202W        W10266  10.480  10.175   7.905  0.2062  0.0686 -0.1012
 6203W        W10267   6.753   5.469   2.290 -0.2201  0.1103 -0.3357
 6204W        W10268   1.273   5.486   1.991  0.3593 -0.0620  0.0343
 6205W        W10269   5.976   0.614   0.806  0.1535  0.0593  0.0571
 6206W        W10270   0.973   5.917   1.459  0.1655 -0.0678  0.2025
 6207W        W10271   3.675   5.175   9.932  0.0268  0.1717  0.2521
 6208W        W10272   5.153   3.241  10.367 -0.4053  0.2198 -0.3640
 6209W        W10273   6.356   2.551   0.139 -0.2302  0.1071 -0.1301
 6210W        W10274   5.701   6.250   0.581  0.1578 -0.1416 -0.0498
 6211W        W10275   9.909   6.441   9.456  0.0998 -0.0835 -0.2026
 6212W        W10276   1.764   8.615   8.321 -0.1258 -0.0001 -0.1360
 6213W        W10277   9.781   8.710   3.384  0.0878  0.2524 -0.4114
 6214W        W10278   2.943  10.257   8.341 -0.0209 -0.1427 -0.1681
 6215W        W10279   4.629  10.323   9.333  0.3675 -0.0158  0.1437
 6216W        W10280   1.458  10.197   0.436 -0.0882 -0.1439 -0.0106
 6217W        W10281   3.157   0.999   0.988 -0.0672 -0.0655 -0.0868
 6218W        W10282   7.034   7.822   9.061  0.1516 -0.2223 -0.3984
 6219W        W10283   1.152   8.116   2.230  0.0632  0.1069  0.1839
 6220W        W10284   2.367   8.014   3.388  0.1076  0.0671  0.0547
 6221W        W10285   4.911   4.455   0.126  0.0784  0.3188  0.0145
 6222W        W10286  10.773   3.798   1.358 -0.1380  0.0902  0.2309
 6223W        W10287   9.964   0.017  10.865 -0.0781 -0.2149  0.1459
 6224W        W10288   1.255   7.224   8.217  0.2192 -0.1372  0.2856
 6225W        W10289   7.025   4.180  10.076  0.0123  0.0727 -0.1630
 6226W        W10290   4.027   0.094   8.237  0.1872  0.1820  0.0986
 6227W        W10291   5.287   6.204   9.075  0.3918  0.2897  0.1792
 6228W        W10292   9.217   7.655   9.418 -0.0819  0.0591 -0.1471
 6229W        W10293   9.541   7.253   9.663 -0.1959 -0.1980 -0.2825
 6230W        W10294   9.154   1.186  10.668  0.2277 -0.0168 -0.3473
 6231W        W10295   0.085   7.468   9.381  0.1226  0.1789  0.2497
 6232W        W10296   7.098   0.053   7.929  0.1029 -0.1760 -0.3908
 6233W        W10297   1.850   1.153   2.681  0.2256  0.1266 -0.1283
 6234W        W10298   1.670   2.562   8.558  0.0206  0.1964  0.1470
 6235W        W10299   8.523   9.835   8.790 -0.1140 -0.0748  0.3141
 6236W        W10300   8.729   7.757  10.802  0.1213  0.0619  0.0035
 6237W        W10301   9.163   0.324   1.382 -0.0567 -0.3675 -0.0608
 6238W        W10302   5.280   1.307  10.420 -0.2326 -0.0205  0.0246
 6239W        W10303   4.600   9.127   1.525 -0.1620 -0.2233 -0.2489
 6240W        W10304   9.777   3.423   7.337 -0.0690  0.2024  0.1640
 6241W        W10305   1.655   1.169   0.540 -0.1310 -0.0668 -0.0972
 6242W        W10306   0.041   2.361   7.194 -0.0886 -0.1856  0.0768
 6243W        W10307   1.676   4.589   1.837 -0.1872 -0.0919 -0.0614
 6244W        W10308   1.169   7.214   9.472 -0.0010  0.0511 -0.3156
 6245W        W10309   0.429   3.195   8.368  0.0288  0.2866 -0.1302
 6246W        W10310   7.154   2.377   8.988  0.0550  0.1947  0.0212
 6247W        W10311   0.221   1.624   7.364 -0.2479 -0.2418  0.0700
 6248W        W10312   9.618   6.359   0.502  0.2283  0.5586 -0.2277
 6249W        W10313   6.870   4.781   7.493  0.1902 -0.0277  0.0190
 6250W        W10314   5.331   4.147   2.902 -0.1774  0.2928 -0.3524
 6251W        W10315   2.774   6.017   9.763 -0.1197 -0.2800 -0.0487
 6252W        W10316   0.149   6.134   9.059  0.0241  0.0359 -0.4284
 6253W        W10317   5.304   9.888   1.231  0.0702  0.1613  0.0522
 6254W        W10318   3.385   9.950   9.852  0.1721 -0.2282 -0.0609
 6255W        W10319   7.431   2.783   2.845  0.3679 -0.1489 -0.1977
 6256W        W10320   8.812   1.854   1.232  0.1942  0.0356  0.1055
 6257W        W10321   4.492   8.461  10.273  0.0912  0.1099 -0.0518
 6258W        W10322   6.625   9.213   3.059  0.2515  0.0246 -0.1856
 6259W        W10323   0.667   3.675   2.800 -0.1606  0.0479 -0.0183
 6260W        W10324   4.352   8.407   8.555  0.1833  0.2701 -0.1947
 6261W        W10325   6.666   0.131   1.302  0.2832  0.3588 -0.2101
 6262W        W10326   5.733  10.207  10.406 -0.0937  0.0335  0.0079
 6263W        W10327   8.760   6.944   8.933 -0.0891  0.1127 -0.1750
 6264W        W10328   8.558   5.018   9.624 -0.0744 -0.0909  0.0070
 6265W        W10329   2.213   5.200  10.425 -0.0185 -0.3110 -0.0114
 6266W        W10330   9.528   0.859   2.066 -0.2008 -0.2024  0.0586
 6267W        W10331   7.371   6.449   0.926 -0.2139  0.0645  0.0448
 6268W        W10332   0.826   3.347   2.418 -0.3427  0.0369 -0.0854
 6269W        W10333   9.298   1.985   1.251 -0.2897 -0.2685 -0.0082
 6270W        W10334   9.314   2.687   8.066  0.0909 -0.0059 -0.2605
 6271W        W10335   3.937  10.232   1.198 -0.1639  0.2210 -0.0688
 6272W        W10336   8.465  10.693   7.797 -0.2843 -0.1986  0.2578
 6273W        W10337   0.057   5.210   1.049 -0.1188 -0.4202  0.2228
 6274W        W10338   7.040   2.320   2.908 -0.0657  0.3982  0.0158
 6275W        W10339   2.481   7.117   9.937 -0.1040 -0.0329 -0.1219
 6276W        W10340   5.165   3.545   9.979  0.1940  0.1008 -0.0816
 6277W        W10341   2.735   1.869   8.508 -0.0368  0.0237 -0.1611
 6278W        W10342   8.142   8.783   9.361 -0.2275 -0.0377 -0.3025
 6279W        W10343   5.173  10.141   9.740  0.0615 -0.2432  0.2845
 6280W        W10344   7.408   2.508   7.998 -0.1465 -0.2345 -0.0175
 6281W        W10345   3.328   9.512   1.697 -0.1531  0.0207  0.0611
 6282W        W10346   9.935   2.762   0.936 -0.1926  0.0179 -0.2166
 6283W        W10347   7.150   9.636  10.231 -0.2058 -0.1930  0.1034
 6284W        W10348   1.318   8.180   8.039  0.1555  0.5491 -0.1012
 6285W        W10349   8.722   7.237  10.831  0.0520  0.4254  0.0105
 6286W        W10350   9.202   5.922   7.562 -0.1198 -0.2285 -0.0333
 6287W        W10351  10.433   4.177   9.892  0.1192  0.1848  0.1467
 6288W        W10352   6.994   8.913   8.124  0.1741  0.3110  0.1976
 6289W        W10353   0.516   9.647   9.170  0.1467 -0.0387  0.0776
 6290W        W10354   6.337  10.568  10.633  0.2054  0.0360 -0.1636
 6291W        W10355  10.280  10.511  10.136  0.0585  0.2561  0.0801
 6292W        W10356   0.122   0.245   8.218  0.2696 -0.1722 -0.0346
 6293W        W10357   3.152   6.406   1.710 -0.2566  0.5793  0.1091
 6294W        W10358  10.511   3.249   1.223 -0.0225  0.1100  0.0369
 6295W        W10359   1.765   7.636   1.330 -0.1459 -0.0004  0.2400
 6296W        W10360   4.838   0.127   1.921  0.0720  0.0458 -0.1009
 6297W        W10361  10.787   4.972   3.843 -0.2641  0.2891 -0.1767
 6298W        W10362   3.392   3.654  10.543 -0.2642  0.2842 -0.0224
 6299W        W10363   6.646   3.832   3.337  0.1747  0.2043 -0.3249
 6300W        W10364  10.598   6.887   8.814 -0.4098  0.1660  0.1039
 6301W        W10365   5.971   8.963   0.942  0.1357 -0.2059  0.0336
 6302W        W10366   0.485   4.802  10.692 -0.1146  0.0398 -0.1496
 6303W        W10367   2.072   1.580   0.702  0.3502 -0.0159 -0.1113
 6304W        W10368   9.334   7.304   2.843 -0.3715 -0.3153 -0.2118
 6305W        W10369   6.326   9.701   8.525 -0.0611  0.0492 -0.0201
 6306W        W10370   3.280   8.592   8.879 -0.1248  0.0319 -0.1134
 6307W        W10371   5.002   5.533   1.920 -0.1926  0.3482  0.6181
 6308W        W10372   7.542   9.412  10.469  0.2448  0.0614 -0.1586
 6309W        W10373   4.299   9.590   0.151 -0.2585 -0.0705 -0.0618
 6310W        W10374   2.770   3.633   2.474 -0.3104  0.1322  0.1947
 6311W        W10375   1.165  10.800   2.389 -0.1924 -0.2155  0.0200
 6312W        W10376   3.897   1.208   8.445 -0.3343 -0.3335 -0.0387
 6313W        W10377  10.230   0.309   8.123 -0.0653  0.1041  0.0060
 6314W        W10378   8.786  10.303   2.217 -0.0118 -0.1063  0.3203
 6315W        W10379  10.796   7.638  10.746 -0.0760 -0.2555  0.1346
 6316W        W10380   2.502   5.258  10.779 -0.0055  0.1020 -0.0039
 6317W        W10381   2.291   3.182  10.945  0.3149  0.1495  0.1993
 6318W        W10382   6.079   9.546   0.983  0.0787  0.2707  0.2085
 6319W        W10383   5.991   1.363   3.610 -0.2354  0.0793  0.3392
 6320W        W10384   4.202   3.222   8.879  0.0459 -0.0407 -0.3208
 6321W        W10385   9.054   6.187   1.251 -0.0346  0.1515  0.0279
 6322W        W10386   8.626   5.082  10.244 -0.0886  0.0490 -0.0314
 6323W        W10387   5.671   6.256   2.365  0.3068 -0.2805 -0.0492
 6324W        W10388   9.017   2.459   1.881  0.1818 -0.1227  0.0423
 6325W        W10389   1.311   7.351  10.010 -0.1735  0.0526  0.0858
 6326W        W10390   0.467   5.394   8.558  0.4382 -0.0970  0.3925
 6327W        W10391   5.476   3.864   3.642 -0.0830 -0.1463 -0.0079
 6328W        W10392   9.076   9.897   9.465 -0.0294 -0.0682  0.1228
 6329W        W10393   3.740   6.390   2.330  0.1003  0.2817  0.1959
 6330W        W10394   1.487   8.779   0.904  0.1570 -0.0551 -0.1114
 6331W        W10395   7.269   3.484  11.016  0.1391 -0.1784  0.1758
 6332W        W10396   7.901   5.830   9.105  0.0533  0.1357 -0.4460
 6333W        W10397   1.851   4.750   0.679 -0.0686 -0.4122 -0.1358
 6334W        W10398   0.470   2.104  10.347  0.0959  0.0675 -0.1106
 6335W        W10399   2.530   3.464   3.932 -0.2678  0.2331 -0.3062
 6336W        W10400   3.973   3.528   3.926  0.3245 -0.0695 -0.1256
 6337W        W10401   0.957   6.492   2.480  0.2983 -0.0638  0.0553
 6338W        W10402   5.280  10.387  10.205  0.0946 -0.0629 -0.1633
 6339W        W10403   3.029   8.779   2.372 -0.2120 -0.2266 -0.0373
 6340W        W10404   2.486   1.312  10.496 -0.4659 -0.0639  0.0195
 6341W        W10405   7.787   2.600   0.345 -0.3761  0.2411 -0.0625
 6342W        W10406   3.962   3.513   0.463 -0.1540 -0.2327 -0.3537
 6343W        W10407  10.657  10.342   9.756  0.2588  0.0401 -0.1274
 6344W        W10408   3.066   0.129   3.263 -0.1402  0.1373  0.0381
 6345W        W10409   2.112  10.084   2.735  0.1829  0.0996 -0.2247
 6346W        W10410   6.281   5.550   1.421 -0.3023 -0.1580 -0.1818
 6347W        W10411   8.888   6.133   0.043 -0.3022  0.5278 -0.1496
 6348W        W10412   4.305   2.753   1.907 -0.0449 -0.2648 -0.1795
 6349W        W10413   9.057  10.903   7.170  0.2558 -0.2168  0.1117
 6350W        W10414   1.540   9.362   2.430 -0.2416 -0.1268  0.0658
 6351W        W10415   7.965   3.297   2.540  0.0714 -0.0550 -0.1008
 6352W        W10416   5.643   7.420   0.455 -0.1546 -0.3711 -0.3128
 6353W        W10417   0.280   2.845   1.786  0.0152  0.2124 -0.0995
 6354W        W10418   1.817   6.987   8.905  0.0072  0.4261  0.2136
 6355W        W10419   8.942   0.618   7.711  0.1547 -0.2947  0.0491
 6356W        W10420   2.382  10.747   9.650  0.2097 -0.0224 -0.0165
 6357W        W10421   5.133   0.387   0.687  0.0434  0.1964 -0.1850
 6358W        W10422   0.707   7.302  10.720 -0.2363 -0.0578  0.1717
 6359W        W10423   6.729   7.079   8.976  0.2394 -0.1170  0.0181
 6360W        W10424   9.403   0.130   7.493  0.1124 -0.0644  0.1037
 6361W        W10425   9.430   7.417   7.925 -0.0147  0.2014  0.0248
 6362W        W10426   2.149   3.903   8.511  0.0601  0.2086  0.1782
 6363W        W10427   1.541   5.288   0.023  0.1686  0.0312  0.2311
 6364W        W10428   1.878   1.046   3.185  0.2735  0.0160  0.2123
 6365W        W10429   9.361   3.296  10.390 -0.1721 -0.0994  0.0086
 6366W        W10430  10.544   4.259   9.271  0.2466  0.0531 -0.1471
 6367W        W10431  10.469   4.865  11.001  0.1242 -0.1746 -0.4083
 6368W        W10432   9.402  10.566   7.248 -0.2945  0.0975 -0.0422
 6369W        W10433   2.653   7.641   1.431 -0.1753  0.1733  0.3065
 6370W        W10434   4.971   6.164  10.949 -0.0038  0.0882  0.2006
 6371W        W10435   3.629   2.131   9.360  0.0558 -0.0291 -0.0165
 6372W        W10436   1.068   9.866  10.571 -0.3215 -0.0486 -0.0127
 6373W        W10437   5.487   6.250   8.619 -0.1527 -0.0163 -0.0032
 6374W        W10438   6.313   8.968   0.195  0.1669  0.2353  0.0640
 6375W        W10439   2.538   5.111  10.028 -0.1335  0.1227  0.2673
 6376W        W10440   7.532   6.061  10.021  0.1864 -0.1323 -0.0010
 6377W        W10441  10.204   8.694   9.409 -0.2222  0.2720 -0.1532
 6378W        W10442  10.201   9.824   9.652  0.3451 -0.0223 -0.0063
 6379W        W10443   5.084   2.916   2.369  0.1261  0.0914 -0.1780
 6380W        W10444  10.556   6.577   1.050 -0.1624  0.1001 -0.1194
 6381W        W10445   0.161   2.457  10.627 -0.1195 -0.1148 -0.1530
 6382W        W10446   5.240   4.878   0.464  0.3806  0.1024 -0.1772
 6383W        W10447   5.549   6.924  10.290 -0.1087  0.0340 -0.1107
 6384W        W10448   2.174   8.316   9.876 -0.1721 -0.0840 -0.1261
 6385W        W10449   0.722   5.163   9.829 -0.0024  0.0215  0.0995
 6386W        W10450   7.949   3.052   0.160 -0.1614 -0.1659 -0.3578
 6387W        W10451   5.321   9.473  10.233  0.1015  0.2276  0.1541
 6388W        W10452   0.012   0.180   9.734  0.0984  0.1030 -0.1408
 6389W        W10453   3.862   5.623  10.264 -0.0674 -0.0166  0.0365
 6390W        W10454  10.713   5.596   9.731 -0.1532 -0.1983  0.1298
 6391W        W10455   9.589  10.894   0.116  0.1346 -0.3124  0.1012
 6392W        W10456   0.744   4.109   3.007  0.1122 -0.0886 -0.1797
 6393W        W10457   5.019   0.562   9.512 -0.4120 -0.0795  0.3774
 6394W        W10458   8.790   8.411   7.830 -0.2525  0.1534  0.1396
 6395W        W10459   5.141   2.109   9.533  0.0220  0.2009 -0.0965
 6396W        W10460   7.888   2.363   9.568  0.3327  0.1773 -0.0405
 6397W        W10461   3.949  10.310  10.583  0.2532 -0.0008  0.0667
 6398W        W10462  10.680   6.488   7.970  0.1450  0.1934  0.1662
 6399W        W10463   1.667  10.076   9.772 -0.0708 -0.1211 -0.0112
 6400W        W10464   6.382   8.038   3.749  0.2853  0.0950 -0.0704
 6401W        W10465   0.124   7.276   1.698 -0.1351 -0.4723 -0.1958
 6402W        W10466   9.775   8.724   2.900  0.2564  0.0630 -0.2141
 6403W        W10467   2.361   9.588   9.027 -0.0474 -0.0770  0.2521
 6404W        W10468   3.666   1.859   2.556 -0.0402  0.0062  0.1185
 6405W        W10469   8.327   4.614   9.497 -0.0061 -0.0052  0.0616
 6406W        W10470   5.712   2.774   1.444  0.1541  0.3038  0.4792
 6407W        W10471   2.142   6.073   3.010 -0.0842  0.0357 -0.1874
 6408W        W10472   2.907   6.926   0.439 -0.1670 -0.1044 -0.0446
 6409W        W10473   9.351   0.028   9.832 -0.3886 -0.0643 -0.0156
 6410W        W10474   9.446   9.203   9.948  0.1072  0.3181 -0.2275
 6411W        W10475   3.514   4.501   3.081  0.1414  0.2372 -0.0036
 6412W        W10476   3.160   3.893   0.614  0.0205  0.2033  0.4462
 6413W        W10477   4.774   6.784  10.848 -0.0460 -0.2519  0.0611
 6414W        W10478   1.411   9.813   3.823 -0.2350 -0.2111 -0.0211
 6415W        W10479   8.203   4.734   3.619  0.0057 -0.0602 -0.2373
 6416W        W10480   6.897   2.006   8.702  0.3140 -0.1641  0.1476
 6417W        W10481   1.096  10.201   1.312  0.1438 -0.1009 -0.2251
 6418W        W10482   6.050   7.768   2.584 -0.0775 -0.1400 -0.0180
 6419W        W10483   2.020   5.553  10.996  0.1808  0.0579 -0.2740
 6420W        W10484   2.267   1.970   2.987  0.0944 -0.1095  0.1935
 6421W        W10485   0.134   1.117   0.340 -0.1602 -0.0798 -0.0260
 6422W        W10486   9.359   6.068   0.842  0.1204 -0.1365 -0.1607
 6423W        W10487   6.521   8.758   3.197 -0.0869 -0.2252 -0.1987
 6424W        W10488   8.387   6.247  10.936  0.1547 -0.0917 -0.3480
 6425W        W10489   4.958   4.906   8.825  0.3416  0.1250 -0.0407
 6426W        W10490   8.261   1.259   3.042 -0.3670 -0.1737  0.2646
 6427W        W10491   7.426   8.266  10.996  0.0789  0.0081 -0.0654
 6428W        W10492   0.657   5.014   8.871  0.1395 -0.0973  0.1306
 6429W        W10493   5.564   5.615   8.419 -0.1493 -0.1703 -0.4380
 6430W        W10494   1.520   3.450   1.277  0.0319 -0.1681 -0.0630
 6431W        W10495   6.747   6.673  10.755 -0.3466 -0.2024  0.0162
 6432W        W10496   7.881   7.422  10.383 -0.1252 -0.1126 -0.2218
 6433W        W10497   6.069   5.950   3.041  0.1068  0.0536  0.2343
 6434W        W10498   2.188   9.879   9.976  0.0828  0.0719 -0.1646
 6435W        W10499   7.352   2.627   1.904 -0.1565  0.1964  0.1385
 6436W        W10500   2.760  10.840  10.698  0.2630 -0.1811  0.1863
 6437W        W10501   3.290   7.468   2.370 -0.1073 -0.2730  0.0420
 6438W        W10502   4.682   2.776   9.219  0.2297 -0.0608 -0.2869
 6439W        W10503   7.565   7.945   0.308  0.2110  0.0841 -0.4806
 6440W        W10504   8.410   2.502   8.456  0.1466 -0.0507  0.0655
 6441W        W10505   3.698   7.559   4.249 -0.0170 -0.0302  0.0973
 6442W        W10506   4.235   8.977   2.797  0.0840 -0.0243 -0.0113
 6443W        W10507   3.179   6.861   1.601  0.2643  0.1383  0.2231
 6444W        W10508   1.222   6.601   0.163  0.0987 -0.2434 -0.0090
 6445W        W10509   3.001   0.165   8.537  0.0965 -0.1324  0.0220
 6446W        W10510   8.248   7.028   1.168 -0.1601  0.0782 -0.1588
 6447W        W10511   4.825   5.168   1.311 -0.1320  0.1103  0.1276
 6448W        W10512   5.031   3.988  11.055  0.0675 -0.0548 -0.1171
 6449W        W10513   9.244   1.501   2.043  0.1427  0.1154 -0.2315
 6450W        W10514   6.824   3.500   2.381  0.1590  0.0187 -0.1306
 6451W        W10515   9.221  10.566   2.476 -0.1389 -0.0402 -0.1992
 6452W        W10516   8.050   8.178   9.180  0.5369  0.0808  0.0237
 6453W        W10517   4.813   6.262   3.281 -0.0872  0.1887 -0.2599
 6454W        W10518   8.964   4.524   5.858 -0.2020  0.0946  0.1677
 6455W        W10519   3.170   5.586   9.607  0.0785  0.0506  0.0882
 6456W        W10520   7.948   4.994   1.038  0.3339  0.0516  0.0214
 6457W        W10521   5.505   2.143  10.044 -0.0396  0.0809  0.2091
 6458W        W10522   8.672   8.897   1.948  0.0611 -0.1553  0.1376
 6459W        W10523   6.679   2.377   8.994 -0.0692  0.1979  0.3105
 6460W        W10524   5.516   8.407   2.535  0.1547  0.0133  0.1171
 6461W        W10525  10.015   2.858   9.488 -0.0455  0.0092 -0.2478
 6462W        W10526   7.688   6.446   7.420  0.0842 -0.1639  0.0296
 6463W        W10527   6.287   3.671   8.864  0.2322 -0.2254 -0.0484
 6464W        W10528   8.702  10.150   0.687  0.2197 -0.0286 -0.0576
 6465W        W10529   4.619   2.606   2.267  0.0511  0.2364 -0.0082
 6466W        W10530   6.798   7.728  10.876 -0.0818 -0.1259  0.4276
 6467W        W10531   7.577   5.389   3.524 -0.2210 -0.0787 -0.1662
 6468W        W10532  10.253   7.311   0.417 -0.0666  0.0990  0.0263
 6469W        W10533   4.857   5.125   2.981  0.1670  0.2850  0.0630
 6470W        W10534   6.593   5.056   3.433 -0.2121  0.2046 -0.1062
 6471W        W10535  10.630   0.977   8.272  0.2043  0.2449  0.0306
 6472W        W10536   0.622   6.350   3.666 -0.2734  0.0229 -0.0399
 6473W        W10537   7.205  10.306   0.429 -0.5433  0.1406 -0.1524
 6474W        W10538   8.557   5.566   8.533 -0.0309  0.0940  0.2870
 6475W        W10539   7.047   6.099   8.933 -0.0316 -0.0670 -0.0482
 6476W        W10540   4.489   2.886  11.006 -0.0972 -0.0847  0.2255
 6477W        W10541   6.265   3.696   1.706 -0.2583  0.2090 -0.1210
 6478W        W10542   6.391   4.234   0.079 -0.0143 -0.2148 -0.0369
 6479W        W10543   4.357   3.373   3.004 -0.1004  0.2451 -0.1165
 6480W        W10544   1.244   6.082   8.421  0.2551  0.2008 -0.1724
 6481W        W10545   9.308   1.340   7.917  0.0870  0.4403  0.1463
 6482W        W10546   3.556   1.463   2.251  0.2311 -0.3802 -0.0147
 6483W        W10547   0.147   3.020  10.571 -0.1178  0.1246  0.2113
 6484W        W10548  10.606  10.321   3.175  0.0565 -0.0513 -0.1774
 6485W        W10549   8.248   5.789   4.232 -0.1429  0.3261  0.0310
 6486W        W10550   8.947   9.223   2.957  0.0327  0.3802  0.1559
 6487W        W10551   5.698   5.535   3.190  0.0546 -0.1186 -0.0030
 6488W        W10552   2.666  10.899   0.193 -0.2753  0.2501  0.2339
 6489W        W10553   1.282   0.789   3.481  0.1270  0.0876  0.1976
 6490W        W10554   7.232   7.249   3.906  0.2294 -0.1657 -0.1167
 6491W        W10555   8.780   5.258   2.358 -0.0027 -0.1723  0.0208
 6492W        W10556   1.035   7.692   3.123  0.0605  0.0035 -0.1578
 6493W        W10557   7.463   9.950  10.420  0.2212  0.0401  0.3657
 6494W        W10558   7.514   6.014   9.434 -0.2027 -0.2233  0.4198
 6495W        W10559   5.635   1.164   9.700 -0.1485  0.0731  0.1928
 6496W        W10560   8.113   9.386   9.432  0.0385  0.1340 -0.3702
 6497W        W10561   9.045   4.294   1.129  0.1557  0.1646 -0.0915
 6498W        W10562   0.677   5.518   9.092  0.1422  0.3413 -0.0146
 6499W        W10563   2.919   7.909  10.549  0.0541  0.0995 -0.1180
 6500W        W10564   0.349   3.647   2.411 -0.2596 -0.2375 -0.2877
 6501W        W10565   2.986   8.696   0.008 -0.0532 -0.2902  0.3514
 6502W        W10566   5.926   3.340   8.103  0.0093 -0.0138  0.2468
 6503W        W10567   1.794  10.602   1.063 -0.3270 -0.0109  0.2554
 6504W        W10568   4.517   4.195  11.050 -0.2144  0.2900  0.3540
 6505W        W10569   6.643   6.981   1.754 -0.0766 -0.2333 -0.1811
 6506W        W10570   7.702   6.393   1.335  0.2120  0.0084 -0.1189
 6507W        W10571   3.531   0.577   0.988  0.0097 -0.3451 -0.2080
 6508W        W10572   6.461   9.742   0.768  0.0357  0.0791 -0.0255
 6509W        W10573   5.525   8.321   9.401  0.0250 -0.2035  0.2395
 6510W        W10574   1.336  10.198   2.536  0.1470 -0.1691  0.4250
 6511W        W10575   8.445   6.369   9.177  0.1063 -0.1696 -0.1561
 6512W        W10576   6.855   0.746   1.630 -0.3245 -0.1134 -0.2210
 6513W        W10577   8.346   6.258   3.240 -0.3732 -0.1538  0.2787
 6514W        W10578  10.395   4.514   3.229 -0.1793  0.0989 -0.1529
 6515W        W10579   2.260   9.980   9.443 -0.0516 -0.2543  0.0332
 6516W        W10580   4.306   5.839   1.426 -0.3222  0.1875  0.2837
 6517W        W10581   6.425   2.813   8.945 -0.1874 -0.2569  0.0321
 6518W        W10582   6.911   2.473   7.725 -0.0436 -0.2751  0.0462
 6519W        W10583   5.827   8.880   0.478 -0.1564  0.2796  0.1222
 6520W        W10584   2.866   1.583   8.169 -0.0798 -0.1554  0.0856
 6521W        W10585   0.659  10.094   1.149 -0.0831 -0.1607  0.1846
 6522W        W10586   8.855   7.498   7.905  0.0091 -0.0868  0.0823
 6523W        W10587   5.517   2.004   2.640  0.0295 -0.2751  0.0787
 6524W        W10588   8.937   3.114   6.907  0.0081  0.3753  0.0282
 6525W        W10589   9.958   4.313   2.443 -0.0291 -0.3426 -0.0695
 6526W        W10590  10.052   8.942   7.603  0.1413  0.0596 -0.0484
 6527W        W10591   5.643   0.092  11.037  0.0055  0.1673 -0.3541
 6528W        W10592   9.954   7.093   7.817  0.1297 -0.1812  0.0389
 6529W        W10593   4.548   7.456   0.675 -0.0991  0.0302  0.2520
 6530W        W10594   9.559   0.120   9.405  0.0808 -0.0764 -0.2102
 6531W        W10595   4.679   9.067   3.014 -0.0406 -0.1499  0.2088
 6532W        W10596   6.562  10.583   1.157 -0.1534  0.3612  0.2898
 6533W        W10597   1.912   2.511   9.555  0.0222 -0.2903  0.0883
 6534W        W10598   9.797   6.028   9.183 -0.1569 -0.0523 -0.1429
 6535W        W10599   6.280   2.911   1.985 -0.0815 -0.0547 -0.0595
 6536W        W10600   1.031   1.185   3.150  0.2178  0.1737  0.0295
 6537W        W10601  10.289  10.229   8.892  0.1114  0.0325 -0.0412
 6538W        W10602   4.176   9.396  10.002 -0.2281 -0.1040  0.2504
 6539W        W10603   3.261   6.238  10.496  0.1302 -0.0886 -0.0629
 6540W        W10604   8.376   0.304   1.963 -0.0345  0.2231 -0.0115
 6541W        W10605   2.015   2.349  10.027 -0.2850 -0.1718  0.0117
 6542W        W10606   5.925   2.852   8.719  0.0921 -0.0757 -0.2735
 6543W        W10607  10.602   1.453   3.922  0.1441  0.1926  0.0210
 6544W        W10608   9.389   4.513   3.257 -0.0339 -0.0036  0.1534
 6545W        W10609   7.104  10.346   2.747  0.0555 -0.2455 -0.0661
 6546W        W10610   1.358   8.782   3.013  0.0350  0.4680 -0.0593
 6547W        W10611   4.521   2.857   8.641 -0.0178  0.3385  0.0869
 6548W        W10612   4.034   6.159   1.201 -0.3116 -0.0642 -0.3447
 6549W        W10613  10.194   9.130   0.498  0.2708  0.1127  0.0810
 6550W        W10614   4.950   1.034   8.822  0.1754 -0.2148  0.1523
 6551W        W10615   8.521   3.893   3.384 -0.1349  0.0401  0.1125
 6552W        W10616   7.891   7.478   7.434  0.1681 -0.1540 -0.2298
 6553W        W10617   7.157   6.150   9.771 -0.1413  0.2675  0.0013
 6554W        W10618   1.677   2.473   0.237  0.0334 -0.2259 -0.0191
 6555W        W10619   0.072   3.154   7.943  0.0110  0.0763  0.2768
 6556W        W10620   9.637  10.897   8.578  0.3422  0.2800  0.1097
 6557W        W10621   9.843   6.307   8.342  0.1683  0.1916 -0.2049
 6558W        W10622   9.069  10.724   1.151  0.0155 -0.1130 -0.1037
 6559W        W10623   5.400   3.462   0.553 -0.0126 -0.2912 -0.1719
 6560W        W10624   4.369   4.235   2.675  0.2772 -0.1350  0.0070
 6561W        W10625   9.054   4.180   3.922  0.1596 -0.1960  0.0874
 6562W        W10626   2.228   6.584   8.525  0.0476  0.0858  0.1125
 6563W        W10627   3.991   9.355  10.534 -0.0087 -0.2002 -0.2120
 6564W        W10628   9.823   4.570   0.604 -0.2165  0.0139  0.0775
 6565W        W10629   2.220   4.180   8.126 -0.1450 -0.2047 -0.0080
 6566W        W10630   5.890   3.904   3.870 -0.0828 -0.2441 -0.0677
 6567W        W10631   1.937   3.070  10.602  0.3385 -0.0129  0.1862
 6568W        W10632   1.630   0.632   2.377 -0.2396 -0.1103  0.3177
 6569W        W10633   9.855   3.119   2.963  0.0640  0.1543  0.1818
 6570W        W10634   7.384   9.337   9.503 -0.1100  0.0695  0.0067
 6571W        W10635   2.284   6.542   2.000 -0.1903  0.0603  0.2249
 6572W        W10636   6.937   4.761   9.692 -0.0730  0.0923  0.0057
 6573W        W10637   0.111   0.171   8.708  0.2976 -0.0525  0.0946
 6574W        W10638   6.337   5.293   0.227  0.2926  0.0977 -0.0670
 6575W        W10639   3.281   6.216   0.929  0.1900  0.1172 -0.0537
 6576W        W10640   1.904   9.756   1.871 -0.1202  0.2385  0.1957
 6577W        W10641  10.832   6.334   7.570  0.0388 -0.0733 -0.0790
 6578W        W10642   4.131   4.662   9.105  0.4394  0.0264 -0.0739
 6579W        W10643   7.912   1.693  10.284 -0.0880 -0.1412  0.2347
 6580W        W10644   4.242   0.755  10.563  0.4350  0.2664  0.3481
 6581W        W10645   7.271   7.697   0.658  0.0023 -0.0715  0.2369
 6582W        W10646   6.384   8.439   6.810 -0.2366  0.2024 -0.0439
 6583W        W10647   9.015   6.174   1.846 -0.1533 -0.1069 -0.1359
 6584W        W10648   9.934   5.554  10.681 -0.0602  0.2085 -0.0169
 6585W        W10649   8.363   6.587   7.592  0.0187  0.0184  0.1558
 6586W        W10650   8.930  10.123   9.056  0.0420 -0.1803 -0.0000
 6587W        W10651   2.025   7.120   2.192  0.2311 -0.2264 -0.2930
 6588W        W10652   4.785   9.574   2.905 -0.4558  0.0559  0.1874
 6589W        W10653   2.246   1.725  10.293  0.0161 -0.0450 -0.0886
 6590W        W10654   8.707  10.880   8.633 -0.0645  0.1912  0.1183
 6591W        W10655   4.641  10.861  11.015 -0.2347  0.0328 -0.0736
 6592W        W10656   6.505   6.709   3.289  0.2111 -0.0409 -0.1070
 6593W        W10657   5.647   0.565   3.120 -0.1520  0.2290 -0.0483
 6594W        W10658   8.501   5.027   1.437  0.1849 -0.1357 -0.0756
 6595W        W10659   9.491   4.224   0.984  0.1053  0.2558 -0.1791
 6596W        W10660   4.632   9.796   9.150 -0.2176  0.1283 -0.1336
 6597W        W10661   3.463  10.489   2.641 -0.1494 -0.4236 -0.3513
 6598W        W10662   4.370   5.340   1.118  0.6084  0.1525  0.4764
 6599W        W10663   0.745   3.890   1.027 -0.1370  0.0986  0.3000
 6600W        W10664   2.968   4.978  10.727 -0.1028 -0.2437 -0.1553
 6601W        W10665   0.247  10.762   9.140 -0.1048  0.0541 -0.1694
 6602W        W10666   3.996   1.234  10.612 -0.4123  0.0036 -0.0548
 6603W        W10667   0.677   1.646   0.709 -0.1403 -0.0004  0.1490
 6604W        W10668   7.009  10.667   9.337  0.2861 -0.2573  0.0148
 6605W        W10669  10.057   2.806  10.046  0.1649 -0.1622 -0.1332
 6606W        W10670   8.971  10.334  10.885 -0.1148 -0.2058 -0.0158
 6607W        W10671   4.728   9.926   0.036 -0.0079 -0.0590  0.0536
 6608W        W10672   1.924   2.575   1.732  0.2089 -0.0139  0.1546
 6609W        W10673   3.232   9.693   2.170  0.3837  0.1446  0.1379
 6610W        W10674   4.019  10.240   0.376  0.0045  0.0415  0.2265
 6611W        W10675   4.332  10.667   2.213 -0.2486 -0.1068 -0.1250
 6612W        W10676   8.891   7.170   1.628 -0.0254 -0.0559 -0.1268
 6613W        W10677   8.966   3.106   3.133  0.0767  0.1113  0.1569
 6614W        W10678   8.010   0.895   7.940  0.0688 -0.2758  0.0462
 6615W        W10679   6.500   7.144  10.648  0.2223 -0.0310 -0.0945
 6616W        W10680   7.484   5.507  10.754  0.1467  0.1108 -0.1756
 6617W        W10681   5.891  10.493   7.884  0.1085  0.0261 -0.3884
 6618W        W10682   8.308   0.618   0.163 -0.2017 -0.0776  0.1522
 6619W        W10683   1.705  10.323   2.941  0.0213  0.1207 -0.2535
 6620W        W10684   7.667   6.834   1.044 -0.0494 -0.1381  0.1240
 6621W        W10685   2.097   8.508   8.713 -0.2342 -0.1210  0.0248
 6622W        W10686   7.398   7.881   3.769 -0.1284  0.0568  0.3134
 6623W        W10687   9.424   4.436   3.733 -0.2794  0.0742 -0.0211
 6624W        W10688   8.964   2.871   0.497  0.3232 -0.2691  0.0638
 6625W        W10689   1.544  10.015   8.407  0.2867  0.2784 -0.1695
 6626W        W10690   0.016  10.134   2.073  0.0254  0.1139  0.0287
 6627W        W10691  10.394   8.820  10.255 -0.0138 -0.1379  0.1646
 6628W        W10692   0.477   4.929   0.552  0.2341 -0.0308 -0.2657
 6629W        W10693   2.179   9.222   8.689  0.2724  0.0478 -0.1043
 6630W        W10694   1.918   6.736  10.816 -0.0550 -0.1252  0.1327
 6631W        W10695   7.731   0.302   7.336  0.0464  0.1360  0.0023
 6632W        W10696  10.651   2.461   3.411  0.0439 -0.0783 -0.3455
 6633W        W10697   8.933   6.422   2.612 -0.1941  0.1654  0.1450
 6634W        W10698   5.785   1.369   8.263 -0.0135 -0.1992  0.1043
 6635W        W10699   7.823   2.977   1.175 -0.2757  0.1535  0.0251
 6636W        W10700   1.301   1.723   8.504  0.0072 -0.0820  0.3411
 6637W        W10701  10.619   8.215   9.372  0.0693 -0.0716  0.1937
 6638W        W10702   2.280   8.824   8.306 -0.4235  0.1706 -0.0294
 6639W        W10703   3.660   5.747   9.089  0.0696 -0.0264 -0.1549
 6640W        W10704   7.587   5.931   7.423  0.1387  0.3335  0.1939
 6641W        W10705   4.038   1.184   9.273  0.0451 -0.1923 -0.4292
 6642W        W10706   9.703   0.439   3.031  0.2794  0.2119 -0.1494
 6643W        W10707   2.535   1.195   9.664 -0.0699  0.0876  0.2059
 6644W        W10708   3.858   7.917  10.768  0.1453 -0.0073  0.2035
 6645W        W10709   3.451   2.763   8.603 -0.2255  0.1823 -0.1998
 6646W        W10710   7.529   1.497   8.519 -0.1456  0.4093  0.1762
 6647W        W10711   0.026   5.825   3.093  0.0537  0.0675  0.0578
 6648W        W10712   2.860   2.606   1.560 -0.2939  0.0431  0.2206
 6649W        W10713   6.905   1.131   8.964 -0.3962  0.0973  0.1637
 6650W        W10714   9.292   7.719   8.963 -0.1792  0.0706  0.3088
 6651W        W10715   8.486  10.599   9.384  0.2040 -0.2630 -0.0302
 6652W        W10716   3.233   0.520   2.485  0.0897  0.0643  0.0085
 6653W        W10717   5.351   7.431   0.939  0.1802 -0.0767  0.0157
 6654W        W10718   5.688   9.266   8.505  0.3210 -0.1542 -0.0012
 6655W        W10719   6.929   3.440  10.012 -0.1338  0.1677 -0.0115
 6656W        W10720   1.604   4.359  10.693 -0.0970 -0.1384  0.1013
 6657W        W10721   7.426   7.047   9.597 -0.1718  0.0033  0.0008
 6658W        W10722   7.030   2.790   3.151  0.1945 -0.0378 -0.1060
 6659W        W10723   7.151   0.560  10.751  0.3652 -0.4232  0.1253
 6660W        W10724   4.449   8.108   8.921  0.0534  0.0557  0.0802
 6661W        W10725   2.602   1.803  10.607 -0.1221 -0.2009 -0.0930
 6662W        W10726   2.561   2.725   2.405 -0.0610 -0.3408 -0.2560
 6663W        W10727   3.783   3.535  10.358  0.1155 -0.2218  0.0505
 6664W        W10728   5.025   0.466  10.193  0.0910 -0.1561  0.1477
 6665W        W10729   4.762   8.216   3.774  0.1223  0.1498 -0.0325
 6666W        W10730  10.574   2.881  10.779 -0.1310 -0.2270 -0.2322
 6667W        W10731   0.843   6.894  10.942 -0.3406  0.0997  0.2056
 6668W        W10732   3.841   7.672   0.646  0.3345  0.3039 -0.0292
 6669W        W10733   0.759   6.790   9.564 -0.1081  0.0822  0.3366
 6670W        W10734   3.361   7.672  10.763  0.1996  0.2721  0.0592
 6671W        W10735  10.435   8.556   8.424 -0.1110  0.1118 -0.0226
 6672W        W10736   7.782   6.734   7.801  0.0524  0.2006  0.0972
 6673W        W10737   8.245  10.206   0.457 -0.0602  0.2158 -0.3225
 6674W        W10738   0.658   4.075  10.185  0.0308  0.1485  0.2985
 6675W        W10739   8.005   8.861   2.684  0.1521 -0.0065 -0.0014
 6676W        W10740   0.120   1.163   3.950 -0.0980  0.1422  0.0179
 6677W        W10741   6.394   0.381   1.818  0.3791  0.0927 -0.2839
 6678W        W10742  10.356   4.449   2.630 -0.0510 -0.0240  0.3324
 6679W        W10743   0.885   3.893   7.477 -0.1383 -0.0693  0.0529
 6680W        W10744   4.162   9.769   2.027  0.0627  0.1260 -0.0086
 6681W        W10745   6.493   2.127   1.125  0.1840 -0.2058 -0.0846
 6682W        W10746   8.424   4.380   3.186 -0.1172 -0.2568  0.2277
 6683W        W10747   3.936   2.038   1.616  0.0295 -0.1386  0.3618
 6684W        W10748   5.273   0.593   3.637  0.1371 -0.1480  0.0319
 6685W        W10749   8.179   8.328   1.299 -0.1653 -0.0992 -0.0588
 6686W        W10750   2.395   1.482  10.970 -0.0705 -0.2248  0.1420
 6687W        W10751  10.852   6.306   3.161 -0.1204  0.0286 -0.2036
 6688W        W10752   2.191   0.062   7.845  0.1514 -0.1530 -0.1523
 6689W        W10753   0.650   2.027   8.346  0.2990 -0.1963  0.0642
 6690W        W10754   0.283   0.770   1.190 -0.1338 -0.2258 -0.0930
 6691W        W10755   0.204   9.768   8.707  0.0617 -0.1408 -0.2692
 6692W        W10756  10.510   9.036   1.239  0.1778  0.1805  0.0392
 6693W        W10757   1.943   8.764   3.052 -0.1304  0.0345 -0.1685
 6694W        W10758   0.814   0.747   8.632  0.1359 -0.1211 -0.0949
 6695W        W10759   7.081   5.789   9.303  0.0518  0.2466  0.0731
 6696W        W10760   8.653   9.678   2.959 -0.1560  0.0472 -0.1546
 6697W        W10761   0.568   6.283   1.333  0.0004  0.1174  0.1394
 6698W        W10762   5.820   5.035   3.179  0.1172 -0.2358  0.0447
 6699W        W10763   5.269   2.141   8.900 -0.1416 -0.2340 -0.1020
 6700W        W10764   2.155   6.534   1.526 -0.0902 -0.0263  0.2062
 6701W        W10765   4.939   2.217  10.041  0.0288 -0.3338 -0.1678
 6702W        W10766   1.656   0.568   1.129  0.2417 -0.1931 -0.0165
 6703W        W10767  10.342   7.553   7.921  0.2127  0.0615 -0.1860
 6704W        W10768   8.683   3.223   9.200  0.0039  0.0775  0.0107
 6705W        W10769   9.090   4.030   9.820 -0.0671 -0.1091 -0.0572
 6706W        W10770   9.401   6.491   8.168 -0.2013 -0.0391  0.2101
 6707W        W10771   2.792   8.322  10.795 -0.1921 -0.2879  0.2310
 6708W        W10772   1.462   9.630   9.029 -0.1065  0.1177 -0.0957
 6709W        W10773   2.706   4.779   1.821  0.3006 -0.2372 -0.0208
 6710W        W10774   6.945   5.677   2.797 -0.1242  0.2071  0.0545
 6711W        W10775   6.952   7.474  10.482 -0.0094 -0.1289 -0.4536
 6712W        W10776   0.851   5.490   1.652  0.1891 -0.0631 -0.1533
 6713W        W10777   0.892   5.679   8.689 -0.0199  0.0738  0.3433
 6714W        W10778   1.304   5.452   0.942 -0.1181 -0.0244 -0.2568
 6715W        W10779   9.461   7.981   1.291  0.0058  0.1124 -0.1137
 6716W        W10780   1.903   0.597   0.662  0.0461  0.0817  0.2931
 6717W        W10781   0.113   3.756   9.205 -0.0970  0.0845 -0.0616
 6718W        W10782   5.635   4.903  10.202  0.0432  0.1195 -0.0999
 6719W        W10783   1.997   5.817   9.060 -0.0530 -0.1276 -0.1763
 6720W        W10784   2.057   5.618   0.419 -0.1149 -0.0649 -0.1414
 6721W        W10785   5.235   3.280   9.522 -0.0312 -0.1754  0.1489
 6722W        W10786   7.685   8.381   1.295  0.3373 -0.1479  0.2627
 6723W        W10787   8.323   2.657   0.282  0.1737 -0.0689 -0.2289
 6724W        W10788   1.733   1.513   8.339 -0.0273  0.1459 -0.2135
 6725W        W10789   6.567   5.606   0.643 -0.1585 -0.1735  0.1578
 6726W        W10790   1.040  10.266   8.239 -0.1720  0.0310 -0.1899
 6727W        W10791   7.692   5.551   2.104 -0.0619 -0.1584  0.0924
 6728W        W10792   4.083   4.546   1.296 -0.2860  0.0272  0.2876
 6729W        W10793   2.460   4.284   1.024  0.1045  0.5914  0.0352
 6730W        W10794  10.373   2.063   1.587  0.1500  0.1729  0.2109
 6731W        W10795   8.390   4.534   0.060  0.1146  0.0448  0.1298
 6732W        W10796  10.793  10.496   1.641 -0.0454  0.1462  0.0076
 6733W        W10797   2.529   1.334   0.439  0.0727  0.0675 -0.1144
 6734W        W10798   8.184  10.809   2.704 -0.0810  0.2435 -0.0166
 6735W        W10799   9.660   6.342  10.371  0.1773  0.1679  0.2632
 6736W        W10800  10.149   3.205   1.719 -0.0333  0.3138  0.0599
 6737W        W10801   7.289   0.875   3.623  0.0589  0.2958  0.0662
 6738W        W10802  10.025   1.193   9.160 -0.1089  0.2183  0.2007
 6739W        W10803  10.843   3.821  10.656  0.3172  0.1909 -0.3647
 6740W        W10804   8.167   1.900   7.111 -0.1710  0.0650  0.0792
 6741W        W10805   1.472   6.629   9.009 -0.1471  0.4052  0.2222
 6742W        W10806   7.392   9.270   0.704  0.0411 -0.0975 -0.0867
 6743W        W10807   7.742   9.600   9.143 -0.2901  0.0948 -0.0620
 6744W        W10808   1.935   9.778   9.171  0.1916  0.0402 -0.3187
 6745W        W10809   7.089   2.794   1.465  0.3439 -0.0714 -0.0942
 6746W        W10810   7.063   3.834  10.513 -0.0576 -0.0717  0.0143
 6747W        W10811   7.373   8.707  10.066  0.3714 -0.1385  0.2108
 6748W        W10812   0.788   9.897   1.567  0.0184 -0.0283 -0.1310
 6749W        W10813   0.819   0.092  10.232 -0.0792  0.1296  0.3343
 6750W        W10814  10.295   6.454  10.828  0.0833 -0.0437  0.1530
 6751W        W10815   5.083   5.475   7.989 -0.3099  0.1464 -0.2099
 6752W        W10816   9.681   1.361  10.490 -0.0897  0.0794  0.1148
 6753W        W10817   7.976   3.183   3.131  0.1260  0.1457 -0.0461
 6754W        W10818   0.386   3.666  10.492  0.1511  0.0228 -0.0501
 6755W        W10819   0.408  10.252   2.490  0.1447 -0.1064  0.3932
 6756W        W10820   2.936   6.376   3.259 -0.0621 -0.3780  0.0137
 6757W        W10821   8.220  10.225   2.458 -0.1544 -0.3785  0.0013
 6758W        W10822   5.377   1.823   1.840 -0.1409  0.0422 -0.3199
 6759W        W10823   8.518   4.249   9.217 -0.0647 -0.0822  0.0871
 6760W        W10824   1.057   9.001   1.781  0.0199 -0.1371  0.1817
 6761W        W10825   7.843   2.157   1.646 -0.4079 -0.3866  0.3679
 6762W        W10826   8.995   6.632   1.712 -0.2484  0.0866  0.0140
 6763W        W10827   4.711   8.411   7.529 -0.1224 -0.3219 -0.2133
 6764W        W10828   8.664   0.476   1.626  0.0113 -0.0127 -0.0248
 6765W        W10829   7.478   3.095   1.564  0.0154 -0.0890  0.0986
 6766W        W10830   0.339   0.728   9.400  0.3209  0.0054  0.3602
 6767W        W10831   5.151   3.737   0.895 -0.3440 -0.2042 -0.2494
 6768W        W10832   5.767   6.544   1.424  0.2362 -0.4209  0.1484
 6769W        W10833   6.174   0.123   2.233  0.5217 -0.1377 -0.0663
 6770W        W10834   6.524   2.579   2.298  0.0219  0.2158  0.0385
 6771W        W10835   7.827   9.568   7.906 -0.2300 -0.1626 -0.0632
 6772W        W10836   1.617   2.244   1.605 -0.1271 -0.0960  0.1029
 6773W        W10837   8.305   4.605   8.838  0.0299 -0.1385  0.3639
 6774W        W10838   3.660   1.030   0.956 -0.0298  0.0478 -0.0176
 6775W        W10839   2.478   6.323   0.315  0.1391 -0.1936  0.0190
 6776W        W10840   9.313   4.741   1.616 -0.0287  0.0687 -0.0070
 6777W        W10841   8.909   3.322  10.205  0.2538  0.2638  0.1316
 6778W        W10842   9.534   4.894   3.604 -0.2063  0.0184 -0.3311
 6779W        W10843   0.060   6.704   0.316 -0.1997  0.1114  0.0651
 6780W        W10844   2.752   8.121   7.530  0.0029  0.2702 -0.2059
 6781W        W10845  10.139   7.557   8.777  0.3355  0.2532 -0.1431
 6782W        W10846   9.522   2.016   9.930 -0.1670  0.1433  0.2119
 6783W        W10847   6.154   9.945   9.051  0.0055 -0.1711  0.4325
 6784W        W10848   0.891   2.291   0.521 -0.1248  0.2080  0.0304
 6785W        W10849   1.435   1.371   7.655 -0.3115  0.3731  0.0888
 6786W        W10850   1.126   0.418   2.432  0.1050  0.0035  0.4752
 6787W        W10851   3.560   0.163   0.114 -0.2549  0.0991 -0.1735
 6788W        W10852   7.221   3.617   2.749  0.1769  0.0421  0.5915
 6789W        W10853   5.436   8.128   1.622  0.0082 -0.1247 -0.2618
 6790W        W10854   5.810   6.124   8.275  0.0401  0.1606 -0.1495
 6791W        W10855   9.925   7.615   0.682  0.2671 -0.1265  0.0624
 6792W        W10856   2.168   1.346   8.927 -0.0286  0.0125 -0.2369
 6793W        W10857   5.631   0.434   0.466  0.1585 -0.1648 -0.3519
 6794W        W10858   4.600   1.406   9.864 -0.2492  0.2245  0.1315
 6795W        W10859   1.862   2.539   0.808 -0.2698  0.3976  0.0830
 6796W        W10860   9.214   3.076   9.915 -0.1681  0.1171  0.2088
 6797W        W10861   5.525   5.700   1.686 -0.1060 -0.2560 -0.3168
 6798W        W10862   5.360   4.974   2.689 -0.0191  0.3474  0.1601
 6799W        W10863   9.439   8.641   8.191  0.2725 -0.1444  0.0923
 6800W        W10864   2.529   0.299  10.346 -0.3718  0.0674 -0.1365
 6801W        W10865   1.034   3.497   1.196  0.2317  0.2353 -0.2493
 6802W        W10866   6.671   7.071   9.670 -0.1385  0.3483  0.0974
 6803W        W10867   2.657   3.642   9.762 -0.4232 -0.0047 -0.1943
 6804W        W10868   3.315   9.158   9.226  0.0359 -0.2702 -0.1381
 6805W        W10869   6.517   4.598   7.969  0.3205 -0.2710 -0.1365
 6806W        W10870   8.979   3.425   0.506 -0.2742 -0.1283  0.3766
 6807W        W10871   6.336   7.224   1.384  0.4804  0.1908  0.3230
 6808W        W10872   8.634   7.333   0.754 -0.2361 -0.1774  0.0808
 6809W        W10873   9.559   0.446   8.907 -0.3638  0.0329 -0.1376
 6810W        W10874  10.295   6.608   1.627 -0.0789  0.2735  0.1820
 6811W        W10875   6.731   8.478   0.913 -0.0454  0.2461  0.2185
 6812W        W10876   5.580   0.899   7.324  0.1738 -0.0039  0.0497
 6813W        W10877   5.453   8.802   9.776 -0.0976 -0.1484 -0.2706
 6814W        W10878   4.332  10.737  10.585  0.0583 -0.0167 -0.2477
 6815W        W10879   3.237   9.881   8.215 -0.3436 -0.0339  0.2262
 6816W        W10880   2.967   5.094   9.157 -0.3137 -0.2280 -0.0523
 6817W        W10881   5.642   5.845   8.914  0.0761 -0.1672  0.3436
 6818W        W10882   8.255   0.231   1.458 -0.1330  0.4395 -0.1732
 6819W        W10883   1.150   7.370  10.921  0.0787  0.0270 -0.2494
 6820W        W10884   3.009   3.559  10.871  0.0040  0.2077  0.1057
 6821W        W10885   3.690   9.509   2.056  0.3917  0.1377  0.0831
 6822W        W10886   8.638   9.922   3.386 -0.3499  0.2124 -0.1233
 6823W        W10887   3.523   7.161  10.331 -0.2901 -0.1397 -0.0507
 6824W        W10888   4.124   8.695   2.376  0.1253  0.1369 -0.0398
 6825W        W10889   8.668   1.890   7.899 -0.1252 -0.0451  0.3343
 6826W        W10890   4.222   8.418   0.773  0.2415  0.1022 -0.2855
 6827W        W10891   5.430   5.576   0.280 -0.0122 -0.2772  0.1288
 6828W        W10892   4.318   2.828   2.649 -0.1685  0.0631  0.2429
 6829W        W10893   0.896   6.345   9.312  0.0027  0.0751 -0.3276
 6830W        W10894   2.472   6.828   8.185 -0.0410  0.1692  0.0742
 6831W        W10895   3.702   4.075   7.929  0.0688  0.0799 -0.1884
 6832W        W10896   9.045   7.148   9.527 -0.0601 -0.1399 -0.1209
 6833W        W10897  10.772   3.336  10.856 -0.2152  0.0930 -0.3527
 6834W        W10898   3.587   7.695   9.163  0.1086 -0.2376  0.1740
 6835W        W10899   7.729   6.567   2.901 -0.0733 -0.2126  0.1019
 6836W        W10900   8.778   1.445   8.090 -0.1167 -0.0335  0.0852
 6837W        W10901   1.726   6.140   2.588 -0.1878  0.2407 -0.0775
 6838W        W10902   9.804   8.202   9.974  0.0569 -0.0252  0.0512
 6839W        W10903   5.625   0.850   1.720 -0.0734 -0.0405  0.1072
 6840W        W10904   8.863   0.017   2.137  0.0976 -0.0484  0.1861
 6841W        W10905   0.290   9.558   8.275  0.1164 -0.3838 -0.3036
 6842W        W10906   0.946   5.380   3.305 -0.0500  0.0493  0.2604
 6843W        W10907   6.103   8.963   9.292  0.5188  0.2487  0.2028
 6844W        W10908   2.845   1.157  10.848 -0.1085  0.3310 -0.0556
 6845W        W10909   4.243   8.462   1.763 -0.0459  0.0113  0.0369
 6846W        W10910   9.716   8.701   1.812  0.0044  0.1960  0.1885
 6847W        W10911   9.184   3.214   0.935  0.2549  0.1397  0.4007
 6848W        W10912   9.527   8.649   9.866  0.0676 -0.1607 -0.0547
 6849W        W10913   4.222   0.674  11.037 -0.1867 -0.2001 -0.0786
 6850W        W10914   2.763   3.881   0.969 -0.0378 -0.0524  0.1224
 6851W        W10915   3.975   1.902   7.790 -0.0268 -0.4884 -0.1130
 6852W        W10916   6.105   1.432  10.005  0.0957  0.2344 -0.0463
 6853W        W10917   6.749   1.633   2.289 -0.1021 -0.2472 -0.0382
 6854W        W10918   0.404   5.473   7.652 -0.0669 -0.1427 -0.0130
 6855W        W10919   2.793   9.130   2.736  0.3328 -0.1298 -0.1965
 6856W        W10920   6.897   9.612   2.133  0.1688  0.1239 -0.2620
 6857W        W10921   8.247   0.086  10.505 -0.1576  0.2928 -0.1366
 6858W        W10922   9.810   0.564   2.521 -0.1170  0.1764  0.1848
 6859W        W10923   2.493   3.058   8.545  0.0487 -0.0019 -0.1725
 6860W        W10924   5.693   2.122   1.098  0.2320  0.0576 -0.2726
 6861W        W10925   3.367   7.010   0.166  0.5589  0.3062  0.1111
 6862W        W10926   3.315   1.856   8.998 -0.0798  0.1951  0.2792
 6863W        W10927  10.895   9.596   0.448  0.1439 -0.0641  0.0001
 6864W        W10928   2.087   6.071   0.673 -0.1618  0.2022  0.0212
 6865W        W10929   5.835   4.906   8.837 -0.1214  0.1510 -0.0025
 6866W        W10930   4.154   6.008   0.272  0.1106  0.1478 -0.0220
 6867W        W10931   2.812   5.659   1.965 -0.2490 -0.2137 -0.3856
 6868W        W10932   4.720   6.114  10.434  0.1357  0.0461 -0.2180
 6869W        W10933   7.942   0.910   3.303 -0.1608  0.0506 -0.0073
 6870W        W10934   4.565   6.062   8.560  0.0455  0.0814 -0.0278
 6871W        W10935   0.083   5.859  10.418  0.2203  0.1065  0.2071
 6872W        W10936  10.448   5.897   0.902 -0.0044 -0.2682 -0.2771
 6873W        W10937   2.252   9.953   3.697  0.0595  0.2290 -0.0946
 6874W        W10938   0.171   9.086   7.604 -0.1488 -0.0579  0.0789
 6875W        W10939   9.206   4.962   0.416  0.1879  0.2752  0.0037
 6876W        W10940   1.409   9.762   0.879  0.2008 -0.5350  0.2605
 6877W        W10941  10.329   8.697   0.676  0.0298  0.0719 -0.3352
 6878W        W10942   2.757   9.992  10.331  0.0429 -0.0999 -0.3703
 6879W        W10943   5.146  10.880  10.161 -0.1320  0.0488  0.1913
 6880W        W10944   4.492   9.846   3.979  0.0495 -0.0045 -0.3346
 6881W        W10945   9.549  10.826   3.273 -0.0402 -0.0431 -0.0568
 6882W        W10946   5.755   4.109  10.549  0.1382 -0.0848 -0.5678
 6883W        W10947   7.685   6.272   2.431  0.1901 -0.0098 -0.0166
 6884W        W10948   5.500   7.971  10.269 -0.1476 -0.1300  0.0582
 6885W        W10949   3.595   5.280   0.170  0.1823  0.2564 -0.3025
 6886W        W10950   4.234   3.337  10.518 -0.3583 -0.0449 -0.2116
 6887W        W10951   5.664   8.974   6.948  0.1837 -0.1299 -0.1495
 6888W        W10952   6.984   9.955   7.982  0.0176  0.0101  0.0435
 6889W        W10953  10.135   6.760   9.125  0.0041  0.1141 -0.0391
 6890W        W10954  10.776   0.197   3.241 -0.2521  0.1587 -0.2368
 6891W        W10955   7.044   7.187   1.948  0.3807 -0.0940  0.4030
 6892W        W10956   1.974   8.499   2.463  0.0254 -0.2454 -0.0238
 6893W        W10957   4.311   4.864  10.743 -0.3331  0.1502 -0.0106
 6894W        W10958   9.816   3.731   8.111  0.0526  0.0869 -0.1836
 6895W        W10959   5.460   0.224  10.546  0.0303  0.1913 -0.1163
 6896W        W10960   7.950   5.997   9.631  0.2041 -0.0066 -0.1562
 6897W        W10961  10.317   8.166   2.760  0.0566 -0.0637  0.1048
 6898W        W10962   4.349   8.569   3.161  0.0341 -0.6230  0.2994
 6899W        W10963   3.724   1.582   9.145  0.2070  0.0028 -0.2297
 6900W        W10964   0.056   4.761  10.366 -0.2741 -0.1858  0.1647
 6901W        W10965   4.690   3.421   1.657  0.3172  0.0806 -0.0871
 6902W        W10966   3.347   9.899   1.299 -0.0723  0.1548 -0.1874
 6903W        W10967   8.972   8.993  10.882  0.1674  0.0714  0.3548
 6904W        W10968  10.852   8.255   8.296 -0.1475  0.3153 -0.0323
 6905W        W10969   9.042   1.532   2.589 -0.2246  0.0456  0.1253
 6906W        W10970   3.482   2.714   8.084 -0.1639  0.2067  0.1180
 6907W        W10971   2.256   8.103   1.987 -0.3853 -0.1410 -0.0391
 6908W        W10972   4.279   8.591   9.404  0.3335  0.0219  0.0296
 6909W        W10973   9.758   7.876   8.783  0.2169  0.2703 -0.6413
 6910W        W10974   3.375   7.619   0.478  0.1195  0.2570  0.3053
 6911W        W10975   6.875   8.815   9.253  0.2471  0.2310  0.1128
 6912W        W10976  10.805   0.854   9.079  0.2640  0.0559 -0.1016
 6913W        W10977   3.964   2.282   0.558 -0.0551  0.0218  0.1505
 6914W        W10978   1.727   6.438   0.892  0.0418  0.1930  0.0221
 6915W        W10979   8.319  10.526   8.680 -0.2036  0.0773 -0.0877
 6916W        W10980   0.324  10.583  10.527  0.0347  0.0970 -0.1866
 6917W        W10981   6.019  10.302   3.776 -0.1638  0.0751 -0.1729
 6918W        W10982   6.307   3.880   0.406  0.0681  0.1937 -0.2991
 6919W        W10983   2.008   8.534   9.413  0.1967 -0.0451  0.2592
 6920W        W10984   4.566   1.250   7.895  0.0516  0.1250  0.0342
 6921W        W10985   3.212   1.331   9.117 -0.2055 -0.1819 -0.0703
 6922W        W10986   2.996   8.303  10.307  0.3477 -0.3281 -0.1468
 6923W        W10987   2.355   6.222   8.890  0.1610 -0.0818  0.1716
 6924W        W10988   1.497   5.998   8.892  0.1759  0.0979  0.1633
 6925W        W10989   1.548   0.305   7.388  0.1204  0.2652 -0.5492
 6926W        W10990   3.510   0.290   2.167  0.1457 -0.0192  0.0274
 6927W        W10991   9.358   5.399   1.758  0.1062 -0.0050 -0.3287
 6928W        W10992   9.928   8.229   3.046  0.0364 -0.2262 -0.0247
 6929W        W10993   0.504   5.004   9.402 -0.0068  0.0016 -0.2520
 6930W        W10994   0.825   8.214  10.335  0.3615  0.1633 -0.0073
 6931W        W10995   8.694   4.869   6.968 -0.0269 -0.2184 -0.0112
 6932W        W10996   3.212   7.779   1.985  0.3576  0.0790 -0.2095
 6933W        W10997  10.141   3.112  10.933 -0.0069 -0.3749  0.1398
 6934W        W10998   8.766   8.288   8.519  0.0245 -0.1585 -0.1010
 6935W        W10999   2.757   6.098   3.771 -0.2548 -0.3309  0.1445
 6936W        W11000  10.587   5.253   8.646  0.4074 -0.0489 -0.2388
 6937W        W11001   8.819   3.666   0.096 -0.0222  0.3135  0.3051
 6938W        W11002   7.285   7.794   8.568  0.0530  0.1097 -0.0158
 6939W        W11003  10.904  10.119   0.358  0.1841 -0.1211 -0.2949
 6940W        W11004   2.826   3.345   1.776 -0.0037  0.0349 -0.3840
 6941W        W11005   5.858   5.223   8.394  0.0611 -0.1559  0.2455
 6942W        W11006   3.335   3.704   2.541  0.0356 -0.0525 -0.0689
 6943W        W11007   8.419   7.317   9.281  0.0286 -0.0622  0.1757
 6944W        W11008   1.515   4.753   3.052 -0.1016 -0.3789  0.0578
 6945W        W11009   4.103   6.771   9.159  0.0661  0.0461  0.0313
 6946W        W11010   8.749   5.391   9.883  0.2140  0.0269  0.0520
 6947W        W11011   2.080  10.406   1.633  0.1479 -0.0780 -0.0016
 6948W        W11012   3.748   4.725  10.461 -0.2189 -0.3798  0.0550
 6949W        W11013   1.572   9.973   7.881  0.0431  0.3200  0.2336
 6950W        W11014  10.873   6.617   8.411 -0.2216 -0.0293  0.2884
 6951W        W11015   8.227   8.685   1.856  0.0508  0.0092  0.2434
 6952W        W11016   5.379   1.170   8.521 -0.1534  0.0540 -0.0381
 6953W        W11017   9.771   2.787  11.018 -0.0482  0.1635  0.1496
 6954W        W11018   8.543   3.090   7.822  0.0114  0.0602 -0.3373
 6955W        W11019   3.293   1.427   3.690 -0.0055 -0.0837 -0.2282
 6956W        W11020   6.440   5.538   7.643 -0.0180  0.2501  0.2022
 6957W        W11021   1.972   0.166   1.131 -0.0019 -0.2021 -0.3260
 6958W        W11022   0.559   1.051  10.459 -0.1470 -0.2456 -0.0539
 6959W        W11023   6.413   9.732   1.950  0.0418  0.0348 -0.0062
 6960W        W11024   4.861   7.118   0.145 -0.2025 -0.2417 -0.0056
 6961W        W11025   0.595   9.476   9.831 -0.0678 -0.0806 -0.0334
 6962W        W11026  10.536   7.400   1.868 -0.1747  0.0371  0.0272
 6963W        W11027   2.300   9.623   0.287 -0.0643 -0.2769  0.2645
 6964W        W11028   1.416  10.536   9.951 -0.0765  0.0615 -0.0353
 6965W        W11029   3.977   7.942   2.476 -0.0272  0.2051  0.2138
 6966W        W11030  10.401   7.211   9.134 -0.0766 -0.1578 -0.0811
 6967W        W11031   5.061   9.596  10.712  0.3158  0.4116 -0.0688
 6968W        W11032   2.550   8.874   2.355 -0.3300  0.1125 -0.1759
 6969W        W11033  10.066   0.239   8.602  0.2459  0.2218 -0.1165
 6970W        W11034   2.452   3.357   7.545  0.0266  0.0675 -0.0790
 6971W        W11035   5.923   1.891   8.985  0.4451  0.2760  0.1655
 6972W        W11036   5.737   5.021   1.155 -0.1975  0.0755 -0.0286
 6973W        W11037   5.984   1.495   0.524  0.4877 -0.1214 -0.2339
 6974W        W11038   6.766   8.458   1.485 -0.1392 -0.1788 -0.0102
 6975W        W11039   2.344   0.135   8.690  0.4003  0.0876  0.1863
 6976W        W11040   0.278   8.451   8.576 -0.0649 -0.0881 -0.0475
 6977W        W11041   8.496   7.040   7.958 -0.2550  0.1358  0.1587
 6978W        W11042   7.935   7.172   1.982  0.1300  0.0195  0.2083
 6979W        W11043   0.361  10.071   1.686  0.0101 -0.0698 -0.3670
 6980W        W11044   1.182   7.281   1.362 -0.0841  0.0523 -0.2102
 6981W        W11045   8.997   6.955   0.656 -0.1240 -0.2465  0.1660
 6982W        W11046   9.811   6.575   7.826  0.1534  0.0066 -0.3182
 6983W        W11047   3.530   0.350  10.733  0.2889  0.1285 -0.0701
 6984W        W11048   7.896   6.586   2.029  0.3930 -0.1907 -0.3165
 6985W        W11049   1.753   6.179  10.447  0.0443  0.2450 -0.0078
 6986W        W11050   4.335   2.242   2.029 -0.0883 -0.1347 -0.0027
 6987W        W11051   5.339   6.315   8.127 -0.0068 -0.3828  0.0387
 6988W        W11052   4.752   1.491   8.833 -0.1131  0.1071 -0.1558
 6989W        W11053   0.584   8.699   0.685  0.1899 -0.0399 -0.0905
 6990W        W11054   3.311   7.657   8.505 -0.0510  0.1442  0.0091
 6991W        W11055   1.963   8.504  10.375 -0.0634  0.0810  0.0525
 6992W        W11056   3.292   1.576   2.804 -0.0288 -0.0617 -0.0210
 6993W        W11057   1.586   1.796  10.475  0.1277  0.0424 -0.4111
 6994W        W11058   0.042   0.930   9.753  0.0809 -0.1672  0.0948
 6995W        W11059   7.821   6.088   4.340 -0.0871 -0.0958  0.2895
 6996W        W11060   1.280   8.039  10.351 -0.0480 -0.0170 -0.1166
 6997W        W11061  10.854   1.020   3.005 -0.0209 -0.1225  0.0036
 6998W        W11062   7.553   2.361   2.995  0.0497 -0.1341 -0.1330
 6999W        W11063   1.839   8.827   8.967  0.1102  0.0516  0.3175
 7000W        W11064   9.710   1.604   9.063 -0.2803 -0.0338  0.6845
 7001W        W11065   4.728   8.419   1.531 -0.0440  0.1715 -0.0202
 7002W        W11066   9.041   3.320   7.804  0.0185  0.2394 -0.1903
 7003W        W11067   7.885   7.095   8.333 -0.0000  0.2337  0.1576
 7004W        W11068   0.975   2.272   1.018  0.0092 -0.0519 -0.7540
 7005W        W11069   2.522   4.723   9.667 -0.2267  0.3921 -0.1998
 7006W        W11070   6.927  10.740   7.436  0.0422 -0.1022 -0.3225
 7007W        W11071   4.883   2.824  10.171  0.2934  0.0088  0.1828
 7008W        W11072   4.299   4.163   9.965 -0.0064  0.0212  0.3998
 7009W        W11073   7.299   8.494   3.307 -0.1152  0.0927 -0.0206
 7010W        W11074   3.826   2.259   2.820 -0.1448 -0.1003  0.0131
 7011W        W11075   4.406   3.753   0.213  0.1416 -0.0793  0.1914
 7012W        W11076   8.810   2.917   1.097 -0.2994 -0.0337  0.1365
 7013W        W11077  10.315   0.800   1.386 -0.2048  0.0770  0.0274
 7014W        W11078   8.565   8.861   0.176  0.0345 -0.0494  0.0083
 7015W        W11079   4.596   2.050   2.742  0.0634  0.3049  0.2598
 7016W        W11080   3.349   9.096   8.601  0.1821 -0.1207 -0.0487
 7017W        W11081  10.112   6.651  10.374  0.1316  0.0547  0.1063
 7018W        W11082   1.334  10.667   2.808 -0.2673  0.0532  0.0376
 7019W        W11083   1.725   4.046   0.575 -0.0703 -0.2860 -0.4367
 7020W        W11084   2.330   5.058   1.933  0.1229 -0.1310  0.5872
 7021W        W11085   4.480   2.127   1.516  0.2100  0.1698  0.0189
 7022W        W11086   2.555   2.952   1.023  0.0218 -0.0611  0.1332
 7023W        W11087   5.344   3.535   3.206 -0.0064  0.2678  0.3435
 7024W        W11088   3.835   0.438   1.748 -0.1248 -0.2431 -0.0408
 7025W        W11089  10.430   1.865   3.584 -0.0913  0.1604  0.1752
 7026W        W11090   9.971   0.725   8.851  0.0475  0.1103  0.3433
 7027W        W11091  10.890   6.945   3.052  0.1151  0.1606 -0.0264
 7028W        W11092   9.960   8.497   8.368 -0.0219  0.2455  0.0679
 7029W        W11093   1.096   1.507   1.520 -0.0419  0.5411  0.1762
 7030W        W11094   6.606   0.597   3.161 -0.0194 -0.2362  0.1790
 7031W        W11095   3.826   5.069  10.814  0.0671 -0.3321  0.1012
 7032W        W11096   6.846   1.802   7.600  0.2836 -0.0051 -0.0813
 7033W        W11097   8.716   6.729  10.778  0.2604  0.0863  0.0784
 7034W        W11098   7.202   4.669   1.086  0.0456  0.0662  0.1972
 7035W        W11099   3.265   6.353   8.105  0.0148  0.0712 -0.2903
 7036W        W11100   0.694   9.080   2.090 -0.1265 -0.0851  0.1627
 7037W        W11101  10.464  10.429   1.952  0.0969 -0.0651 -0.1432
 7038W        W11102   1.869   4.989   1.631  0.0798  0.3638 -0.1044
 7039W        W11103   6.237   3.050   1.403  0.2230 -0.0531  0.1958
 7040W        W11104   8.353   1.278   7.886 -0.4094  0.1189  0.0280
 7041W        W11105   3.357   3.093   0.974 -0.1929 -0.1322 -0.2506
 7042W        W11106   7.983   4.644   0.712  0.2631  0.0064  0.2114
 7043W        W11107   7.404   5.791   0.624  0.1345  0.2575 -0.1430
 7044W        W11108   4.462   7.116  10.111  0.0795 -0.0221 -0.0740
 7045W        W11109   4.340   9.970   2.910  0.2527  0.0826 -0.4041
 7046W        W11110  10.224   4.479   0.268  0.1101  0.1058 -0.1890
 7047W        W11111  10.073   4.738   9.081 -0.1883  0.0883 -0.2883
 7048W        W11112   7.028   2.119   0.261 -0.2385 -0.1027  0.0251
 7049W        W11113   3.840   3.089   1.941 -0.1744  0.0596  0.0074
 7050W        W11114   7.306  10.264   1.233 -0.0858 -0.1383 -0.0134
 7051W        W11115   7.971  10.049   7.979  0.2135  0.0199  0.1433
 7052W        W11116   0.591   7.649   7.748  0.1226  0.0960  0.1387
 7053W        W11117   5.879   4.266   0.930 -0.1961  0.2132 -0.2711
 7054W        W11118   5.220   7.310  10.102 -0.0979  0.1108  0.5159
 7055W        W11119   9.662   1.436   9.994 -0.1037  0.0021 -0.0945
 7056W        W11120   9.307   3.586   0.131  0.0555 -0.0069  0.6845
 7057W        W11121   8.735   3.121   0.126 -0.1093 -0.1950 -0.0514
 7058W        W11122   0.295   5.087  11.042 -0.0175  0.0095  0.1674
 7059W        W11123   7.259   8.617   9.026 -0.1580 -0.0131  0.1659
 7060W        W11124   1.729   6.392   1.874  0.2523  0.1103 -0.3203
 7061W        W11125   0.863   1.778   8.702 -0.0181 -0.2433 -0.0883
 7062W        W11126   1.346   4.965   0.319  0.1216 -0.2082  0.1380
 7063W        W11127   6.836   6.506   2.965  0.1175 -0.0792  0.3772
 7064W        W11128  10.188   3.477   8.336 -0.1428  0.2818  0.0562
 7065W        W11129   1.761   0.931   1.924 -0.4464  0.1127  0.2431
 7066W        W11130   9.484   3.541   7.755 -0.1509 -0.2468  0.1863
 7067W        W11131   1.413   9.357   0.586  0.1848 -0.3308 -0.1056
 7068W        W11132   5.614   7.627   1.801  0.0732 -0.1183  0.1364
 7069W        W11133   1.366   9.067   9.009 -0.1282 -0.1239  0.1743
 7070W        W11134   6.083   1.731   9.399 -0.0848  0.0487 -0.0056
 7071W        W11135   8.301   8.540   8.861 -0.1540 -0.3548  0.0201
 7072W        W11136   4.229   2.000  10.363  0.2253 -0.1933  0.1262
 7073W        W11137   5.818   9.297  10.189  0.1844  0.2585 -0.2044
 7074W        W11138   7.873  10.479   3.599  0.0546 -0.2546 -0.1066
 7075W        W11139   2.965  10.204   2.814 -0.1088  0.0442 -0.0072
 7076W        W11140   2.557   2.604  10.016  0.2177  0.0931  0.0249
 7077W        W11141   1.330   1.633  10.066  0.0870  0.3800 -0.2833
 7078W        W11142  10.063   1.205   0.463  0.4820 -0.0560 -0.0639
 7079W        W11143   6.803   3.563   1.693  0.0856  0.1173 -0.1370
 7080W        W11144   2.965   3.941  10.567 -0.2098 -0.2410 -0.0139
 7081W        W11145   7.281   3.845   9.824 -0.1983  0.2992  0.1762
 7082W        W11146   1.291   6.872   8.621  0.3510  0.2769 -0.0399
 7083W        W11147   1.844   9.624   8.660 -0.0754  0.0261  0.3141
 7084W        W11148   4.771   6.443   2.866  0.1085  0.0915  0.1103
 7085W        W11149   4.033   7.424  10.836 -0.0159  0.2017 -0.0126
 7086W        W11150   8.297   3.730   8.151  0.0116 -0.1078  0.2581
 7087W        W11151   3.018   5.741  10.182  0.0033 -0.1825  0.0849
 7088W        W11152   3.048   7.260   9.871  0.0154 -0.1616  0.1975
 7089W        W11153   9.133   6.152   8.396  0.0657 -0.0265  0.2283
 7090W        W11154   1.703   2.480   8.060  0.0776 -0.0161 -0.3056
 7091W        W11155   1.499  10.456   8.066  0.2638  0.0079 -0.0749
 7092W        W11156   8.729   4.057  10.209  0.1346  0.0407  0.0135
 7093W        W11157   3.452   9.964   2.809  0.1316  0.1247 -0.1174
 7094W        W11158   0.194   8.519   2.272 -0.1209 -0.0793  0.4570
 7095W        W11159   0.719   0.024   1.663 -0.0619 -0.1345 -0.1710
 7096W        W11160   5.597   1.953  10.612 -0.0855 -0.2953  0.1691
 7097W        W11161  10.268   5.822   9.920  0.2254 -0.2203  0.2144
 7098W        W11162  10.744   6.111  10.046 -0.0139  0.0953  0.0186
 7099W        W11163   2.631   7.142   3.742 -0.1242 -0.0961  0.0793
 7100W        W11164   8.501   6.262   7.125 -0.1169 -0.1888  0.2044
 7101W        W11165   9.521   1.630   4.099 -0.1510 -0.4378  0.0495
 7102W        W11166   8.435   1.784   9.591 -0.3416  0.1322  0.1310
 7103W        W11167   1.544   7.819   2.140 -0.0941 -0.0972 -0.4077
 7104W        W11168   2.200   8.989  10.679 -0.2698  0.0571  0.1097
 7105W        W11169   7.250   1.658   0.844  0.3064  0.2709  0.3149
 7106W        W11170   7.605   2.801   9.769 -0.1452 -0.1671  0.0494
 7107W        W11171   5.328   0.977   9.335  0.0085 -0.0107  0.3046
 7108W        W11172   3.879   8.295   9.519  0.3246 -0.0153 -0.1560
 7109W        W11173   2.800   7.611   2.536  0.0346  0.1253  0.0365
 7110W        W11174   9.292   7.215   2.258  0.0693  0.2777 -0.1621
 7111W        W11175   6.517   2.261   0.522  0.1062  0.2849 -0.2479
 7112W        W11176   1.152   9.249   1.100  0.0224  0.0527 -0.1242
 7113W        W11177  10.737   7.386   2.887  0.2098 -0.2437  0.1031
 7114W        W11178   3.212   8.305   8.470  0.0747 -0.0992 -0.2035
 7115W        W11179   2.773  10.536   0.474  0.2068  0.2058 -0.0211
 7116W        W11180   3.858   4.326  10.211 -0.0947 -0.1110 -0.0705
 7117W        W11181   5.053   6.567  10.451  0.3456 -0.0715 -0.0443
 7118W        W11182   2.662   0.863  10.486 -0.0705 -0.0521 -0.1018
 7119W        W11183  10.837   1.448   0.104  0.1420  0.2707 -0.0703
 7120W        W11184   6.059   9.466  10.617  0.0954  0.0235 -0.0934
 7121W        W11185   6.483   9.605   9.698 -0.0127 -0.0132  0.1894
 7122W        W11186   1.142   0.647   3.010  0.0894  0.4420  0.0249
 7123W        W11187   0.531   9.002   9.907  0.2091 -0.0782 -0.2225
 7124W        W11188   3.390   4.179   9.861 -0.0612 -0.2185  0.2163
 7125W        W11189   1.341   9.971   9.382 -0.0705 -0.1814 -0.0322
 7126W        W11190   7.725   3.071   2.104  0.2819 -0.1331  0.1039
 7127W        W11191   6.027   6.747   3.463 -0.1964  0.1421 -0.0388
 7128W        W11192   5.186   1.816  10.371  0.0461  0.0654 -0.2205
 7129W        W11193  10.889   1.281   8.643  0.0636  0.1485 -0.1017
 7130W        W11194   9.614   5.977   2.533  0.0722 -0.0820  0.1469
 7131W        W11195   3.780   5.559  10.826 -0.0660 -0.0156 -0.0046
 7132W        W11196   7.955   4.628  10.669 -0.0768 -0.1672  0.0810
 7133W        W11197   5.108  10.719   2.855  0.0803  0.0823 -0.3827
 7134W        W11198   0.291   4.667   2.832  0.1917 -0.0445  0.2244
 7135W        W11199   1.835   5.824   9.698 -0.1947  0.1675  0.1315
 7136W        W11200   2.216  10.566   8.795 -0.0013  0.2926  0.0766
 7137W        W11201   5.661   7.131   3.567  0.1926  0.1091 -0.0489
 7138W        W11202  10.139   6.371   9.969  0.2331 -0.1650  0.0421
 7139W        W11203   2.914   6.602  10.526  0.0303 -0.2911 -0.1317
 7140W        W11204   8.397   7.749   2.131  0.1214 -0.0008 -0.1496
 7141W        W11205   0.587   0.341   1.220 -0.0834 -0.1545 -0.5815
 7142W        W11206   4.827   2.099   7.904 -0.2625  0.1900  0.2833
 7143W        W11207   1.426   8.076   1.728 -0.1166  0.1230  0.0853
 7144W        W11208   7.560   6.851   8.675 -0.1608 -0.0059 -0.2161
 7145W        W11209   7.866   3.388   9.102  0.1393 -0.1325 -0.1651
 7146W        W11210   8.932   9.692   8.526  0.0183 -0.1713 -0.0722
 7147W        W11211   7.598   3.088  10.791 -0.0881 -0.2793  0.5617
 7148W        W11212   1.392   1.481   9.221  0.0838 -0.3421 -0.1544
 7149W        W11213   0.855   9.981   2.516  0.1951  0.4202  0.0896
 7150W        W11214   7.532   4.999   1.275 -0.2510 -0.1305  0.1149
 7151W        W11215   9.212   1.185   3.423 -0.0643 -0.1033  0.1422
 7152W        W11216   0.280   4.358   3.246 -0.2264  0.0092  0.1576
 7153W        W11217   6.406   0.112   8.810 -0.1893 -0.0612  0.3215
 7154W        W11218   0.569   0.497  10.291  0.3369 -0.0695  0.1553
 7155W        W11219   3.076   9.155   0.404  0.1872  0.2023  0.1956
 7156W        W11220   3.016   6.766   9.766  0.0245  0.0728 -0.6148
 7157W        W11221   7.375   3.634   1.717 -0.2692  0.3237 -0.2565
 7158W        W11222   9.928   6.003   0.819 -0.0683 -0.1074 -0.0564
 7159W        W11223   0.072   3.344   2.079  0.2200  0.0018 -0.1966
 7160W        W11224   9.954   2.545   2.774 -0.3425 -0.1495 -0.1852
 7161W        W11225   5.428   6.803   1.658  0.2133  0.0859  0.3284
 7162W        W11226   0.342   2.252   7.987  0.2281  0.1511  0.3325
 7163W        W11227   5.432   9.933   2.540 -0.2709 -0.0637 -0.2612
 7164W        W11228   5.846   6.521   0.008  0.0736  0.0757 -0.0593
 7165W        W11229   0.919   8.651   2.297  0.1319 -0.0658  0.1759
 7166W        W11230   0.556   7.320  10.212 -0.0989  0.1276  0.0331
 7167W        W11231   5.276   1.915   7.883  0.1238  0.1190  0.1182
 7168W        W11232   0.195   8.189   0.437 -0.2203  0.2234 -0.1080
 7169W        W11233   0.743   3.331   3.173  0.2640  0.1725  0.2588
 7170W        W11234   9.063   7.891  10.078  0.3131 -0.0680 -0.1673
 7171W        W11235   7.487  10.734   0.564 -0.1997  0.0562  0.0208
 7172W        W11236   0.808   1.208   8.443  0.2796  0.2797 -0.3963
 7173W        W11237  10.038   0.040   9.607 -0.0684  0.0612 -0.0512
 7174W        W11238   7.624   4.081   2.970  0.0045 -0.0503  0.0851
 7175W        W11239   0.736   2.547   9.777  0.2685  0.1515  0.2342
 7176W        W11240   0.481   4.903   1.061  0.1408  0.0147 -0.2007
 7177W        W11241   7.350   4.619   1.633  0.0431  0.0578  0.0184
 7178W        W11242  10.694   0.604   2.798 -0.1009 -0.0464  0.2370
 7179W        W11243   2.471   2.807   2.901  0.3036 -0.0219 -0.1422
 7180W        W11244   1.231   3.558   3.756 -0.0890 -0.0179 -0.0910
 7181W        W11245   1.385   5.945   1.889 -0.2650  0.0119  0.2331
 7182W        W11246  10.094   1.575   1.498  0.0395  0.0409 -0.0250
 7183W        W11247   7.703   5.640   4.503  0.1500  0.2100 -0.1134
 7184W        W11248   3.434   1.952   2.026  0.1310  0.1304  0.1970
 7185W        W11249  10.198   2.373   1.246  0.1701  0.1553  0.0568
 7186W        W11250   5.005   2.722   7.503  0.0340 -0.5219  0.2301
 7187W        W11251   5.852   0.470   1.350  0.1068 -0.1934  0.0944
 7188W        W11252   2.590   8.457   3.137  0.1932 -0.1225 -0.0124
 7189W        W11253   2.385   8.772   2.816  0.1198 -0.2488 -0.3124
 7190W        W11254   2.978   8.751   8.505  0.2345  0.3589  0.1794
 7191W        W11255   3.451   3.547   3.980  0.0666 -0.0722  0.1438
 7192W        W11256   8.465  10.640   0.698  0.0082  0.2941 -0.0305
 7193W        W11257   8.358   2.836   9.406 -0.0645  0.3581  0.0332
 7194W        W11258   8.751   8.057   0.461  0.0586 -0.3423  0.2145
 7195W        W11259   6.644   6.953   0.999  0.4536  0.0723 -0.1193
 7196W        W11260   7.142   8.423   0.613  0.2690  0.2083  0.0539
 7197W        W11261   0.484   8.016   8.346 -0.0629  0.1846  0.1181
 7198W        W11262   5.751   8.026   2.322  0.2569 -0.0375  0.2382
 7199W        W11263   3.170   4.196   2.071  0.2883 -0.0941  0.0550
 7200W        W11264   1.792   3.024   2.162 -0.1163  0.2371  0.0928
 7201W        W11265  10.457   7.449   6.983 -0.0886  0.3549 -0.2060
 7202W        W11266   8.932   7.705   8.563 -0.1880  0.2405 -0.2577
 7203W        W11267   8.113   5.517   9.484  0.2616  0.2469 -0.0238
 7204W        W11268   1.384  10.267   0.910 -0.0273  0.0644 -0.0457
 7205W        W11269   6.660  10.418  10.972 -0.0106 -0.0237 -0.1946
 7206W        W11270   6.209   1.498   8.053 -0.0370 -0.2544 -0.0232
 7207W        W11271   9.301   2.456   3.446 -0.0609  0.0466  0.1991
 7208W        W11272   9.159   5.430  10.196 -0.1124  0.4944  0.3131
 7209W        W11273   1.841   4.751  10.423 -0.3332  0.1701  0.2193
 7210W        W11274   5.472   5.235   0.772  0.1730 -0.1846  0.1853
 7211W        W11275   7.142   3.332   8.443 -0.2886  0.3842 -0.2958
 7212W        W11276  10.070   0.937   2.076  0.0363 -0.1153 -0.4025
 7213W        W11277  10.479   1.227  10.601  0.1947 -0.0816 -0.1559
 7214W        W11278   3.097   2.568   3.153  0.0599  0.3232 -0.3135
 7215W        W11279   8.104   8.658   0.130  0.3546 -0.2873  0.0220
 7216W        W11280   7.083   7.664   1.596  0.0502  0.1494 -0.2627
 7217W        W11281   5.733   6.811   0.761  0.1934 -0.0443  0.0944
 7218W        W11282   1.439   2.420  10.283 -0.1468 -0.2632 -0.1779
 7219W        W11283   1.792  10.038   4.024 -0.1691 -0.0628  0.1757
 7220W        W11284  10.205   7.722   1.584  0.2221  0.0801 -0.0388
 7221W        W11285   6.404   4.726   1.873  0.3070  0.0021  0.0382
 7222W        W11286   3.557   7.940   0.157  0.1233 -0.2899 -0.2476
 7223W        W11287   2.323  10.330  10.289  0.4817  0.3807  0.0974
 7224W        W11288   5.470   9.839   2.029  0.2219 -0.2660  0.3432
 7225W        W11289   5.202   2.378   2.937 -0.0697  0.0334  0.1388
 7226W        W11290   9.996   3.300   6.911 -0.0490  0.0471 -0.4400
 7227W        W11291   0.144   2.504   1.413  0.2089  0.2553  0.1309
 7228W        W11292   1.400   2.231  10.777  0.0810  0.0920  0.2028
 7229W        W11293   5.480   1.850   9.272  0.3118 -0.2083 -0.0758
 7230W        W11294   4.870   4.230   3.049  0.0497  0.1631  0.0967
 7231W        W11295   8.982   1.988   2.785 -0.0273  0.1254 -0.2712
 7232W        W11296   3.431   2.837  10.998  0.3402  0.2345 -0.0577
 7233W        W11297   1.841   8.067   3.266 -0.1351  0.0452  0.2788
 7234W        W11298   8.813   9.173   1.481  0.1042 -0.4366  0.0448
 7235W        W11299   0.521   7.619   9.600 -0.0997 -0.1508  0.0161
 7236W        W11300  10.559   0.141   8.428  0.3977 -0.1318 -0.1492
 7237W        W11301   6.294   4.051   2.496  0.0711 -0.2950 -0.1913
 7238W        W11302   8.574   9.786   9.608 -0.2565  0.1521 -0.1307
 7239W        W11303   3.311   1.876   1.537 -0.2791  0.1194 -0.1257
 7240W        W11304   5.685   6.910   0.276 -0.1709  0.0134  0.1644
 7241W        W11305   8.982   4.952   9.941  0.0504  0.4255 -0.0071
 7242W        W11306   0.201   0.353   2.848  0.1834  0.2552 -0.0606
 7243W        W11307   9.243   1.678  10.262 -0.0149 -0.4435  0.1310
 7244W        W11308   6.364   5.388   8.118  0.0500 -0.3081 -0.0311
 7245W        W11309   0.948   9.994   0.712 -0.0307 -0.0394  0.2292
 7246W        W11310   0.378   7.131   0.597 -0.1558  0.3355  0.0477
 7247W        W11311   2.830   9.191   2.084 -0.1064 -0.1195  0.0269
 7248W        W11312   9.716   1.238   1.659  0.1547  0.1215  0.3009
 7249W        W11313   8.576   1.855  10.924  0.1773 -0.2313 -0.0503
 7250W        W11314   7.923  10.327   8.416  0.0363 -0.1029 -0.4136
 7251W        W11315   4.955   1.184   3.055  0.1214  0.0815 -0.1938
 7252W        W11316   6.255   9.075  10.285 -0.0556 -0.1217 -0.2604
 7253W        W11317   2.259   5.620   3.197  0.1736 -0.0855 -0.0410
 7254W        W11318   7.990   7.925  10.153 -0.0682 -0.2395 -0.1687
 7255W        W11319  10.162   8.108   0.713  0.0951 -0.0231  0.2048
 7256W        W11320   0.268   5.318  10.564  0.1751 -0.1586  0.1050
 7257W        W11321   0.093   9.810   9.345  0.0572  0.1488 -0.5367
 7258W        W11322  10.158   5.448  10.262  0.2948 -0.0188  0.2602
 7259W        W11323   4.668   3.613   2.096  0.0695  0.0518 -0.3120
 7260W        W11324   2.660   6.597   1.647 -0.1485 -0.2440 -0.0929
 7261W        W11325   5.041   4.200   2.086 -0.0080 -0.0913 -0.1905
 7262W        W11326   9.367   6.705   2.033 -0.1817 -0.1114  0.1241
 7263W        W11327   2.003   9.876   8.196 -0.1397  0.1434  0.0872
 7264W        W11328   4.949   9.052   0.460  0.0010  0.2675 -0.0548
 7265W        W11329   4.017   7.968   9.174  0.1516  0.1054 -0.0724
 7266W        W11330   6.838   2.744   2.724  0.2203  0.0790 -0.1851
 7267W        W11331   1.655   1.039   8.271 -0.0588  0.0769  0.1420
 7268W        W11332   5.094   8.497   3.446  0.0583 -0.0259 -0.1141
 7269W        W11333   6.118   8.389   0.315 -0.0834 -0.2963  0.0044
 7270W        W11334   4.491   7.108   1.253  0.1156 -0.1519 -0.0717
 7271W        W11335   5.225   3.370   8.600  0.3159 -0.0062  0.0844
 7272W        W11336   6.791   8.001   8.603  0.2689 -0.1042  0.1413
 7273W        W11337   2.191   2.580   8.205 -0.1883  0.3508 -0.0010
 7274W        W11338   0.150  10.086  10.009  0.0806  0.0282 -0.1011
 7275W        W11339   7.767  10.514   2.595  0.1967 -0.1254  0.5069
 7276W        W11340   9.027  10.761   0.149  0.1511 -0.0475 -0.0780
 7277W        W11341   8.318   5.277   3.351  0.0934  0.3936 -0.0514
 7278W        W11342   9.219   7.800   0.199  0.0552 -0.1808 -0.0184
 7279W        W11343   8.036   9.890   2.760 -0.0240 -0.0804 -0.0462
 7280W        W11344   6.519   6.135   2.885 -0.2050 -0.0442 -0.2818
 7281W        W11345   4.825   7.257   2.852 -0.1087  0.1108 -0.1501
 7282W        W11346   5.867   1.549  10.702  0.1204 -0.0695 -0.2305
 7283W        W11347   4.998   3.072   0.121 -0.1351  0.0185 -0.1274
 7284W        W11348   4.535   0.512   9.554  0.2452 -0.2229 -0.2857
 7285W        W11349   1.625   9.356  10.666 -0.1143 -0.1453 -0.0962
 7286W        W11350   9.715   0.505  10.958 -0.4083  0.0246 -0.0273
 7287W        W11351   5.550   9.482   1.108  0.1009  0.0192  0.1910
 7288W        W11352  10.739   4.579   9.591 -0.0023 -0.0159  0.0014
 7289W        W11353   0.715   7.243   8.053 -0.0762 -0.2525  0.3982
 7290W        W11354   0.853   2.022   2.216 -0.0654  0.1115 -0.4916
 7291W        W11355   0.274   0.139  10.169  0.0159  0.3040  0.1600
 7292W        W11356   8.504   2.335  10.777 -0.0804 -0.3143 -0.1228
 7293W        W11357   1.458   3.589   2.200  0.1815  0.2180 -0.0477
 7294W        W11358   0.335   2.196   2.448 -0.0595  0.1892 -0.0460
 7295W        W11359   0.862   5.872   9.907 -0.2833 -0.0439 -0.0647
 7296W        W11360   7.099   4.110   2.915  0.2973 -0.2160 -0.3450
 7297W        W11361   3.096   5.967   0.541  0.4381  0.3148 -0.0679
 7298W        W11362   0.899   6.008   2.074 -0.0465  0.1663 -0.0411
 7299W        W11363   8.210   7.310   0.193  0.1188  0.0671  0.3885
 7300W        W11364  10.784   7.863   8.009 -0.1038  0.2937  0.0074
 7301W        W11365   8.597   1.485   0.932  0.1910 -0.2091  0.1163
 7302W        W11366   3.404   1.845  10.430  0.3658 -0.0301  0.0135
 7303W        W11367   3.847   9.716   2.887  0.1422  0.0055 -0.1100
 7304W        W11368   9.079   5.736   8.018  0.0117  0.1943  0.1132
 7305W        W11369   0.027   4.738   0.879  0.0362 -0.2963 -0.0196
 7306W        W11370   7.266   7.545   1.118 -0.1619  0.1093  0.0901
 7307W        W11371   9.701   3.203   0.828  0.0595  0.1556 -0.1725
 7308W        W11372   3.409   5.678  10.487 -0.2350 -0.3940  0.1880
 7309W        W11373   1.323   6.652   2.122 -0.2774  0.1963  0.2474
 7310W        W11374  10.773   5.041   9.807 -0.3505 -0.4211  0.0076
 7311W        W11375   9.526   5.529   8.184 -0.0473 -0.0074  0.1128
 7312W        W11376   7.042   3.244   1.326 -0.1265 -0.0203  0.4394
 7313ION    NA+11377  10.801  10.765  10.783 -0.0031 -0.1261  0.0320
 7314ION    NA+11378   7.725   1.280   2.821 -0.1079  0.1289 -0.1997
 7315ION    NA+11379   0.122   7.811   9.775  0.4153 -0.2010 -0.0820
 7316ION    NA+11380   4.061   7.110   7.843 -0.3669  0.1914  0.2903
 7317ION    NA+11381   6.146   4.464   1.358  0.2091  0.0140 -0.1439
 7318ION    NA+11382   4.541   6.104   1.830 -0.2428  0.1062  0.2468
 7319ION    NA+11383   2.866   8.636   1.344  0.0505 -0.0134  0.0032
 7320ION    NA+11384   3.952   7.732   3.829  0.1912 -0.0068  0.2718
 7321ION    NA+11385   7.700   6.125   1.884  0.1913  0.0114  0.0056
 7322ION    NA+11386   8.318   1.398   3.614 -0.0392 -0.0336  0.0845
 7323ION    NA+11387  10.260   6.749   9.616  0.2021  0.1270  0.2436
 7324ION    NA+11388   6.061   9.359   3.572  0.2343 -0.3378 -0.3403
 7325ION    NA+11389   5.911   4.848   3.646 -0.0357 -0.1509 -0.0109
 7326ION    NA+11390   6.764   6.093  10.552  0.1045 -0.1268  0.3048
 7327ION    NA+11391  10.009   0.071   2.460  0.1446  0.0485 -0.0723
 7328ION    NA+11392   5.692   3.395   0.042 -0.3492 -0.2902  0.4990
 7329ION    NA+11393   3.139   1.630  10.890  0.2706  0.1740 -0.3349
 7330ION    NA+11394   4.447   8.846   8.782 -0.3628 -0.0822  0.1913
 7331ION    NA+11395  10.257   3.622   3.522 -0.0068  0.3436 -0.2829
 7332ION    NA+11396   3.954   2.881   8.593 -0.0532  0.0165  0.0609
 7333ION    NA+11397  10.233   4.293   3.653 -0.0862 -0.0691  0.0359
 7334ION    NA+11398   2.392   7.020   0.775 -0.0745 -0.0538 -0.2389
 7335ION    NA+11399  10.864   1.232  10.231 -0.1937  0.3878 -0.1280
 7336ION    NA+11400   3.310   0.936   9.817 -0.0288 -0.0920 -0.1533
 7337ION    NA+11401   5.241   9.260   3.704  0.1523 -0.0408 -0.1766
 7338ION    NA+11402   6.039   1.257   1.991 -0.0924 -0.1875 -0.0364
 7339ION    NA+11403   8.194   8.406  10.302 -0.1855  0.1617 -0.0628
 7340ION    NA+11404   6.326   7.501   3.829 -0.0426  0.0637  0.1343
 7341ION    NA+11405   4.118   4.568   0.443 -0.1374 -0.2227  0.1124
 7342ION    NA+11406   9.063   8.577   3.483  0.2209  0.0082  0.2419
 7343ION    NA+11407   1.856   8.865   3.587  0.1411  0.0162  0.3213
 7344ION    NA+11408   1.793   1.773   7.416  0.0961 -0.4800  0.4157
 7345ION    NA+11409   1.962   7.911   0.781 -0.0310 -0.1938 -0.1367
 7346ION    NA+11410   5.618   3.374   3.578 -0.2283 -0.0595 -0.0909
 7347ION    NA+11411   6.426   1.303   0.628 -0.0657 -0.0989  0.3456
 7348ION    NA+11412  10.077   3.560   2.052  0.0964 -0.1434 -0.2490
 7349ION    NA+11413   2.339   4.029   2.677 -0.0095 -0.1663 -0.0070
 7350ION    NA+11414   8.287   9.993  10.065 -0.1585  0.1293  0.1329
 7351ION    NA+11415   5.386   1.524  10.868 -0.1634  0.3295  0.0861
 7352ION    NA+11416   6.646   0.900   7.954 -0.2217  0.2197  0.0519
 7353ION    NA+11417   0.394   9.731   0.793  0.0733  0.1006  0.0687
 7354ION    NA+11418   8.071   7.908   3.619  0.0116  0.1772 -0.0083
 7355ION    NA+11419   3.459   6.993   1.118 -0.2039  0.2265  0.0530
 7356ION    NA+11420   7.181   7.195   0.463  0.0177  0.0440  0.0678
 7357ION    NA+11421   6.018   4.960   9.843 -0.0204 -0.0925 -0.0766
 7358ION    NA+11422   6.397   3.584   7.892  0.2064 -0.0893  0.0343
 7359ION    NA+11423   2.619   2.093   9.307  0.0698 -0.1970 -0.1987
 7360ION    NA+11424   0.442   6.665   8.398  0.0757 -0.0931  0.0911
 7361ION    NA+11425  10.688   8.785   9.263  0.1683  0.2350 -0.1370
 7362ION    NA+11426   0.055  10.077   7.406  0.0699  0.0578 -0.2299
 7363ION    NA+11427   0.706   4.557   9.496 -0.0794  0.0263  0.0385
 7364ION    NA+11428   6.064   7.161   7.724 -0.1949 -0.1403  0.0471
 7365ION    NA+11429   5.587   9.869   9.599 -0.3443 -0.2685  0.1038
 7366ION    NA+11430   9.636   9.204   2.276  0.2698  0.1107  0.1595
 7367ION    NA+11431   6.870   0.485   2.702 -0.2000  0.1690  0.1508
 7368ION    NA+11432  10.496   5.089  10.285 -0.1796 -0.1193  0.0075
 7369ION    NA+11433   3.865   0.986   1.858 -0.0432 -0.1373 -0.1352
 7370ION    NA+11434   2.379   8.235   7.812  0.1636 -0.2133  0.0196
 7371ION    NA+11435   6.954   6.515   7.787  0.4228 -0.2664 -0.2201
 7372ION    NA+11436  10.328   3.143   9.196 -0.0822  0.1618  0.2588
 7373ION    NA+11437   9.821   5.792   0.132 -0.0513 -0.3142 -0.0489
 7374ION    NA+11438   3.325   4.237   1.545 -0.0448 -0.0301  0.0946
 7375ION    NA+11439   2.481   9.537   7.620  0.2872 -0.0582  0.1353
 7376ION    NA+11440   5.167   6.836   9.245 -0.0641 -0.0950  0.0574
 7377ION    NA+11441   3.949   1.941   8.856 -0.0533  0.0454 -0.0080
 7378ION    NA+11442   6.119   0.321   3.139  0.0846 -0.0375 -0.1949
 7379ION    NA+11443   5.589   7.728   7.536 -0.0643 -0.1207 -0.1719
 7380ION    NA+11444   0.854   6.620   2.015  0.2060  0.1585  0.0420
 7381ION    NA+11445   2.102   7.297   3.842  0.2675  0.0440  0.1056
 7382ION    NA+11446   1.145   0.615   1.110 -0.1263  0.0205 -0.2145
 7383ION    NA+11447   0.905  10.019   9.145 -0.2195 -0.2176  0.1427
 7384ION    NA+11448   8.812   8.841   9.910  0.2067  0.1768 -0.0096
 7385ION    NA+11449   4.103   9.323   2.471 -0.2644  0.0028 -0.0076
 7386ION    NA+11450   5.993   6.378   0.985  0.3469  0.1199 -0.0840
 7387ION    NA+11451  10.599   7.659   7.457 -0.1244  0.2400 -0.0303
 7388ION    NA+11452   2.477   0.425   3.720 -0.2235  0.0686 -0.0310
 7389ION    NA+11453   4.358   9.906   0.547 -0.4071  0.2662  0.0294
 7390ION    CL-11454   1.321   8.100   3.144  0.0543 -0.1282  0.0905
 7391ION    CL-11455   7.216   5.008   7.919 -0.0666 -0.0450 -0.1655
 7392ION    CL-11456   8.294   5.427   3.896  0.1935  0.1885 -0.0915
 7393ION    CL-11457   1.875   7.365   0.797 -0.0803 -0.0668  0.1043
 7394ION    CL-11458   9.417   2.010   3.177 -0.0850  0.0135  0.0919
 7395ION    CL-11459   4.183   6.218   2.156  0.1351  0.1087 -0.1483
 7396ION    CL-11460   7.181   7.047   0.937 -0.0947  0.0534 -0.1443
 7397ION    CL-11461   2.242   6.567   0.731  0.0997 -0.1470 -0.4387
 7398ION    CL-11462   4.410   0.519   3.018  0.2303  0.1733  0.1113
 7399ION    CL-11463   3.799   2.407   8.424  0.3119 -0.0274 -0.0107
 7400ION    CL-11464   7.335   0.823   2.703  0.4055  0.1732  0.0400
 7401ION    CL-11465   7.029   6.822   9.828  0.0518  0.0410 -0.2539
 7402ION    CL-11466   9.895   9.241   2.729 -0.2622 -0.1004 -0.1964
 7403ION    CL-11467   4.320   1.292   1.700 -0.0614  0.1782 -0.0821
 7404ION    CL-11468   0.893   1.013   2.743 -0.3492 -0.1117  0.3466
 7405ION    CL-11469   8.764   3.434   2.836  0.0406  0.0929  0.0492
 7406ION    CL-11470   3.017   1.413  10.442  0.1221 -0.0533 -0.1210
 7407ION    CL-11471   5.883   6.545  10.441 -0.0049 -0.0711 -0.1709
 7408ION    CL-11472   0.687   6.650   7.939 -0.0035  0.2389 -0.6033
 7409ION    CL-11473   5.328   4.299  10.802  0.1965  0.1209 -0.1229
 7410ION    CL-11474   5.972   1.155   2.495  0.0242  0.2213 -0.1001
 7411ION    CL-11475   2.404   5.390   2.758 -0.3896  0.0055  0.0930
 7412ION    CL-11476   5.033   4.414   1.354 -0.0687 -0.0097 -0.3471
 7413ION    CL-11477   6.093   9.119   3.152  0.0582 -0.0209 -0.0446
 7414ION    CL-11478   4.089   6.676   3.600  0.1807 -0.1016  0.0491
 7415ION    CL-11479   6.724   0.009   2.613 -0.0881  0.2653  0.2074
 7416ION    CL-11480   3.488   3.158   8.317 -0.2379 -0.0615  0.4477
 7417ION    CL-11481   0.187  10.184   2.944 -0.0315 -0.0657 -0.1218
 7418ION    CL-11482   8.799  10.627   8.199  0.1259  0.3811  0.0633
 7419ION    CL-11483   7.124   1.068   8.090 -0.0327 -0.0077  0.0509
 7420ION    CL-11484   9.082   8.420  10.080 -0.1058  0.1268  0.0684
 7421ION    CL-11485   1.487   0.557   8.208 -0.1722 -0.0698 -0.1678
 7422ION    CL-11486   6.525   3.622   8.388  0.1740 -0.0296  0.0771
 7423ION    CL-11487   4.378   9.578   0.916 -0.3109 -0.0793 -0.2882
 7424ION    CL-11488   8.138   1.362   2.568  0.1011  0.3772 -0.3546
 7425ION    CL-11489   9.279   9.181   8.037 -0.0794 -0.2171  0.2648
 7426ION    CL-11490   8.293   8.697   9.885 -0.1351  0.1397 -0.0336
 7427ION    CL-11491   8.094   6.203   1.618  0.0372 -0.2627  0.1010
 7428ION    CL-11492  10.689   2.759   8.209 -0.0261 -0.1705 -0.0816
 7429ION    CL-11493   3.312   9.165   2.101 -0.1335 -0.1963  0.1379
 7430ION    CL-11494   0.558   9.968   9.603  0.2195 -0.2669 -0.2005
 7431ION    CL-11495   6.573   0.913   0.954  0.1505  0.0295 -0.1495
 7432ION    CL-11496   4.542   9.114   2.363  0.0395 -0.0890 -0.3383
 7433ION    CL-11497   9.906   0.330   2.047  0.0004  0.0805 -0.0895
 7434ION    CL-11498   8.504  10.341  10.477  0.0618 -0.0362  0.3268
 7435ION    CL-11499   9.729  10.513   2.480 -0.0104  0.2812  0.0087
 7436ION    CL-11500   3.397   3.194   2.560  0.1121 -0.2725  0.0696
 7437ION    CL-11501   5.687   1.838   0.058  0.2162  0.1037 -0.0392
 7438ION    CL-11502  10.488   6.163   1.340  0.1621  0.0489  0.1640
 7439ION    CL-11503   7.967   8.635  10.655  0.4466  0.1974 -0.1519
 7440ION    CL-11504   9.949   0.022   3.046  0.0304  0.2386 -0.1408
 7441ION    CL-11505  10.710   8.152   9.905  0.2511 -0.2204 -0.1387
 7442ION    CL-11506   3.771   9.805   9.263 -0.2466  0.3474  0.1155
 7443ION    CL-11507   4.114   9.184   8.598  0.0387 -0.1285 -0.4213
 7444ION    CL-11508   2.484   1.050   8.054  0.1273  0.1068  0.3989
 7445ION    CL-11509   7.228   6.085  10.782  0.3445 -0.3649 -0.2049
 7446ION    CL-11510  10.064   6.783   2.432 -0.1316  0.1688  0.0078
 7447ION    CL-11511  10.496   3.277   2.122 -0.2111 -0.2108 -0.1650
 7448ION    CL-11512   1.396  10.345  10.619 -0.3152 -0.0642  0.0407
 7449ION    CL-11513   1.835   4.295   2.546  0.1227 -0.0006  0.0850
 7450ION    CL-11514   1.751   7.536   2.552  0.1472 -0.0068 -0.1012
 7451ION    CL-11515   1.046   9.936   3.329  0.0604 -0.0794 -0.0387
 7452ION    CL-11516   6.903   2.780   9.219  0.3191  0.0874 -0.3504
 7453ION    CL-11517  10.197   3.178   8.701  0.1104 -0.0654  0.0220
 7454ION    CL-11518   2.561   7.896   0.980 -0.5527 -0.1304 -0.0250
 7455ION    CL-11519   5.725   2.396   2.852 -0.0975  0.0165 -0.3674
 7456ION    CL-11520   6.463   5.154  10.200  0.0766 -0.0975  0.0882
 7457ION    CL-11521   4.966   8.708   7.914 -0.0336  0.1533 -0.1656
 7458ION    CL-11522   4.097   3.368  11.054  0.0605 -0.0561 -0.0449
 7459ION    CL-11523   5.655   7.028   8.655  0.1331  0.0166 -0.3776
 7460ION    CL-11524   0.133   9.035   1.167  0.0941  0.0585  0.0381
 7461ION    CL-11525   3.212   0.335   9.785  0.1024 -0.0449 -0.0471
 7462ION    CL-11526  10.427   6.236   9.616 -0.1047 -0.0841  0.1746
 7463ION    CL-11527   0.064   1.550  10.621  0.0911 -0.1405  0.1345
 7464ION    CL-11528   9.466   5.358  10.578 -0.0736 -0.2581 -0.4329
 7465ION    CL-11529   4.203  10.045   0.003  0.0999 -0.0272 -0.1410
 7466ION    CL-11530   7.575   4.222   3.627  0.1185  0.3251  0.3382
  10.90610  10.90610  11.05577
