Protein in INSANE! Membrane UpperLeaflet>POPC=1.0 LowerLeaflet>POPC=1.0
12676
    1AU     AUC    1   5.745   5.864   6.010
    1AU     AUC    2   6.007   5.861   5.853
    1AU     AUC    3   6.000   5.849   6.158
    1AU     AUC    4   5.497   5.868   5.851
    1AU     AUC    5   5.483   5.885   6.158
    1AU     AUC    6   5.602   6.126   6.017
    1AU     AUC    7   5.911   6.117   5.993
    1AU     AUC    8   5.586   5.610   6.016
    1AU     AUC    9   5.879   5.604   6.029
    1AU     AUC   10   5.733   5.712   6.271
    1AU     AUC   11   5.769   6.025   6.263
    1AU     AUC   12   5.744   5.705   5.749
    1AU     AUC   13   5.734   6.006   5.749
    1AU     AUC   14   6.254   5.856   5.683
    1AU     AUC   15   6.266   5.856   5.996
    1AU     AUC   16   6.258   5.845   6.305
    1AU     AUC   17   5.236   5.863   5.697
    1AU     AUC   18   5.226   5.889   5.997
    1AU     AUC   19   5.237   5.906   6.321
    1AU     AUC   20   5.464   6.399   6.019
    1AU     AUC   21   5.771   6.391   6.007
    1AU     AUC   22   6.063   6.378   6.006
    1AU     AUC   23   5.400   5.360   6.022
    1AU     AUC   24   5.719   5.340   6.006
    1AU     AUC   25   6.031   5.337   6.031
    1AU     AUC   26   5.711   5.555   6.520
    1AU     AUC   27   5.749   5.867   6.538
    1AU     AUC   28   5.776   6.179   6.529
    1AU     AUC   29   5.746   5.538   5.497
    1AU     AUC   30   5.749   5.853   5.489
    1AU     AUC   31   5.737   6.167   5.487
    1AU     AUC   32   6.010   5.704   6.432
    1AU     AUC   33   6.020   5.999   6.427
    1AU     AUC   34   6.011   5.699   5.588
    1AU     AUC   35   6.014   6.007   5.579
    1AU     AUC   36   5.475   5.734   6.437
    1AU     AUC   37   5.497   6.044   6.439
    1AU     AUC   38   5.493   5.705   5.579
    1AU     AUC   39   5.480   6.016   5.589
    1AU     AUC   40   6.168   6.125   5.834
    1AU     AUC   41   6.181   6.097   6.151
    1AU     AUC   42   5.332   6.134   5.861
    1AU     AUC   43   5.343   6.152   6.180
    1AU     AUC   44   6.152   5.594   5.856
    1AU     AUC   45   6.156   5.591   6.173
    1AU     AUC   46   5.317   5.615   5.850
    1AU     AUC   47   5.320   5.631   6.188
    1AU     AUC   48   5.608   6.289   6.282
    1AU     AUC   49   5.930   6.286   6.252
    1AU     AUC   50   5.560   5.444   6.265
    1AU     AUC   51   5.879   5.444   6.289
    1AU     AUC   52   5.593   6.286   5.750
    1AU     AUC   53   5.912   6.270   5.738
    1AU     AUC   54   5.567   5.458   5.749
    1AU     AUC   55   5.895   5.436   5.766
    1AU    AUSL   56   6.087   5.796   6.602
    1AU    AUSL   57   6.040   5.369   6.644
    1AU     AUL   58   6.277   5.448   6.906
    1AU       S   59   6.321   5.059   6.624
    1AU     LIG   60   6.397   4.719   6.898
    1AU     LIG   61   6.543   4.382   7.205
    1AU     LIG   62   6.700   4.074   7.527
    1AU     LIG   63   6.662   3.846   7.945
    1AU     LIG   64   6.751   3.682   8.382
    1AU     LIG   65   7.030   3.576   8.740
    1AU       S   66   6.158   5.810   7.169
    1AU     LIG   67   6.316   5.594   7.561
    1AU     LIG   68   6.598   5.366   7.893
    1AU     LIG   69   6.992   5.251   8.157
    1AU     LIG   70   7.375   5.286   8.454
    1AU     LIG   71   7.641   5.531   8.769
    1AU     LIG   72   7.894   5.621   9.147
    1AU    AUSL   73   5.810   5.640   6.874
    1AU    AUSL   74   5.696   6.043   6.800
    1AU     AUL   75   5.751   5.997   7.220
    1AU       S   76   5.879   5.624   7.020
    1AU     LIG   77   5.855   5.366   7.442
    1AU     LIG   78   6.117   5.166   7.809
    1AU     LIG   79   6.284   4.969   8.232
    1AU     LIG   80   6.283   4.740   8.678
    1AU     LIG   81   6.426   4.643   9.133
    1AU     LIG   82   6.557   4.829   9.551
    1AU       S   83   5.376   5.757   7.159
    1AU     LIG   84   5.326   5.684   7.633
    1AU     LIG   85   5.136   5.627   8.072
    1AU     LIG   86   5.052   5.796   8.513
    1AU     LIG   87   5.141   6.052   8.917
    1AU     LIG   88   5.009   6.272   9.315
    1AU     LIG   89   4.706   6.470   9.629
    1AU    AUSL   90   6.088   6.164   6.792
    1AU    AUSL   91   6.414   6.031   6.480
    1AU     AUL   92   6.382   5.885   6.787
    1AU       S   93   6.106   6.189   6.997
    1AU     LIG   94   6.164   6.543   7.303
    1AU     LIG   95   6.353   6.612   7.738
    1AU     LIG   96   6.445   6.668   8.209
    1AU     LIG   97   6.515   6.786   8.684
    1AU     LIG   98   6.641   6.851   9.159
    1AU     LIG   99   6.597   6.822   9.637
    1AU       S  100   6.700   6.093   6.524
    1AU     LIG  101   7.008   6.114   6.857
    1AU     LIG  102   7.182   6.385   7.198
    1AU     LIG  103   7.432   6.677   7.486
    1AU     LIG  104   7.734   6.782   7.853
    1AU     LIG  105   8.158   6.844   8.106
    1AU     LIG  106   8.545   6.992   8.366
    1AU    AUSL  107   6.258   5.905   5.391
    1AU    AUSL  108   6.072   6.303   5.351
    1AU     AUL  109   6.287   6.154   5.093
    1AU       S  110   6.276   5.739   4.846
    1AU     LIG  111   6.657   5.775   4.631
    1AU     LIG  112   6.857   5.537   4.300
    1AU     LIG  113   6.943   5.442   3.852
    1AU     LIG  114   7.338   5.458   3.577
    1AU     LIG  115   7.645   5.686   3.296
    1AU     LIG  116   7.826   5.748   2.850
    1AU       S  117   6.525   6.523   5.250
    1AU     LIG  118   6.767   6.615   4.897
    1AU     LIG  119   7.015   6.786   4.544
    1AU     LIG  120   7.134   6.876   4.116
    1AU     LIG  121   7.291   7.165   3.800
    1AU     LIG  122   7.528   7.546   3.692
    1AU     LIG  123   7.536   7.998   3.539
    1AU    AUSL  124   6.011   5.605   5.211
    1AU    AUSL  125   6.358   5.519   5.498
    1AU     AUL  126   6.463   5.704   5.261
    1AU       S  127   6.410   5.228   5.281
    1AU     LIG  128   6.639   4.915   5.018
    1AU     LIG  129   6.881   4.549   4.810
    1AU     LIG  130   7.118   4.335   4.447
    1AU     LIG  131   7.502   4.392   4.146
    1AU     LIG  132   7.866   4.465   3.838
    1AU     LIG  133   8.241   4.291   3.602
    1AU       S  134   6.111   5.505   4.964
    1AU     LIG  135   5.866   5.225   4.688
    1AU     LIG  136   5.990   5.128   4.223
    1AU     LIG  137   6.178   5.082   3.758
    1AU     LIG  138   6.289   4.999   3.282
    1AU     LIG  139   6.402   5.010   2.801
    1AU     LIG  140   6.634   5.002   2.364
    1AU    AUSL  141   5.845   5.964   5.393
    1AU    AUSL  142   5.607   5.697   5.167
    1AU     AUL  143   5.894   5.931   5.032
    1AU       S  144   5.536   5.742   4.807
    1AU     LIG  145   5.486   5.485   4.430
    1AU     LIG  146   5.255   5.223   4.090
    1AU     LIG  147   5.072   4.911   3.749
    1AU     LIG  148   4.995   4.762   3.289
    1AU     LIG  149   4.803   4.906   2.871
    1AU     LIG  150   4.672   5.125   2.455
    1AU       S  151   6.040   5.503   5.083
    1AU     LIG  152   6.349   5.333   4.585
    1AU     LIG  153   6.406   5.425   4.086
    1AU     LIG  154   6.462   5.500   3.595
    1AU     LIG  155   6.505   5.776   3.185
    1AU     LIG  156   6.711   6.141   2.929
    1AU     LIG  157   6.841   6.367   2.530
    1AU    AUSL  158   5.304   5.932   6.734
    1AU    AUSL  159   5.452   6.341   6.644
    1AU     AUL  160   5.507   6.254   6.938
    1AU       S  161   5.228   5.948   7.165
    1AU     LIG  162   4.898   5.679   7.360
    1AU     LIG  163   4.756   5.458   7.765
    1AU     LIG  164   4.524   5.339   8.182
    1AU     LIG  165   4.192   5.304   8.552
    1AU     LIG  166   3.980   5.460   8.969
    1AU     LIG  167   3.624   5.742   9.165
    1AU       S  168   5.061   6.335   6.863
    1AU     LIG  169   5.035   6.525   7.297
    1AU     LIG  170   4.898   6.806   7.676
    1AU     LIG  171   4.805   6.953   8.128
    1AU     LIG  172   4.774   7.294   8.466
    1AU     LIG  173   4.573   7.665   8.700
    1AU     LIG  174   4.318   8.071   8.791
    1AU    AUSL  175   5.602   5.726   6.531
    1AU    AUSL  176   5.075   5.662   6.516
    1AU     AUL  177   5.110   5.771   6.754
    1AU       S  178   4.907   5.339   6.724
    1AU     LIG  179   4.479   5.122   6.602
    1AU     LIG  180   4.090   4.897   6.755
    1AU     LIG  181   3.885   4.622   7.072
    1AU     LIG  182   3.710   4.326   7.388
    1AU     LIG  183   3.429   4.156   7.718
    1AU     LIG  184   3.137   4.275   8.081
    1AU       S  185   5.403   5.641   7.101
    1AU     LIG  186   5.311   5.273   7.332
    1AU     LIG  187   5.199   5.187   7.778
    1AU     LIG  188   5.003   5.129   8.206
    1AU     LIG  189   4.866   4.889   8.603
    1AU     LIG  190   4.847   4.742   9.059
    1AU     LIG  191   4.732   4.905   9.479
    1AU    AUSL  192   5.341   5.824   5.464
    1AU    AUSL  193   5.494   5.408   5.437
    1AU     AUL  194   5.317   5.515   5.150
    1AU       S  195   5.291   5.865   4.843
    1AU     LIG  196   5.019   5.675   4.527
    1AU     LIG  197   4.802   5.463   4.149
    1AU     LIG  198   4.611   5.208   3.781
    1AU     LIG  199   4.244   5.114   3.468
    1AU     LIG  200   3.960   5.207   3.089
    1AU     LIG  201   3.805   5.540   2.770
    1AU       S  202   5.034   5.121   5.282
    1AU     LIG  203   4.891   4.695   5.288
    1AU     LIG  204   4.497   4.479   5.123
    1AU     LIG  205   4.202   4.299   4.776
    1AU     LIG  206   4.188   4.101   4.326
    1AU     LIG  207   4.300   3.809   3.935
    1AU     LIG  208   4.145   3.486   3.607
    1AU    AUSL  209   5.510   6.119   5.192
    1AU    AUSL  210   5.110   6.170   5.468
    1AU     AUL  211   5.096   5.934   5.247
    1AU       S  212   5.095   6.402   5.261
    1AU     LIG  213   4.753   6.542   4.963
    1AU     LIG  214   4.558   6.674   4.529
    1AU     LIG  215   4.457   6.843   4.087
    1AU     LIG  216   4.122   6.998   3.790
    1AU     LIG  217   3.671   7.124   3.740
    1AU     LIG  218   3.447   7.505   3.575
    1AU       S  219   5.450   6.058   4.949
    1AU     LIG  220   5.412   6.037   4.415
    1AU     LIG  221   5.225   5.773   4.052
    1AU     LIG  222   5.096   5.819   3.588
    1AU     LIG  223   5.154   6.034   3.149
    1AU     LIG  224   5.128   6.212   2.694
    1AU     LIG  225   4.900   6.306   2.280
    1AU    AUSL  226   6.374   6.481   5.954
    1AU    AUSL  227   6.409   6.228   5.607
    1AU     AUL  228   6.490   6.682   5.729
    1AU       S  229   6.646   6.230   5.391
    1AU     LIG  230   6.940   6.154   5.058
    1AU     LIG  231   7.198   6.333   4.703
    1AU     LIG  232   7.476   6.561   4.381
    1AU     LIG  233   7.906   6.565   4.153
    1AU     LIG  234   8.280   6.812   3.992
    1AU     LIG  235   8.448   7.034   3.592
    1AU       S  236   6.821   6.371   5.873
    1AU     LIG  237   7.278   6.479   5.998
    1AU     LIG  238   7.783   6.542   6.014
    1AU     LIG  239   8.276   6.618   5.988
    1AU     LIG  240   8.666   6.945   6.002
    1AU     LIG  241   8.993   7.329   6.006
    1AU     LIG  242   9.220   7.735   6.167
    1AU    AUSL  243   6.596   5.889   5.741
    1AU    AUSL  244   6.585   5.733   6.159
    1AU     AUL  245   6.864   5.665   5.931
    1AU       S  246   6.819   6.118   5.834
    1AU     LIG  247   7.245   6.131   5.636
    1AU     LIG  248   7.749   6.127   5.714
    1AU     LIG  249   8.259   6.153   5.696
    1AU     LIG  250   8.754   6.081   5.664
    1AU     LIG  251   9.198   6.279   5.664
    1AU     LIG  252   9.569   6.574   5.487
    1AU       S  253   6.875   5.251   6.183
    1AU     LIG  254   7.102   4.876   6.278
    1AU     LIG  255   7.552   4.703   6.287
    1AU     LIG  256   8.020   4.575   6.254
    1AU     LIG  257   8.475   4.423   6.236
    1AU     LIG  258   8.868   4.341   6.469
    1AU     LIG  259   9.196   4.426   6.809
    1AU    AUSL  260   6.381   6.078   6.067
    1AU    AUSL  261   6.273   6.406   6.355
    1AU     AUL  262   6.520   6.414   6.227
    1AU       S  263   6.585   6.298   6.655
    1AU     LIG  264   6.928   6.614   6.766
    1AU     LIG  265   7.160   6.889   7.090
    1AU     LIG  266   7.475   7.203   7.288
    1AU     LIG  267   7.700   7.652   7.278
    1AU     LIG  268   7.881   8.109   7.350
    1AU     LIG  269   8.138   8.457   7.562
    1AU       S  270   6.837   6.136   6.060
    1AU     LIG  271   7.180   6.102   6.330
    1AU     LIG  272   7.654   6.095   6.236
    1AU     LIG  273   8.143   6.148   6.190
    1AU     LIG  274   8.640   6.191   6.151
    1AU     LIG  275   9.125   6.315   6.187
    1AU     LIG  276   9.474   6.590   6.391
    1AU    AUSL  277   5.091   6.434   6.098
    1AU    AUSL  278   5.143   6.157   6.428
    1AU     AUL  279   5.108   6.610   6.360
    1AU       S  280   4.944   6.229   6.624
    1AU     LIG  281   4.638   6.227   7.047
    1AU     LIG  282   4.530   6.544   7.413
    1AU     LIG  283   4.399   6.704   7.872
    1AU     LIG  284   4.048   6.811   8.222
    1AU     LIG  285   3.604   7.012   8.352
    1AU     LIG  286   3.225   7.256   8.543
    1AU       S  287   4.726   6.470   6.153
    1AU     LIG  288   4.568   6.923   6.038
    1AU     LIG  289   4.358   7.384   6.118
    1AU     LIG  290   4.029   7.756   6.187
    1AU     LIG  291   3.563   7.899   6.065
    1AU     LIG  292   3.116   8.126   6.137
    1AU     LIG  293   2.696   8.149   6.420
    1AU    AUSL  294   5.168   6.097   5.867
    1AU    AUSL  295   5.259   6.512   5.720
    1AU     AUL  296   4.986   6.433   5.738
    1AU       S  297   4.602   6.382   6.003
    1AU     LIG  298   4.362   6.612   5.655
    1AU     LIG  299   3.969   6.754   5.393
    1AU     LIG  300   3.486   6.809   5.285
    1AU     LIG  301   3.027   6.952   5.194
    1AU     LIG  302   2.576   6.758   5.206
    1AU     LIG  303   2.116   6.899   5.113
    1AU       S  304   5.084   6.690   5.354
    1AU     LIG  305   4.994   6.996   5.014
    1AU     LIG  306   4.923   7.394   4.770
    1AU     LIG  307   4.561   7.690   4.799
    1AU     LIG  308   4.445   8.091   4.583
    1AU     LIG  309   4.178   8.416   4.382
    1AU     LIG  310   3.823   8.728   4.332
    1AU    AUSL  311   4.876   6.015   6.159
    1AU    AUSL  312   4.927   5.771   5.800
    1AU     AUL  313   4.771   6.029   5.769
    1AU       S  314   4.573   5.575   5.930
    1AU     LIG  315   4.233   5.478   6.279
    1AU     LIG  316   3.742   5.403   6.269
    1AU     LIG  317   3.295   5.250   6.146
    1AU     LIG  318   2.884   5.052   5.906
    1AU     LIG  319   2.387   4.984   5.907
    1AU     LIG  320   1.979   4.922   5.648
    1AU       S  321   4.687   6.078   6.243
    1AU     LIG  322   4.465   6.362   6.570
    1AU     LIG  323   4.051   6.550   6.743
    1AU     LIG  324   3.572   6.681   6.776
    1AU     LIG  325   3.103   6.826   6.812
    1AU     LIG  326   2.687   7.045   6.878
    1AU     LIG  327   2.257   6.888   6.807
    1AU    AUSL  328   6.431   5.340   6.072
    1AU    AUSL  329   6.382   5.546   6.462
    1AU     AUL  330   6.683   5.596   6.417
    1AU       S  331   6.581   5.069   6.036
    1AU     LIG  332   6.746   4.676   5.936
    1AU     LIG  333   7.191   4.478   5.958
    1AU     LIG  334   7.659   4.319   5.954
    1AU     LIG  335   8.118   4.146   5.965
    1AU     LIG  336   8.491   3.906   6.163
    1AU     LIG  337   8.855   3.823   6.503
    1AU       S  338   6.398   5.230   6.524
    1AU     LIG  339   6.799   4.981   6.680
    1AU     LIG  340   6.942   4.644   7.008
    1AU     LIG  341   7.106   4.385   7.397
    1AU     LIG  342   7.423   4.268   7.768
    1AU     LIG  343   7.785   4.231   8.115
    1AU     LIG  344   8.200   4.226   8.381
    1AU    AUSL  345   6.277   5.675   5.871
    1AU    AUSL  346   6.200   5.215   5.751
    1AU     AUL  347   6.542   5.411   5.698
    1AU       S  348   6.639   5.245   6.101
    1AU     LIG  349   7.065   5.034   5.792
    1AU     LIG  350   7.530   4.828   5.784
    1AU     LIG  351   7.998   4.651   5.749
    1AU     LIG  352   8.444   4.457   5.712
    1AU     LIG  353   8.842   4.434   5.471
    1AU     LIG  354   9.222   4.680   5.520
    1AU       S  355   6.419   5.005   5.497
    1AU     LIG  356   6.443   4.574   5.350
    1AU     LIG  357   6.652   4.198   5.121
    1AU     LIG  358   6.862   3.812   4.908
    1AU     LIG  359   7.073   3.353   4.879
    1AU     LIG  360   7.493   3.127   4.776
    1AU     LIG  361   7.974   3.124   4.665
    1AU    AUSL  362   5.016   5.386   5.979
    1AU    AUSL  363   5.106   5.496   5.556
    1AU     AUL  364   4.838   5.600   5.538
    1AU       S  365   4.998   5.166   5.530
    1AU     LIG  366   4.535   5.051   5.422
    1AU     LIG  367   4.178   4.890   5.150
    1AU     LIG  368   3.872   4.690   4.865
    1AU     LIG  369   3.727   4.405   4.533
    1AU     LIG  370   3.387   4.408   4.204
    1AU     LIG  371   3.125   4.391   3.806
    1AU       S  372   4.724   5.362   5.918
    1AU     LIG  373   4.413   5.069   6.032
    1AU     LIG  374   4.033   4.985   6.256
    1AU     LIG  375   3.580   4.850   6.298
    1AU     LIG  376   3.116   4.705   6.212
    1AU     LIG  377   2.710   4.436   6.103
    1AU     LIG  378   2.502   4.032   5.952
    1AU    AUSL  379   5.188   5.748   6.137
    1AU    AUSL  380   5.271   5.351   6.311
    1AU     AUL  381   4.894   5.544   6.305
    1AU       S  382   4.990   5.160   6.532
    1AU     LIG  383   4.794   4.841   6.310
    1AU     LIG  384   4.383   4.630   6.414
    1AU     LIG  385   4.091   4.351   6.690
    1AU     LIG  386   3.835   4.042   6.980
    1AU     LIG  387   3.616   3.727   7.290
    1AU     LIG  388   3.462   3.263   7.372
    1AU       S  389   4.612   5.649   5.971
    1AU     LIG  390   4.097   5.607   5.812
    1AU     LIG  391   3.584   5.597   5.813
    1AU     LIG  392   3.096   5.531   5.778
    1AU     LIG  393   2.833   5.465   6.174
    1AU     LIG  394   2.380   5.335   6.304
    1AU     LIG  395   1.953   5.210   6.499
    1AU    AUSL  396   5.803   6.541   6.545
    1AU    AUSL  397   5.469   6.332   6.231
    1AU     AUL  398   5.504   6.628   6.629
    1AU       S  399   5.108   6.451   6.782
    1AU     LIG  400   4.743   6.724   6.926
    1AU     LIG  401   4.691   7.073   7.265
    1AU     LIG  402   4.673   7.561   7.403
    1AU     LIG  403   4.567   8.054   7.432
    1AU     LIG  404   4.285   8.446   7.502
    1AU     LIG  405   3.848   8.575   7.650
    1AU       S  406   5.864   6.928   6.517
    1AU     LIG  407   6.019   7.126   6.882
    1AU     LIG  408   6.067   7.558   7.046
    1AU     LIG  409   6.102   7.882   7.396
    1AU     LIG  410   6.079   8.159   7.794
    1AU     LIG  411   5.928   8.504   8.096
    1AU     LIG  412   5.865   8.963   8.214
    1AU    AUSL  413   5.549   6.728   6.190
    1AU    AUSL  414   6.004   6.698   5.761
    1AU     AUL  415   5.679   6.970   5.941
    1AU       S  416   5.710   7.001   6.397
    1AU     LIG  417   5.807   7.445   6.542
    1AU     LIG  418   5.763   7.870   6.741
    1AU     LIG  419   5.510   8.271   6.801
    1AU     LIG  420   5.389   8.735   6.893
    1AU     LIG  421   5.320   9.214   7.014
    1AU     LIG  422   5.162   9.657   7.121
    1AU       S  423   6.067   6.978   5.662
    1AU     LIG  424   6.314   7.354   5.621
    1AU     LIG  425   6.436   7.749   5.364
    1AU     LIG  426   6.747   8.139   5.269
    1AU     LIG  427   6.857   8.618   5.240
    1AU     LIG  428   6.886   9.094   5.200
    1AU     LIG  429   6.861   9.567   5.117
    1AU    AUSL  430   5.953   6.571   6.156
    1AU    AUSL  431   5.933   6.176   6.417
    1AU     AUL  432   6.131   6.560   6.561
    1AU       S  433   6.508   6.336   6.744
    1AU     LIG  434   6.656   6.431   7.167
    1AU     LIG  435   6.889   6.691   7.508
    1AU     LIG  436   7.156   6.884   7.875
    1AU     LIG  437   7.250   7.125   8.292
    1AU     LIG  438   7.299   7.530   8.565
    1AU     LIG  439   7.444   7.868   8.884
    1AU       S  440   6.038   6.864   6.223
    1AU     LIG  441   6.257   7.230   6.411
    1AU     LIG  442   6.337   7.685   6.608
    1AU     LIG  443   6.644   8.105   6.665
    1AU     LIG  444   6.807   8.587   6.732
    1AU     LIG  445   6.669   9.051   6.727
    1AU     LIG  446   6.725   9.524   6.834
    1AU    AUSL  447   5.697   5.287   6.429
    1AU    AUSL  448   6.058   5.414   6.228
    1AU     AUL  449   5.884   5.165   6.683
    1AU       S  450   5.764   4.744   6.545
    1AU     LIG  451   5.665   4.373   6.804
    1AU     LIG  452   5.355   4.042   6.859
    1AU     LIG  453   5.305   3.585   6.894
    1AU     LIG  454   5.337   3.243   7.228
    1AU     LIG  455   5.387   3.052   7.675
    1AU     LIG  456   5.511   2.756   8.035
    1AU       S  457   6.336   5.057   6.443
    1AU     LIG  458   6.509   4.654   6.394
    1AU     LIG  459   6.685   4.323   6.696
    1AU     LIG  460   6.919   4.053   7.040
    1AU     LIG  461   7.201   3.696   7.259
    1AU     LIG  462   7.511   3.294   7.348
    1AU     LIG  463   7.916   3.011   7.386
    1AU    AUSL  464   5.508   5.056   6.144
    1AU    AUSL  465   5.415   5.411   6.708
    1AU     AUL  466   5.436   5.075   6.510
    1AU       S  467   5.590   4.657   6.404
    1AU     LIG  468   5.358   4.279   6.380
    1AU     LIG  469   5.202   3.829   6.415
    1AU     LIG  470   4.976   3.428   6.511
    1AU     LIG  471   4.731   3.025   6.536
    1AU     LIG  472   4.630   2.641   6.772
    1AU     LIG  473   4.671   2.200   6.857
    1AU       S  474   5.152   5.285   6.805
    1AU     LIG  475   4.856   4.877   6.909
    1AU     LIG  476   4.463   4.605   6.957
    1AU     LIG  477   4.231   4.269   7.214
    1AU     LIG  478   4.035   3.946   7.512
    1AU     LIG  479   4.026   3.694   7.924
    1AU     LIG  480   4.038   3.617   8.396
    1AU    AUSL  481   5.953   5.017   6.199
    1AU    AUSL  482   5.470   5.056   5.727
    1AU     AUL  483   5.655   4.813   5.984
    1AU       S  484   5.392   4.727   5.598
    1AU     LIG  485   5.140   4.366   5.604
    1AU     LIG  486   5.071   3.892   5.567
    1AU     LIG  487   5.063   3.421   5.464
    1AU     LIG  488   4.811   3.003   5.393
    1AU     LIG  489   4.693   2.535   5.297
    1AU     LIG  490   4.708   2.175   4.983
    1AU       S  491   5.911   4.819   6.361
    1AU     LIG  492   5.952   4.316   6.367
    1AU     LIG  493   5.713   3.912   6.503
    1AU     LIG  494   5.668   3.427   6.539
    1AU     LIG  495   5.906   2.981   6.526
    1AU     LIG  496   6.090   2.570   6.714
    1AU     LIG  497   6.279   2.195   6.928
    1AU    AUSL  498   5.736   6.523   5.447
    1AU    AUSL  499   6.048   6.290   5.785
    1AU     AUL  500   6.108   6.564   5.455
    1AU       S  501   5.793   6.870   5.302
    1AU     LIG  502   6.124   7.075   5.060
    1AU     LIG  503   6.156   7.505   4.864
    1AU     LIG  504   6.086   7.766   4.456
    1AU     LIG  505   6.014   8.100   4.110
    1AU     LIG  506   5.989   8.551   3.943
    1AU     LIG  507   6.054   8.885   3.602
    1AU       S  508   6.522   6.301   5.488
    1AU     LIG  509   7.013   6.541   5.387
    1AU     LIG  510   7.250   6.754   5.016
    1AU     LIG  511   7.422   7.113   4.731
    1AU     LIG  512   7.637   7.569   4.696
    1AU     LIG  513   7.827   8.012   4.579
    1AU     LIG  514   7.817   8.428   4.323
    1AU    AUSL  515   5.647   6.505   5.859
    1AU    AUSL  516   5.516   6.211   5.587
    1AU     AUL  517   5.480   6.696   5.608
    1AU       S  518   5.873   6.967   5.531
    1AU     LIG  519   5.887   7.415   5.350
    1AU     LIG  520   5.937   7.878   5.180
    1AU     LIG  521   5.796   8.355   5.095
    1AU     LIG  522   5.482   8.748   5.001
    1AU     LIG  523   5.413   9.233   4.855
    1AU     LIG  524   4.965   9.408   4.763
    1AU       S  525   5.310   6.530   5.211
    1AU     LIG  526   5.226   6.598   4.777
    1AU     LIG  527   5.004   6.917   4.474
    1AU     LIG  528   4.943   7.002   3.992
    1AU     LIG  529   4.949   7.324   3.631
    1AU     LIG  530   4.669   7.673   3.456
    1AU     LIG  531   4.436   8.050   3.248
    1AU    AUSL  532   5.820   5.158   5.466
    1AU    AUSL  533   5.403   5.439   5.850
    1AU     AUL  534   5.460   5.155   5.434
    1AU       S  535   5.019   5.044   5.664
    1AU     LIG  536   4.725   4.746   5.780
    1AU     LIG  537   4.291   4.621   5.587
    1AU     LIG  538   3.999   4.388   5.262
    1AU     LIG  539   3.733   4.087   4.973
    1AU     LIG  540   3.445   3.668   4.894
    1AU     LIG  541   3.261   3.335   4.603
    1AU       S  542   5.721   4.789   5.367
    1AU     LIG  543   5.384   4.560   5.130
    1AU     LIG  544   5.255   4.123   5.147
    1AU     LIG  545   5.284   3.663   5.065
    1AU     LIG  546   5.381   3.297   4.788
    1AU     LIG  547   5.375   3.117   4.337
    1AU     LIG  548   5.476   2.835   3.969
    1AU    AUSL  549   5.811   5.238   5.886
    1AU    AUSL  550   5.938   5.523   5.599
    1AU     AUL  551   5.993   5.003   5.687
    1AU       S  552   5.633   4.729   5.544
    1AU     LIG  553   5.639   4.275   5.489
    1AU     LIG  554   5.569   3.807   5.464
    1AU     LIG  555   5.631   3.341   5.357
    1AU     LIG  556   5.970   2.970   5.410
    1AU     LIG  557   6.274   2.599   5.324
    1AU     LIG  558   6.500   2.211   5.122
    1AU       S  559   6.235   5.121   5.282
    1AU     LIG  560   6.130   4.829   4.999
    1AU     LIG  561   6.366   4.486   4.801
    1AU     LIG  562   6.625   4.161   4.566
    1AU     LIG  563   6.738   3.935   4.161
    1AU     LIG  564   6.924   3.725   3.783
    1AU     LIG  565   7.221   3.574   3.459
    2POPC   NC3  566   1.386   2.488   7.912
    2POPC   PO4  567   1.143   3.064   8.139
    2POPC   GL1  568   1.221   2.967   7.718
    2POPC   GL2  569   0.889   2.812   7.676
    2POPC   C1A  570   1.273   2.705   7.318
    2POPC   D2A  571   1.482   2.690   6.945
    2POPC   C3A  572   1.360   2.746   6.538
    2POPC   C4A  573   1.661   2.980   6.301
    2POPC   C1B  574   0.915   3.057   7.287
    2POPC   C2B  575   1.022   3.035   6.856
    2POPC   C3B  576   0.866   2.870   6.467
    2POPC   C4B  577   1.117   2.772   6.079
    3POPC   NC3  578   2.746   1.955   8.097
    3POPC   PO4  579   3.229   2.306   7.726
    3POPC   GL1  580   3.006   1.911   7.622
    3POPC   GL2  581   2.667   1.743   7.637
    3POPC   C1A  582   2.992   1.896   7.216
    3POPC   D2A  583   3.025   2.061   6.838
    3POPC   C3A  584   3.043   1.868   6.492
    3POPC   C4A  585   3.072   1.954   6.107
    3POPC   C1B  586   2.506   2.022   7.329
    3POPC   C2B  587   2.519   2.126   6.898
    3POPC   C3B  588   2.529   2.024   6.470
    3POPC   C4B  589   2.613   2.136   6.023
    4POPC   NC3  590   8.552   5.203   8.178
    4POPC   PO4  591   9.047   5.448   8.249
    4POPC   GL1  592   8.932   5.272   7.810
    4POPC   GL2  593   8.959   4.916   7.675
    4POPC   C1A  594   8.947   5.292   7.316
    4POPC   D2A  595   9.179   5.207   6.892
    4POPC   C3A  596   9.020   5.262   6.437
    4POPC   C4A  597   8.749   5.282   6.056
    4POPC   C1B  598   8.996   4.793   7.186
    4POPC   C2B  599   8.873   4.827   6.719
    4POPC   C3B  600   8.835   4.808   6.267
    4POPC   C4B  601   8.920   4.498   5.967
    5POPC   NC3  602   1.400   0.509   8.073
    5POPC   PO4  603   0.835   0.806   7.971
    5POPC   GL1  604   0.977   0.406   7.729
    5POPC   GL2  605   1.250   0.137   7.763
    5POPC   C1A  606   0.896   0.304   7.289
    5POPC   D2A  607   0.826   0.514   6.894
    5POPC   C3A  608   0.834   0.190   6.596
    5POPC   C4A  609   0.861  11.485   6.228
    5POPC   C1B  610   1.411   0.372   7.391
    5POPC   C2B  611   1.338   0.544   6.964
    5POPC   C3B  612   1.228   0.505   6.525
    5POPC   C4B  613   1.276   0.272   6.160
    6POPC   NC3  614   8.004   2.522   7.984
    6POPC   PO4  615   7.626   3.088   7.988
    6POPC   GL1  616   7.502   2.797   7.642
    6POPC   GL2  617   7.146   2.695   7.698
    6POPC   C1A  618   7.506   2.766   7.169
    6POPC   D2A  619   7.369   2.875   6.726
    6POPC   C3A  620   7.594   2.777   6.322
    6POPC   C4A  621   7.644   2.915   5.873
    6POPC   C1B  622   7.188   2.417   7.364
    6POPC   C2B  623   7.187   2.411   6.907
    6POPC   C3B  624   7.102   2.511   6.460
    6POPC   C4B  625   7.270   2.481   6.046
    7POPC   NC3  626   2.110   5.671   8.155
    7POPC   PO4  627   1.633   6.099   8.058
    7POPC   GL1  628   1.631   5.945   7.669
    7POPC   GL2  629   1.990   5.922   7.648
    7POPC   C1A  630   1.636   6.115   7.250
    7POPC   D2A  631   1.844   6.018   6.886
    7POPC   C3A  632   1.687   6.053   6.462
    7POPC   C4A  633   1.717   5.690   6.226
    7POPC   C1B  634   1.834   5.646   7.312
    7POPC   C2B  635   1.987   5.523   6.914
    7POPC   C3B  636   2.096   5.732   6.537
    7POPC   C4B  637   2.182   5.765   6.067
    8POPC   NC3  638   0.375   5.413   8.147
    8POPC   PO4  639   0.038   4.838   8.133
    8POPC   GL1  640   0.203   4.979   7.799
    8POPC   GL2  641   0.539   5.014   7.862
    8POPC   C1A  642   0.088   4.825   7.368
    8POPC   D2A  643   0.178   4.641   6.957
    8POPC   C3A  644   0.012   4.791   6.581
    8POPC   C4A  645   0.217   4.861   6.228
    8POPC   C1B  646   0.526   5.147   7.453
    8POPC   C2B  647   0.490   5.040   7.029
    8POPC   C3B  648   0.449   5.154   6.566
    8POPC   C4B  649   0.625   5.160   6.145
    9POPC   NC3  650  11.173   5.262   8.129
    9POPC   PO4  651  10.988   4.731   8.366
    9POPC   GL1  652  11.074   4.825   7.845
    9POPC   GL2  653  11.247   5.127   7.669
    9POPC   C1A  654  11.039   4.839   7.355
    9POPC   D2A  655  11.024   5.108   6.970
    9POPC   C3A  656  10.977   4.930   6.570
    9POPC   C4A  657  11.091   4.832   6.172
    9POPC   C1B  658  11.393   5.294   7.285
    9POPC   C2B  659   0.038   5.211   6.861
    9POPC   C3B  660  11.420   5.273   6.382
    9POPC   C4B  661  11.181   5.298   5.957
   10POPC   NC3  662  11.381   8.193   7.915
   10POPC   PO4  663  10.666   8.336   8.057
   10POPC   GL1  664  10.952   8.317   7.643
   10POPC   GL2  665  11.324   8.400   7.480
   10POPC   C1A  666  10.900   8.356   7.191
   10POPC   D2A  667  10.886   8.489   6.791
   10POPC   C3A  668  11.032   8.179   6.579
   10POPC   C4A  669  10.989   8.037   6.198
   10POPC   C1B  670  11.351   8.020   7.255
   10POPC   C2B  671  11.444   8.110   6.854
   10POPC   C3B  672  11.480   7.990   6.463
   10POPC   C4B  673  11.409   8.299   6.177
   11POPC   NC3  674   3.540   2.429   8.045
   11POPC   PO4  675   4.197   2.536   8.289
   11POPC   GL1  676   3.960   2.516   7.796
   11POPC   GL2  677   3.612   2.739   7.644
   11POPC   C1A  678   3.837   2.410   7.354
   11POPC   D2A  679   3.669   2.664   7.075
   11POPC   C3A  680   3.783   2.546   6.692
   11POPC   C4A  681   3.735   2.808   6.370
   11POPC   C1B  682   3.224   2.797   7.310
   11POPC   C2B  683   3.073   2.947   6.890
   11POPC   C3B  684   3.197   2.846   6.448
   11POPC   C4B  685   3.407   3.161   6.188
   12POPC   NC3  686   4.803   7.990   8.045
   12POPC   PO4  687   5.158   7.579   7.955
   12POPC   GL1  688   5.048   7.878   7.594
   12POPC   GL2  689   5.114   8.219   7.691
   12POPC   C1A  690   4.958   7.906   7.121
   12POPC   D2A  691   5.130   7.903   6.681
   12POPC   C3A  692   4.803   7.954   6.344
   12POPC   C4A  693   4.428   8.083   6.084
   12POPC   C1B  694   5.219   8.317   7.245
   12POPC   C2B  695   5.010   8.387   6.826
   12POPC   C3B  696   5.184   8.316   6.377
   12POPC   C4B  697   5.253   7.951   6.086
   13POPC   NC3  698   8.462   0.943   7.987
   13POPC   PO4  699   7.757   1.072   8.134
   13POPC   GL1  700   8.009   1.105   7.753
   13POPC   GL2  701   7.832   1.343   7.521
   13POPC   C1A  702   8.099   0.922   7.346
   13POPC   D2A  703   7.948   1.039   6.917
   13POPC   C3A  704   8.237   0.963   6.583
   13POPC   C4A  705   8.285   1.100   6.169
   13POPC   C1B  706   8.177   1.418   7.203
   13POPC   C2B  707   8.223   1.463   6.765
   13POPC   C3B  708   7.926   1.354   6.441
   13POPC   C4B  709   7.775   1.649   6.132
   14POPC   NC3  710   1.115   9.558   8.092
   14POPC   PO4  711   0.856  10.178   8.118
   14POPC   GL1  712   1.034   9.929   7.749
   14POPC   GL2  713   1.408   9.859   7.760
   14POPC   C1A  714   0.873   9.921   7.330
   14POPC   D2A  715   1.140   9.918   6.961
   14POPC   C3A  716   1.098   9.639   6.601
   14POPC   C4A  717   1.141   9.873   6.236
   14POPC   C1B  718   1.312   9.646   7.378
   14POPC   C2B  719   1.503   9.536   6.982
   14POPC   C3B  720   1.611   9.639   6.597
   14POPC   C4B  721   1.476   9.496   6.200
   15POPC   NC3  722   1.268  10.542   8.180
   15POPC   PO4  723   0.729  10.680   7.824
   15POPC   GL1  724   0.976  10.422   7.641
   15POPC   GL2  725   1.340  10.394   7.686
   15POPC   C1A  726   1.066  10.381   7.229
   15POPC   D2A  727   1.306  10.491   6.899
   15POPC   C3A  728   1.141  10.281   6.560
   15POPC   C4A  729   0.912  10.328   6.189
   15POPC   C1B  730   1.555  10.238   7.300
   15POPC   C2B  731   1.616  10.067   6.870
   15POPC   C3B  732   1.619  10.123   6.411
   15POPC   C4B  733   1.409  10.340   6.097
   16POPC   NC3  734   3.603   9.373   8.259
   16POPC   PO4  735   3.068   9.216   7.987
   16POPC   GL1  736   3.432   9.465   7.765
   16POPC   GL2  737   3.662   9.766   7.820
   16POPC   C1A  738   3.450   9.557   7.316
   16POPC   D2A  739   3.327   9.728   6.904
   16POPC   C3A  740   3.296   9.536   6.465
   16POPC   C4A  741   3.200   9.515   6.022
   16POPC   C1B  742   3.729   9.979   7.384
   16POPC   C2B  743   3.820   9.942   6.912
   16POPC   C3B  744   3.782   9.735   6.474
   16POPC   C4B  745   3.672   9.731   6.011
   17POPC   NC3  746  10.466   1.257   8.321
   17POPC   PO4  747  10.369   1.762   7.925
   17POPC   GL1  748  10.297   1.483   7.624
   17POPC   GL2  749  10.378   1.147   7.733
   17POPC   C1A  750  10.537   1.329   7.260
   17POPC   D2A  751  10.688   1.215   6.861
   17POPC   C3A  752  10.631   1.570   6.629
   17POPC   C4A  753  10.530   1.575   6.223
   17POPC   C1B  754  10.075   1.113   7.361
   17POPC   C2B  755  10.203   1.061   6.943
   17POPC   C3B  756  10.242   1.223   6.532
   17POPC   C4B  757  10.238   1.064   6.093
   18POPC   NC3  758   3.821  11.332   8.158
   18POPC   PO4  759   3.282   0.051   7.844
   18POPC   GL1  760   3.634  11.396   7.677
   18POPC   GL2  761   3.558  11.055   7.685
   18POPC   C1A  762   3.764  11.343   7.272
   18POPC   D2A  763   3.725  11.046   6.946
   18POPC   C3A  764   3.683  11.198   6.573
   18POPC   C4A  765   3.728   0.018   6.291
   18POPC   C1B  766   3.300  11.077   7.288
   18POPC   C2B  767   3.235  10.922   6.851
   18POPC   C3B  768   3.268  10.996   6.396
   18POPC   C4B  769   3.592  11.000   6.075
   19POPC   NC3  770  11.328   6.249   8.098
   19POPC   PO4  771  11.254   6.906   7.957
   19POPC   GL1  772  11.243   6.694   7.607
   19POPC   GL2  773  11.271   6.335   7.608
   19POPC   C1A  774  11.179   6.832   7.193
   19POPC   D2A  775  11.108   7.003   6.778
   19POPC   C3A  776  11.213   6.807   6.329
   19POPC   C4A  777  10.894   6.957   5.950
   19POPC   C1B  778  11.226   6.334   7.189
   19POPC   C2B  779  11.038   6.503   6.825
   19POPC   C3B  780  11.054   6.313   6.449
   19POPC   C4B  781  11.464   6.231   6.274
   20POPC   NC3  782  10.385   0.268   8.443
   20POPC   PO4  783  10.908   0.135   8.075
   20POPC   GL1  784  10.677   0.275   7.698
   20POPC   GL2  785  10.304   0.350   7.721
   20POPC   C1A  786  10.519   0.226   7.249
   20POPC   D2A  787  10.491  11.490   6.872
   20POPC   C3A  788  10.553   0.257   6.533
   20POPC   C4A  789  10.693   0.184   6.115
   20POPC   C1B  790  10.357   0.682   7.369
   20POPC   C2B  791  10.479   0.636   6.912
   20POPC   C3B  792  10.273   0.701   6.503
   20POPC   C4B  793  10.220   0.413   6.179
   21POPC   NC3  794   6.948   1.136   7.967
   21POPC   PO4  795   6.255   1.174   8.040
   21POPC   GL1  796   6.508   0.978   7.687
   21POPC   GL2  797   6.287   0.752   7.493
   21POPC   C1A  798   6.856   1.064   7.349
   21POPC   D2A  799   6.794   1.236   6.953
   21POPC   C3A  800   6.559   0.968   6.701
   21POPC   C4A  801   6.539   1.195   6.339
   21POPC   C1B  802   6.345   1.094   7.188
   21POPC   C2B  803   6.293   1.458   6.898
   21POPC   C3B  804   6.351   1.669   6.479
   21POPC   C4B  805   6.204   1.484   6.095
   22POPC   NC3  806   8.958  11.007   7.998
   22POPC   PO4  807   9.317  10.496   7.868
   22POPC   GL1  808   9.150  10.820   7.570
   22POPC   GL2  809   9.067  11.226   7.574
   22POPC   C1A  810   8.955  10.883   7.184
   22POPC   D2A  811   8.667  10.773   6.855
   22POPC   C3A  812   8.672  10.998   6.497
   22POPC   C4A  813   8.990  10.994   6.260
   22POPC   C1B  814   8.676  11.266   7.346
   22POPC   C2B  815   8.787  11.303   6.909
   22POPC   C3B  816   8.686   0.019   6.528
   22POPC   C4B  817   8.738  11.438   6.095
   23POPC   NC3  818   0.473   1.068   7.839
   23POPC   PO4  819   0.792   1.601   7.982
   23POPC   GL1  820   0.685   1.474   7.604
   23POPC   GL2  821   0.293   1.494   7.637
   23POPC   C1A  822   0.595   1.558   7.186
   23POPC   D2A  823   0.501   1.321   6.829
   23POPC   C3A  824   0.483   1.601   6.495
   23POPC   C4A  825   0.297   1.544   6.095
   23POPC   C1B  826   0.147   1.260   7.270
   23POPC   C2B  827  11.467   1.093   6.917
   23POPC   C3B  828   0.085   1.240   6.509
   23POPC   C4B  829   0.469   1.074   6.312
   24POPC   NC3  830   4.235   8.601   8.189
   24POPC   PO4  831   4.050   9.225   8.172
   24POPC   GL1  832   4.072   9.016   7.797
   24POPC   GL2  833   4.387   8.891   7.742
   24POPC   C1A  834   4.046   8.935   7.338
   24POPC   D2A  835   4.155   8.615   7.018
   24POPC   C3A  836   4.100   8.716   6.555
   24POPC   C4A  837   4.091   8.482   6.162
   24POPC   C1B  838   4.543   8.869   7.289
   24POPC   C2B  839   4.426   9.009   6.845
   24POPC   C3B  840   4.530   8.938   6.396
   24POPC   C4B  841   4.678   9.138   6.034
   25POPC   NC3  842   3.540   1.352   8.170
   25POPC   PO4  843   3.213   0.700   8.057
   25POPC   GL1  844   3.248   0.890   7.648
   25POPC   GL2  845   3.510   1.139   7.561
   25POPC   C1A  846   3.147   1.027   7.232
   25POPC   D2A  847   3.346   1.068   6.826
   25POPC   C3A  848   3.145   1.104   6.426
   25POPC   C4A  849   3.174   1.464   6.147
   25POPC   C1B  850   3.809   1.398   7.270
   25POPC   C2B  851   3.973   1.522   6.847
   25POPC   C3B  852   3.918   1.456   6.405
   25POPC   C4B  853   3.620   1.175   6.332
   26POPC   NC3  854   5.644   9.713   8.249
   26POPC   PO4  855   6.083  10.162   8.224
   26POPC   GL1  856   6.061   9.837   7.828
   26POPC   GL2  857   5.758   9.630   7.748
   26POPC   C1A  858   6.002   9.882   7.331
   26POPC   D2A  859   6.181   9.766   6.904
   26POPC   C3A  860   5.954   9.844   6.508
   26POPC   C4A  861   6.007   9.881   6.061
   26POPC   C1B  862   5.636   9.516   7.319
   26POPC   C2B  863   5.627   9.649   6.879
   26POPC   C3B  864   5.510   9.514   6.454
   26POPC   C4B  865   5.719   9.458   6.037
   27POPC   NC3  866  11.068  10.445   8.047
   27POPC   PO4  867  10.751   9.917   7.777
   27POPC   GL1  868  11.149  10.098   7.619
   27POPC   GL2  869  11.404  10.380   7.677
   27POPC   C1A  870  11.184  10.066   7.197
   27POPC   D2A  871  10.911  10.136   6.857
   27POPC   C3A  872  11.177  10.314   6.575
   27POPC   C4A  873  11.248  10.137   6.178
   27POPC   C1B  874  11.189  10.569   7.323
   27POPC   C2B  875  11.013  10.673   6.939
   27POPC   C3B  876  11.091  10.854   6.546
   27POPC   C4B  877  11.297  10.661   6.224
   28POPC   NC3  878   5.449   0.133   7.920
   28POPC   PO4  879   5.010   0.586   8.237
   28POPC   GL1  880   5.206   0.548   7.778
   28POPC   GL2  881   5.128   0.278   7.546
   28POPC   C1A  882   5.365   0.622   7.289
   28POPC   D2A  883   5.092   0.363   6.993
   28POPC   C3A  884   5.169   0.343   6.554
   28POPC   C4A  885   5.267   0.663   6.287
   28POPC   C1B  886   4.876   0.647   7.394
   28POPC   C2B  887   4.641   0.681   7.023
   28POPC   C3B  888   4.768   0.684   6.587
   28POPC   C4B  889   4.799   0.978   6.251
   29POPC   NC3  890   8.730   2.625   8.057
   29POPC   PO4  891   8.246   2.923   8.040
   29POPC   GL1  892   8.541   2.906   7.649
   29POPC   GL2  893   8.769   2.598   7.543
   29POPC   C1A  894   8.837   3.050   7.306
   29POPC   D2A  895   8.943   3.349   6.957
   29POPC   C3A  896   8.981   3.186   6.532
   29POPC   C4A  897   8.683   3.029   6.184
   29POPC   C1B  898   9.099   2.618   7.197
   29POPC   C2B  899   8.979   2.652   6.760
   29POPC   C3B  900   9.059   2.709   6.327
   29POPC   C4B  901   9.044   2.565   5.893
   30POPC   NC3  902   7.380  10.622   8.229
   30POPC   PO4  903   7.714  10.792   7.689
   30POPC   GL1  904   7.359  10.563   7.567
   30POPC   GL2  905   7.400  10.257   7.774
   30POPC   C1A  906   7.279  10.404   7.154
   30POPC   D2A  907   6.996  10.445   6.822
   30POPC   C3A  908   7.164  10.642   6.475
   30POPC   C4A  909   7.509  10.652   6.209
   30POPC   C1B  910   7.675  10.154   7.425
   30POPC   C2B  911   7.626  10.073   6.993
   30POPC   C3B  912   7.513  10.264   6.608
   30POPC   C4B  913   7.479  10.121   6.189
   31POPC   NC3  914  10.240   4.513   7.593
   31POPC   PO4  915  10.173   4.030   7.931
   31POPC   GL1  916  10.012   4.070   7.511
   31POPC   GL2  917   9.753   4.299   7.509
   31POPC   C1A  918  10.023   4.241   7.049
   31POPC   D2A  919  10.175   4.629   6.786
   31POPC   C3A  920  10.065   4.585   6.342
   31POPC   C4A  921   9.783   4.255   6.203
   31POPC   C1B  922   9.502   4.110   7.162
   31POPC   C2B  923   9.321   3.912   6.776
   31POPC   C3B  924   9.321   4.129   6.394
   31POPC   C4B  925   9.322   4.588   6.328
   32POPC   NC3  926   0.316   2.047   7.969
   32POPC   PO4  927   0.961   2.340   7.890
   32POPC   GL1  928   0.839   2.033   7.599
   32POPC   GL2  929   0.509   1.938   7.529
   32POPC   C1A  930   0.761   2.156   7.172
   32POPC   D2A  931   0.478   1.991   6.879
   32POPC   C3A  932   0.717   2.075   6.541
   32POPC   C4A  933   0.857   1.919   6.163
   32POPC   C1B  934   0.161   1.825   7.274
   32POPC   C2B  935   0.091   1.621   6.885
   32POPC   C3B  936  11.488   1.772   6.469
   32POPC   C4B  937   0.298   2.039   6.259
   33POPC   NC3  938   9.433   5.671   8.251
   33POPC   PO4  939   9.916   6.047   8.137
   33POPC   GL1  940  10.010   5.841   7.725
   33POPC   GL2  941  10.070   6.132   7.577
   33POPC   C1A  942   9.917   5.702   7.290
   33POPC   D2A  943   9.838   5.823   6.854
   33POPC   C3A  944   9.751   5.596   6.479
   33POPC   C4A  945   9.862   5.677   6.060
   33POPC   C1B  946   9.804   6.205   7.212
   33POPC   C2B  947   9.707   6.303   6.762
   33POPC   C3B  948   9.696   6.095   6.358
   33POPC   C4B  949   9.428   5.922   6.037
   34POPC   NC3  950   5.063   1.072   8.175
   34POPC   PO4  951   5.655   0.724   8.114
   34POPC   GL1  952   5.423   0.988   7.749
   34POPC   GL2  953   5.156   1.257   7.712
   34POPC   C1A  954   5.387   1.118   7.292
   34POPC   D2A  955   5.081   0.957   6.985
   34POPC   C3A  956   5.191   1.065   6.580
   34POPC   C4A  957   5.254   1.175   6.135
   34POPC   C1B  958   4.903   1.314   7.323
   34POPC   C2B  959   4.767   1.402   6.895
   34POPC   C3B  960   4.896   1.453   6.455
   34POPC   C4B  961   5.007   1.615   6.039
   35POPC   NC3  962   7.739   9.226   8.091
   35POPC   PO4  963   8.442   9.260   8.047
   35POPC   GL1  964   8.329   9.101   7.651
   35POPC   GL2  965   8.003   9.107   7.667
   35POPC   C1A  966   8.203   8.863   7.253
   35POPC   D2A  967   8.082   8.688   6.810
   35POPC   C3A  968   8.352   8.661   6.409
   35POPC   C4A  969   8.327   8.784   5.966
   35POPC   C1B  970   7.813   9.173   7.264
   35POPC   C2B  971   7.985   9.187   6.848
   35POPC   C3B  972   8.020   9.057   6.399
   35POPC   C4B  973   7.857   8.999   5.951
   36POPC   NC3  974   8.920  10.396   8.088
   36POPC   PO4  975   8.483  11.017   8.012
   36POPC   GL1  976   8.601  10.678   7.639
   36POPC   GL2  977   8.863  10.387   7.591
   36POPC   C1A  978   8.548  10.445   7.209
   36POPC   D2A  979   8.614  10.258   6.791
   36POPC   C3A  980   8.390  10.544   6.472
   36POPC   C4A  981   8.552  10.725   6.078
   36POPC   C1B  982   9.100  10.391   7.195
   36POPC   C2B  983   9.152  10.630   6.793
   36POPC   C3B  984   8.908  10.519   6.432
   36POPC   C4B  985   8.954  10.117   6.293
   37POPC   NC3  986   7.126   8.835   7.952
   37POPC   PO4  987   7.812   8.637   8.183
   37POPC   GL1  988   7.727   8.673   7.755
   37POPC   GL2  989   7.548   8.905   7.689
   37POPC   C1A  990   7.722   8.645   7.282
   37POPC   D2A  991   7.593   8.869   6.901
   37POPC   C3A  992   7.420   8.648   6.566
   37POPC   C4A  993   7.774   8.620   6.299
   37POPC   C1B  994   7.327   9.003   7.320
   37POPC   C2B  995   7.132   9.074   6.931
   37POPC   C3B  996   7.137   9.097   6.487
   37POPC   C4B  997   7.394   8.991   6.154
   38POPC   NC3  998   0.587  11.016   8.088
   38POPC   PO4  999   1.155  10.942   8.436
   38POPC   GL1 1000   1.174  10.954   7.900
   38POPC   GL2 1001   0.942  11.199   7.739
   38POPC   C1A 1002   1.235  10.852   7.405
   38POPC   D2A 1003   1.251  11.046   6.963
   38POPC   C3A 1004   1.206  10.862   6.544
   38POPC   C4A 1005   0.940  10.899   6.182
   38POPC   C1B 1006   1.175  11.369   7.354
   38POPC   C2B 1007   1.423   0.029   7.002
   38POPC   C3B 1008   1.309  11.484   6.588
   38POPC   C4B 1009   1.312  11.275   6.204
   39POPC   NC3 1010   9.330   8.533   8.094
   39POPC   PO4 1011   9.244   7.863   8.049
   39POPC   GL1 1012   9.548   8.041   7.714
   39POPC   GL2 1013   9.723   8.354   7.739
   39POPC   C1A 1014   9.694   8.019   7.266
   39POPC   D2A 1015   9.850   7.762   6.901
   39POPC   C3A 1016   9.653   7.803   6.463
   39POPC   C4A 1017   9.713   7.804   6.017
   39POPC   C1B 1018   9.660   8.529   7.344
   39POPC   C2B 1019   9.533   8.428   6.922
   39POPC   C3B 1020   9.692   8.448   6.500
   39POPC   C4B 1021   9.537   8.251   6.128
   40POPC   NC3 1022   1.145   1.283   8.005
   40POPC   PO4 1023   1.715   0.855   8.099
   40POPC   GL1 1024   1.499   0.944   7.742
   40POPC   GL2 1025   1.554   1.270   7.658
   40POPC   C1A 1026   1.589   0.869   7.299
   40POPC   D2A 1027   1.741   0.853   6.858
   40POPC   C3A 1028   1.400   0.983   6.576
   40POPC   C4A 1029   1.031   0.955   6.292
   40POPC   C1B 1030   1.297   1.309   7.308
   40POPC   C2B 1031   1.300   1.396   6.863
   40POPC   C3B 1032   0.954   1.369   6.567
   40POPC   C4B 1033   0.815   1.410   6.146
   41POPC   NC3 1034   8.011   3.319   8.037
   41POPC   PO4 1035   8.302   3.820   7.908
   41POPC   GL1 1036   8.332   3.421   7.667
   41POPC   GL2 1037   7.992   3.482   7.539
   41POPC   C1A 1038   8.378   3.266   7.254
   41POPC   D2A 1039   8.438   3.556   6.910
   41POPC   C3A 1040   8.523   3.424   6.505
   41POPC   C4A 1041   8.317   3.387   6.123
   41POPC   C1B 1042   7.933   3.438   7.073
   41POPC   C2B 1043   8.038   3.289   6.638
   41POPC   C3B 1044   7.825   3.249   6.229
   41POPC   C4B 1045   7.473   3.392   5.960
   42POPC   NC3 1046  11.137   9.760   8.007
   42POPC   PO4 1047  10.818   9.209   7.844
   42POPC   GL1 1048  10.992   9.509   7.563
   42POPC   GL2 1049  11.349   9.610   7.566
   42POPC   C1A 1050  10.810   9.632   7.172
   42POPC   D2A 1051  10.639   9.451   6.781
   42POPC   C3A 1052  10.670   9.771   6.480
   42POPC   C4A 1053  10.882   9.790   6.065
   42POPC   C1B 1054  11.350   9.597   7.125
   42POPC   C2B 1055  11.109   9.651   6.756
   42POPC   C3B 1056  11.024   9.413   6.399
   42POPC   C4B 1057  11.339   9.517   6.091
   43POPC   NC3 1058  11.119   7.269   8.195
   43POPC   PO4 1059  11.133   7.806   7.877
   43POPC   GL1 1060  11.252   7.359   7.668
   43POPC   GL2 1061  10.983   7.139   7.576
   43POPC   C1A 1062  11.465   7.231   7.265
   43POPC   D2A 1063   0.095   6.945   6.913
   43POPC   C3A 1064   0.003   7.186   6.525
   43POPC   C4A 1065  11.360   7.546   6.271
   43POPC   C1B 1066  10.998   7.488   7.254
   43POPC   C2B 1067  11.031   7.771   6.903
   43POPC   C3B 1068  10.874   7.663   6.501
   43POPC   C4B 1069  10.962   7.247   6.362
   44POPC   NC3 1070   1.512   8.030   8.186
   44POPC   PO4 1071   0.835   8.054   8.244
   44POPC   GL1 1072   1.137   8.147   7.829
   44POPC   GL2 1073   1.128   8.519   7.697
   44POPC   C1A 1074   1.407   8.142   7.409
   44POPC   D2A 1075   1.538   8.318   6.975
   44POPC   C3A 1076   1.619   8.195   6.558
   44POPC   C4A 1077   1.374   8.105   6.188
   44POPC   C1B 1078   0.967   8.375   7.294
   44POPC   C2B 1079   1.080   8.117   6.995
   44POPC   C3B 1080   1.109   8.223   6.612
   44POPC   C4B 1081   0.892   8.290   6.245
   45POPC   NC3 1082   3.315   3.403   8.054
   45POPC   PO4 1083   2.677   3.222   8.068
   45POPC   GL1 1084   2.652   3.195   7.639
   45POPC   GL2 1085   2.484   3.514   7.599
   45POPC   C1A 1086   2.889   3.305   7.239
   45POPC   D2A 1087   2.750   3.392   6.799
   45POPC   C3A 1088   2.935   3.374   6.368
   45POPC   C4A 1089   2.973   3.819   6.159
   45POPC   C1B 1090   2.354   3.325   7.230
   45POPC   C2B 1091   2.146   3.517   6.921
   45POPC   C3B 1092   2.353   3.637   6.577
   45POPC   C4B 1093   2.417   3.269   6.378
   46POPC   NC3 1094  10.754   8.841   8.104
   46POPC   PO4 1095  11.316   9.344   8.165
   46POPC   GL1 1096  11.324   9.114   7.756
   46POPC   GL2 1097  11.189   8.774   7.820
   46POPC   C1A 1098  11.445   9.129   7.312
   46POPC   D2A 1099  11.233   9.150   6.887
   46POPC   C3A 1100  11.478   9.155   6.498
   46POPC   C4A 1101  11.221   9.003   6.173
   46POPC   C1B 1102  11.055   8.804   7.378
   46POPC   C2B 1103  11.324   8.649   7.016
   46POPC   C3B 1104  11.328   8.638   6.554
   46POPC   C4B 1105  10.971   8.565   6.255
   47POPC   NC3 1106   0.621   2.990   8.102
   47POPC   PO4 1107   0.141   2.460   8.084
   47POPC   GL1 1108   0.367   2.690   7.778
   47POPC   GL2 1109   0.517   2.431   7.661
   47POPC   C1A 1110   0.462   2.822   7.341
   47POPC   D2A 1111   0.516   3.000   6.944
   47POPC   C3A 1112   0.217   2.986   6.623
   47POPC   C4A 1113   0.413   2.941   6.221
   47POPC   C1B 1114   0.298   2.335   7.295
   47POPC   C2B 1115   0.332   2.507   6.901
   47POPC   C3B 1116   0.358   2.496   6.484
   47POPC   C4B 1117   0.694   2.455   6.209
   48POPC   NC3 1118   5.418   0.406   8.353
   48POPC   PO4 1119   5.962   0.225   7.928
   48POPC   GL1 1120   5.695   0.366   7.589
   48POPC   GL2 1121   5.770   0.628   7.605
   48POPC   C1A 1122   5.542   0.159   7.215
   48POPC   D2A 1123   5.651   0.381   6.841
   48POPC   C3A 1124   5.642   0.145   6.494
   48POPC   C4A 1125   5.406  11.416   6.225
   48POPC   C1B 1126   6.013   0.409   7.232
   48POPC   C2B 1127   6.197   0.643   6.962
   48POPC   C3B 1128   6.099   0.725   6.586
   48POPC   C4B 1129   5.883   0.504   6.221
   49POPC   NC3 1130  10.626   4.892   8.153
   49POPC   PO4 1131  10.761   5.514   8.108
   49POPC   GL1 1132  10.717   5.203   7.709
   49POPC   GL2 1133  10.408   5.013   7.700
   49POPC   C1A 1134  10.591   4.986   7.238
   49POPC   D2A 1135  10.511   5.075   6.816
   49POPC   C3A 1136  10.463   4.908   6.433
   49POPC   C4A 1137  10.661   5.093   6.127
   49POPC   C1B 1138  10.287   5.347   7.393
   49POPC   C2B 1139  10.176   5.427   6.930
   49POPC   C3B 1140  10.190   5.335   6.463
   49POPC   C4B 1141   9.860   5.174   6.156
   50POPC   NC3 1142   8.101  10.716   7.928
   50POPC   PO4 1143   8.514  10.253   7.953
   50POPC   GL1 1144   8.346  10.188   7.580
   50POPC   GL2 1145   8.103  10.480   7.477
   50POPC   C1A 1146   8.159  10.075   7.193
   50POPC   D2A 1147   8.071  10.271   6.822
   50POPC   C3A 1148   8.226  10.018   6.571
   50POPC   C4A 1149   8.443  10.101   6.224
   50POPC   C1B 1150   7.785  10.553   7.127
   50POPC   C2B 1151   7.557  10.732   6.828
   50POPC   C3B 1152   7.874  10.689   6.552
   50POPC   C4B 1153   7.946  10.340   6.287
   51POPC   NC3 1154   9.922   1.749   8.033
   51POPC   PO4 1155   9.289   1.592   8.275
   51POPC   GL1 1156   9.432   1.878   7.839
   51POPC   GL2 1157   9.674   2.168   7.753
   51POPC   C1A 1158   9.435   1.920   7.350
   51POPC   D2A 1159   9.703   1.885   6.947
   51POPC   C3A 1160   9.520   1.945   6.525
   51POPC   C4A 1161   9.323   1.785   6.144
   51POPC   C1B 1162   9.800   2.269   7.311
   51POPC   C2B 1163   9.514   2.384   6.962
   51POPC   C3B 1164   9.509   2.464   6.511
   51POPC   C4B 1165   9.852   2.253   6.250
   52POPC   NC3 1166  10.458   2.172   8.141
   52POPC   PO4 1167  10.771   1.628   8.324
   52POPC   GL1 1168  10.818   1.992   7.842
   52POPC   GL2 1169  10.443   2.112   7.610
   52POPC   C1A 1170  10.840   2.137   7.350
   52POPC   D2A 1171  10.590   1.915   7.007
   52POPC   C3A 1172  10.553   2.084   6.557
   52POPC   C4A 1173  10.557   2.081   6.093
   52POPC   C1B 1174  10.135   1.865   7.323
   52POPC   C2B 1175  10.141   1.571   6.980
   52POPC   C3B 1176  10.131   1.735   6.570
   52POPC   C4B 1177  10.115   1.831   6.142
   53POPC   NC3 1178   2.857   5.772   8.202
   53POPC   PO4 1179   3.264   6.145   8.033
   53POPC   GL1 1180   2.898   5.994   7.737
   53POPC   GL2 1181   2.604   5.713   7.708
   53POPC   C1A 1182   2.883   5.863   7.297
   53POPC   D2A 1183   2.955   6.092   6.910
   53POPC   C3A 1184   3.025   5.817   6.561
   53POPC   C4A 1185   3.171   5.868   6.141
   53POPC   C1B 1186   2.376   5.722   7.260
   53POPC   C2B 1187   2.510   5.575   6.805
   53POPC   C3B 1188   2.557   5.803   6.386
   53POPC   C4B 1189   2.676   5.923   5.955
   54POPC   NC3 1190   8.936   9.281   8.099
   54POPC   PO4 1191   8.952   9.952   8.206
   54POPC   GL1 1192   8.814   9.884   7.735
   54POPC   GL2 1193   8.807   9.529   7.668
   54POPC   C1A 1194   8.760   9.968   7.273
   54POPC   D2A 1195   8.960   9.844   6.839
   54POPC   C3A 1196   8.686   9.718   6.469
   54POPC   C4A 1197   8.702   9.615   5.990
   54POPC   C1B 1198   9.118   9.585   7.313
   54POPC   C2B 1199   9.192   9.319   6.958
   54POPC   C3B 1200   9.162   9.323   6.531
   54POPC   C4B 1201   9.136   9.639   6.233
   55POPC   NC3 1202   9.723   0.239   7.963
   55POPC   PO4 1203   9.208  11.391   8.066
   55POPC   GL1 1204   9.274   0.181   7.708
   55POPC   GL2 1205   9.439   0.528   7.621
   55POPC   C1A 1206   9.507   0.113   7.314
   55POPC   D2A 1207   9.487   0.357   6.946
   55POPC   C3A 1208   9.343   0.133   6.590
   55POPC   C4A 1209   9.313   0.317   6.186
   55POPC   C1B 1210   9.840   0.525   7.332
   55POPC   C2B 1211   9.911   0.646   6.869
   55POPC   C3B 1212   9.749   0.458   6.471
   55POPC   C4B 1213   9.763   0.497   6.013
   56POPC   NC3 1214   0.238   8.175   8.399
   56POPC   PO4 1215   0.287   7.935   7.821
   56POPC   GL1 1216   0.318   8.164   7.525
   56POPC   GL2 1217   0.649   8.269   7.660
   56POPC   C1A 1218   0.375   8.100   7.108
   56POPC   D2A 1219   0.628   8.224   6.818
   56POPC   C3A 1220   0.411   8.278   6.488
   56POPC   C4A 1221   0.361   8.071   6.140
   56POPC   C1B 1222   0.767   7.904   7.350
   56POPC   C2B 1223   0.747   7.724   6.903
   56POPC   C3B 1224   0.746   7.866   6.452
   56POPC   C4B 1225   0.756   7.868   5.930
   57POPC   NC3 1226   0.583   4.083   7.935
   57POPC   PO4 1227   0.389   3.400   8.079
   57POPC   GL1 1228   0.449   3.584   7.706
   57POPC   GL2 1229   0.599   3.259   7.620
   57POPC   C1A 1230   0.414   3.811   7.319
   57POPC   D2A 1231   0.653   3.882   6.923
   57POPC   C3A 1232   0.486   3.836   6.538
   57POPC   C4A 1233   0.654   3.715   6.127
   57POPC   C1B 1234   0.262   3.304   7.305
   57POPC   C2B 1235   0.342   3.474   6.901
   57POPC   C3B 1236   0.578   3.342   6.531
   57POPC   C4B 1237   0.228   3.440   6.239
   58POPC   NC3 1238   5.183  10.960   8.129
   58POPC   PO4 1239   4.977   0.056   7.979
   58POPC   GL1 1240   4.836  11.357   7.619
   58POPC   GL2 1241   4.956  11.066   7.679
   58POPC   C1A 1242   5.087  11.373   7.240
   58POPC   D2A 1243   5.275  11.375   6.832
   58POPC   C3A 1244   4.917  11.403   6.541
   58POPC   C4A 1245   4.912  11.476   6.111
   58POPC   C1B 1246   5.101  10.871   7.301
   58POPC   C2B 1247   5.207  10.806   6.875
   58POPC   C3B 1248   5.216  11.001   6.464
   58POPC   C4B 1249   5.207  10.981   6.010
   59POPC   NC3 1250   2.930   0.279   8.081
   59POPC   PO4 1251   2.464   0.812   7.959
   59POPC   GL1 1252   2.782   0.639   7.701
   59POPC   GL2 1253   2.596   0.343   7.672
   59POPC   C1A 1254   2.996   0.537   7.318
   59POPC   D2A 1255   2.907   0.297   6.947
   59POPC   C3A 1256   2.893   0.444   6.536
   59POPC   C4A 1257   2.878   0.234   6.162
   59POPC   C1B 1258   2.472   0.428   7.234
   59POPC   C2B 1259   2.286   0.719   6.910
   59POPC   C3B 1260   2.198   0.776   6.476
   59POPC   C4B 1261   2.490   0.734   6.067
   60POPC   NC3 1262   8.979   1.257   8.145
   60POPC   PO4 1263   8.334   1.366   8.083
   60POPC   GL1 1264   8.663   1.350   7.722
   60POPC   GL2 1265   8.873   1.076   7.658
   60POPC   C1A 1266   8.679   1.334   7.247
   60POPC   D2A 1267   8.874   1.266   6.822
   60POPC   C3A 1268   8.619   1.383   6.459
   60POPC   C4A 1269   8.668   1.345   5.971
   60POPC   C1B 1270   9.129   1.095   7.260
   60POPC   C2B 1271   9.185   0.815   6.933
   60POPC   C3B 1272   9.230   0.998   6.570
   60POPC   C4B 1273   9.079   1.298   6.267
   61POPC   NC3 1274   2.325  10.403   7.941
   61POPC   PO4 1275   1.719  10.682   8.107
   61POPC   GL1 1276   1.853  10.509   7.722
   61POPC   GL2 1277   1.868  10.133   7.739
   61POPC   C1A 1278   1.832  10.682   7.321
   61POPC   D2A 1279   1.697  10.820   6.927
   61POPC   C3A 1280   1.920  10.709   6.569
   61POPC   C4A 1281   1.838  10.651   6.159
   61POPC   C1B 1282   2.073  10.222   7.343
   61POPC   C2B 1283   2.007  10.375   6.941
   61POPC   C3B 1284   2.118  10.198   6.530
   61POPC   C4B 1285   2.050  10.223   6.087
   62POPC   NC3 1286   0.331   4.533   8.323
   62POPC   PO4 1287   0.101   4.080   7.987
   62POPC   GL1 1288   0.072   4.398   7.713
   62POPC   GL2 1289   0.373   4.515   7.758
   62POPC   C1A 1290   0.211   4.285   7.307
   62POPC   D2A 1291   0.183   4.061   6.935
   62POPC   C3A 1292   0.179   4.272   6.569
   62POPC   C4A 1293   0.244   4.072   6.180
   62POPC   C1B 1294   0.571   4.632   7.382
   62POPC   C2B 1295   0.682   4.505   6.959
   62POPC   C3B 1296   0.529   4.641   6.577
   62POPC   C4B 1297   0.562   4.464   6.178
   63POPC   NC3 1298   1.174   8.850   8.098
   63POPC   PO4 1299   1.560   9.468   8.102
   63POPC   GL1 1300   1.403   9.267   7.723
   63POPC   GL2 1301   1.069   9.108   7.676
   63POPC   C1A 1302   1.363   9.146   7.278
   63POPC   D2A 1303   1.108   9.201   6.923
   63POPC   C3A 1304   1.360   9.165   6.587
   63POPC   C4A 1305   1.203   9.089   6.197
   63POPC   C1B 1306   0.939   8.876   7.314
   63POPC   C2B 1307   1.181   8.690   6.942
   63POPC   C3B 1308   1.089   8.714   6.511
   63POPC   C4B 1309   0.784   8.769   6.167
   64POPC   NC3 1310   9.804  10.863   8.071
   64POPC   PO4 1311  10.130   0.045   8.126
   64POPC   GL1 1312   9.961  11.260   7.809
   64POPC   GL2 1313   9.592  11.256   7.718
   64POPC   C1A 1314   9.932  11.013   7.415
   64POPC   D2A 1315   9.852  11.209   6.994
   64POPC   C3A 1316   9.917  11.074   6.577
   64POPC   C4A 1317   9.860  10.838   6.223
   64POPC   C1B 1318   9.449  11.099   7.283
   64POPC   C2B 1319   9.313  11.139   6.845
   64POPC   C3B 1320   9.436  11.163   6.398
   64POPC   C4B 1321   9.246  11.326   5.983
   65POPC   NC3 1322   0.746   7.693   7.959
   65POPC   PO4 1323   1.424   7.668   7.910
   65POPC   GL1 1324   1.137   7.576   7.647
   65POPC   GL2 1325   1.134   7.235   7.798
   65POPC   C1A 1326   1.198   7.669   7.225
   65POPC   D2A 1327   1.468   7.802   6.925
   65POPC   C3A 1328   1.257   7.743   6.573
   65POPC   C4A 1329   1.121   7.641   6.203
   65POPC   C1B 1330   1.194   7.168   7.337
   65POPC   C2B 1331   0.957   7.115   6.921
   65POPC   C3B 1332   1.014   7.195   6.468
   65POPC   C4B 1333   1.458   7.279   6.337
   66POPC   NC3 1334   8.906   0.260   8.131
   66POPC   PO4 1335   9.184   0.839   8.084
   66POPC   GL1 1336   8.923   0.583   7.735
   66POPC   GL2 1337   8.716   0.258   7.664
   66POPC   C1A 1338   8.838   0.685   7.299
   66POPC   D2A 1339   8.641   0.826   6.889
   66POPC   C3A 1340   8.724   0.898   6.399
   66POPC   C4A 1341   8.621   0.818   5.921
   66POPC   C1B 1342   8.965   0.184   7.302
   66POPC   C2B 1343   8.852   0.332   6.919
   66POPC   C3B 1344   8.985   0.501   6.570
   66POPC   C4B 1345   8.792   0.433   6.205
   67POPC   NC3 1346   4.298   3.001   8.247
   67POPC   PO4 1347   3.673   3.133   8.071
   67POPC   GL1 1348   4.025   3.039   7.774
   67POPC   GL2 1349   4.350   2.822   7.730
   67POPC   C1A 1350   4.021   2.918   7.342
   67POPC   D2A 1351   4.170   2.767   6.940
   67POPC   C3A 1352   4.218   2.920   6.505
   67POPC   C4A 1353   4.407   3.091   6.122
   67POPC   C1B 1354   4.333   2.474   7.359
   67POPC   C2B 1355   4.168   2.269   6.946
   67POPC   C3B 1356   4.246   2.405   6.523
   67POPC   C4B 1357   4.573   2.586   6.258
   68POPC   NC3 1358   9.935   9.328   8.132
   68POPC   PO4 1359   9.774   8.710   8.086
   68POPC   GL1 1360   9.722   8.928   7.705
   68POPC   GL2 1361   9.354   8.903   7.677
   68POPC   C1A 1362   9.971   8.987   7.319
   68POPC   D2A 1363   9.922   8.750   6.908
   68POPC   C3A 1364   9.889   8.921   6.450
   68POPC   C4A 1365  10.004   9.172   6.034
   68POPC   C1B 1366   9.382   8.915   7.205
   68POPC   C2B 1367   9.447   8.918   6.740
   68POPC   C3B 1368   9.389   8.861   6.348
   68POPC   C4B 1369   9.171   8.463   6.397
   69POPC   NC3 1370  11.464   3.636   8.075
   69POPC   PO4 1371  10.797   3.487   7.950
   69POPC   GL1 1372  10.847   3.569   7.555
   69POPC   GL2 1373  11.190   3.456   7.599
   69POPC   C1A 1374  10.864   3.769   7.181
   69POPC   D2A 1375  10.917   3.640   6.753
   69POPC   C3A 1376  10.746   3.881   6.423
   69POPC   C4A 1377  10.963   3.735   6.034
   69POPC   C1B 1378  11.241   3.152   7.286
   69POPC   C2B 1379  11.328   3.258   6.854
   69POPC   C3B 1380  11.257   3.267   6.396
   69POPC   C4B 1381  11.018   2.987   6.129
   70POPC   NC3 1382   1.186   5.961   7.944
   70POPC   PO4 1383   0.848   5.422   8.091
   70POPC   GL1 1384   0.981   5.576   7.682
   70POPC   GL2 1385   1.331   5.525   7.705
   70POPC   C1A 1386   0.865   5.459   7.247
   70POPC   D2A 1387   0.671   5.495   6.855
   70POPC   C3A 1388   0.924   5.380   6.486
   70POPC   C4A 1389   1.060   5.459   6.049
   70POPC   C1B 1390   1.289   5.743   7.292
   70POPC   C2B 1391   1.221   5.588   6.868
   70POPC   C3B 1392   1.251   5.760   6.442
   70POPC   C4B 1393   1.326   5.915   6.030
   71POPC   NC3 1394   9.857   6.553   8.045
   71POPC   PO4 1395  10.501   6.371   7.921
   71POPC   GL1 1396  10.542   6.291   7.555
   71POPC   GL2 1397  10.802   6.467   7.514
   71POPC   C1A 1398  10.397   6.311   7.165
   71POPC   D2A 1399  10.564   6.336   6.761
   71POPC   C3A 1400  10.272   6.563   6.548
   71POPC   C4A 1401   9.983   6.522   6.253
   71POPC   C1B 1402  10.697   6.713   7.220
   71POPC   C2B 1403  10.631   6.829   6.831
   71POPC   C3B 1404  10.726   6.735   6.408
   71POPC   C4B 1405  10.425   6.759   6.081
   72POPC   NC3 1406   2.867   1.024   8.034
   72POPC   PO4 1407   3.069   1.600   8.077
   72POPC   GL1 1408   3.004   1.360   7.667
   72POPC   GL2 1409   2.706   1.160   7.593
   72POPC   C1A 1410   2.850   1.423   7.208
   72POPC   D2A 1411   2.699   1.656   6.878
   72POPC   C3A 1412   2.779   1.444   6.532
   72POPC   C4A 1413   2.656   1.633   6.184
   72POPC   C1B 1414   2.627   0.932   7.250
   72POPC   C2B 1415   2.836   0.824   6.879
   72POPC   C3B 1416   2.686   0.926   6.493
   72POPC   C4B 1417   2.401   1.200   6.305
   73POPC   NC3 1418   9.638   7.622   8.040
   73POPC   PO4 1419   9.718   6.990   7.987
   73POPC   GL1 1420   9.627   7.314   7.627
   73POPC   GL2 1421   9.827   7.628   7.565
   73POPC   C1A 1422   9.486   7.485   7.199
   73POPC   D2A 1423   9.484   7.406   6.726
   73POPC   C3A 1424   9.327   7.097   6.374
   73POPC   C4A 1425   9.371   6.854   5.948
   73POPC   C1B 1426   9.975   7.338   7.226
   73POPC   C2B 1427  10.024   7.300   6.769
   73POPC   C3B 1428   9.823   7.255   6.373
   73POPC   C4B 1429   9.873   7.000   6.015
   74POPC   NC3 1430  10.617   3.899   8.038
   74POPC   PO4 1431  10.624   4.562   7.834
   74POPC   GL1 1432  10.711   4.413   7.466
   74POPC   GL2 1433  10.594   4.093   7.567
   74POPC   C1A 1434  10.757   4.292   7.087
   74POPC   D2A 1435  10.682   4.588   6.814
   74POPC   C3A 1436  10.647   4.449   6.429
   74POPC   C4A 1437  10.645   4.607   6.013
   74POPC   C1B 1438  10.397   3.933   7.238
   74POPC   C2B 1439  10.476   3.932   6.852
   74POPC   C3B 1440  10.260   4.151   6.592
   74POPC   C4B 1441  10.311   4.143   6.205
   75POPC   NC3 1442   4.914  10.355   8.143
   75POPC   PO4 1443   5.494  10.019   7.954
   75POPC   GL1 1444   5.267  10.272   7.664
   75POPC   GL2 1445   5.066  10.569   7.712
   75POPC   C1A 1446   5.166  10.210   7.212
   75POPC   D2A 1447   5.049  10.239   6.763
   75POPC   C3A 1448   4.973   9.922   6.391
   75POPC   C4A 1449   4.962   9.915   5.886
   75POPC   C1B 1450   4.752  10.498   7.359
   75POPC   C2B 1451   4.675  10.638   6.905
   75POPC   C3B 1452   4.883  10.609   6.471
   75POPC   C4B 1453   5.068  10.357   6.118
   76POPC   NC3 1454   7.627   8.236   8.014
   76POPC   PO4 1455   7.040   8.392   7.876
   76POPC   GL1 1456   7.231   8.541   7.524
   76POPC   GL2 1457   7.449   8.305   7.541
   76POPC   C1A 1458   7.236   8.539   7.070
   76POPC   D2A 1459   7.159   8.209   6.765
   76POPC   C3A 1460   7.057   8.322   6.366
   76POPC   C4A 1461   7.063   8.615   6.033
   76POPC   C1B 1462   7.388   8.058   7.204
   76POPC   C2B 1463   7.597   7.956   6.820
   76POPC   C3B 1464   7.417   7.922   6.387
   76POPC   C4B 1465   7.505   7.798   5.936
   77POPC   NC3 1466   2.433  11.221   8.482
   77POPC   PO4 1467   3.055  11.388   8.308
   77POPC   GL1 1468   2.786  11.388   7.816
   77POPC   GL2 1469   2.563  11.114   7.792
   77POPC   C1A 1470   2.794  11.495   7.354
   77POPC   D2A 1471   2.902  11.298   6.942
   77POPC   C3A 1472   2.703  11.454   6.558
   77POPC   C4A 1473   2.443  11.439   6.189
   77POPC   C1B 1474   2.762  10.986   7.376
   77POPC   C2B 1475   2.703  10.846   6.961
   77POPC   C3B 1476   2.791  10.954   6.548
   77POPC   C4B 1477   2.631  10.936   6.139
   78POPC   NC3 1478   7.809   0.629   8.011
   78POPC   PO4 1479   8.498   0.499   8.093
   78POPC   GL1 1480   8.281   0.557   7.724
   78POPC   GL2 1481   8.122   0.277   7.757
   78POPC   C1A 1482   8.381   0.481   7.315
   78POPC   D2A 1483   8.196   0.578   6.946
   78POPC   C3A 1484   8.426   0.472   6.583
   78POPC   C4A 1485   8.229   0.576   6.214
   78POPC   C1B 1486   7.871   0.392   7.391
   78POPC   C2B 1487   7.852   0.201   7.003
   78POPC   C3B 1488   7.843   0.423   6.595
   78POPC   C4B 1489   7.724   0.159   6.278
   79POPC   NC3 1490   2.038   0.514   8.016
   79POPC   PO4 1491   2.458   0.054   8.170
   79POPC   GL1 1492   2.165   0.060   7.778
   79POPC   GL2 1493   1.888   0.297   7.591
   79POPC   C1A 1494   2.179  11.489   7.337
   79POPC   D2A 1495   2.408  11.446   6.977
   79POPC   C3A 1496   2.181   0.091   6.598
   79POPC   C4A 1497   2.154   0.356   6.221
   79POPC   C1B 1498   1.902   0.445   7.165
   79POPC   C2B 1499   1.763   0.351   6.738
   79POPC   C3B 1500   1.710   0.601   6.363
   79POPC   C4B 1501   1.694   0.445   5.953
   80POPC   NC3 1502  10.816   3.422   8.397
   80POPC   PO4 1503  10.176   3.349   8.247
   80POPC   GL1 1504  10.335   3.341   7.770
   80POPC   GL2 1505  10.350   3.644   7.650
   80POPC   C1A 1506  10.635   3.087   7.464
   80POPC   D2A 1507  10.791   3.267   7.083
   80POPC   C3A 1508  10.808   3.118   6.653
   80POPC   C4A 1509  10.736   3.385   6.326
   80POPC   C1B 1510  10.319   3.431   7.253
   80POPC   C2B 1511  10.223   3.492   6.825
   80POPC   C3B 1512  10.282   3.651   6.406
   80POPC   C4B 1513  10.472   3.704   6.003
   81POPC   NC3 1514  10.848   6.679   8.005
   81POPC   PO4 1515  10.687   7.338   8.096
   81POPC   GL1 1516  10.491   7.172   7.721
   81POPC   GL2 1517  10.137   7.263   7.754
   81POPC   C1A 1518  10.551   7.200   7.255
   81POPC   D2A 1519  10.711   7.327   6.845
   81POPC   C3A 1520  10.456   7.173   6.499
   81POPC   C4A 1521  10.534   7.280   6.110
   81POPC   C1B 1522  10.325   7.604   7.480
   81POPC   C2B 1523  10.349   7.625   7.016
   81POPC   C3B 1524  10.355   7.669   6.567
   81POPC   C4B 1525  10.137   7.580   6.169
   82POPC   NC3 1526   0.548   9.905   7.903
   82POPC   PO4 1527   0.790   9.219   8.083
   82POPC   GL1 1528   0.683   9.440   7.719
   82POPC   GL2 1529   0.316   9.467   7.727
   82POPC   C1A 1530   0.841   9.415   7.295
   82POPC   D2A 1531   0.697   9.665   6.915
   82POPC   C3A 1532   0.499   9.552   6.520
   82POPC   C4A 1533   0.806   9.473   6.191
   82POPC   C1B 1534   0.348   9.574   7.301
   82POPC   C2B 1535   0.254   9.896   7.006
   82POPC   C3B 1536   0.026   9.925   6.644
   82POPC   C4B 1537   0.183   9.873   6.241
   83POPC   NC3 1538   3.332   1.967   8.003
   83POPC   PO4 1539   3.919   1.638   8.235
   83POPC   GL1 1540   3.636   1.612   7.744
   83POPC   GL2 1541   3.524   1.950   7.516
   83POPC   C1A 1542   3.334   1.541   7.355
   83POPC   D2A 1543   3.416   1.717   6.987
   83POPC   C3A 1544   3.428   1.552   6.610
   83POPC   C4A 1545   3.539   1.810   6.271
   83POPC   C1B 1546   3.421   2.211   7.133
   83POPC   C2B 1547   3.291   2.474   6.800
   83POPC   C3B 1548   3.410   2.312   6.414
   83POPC   C4B 1549   3.816   2.315   6.232
   84POPC   NC3 1550   6.656  10.715   7.963
   84POPC   PO4 1551   7.077  10.262   8.179
   84POPC   GL1 1552   6.878  10.291   7.748
   84POPC   GL2 1553   6.486  10.275   7.719
   84POPC   C1A 1554   6.805  10.495   7.336
   84POPC   D2A 1555   6.519  10.567   6.988
   84POPC   C3A 1556   6.564  10.454   6.545
   84POPC   C4A 1557   6.693  10.784   6.320
   84POPC   C1B 1558   6.453  10.128   7.274
   84POPC   C2B 1559   6.615  10.051   6.842
   84POPC   C3B 1560   6.466   9.956   6.397
   84POPC   C4B 1561   6.502   9.955   5.921
   85POPC   NC3 1562   9.727   2.662   7.989
   85POPC   PO4 1563   9.111   2.443   7.898
   85POPC   GL1 1564   9.245   2.815   7.658
   85POPC   GL2 1565   9.497   2.625   7.529
   85POPC   C1A 1566   9.348   3.082   7.256
   85POPC   D2A 1567   9.414   2.891   6.838
   85POPC   C3A 1568   9.487   3.010   6.422
   85POPC   C4A 1569   9.488   2.768   6.068
   85POPC   C1B 1570   9.735   2.769   7.206
   85POPC   C2B 1571   9.978   2.628   6.872
   85POPC   C3B 1572   9.958   2.713   6.444
   85POPC   C4B 1573   9.953   2.986   6.125
   86POPC   NC3 1574   0.213   9.126   8.092
   86POPC   PO4 1575   0.035   8.538   8.181
   86POPC   GL1 1576   0.243   8.639   7.738
   86POPC   GL2 1577   0.597   8.815   7.758
   86POPC   C1A 1578   0.476   8.585   7.293
   86POPC   D2A 1579   0.677   8.714   6.894
   86POPC   C3A 1580   0.364   8.780   6.570
   86POPC   C4A 1581   0.278   8.637   6.147
   86POPC   C1B 1582   0.458   9.079   7.408
   86POPC   C2B 1583   0.521   9.188   6.958
   86POPC   C3B 1584   0.750   9.116   6.556
   86POPC   C4B 1585   0.436   9.132   6.196
   87POPC   NC3 1586   6.247   2.423   8.121
   87POPC   PO4 1587   6.844   2.411   8.014
   87POPC   GL1 1588   6.764   2.279   7.619
   87POPC   GL2 1589   6.498   2.506   7.583
   87POPC   C1A 1590   6.729   2.290   7.162
   87POPC   D2A 1591   6.675   2.502   6.768
   87POPC   C3A 1592   6.588   2.356   6.363
   87POPC   C4A 1593   6.783   2.625   6.036
   87POPC   C1B 1594   6.426   2.721   7.162
   87POPC   C2B 1595   6.421   2.947   6.743
   87POPC   C3B 1596   6.354   2.808   6.310
   87POPC   C4B 1597   6.127   2.930   5.924
   88POPC   NC3 1598   5.865  10.288   7.841
   88POPC   PO4 1599   5.362  10.542   8.260
   88POPC   GL1 1600   5.550  10.700   7.812
   88POPC   GL2 1601   5.849  10.847   7.601
   88POPC   C1A 1602   5.520  10.586   7.325
   88POPC   D2A 1603   5.599  10.421   6.890
   88POPC   C3A 1604   5.397  10.525   6.469
   88POPC   C4A 1605   5.503  10.576   5.991
   88POPC   C1B 1606   6.084  10.528   7.289
   88POPC   C2B 1607   6.112  10.285   6.907
   88POPC   C3B 1608   6.009  10.472   6.548
   88POPC   C4B 1609   5.772  10.267   6.274
   89POPC   NC3 1610   1.129   1.910   7.996
   89POPC   PO4 1611   1.582   2.322   8.303
   89POPC   GL1 1612   1.615   2.071   7.812
   89POPC   GL2 1613   1.412   1.786   7.600
   89POPC   C1A 1614   1.498   2.191   7.343
   89POPC   D2A 1615   1.259   2.209   6.978
   89POPC   C3A 1616   1.480   2.213   6.601
   89POPC   C4A 1617   1.176   2.311   6.291
   89POPC   C1B 1618   1.119   1.783   7.276
   89POPC   C2B 1619   0.956   1.778   6.887
   89POPC   C3B 1620   1.181   1.824   6.542
   89POPC   C4B 1621   1.294   1.580   6.217
   90POPC   NC3 1622   6.111   0.732   7.989
   90POPC   PO4 1623   6.862   0.657   7.967
   90POPC   GL1 1624   6.764   0.541   7.569
   90POPC   GL2 1625   6.908   0.246   7.455
   90POPC   C1A 1626   6.685   0.642   7.141
   90POPC   D2A 1627   6.616   0.430   6.783
   90POPC   C3A 1628   6.842   0.585   6.466
   90POPC   C4A 1629   6.707   0.792   6.090
   90POPC   C1B 1630   6.491   0.183   7.278
   90POPC   C2B 1631   6.369  11.485   6.902
   90POPC   C3B 1632   6.171   0.220   6.597
   90POPC   C4B 1633   6.392   0.426   6.288
   91POPC   NC3 1634   4.225   2.069   8.300
   91POPC   PO4 1635   3.781   2.047   7.928
   91POPC   GL1 1636   4.027   2.012   7.586
   91POPC   GL2 1637   4.125   1.693   7.554
   91POPC   C1A 1638   3.870   1.919   7.156
   91POPC   D2A 1639   3.743   2.020   6.722
   91POPC   C3A 1640   4.073   1.935   6.424
   91POPC   C4A 1641   4.290   2.177   6.066
   91POPC   C1B 1642   4.380   1.877   7.219
   91POPC   C2B 1643   4.405   1.781   6.784
   91POPC   C3B 1644   4.571   1.840   6.356
   91POPC   C4B 1645   4.547   1.770   5.896
   92POPC   NC3 1646   7.548  11.172   7.889
   92POPC   PO4 1647   6.831  11.176   7.961
   92POPC   GL1 1648   6.968  10.941   7.578
   92POPC   GL2 1649   7.266  11.152   7.476
   92POPC   C1A 1650   7.072  10.871   7.110
   92POPC   D2A 1651   7.235  11.122   6.783
   92POPC   C3A 1652   7.041  11.142   6.406
   92POPC   C4A 1653   7.074  10.867   6.000
   92POPC   C1B 1654   7.593  11.157   7.154
   92POPC   C2B 1655   7.799  11.197   6.774
   92POPC   C3B 1656   7.629  11.130   6.382
   92POPC   C4B 1657   7.372  11.310   6.066
   93POPC   NC3 1658   0.472  10.461   8.130
   93POPC   PO4 1659   0.092   9.915   7.914
   93POPC   GL1 1660   0.218  10.022   7.511
   93POPC   GL2 1661   0.441  10.311   7.594
   93POPC   C1A 1662   0.121  10.347   7.189
   93POPC   D2A 1663   0.224  10.602   6.823
   93POPC   C3A 1664   0.249  10.351   6.477
   93POPC   C4A 1665   0.610  10.051   6.501
   93POPC   C1B 1666   0.575  10.580   7.230
   93POPC   C2B 1667   0.830  10.741   6.918
   93POPC   C3B 1668   0.711  10.611   6.549
   93POPC   C4B 1669   0.519  10.635   6.160
   94POPC   NC3 1670   4.560   0.557   8.092
   94POPC   PO4 1671   4.035   0.158   7.885
   94POPC   GL1 1672   4.279   0.383   7.565
   94POPC   GL2 1673   4.611   0.313   7.656
   94POPC   C1A 1674   4.161   0.450   7.105
   94POPC   D2A 1675   3.854   0.310   6.740
   94POPC   C3A 1676   4.021   0.441   6.306
   94POPC   C4A 1677   4.381   0.700   6.165
   94POPC   C1B 1678   4.647   0.185   7.233
   94POPC   C2B 1679   4.577   0.228   6.791
   94POPC   C3B 1680   4.504   0.200   6.364
   94POPC   C4B 1681   4.423  11.350   6.085
   95POPC   NC3 1682   7.123   2.052   7.939
   95POPC   PO4 1683   7.777   2.108   8.119
   95POPC   GL1 1684   7.574   2.144   7.665
   95POPC   GL2 1685   7.415   1.823   7.539
   95POPC   C1A 1686   7.580   2.148   7.177
   95POPC   D2A 1687   7.409   1.958   6.783
   95POPC   C3A 1688   7.501   2.157   6.392
   95POPC   C4A 1689   7.465   2.017   5.975
   95POPC   C1B 1690   7.097   1.933   7.194
   95POPC   C2B 1691   6.899   2.017   6.745
   95POPC   C3B 1692   6.995   2.036   6.281
   95POPC   C4B 1693   6.742   2.131   5.923
   96POPC   NC3 1694  11.272   4.448   8.130
   96POPC   PO4 1695  11.068   3.798   8.304
   96POPC   GL1 1696  11.119   3.912   7.827
   96POPC   GL2 1697  11.067   4.211   7.745
   96POPC   C1A 1698  11.329   3.892   7.364
   96POPC   D2A 1699  11.185   4.063   6.909
   96POPC   C3A 1700  11.258   3.966   6.434
   96POPC   C4A 1701  10.968   4.214   6.133
   96POPC   C1B 1702  11.211   4.378   7.347
   96POPC   C2B 1703  11.177   4.584   6.945
   96POPC   C3B 1704  11.148   4.446   6.545
   96POPC   C4B 1705  11.412   4.451   6.176
   97POPC   NC3 1706   8.042   1.722   8.089
   97POPC   PO4 1707   8.535   2.210   8.045
   97POPC   GL1 1708   8.521   1.853   7.753
   97POPC   GL2 1709   8.245   1.624   7.654
   97POPC   C1A 1710   8.516   1.830   7.301
   97POPC   D2A 1711   8.261   1.948   6.946
   97POPC   C3A 1712   8.422   1.907   6.512
   97POPC   C4A 1713   8.278   1.648   6.207
   97POPC   C1B 1714   7.943   1.836   7.405
   97POPC   C2B 1715   7.793   1.696   7.007
   97POPC   C3B 1716   7.881   1.837   6.593
   97POPC   C4B 1717   8.021   2.103   6.256
   98POPC   NC3 1718  11.041   5.836   8.268
   98POPC   PO4 1719   0.104   5.976   7.848
   98POPC   GL1 1720  11.303   5.832   7.576
   98POPC   GL2 1721  11.129   5.609   7.753
   98POPC   C1A 1722  11.341   5.795   7.146
   98POPC   D2A 1723  11.205   5.569   6.786
   98POPC   C3A 1724  11.213   5.770   6.384
   98POPC   C4A 1725  11.008   5.988   6.042
   98POPC   C1B 1726  10.924   5.492   7.348
   98POPC   C2B 1727  10.710   5.534   6.963
   98POPC   C3B 1728  10.787   5.404   6.536
   98POPC   C4B 1729  10.777   5.570   6.148
   99POPC   NC3 1730   1.483   6.506   8.225
   99POPC   PO4 1731   0.889   6.336   7.988
   99POPC   GL1 1732   1.197   6.398   7.684
   99POPC   GL2 1733   1.288   6.744   7.723
   99POPC   C1A 1734   1.153   6.249   7.260
   99POPC   D2A 1735   1.310   6.101   6.842
   99POPC   C3A 1736   1.183   6.274   6.430
   99POPC   C4A 1737   1.490   6.395   6.121
   99POPC   C1B 1738   0.983   6.718   7.336
   99POPC   C2B 1739   1.148   6.624   6.899
   99POPC   C3B 1740   1.306   6.772   6.480
   99POPC   C4B 1741   1.083   6.714   6.101
  100POPC   NC3 1742   1.367   4.378   8.024
  100POPC   PO4 1743   0.726   4.596   8.108
  100POPC   GL1 1744   0.924   4.412   7.680
  100POPC   GL2 1745   1.266   4.162   7.576
  100POPC   C1A 1746   0.848   4.158   7.306
  100POPC   D2A 1747   1.108   4.074   6.925
  100POPC   C3A 1748   0.858   4.207   6.553
  100POPC   C4A 1749   1.008   4.151   6.128
  100POPC   C1B 1750   1.302   4.446   7.259
  100POPC   C2B 1751   1.253   4.547   6.837
  100POPC   C3B 1752   1.347   4.323   6.466
  100POPC   C4B 1753   1.409   4.531   6.098
  101POPC   NC3 1754   7.194   9.832   8.099
  101POPC   PO4 1755   7.298   9.267   7.936
  101POPC   GL1 1756   7.539   9.415   7.623
  101POPC   GL2 1757   7.476   9.745   7.669
  101POPC   C1A 1758   7.434   9.497   7.162
  101POPC   D2A 1759   7.515   9.388   6.737
  101POPC   C3A 1760   7.270   9.632   6.431
  101POPC   C4A 1761   7.138   9.435   6.066
  101POPC   C1B 1762   7.212   9.930   7.327
  101POPC   C2B 1763   7.141   9.949   6.848
  101POPC   C3B 1764   7.000  10.110   6.415
  101POPC   C4B 1765   7.028   9.943   5.971
  102POPC   NC3 1766   2.123   8.559   7.981
  102POPC   PO4 1767   1.483   8.499   8.116
  102POPC   GL1 1768   1.657   8.511   7.730
  102POPC   GL2 1769   1.738   8.868   7.764
  102POPC   C1A 1770   1.523   8.669   7.328
  102POPC   D2A 1771   1.675   8.895   6.928
  102POPC   C3A 1772   1.646   8.714   6.490
  102POPC   C4A 1773   1.766   8.451   6.108
  102POPC   C1B 1774   2.009   8.807   7.404
  102POPC   C2B 1775   2.190   8.865   7.041
  102POPC   C3B 1776   2.140   8.872   6.638
  102POPC   C4B 1777   2.121   8.836   6.221
  103POPC   NC3 1778   2.983   6.488   8.033
  103POPC   PO4 1779   2.443   5.993   8.104
  103POPC   GL1 1780   2.434   6.190   7.671
  103POPC   GL2 1781   2.588   6.494   7.686
  103POPC   C1A 1782   2.527   6.209   7.226
  103POPC   D2A 1783   2.464   6.068   6.799
  103POPC   C3A 1784   2.745   6.248   6.427
  103POPC   C4A 1785   2.560   6.445   6.045
  103POPC   C1B 1786   2.689   6.683   7.272
  103POPC   C2B 1787   2.656   6.538   6.849
  103POPC   C3B 1788   2.703   6.742   6.467
  103POPC   C4B 1789   2.911   6.841   6.094
  104POPC   NC3 1790   7.704   1.411   8.441
  104POPC   PO4 1791   7.169   1.571   7.954
  104POPC   GL1 1792   7.301   1.312   7.586
  104POPC   GL2 1793   7.476   0.991   7.705
  104POPC   C1A 1794   7.335   1.462   7.131
  104POPC   D2A 1795   7.471   1.451   6.672
  104POPC   C3A 1796   7.281   1.598   6.245
  104POPC   C4A 1797   7.443   1.491   5.786
  104POPC   C1B 1798   7.554   0.994   7.256
  104POPC   C2B 1799   7.232   0.991   6.927
  104POPC   C3B 1800   7.088   1.076   6.513
  104POPC   C4B 1801   7.475   1.127   6.270
  105POPC   NC3 1802   3.722  10.275   8.025
  105POPC   PO4 1803   3.263   9.839   8.153
  105POPC   GL1 1804   3.273  10.099   7.778
  105POPC   GL2 1805   3.257  10.485   7.797
  105POPC   C1A 1806   3.215  10.031   7.338
  105POPC   D2A 1807   3.363  10.231   6.957
  105POPC   C3A 1808   3.232  10.084   6.548
  105POPC   C4A 1809   3.507  10.155   6.235
  105POPC   C1B 1810   3.509  10.484   7.401
  105POPC   C2B 1811   3.759  10.541   7.016
  105POPC   C3B 1812   3.593  10.610   6.578
  105POPC   C4B 1813   3.843  10.558   6.196
  106POPC   NC3 1814   0.587   6.761   7.931
  106POPC   PO4 1815   0.212   6.404   8.295
  106POPC   GL1 1816   0.190   6.493   7.818
  106POPC   GL2 1817   0.462   6.324   7.641
  106POPC   C1A 1818   0.154   6.608   7.338
  106POPC   D2A 1819   0.151   6.408   6.912
  106POPC   C3A 1820   0.244   6.636   6.526
  106POPC   C4A 1821   0.266   6.628   6.088
  106POPC   C1B 1822   0.602   6.388   7.209
  106POPC   C2B 1823   0.609   6.724   6.906
  106POPC   C3B 1824   0.794   6.684   6.521
  106POPC   C4B 1825   0.692   6.374   6.238
  107POPC   NC3 1826   5.841  10.556   8.296
  107POPC   PO4 1827   5.607  11.225   8.093
  107POPC   GL1 1828   5.447  11.190   7.662
  107POPC   GL2 1829   5.721  11.364   7.586
  107POPC   C1A 1830   5.558  11.095   7.212
  107POPC   D2A 1831   5.907  10.908   7.008
  107POPC   C3A 1832   5.699  10.876   6.665
  107POPC   C4A 1833   5.683  10.957   6.257
  107POPC   C1B 1834   6.014  11.377   7.281
  107POPC   C2B 1835   5.859  11.405   6.899
  107POPC   C3B 1836   5.999  11.256   6.554
  107POPC   C4B 1837   5.976  11.403   6.200
  108POPC   NC3 1838   9.945   3.638   7.976
  108POPC   PO4 1839   9.907   3.045   7.836
  108POPC   GL1 1840   9.883   3.259   7.498
  108POPC   GL2 1841   9.858   3.597   7.470
  108POPC   C1A 1842   9.843   3.253   7.085
  108POPC   D2A 1843   9.873   3.113   6.734
  108POPC   C3A 1844   9.827   3.408   6.405
  108POPC   C4A 1845   9.633   3.376   6.006
  108POPC   C1B 1846   9.484   3.587   7.180
  108POPC   C2B 1847   9.418   3.404   6.757
  108POPC   C3B 1848   9.295   3.584   6.338
  108POPC   C4B 1849   9.472   3.854   5.994
  109POPC   NC3 1850   2.045   4.584   8.058
  109POPC   PO4 1851   2.035   3.985   8.135
  109POPC   GL1 1852   1.803   4.158   7.784
  109POPC   GL2 1853   2.131   4.189   7.645
  109POPC   C1A 1854   1.736   4.161   7.314
  109POPC   D2A 1855   1.633   4.179   6.860
  109POPC   C3A 1856   1.837   4.443   6.506
  109POPC   C4A 1857   1.898   4.760   6.149
  109POPC   C1B 1858   2.204   3.913   7.273
  109POPC   C2B 1859   2.137   4.026   6.843
  109POPC   C3B 1860   2.277   4.140   6.418
  109POPC   C4B 1861   2.000   4.193   6.080
  110POPC   NC3 1862  10.155   8.418   8.049
  110POPC   PO4 1863  10.346   9.102   8.190
  110POPC   GL1 1864  10.240   8.852   7.783
  110POPC   GL2 1865  10.535   8.648   7.692
  110POPC   C1A 1866  10.163   8.530   7.388
  110POPC   D2A 1867  10.420   8.525   6.991
  110POPC   C3A 1868  10.280   8.601   6.553
  110POPC   C4A 1869  10.278   8.757   6.113
  110POPC   C1B 1870  10.529   8.882   7.343
  110POPC   C2B 1871  10.746   8.986   7.000
  110POPC   C3B 1872  10.741   8.928   6.588
  110POPC   C4B 1873  10.714   9.017   6.196
  111POPC   NC3 1874   0.480   0.545   8.123
  111POPC   PO4 1875   0.321  11.389   8.112
  111POPC   GL1 1876   0.511   0.064   7.711
  111POPC   GL2 1877   0.480   0.437   7.592
  111POPC   C1A 1878   0.447   0.018   7.253
  111POPC   D2A 1879   0.378   0.267   6.866
  111POPC   C3A 1880   0.361   0.053   6.434
  111POPC   C4A 1881   0.459   0.139   5.968
  111POPC   C1B 1882   0.339   0.752   7.242
  111POPC   C2B 1883   0.365   0.809   6.786
  111POPC   C3B 1884   0.536   0.580   6.471
  111POPC   C4B 1885   0.825   0.507   6.172
  112POPC   NC3 1886  10.608   9.558   8.050
  112POPC   PO4 1887   9.938   9.790   8.208
  112POPC   GL1 1888  10.213   9.785   7.806
  112POPC   GL2 1889  10.383   9.449   7.635
  112POPC   C1A 1890  10.235   9.827   7.340
  112POPC   D2A 1891  10.026   9.637   6.992
  112POPC   C3A 1892  10.188   9.636   6.594
  112POPC   C4A 1893   9.992   9.675   6.172
  112POPC   C1B 1894  10.368   9.339   7.217
  112POPC   C2B 1895  10.243   9.128   6.854
  112POPC   C3B 1896  10.314   9.181   6.438
  112POPC   C4B 1897  10.463   9.471   6.127
  113POPC   NC3 1898   9.558  10.019   8.362
  113POPC   PO4 1899   9.280   9.583   7.961
  113POPC   GL1 1900   9.669   9.679   7.762
  113POPC   GL2 1901   9.880   9.430   7.636
  113POPC   C1A 1902   9.686   9.836   7.331
  113POPC   D2A 1903   9.515   9.719   6.929
  113POPC   C3A 1904   9.734   9.891   6.580
  113POPC   C4A 1905   9.539   9.922   6.185
  113POPC   C1B 1906   9.590   9.345   7.349
  113POPC   C2B 1907   9.727   9.243   6.966
  113POPC   C3B 1908   9.754   9.381   6.589
  113POPC   C4B 1909   9.571   9.361   6.229
  114POPC   NC3 1910  10.180  10.298   8.109
  114POPC   PO4 1911  10.839  10.111   8.275
  114POPC   GL1 1912  10.625  10.391   7.829
  114POPC   GL2 1913  10.345  10.261   7.633
  114POPC   C1A 1914  10.724  10.383   7.325
  114POPC   D2A 1915  10.500  10.450   6.930
  114POPC   C3A 1916  10.680  10.557   6.541
  114POPC   C4A 1917  10.752  10.229   6.302
  114POPC   C1B 1918  10.270  10.624   7.359
  114POPC   C2B 1919  10.062  10.721   6.964
  114POPC   C3B 1920  10.176  10.607   6.539
  114POPC   C4B 1921  10.349  10.460   6.109
  115POPC   NC3 1922  10.659   7.826   8.014
  115POPC   PO4 1923   9.969   7.964   8.023
  115POPC   GL1 1924  10.125   8.056   7.636
  115POPC   GL2 1925  10.461   8.128   7.640
  115POPC   C1A 1926  10.198   8.060   7.206
  115POPC   D2A 1927  10.010   8.248   6.883
  115POPC   C3A 1928  10.063   8.080   6.504
  115POPC   C4A 1929  10.078   8.289   6.151
  115POPC   C1B 1930  10.687   7.915   7.297
  115POPC   C2B 1931  10.599   8.049   6.863
  115POPC   C3B 1932  10.550   8.173   6.449
  115POPC   C4B 1933  10.521   7.893   6.119
  116POPC   NC3 1934   0.043   7.598   7.989
  116POPC   PO4 1935   0.630   7.221   7.898
  116POPC   GL1 1936   0.317   7.354   7.643
  116POPC   GL2 1937   0.172   7.009   7.667
  116POPC   C1A 1938   0.306   7.607   7.253
  116POPC   D2A 1939   0.059   7.605   6.857
  116POPC   C3A 1940   0.324   7.593   6.474
  116POPC   C4A 1941   0.648   7.449   6.178
  116POPC   C1B 1942   0.458   7.040   7.281
  116POPC   C2B 1943   0.473   7.273   6.885
  116POPC   C3B 1944   0.497   7.088   6.496
  116POPC   C4B 1945   0.669   6.965   6.089
  117POPC   NC3 1946   8.489   9.814   8.116
  117POPC   PO4 1947   7.837   9.623   8.291
  117POPC   GL1 1948   8.066   9.579   7.859
  117POPC   GL2 1949   7.976   9.882   7.743
  117POPC   C1A 1950   8.358   9.637   7.446
  117POPC   D2A 1951   8.448   9.696   6.951
  117POPC   C3A 1952   8.231   9.513   6.550
  117POPC   C4A 1953   8.135   9.706   6.185
  117POPC   C1B 1954   7.870   9.680   7.350
  117POPC   C2B 1955   7.928   9.692   6.918
  117POPC   C3B 1956   7.757   9.791   6.515
  117POPC   C4B 1957   7.702   9.419   6.232
  118POPC   NC3 1958   3.595   0.384   7.926
  118POPC   PO4 1959   3.799   1.035   7.955
  118POPC   GL1 1960   3.774   0.708   7.594
  118POPC   GL2 1961   3.784   0.350   7.458
  118POPC   C1A 1962   3.545   0.715   7.196
  118POPC   D2A 1963   3.345   0.541   6.824
  118POPC   C3A 1964   3.594   0.709   6.510
  118POPC   C4A 1965   3.654   0.749   6.054
  118POPC   C1B 1966   3.411   0.217   7.236
  118POPC   C2B 1967   3.379  11.452   6.906
  118POPC   C3B 1968   3.230   0.024   6.511
  118POPC   C4B 1969   3.356   0.368   6.244
  119POPC   NC3 1970  11.219   2.322   8.180
  119POPC   PO4 1971  10.654   2.611   8.180
  119POPC   GL1 1972  10.892   2.511   7.801
  119POPC   GL2 1973  11.232   2.693   7.835
  119POPC   C1A 1974  10.991   2.684   7.393
  119POPC   D2A 1975  10.840   2.760   7.019
  119POPC   C3A 1976  10.917   2.418   6.771
  119POPC   C4A 1977  10.915   2.407   6.321
  119POPC   C1B 1978  11.482   2.715   7.460
  119POPC   C2B 1979  11.393   2.735   7.021
  119POPC   C3B 1980  11.218   2.799   6.633
  119POPC   C4B 1981  11.423   2.722   6.291
  120POPC   NC3 1982   8.090  11.419   8.136
  120POPC   PO4 1983   7.759  10.894   8.205
  120POPC   GL1 1984   8.030  11.160   7.723
  120POPC   GL2 1985   7.830  11.393   7.534
  120POPC   C1A 1986   8.102  11.019   7.239
  120POPC   D2A 1987   8.302  11.112   6.835
  120POPC   C3A 1988   8.171  11.069   6.381
  120POPC   C4A 1989   8.002  10.812   6.051
  120POPC   C1B 1990   8.221  11.498   7.357
  120POPC   C2B 1991   8.376   0.099   6.969
  120POPC   C3B 1992   8.160   0.036   6.598
  120POPC   C4B 1993   8.245   0.060   6.194
  121POPC   NC3 1994   6.004   1.556   8.087
  121POPC   PO4 1995   5.339   1.573   8.087
  121POPC   GL1 1996   5.672   1.421   7.730
  121POPC   GL2 1997   5.910   1.112   7.680
  121POPC   C1A 1998   5.904   1.453   7.323
  121POPC   D2A 1999   5.762   1.359   6.919
  121POPC   C3A 2000   5.954   1.340   6.515
  121POPC   C4A 2001   5.737   1.309   6.095
  121POPC   C1B 2002   5.856   0.938   7.233
  121POPC   C2B 2003   5.593   0.882   6.863
  121POPC   C3B 2004   5.672   0.935   6.427
  121POPC   C4B 2005   6.097   0.973   6.158
  122POPC   NC3 2006  10.745   1.492   7.887
  122POPC   PO4 2007  11.338   1.882   8.081
  122POPC   GL1 2008  11.334   2.173   7.708
  122POPC   GL2 2009  11.239   1.861   7.558
  122POPC   C1A 2010  11.304   2.278   7.255
  122POPC   D2A 2011  11.484   2.126   6.898
  122POPC   C3A 2012  11.379   2.291   6.554
  122POPC   C4A 2013  11.363   2.241   6.144
  122POPC   C1B 2014  11.148   1.790   7.124
  122POPC   C2B 2015  11.031   1.931   6.714
  122POPC   C3B 2016  10.996   1.863   6.280
  122POPC   C4B 2017  10.913   1.664   5.875
  123POPC   NC3 2018   1.297   3.479   8.010
  123POPC   PO4 2019   1.046   4.051   8.008
  123POPC   GL1 2020   0.952   3.738   7.675
  123POPC   GL2 2021   1.287   3.616   7.515
  123POPC   C1A 2022   0.854   3.560   7.264
  123POPC   D2A 2023   1.130   3.541   6.911
  123POPC   C3A 2024   0.994   3.701   6.531
  123POPC   C4A 2025   1.151   3.660   6.125
  123POPC   C1B 2026   1.392   3.242   7.245
  123POPC   C2B 2027   1.507   3.184   6.788
  123POPC   C3B 2028   1.250   3.244   6.412
  123POPC   C4B 2029   1.330   3.208   5.928
  124POPC   NC3 2030   9.286  10.036   7.851
  124POPC   PO4 2031   9.736  10.430   8.232
  124POPC   GL1 2032   9.831  10.491   7.739
  124POPC   GL2 2033   9.839  10.154   7.712
  124POPC   C1A 2034   9.615  10.592   7.293
  124POPC   D2A 2035   9.558  10.236   6.961
  124POPC   C3A 2036   9.405  10.281   6.529
  124POPC   C4A 2037   9.388  10.658   6.315
  124POPC   C1B 2038   9.970  10.245   7.273
  124POPC   C2B 2039  10.115  10.121   6.873
  124POPC   C3B 2040  10.211  10.109   6.443
  124POPC   C4B 2041   9.872  10.305   6.237
  125POPC   NC3 2042  11.036   0.593   7.964
  125POPC   PO4 2043   0.135   0.850   8.047
  125POPC   GL1 2044  11.497   0.520   7.721
  125POPC   GL2 2045  11.291   0.200   7.717
  125POPC   C1A 2046   0.047   0.344   7.290
  125POPC   D2A 2047  11.424   0.558   6.917
  125POPC   C3A 2048   0.043   0.475   6.517
  125POPC   C4A 2049  11.482   0.247   6.160
  125POPC   C1B 2050  11.042   0.316   7.340
  125POPC   C2B 2051  10.936   0.266   6.919
  125POPC   C3B 2052  11.070   0.281   6.509
  125POPC   C4B 2053  11.061   0.539   6.195
  126POPC   NC3 2054   0.480   6.086   8.092
  126POPC   PO4 2055  11.456   5.606   8.241
  126POPC   GL1 2056   0.134   5.482   7.728
  126POPC   GL2 2057   0.483   5.654   7.724
  126POPC   C1A 2058   0.315   5.574   7.271
  126POPC   D2A 2059   0.333   5.893   6.977
  126POPC   C3A 2060   0.208   5.670   6.620
  126POPC   C4A 2061   0.376   5.620   6.230
  126POPC   C1B 2062   0.705   5.921   7.413
  126POPC   C2B 2063   0.846   5.954   6.983
  126POPC   C3B 2064   0.750   5.906   6.541
  126POPC   C4B 2065   0.814   5.893   6.104
  127POPC   NC3 2066  10.373   5.953   8.061
  127POPC   PO4 2067  10.901   6.277   8.276
  127POPC   GL1 2068  10.890   6.049   7.828
  127POPC   GL2 2069  10.645   5.771   7.692
  127POPC   C1A 2070  10.886   6.002   7.331
  127POPC   D2A 2071  10.955   6.000   6.882
  127POPC   C3A 2072  10.723   5.916   6.528
  127POPC   C4A 2073  10.567   6.239   6.242
  127POPC   C1B 2074  10.414   5.826   7.328
  127POPC   C2B 2075  10.348   5.895   6.900
  127POPC   C3B 2076  10.179   6.047   6.536
  127POPC   C4B 2077  10.314   5.787   6.253
  128POPC   NC3 2078   2.058   6.313   7.982
  128POPC   PO4 2079   1.743   6.851   8.067
  128POPC   GL1 2080   1.813   6.737   7.636
  128POPC   GL2 2081   1.706   6.435   7.648
  128POPC   C1A 2082   1.648   6.637   7.182
  128POPC   D2A 2083   1.643   6.481   6.743
  128POPC   C3A 2084   1.838   6.735   6.408
  128POPC   C4A 2085   2.266   6.904   6.295
  128POPC   C1B 2086   2.059   6.362   7.351
  128POPC   C2B 2087   2.136   6.423   6.937
  128POPC   C3B 2088   2.253   6.425   6.503
  128POPC   C4B 2089   2.015   6.331   6.141
  129POPC   NC3 2090  10.322   2.944   8.062
  129POPC   PO4 2091  10.014   2.314   8.109
  129POPC   GL1 2092  10.254   2.531   7.805
  129POPC   GL2 2093  10.036   2.628   7.579
  129POPC   C1A 2094  10.509   2.564   7.409
  129POPC   D2A 2095  10.444   2.417   6.978
  129POPC   C3A 2096  10.479   2.626   6.551
  129POPC   C4A 2097  10.299   2.524   6.124
  129POPC   C1B 2098  10.199   2.926   7.268
  129POPC   C2B 2099  10.369   2.999   6.905
  129POPC   C3B 2100  10.309   3.121   6.483
  129POPC   C4B 2101  10.480   3.001   6.125
  130POPC   NC3 2102   4.349  10.516   7.921
  130POPC   PO4 2103   3.716  10.724   8.048
  130POPC   GL1 2104   3.910  10.673   7.692
  130POPC   GL2 2105   3.980  10.361   7.594
  130POPC   C1A 2106   3.990  10.891   7.356
  130POPC   D2A 2107   4.219  10.935   6.994
  130POPC   C3A 2108   4.103  10.721   6.649
  130POPC   C4A 2109   4.361  10.634   6.295
  130POPC   C1B 2110   4.228  10.450   7.244
  130POPC   C2B 2111   4.233  10.276   6.852
  130POPC   C3B 2112   4.555  10.252   6.563
  130POPC   C4B 2113   4.588  10.173   6.143
  131POPC   NC3 2114   0.991   4.980   8.103
  131POPC   PO4 2115   1.626   4.764   8.014
  131POPC   GL1 2116   1.256   4.803   7.651
  131POPC   GL2 2117   1.012   5.085   7.624
  131POPC   C1A 2118   0.995   4.839   7.203
  131POPC   D2A 2119   0.912   4.949   6.773
  131POPC   C3A 2120   1.000   4.700   6.419
  131POPC   C4A 2121   1.101   4.973   6.156
  131POPC   C1B 2122   1.317   5.219   7.302
  131POPC   C2B 2123   1.412   5.033   6.907
  131POPC   C3B 2124   1.492   4.884   6.493
  131POPC   C4B 2125   1.481   5.266   6.283
  132POPC   NC3 2126   5.333   2.025   8.042
  132POPC   PO4 2127   5.981   2.043   8.112
  132POPC   GL1 2128   5.933   1.882   7.671
  132POPC   GL2 2129   5.587   1.909   7.615
  132POPC   C1A 2130   5.871   1.936   7.185
  132POPC   D2A 2131   5.928   1.817   6.739
  132POPC   C3A 2132   6.108   2.134   6.449
  132POPC   C4A 2133   5.967   2.496   6.206
  132POPC   C1B 2134   5.399   1.619   7.321
  132POPC   C2B 2135   5.270   1.465   6.899
  132POPC   C3B 2136   5.464   1.521   6.476
  132POPC   C4B 2137   5.800   1.787   6.229
  133POPC   NC3 2138   0.005  11.225   7.806
  133POPC   PO4 2139   0.204  10.831   8.299
  133POPC   GL1 2140   0.236  10.776   7.771
  133POPC   GL2 2141   0.440  11.049   7.607
  133POPC   C1A 2142   0.118  10.858   7.274
  133POPC   D2A 2143  11.471  11.039   6.843
  133POPC   C3A 2144   0.176  10.929   6.404
  133POPC   C4A 2145   0.144  10.804   5.892
  133POPC   C1B 2146   0.745  11.085   7.290
  133POPC   C2B 2147   0.804  11.293   6.914
  133POPC   C3B 2148   0.648  11.128   6.529
  133POPC   C4B 2149   0.513  11.144   6.078
  134POPC   NC3 2150   2.287   3.600   8.077
  134POPC   PO4 2151   1.685   3.250   7.946
  134POPC   GL1 2152   1.945   3.324   7.585
  134POPC   GL2 2153   1.977   3.675   7.654
  134POPC   C1A 2154   1.880   3.129   7.160
  134POPC   D2A 2155   2.011   3.017   6.753
  134POPC   C3A 2156   1.926   3.361   6.483
  134POPC   C4A 2157   1.639   3.510   6.180
  134POPC   C1B 2158   1.743   3.644   7.244
  134POPC   C2B 2159   1.652   3.674   6.806
  134POPC   C3B 2160   1.838   3.878   6.453
  134POPC   C4B 2161   2.141   3.706   6.133
  135POPC   NC3 2162   1.610   2.874   8.194
  135POPC   PO4 2163   2.222   2.439   8.046
  135POPC   GL1 2164   1.893   2.535   7.799
  135POPC   GL2 2165   1.996   2.867   7.822
  135POPC   C1A 2166   1.802   2.599   7.350
  135POPC   D2A 2167   1.842   2.343   6.963
  135POPC   C3A 2168   1.833   2.563   6.574
  135POPC   C4A 2169   1.646   2.483   6.176
  135POPC   C1B 2170   2.213   2.875   7.441
  135POPC   C2B 2171   2.300   2.550   7.093
  135POPC   C3B 2172   2.330   2.521   6.622
  135POPC   C4B 2173   2.171   2.820   6.298
  136POPC   NC3 2174   2.765   8.878   8.030
  136POPC   PO4 2175   2.495   8.428   7.759
  136POPC   GL1 2176   2.460   8.902   7.609
  136POPC   GL2 2177   2.770   9.116   7.563
  136POPC   C1A 2178   2.385   9.245   7.271
  136POPC   D2A 2179   2.553   9.180   6.842
  136POPC   C3A 2180   2.568   9.053   6.407
  136POPC   C4A 2181   2.592   8.848   5.985
  136POPC   C1B 2182   2.690   8.807   7.182
  136POPC   C2B 2183   2.580   8.623   6.750
  136POPC   C3B 2184   2.861   8.639   6.376
  136POPC   C4B 2185   3.075   9.038   6.223
  137POPC   NC3 2186   2.011   2.041   8.170
  137POPC   PO4 2187   1.504   1.588   8.047
  137POPC   GL1 2188   1.875   1.654   7.757
  137POPC   GL2 2189   2.137   1.905   7.704
  137POPC   C1A 2190   1.822   1.591   7.327
  137POPC   D2A 2191   1.581   1.805   6.983
  137POPC   C3A 2192   1.687   1.695   6.549
  137POPC   C4A 2193   1.749   1.961   6.176
  137POPC   C1B 2194   1.998   2.074   7.361
  137POPC   C2B 2195   2.087   1.874   6.965
  137POPC   C3B 2196   2.035   2.078   6.574
  137POPC   C4B 2197   2.142   2.301   6.193
  138POPC   NC3 2198   1.732  11.098   8.349
  138POPC   PO4 2199   1.700   0.180   8.038
  138POPC   GL1 2200   1.685  11.313   7.760
  138POPC   GL2 2201   1.970  11.065   7.793
  138POPC   C1A 2202   1.686  11.186   7.320
  138POPC   D2A 2203   1.907  11.290   6.940
  138POPC   C3A 2204   1.745  11.204   6.541
  138POPC   C4A 2205   1.744   0.041   6.261
  138POPC   C1B 2206   2.231  10.987   7.417
  138POPC   C2B 2207   2.207  10.868   6.989
  138POPC   C3B 2208   2.296  11.087   6.620
  138POPC   C4B 2209   2.142  11.047   6.231
  139POPC   NC3 2210   4.501  11.479   8.047
  139POPC   PO4 2211   4.715  10.776   8.051
  139POPC   GL1 2212   4.451  10.981   7.722
  139POPC   GL2 2213   4.125  11.151   7.780
  139POPC   C1A 2214   4.605  10.986   7.314
  139POPC   D2A 2215   4.652  11.235   6.964
  139POPC   C3A 2216   4.530  11.040   6.589
  139POPC   C4A 2217   4.742  11.010   6.236
  139POPC   C1B 2218   4.272  11.350   7.380
  139POPC   C2B 2219   4.168  11.451   6.968
  139POPC   C3B 2220   4.156  11.386   6.548
  139POPC   C4B 2221   4.061  11.048   6.268
  140POPC   NC3 2222   9.472   1.202   8.058
  140POPC   PO4 2223  10.063   1.315   8.122
  140POPC   GL1 2224   9.786   1.374   7.695
  140POPC   GL2 2225   9.539   1.081   7.583
  140POPC   C1A 2226   9.678   1.458   7.243
  140POPC   D2A 2227   9.351   1.456   6.900
  140POPC   C3A 2228   9.505   1.439   6.482
  140POPC   C4A 2229   9.867   1.420   6.249
  140POPC   C1B 2230   9.618   0.952   7.173
  140POPC   C2B 2231   9.730   1.116   6.791
  140POPC   C3B 2232   9.785   0.950   6.386
  140POPC   C4B 2233   9.421   0.843   6.146
  141POPC   NC3 2234   2.861  10.043   8.282
  141POPC   PO4 2235   2.718  10.671   8.052
  141POPC   GL1 2236   2.731  10.570   7.656
  141POPC   GL2 2237   2.800  10.230   7.611
  141POPC   C1A 2238   2.468  10.535   7.298
  141POPC   D2A 2239   2.502  10.367   6.900
  141POPC   C3A 2240   2.434  10.597   6.560
  141POPC   C4A 2241   2.518  10.406   6.204
  141POPC   C1B 2242   2.973  10.473   7.215
  141POPC   C2B 2243   2.979  10.495   6.739
  141POPC   C3B 2244   3.015  10.546   6.316
  141POPC   C4B 2245   2.962  10.197   6.089
  142POPC   NC3 2246   6.940   0.173   7.958
  142POPC   PO4 2247   7.694   0.131   7.987
  142POPC   GL1 2248   7.397   0.157   7.647
  142POPC   GL2 2249   7.300   0.493   7.726
  142POPC   C1A 2250   7.330   0.106   7.183
  142POPC   D2A 2251   7.443   0.082   6.719
  142POPC   C3A 2252   7.207   0.196   6.351
  142POPC   C4A 2253   7.394   0.287   5.907
  142POPC   C1B 2254   7.195   0.633   7.315
  142POPC   C2B 2255   7.141   0.492   6.890
  142POPC   C3B 2256   7.374   0.637   6.539
  142POPC   C4B 2257   7.210   0.705   6.148
  143POPC   NC3 2258   2.958   9.634   7.859
  143POPC   PO4 2259   2.424   9.972   8.103
  143POPC   GL1 2260   2.358   9.923   7.667
  143POPC   GL2 2261   2.508   9.601   7.598
  143POPC   C1A 2262   2.531   9.991   7.246
  143POPC   D2A 2263   2.878  10.031   6.947
  143POPC   C3A 2264   2.701  10.043   6.519
  143POPC   C4A 2265   2.422   9.883   6.164
  143POPC   C1B 2266   2.817   9.559   7.216
  143POPC   C2B 2267   2.859   9.570   6.753
  143POPC   C3B 2268   2.770   9.546   6.331
  143POPC   C4B 2269   2.725   9.320   5.975
  144POPC   NC3 2270   1.688   7.302   7.971
  144POPC   PO4 2271   1.949   7.820   8.335
  144POPC   GL1 2272   1.882   7.884   7.850
  144POPC   GL2 2273   2.097   8.108   7.719
  144POPC   C1A 2274   1.804   7.814   7.355
  144POPC   D2A 2275   1.947   7.933   6.894
  144POPC   C3A 2276   1.774   7.724   6.482
  144POPC   C4A 2277   1.786   7.859   6.035
  144POPC   C1B 2278   1.925   8.309   7.328
  144POPC   C2B 2279   2.011   8.436   6.886
  144POPC   C3B 2280   2.134   8.370   6.463
  144POPC   C4B 2281   2.227   8.121   6.088
  145POPC   NC3 2282   2.595   2.755   8.066
  145POPC   PO4 2283   3.101   2.327   8.227
  145POPC   GL1 2284   2.826   2.538   7.703
  145POPC   GL2 2285   2.504   2.501   7.591
  145POPC   C1A 2286   2.864   2.390   7.220
  145POPC   D2A 2287   2.789   2.542   6.826
  145POPC   C3A 2288   2.892   2.372   6.451
  145POPC   C4A 2289   3.062   2.459   6.082
  145POPC   C1B 2290   2.676   2.847   7.260
  145POPC   C2B 2291   2.519   2.958   6.823
  145POPC   C3B 2292   2.681   2.845   6.370
  145POPC   C4B 2293   2.517   3.016   5.932
  146POPC   NC3 2294  11.209   1.501   8.319
  146POPC   PO4 2295  10.810   1.029   8.071
  146POPC   GL1 2296  11.002   1.103   7.653
  146POPC   GL2 2297  11.379   1.112   7.682
  146POPC   C1A 2298  11.079   1.279   7.206
  146POPC   D2A 2299  11.145   1.441   6.744
  146POPC   C3A 2300  10.975   1.313   6.371
  146POPC   C4A 2301  10.682   0.996   6.388
  146POPC   C1B 2302  11.289   0.813   7.343
  146POPC   C2B 2303  10.993   0.803   6.985
  146POPC   C3B 2304  11.160   0.870   6.567
  146POPC   C4B 2305  11.452   0.864   6.205
  147POPC   NC3 2306   1.903   1.285   8.096
  147POPC   PO4 2307   2.343   1.709   8.126
  147POPC   GL1 2308   2.297   1.401   7.740
  147POPC   GL2 2309   2.056   1.113   7.655
  147POPC   C1A 2310   2.350   1.482   7.277
  147POPC   D2A 2311   2.394   1.258   6.849
  147POPC   C3A 2312   2.226   1.591   6.545
  147POPC   C4A 2313   1.987   1.523   6.141
  147POPC   C1B 2314   2.046   1.086   7.218
  147POPC   C2B 2315   1.892   1.347   6.883
  147POPC   C3B 2316   1.880   1.180   6.484
  147POPC   C4B 2317   1.600   1.164   6.143
  148POPC   NC3 2318  11.486  11.224   8.406
  148POPC   PO4 2319  11.247  10.854   7.902
  148POPC   GL1 2320  11.147  11.048   7.506
  148POPC   GL2 2321  10.941  11.311   7.664
  148POPC   C1A 2322  11.331  11.381   7.216
  148POPC   D2A 2323  11.417   0.056   6.809
  148POPC   C3A 2324  11.339  11.325   6.420
  148POPC   C4A 2325   0.038  11.271   6.014
  148POPC   C1B 2326  10.819  11.325   7.248
  148POPC   C2B 2327  10.988  11.256   6.865
  148POPC   C3B 2328  10.835  11.334   6.507
  148POPC   C4B 2329  10.893  11.143   6.175
  149POPC   NC3 2330   5.202   8.830   8.090
  149POPC   PO4 2331   4.653   8.431   8.091
  149POPC   GL1 2332   4.846   8.656   7.708
  149POPC   GL2 2333   4.882   9.028   7.726
  149POPC   C1A 2334   5.051   8.786   7.299
  149POPC   D2A 2335   4.917   8.940   6.897
  149POPC   C3A 2336   4.998   8.784   6.505
  149POPC   C4A 2337   4.696   8.455   6.368
  149POPC   C1B 2338   4.866   9.270   7.331
  149POPC   C2B 2339   4.742   9.409   6.925
  149POPC   C3B 2340   4.836   9.349   6.490
  149POPC   C4B 2341   5.096   9.468   6.114
  150POPC   NC3 2342   4.381   9.525   8.070
  150POPC   PO4 2343   4.501  10.108   8.042
  150POPC   GL1 2344   4.180   9.902   7.731
  150POPC   GL2 2345   4.087   9.525   7.660
  150POPC   C1A 2346   4.233   9.892   7.260
  150POPC   D2A 2347   4.547   9.875   6.906
  150POPC   C3A 2348   4.314   9.826   6.498
  150POPC   C4A 2349   4.068  10.078   6.216
  150POPC   C1B 2350   4.338   9.369   7.302
  150POPC   C2B 2351   4.221   9.477   6.876
  150POPC   C3B 2352   4.214   9.332   6.445
  150POPC   C4B 2353   4.124   9.519   6.051
  151POPC   NC3 2354   8.959   2.017   8.007
  151POPC   PO4 2355   9.189   1.446   7.782
  151POPC   GL1 2356   8.983   1.731   7.557
  151POPC   GL2 2357   8.955   2.104   7.518
  151POPC   C1A 2358   9.002   1.726   7.150
  151POPC   D2A 2359   8.748   1.747   6.855
  151POPC   C3A 2360   9.006   1.711   6.545
  151POPC   C4A 2361   8.811   1.774   6.179
  151POPC   C1B 2362   8.828   2.203   7.105
  151POPC   C2B 2363   9.110   2.151   6.768
  151POPC   C3B 2364   9.085   2.200   6.330
  151POPC   C4B 2365   8.683   2.300   6.153
  152POPC   NC3 2366  10.565  11.309   8.027
  152POPC   PO4 2367  10.258  10.755   8.011
  152POPC   GL1 2368  10.415  11.014   7.635
  152POPC   GL2 2369  10.401  11.363   7.573
  152POPC   C1A 2370  10.365  11.092   7.173
  152POPC   D2A 2371  10.587  10.949   6.886
  152POPC   C3A 2372  10.421  11.065   6.569
  152POPC   C4A 2373  10.418  10.939   6.199
  152POPC   C1B 2374  10.048   0.024   7.378
  152POPC   C2B 2375  10.024   0.181   6.986
  152POPC   C3B 2376  10.061   0.070   6.567
  152POPC   C4B 2377  10.252  11.410   6.216
  153POPC   NC3 2378   2.014   9.523   8.170
  153POPC   PO4 2379   2.324   8.977   8.082
  153POPC   GL1 2380   2.092   9.252   7.718
  153POPC   GL2 2381   1.904   9.595   7.691
  153POPC   C1A 2382   1.855   9.270   7.301
  153POPC   D2A 2383   1.978   9.327   6.876
  153POPC   C3A 2384   1.875   9.245   6.432
  153POPC   C4A 2385   2.234   9.344   6.169
  153POPC   C1B 2386   1.812   9.789   7.310
  153POPC   C2B 2387   2.084   9.852   6.962
  153POPC   C3B 2388   2.183   9.683   6.571
  153POPC   C4B 2389   1.931   9.746   6.222
  154POPC   NC3 2390   6.062  11.270   7.928
  154POPC   PO4 2391   6.191  10.650   7.925
  154POPC   GL1 2392   6.368  10.919   7.582
  154POPC   GL2 2393   6.505  11.273   7.590
  154POPC   C1A 2394   6.415  11.037   7.159
  154POPC   D2A 2395   6.668  11.050   6.795
  154POPC   C3A 2396   6.311  10.885   6.625
  154POPC   C4A 2397   6.170  10.852   6.209
  154POPC   C1B 2398   6.839  11.308   7.234
  154POPC   C2B 2399   6.923   0.024   6.846
  154POPC   C3B 2400   6.718   0.052   6.452
  154POPC   C4B 2401   6.465  11.256   6.276
  155POPC   NC3 2402   8.285   8.836   8.157
  155POPC   PO4 2403   8.955   8.812   8.175
  155POPC   GL1 2404   8.808   8.925   7.772
  155POPC   GL2 2405   8.614   8.652   7.703
  155POPC   C1A 2406   8.742   9.033   7.335
  155POPC   D2A 2407   8.594   8.804   6.961
  155POPC   C3A 2408   8.470   9.085   6.666
  155POPC   C4A 2409   8.681   9.227   6.307
  155POPC   C1B 2410   9.003   8.596   7.410
  155POPC   C2B 2411   9.065   8.627   6.939
  155POPC   C3B 2412   8.929   8.866   6.574
  155POPC   C4B 2413   8.810   8.756   6.139
  156POPC   NC3 2414   4.120   1.356   7.929
  156POPC   PO4 2415   4.641   0.997   7.971
  156POPC   GL1 2416   4.497   1.204   7.619
  156POPC   GL2 2417   4.433   0.889   7.459
  156POPC   C1A 2418   4.351   1.354   7.225
  156POPC   D2A 2419   4.358   1.091   6.883
  156POPC   C3A 2420   4.391   1.325   6.554
  156POPC   C4A 2421   4.447   1.362   6.174
  156POPC   C1B 2422   4.040   0.943   7.260
  156POPC   C2B 2423   3.852   1.008   6.864
  156POPC   C3B 2424   4.054   0.944   6.474
  156POPC   C4B 2425   4.045   1.072   6.049
  157POPC   NC3 2426   0.897   8.126   3.986
  157POPC   PO4 2427   1.456   7.765   3.951
  157POPC   GL1 2428   1.313   7.993   4.301
  157POPC   GL2 2429   1.250   8.343   4.297
  157POPC   C1A 2430   1.345   7.937   4.736
  157POPC   D2A 2431   1.254   7.609   5.028
  157POPC   C3A 2432   1.295   7.858   5.379
  157POPC   C4A 2433   1.348   7.753   5.783
  157POPC   C1B 2434   0.953   8.255   4.647
  157POPC   C2B 2435   0.915   8.015   5.020
  157POPC   C3B 2436   0.857   8.119   5.440
  157POPC   C4B 2437   1.091   8.195   5.779
  158POPC   NC3 2438   3.571   1.786   4.116
  158POPC   PO4 2439   4.075   2.250   3.874
  158POPC   GL1 2440   3.826   2.190   4.362
  158POPC   GL2 2441   3.494   2.039   4.547
  158POPC   C1A 2442   3.858   2.237   4.801
  158POPC   D2A 2443   3.533   2.023   5.073
  158POPC   C3A 2444   3.549   2.184   5.481
  158POPC   C4A 2445   3.475   2.187   5.905
  158POPC   C1B 2446   3.458   1.616   4.743
  158POPC   C2B 2447   3.585   1.424   5.135
  158POPC   C3B 2448   3.712   1.658   5.469
  158POPC   C4B 2449   3.342   1.743   5.719
  159POPC   NC3 2450   0.719   5.677   3.956
  159POPC   PO4 2451   0.876   6.279   3.932
  159POPC   GL1 2452   0.608   6.138   4.268
  159POPC   GL2 2453   0.378   5.881   4.252
  159POPC   C1A 2454   0.621   5.949   4.695
  159POPC   D2A 2455   0.783   5.846   5.115
  159POPC   C3A 2456   0.509   5.794   5.461
  159POPC   C4A 2457   0.616   5.544   5.795
  159POPC   C1B 2458   0.292   5.577   4.628
  159POPC   C2B 2459   0.177   5.727   5.055
  159POPC   C3B 2460   0.032   5.569   5.479
  159POPC   C4B 2461  11.465   5.736   5.917
  160POPC   NC3 2462   2.047   4.546   4.121
  160POPC   PO4 2463   1.720   4.099   3.799
  160POPC   GL1 2464   1.595   4.065   4.246
  160POPC   GL2 2465   1.914   4.079   4.456
  160POPC   C1A 2466   1.480   4.290   4.634
  160POPC   D2A 2467   1.777   4.434   4.912
  160POPC   C3A 2468   1.670   4.327   5.330
  160POPC   C4A 2469   1.746   4.456   5.737
  160POPC   C1B 2470   2.203   3.794   4.747
  160POPC   C2B 2471   2.258   3.791   5.222
  160POPC   C3B 2472   2.131   4.077   5.591
  160POPC   C4B 2473   2.270   4.496   5.788
  161POPC   NC3 2474   0.481   1.482   4.196
  161POPC   PO4 2475   0.443   1.000   3.738
  161POPC   GL1 2476   0.399   0.966   4.258
  161POPC   GL2 2477   0.534   1.141   4.561
  161POPC   C1A 2478   0.119   0.898   4.687
  161POPC   D2A 2479   0.246   1.174   5.037
  161POPC   C3A 2480   0.400   1.050   5.429
  161POPC   C4A 2481   0.237   1.090   5.848
  161POPC   C1B 2482   0.593   1.513   4.850
  161POPC   C2B 2483   0.568   1.527   5.293
  161POPC   C3B 2484   0.590   1.425   5.701
  161POPC   C4B 2485   0.735   0.978   5.853
  162POPC   NC3 2486   2.282   1.526   4.097
  162POPC   PO4 2487   2.534   0.896   3.906
  162POPC   GL1 2488   2.406   1.047   4.323
  162POPC   GL2 2489   2.049   1.097   4.323
  162POPC   C1A 2490   2.346   0.893   4.764
  162POPC   D2A 2491   2.071   0.903   5.146
  162POPC   C3A 2492   2.243   1.007   5.547
  162POPC   C4A 2493   2.067   1.012   5.998
  162POPC   C1B 2494   1.960   1.257   4.748
  162POPC   C2B 2495   1.838   1.350   5.191
  162POPC   C3B 2496   1.872   1.348   5.637
  162POPC   C4B 2497   1.577   1.588   5.814
  163POPC   NC3 2498   1.258   3.279   4.064
  163POPC   PO4 2499   0.820   3.669   3.739
  163POPC   GL1 2500   0.860   3.498   4.299
  163POPC   GL2 2501   1.171   3.516   4.503
  163POPC   C1A 2502   0.840   3.355   4.800
  163POPC   D2A 2503   0.978   3.558   5.221
  163POPC   C3A 2504   0.915   3.431   5.680
  163POPC   C4A 2505   0.850   3.226   6.101
  163POPC   C1B 2506   1.458   3.294   4.713
  163POPC   C2B 2507   1.509   3.450   5.073
  163POPC   C3B 2508   1.507   3.347   5.461
  163POPC   C4B 2509   1.353   3.689   5.676
  164POPC   NC3 2510   9.615   7.518   3.855
  164POPC   PO4 2511   9.797   6.990   4.004
  164POPC   GL1 2512   9.714   7.262   4.337
  164POPC   GL2 2513   9.946   7.502   4.383
  164POPC   C1A 2514   9.606   7.292   4.787
  164POPC   D2A 2515   9.339   7.516   5.118
  164POPC   C3A 2516   9.387   7.334   5.547
  164POPC   C4A 2517   9.506   7.353   5.970
  164POPC   C1B 2518  10.146   7.388   4.775
  164POPC   C2B 2519  10.076   7.065   5.092
  164POPC   C3B 2520   9.850   7.080   5.476
  164POPC   C4B 2521   9.932   7.465   5.705
  165POPC   NC3 2522  11.210   3.067   3.996
  165POPC   PO4 2523  10.881   2.417   3.972
  165POPC   GL1 2524  10.996   2.524   4.367
  165POPC   GL2 2525  11.316   2.713   4.370
  165POPC   C1A 2526  11.154   2.428   4.771
  165POPC   D2A 2527  10.911   2.558   5.098
  165POPC   C3A 2528  11.118   2.447   5.438
  165POPC   C4A 2529  11.239   2.625   5.824
  165POPC   C1B 2530  11.487   2.835   4.794
  165POPC   C2B 2531  11.301   2.902   5.194
  165POPC   C3B 2532  11.272   3.083   5.573
  165POPC   C4B 2533   0.012   3.049   5.936
  166POPC   NC3 2534  11.136   8.758   3.717
  166POPC   PO4 2535  10.939   9.083   4.325
  166POPC   GL1 2536  11.012   8.689   4.488
  166POPC   GL2 2537  11.220   8.629   4.225
  166POPC   C1A 2538  11.152   8.662   4.913
  166POPC   D2A 2539  11.249   9.030   5.157
  166POPC   C3A 2540  10.929   9.055   5.448
  166POPC   C4A 2541  10.897   8.787   5.795
  166POPC   C1B 2542  11.404   8.368   4.577
  166POPC   C2B 2543   0.010   8.323   5.056
  166POPC   C3B 2544   0.010   8.641   5.408
  166POPC   C4B 2545  11.382   8.677   5.830
  167POPC   NC3 2546   8.806   5.427   3.934
  167POPC   PO4 2547   8.525   5.984   3.949
  167POPC   GL1 2548   8.676   5.735   4.323
  167POPC   GL2 2549   9.035   5.628   4.349
  167POPC   C1A 2550   8.758   5.717   4.779
  167POPC   D2A 2551   8.718   5.446   5.142
  167POPC   C3A 2552   8.711   5.558   5.591
  167POPC   C4A 2553   8.456   5.738   5.951
  167POPC   C1B 2554   9.274   5.823   4.705
  167POPC   C2B 2555   9.122   5.829   5.153
  167POPC   C3B 2556   9.186   5.763   5.608
  167POPC   C4B 2557   8.965   5.744   6.018
  168POPC   NC3 2558   8.368   3.543   4.032
  168POPC   PO4 2559   8.037   3.943   4.204
  168POPC   GL1 2560   8.154   3.591   4.508
  168POPC   GL2 2561   8.451   3.355   4.497
  168POPC   C1A 2562   8.256   3.485   4.947
  168POPC   D2A 2563   8.548   3.560   5.288
  168POPC   C3A 2564   8.341   3.669   5.696
  168POPC   C4A 2565   7.933   3.664   5.925
  168POPC   C1B 2566   8.486   3.031   4.828
  168POPC   C2B 2567   8.364   3.064   5.274
  168POPC   C3B 2568   8.215   3.122   5.704
  168POPC   C4B 2569   8.149   2.870   6.085
  169POPC   NC3 2570   8.989   9.066   4.098
  169POPC   PO4 2571   8.442   9.180   3.701
  169POPC   GL1 2572   8.539   8.859   4.190
  169POPC   GL2 2573   8.788   8.638   4.303
  169POPC   C1A 2574   8.599   8.902   4.696
  169POPC   D2A 2575   8.705   8.657   5.094
  169POPC   C3A 2576   8.632   8.757   5.535
  169POPC   C4A 2577   8.680   9.106   5.775
  169POPC   C1B 2578   9.057   8.682   4.698
  169POPC   C2B 2579   9.208   8.610   5.130
  169POPC   C3B 2580   9.133   8.827   5.525
  169POPC   C4B 2581   9.252   8.669   5.914
  170POPC   NC3 2582  10.525   1.357   3.902
  170POPC   PO4 2583  10.066   0.796   3.961
  170POPC   GL1 2584  10.073   1.232   4.138
  170POPC   GL2 2585  10.345   1.125   4.328
  170POPC   C1A 2586  10.048   1.502   4.528
  170POPC   D2A 2587  10.174   1.368   4.932
  170POPC   C3A 2588  10.126   1.517   5.343
  170POPC   C4A 2589  10.019   1.422   5.767
  170POPC   C1B 2590  10.581   1.161   4.704
  170POPC   C2B 2591  10.519   1.083   5.160
  170POPC   C3B 2592  10.458   1.217   5.584
  170POPC   C4B 2593  10.696   1.215   5.921
  171POPC   NC3 2594   8.212   8.775   3.827
  171POPC   PO4 2595   8.512   9.349   4.182
  171POPC   GL1 2596   8.200   9.159   4.423
  171POPC   GL2 2597   8.042   8.907   4.274
  171POPC   C1A 2598   8.152   9.096   4.830
  171POPC   D2A 2599   8.290   8.943   5.206
  171POPC   C3A 2600   8.194   9.110   5.584
  171POPC   C4A 2601   8.280   9.281   6.008
  171POPC   C1B 2602   8.192   8.627   4.597
  171POPC   C2B 2603   8.225   8.484   5.011
  171POPC   C3B 2604   8.222   8.465   5.477
  171POPC   C4B 2605   7.959   8.463   5.855
  172POPC   NC3 2606   6.582   0.406   3.692
  172POPC   PO4 2607   7.115   0.625   3.927
  172POPC   GL1 2608   6.912   0.316   4.196
  172POPC   GL2 2609   6.556   0.349   4.200
  172POPC   C1A 2610   6.845   0.248   4.649
  172POPC   D2A 2611   6.879   0.416   5.091
  172POPC   C3A 2612   6.752   0.326   5.537
  172POPC   C4A 2613   6.864   0.330   5.999
  172POPC   C1B 2614   6.328   0.406   4.580
  172POPC   C2B 2615   6.342   0.501   5.025
  172POPC   C3B 2616   6.258   0.401   5.464
  172POPC   C4B 2617   6.267   0.620   5.840
  173POPC   NC3 2618   3.538   8.271   3.572
  173POPC   PO4 2619   3.023   8.114   3.933
  173POPC   GL1 2620   3.008   8.326   4.374
  173POPC   GL2 2621   3.366   8.280   4.409
  173POPC   C1A 2622   3.153   8.393   4.852
  173POPC   D2A 2623   3.361   8.136   5.231
  173POPC   C3A 2624   3.427   8.250   5.690
  173POPC   C4A 2625   3.570   8.420   6.097
  173POPC   C1B 2626   3.427   7.947   4.737
  173POPC   C2B 2627   3.683   7.744   5.092
  173POPC   C3B 2628   3.719   7.832   5.548
  173POPC   C4B 2629   3.964   8.116   5.816
  174POPC   NC3 2630   9.500   9.785   3.889
  174POPC   PO4 2631  10.042   9.368   3.985
  174POPC   GL1 2632   9.759   9.535   4.286
  174POPC   GL2 2633   9.604   9.251   4.408
  174POPC   C1A 2634   9.829   9.832   4.648
  174POPC   D2A 2635   9.841  10.039   5.059
  174POPC   C3A 2636   9.615   9.968   5.441
  174POPC   C4A 2637   9.842  10.025   5.803
  174POPC   C1B 2638   9.587   9.413   4.826
  174POPC   C2B 2639   9.867   9.517   5.186
  174POPC   C3B 2640   9.866   9.516   5.644
  174POPC   C4B 2641   9.452   9.589   5.798
  175POPC   NC3 2642   9.092   0.271   3.977
  175POPC   PO4 2643   8.577   0.673   3.750
  175POPC   GL1 2644   8.859   0.553   4.288
  175POPC   GL2 2645   8.793   0.250   4.389
  175POPC   C1A 2646   8.851   0.693   4.749
  175POPC   D2A 2647   8.654   0.740   5.170
  175POPC   C3A 2648   8.921   0.642   5.514
  175POPC   C4A 2649   9.371   0.679   5.675
  175POPC   C1B 2650   8.769   0.029   4.756
  175POPC   C2B 2651   8.853   0.224   5.125
  175POPC   C3B 2652   8.627   0.210   5.478
  175POPC   C4B 2653   8.468   0.334   5.834
  176POPC   NC3 2654   8.114   9.442   3.897
  176POPC   PO4 2655   7.740   8.904   3.852
  176POPC   GL1 2656   7.739   9.303   4.198
  176POPC   GL2 2657   8.016   9.618   4.340
  176POPC   C1A 2658   7.750   9.354   4.653
  176POPC   D2A 2659   7.747   9.288   5.069
  176POPC   C3A 2660   7.768   9.633   5.341
  176POPC   C4A 2661   7.972   9.559   5.717
  176POPC   C1B 2662   8.173   9.644   4.769
  176POPC   C2B 2663   8.239   9.459   5.179
  176POPC   C3B 2664   8.477   9.530   5.528
  176POPC   C4B 2665   8.369   9.896   5.756
  177POPC   NC3 2666   2.977   0.314   4.016
  177POPC   PO4 2667   2.441   0.096   3.805
  177POPC   GL1 2668   2.522   0.246   4.244
  177POPC   GL2 2669   2.658   0.593   4.313
  177POPC   C1A 2670   2.423   0.326   4.688
  177POPC   D2A 2671   2.219   0.436   5.051
  177POPC   C3A 2672   2.488   0.498   5.400
  177POPC   C4A 2673   2.528   0.285   5.805
  177POPC   C1B 2674   2.833   0.660   4.758
  177POPC   C2B 2675   2.974   0.625   5.214
  177POPC   C3B 2676   2.890   0.756   5.659
  177POPC   C4B 2677   3.007   0.719   6.111
  178POPC   NC3 2678   2.145  11.263   3.945
  178POPC   PO4 2679   1.641  11.045   3.564
  178POPC   GL1 2680   1.663  11.131   4.125
  178POPC   GL2 2681   1.940  11.094   4.368
  178POPC   C1A 2682   1.569  11.313   4.593
  178POPC   D2A 2683   1.869  11.178   4.959
  178POPC   C3A 2684   1.766  11.233   5.424
  178POPC   C4A 2685   1.791  11.116   5.890
  178POPC   C1B 2686   2.286  11.319   4.572
  178POPC   C2B 2687   2.373  11.396   4.982
  178POPC   C3B 2688   2.359  11.114   5.309
  178POPC   C4B 2689   2.349  11.164   5.754
  179POPC   NC3 2690  10.688   8.765   4.100
  179POPC   PO4 2691  10.074   8.505   3.979
  179POPC   GL1 2692  10.144   8.892   4.241
  179POPC   GL2 2693  10.362   8.787   4.481
  179POPC   C1A 2694   9.981   9.046   4.668
  179POPC   D2A 2695  10.168   8.889   5.062
  179POPC   C3A 2696  10.022   8.925   5.501
  179POPC   C4A 2697  10.100   8.484   5.677
  179POPC   C1B 2698  10.634   8.793   4.810
  179POPC   C2B 2699  10.703   8.690   5.177
  179POPC   C3B 2700  10.494   8.748   5.515
  179POPC   C4B 2701  10.454   9.103   5.768
  180POPC   NC3 2702   2.410  10.300   3.998
  180POPC   PO4 2703   3.025   9.960   3.898
  180POPC   GL1 2704   2.871  10.147   4.288
  180POPC   GL2 2705   2.728  10.435   4.358
  180POPC   C1A 2706   2.774  10.012   4.703
  180POPC   D2A 2707   3.019  10.126   5.079
  180POPC   C3A 2708   2.845  10.167   5.489
  180POPC   C4A 2709   2.454  10.174   5.739
  180POPC   C1B 2710   2.883  10.493   4.726
  180POPC   C2B 2711   2.577  10.405   5.048
  180POPC   C3B 2712   2.487  10.593   5.431
  180POPC   C4B 2713   2.782  10.579   5.797
  181POPC   NC3 2714  11.360   4.267   4.005
  181POPC   PO4 2715  11.279   4.916   3.788
  181POPC   GL1 2716  11.281   4.722   4.243
  181POPC   GL2 2717  11.042   4.438   4.351
  181POPC   C1A 2718  11.421   4.609   4.669
  181POPC   D2A 2719  11.170   4.438   5.027
  181POPC   C3A 2720  11.350   4.488   5.436
  181POPC   C4A 2721  11.091   4.504   5.763
  181POPC   C1B 2722  11.226   4.133   4.630
  181POPC   C2B 2723  11.354   3.935   5.036
  181POPC   C3B 2724  11.206   3.995   5.453
  181POPC   C4B 2725  11.350   4.038   5.855
  182POPC   NC3 2726   2.715  11.066   3.505
  182POPC   PO4 2727   2.945  10.513   3.903
  182POPC   GL1 2728   2.836  10.908   4.228
  182POPC   GL2 2729   2.651  11.236   4.189
  182POPC   C1A 2730   2.771  11.003   4.678
  182POPC   D2A 2731   2.860  10.828   5.107
  182POPC   C3A 2732   2.831  10.997   5.512
  182POPC   C4A 2733   3.093  10.965   5.919
  182POPC   C1B 2734   2.793  11.496   4.574
  182POPC   C2B 2735   2.829   0.159   5.000
  182POPC   C3B 2736   2.697  11.500   5.414
  182POPC   C4B 2737   2.802  11.363   5.849
  183POPC   NC3 2738   9.042   8.235   3.966
  183POPC   PO4 2739   8.457   8.382   3.935
  183POPC   GL1 2740   8.670   8.155   4.325
  183POPC   GL2 2741   9.002   7.965   4.386
  183POPC   C1A 2742   8.782   8.258   4.769
  183POPC   D2A 2743   8.580   8.158   5.172
  183POPC   C3A 2744   8.716   8.245   5.582
  183POPC   C4A 2745   8.539   8.325   5.997
  183POPC   C1B 2746   9.173   7.917   4.808
  183POPC   C2B 2747   9.034   7.919   5.245
  183POPC   C3B 2748   9.083   7.783   5.668
  183POPC   C4B 2749   8.734   7.803   5.981
  184POPC   NC3 2750   0.984  10.353   4.040
  184POPC   PO4 2751   1.576  10.639   3.956
  184POPC   GL1 2752   1.529  10.267   4.240
  184POPC   GL2 2753   1.318  10.500   4.391
  184POPC   C1A 2754   1.573  10.132   4.714
  184POPC   D2A 2755   1.629  10.340   5.148
  184POPC   C3A 2756   1.545  10.076   5.516
  184POPC   C4A 2757   1.555   9.897   5.913
  184POPC   C1B 2758   1.099  10.315   4.689
  184POPC   C2B 2759   1.107  10.516   5.051
  184POPC   C3B 2760   1.197  10.451   5.431
  184POPC   C4B 2761   1.062  10.608   5.783
  185POPC   NC3 2762   4.599   8.941   3.872
  185POPC   PO4 2763   4.066   9.153   3.841
  185POPC   GL1 2764   4.140   9.161   4.299
  185POPC   GL2 2765   4.344   8.910   4.398
  185POPC   C1A 2766   4.062   9.212   4.776
  185POPC   D2A 2767   4.193   9.375   5.223
  185POPC   C3A 2768   4.042   9.221   5.637
  185POPC   C4A 2769   4.151   8.999   6.042
  185POPC   C1B 2770   4.552   9.073   4.776
  185POPC   C2B 2771   4.568   8.954   5.191
  185POPC   C3B 2772   4.471   8.948   5.611
  185POPC   C4B 2773   4.518   8.637   5.932
  186POPC   NC3 2774  11.157   9.376   4.049
  186POPC   PO4 2775  10.732  10.000   3.982
  186POPC   GL1 2776  10.919   9.977   4.409
  186POPC   GL2 2777  11.168   9.718   4.426
  186POPC   C1A 2778  10.858   9.750   4.829
  186POPC   D2A 2779  10.873   9.566   5.246
  186POPC   C3A 2780  11.026   9.849   5.549
  186POPC   C4A 2781  11.420   9.911   5.750
  186POPC   C1B 2782  11.286   9.451   4.794
  186POPC   C2B 2783  11.417   9.552   5.213
  186POPC   C3B 2784  11.265   9.416   5.584
  186POPC   C4B 2785  10.922   9.329   5.866
  187POPC   NC3 2786   2.369   5.967   3.719
  187POPC   PO4 2787   3.039   6.163   3.846
  187POPC   GL1 2788   2.748   6.047   4.201
  187POPC   GL2 2789   2.514   5.746   4.168
  187POPC   C1A 2790   2.900   5.937   4.653
  187POPC   D2A 2791   3.158   5.975   5.055
  187POPC   C3A 2792   2.982   5.979   5.497
  187POPC   C4A 2793   3.020   6.277   5.857
  187POPC   C1B 2794   2.411   5.794   4.605
  187POPC   C2B 2795   2.318   5.878   5.054
  187POPC   C3B 2796   2.469   5.787   5.468
  187POPC   C4B 2797   2.507   5.466   5.792
  188POPC   NC3 2798  11.405   8.003   3.993
  188POPC   PO4 2799  10.715   8.245   3.856
  188POPC   GL1 2800  10.956   8.202   4.238
  188POPC   GL2 2801  11.052   7.884   4.354
  188POPC   C1A 2802  10.926   8.222   4.696
  188POPC   D2A 2803  10.788   8.184   5.096
  188POPC   C3A 2804  11.053   8.400   5.381
  188POPC   C4A 2805  11.062   8.296   5.784
  188POPC   C1B 2806  11.360   7.888   4.691
  188POPC   C2B 2807  11.207   7.877   5.078
  188POPC   C3B 2808  11.339   7.983   5.455
  188POPC   C4B 2809  11.339   7.873   5.876
  189POPC   NC3 2810   1.814   9.807   4.153
  189POPC   PO4 2811   1.198   9.966   3.866
  189POPC   GL1 2812   1.129   9.929   4.304
  189POPC   GL2 2813   1.339   9.649   4.319
  189POPC   C1A 2814   1.099   9.807   4.741
  189POPC   D2A 2815   1.226   9.993   5.108
  189POPC   C3A 2816   0.924   9.961   5.426
  189POPC   C4A 2817   1.091  10.092   5.782
  189POPC   C1B 2818   1.570   9.583   4.719
  189POPC   C2B 2819   1.459   9.443   5.116
  189POPC   C3B 2820   1.427   9.579   5.519
  189POPC   C4B 2821   1.116   9.587   5.811
  190POPC   NC3 2822   1.281   7.313   3.902
  190POPC   PO4 2823   1.554   6.797   3.724
  190POPC   GL1 2824   1.505   6.935   4.167
  190POPC   GL2 2825   1.176   6.854   4.292
  190POPC   C1A 2826   1.508   7.021   4.645
  190POPC   D2A 2827   1.658   7.176   5.064
  190POPC   C3A 2828   1.447   7.334   5.459
  190POPC   C4A 2829   1.666   7.364   5.868
  190POPC   C1B 2830   0.979   6.959   4.713
  190POPC   C2B 2831   0.846   7.056   5.155
  190POPC   C3B 2832   0.921   6.990   5.604
  190POPC   C4B 2833   1.134   7.211   5.933
  191POPC   NC3 2834   9.796   5.553   3.887
  191POPC   PO4 2835   9.246   5.288   3.996
  191POPC   GL1 2836   9.519   5.451   4.385
  191POPC   GL2 2837   9.778   5.721   4.402
  191POPC   C1A 2838   9.639   5.474   4.856
  191POPC   D2A 2839   9.601   5.685   5.278
  191POPC   C3A 2840   9.600   5.460   5.683
  191POPC   C4A 2841   9.393   5.415   6.103
  191POPC   C1B 2842   9.848   5.946   4.818
  191POPC   C2B 2843   9.881   6.113   5.237
  191POPC   C3B 2844   9.678   6.077   5.626
  191POPC   C4B 2845   9.610   6.385   5.950
  192POPC   NC3 2846   2.817   2.230   3.885
  192POPC   PO4 2847   3.426   2.222   4.079
  192POPC   GL1 2848   3.093   1.909   4.264
  192POPC   GL2 2849   2.790   2.078   4.361
  192POPC   C1A 2850   2.987   1.758   4.679
  192POPC   D2A 2851   2.915   2.097   4.940
  192POPC   C3A 2852   3.065   1.984   5.318
  192POPC   C4A 2853   3.027   2.183   5.665
  192POPC   C1B 2854   2.513   1.925   4.679
  192POPC   C2B 2855   2.528   1.820   5.094
  192POPC   C3B 2856   2.571   1.984   5.503
  192POPC   C4B 2857   2.828   1.693   5.725
  193POPC   NC3 2858   1.925   2.365   3.746
  193POPC   PO4 2859   1.841   1.663   4.047
  193POPC   GL1 2860   1.906   2.098   4.224
  193POPC   GL2 2861   2.263   2.087   4.281
  193POPC   C1A 2862   2.011   2.315   4.669
  193POPC   D2A 2863   2.286   2.271   5.038
  193POPC   C3A 2864   2.150   2.293   5.448
  193POPC   C4A 2865   1.820   2.272   5.753
  193POPC   C1B 2866   2.034   1.808   4.646
  193POPC   C2B 2867   2.018   1.824   5.086
  193POPC   C3B 2868   1.905   1.842   5.502
  193POPC   C4B 2869   2.184   1.900   5.858
  194POPC   NC3 2870   8.208   1.910   3.893
  194POPC   PO4 2871   7.698   2.361   3.856
  194POPC   GL1 2872   7.949   2.226   4.232
  194POPC   GL2 2873   8.066   1.893   4.369
  194POPC   C1A 2874   8.125   2.309   4.656
  194POPC   D2A 2875   7.939   2.257   5.068
  194POPC   C3A 2876   8.093   2.389   5.476
  194POPC   C4A 2877   8.263   2.398   5.889
  194POPC   C1B 2878   8.127   1.805   4.825
  194POPC   C2B 2879   8.104   1.520   5.172
  194POPC   C3B 2880   7.841   1.637   5.503
  194POPC   C4B 2881   7.940   1.977   5.768
  195POPC   NC3 2882   0.887   1.094   3.638
  195POPC   PO4 2883   0.881   1.661   4.045
  195POPC   GL1 2884   0.953   1.264   4.258
  195POPC   GL2 2885   1.314   1.237   4.302
  195POPC   C1A 2886   1.001   1.232   4.715
  195POPC   D2A 2887   1.055   1.506   5.085
  195POPC   C3A 2888   1.001   1.262   5.453
  195POPC   C4A 2889   1.195   1.207   5.851
  195POPC   C1B 2890   1.458   1.005   4.662
  195POPC   C2B 2891   1.313   1.040   5.078
  195POPC   C3B 2892   1.477   1.062   5.442
  195POPC   C4B 2893   1.671   0.886   5.729
  196POPC   NC3 2894  11.013  10.357   4.069
  196POPC   PO4 2895  10.919  10.921   3.806
  196POPC   GL1 2896  10.916  10.826   4.247
  196POPC   GL2 2897  11.290  10.734   4.256
  196POPC   C1A 2898  10.827  10.658   4.672
  196POPC   D2A 2899  10.842  10.821   5.094
  196POPC   C3A 2900  10.874  10.650   5.514
  196POPC   C4A 2901  10.831  10.663   6.023
  196POPC   C1B 2902  11.306  10.494   4.639
  196POPC   C2B 2903  11.077  10.336   4.991
  196POPC   C3B 2904  11.225  10.286   5.389
  196POPC   C4B 2905  11.256  10.449   5.777
  197POPC   NC3 2906   7.260   1.038   4.067
  197POPC   PO4 2907   7.818   1.489   3.890
  197POPC   GL1 2908   7.685   1.247   4.254
  197POPC   GL2 2909   7.411   1.406   4.414
  197POPC   C1A 2910   7.562   0.995   4.654
  197POPC   D2A 2911   7.193   1.054   4.928
  197POPC   C3A 2912   7.277   1.022   5.370
  197POPC   C4A 2913   7.406   0.999   5.791
  197POPC   C1B 2914   7.334   1.537   4.844
  197POPC   C2B 2915   7.227   1.537   5.294
  197POPC   C3B 2916   6.927   1.338   5.588
  197POPC   C4B 2917   6.992   1.212   6.018
  198POPC   NC3 2918   9.730   9.016   3.965
  198POPC   PO4 2919   9.219   8.654   4.049
  198POPC   GL1 2920   9.435   8.776   4.361
  198POPC   GL2 2921   9.733   8.634   4.349
  198POPC   C1A 2922   9.513   8.880   4.787
  198POPC   D2A 2923   9.278   9.107   5.098
  198POPC   C3A 2924   9.540   9.171   5.415
  198POPC   C4A 2925   9.559   9.083   5.810
  198POPC   C1B 2926   9.941   8.534   4.734
  198POPC   C2B 2927   9.770   8.578   5.153
  198POPC   C3B 2928   9.608   8.645   5.554
  198POPC   C4B 2929   9.768   8.681   6.010
  199POPC   NC3 2930   8.825  10.573   4.097
  199POPC   PO4 2931   9.055   9.937   3.927
  199POPC   GL1 2932   9.116  10.198   4.293
  199POPC   GL2 2933   8.766  10.173   4.396
  199POPC   C1A 2934   9.059  10.385   4.739
  199POPC   D2A 2935   8.942  10.167   5.130
  199POPC   C3A 2936   9.065  10.382   5.507
  199POPC   C4A 2937   9.059  10.619   5.916
  199POPC   C1B 2938   8.558  10.074   4.768
  199POPC   C2B 2939   8.464   9.933   5.175
  199POPC   C3B 2940   8.532  10.258   5.447
  199POPC   C4B 2941   8.719  10.269   5.852
  200POPC   NC3 2942   1.492   8.908   4.012
  200POPC   PO4 2943   0.900   8.596   3.990
  200POPC   GL1 2944   1.094   8.817   4.366
  200POPC   GL2 2945   1.156   9.162   4.331
  200POPC   C1A 2946   1.290   8.637   4.786
  200POPC   D2A 2947   1.259   8.413   5.220
  200POPC   C3A 2948   1.061   8.651   5.586
  200POPC   C4A 2949   1.267   8.617   6.014
  200POPC   C1B 2950   1.124   9.128   4.810
  200POPC   C2B 2951   1.320   8.961   5.231
  200POPC   C3B 2952   1.294   9.101   5.667
  200POPC   C4B 2953   0.888   9.130   5.829
  201POPC   NC3 2954   9.739   4.103   3.877
  201POPC   PO4 2955   9.800   3.459   3.934
  201POPC   GL1 2956   9.777   3.677   4.324
  201POPC   GL2 2957   9.435   3.804   4.403
  201POPC   C1A 2958   9.756   3.769   4.790
  201POPC   D2A 2959   9.538   3.861   5.179
  201POPC   C3A 2960   9.769   3.984   5.581
  201POPC   C4A 2961   9.972   3.826   5.991
  201POPC   C1B 2962   9.378   3.411   4.687
  201POPC   C2B 2963   9.486   3.289   5.108
  201POPC   C3B 2964   9.510   3.477   5.515
  201POPC   C4B 2965   9.163   3.564   5.732
  202POPC   NC3 2966   5.882   1.077   3.937
  202POPC   PO4 2967   5.396   1.563   3.880
  202POPC   GL1 2968   5.487   1.538   4.297
  202POPC   GL2 2969   5.564   1.202   4.309
  202POPC   C1A 2970   5.662   1.431   4.727
  202POPC   D2A 2971   5.464   1.415   5.102
  202POPC   C3A 2972   5.778   1.481   5.372
  202POPC   C4A 2973   5.950   1.671   5.719
  202POPC   C1B 2974   5.439   0.972   4.701
  202POPC   C2B 2975   5.482   0.827   5.118
  202POPC   C3B 2976   5.501   1.058   5.498
  202POPC   C4B 2977   5.956   1.119   5.684
  203POPC   NC3 2978   9.558   2.718   3.861
  203POPC   PO4 2979  10.153   2.532   3.801
  203POPC   GL1 2980   9.949   2.500   4.229
  203POPC   GL2 2981   9.646   2.694   4.363
  203POPC   C1A 2982  10.005   2.539   4.688
  203POPC   D2A 2983   9.887   2.296   5.046
  203POPC   C3A 2984   9.921   2.543   5.407
  203POPC   C4A 2985   9.875   2.565   5.843
  203POPC   C1B 2986   9.529   2.805   4.793
  203POPC   C2B 2987   9.402   2.553   5.145
  203POPC   C3B 2988   9.442   2.644   5.563
  203POPC   C4B 2989   9.701   3.010   5.662
  204POPC   NC3 2990  11.350   5.215   4.132
  204POPC   PO4 2991  10.785   4.840   4.195
  204POPC   GL1 2992  10.841   4.897   4.538
  204POPC   GL2 2993  10.956   5.247   4.478
  204POPC   C1A 2994  10.745   4.731   4.947
  204POPC   D2A 2995  10.980   4.804   5.316
  204POPC   C3A 2996  10.880   4.966   5.678
  204POPC   C4A 2997  10.721   5.349   5.698
  204POPC   C1B 2998  11.191   5.048   4.842
  204POPC   C2B 2999  11.475   4.895   5.120
  204POPC   C3B 3000  11.413   5.050   5.500
  204POPC   C4B 3001  11.452   4.833   5.819
  205POPC   NC3 3002  10.276   3.658   3.871
  205POPC   PO4 3003  10.917   3.995   3.933
  205POPC   GL1 3004  10.649   3.671   4.264
  205POPC   GL2 3005  10.298   3.514   4.342
  205POPC   C1A 3006  10.623   3.400   4.704
  205POPC   D2A 3007  10.537   3.582   5.124
  205POPC   C3A 3008  10.508   3.307   5.480
  205POPC   C4A 3009  10.764   3.297   5.822
  205POPC   C1B 3010  10.278   3.798   4.705
  205POPC   C2B 3011  10.121   3.892   5.130
  205POPC   C3B 3012  10.223   3.738   5.551
  205POPC   C4B 3013  10.142   3.362   5.848
  206POPC   NC3 3014   3.651   1.029   3.825
  206POPC   PO4 3015   3.629   1.612   3.699
  206POPC   GL1 3016   3.386   1.375   4.287
  206POPC   GL2 3017   3.422   1.023   4.274
  206POPC   C1A 3018   3.669   1.163   4.705
  206POPC   D2A 3019   3.824   0.926   5.113
  206POPC   C3A 3020   3.731   1.103   5.558
  206POPC   C4A 3021   3.672   1.411   5.908
  206POPC   C1B 3022   3.323   0.806   4.641
  206POPC   C2B 3023   3.312   0.983   5.053
  206POPC   C3B 3024   3.228   1.160   5.449
  206POPC   C4B 3025   3.298   1.056   5.873
  207POPC   NC3 3026   5.782   9.748   3.902
  207POPC   PO4 3027   5.674   9.173   4.072
  207POPC   GL1 3028   5.676   9.463   4.437
  207POPC   GL2 3029   5.625   9.800   4.401
  207POPC   C1A 3030   5.792   9.591   4.884
  207POPC   D2A 3031   5.730   9.484   5.346
  207POPC   C3A 3032   6.092   9.548   5.679
  207POPC   C4A 3033   6.312   9.485   6.113
  207POPC   C1B 3034   5.327   9.762   4.758
  207POPC   C2B 3035   5.225   9.587   5.218
  207POPC   C3B 3036   5.368   9.652   5.685
  207POPC   C4B 3037   5.447   9.890   6.112
  208POPC   NC3 3038   0.519  11.383   3.974
  208POPC   PO4 3039   0.757  10.750   3.902
  208POPC   GL1 3040   0.580  10.965   4.262
  208POPC   GL2 3041   0.214  11.056   4.245
  208POPC   C1A 3042   0.677  11.088   4.682
  208POPC   D2A 3043   0.792  11.232   5.090
  208POPC   C3A 3044   0.910  10.912   5.366
  208POPC   C4A 3045   0.613  10.835   5.685
  208POPC   C1B 3046   0.225  10.826   4.676
  208POPC   C2B 3047   0.373  10.870   5.162
  208POPC   C3B 3048   0.266  11.180   5.531
  208POPC   C4B 3049   0.097   0.114   5.618
  209POPC   NC3 3050   3.312  10.279   3.660
  209POPC   PO4 3051   3.695   9.861   4.026
  209POPC   GL1 3052   3.650   9.796   4.421
  209POPC   GL2 3053   3.728   9.456   4.375
  209POPC   C1A 3054   3.297   9.831   4.723
  209POPC   D2A 3055   3.278   9.676   5.120
  209POPC   C3A 3056   3.483   9.788   5.495
  209POPC   C4A 3057   3.286   9.983   5.792
  209POPC   C1B 3058   3.558   9.386   4.798
  209POPC   C2B 3059   3.674   9.374   5.250
  209POPC   C3B 3060   3.545   9.326   5.698
  209POPC   C4B 3061   3.670   9.245   6.153
  210POPC   NC3 3062   0.203   8.001   3.393
  210POPC   PO4 3063   0.313   7.792   4.059
  210POPC   GL1 3064   0.256   7.994   4.385
  210POPC   GL2 3065   0.550   8.166   4.349
  210POPC   C1A 3066   0.431   7.865   4.775
  210POPC   D2A 3067   0.227   7.779   5.132
  210POPC   C3A 3068   0.361   7.982   5.507
  210POPC   C4A 3069   0.151   8.274   5.733
  210POPC   C1B 3070   0.397   8.363   4.704
  210POPC   C2B 3071   0.526   8.329   5.075
  210POPC   C3B 3072   0.517   8.497   5.429
  210POPC   C4B 3073   0.631   8.396   5.834
  211POPC   NC3 3074   7.815  10.396   3.908
  211POPC   PO4 3075   8.433  10.742   3.891
  211POPC   GL1 3076   8.193  10.578   4.252
  211POPC   GL2 3077   8.170  10.201   4.227
  211POPC   C1A 3078   8.115  10.693   4.713
  211POPC   D2A 3079   7.885  10.758   5.126
  211POPC   C3A 3080   8.153  10.622   5.479
  211POPC   C4A 3081   8.235  10.398   5.854
  211POPC   C1B 3082   8.067  10.162   4.646
  211POPC   C2B 3083   8.135  10.299   5.067
  211POPC   C3B 3084   8.001  10.115   5.464
  211POPC   C4B 3085   7.896  10.024   5.899
  212POPC   NC3 3086   1.637   5.351   4.007
  212POPC   PO4 3087   1.846   5.999   3.797
  212POPC   GL1 3088   1.790   5.986   4.240
  212POPC   GL2 3089   1.970   5.737   4.350
  212POPC   C1A 3090   1.601   5.994   4.636
  212POPC   D2A 3091   1.656   5.996   5.056
  212POPC   C3A 3092   1.925   6.053   5.378
  212POPC   C4A 3093   1.780   5.959   5.805
  212POPC   C1B 3094   1.932   5.637   4.774
  212POPC   C2B 3095   1.960   5.552   5.199
  212POPC   C3B 3096   2.016   5.539   5.635
  212POPC   C4B 3097   1.953   5.288   6.003
  213POPC   NC3 3098   5.614  11.284   3.590
  213POPC   PO4 3099   6.161   0.203   3.813
  213POPC   GL1 3100   6.089   0.045   4.238
  213POPC   GL2 3101   5.792  11.330   4.226
  213POPC   C1A 3102   5.987   0.030   4.698
  213POPC   D2A 3103   6.078  11.214   5.028
  213POPC   C3A 3104   6.088  11.411   5.410
  213POPC   C4A 3105   6.147  11.208   5.786
  213POPC   C1B 3106   5.758  11.082   4.610
  213POPC   C2B 3107   5.609  10.954   5.034
  213POPC   C3B 3108   5.718  11.077   5.432
  213POPC   C4B 3109   5.650  11.208   5.830
  214POPC   NC3 3110   0.246   4.935   3.810
  214POPC   PO4 3111   0.904   4.573   3.885
  214POPC   GL1 3112   0.700   4.752   4.298
  214POPC   GL2 3113   0.403   4.957   4.305
  214POPC   C1A 3114   0.747   4.976   4.699
  214POPC   D2A 3115   0.768   4.831   5.117
  214POPC   C3A 3116   0.401   4.694   5.368
  214POPC   C4A 3117   0.478   4.810   5.799
  214POPC   C1B 3118   0.225   5.049   4.689
  214POPC   C2B 3119   0.405   5.241   5.048
  214POPC   C3B 3120   0.411   5.206   5.484
  214POPC   C4B 3121   0.193   5.270   5.894
  215POPC   NC3 3122   5.654   0.221   3.919
  215POPC   PO4 3123   5.446   0.878   3.931
  215POPC   GL1 3124   5.655   0.680   4.308
  215POPC   GL2 3125   5.691   0.323   4.398
  215POPC   C1A 3126   5.831   0.626   4.763
  215POPC   D2A 3127   5.840   0.404   5.158
  215POPC   C3A 3128   5.794   0.629   5.568
  215POPC   C4A 3129   5.602   0.827   5.934
  215POPC   C1B 3130   5.469   0.015   4.650
  215POPC   C2B 3131   5.623  11.447   5.079
  215POPC   C3B 3132   5.622   0.101   5.499
  215POPC   C4B 3133   5.916   0.200   5.810
  216POPC   NC3 3134   2.938   7.627   4.014
  216POPC   PO4 3135   2.350   8.000   3.982
  216POPC   GL1 3136   2.658   7.944   4.303
  216POPC   GL2 3137   2.500   8.181   4.454
  216POPC   C1A 3138   2.884   7.970   4.739
  216POPC   D2A 3139   2.855   8.180   5.194
  216POPC   C3A 3140   2.956   8.053   5.630
  216POPC   C4A 3141   2.693   7.853   5.971
  216POPC   C1B 3142   2.598   8.403   4.787
  216POPC   C2B 3143   2.391   8.352   5.189
  216POPC   C3B 3144   2.471   8.200   5.596
  216POPC   C4B 3145   2.663   8.356   5.967
  217POPC   NC3 3146   1.856   6.495   3.916
  217POPC   PO4 3147   2.450   6.380   3.869
  217POPC   GL1 3148   2.241   6.196   4.239
  217POPC   GL2 3149   2.072   6.497   4.371
  217POPC   C1A 3150   2.065   6.145   4.710
  217POPC   D2A 3151   2.228   6.391   5.074
  217POPC   C3A 3152   2.139   6.549   5.482
  217POPC   C4A 3153   1.771   6.444   5.704
  217POPC   C1B 3154   1.820   6.588   4.767
  217POPC   C2B 3155   1.716   6.565   5.204
  217POPC   C3B 3156   1.758   6.913   5.513
  217POPC   C4B 3157   2.009   6.862   5.878
  218POPC   NC3 3158   0.517   3.349   3.964
  218POPC   PO4 3159   0.153   3.917   3.950
  218POPC   GL1 3160   0.407   3.755   4.302
  218POPC   GL2 3161   0.393   3.434   4.440
  218POPC   C1A 3162   0.627   3.813   4.693
  218POPC   D2A 3163   0.376   3.794   5.071
  218POPC   C3A 3164   0.506   3.677   5.479
  218POPC   C4A 3165   0.278   3.756   5.806
  218POPC   C1B 3166   0.367   3.201   4.776
  218POPC   C2B 3167   0.490   3.297   5.154
  218POPC   C3B 3168   0.279   3.187   5.480
  218POPC   C4B 3169   0.448   3.272   5.822
  219POPC   NC3 3170  10.251   7.097   4.028
  219POPC   PO4 3171  10.919   7.351   3.976
  219POPC   GL1 3172  10.812   7.146   4.313
  219POPC   GL2 3173  10.502   7.286   4.416
  219POPC   C1A 3174  10.824   7.047   4.730
  219POPC   D2A 3175  10.679   6.919   5.132
  219POPC   C3A 3176  10.659   7.135   5.513
  219POPC   C4A 3177  10.283   7.099   5.729
  219POPC   C1B 3178  10.626   7.656   4.655
  219POPC   C2B 3179  10.466   7.761   5.057
  219POPC   C3B 3180  10.306   7.471   5.334
  219POPC   C4B 3181  10.468   7.579   5.712
  220POPC   NC3 3182  10.612   4.491   3.959
  220POPC   PO4 3183  10.132   4.033   4.094
  220POPC   GL1 3184  10.253   4.362   4.345
  220POPC   GL2 3185  10.550   4.480   4.467
  220POPC   C1A 3186  10.198   4.298   4.773
  220POPC   D2A 3187  10.436   4.317   5.084
  220POPC   C3A 3188  10.207   4.267   5.452
  220POPC   C4A 3189  10.104   4.403   5.838
  220POPC   C1B 3190  10.694   4.111   4.645
  220POPC   C2B 3191  10.849   4.017   5.058
  220POPC   C3B 3192  10.796   4.288   5.425
  220POPC   C4B 3193  10.578   4.175   5.791
  221POPC   NC3 3194   5.026   8.151   3.868
  221POPC   PO4 3195   4.773   7.644   4.149
  221POPC   GL1 3196   4.942   7.912   4.475
  221POPC   GL2 3197   4.912   8.236   4.360
  221POPC   C1A 3198   4.855   8.099   4.894
  221POPC   D2A 3199   4.595   8.239   5.245
  221POPC   C3A 3200   4.591   7.972   5.611
  221POPC   C4A 3201   4.740   7.676   5.911
  221POPC   C1B 3202   5.198   8.407   4.665
  221POPC   C2B 3203   5.308   8.228   5.088
  221POPC   C3B 3204   5.067   8.180   5.489
  221POPC   C4B 3205   4.886   8.266   5.916
  222POPC   NC3 3206   1.315   4.316   3.892
  222POPC   PO4 3207   1.217   3.744   4.079
  222POPC   GL1 3208   1.064   4.018   4.397
  222POPC   GL2 3209   1.084   4.384   4.335
  222POPC   C1A 3210   1.075   4.007   4.857
  222POPC   D2A 3211   1.318   3.954   5.227
  222POPC   C3A 3212   1.278   4.196   5.651
  222POPC   C4A 3213   1.517   4.030   6.039
  222POPC   C1B 3214   1.016   4.516   4.753
  222POPC   C2B 3215   1.124   4.426   5.174
  222POPC   C3B 3216   0.870   4.525   5.514
  222POPC   C4B 3217   0.953   4.591   5.887
  223POPC   NC3 3218   2.632   8.365   3.985
  223POPC   PO4 3219   2.640   9.038   3.903
  223POPC   GL1 3220   2.765   8.789   4.267
  223POPC   GL2 3221   2.449   8.684   4.366
  223POPC   C1A 3222   2.894   8.821   4.718
  223POPC   D2A 3223   2.751   8.734   5.143
  223POPC   C3A 3224   2.796   8.628   5.560
  223POPC   C4A 3225   3.102   8.603   5.914
  223POPC   C1B 3226   2.475   9.074   4.584
  223POPC   C2B 3227   2.550   9.194   5.036
  223POPC   C3B 3228   2.660   9.157   5.488
  223POPC   C4B 3229   3.071   9.070   5.701
  224POPC   NC3 3230  10.299   0.383   3.905
  224POPC   PO4 3231  10.727   0.100   4.241
  224POPC   GL1 3232  10.350   0.255   4.434
  224POPC   GL2 3233  10.249   0.608   4.408
  224POPC   C1A 3234  10.216   0.285   4.861
  224POPC   D2A 3235  10.364   0.489   5.235
  224POPC   C3A 3236  10.444   0.241   5.610
  224POPC   C4A 3237  10.056   0.129   5.777
  224POPC   C1B 3238  10.558   0.662   4.754
  224POPC   C2B 3239  10.838   0.681   5.125
  224POPC   C3B 3240  10.656   0.765   5.545
  224POPC   C4B 3241  10.608   0.693   5.999
  225POPC   NC3 3242   2.223   3.021   4.028
  225POPC   PO4 3243   1.773   2.793   3.674
  225POPC   GL1 3244   1.772   2.637   4.152
  225POPC   GL2 3245   2.096   2.583   4.253
  225POPC   C1A 3246   1.686   2.737   4.631
  225POPC   D2A 3247   1.627   2.933   5.053
  225POPC   C3A 3248   1.773   2.697   5.421
  225POPC   C4A 3249   1.710   2.859   5.826
  225POPC   C1B 3250   2.195   2.816   4.640
  225POPC   C2B 3251   2.130   2.858   5.077
  225POPC   C3B 3252   2.347   2.779   5.443
  225POPC   C4B 3253   2.175   2.650   5.822
  226POPC   NC3 3254   6.911   7.911   3.864
  226POPC   PO4 3255   7.005   8.464   3.840
  226POPC   GL1 3256   7.051   8.370   4.303
  226POPC   GL2 3257   7.362   8.225   4.408
  226POPC   C1A 3258   7.054   8.389   4.794
  226POPC   D2A 3259   7.281   8.338   5.201
  226POPC   C3A 3260   7.107   8.336   5.610
  226POPC   C4A 3261   7.039   8.033   5.948
  226POPC   C1B 3262   7.577   8.404   4.789
  226POPC   C2B 3263   7.783   8.309   5.206
  226POPC   C3B 3264   7.601   8.203   5.610
  226POPC   C4B 3265   7.474   8.297   6.051
  227POPC   NC3 3266   1.342   0.290   4.019
  227POPC   PO4 3267   1.187   0.917   3.920
  227POPC   GL1 3268   1.115   0.725   4.352
  227POPC   GL2 3269   0.989   0.369   4.414
  227POPC   C1A 3270   1.028   0.713   4.800
  227POPC   D2A 3271   0.807   0.894   5.134
  227POPC   C3A 3272   1.040   0.743   5.496
  227POPC   C4A 3273   1.230   0.699   5.900
  227POPC   C1B 3274   1.371   0.341   4.714
  227POPC   C2B 3275   1.240   0.348   5.147
  227POPC   C3B 3276   1.397   0.351   5.541
  227POPC   C4B 3277   1.497   0.003   5.784
  228POPC   NC3 3278  10.864   7.801   3.898
  228POPC   PO4 3279  11.461   7.680   3.659
  228POPC   GL1 3280  11.367   7.529   4.176
  228POPC   GL2 3281  11.332   7.202   4.267
  228POPC   C1A 3282  11.101   7.467   4.635
  228POPC   D2A 3283  10.864   7.418   5.078
  228POPC   C3A 3284  11.001   7.575   5.502
  228POPC   C4A 3285  10.912   7.594   5.967
  228POPC   C1B 3286  11.336   7.022   4.673
  228POPC   C2B 3287  11.188   6.886   5.061
  228POPC   C3B 3288  11.166   7.077   5.466
  228POPC   C4B 3289  11.270   7.269   5.862
  229POPC   NC3 3290   4.402   2.585   3.922
  229POPC   PO4 3291   3.998   2.955   4.047
  229POPC   GL1 3292   4.044   2.668   4.419
  229POPC   GL2 3293   4.285   2.378   4.364
  229POPC   C1A 3294   3.883   2.740   4.845
  229POPC   D2A 3295   3.678   2.649   5.250
  229POPC   C3A 3296   3.902   2.743   5.631
  229POPC   C4A 3297   4.114   2.670   6.040
  229POPC   C1B 3298   4.330   2.466   4.795
  229POPC   C2B 3299   4.172   2.485   5.199
  229POPC   C3B 3300   4.295   2.419   5.606
  229POPC   C4B 3301   4.557   2.741   5.772
  230POPC   NC3 3302   4.831   9.859   4.093
  230POPC   PO4 3303   5.457  10.066   3.987
  230POPC   GL1 3304   5.393  10.271   4.358
  230POPC   GL2 3305   5.265  10.618   4.324
  230POPC   C1A 3306   5.237  10.290   4.754
  230POPC   D2A 3307   5.071  10.484   5.106
  230POPC   C3A 3308   5.113  10.154   5.392
  230POPC   C4A 3309   5.381  10.171   5.708
  230POPC   C1B 3310   4.894  10.693   4.605
  230POPC   C2B 3311   4.791  10.916   5.004
  230POPC   C3B 3312   4.742  10.752   5.405
  230POPC   C4B 3313   5.114  10.617   5.641
  231POPC   NC3 3314  10.520   2.700   4.023
  231POPC   PO4 3315  10.787   3.296   3.925
  231POPC   GL1 3316  10.810   3.042   4.309
  231POPC   GL2 3317  10.485   2.986   4.446
  231POPC   C1A 3318  10.962   2.940   4.727
  231POPC   D2A 3319  10.823   3.093   5.134
  231POPC   C3A 3320  10.813   2.862   5.525
  231POPC   C4A 3321  10.734   2.622   5.891
  231POPC   C1B 3322  10.549   2.595   4.692
  231POPC   C2B 3323  10.419   2.375   5.081
  231POPC   C3B 3324  10.414   2.509   5.511
  231POPC   C4B 3325  10.255   2.880   5.696
  232POPC   NC3 3326   7.247  10.830   4.033
  232POPC   PO4 3327   6.932  11.453   3.824
  232POPC   GL1 3328   7.028  11.268   4.268
  232POPC   GL2 3329   7.361  11.118   4.431
  232POPC   C1A 3330   6.942  11.230   4.737
  232POPC   D2A 3331   7.007  11.417   5.165
  232POPC   C3A 3332   7.039  11.166   5.561
  232POPC   C4A 3333   6.872  11.331   5.965
  232POPC   C1B 3334   7.372  10.903   4.843
  232POPC   C2B 3335   7.446  11.143   5.200
  232POPC   C3B 3336   7.530  11.357   5.570
  232POPC   C4B 3337   7.533  10.938   5.782
  233POPC   NC3 3338   1.541   3.686   3.767
  233POPC   PO4 3339   1.709   3.143   4.093
  233POPC   GL1 3340   1.650   3.542   4.288
  233POPC   GL2 3341   1.978   3.584   4.334
  233POPC   C1A 3342   1.563   3.783   4.673
  233POPC   D2A 3343   1.787   3.936   4.995
  233POPC   C3A 3344   1.766   3.789   5.381
  233POPC   C4A 3345   1.858   3.620   5.737
  233POPC   C1B 3346   1.961   3.325   4.725
  233POPC   C2B 3347   1.993   3.357   5.162
  233POPC   C3B 3348   2.005   3.154   5.542
  233POPC   C4B 3349   2.047   3.214   5.996
  234POPC   NC3 3350   9.004   1.886   3.879
  234POPC   PO4 3351   8.455   2.314   4.007
  234POPC   GL1 3352   8.833   2.180   4.257
  234POPC   GL2 3353   8.757   1.847   4.311
  234POPC   C1A 3354   9.042   2.098   4.681
  234POPC   D2A 3355   8.969   2.275   5.085
  234POPC   C3A 3356   9.045   2.000   5.414
  234POPC   C4A 3357   8.999   2.065   5.823
  234POPC   C1B 3358   8.548   2.006   4.651
  234POPC   C2B 3359   8.577   1.857   5.066
  234POPC   C3B 3360   8.322   1.925   5.417
  234POPC   C4B 3361   8.477   1.939   5.834
  235POPC   NC3 3362   9.566   0.187   3.609
  235POPC   PO4 3363   9.272   0.715   3.978
  235POPC   GL1 3364   9.444   0.442   4.288
  235POPC   GL2 3365   9.813   0.366   4.178
  235POPC   C1A 3366   9.237   0.363   4.696
  235POPC   D2A 3367   9.225   0.595   5.088
  235POPC   C3A 3368   9.313   0.298   5.364
  235POPC   C4A 3369   9.513   0.184   5.721
  235POPC   C1B 3370   9.800   0.482   4.632
  235POPC   C2B 3371   9.720   0.390   5.060
  235POPC   C3B 3372   9.836   0.520   5.480
  235POPC   C4B 3373  10.185   0.655   5.734
  236POPC   NC3 3374   8.849   0.947   3.997
  236POPC   PO4 3375   8.559   1.606   3.859
  236POPC   GL1 3376   8.643   1.361   4.221
  236POPC   GL2 3377   9.020   1.408   4.203
  236POPC   C1A 3378   8.569   1.478   4.675
  236POPC   D2A 3379   8.591   1.327   5.112
  236POPC   C3A 3380   8.705   1.590   5.494
  236POPC   C4A 3381   9.078   1.566   5.746
  236POPC   C1B 3382   8.995   1.186   4.605
  236POPC   C2B 3383   9.089   1.100   5.039
  236POPC   C3B 3384   8.938   1.140   5.451
  236POPC   C4B 3385   9.064   1.041   5.843
  237POPC   NC3 3386   0.255   7.348   3.892
  237POPC   PO4 3387   0.893   7.023   3.912
  237POPC   GL1 3388   0.669   7.128   4.338
  237POPC   GL2 3389   0.333   7.260   4.369
  237POPC   C1A 3390   0.613   7.330   4.787
  237POPC   D2A 3391   0.359   7.251   5.185
  237POPC   C3A 3392   0.475   7.248   5.660
  237POPC   C4A 3393   0.213   7.155   6.058
  237POPC   C1B 3394   0.115   7.445   4.705
  237POPC   C2B 3395  11.378   7.391   5.093
  237POPC   C3B 3396   0.032   7.509   5.517
  237POPC   C4B 3397   0.269   7.639   5.903
  238POPC   NC3 3398   5.535   1.986   3.978
  238POPC   PO4 3399   5.936   2.371   4.114
  238POPC   GL1 3400   5.840   2.012   4.380
  238POPC   GL2 3401   5.976   1.698   4.267
  238POPC   C1A 3402   5.508   1.902   4.691
  238POPC   D2A 3403   5.313   1.916   5.118
  238POPC   C3A 3404   5.581   1.944   5.490
  238POPC   C4A 3405   5.818   2.154   5.843
  238POPC   C1B 3406   6.072   1.738   4.749
  238POPC   C2B 3407   6.048   1.892   5.195
  238POPC   C3B 3408   6.253   2.076   5.557
  238POPC   C4B 3409   6.276   1.974   6.005
  239POPC   NC3 3410   0.692   6.662   4.126
  239POPC   PO4 3411   0.093   6.900   3.963
  239POPC   GL1 3412   0.227   6.754   4.329
  239POPC   GL2 3413   0.167   6.400   4.267
  239POPC   C1A 3414   0.320   6.900   4.739
  239POPC   D2A 3415   0.453   6.744   5.095
  239POPC   C3A 3416   0.334   6.786   5.517
  239POPC   C4A 3417   0.649   6.586   5.767
  239POPC   C1B 3418   0.374   6.384   4.677
  239POPC   C2B 3419   0.456   6.226   5.102
  239POPC   C3B 3420   0.315   6.278   5.512
  239POPC   C4B 3421   0.368   6.099   5.927
  240POPC   NC3 3422  10.419   9.626   3.887
  240POPC   PO4 3423  10.850   9.109   3.800
  240POPC   GL1 3424  10.508   9.242   4.182
  240POPC   GL2 3425  10.687   9.536   4.309
  240POPC   C1A 3426  10.430   9.279   4.671
  240POPC   D2A 3427  10.555   9.197   5.106
  240POPC   C3A 3428  10.335   9.412   5.390
  240POPC   C4A 3429  10.575   9.651   5.662
  240POPC   C1B 3430  10.372   9.784   4.549
  240POPC   C2B 3431  10.278   9.776   4.996
  240POPC   C3B 3432  10.182   9.900   5.449
  240POPC   C4B 3433  10.331   9.988   5.933
  241POPC   NC3 3434   4.840  11.169   3.851
  241POPC   PO4 3435   5.503  10.954   3.880
  241POPC   GL1 3436   5.319  11.133   4.252
  241POPC   GL2 3437   5.012  11.284   4.318
  241POPC   C1A 3438   5.245  11.044   4.690
  241POPC   D2A 3439   5.135  11.303   5.023
  241POPC   C3A 3440   5.194  11.098   5.408
  241POPC   C4A 3441   5.204  11.412   5.714
  241POPC   C1B 3442   4.734  11.314   4.692
  241POPC   C2B 3443   4.618  11.463   5.107
  241POPC   C3B 3444   4.544  11.316   5.517
  241POPC   C4B 3445   4.791  11.109   5.756
  242POPC   NC3 3446  11.263   5.990   3.581
  242POPC   PO4 3447  10.954   5.627   4.048
  242POPC   GL1 3448  11.119   5.730   4.421
  242POPC   GL2 3449  11.425   5.688   4.283
  242POPC   C1A 3450  11.213   5.564   4.844
  242POPC   D2A 3451  11.060   5.372   5.267
  242POPC   C3A 3452  11.044   5.714   5.591
  242POPC   C4A 3453  10.895   6.133   5.546
  242POPC   C1B 3454   0.006   6.009   4.602
  242POPC   C2B 3455  11.255   6.083   4.950
  242POPC   C3B 3456  11.375   6.052   5.368
  242POPC   C4B 3457  11.374   6.222   5.781
  243POPC   NC3 3458   8.023  11.113   3.872
  243POPC   PO4 3459   7.674  10.756   4.202
  243POPC   GL1 3460   7.943  11.056   4.377
  243POPC   GL2 3461   8.325  11.093   4.277
  243POPC   C1A 3462   7.825  11.134   4.782
  243POPC   D2A 3463   7.928  11.289   5.164
  243POPC   C3A 3464   7.963  11.079   5.552
  243POPC   C4A 3465   7.874  11.294   5.954
  243POPC   C1B 3466   8.336  11.192   4.710
  243POPC   C2B 3467   8.366  10.999   5.110
  243POPC   C3B 3468   8.482  11.199   5.464
  243POPC   C4B 3469   8.356  11.165   5.889
  244POPC   NC3 3470   2.178   9.020   3.878
  244POPC   PO4 3471   1.609   9.368   3.966
  244POPC   GL1 3472   1.667   9.230   4.380
  244POPC   GL2 3473   1.898   9.006   4.319
  244POPC   C1A 3474   1.631   9.050   4.822
  244POPC   D2A 3475   1.795   8.749   5.157
  244POPC   C3A 3476   1.634   8.720   5.612
  244POPC   C4A 3477   1.669   8.960   6.016
  244POPC   C1B 3478   2.016   8.783   4.633
  244POPC   C2B 3479   2.271   8.777   4.950
  244POPC   C3B 3480   2.286   8.821   5.386
  244POPC   C4B 3481   2.179   9.053   5.750
  245POPC   NC3 3482   4.326   0.524   3.823
  245POPC   PO4 3483   4.152  11.375   3.924
  245POPC   GL1 3484   4.244   0.210   4.261
  245POPC   GL2 3485   4.233   0.547   4.356
  245POPC   C1A 3486   4.357   0.222   4.717
  245POPC   D2A 3487   4.136   0.281   5.099
  245POPC   C3A 3488   4.368   0.293   5.450
  245POPC   C4A 3489   4.330   0.282   5.880
  245POPC   C1B 3490   4.243   0.732   4.799
  245POPC   C2B 3491   4.496   0.740   5.195
  245POPC   C3B 3492   4.526   0.729   5.659
  245POPC   C4B 3493   4.055   0.677   5.734
  246POPC   NC3 3494   8.731   9.605   3.866
  246POPC   PO4 3495   9.364   9.320   3.951
  246POPC   GL1 3496   9.155   9.480   4.352
  246POPC   GL2 3497   8.873   9.680   4.345
  246POPC   C1A 3498   8.938   9.294   4.756
  246POPC   D2A 3499   8.774   9.168   5.213
  246POPC   C3A 3500   9.057   9.345   5.563
  246POPC   C4A 3501   9.116   9.181   6.017
  246POPC   C1B 3502   9.011   9.818   4.739
  246POPC   C2B 3503   8.900   9.658   5.155
  246POPC   C3B 3504   8.866   9.859   5.551
  246POPC   C4B 3505   9.155   9.996   5.844
  247POPC   NC3 3506   2.268   0.515   3.900
  247POPC   PO4 3507   1.775   0.116   4.033
  247POPC   GL1 3508   2.026   0.220   4.342
  247POPC   GL2 3509   2.129   0.581   4.377
  247POPC   C1A 3510   1.920   0.163   4.743
  247POPC   D2A 3511   1.767   0.149   5.131
  247POPC   C3A 3512   2.134   0.087   5.424
  247POPC   C4A 3513   2.040   0.057   5.839
  247POPC   C1B 3514   1.856   0.682   4.703
  247POPC   C2B 3515   1.641   0.647   5.085
  247POPC   C3B 3516   1.864   0.527   5.443
  247POPC   C4B 3517   2.126   0.568   5.754
  248POPC   NC3 3518  10.443   6.158   3.745
  248POPC   PO4 3519  10.601   6.778   3.976
  248POPC   GL1 3520  10.539   6.714   4.357
  248POPC   GL2 3521  10.407   6.388   4.253
  248POPC   C1A 3522  10.376   6.805   4.741
  248POPC   D2A 3523  10.218   6.544   5.057
  248POPC   C3A 3524  10.309   6.698   5.426
  248POPC   C4A 3525  10.035   6.603   5.746
  248POPC   C1B 3526  10.452   6.284   4.683
  248POPC   C2B 3527  10.349   6.022   5.015
  248POPC   C3B 3528  10.342   6.169   5.437
  248POPC   C4B 3529  10.500   6.373   5.768
  249POPC   NC3 3530   0.448   1.970   3.770
  249POPC   PO4 3531   0.100   2.272   4.174
  249POPC   GL1 3532   0.237   1.929   4.332
  249POPC   GL2 3533   0.565   1.987   4.279
  249POPC   C1A 3534   0.198   1.813   4.747
  249POPC   D2A 3535   0.372   1.947   5.111
  249POPC   C3A 3536   0.182   1.853   5.455
  249POPC   C4A 3537   0.016   2.213   5.647
  249POPC   C1B 3538   0.650   2.075   4.696
  249POPC   C2B 3539   0.666   2.347   5.051
  249POPC   C3B 3540   0.503   2.313   5.487
  249POPC   C4B 3541   0.506   1.973   5.807
  250POPC   NC3 3542   0.505   8.820   3.881
  250POPC   PO4 3543  11.436   8.416   3.795
  250POPC   GL1 3544   0.216   8.534   4.208
  250POPC   GL2 3545   0.553   8.675   4.348
  250POPC   C1A 3546   0.156   8.813   4.620
  250POPC   D2A 3547   0.333   8.818   5.052
  250POPC   C3A 3548   0.207   9.143   5.390
  250POPC   C4A 3549   0.067   9.130   5.838
  250POPC   C1B 3550   0.759   8.715   4.719
  250POPC   C2B 3551   0.869   8.739   5.100
  250POPC   C3B 3552   0.707   8.996   5.379
  250POPC   C4B 3553   0.473   8.874   5.745
  251POPC   NC3 3554  11.215  11.269   3.712
  251POPC   PO4 3555  10.706   0.176   3.745
  251POPC   GL1 3556  11.186   0.104   4.091
  251POPC   GL2 3557  11.221  11.252   4.214
  251POPC   C1A 3558  11.242   0.037   4.624
  251POPC   D2A 3559  11.054  11.294   5.017
  251POPC   C3A 3560  11.206  11.335   5.442
  251POPC   C4A 3561  11.114  11.486   5.875
  251POPC   C1B 3562  11.199  11.023   4.631
  251POPC   C2B 3563  11.342  10.833   5.018
  251POPC   C3B 3564  11.372  10.825   5.437
  251POPC   C4B 3565  11.169  10.971   5.799
  252POPC   NC3 3566   4.158   1.019   4.196
  252POPC   PO4 3567   4.606   1.406   3.807
  252POPC   GL1 3568   4.634   1.242   4.220
  252POPC   GL2 3569   4.389   1.437   4.376
  252POPC   C1A 3570   4.693   1.200   4.689
  252POPC   D2A 3571   4.564   1.224   5.109
  252POPC   C3A 3572   4.606   1.457   5.469
  252POPC   C4A 3573   4.757   1.226   5.808
  252POPC   C1B 3574   4.179   1.315   4.774
  252POPC   C2B 3575   4.089   1.353   5.208
  252POPC   C3B 3576   4.235   1.127   5.533
  252POPC   C4B 3577   4.163   1.462   5.770
  253POPC   NC3 3578   5.580  10.501   3.926
  253POPC   PO4 3579   6.072  10.090   3.881
  253POPC   GL1 3580   5.898  10.224   4.289
  253POPC   GL2 3581   5.932  10.584   4.307
  253POPC   C1A 3582   5.765  10.114   4.753
  253POPC   D2A 3583   5.559   9.966   5.163
  253POPC   C3A 3584   5.808   9.963   5.519
  253POPC   C4A 3585   5.883  10.270   5.783
  253POPC   C1B 3586   5.647  10.595   4.662
  253POPC   C2B 3587   5.591  10.459   5.090
  253POPC   C3B 3588   5.610  10.587   5.489
  253POPC   C4B 3589   5.939  10.760   5.769
  254POPC   NC3 3590   1.830  10.605   3.570
  254POPC   PO4 3591   2.436  10.890   3.843
  254POPC   GL1 3592   2.355  10.803   4.343
  254POPC   GL2 3593   2.053  10.601   4.485
  254POPC   C1A 3594   2.309  10.850   4.842
  254POPC   D2A 3595   1.999  10.715   5.161
  254POPC   C3A 3596   2.030  10.828   5.558
  254POPC   C4A 3597   2.258  10.674   5.883
  254POPC   C1B 3598   2.093  10.303   4.878
  254POPC   C2B 3599   2.177  10.144   5.276
  254POPC   C3B 3600   1.985  10.338   5.580
  254POPC   C4B 3601   1.625  10.552   5.683
  255POPC   NC3 3602   9.753  11.063   3.732
  255POPC   PO4 3603   9.195  11.422   3.697
  255POPC   GL1 3604   9.511  11.440   4.101
  255POPC   GL2 3605   9.617  11.118   4.263
  255POPC   C1A 3606   9.558  11.478   4.618
  255POPC   D2A 3607   9.439  11.363   5.114
  255POPC   C3A 3608   9.672  11.251   5.552
  255POPC   C4A 3609   9.740  11.382   6.068
  255POPC   C1B 3610   9.599  10.950   4.716
  255POPC   C2B 3611   9.313  10.830   5.068
  255POPC   C3B 3612   9.226  10.907   5.498
  255POPC   C4B 3613   9.498  10.894   5.873
  256POPC   NC3 3614   9.156   4.808   4.048
  256POPC   PO4 3615   8.608   5.016   3.920
  256POPC   GL1 3616   8.773   5.148   4.362
  256POPC   GL2 3617   9.113   5.125   4.458
  256POPC   C1A 3618   8.776   4.993   4.825
  256POPC   D2A 3619   8.835   4.972   5.296
  256POPC   C3A 3620   8.733   4.895   5.721
  256POPC   C4A 3621   8.388   4.885   6.022
  256POPC   C1B 3622   9.132   5.359   4.835
  256POPC   C2B 3623   9.204   5.342   5.281
  256POPC   C3B 3624   9.115   5.248   5.692
  256POPC   C4B 3625   9.227   4.937   5.973
  257POPC   NC3 3626   2.893   3.763   3.997
  257POPC   PO4 3627   2.675   3.161   3.958
  257POPC   GL1 3628   2.686   3.365   4.316
  257POPC   GL2 3629   2.387   3.274   4.449
  257POPC   C1A 3630   2.789   3.542   4.707
  257POPC   D2A 3631   2.976   3.385   5.078
  257POPC   C3A 3632   2.868   3.522   5.502
  257POPC   C4A 3633   3.102   3.419   5.861
  257POPC   C1B 3634   2.454   3.198   4.882
  257POPC   C2B 3635   2.475   3.254   5.303
  257POPC   C3B 3636   2.357   3.508   5.653
  257POPC   C4B 3637   2.604   3.522   5.991
  258POPC   NC3 3638   4.178  10.613   4.033
  258POPC   PO4 3639   4.399   9.992   4.110
  258POPC   GL1 3640   4.130  10.163   4.448
  258POPC   GL2 3641   3.836  10.290   4.320
  258POPC   C1A 3642   4.213  10.167   4.915
  258POPC   D2A 3643   4.617  10.210   5.178
  258POPC   C3A 3644   4.671  10.286   5.627
  258POPC   C4A 3645   4.694  10.628   5.915
  258POPC   C1B 3646   3.920  10.584   4.708
  258POPC   C2B 3647   3.879  10.505   5.151
  258POPC   C3B 3648   4.134  10.298   5.441
  258POPC   C4B 3649   4.228  10.425   5.855
  259POPC   NC3 3650   5.054   0.649   3.952
  259POPC   PO4 3651   5.250   0.021   3.773
  259POPC   GL1 3652   5.211   0.241   4.210
  259POPC   GL2 3653   4.835   0.279   4.317
  259POPC   C1A 3654   5.276   0.495   4.601
  259POPC   D2A 3655   5.320   0.345   5.040
  259POPC   C3A 3656   5.303   0.506   5.481
  259POPC   C4A 3657   5.397   0.346   5.914
  259POPC   C1B 3658   4.853   0.305   4.792
  259POPC   C2B 3659   4.857   0.401   5.250
  259POPC   C3B 3660   4.842   0.294   5.691
  259POPC   C4B 3661   4.834   0.472   6.104
  260POPC   NC3 3662   1.887   7.990   3.987
  260POPC   PO4 3663   1.895   8.663   3.951
  260POPC   GL1 3664   2.045   8.387   4.290
  260POPC   GL2 3665   1.741   8.263   4.413
  260POPC   C1A 3666   2.089   8.302   4.766
  260POPC   D2A 3667   1.778   8.230   5.108
  260POPC   C3A 3668   1.986   8.373   5.482
  260POPC   C4A 3669   2.190   8.554   5.818
  260POPC   C1B 3670   1.838   7.871   4.656
  260POPC   C2B 3671   1.755   7.703   5.086
  260POPC   C3B 3672   1.788   7.865   5.510
  260POPC   C4B 3673   1.572   8.214   5.699
  261POPC   NC3 3674   8.824   2.663   4.076
  261POPC   PO4 3675   9.337   3.016   4.118
  261POPC   GL1 3676   9.133   2.860   4.472
  261POPC   GL2 3677   9.132   2.543   4.472
  261POPC   C1A 3678   9.015   2.866   4.917
  261POPC   D2A 3679   8.949   2.738   5.357
  261POPC   C3A 3680   9.140   3.018   5.680
  261POPC   C4A 3681   9.167   3.162   6.061
  261POPC   C1B 3682   8.701   2.502   4.701
  261POPC   C2B 3683   8.465   2.351   5.085
  261POPC   C3B 3684   8.632   2.353   5.525
  261POPC   C4B 3685   8.602   2.770   5.752
  262POPC   NC3 3686   3.247  10.846   3.962
  262POPC   PO4 3687   3.306   0.002   3.983
  262POPC   GL1 3688   3.190  11.279   4.329
  262POPC   GL2 3689   3.495  11.130   4.347
  262POPC   C1A 3690   3.226  11.321   4.788
  262POPC   D2A 3691   3.264  11.137   5.186
  262POPC   C3A 3692   3.212  11.356   5.562
  262POPC   C4A 3693   3.311  11.422   6.003
  262POPC   C1B 3694   3.716  11.064   4.728
  262POPC   C2B 3695   3.751  11.007   5.157
  262POPC   C3B 3696   3.650  11.066   5.561
  262POPC   C4B 3697   3.814  10.695   5.709
  263POPC   NC3 3698  11.235   2.107   3.967
  263POPC   PO4 3699   0.143   1.607   3.912
  263POPC   GL1 3700  11.274   1.704   4.287
  263POPC   GL2 3701  10.955   1.980   4.344
  263POPC   C1A 3702  11.195   1.864   4.752
  263POPC   D2A 3703  11.341   2.067   5.116
  263POPC   C3A 3704  11.176   1.865   5.486
  263POPC   C4A 3705  11.400   1.803   5.907
  263POPC   C1B 3706  10.743   2.129   4.718
  263POPC   C2B 3707  10.827   2.054   5.125
  263POPC   C3B 3708  10.707   2.101   5.525
  263POPC   C4B 3709  10.979   2.174   5.847
  264POPC   NC3 3710   4.264   1.717   3.728
  264POPC   PO4 3711   3.834   1.347   4.123
  264POPC   GL1 3712   3.926   1.660   4.447
  264POPC   GL2 3713   4.169   1.864   4.227
  264POPC   C1A 3714   3.922   1.732   4.902
  264POPC   D2A 3715   4.019   2.016   5.225
  264POPC   C3A 3716   4.155   1.929   5.593
  264POPC   C4A 3717   3.902   1.872   5.938
  264POPC   C1B 3718   4.310   1.947   4.668
  264POPC   C2B 3719   4.429   1.752   5.082
  264POPC   C3B 3720   4.653   1.970   5.442
  264POPC   C4B 3721   4.737   2.251   5.811
  265POPC   NC3 3722   1.135   6.630   3.765
  265POPC   PO4 3723   1.510   6.436   4.207
  265POPC   GL1 3724   1.321   6.416   4.549
  265POPC   GL2 3725   1.008   6.396   4.437
  265POPC   C1A 3726   1.315   6.632   4.909
  265POPC   D2A 3727   1.297   6.864   5.261
  265POPC   C3A 3728   1.320   6.665   5.648
  265POPC   C4A 3729   1.533   6.885   6.002
  265POPC   C1B 3730   0.839   6.478   4.836
  265POPC   C2B 3731   0.873   6.541   5.274
  265POPC   C3B 3732   0.835   6.198   5.512
  265POPC   C4B 3733   1.038   6.276   5.873
  266POPC   NC3 3734   1.402   6.080   3.947
  266POPC   PO4 3735   1.155   5.451   3.960
  266POPC   GL1 3736   1.333   5.676   4.291
  266POPC   GL2 3737   1.065   5.898   4.300
  266POPC   C1A 3738   1.405   5.540   4.713
  266POPC   D2A 3739   1.258   5.671   5.121
  266POPC   C3A 3740   1.537   5.655   5.443
  266POPC   C4A 3741   1.512   5.480   5.814
  266POPC   C1B 3742   1.114   5.980   4.729
  266POPC   C2B 3743   1.194   6.191   5.104
  266POPC   C3B 3744   1.350   6.116   5.503
  266POPC   C4B 3745   1.065   5.750   5.625
  267POPC   NC3 3746   7.254   2.209   3.934
  267POPC   PO4 3747   7.091   1.589   3.665
  267POPC   GL1 3748   7.200   1.737   4.101
  267POPC   GL2 3749   7.560   1.855   4.179
  267POPC   C1A 3750   7.138   1.923   4.553
  267POPC   D2A 3751   7.147   1.993   5.035
  267POPC   C3A 3752   6.864   1.922   5.402
  267POPC   C4A 3753   7.057   1.786   5.783
  267POPC   C1B 3754   7.646   1.931   4.638
  267POPC   C2B 3755   7.654   1.842   5.082
  267POPC   C3B 3756   7.459   1.972   5.471
  267POPC   C4B 3757   7.158   2.263   5.617
  268POPC   NC3 3758  10.283   8.238   3.667
  268POPC   PO4 3759  10.048   7.683   3.917
  268POPC   GL1 3760  10.344   7.800   4.257
  268POPC   GL2 3761  10.433   8.165   4.293
  268POPC   C1A 3762  10.166   7.904   4.684
  268POPC   D2A 3763   9.938   8.091   5.025
  268POPC   C3A 3764  10.106   7.950   5.397
  268POPC   C4A 3765  10.144   7.951   5.797
  268POPC   C1B 3766  10.421   8.339   4.734
  268POPC   C2B 3767  10.312   8.379   5.184
  268POPC   C3B 3768  10.542   8.222   5.558
  268POPC   C4B 3769  10.584   8.382   5.971
  269POPC   NC3 3770   2.809   9.485   3.861
  269POPC   PO4 3771   2.192   9.856   3.861
  269POPC   GL1 3772   2.528   9.782   4.224
  269POPC   GL2 3773   2.858   9.639   4.349
  269POPC   C1A 3774   2.524   9.571   4.694
  269POPC   D2A 3775   2.765   9.659   5.077
  269POPC   C3A 3776   2.509   9.758   5.405
  269POPC   C4A 3777   2.357   9.522   5.715
  269POPC   C1B 3778   2.998   9.352   4.720
  269POPC   C2B 3779   3.060   9.229   5.175
  269POPC   C3B 3780   3.011   9.548   5.536
  269POPC   C4B 3781   2.798   9.794   5.839
  270POPC   NC3 3782   3.853  11.031   3.764
  270POPC   PO4 3783   4.511  10.847   3.801
  270POPC   GL1 3784   4.567  10.942   4.243
  270POPC   GL2 3785   4.507  11.276   4.258
  270POPC   C1A 3786   4.402  10.862   4.665
  270POPC   D2A 3787   4.355  10.646   5.055
  270POPC   C3A 3788   4.207  10.866   5.406
  270POPC   C4A 3789   4.289  10.936   5.828
  270POPC   C1B 3790   4.158  11.287   4.571
  270POPC   C2B 3791   4.177  11.235   5.011
  270POPC   C3B 3792   4.047  11.371   5.421
  270POPC   C4B 3793   3.960  11.349   5.863
  271POPC   NC3 3794   2.851   6.588   3.878
  271POPC   PO4 3795   2.905   7.168   3.982
  271POPC   GL1 3796   2.861   6.824   4.361
  271POPC   GL2 3797   2.607   6.563   4.327
  271POPC   C1A 3798   2.923   6.600   4.818
  271POPC   D2A 3799   3.075   6.456   5.274
  271POPC   C3A 3800   2.889   6.694   5.610
  271POPC   C4A 3801   2.495   6.855   5.743
  271POPC   C1B 3802   2.542   6.295   4.662
  271POPC   C2B 3803   2.697   6.201   5.076
  271POPC   C3B 3804   2.587   6.299   5.499
  271POPC   C4B 3805   2.261   6.147   5.751
  272POPC   NC3 3806   6.934   3.101   4.100
  272POPC   PO4 3807   6.807   2.423   3.983
  272POPC   GL1 3808   7.082   2.589   4.336
  272POPC   GL2 3809   7.454   2.525   4.294
  272POPC   C1A 3810   7.077   2.807   4.773
  272POPC   D2A 3811   7.280   2.871   5.199
  272POPC   C3A 3812   7.106   2.783   5.638
  272POPC   C4A 3813   7.159   2.975   6.083
  272POPC   C1B 3814   7.396   2.378   4.721
  272POPC   C2B 3815   7.448   2.383   5.163
  272POPC   C3B 3816   7.588   2.511   5.562
  272POPC   C4B 3817   7.769   2.433   5.966
  273POPC   NC3 3818   1.774   9.908   3.659
  273POPC   PO4 3819   2.089  10.142   4.283
  273POPC   GL1 3820   2.123   9.783   4.522
  273POPC   GL2 3821   2.151   9.451   4.289
  273POPC   C1A 3822   2.086   9.772   4.912
  273POPC   D2A 3823   1.761   9.846   5.117
  273POPC   C3A 3824   1.924   9.679   5.425
  273POPC   C4A 3825   2.030   9.876   5.744
  273POPC   C1B 3826   2.051   9.310   4.706
  273POPC   C2B 3827   2.038   9.230   5.127
  273POPC   C3B 3828   1.773   9.187   5.463
  273POPC   C4B 3829   1.820   9.413   5.848
  274POPC   NC3 3830   7.274   8.842   3.889
  274POPC   PO4 3831   7.067   9.415   4.142
  274POPC   GL1 3832   7.316   9.133   4.438
  274POPC   GL2 3833   7.394   8.765   4.377
  274POPC   C1A 3834   7.311   8.991   4.885
  274POPC   D2A 3835   7.333   8.845   5.301
  274POPC   C3A 3836   7.120   9.064   5.678
  274POPC   C4A 3837   6.811   9.056   6.054
  274POPC   C1B 3838   7.725   8.857   4.636
  274POPC   C2B 3839   7.811   8.789   5.043
  274POPC   C3B 3840   7.815   8.781   5.467
  274POPC   C4B 3841   7.490   8.693   5.753
  275POPC   NC3 3842   2.762   1.245   3.721
  275POPC   PO4 3843   2.679   1.743   3.983
  275POPC   GL1 3844   2.746   1.500   4.321
  275POPC   GL2 3845   2.896   1.209   4.228
  275POPC   C1A 3846   2.541   1.409   4.714
  275POPC   D2A 3847   2.342   1.322   5.094
  275POPC   C3A 3848   2.313   1.540   5.454
  275POPC   C4A 3849   2.368   1.412   5.840
  275POPC   C1B 3850   3.027   1.223   4.669
  275POPC   C2B 3851   2.813   1.110   5.074
  275POPC   C3B 3852   2.719   1.220   5.514
  275POPC   C4B 3853   2.796   1.167   5.981
  276POPC   NC3 3854   3.747   2.571   4.026
  276POPC   PO4 3855   3.199   2.477   3.681
  276POPC   GL1 3856   3.139   2.607   4.200
  276POPC   GL2 3857   3.478   2.580   4.457
  276POPC   C1A 3858   3.033   2.516   4.674
  276POPC   D2A 3859   3.237   2.443   5.116
  276POPC   C3A 3860   3.242   2.639   5.554
  276POPC   C4A 3861   3.496   2.687   5.951
  276POPC   C1B 3862   3.387   2.868   4.824
  276POPC   C2B 3863   3.424   3.117   5.219
  276POPC   C3B 3864   3.500   3.106   5.670
  276POPC   C4B 3865   3.875   3.124   5.980
  277POPC   NC3 3866   8.969  11.014   3.571
  277POPC   PO4 3867   9.209  10.809   4.178
  277POPC   GL1 3868   8.864  11.033   4.339
  277POPC   GL2 3869   9.070  11.335   4.321
  277POPC   C1A 3870   8.718  10.863   4.746
  277POPC   D2A 3871   8.812  10.653   5.139
  277POPC   C3A 3872   8.677  10.737   5.554
  277POPC   C4A 3873   8.838  11.053   5.792
  277POPC   C1B 3874   9.131  11.182   4.746
  277POPC   C2B 3875   8.912  11.178   5.149
  277POPC   C3B 3876   9.047  11.399   5.505
  277POPC   C4B 3877   9.014   0.243   5.792
  278POPC   NC3 3878   6.334   2.584   4.041
  278POPC   PO4 3879   6.502   3.196   4.122
  278POPC   GL1 3880   6.618   2.814   4.426
  278POPC   GL2 3881   6.586   2.429   4.448
  278POPC   C1A 3882   6.577   2.721   4.889
  278POPC   D2A 3883   6.762   2.929   5.245
  278POPC   C3A 3884   6.572   2.922   5.654
  278POPC   C4A 3885   6.647   3.128   6.050
  278POPC   C1B 3886   6.885   2.334   4.758
  278POPC   C2B 3887   6.948   2.459   5.184
  278POPC   C3B 3888   6.695   2.445   5.545
  278POPC   C4B 3889   6.342   2.472   5.857
  279POPC   NC3 3890   0.419   2.795   3.739
  279POPC   PO4 3891   0.137   3.092   4.187
  279POPC   GL1 3892   0.511   2.888   4.360
  279POPC   GL2 3893   0.497   2.497   4.411
  279POPC   C1A 3894   0.659   2.790   4.785
  279POPC   D2A 3895   0.503   2.802   5.182
  279POPC   C3A 3896   0.757   2.981   5.475
  279POPC   C4A 3897   0.682   2.778   5.818
  279POPC   C1B 3898   0.222   2.362   4.793
  279POPC   C2B 3899   0.101   2.487   5.196
  279POPC   C3B 3900   0.175   2.703   5.575
  279POPC   C4B 3901   0.259   2.517   5.967
  280POPC   NC3 3902  11.116   3.612   3.797
  280POPC   PO4 3903   0.015   3.122   3.655
  280POPC   GL1 3904  11.451   3.516   4.130
  280POPC   GL2 3905  11.133   3.475   4.289
  280POPC   C1A 3906  11.496   3.627   4.636
  280POPC   D2A 3907  11.497   3.381   5.050
  280POPC   C3A 3908   0.001   3.596   5.414
  280POPC   C4A 3909  11.349   3.509   5.837
  280POPC   C1B 3910  11.004   3.697   4.631
  280POPC   C2B 3911  11.034   3.537   5.010
  280POPC   C3B 3912  11.003   3.500   5.416
  280POPC   C4B 3913  10.743   3.769   5.569
  281POPC   NC3 3914   3.358  10.143   4.161
  281POPC   PO4 3915   3.714  10.726   4.097
  281POPC   GL1 3916   3.374  10.621   4.384
  281POPC   GL2 3917   3.399  10.360   4.607
  281POPC   C1A 3918   3.259  10.826   4.742
  281POPC   D2A 3919   3.376  10.625   5.098
  281POPC   C3A 3920   3.266  10.723   5.512
  281POPC   C4A 3921   3.363  10.531   5.925
  281POPC   C1B 3922   3.702  10.140   4.793
  281POPC   C2B 3923   3.519  10.131   5.125
  281POPC   C3B 3924   3.546  10.302   5.489
  281POPC   C4B 3925   3.783  10.182   5.806
  282POPC   NC3 3926   3.762   0.071   4.090
  282POPC   PO4 3927   3.923   0.692   3.961
  282POPC   GL1 3928   3.717   0.578   4.320
  282POPC   GL2 3929   3.400   0.446   4.260
  282POPC   C1A 3930   3.831   0.335   4.690
  282POPC   D2A 3931   3.692   0.006   5.004
  282POPC   C3A 3932   3.612   0.144   5.438
  282POPC   C4A 3933   3.710   0.293   5.853
  282POPC   C1B 3934   3.304   0.309   4.692
  282POPC   C2B 3935   3.498   0.506   5.068
  282POPC   C3B 3936   3.429   0.654   5.502
  282POPC   C4B 3937   3.188   0.356   5.756
  283POPC   NC3 3938   4.099   9.619   3.966
  283POPC   PO4 3939   4.798   9.363   3.998
  283POPC   GL1 3940   4.532   9.484   4.387
  283POPC   GL2 3941   4.200   9.653   4.449
  283POPC   C1A 3942   4.483   9.579   4.854
  283POPC   D2A 3943   4.709   9.453   5.244
  283POPC   C3A 3944   4.517   9.467   5.673
  283POPC   C4A 3945   4.606   9.637   6.122
  283POPC   C1B 3946   3.966   9.707   4.810
  283POPC   C2B 3947   3.914   9.840   5.204
  283POPC   C3B 3948   3.994   9.739   5.597
  283POPC   C4B 3949   4.324   9.926   5.793
  284POPC   NC3 3950  10.366  10.283   3.860
  284POPC   PO4 3951  10.062  10.840   3.990
  284POPC   GL1 3952  10.392  10.708   4.271
  284POPC   GL2 3953  10.544  10.379   4.337
  284POPC   C1A 3954  10.324  10.742   4.701
  284POPC   D2A 3955  10.424  10.522   5.057
  284POPC   C3A 3956  10.367  10.783   5.344
  284POPC   C4A 3957  10.441  10.781   5.727
  284POPC   C1B 3958  10.619  10.189   4.745
  284POPC   C2B 3959  10.644  10.074   5.188
  284POPC   C3B 3960  10.514  10.285   5.538
  284POPC   C4B 3961  10.802  10.217   5.810
  285POPC   NC3 3962   0.951   5.021   3.961
  285POPC   PO4 3963   0.368   5.376   3.992
  285POPC   GL1 3964   0.739   5.357   4.340
  285POPC   GL2 3965   1.104   5.201   4.406
  285POPC   C1A 3966   0.879   5.486   4.752
  285POPC   D2A 3967   1.142   5.188   4.985
  285POPC   C3A 3968   1.207   5.234   5.432
  285POPC   C4A 3969   0.898   5.090   5.705
  285POPC   C1B 3970   1.357   4.875   4.627
  285POPC   C2B 3971   1.453   4.787   5.082
  285POPC   C3B 3972   1.352   4.730   5.533
  285POPC   C4B 3973   1.512   4.973   5.865
  286POPC   NC3 3974   7.201   9.832   4.014
  286POPC   PO4 3975   7.914   9.887   3.898
  286POPC   GL1 3976   7.681   9.978   4.334
  286POPC   GL2 3977   7.465   9.683   4.414
  286POPC   C1A 3978   7.680   9.869   4.828
  286POPC   D2A 3979   7.343   9.887   5.159
  286POPC   C3A 3980   7.495  10.011   5.572
  286POPC   C4A 3981   7.505   9.715   5.882
  286POPC   C1B 3982   7.298   9.503   4.819
  286POPC   C2B 3983   7.307   9.381   5.273
  286POPC   C3B 3984   7.106   9.608   5.577
  286POPC   C4B 3985   6.715   9.506   5.781
  287POPC   NC3 3986   7.414   0.284   3.842
  287POPC   PO4 3987   7.672   0.912   3.868
  287POPC   GL1 3988   7.721   0.696   4.267
  287POPC   GL2 3989   7.429   0.495   4.307
  287POPC   C1A 3990   7.749   0.519   4.729
  287POPC   D2A 3991   7.782   0.310   5.200
  287POPC   C3A 3992   7.669   0.616   5.570
  287POPC   C4A 3993   7.716   0.686   6.072
  287POPC   C1B 3994   7.218   0.606   4.670
  287POPC   C2B 3995   7.369   0.591   5.082
  287POPC   C3B 3996   7.276   0.322   5.410
  287POPC   C4B 3997   7.106   0.634   5.665
  288POPC   NC3 3998   5.224   9.115   4.044
  288POPC   PO4 3999   4.893   8.590   3.847
  288POPC   GL1 4000   4.809   8.718   4.291
  288POPC   GL2 4001   4.842   9.039   4.372
  288POPC   C1A 4002   4.678   8.565   4.721
  288POPC   D2A 4003   4.950   8.577   5.107
  288POPC   C3A 4004   4.886   8.667   5.547
  288POPC   C4A 4005   5.018   8.759   5.989
  288POPC   C1B 4006   5.050   8.907   4.734
  288POPC   C2B 4007   5.056   9.072   5.174
  288POPC   C3B 4008   4.993   9.188   5.607
  288POPC   C4B 4009   5.367   9.129   5.854
  289POPC   NC3 4010   5.050   1.261   3.892
  289POPC   PO4 4011   4.628   0.740   4.082
  289POPC   GL1 4012   4.872   0.784   4.426
  289POPC   GL2 4013   5.089   1.039   4.354
  289POPC   C1A 4014   4.963   0.802   4.855
  289POPC   D2A 4015   5.064   1.101   5.091
  289POPC   C3A 4016   4.957   0.936   5.438
  289POPC   C4A 4017   5.082   0.807   5.827
  289POPC   C1B 4018   5.147   1.413   4.661
  289POPC   C2B 4019   4.937   1.583   5.058
  289POPC   C3B 4020   5.108   1.466   5.479
  289POPC   C4B 4021   5.439   1.518   5.762
  290POPC   NC3 4022   4.353   7.494   4.207
  290POPC   PO4 4023   3.784   7.555   4.261
  290POPC   GL1 4024   4.035   7.358   4.584
  290POPC   GL2 4025   4.180   7.051   4.457
  290POPC   C1A 4026   4.139   7.441   5.002
  290POPC   D2A 4027   4.275   7.747   5.286
  290POPC   C3A 4028   4.169   7.638   5.708
  290POPC   C4A 4029   3.787   7.427   5.890
  290POPC   C1B 4030   4.497   7.127   4.786
  290POPC   C2B 4031   4.621   7.342   5.188
  290POPC   C3B 4032   4.518   7.273   5.619
  290POPC   C4B 4033   4.140   7.072   5.772
  291POPC   NC3 4034   0.393   0.550   3.843
  291POPC   PO4 4035   0.114  11.484   3.794
  291POPC   GL1 4036   0.183   0.109   4.274
  291POPC   GL2 4037   0.370   0.429   4.326
  291POPC   C1A 4038   0.551   0.081   4.625
  291POPC   D2A 4039   0.752   0.264   5.003
  291POPC   C3A 4040   0.660   0.110   5.439
  291POPC   C4A 4041   0.938   0.250   5.762
  291POPC   C1B 4042   0.540   0.622   4.688
  291POPC   C2B 4043   0.342   0.646   5.111
  291POPC   C3B 4044   0.410   0.555   5.567
  291POPC   C4B 4045   0.364   0.633   6.008
  292POPC   NC3 4046  10.368   2.259   3.494
  292POPC   PO4 4047  10.185   1.695   3.888
  292POPC   GL1 4048  10.187   2.037   4.193
  292POPC   GL2 4049  10.487   2.221   4.276
  292POPC   C1A 4050  10.159   2.059   4.655
  292POPC   D2A 4051  10.330   1.877   5.025
  292POPC   C3A 4052  10.141   2.028   5.392
  292POPC   C4A 4053  10.146   2.161   5.780
  292POPC   C1B 4054  10.518   1.750   4.475
  292POPC   C2B 4055  10.730   1.619   4.867
  292POPC   C3B 4056  10.709   1.597   5.345
  292POPC   C4B 4057  10.432   1.720   5.722
  293POPC   NC3 4058   1.368   1.689   4.044
  293POPC   PO4 4059   1.475   2.235   3.746
  293POPC   GL1 4060   1.396   2.264   4.211
  293POPC   GL2 4061   1.069   2.118   4.239
  293POPC   C1A 4062   1.502   2.246   4.686
  293POPC   D2A 4063   1.691   2.250   5.135
  293POPC   C3A 4064   1.406   2.062   5.468
  293POPC   C4A 4065   1.340   2.029   5.915
  293POPC   C1B 4066   1.120   1.892   4.640
  293POPC   C2B 4067   1.079   2.053   5.049
  293POPC   C3B 4068   0.864   1.939   5.414
  293POPC   C4B 4069   1.024   1.684   5.746
  294POPC   NC3 4070   0.432  10.497   3.703
  294POPC   PO4 4071   0.638  10.059   4.073
  294POPC   GL1 4072   0.582  10.456   4.305
  294POPC   GL2 4073   0.269  10.538   4.229
  294POPC   C1A 4074   0.671  10.579   4.719
  294POPC   D2A 4075   0.682  10.246   5.006
  294POPC   C3A 4076   0.690  10.430   5.365
  294POPC   C4A 4077   0.648  10.344   5.761
  294POPC   C1B 4078   0.266  10.281   4.653
  294POPC   C2B 4079   0.147  10.414   5.073
  294POPC   C3B 4080   0.206  10.443   5.523
  294POPC   C4B 4081   0.196  10.292   5.965
  295POPC   NC3 4082   2.924   2.835   3.756
  295POPC   PO4 4083   2.404   2.464   3.855
  295POPC   GL1 4084   2.606   2.538   4.218
  295POPC   GL2 4085   2.660   2.839   4.346
  295POPC   C1A 4086   2.531   2.430   4.619
  295POPC   D2A 4087   2.586   2.667   4.962
  295POPC   C3A 4088   2.746   2.455   5.321
  295POPC   C4A 4089   2.691   2.562   5.757
  295POPC   C1B 4090   2.886   3.003   4.702
  295POPC   C2B 4091   2.983   2.889   5.145
  295POPC   C3B 4092   2.875   3.006   5.548
  295POPC   C4B 4093   3.017   2.936   5.964
  296POPC   NC3 4094   1.284  11.002   3.843
  296POPC   PO4 4095   0.917   0.105   3.966
  296POPC   GL1 4096   0.942  11.346   4.312
  296POPC   GL2 4097   1.123  11.015   4.351
  296POPC   C1A 4098   1.080  11.422   4.720
  296POPC   D2A 4099   1.353  11.333   5.068
  296POPC   C3A 4100   1.142  11.404   5.431
  296POPC   C4A 4101   0.942  11.230   5.790
  296POPC   C1B 4102   1.340  10.880   4.759
  296POPC   C2B 4103   1.483  10.847   5.208
  296POPC   C3B 4104   1.366  10.984   5.621
  296POPC   C4B 4105   1.407  10.834   6.046
  297POPC   NC3 4106   9.934   8.090   4.127
  297POPC   PO4 4107   9.312   7.860   3.916
  297POPC   GL1 4108   9.517   7.847   4.302
  297POPC   GL2 4109   9.454   8.211   4.313
  297POPC   C1A 4110   9.668   7.789   4.732
  297POPC   D2A 4111   9.835   7.589   5.146
  297POPC   C3A 4112   9.609   7.791   5.489
  297POPC   C4A 4113   9.706   8.169   5.660
  297POPC   C1B 4114   9.469   8.336   4.748
  297POPC   C2B 4115   9.462   8.173   5.181
  297POPC   C3B 4116   9.225   8.288   5.560
  297POPC   C4B 4117   9.048   8.206   5.975
  298POPC   NC3 4118   6.499  11.396   3.949
  298POPC   PO4 4119   6.500  10.768   3.918
  298POPC   GL1 4120   6.574  10.998   4.317
  298POPC   GL2 4121   6.546  11.361   4.432
  298POPC   C1A 4122   6.436  10.959   4.739
  298POPC   D2A 4123   6.612  11.063   5.120
  298POPC   C3A 4124   6.374  10.902   5.446
  298POPC   C4A 4125   6.552  10.923   5.864
  298POPC   C1B 4126   6.470  11.468   4.816
  298POPC   C2B 4127   6.516   0.052   5.181
  298POPC   C3B 4128   6.571  11.365   5.555
  298POPC   C4B 4129   6.421   0.107   5.900
  299POPC   NC3 4130  11.077   6.908   3.930
  299POPC   PO4 4131  10.908   6.229   3.757
  299POPC   GL1 4132  10.965   6.486   4.209
  299POPC   GL2 4133  11.220   6.676   4.332
  299POPC   C1A 4134  10.888   6.542   4.704
  299POPC   D2A 4135  10.722   6.407   5.134
  299POPC   C3A 4136  10.857   6.643   5.531
  299POPC   C4A 4137  10.958   6.475   5.970
  299POPC   C1B 4138  11.395   6.518   4.687
  299POPC   C2B 4139   0.025   6.489   5.084
  299POPC   C3B 4140  11.357   6.583   5.443
  299POPC   C4B 4141  11.363   6.766   5.834
  300POPC   NC3 4142   0.003   1.149   3.861
  300POPC   PO4 4143  10.839   1.013   3.916
  300POPC   GL1 4144  11.103   0.925   4.256
  300POPC   GL2 4145  11.372   1.153   4.335
  300POPC   C1A 4146  11.066   0.929   4.702
  300POPC   D2A 4147  11.002   1.237   5.034
  300POPC   C3A 4148  10.990   1.145   5.469
  300POPC   C4A 4149  11.068   0.904   5.848
  300POPC   C1B 4150  11.398   1.384   4.707
  300POPC   C2B 4151  11.408   1.552   5.129
  300POPC   C3B 4152  11.447   1.393   5.555
  300POPC   C4B 4153  11.312   1.322   6.001
  301POPC   NC3 4154  10.737   5.227   3.965
  301POPC   PO4 4155  10.284   4.817   3.792
  301POPC   GL1 4156  10.270   4.872   4.258
  301POPC   GL2 4157  10.430   5.174   4.402
  301POPC   C1A 4158  10.279   4.814   4.733
  301POPC   D2A 4159  10.142   4.719   5.167
  301POPC   C3A 4160  10.422   4.727   5.545
  301POPC   C4A 4161  10.232   4.888   5.945
  301POPC   C1B 4162  10.593   5.224   4.835
  301POPC   C2B 4163  10.563   5.136   5.251
  301POPC   C3B 4164  10.244   5.236   5.543
  301POPC   C4B 4165  10.278   5.401   5.946
  302POPC   NC3 4166   9.660   1.029   3.937
  302POPC   PO4 4167   9.392   1.619   3.890
  302POPC   GL1 4168   9.549   1.414   4.290
  302POPC   GL2 4169   9.441   1.044   4.389
  302POPC   C1A 4170   9.489   1.404   4.749
  302POPC   D2A 4171   9.694   1.229   5.102
  302POPC   C3A 4172   9.465   1.175   5.504
  302POPC   C4A 4173   9.483   1.337   5.940
  302POPC   C1B 4174   9.867   1.016   4.605
  302POPC   C2B 4175  10.073   0.847   4.984
  302POPC   C3B 4176  10.024   1.009   5.417
  302POPC   C4B 4177   9.805   0.967   5.831
  303POPC   NC3 4178   9.608  10.681   3.998
  303POPC   PO4 4179   9.936  10.130   3.823
  303POPC   GL1 4180  10.020  10.323   4.253
  303POPC   GL2 4181   9.887  10.638   4.425
  303POPC   C1A 4182  10.115  10.273   4.691
  303POPC   D2A 4183   9.917  10.549   5.009
  303POPC   C3A 4184  10.028  10.388   5.410
  303POPC   C4A 4185   9.961  10.571   5.801
  303POPC   C1B 4186   9.589  10.355   4.653
  303POPC   C2B 4187   9.432  10.336   5.094
  303POPC   C3B 4188   9.548  10.508   5.489
  303POPC   C4B 4189   9.491  10.370   5.909
  304POPC   NC3 4190   6.639   1.691   3.712
  304POPC   PO4 4191   6.322   1.187   3.887
  304POPC   GL1 4192   6.540   1.063   4.342
  304POPC   GL2 4193   6.869   0.822   4.353
  304POPC   C1A 4194   6.540   1.236   4.813
  304POPC   D2A 4195   6.556   1.599   5.151
  304POPC   C3A 4196   6.485   1.628   5.633
  304POPC   C4A 4197   6.682   1.626   6.067
  304POPC   C1B 4198   6.713   0.751   4.746
  304POPC   C2B 4199   6.768   0.904   5.170
  304POPC   C3B 4200   6.660   0.861   5.578
  304POPC   C4B 4201   6.470   1.155   5.830
  305POPC   NC3 4202  10.907   0.513   4.009
  305POPC   PO4 4203   0.029   0.708   4.064
  305POPC   GL1 4204  11.337   0.494   4.422
  305POPC   GL2 4205  10.964   0.458   4.512
  305POPC   C1A 4206  11.308   0.501   4.887
  305POPC   D2A 4207  11.337   0.871   5.130
  305POPC   C3A 4208  11.442   0.845   5.507
  305POPC   C4A 4209  11.424   0.557   5.788
  305POPC   C1B 4210  10.741   0.195   4.857
  305POPC   C2B 4211  10.805   0.159   5.256
  305POPC   C3B 4212  11.156   0.355   5.394
  305POPC   C4B 4213  10.942   0.418   5.729
  306POPC   NC3 4214   0.847   9.670   3.951
  306POPC   PO4 4215   0.333   9.238   3.928
  306POPC   GL1 4216   0.631   9.188   4.312
  306POPC   GL2 4217   0.797   9.516   4.442
  306POPC   C1A 4218   0.602   9.188   4.797
  306POPC   D2A 4219   0.584   9.490   5.144
  306POPC   C3A 4220   0.626   9.485   5.586
  306POPC   C4A 4221   0.330   9.540   5.900
  306POPC   C1B 4222   0.562   9.819   4.731
  306POPC   C2B 4223   0.305   9.924   5.130
  306POPC   C3B 4224   0.403   9.950   5.579
  306POPC   C4B 4225   0.654   9.910   5.995
  307POPC   NC3 4226  10.776   6.033   4.158
  307POPC   PO4 4227  10.179   5.806   3.897
  307POPC   GL1 4228  10.450   5.656   4.241
  307POPC   GL2 4229  10.285   5.895   4.418
  307POPC   C1A 4230  10.680   5.696   4.685
  307POPC   D2A 4231  10.830   5.832   5.091
  307POPC   C3A 4232  10.556   5.705   5.390
  307POPC   C4A 4233  10.541   5.857   5.808
  307POPC   C1B 4234  10.183   5.568   4.719
  307POPC   C2B 4235  10.096   5.588   5.168
  307POPC   C3B 4236  10.073   5.754   5.601
  307POPC   C4B 4237  10.089   6.116   5.934
  308POPC   NC3 4238  10.591  11.254   3.940
  308POPC   PO4 4239   9.928  11.483   3.793
  308POPC   GL1 4240  10.047  11.388   4.237
  308POPC   GL2 4241  10.341  11.210   4.356
  308POPC   C1A 4242  10.022  11.288   4.719
  308POPC   D2A 4243   9.962  11.440   5.146
  308POPC   C3A 4244  10.199  11.255   5.464
  308POPC   C4A 4245  10.071  11.088   5.843
  308POPC   C1B 4246  10.653  11.140   4.677
  308POPC   C2B 4247  10.537  11.232   5.075
  308POPC   C3B 4248  10.723  11.163   5.468
  308POPC   C4B 4249  10.560  11.285   5.833
  309POPC   NC3 4250   0.624   4.044   3.949
  309POPC   PO4 4251   0.234   4.557   4.059
  309POPC   GL1 4252   0.273   4.257   4.323
  309POPC   GL2 4253   0.596   4.259   4.399
  309POPC   C1A 4254   0.216   4.109   4.705
  309POPC   D2A 4255   0.158   4.340   5.061
  309POPC   C3A 4256   0.234   4.135   5.435
  309POPC   C4A 4257   0.221   4.385   5.783
  309POPC   C1B 4258   0.499   4.533   4.731
  309POPC   C2B 4259   0.652   4.287   5.069
  309POPC   C3B 4260   0.831   4.041   5.378
  309POPC   C4B 4261   0.653   4.109   5.781
  310POPC   NC3 4262   9.944   4.571   3.635
  310POPC   PO4 4263   9.389   4.394   3.975
  310POPC   GL1 4264   9.750   4.466   4.260
  310POPC   GL2 4265   9.799   4.168   4.456
  310POPC   C1A 4266   9.797   4.594   4.726
  310POPC   D2A 4267   9.802   4.309   5.114
  310POPC   C3A 4268   9.715   4.501   5.519
  310POPC   C4A 4269   9.715   4.726   5.942
  310POPC   C1B 4270   9.455   4.201   4.739
  310POPC   C2B 4271   9.235   4.268   5.140
  310POPC   C3B 4272   9.265   4.127   5.563
  310POPC   C4B 4273   9.390   4.339   5.895
  311POPC   NC3 4274   6.361  10.370   4.077
  311POPC   PO4 4275   6.976  10.234   3.907
  311POPC   GL1 4276   6.836  10.549   4.269
  311POPC   GL2 4277   6.516  10.503   4.520
  311POPC   C1A 4278   6.896  10.717   4.737
  311POPC   D2A 4279   6.652  10.563   5.125
  311POPC   C3A 4280   6.834  10.640   5.560
  311POPC   C4A 4281   6.763  10.412   5.991
  311POPC   C1B 4282   6.148  10.500   4.824
  311POPC   C2B 4283   6.088  10.457   5.295
  311POPC   C3B 4284   6.351  10.440   5.680
  311POPC   C4B 4285   6.267  10.361   6.124
  312POPC   NC3 4286   8.156   0.612   3.948
  312POPC   PO4 4287   7.822   0.033   3.866
  312POPC   GL1 4288   7.927   0.201   4.289
  312POPC   GL2 4289   8.291   0.261   4.303
  312POPC   C1A 4290   8.031   0.100   4.745
  312POPC   D2A 4291   8.340   0.056   5.098
  312POPC   C3A 4292   8.135   0.053   5.542
  312POPC   C4A 4293   7.946   0.295   5.843
  312POPC   C1B 4294   8.430   0.402   4.720
  312POPC   C2B 4295   8.193   0.550   5.011
  312POPC   C3B 4296   8.207   0.536   5.439
  312POPC   C4B 4297   8.123   0.793   5.770
  313POPC   NC3 4298   8.220   1.266   3.903
  313POPC   PO4 4299   8.459   0.806   4.242
  313POPC   GL1 4300   8.132   1.029   4.403
  313POPC   GL2 4301   8.152   1.396   4.393
  313POPC   C1A 4302   8.197   1.119   4.837
  313POPC   D2A 4303   8.198   0.996   5.243
  313POPC   C3A 4304   8.419   1.151   5.561
  313POPC   C4A 4305   8.243   1.490   5.739
  313POPC   C1B 4306   7.821   1.433   4.715
  313POPC   C2B 4307   7.681   1.232   5.102
  313POPC   C3B 4308   7.802   1.131   5.515
  313POPC   C4B 4309   7.856   1.196   5.937
  314POPC   NC3 4310   9.349   3.460   4.044
  314POPC   PO4 4311   8.630   3.157   4.035
  314POPC   GL1 4312   8.938   3.310   4.361
  314POPC   GL2 4313   8.938   3.654   4.409
  314POPC   C1A 4314   8.871   3.372   4.840
  314POPC   D2A 4315   8.980   3.268   5.279
  314POPC   C3A 4316   8.719   3.304   5.695
  314POPC   C4A 4317   8.812   3.520   6.091
  314POPC   C1B 4318   9.113   3.825   4.824
  314POPC   C2B 4319   9.022   3.783   5.265
  314POPC   C3B 4320   8.796   3.909   5.649
  314POPC   C4B 4321   8.985   4.004   6.036
  315POPC   NC3 4322   6.808  10.567   3.641
  315POPC   PO4 4323   7.463  10.616   3.693
  315POPC   GL1 4324   7.375  10.346   4.174
  315POPC   GL2 4325   7.304  10.568   4.470
  315POPC   C1A 4326   7.254  10.108   4.630
  315POPC   D2A 4327   7.132  10.350   5.027
  315POPC   C3A 4328   7.043  10.191   5.466
  315POPC   C4A 4329   7.235  10.398   5.841
  315POPC   C1B 4330   7.640  10.423   4.745
  315POPC   C2B 4331   7.634  10.297   5.131
  315POPC   C3B 4332   7.511  10.533   5.435
  315POPC   C4B 4333   7.735  10.474   5.789
  316POPC   NC3 4334   1.368   2.668   3.824
  316POPC   PO4 4335   0.828   2.974   3.945
  316POPC   GL1 4336   0.976   2.642   4.225
  316POPC   GL2 4337   1.292   2.772   4.313
  316POPC   C1A 4338   1.025   2.435   4.649
  316POPC   D2A 4339   1.243   2.554   5.051
  316POPC   C3A 4340   0.979   2.498   5.412
  316POPC   C4A 4341   0.919   2.285   5.799
  316POPC   C1B 4342   1.130   2.931   4.688
  316POPC   C2B 4343   1.134   3.070   5.125
  316POPC   C3B 4344   1.282   2.893   5.516
  316POPC   C4B 4345   1.373   2.505   5.730
  317POPC   NC3 4346   9.761   1.899   3.932
  317POPC   PO4 4347   9.218   2.355   3.922
  317POPC   GL1 4348   9.472   2.222   4.238
  317POPC   GL2 4349   9.315   1.910   4.303
  317POPC   C1A 4350   9.520   2.304   4.688
  317POPC   D2A 4351   9.429   2.041   5.058
  317POPC   C3A 4352   9.579   2.165   5.481
  317POPC   C4A 4353   9.458   2.260   5.935
  317POPC   C1B 4354   9.681   1.850   4.579
  317POPC   C2B 4355   9.830   1.746   4.991
  317POPC   C3B 4356   9.639   1.661   5.413
  317POPC   C4B 4357   9.716   1.820   5.834
  318POPC   NC3 4358   3.359   5.839   3.789
  318POPC   PO4 4359   3.616   5.347   3.815
  318POPC   GL1 4360   3.510   5.095   4.226
  318POPC   GL2 4361   3.197   4.885   4.261
  318POPC   C1A 4362   3.633   5.125   4.699
  318POPC   D2A 4363   3.771   5.231   5.143
  318POPC   C3A 4364   3.457   5.210   5.496
  318POPC   C4A 4365   3.384   4.885   5.804
  318POPC   C1B 4366   3.336   4.714   4.679
  318POPC   C2B 4367   3.458   4.817   5.130
  318POPC   C3B 4368   3.781   4.809   5.467
  318POPC   C4B 4369   3.867   4.666   5.893
  319W        W 4370  11.242  10.744   8.540
  320W        W 4371   8.591   4.371   3.150
  321W        W 4372   5.752   3.541   8.133
  322W        W 4373   6.755   6.833  11.800
  323W        W 4374   7.627   8.429   9.842
  324W        W 4375   2.198   9.680   8.637
  325W        W 4376   5.973   3.868   8.562
  326W        W 4377   0.949   5.088   2.232
  327W        W 4378   3.669   0.818   3.125
  328W        W 4379   9.290   0.761  11.230
  329W        W 4380   7.618   6.120   8.348
  330W        W 4381   8.664   5.500   8.616
  331W        W 4382  10.961   9.093   9.086
  332W        W 4383   9.782   9.391   9.113
  333W        W 4384  10.454   6.554   2.985
  334W        W 4385   7.783  10.865   2.237
  335W        W 4386  10.258   6.659  10.844
  336W        W 4387   7.492   1.368   0.145
  337W        W 4388   5.125   6.451   0.850
  338W        W 4389   0.746   4.368  11.647
  339W        W 4390   0.129   8.136  10.785
  340W        W 4391   7.991   2.326   2.937
  341W        W 4392   4.066  10.746  11.500
  342W        W 4393   3.181   7.614   9.987
  343W        W 4394   1.444   0.903   1.892
  344W        W 4395   9.697   6.614   9.997
  345W        W 4396   7.232   8.020   0.759
  346W        W 4397  10.994   5.443  10.537
  347W        W 4398   6.672   0.761   1.753
  348W        W 4399   3.258   7.041   1.781
  349W        W 4400   5.538   3.599   9.481
  350W        W 4401   1.838   9.465  11.775
  351W        W 4402   4.766   2.836   0.524
  352W        W 4403   9.947  11.421   3.195
  353W        W 4404   8.613   3.413   2.153
  354W        W 4405   1.527   7.585  10.023
  355W        W 4406   0.397   8.520  11.529
  356W        W 4407   0.935   6.977   8.271
  357W        W 4408   2.464   9.917   0.352
  358W        W 4409   6.406   3.617   8.761
  359W        W 4410   7.506   9.532   9.003
  360W        W 4411  10.640   5.074  11.975
  361W        W 4412   6.123   8.455  10.395
  362W        W 4413   1.095   1.401   9.786
  363W        W 4414   6.518   2.922  11.641
  364W        W 4415   2.298  10.833   1.374
  365W        W 4416   1.824   5.521   2.477
  366W        W 4417   9.413   8.841   3.028
  367W        W 4418   4.644  10.775   2.780
  368W        W 4419   5.205   5.455   1.821
  369W        W 4420   8.471   6.950   3.057
  370W        W 4421   7.613   6.579   9.491
  371W        W 4422   5.574   2.620   1.482
  372W        W 4423  11.153  10.519   2.901
  373W        W 4424   7.750   9.527   3.520
  374W        W 4425   5.573   6.659  10.537
  375W        W 4426   1.370   9.921   0.460
  376W        W 4427   9.851   4.754   0.724
  377W        W 4428   7.604   5.212  10.099
  378W        W 4429   2.232   3.704   2.326
  379W        W 4430   1.452   8.138   2.736
  380W        W 4431   3.749   3.732   1.272
  381W        W 4432   9.297   2.466   2.488
  382W        W 4433   5.144   3.222   1.339
  383W        W 4434   5.661   0.368  11.106
  384W        W 4435   5.388   6.053   9.830
  385W        W 4436   4.829   1.165   3.105
  386W        W 4437   9.412   4.623  11.955
  387W        W 4438   4.967  10.556  10.439
  388W        W 4439   8.643   9.884   2.571
  389W        W 4440  11.223   2.685   8.821
  390W        W 4441   2.687   5.924   1.833
  391W        W 4442   2.962   8.042   9.274
  392W        W 4443   2.721   1.974  11.761
  393W        W 4444   0.855   9.371   2.641
  394W        W 4445   5.395   4.467   3.923
  395W        W 4446   2.727   8.615   3.277
  396W        W 4447   1.702   7.906   3.529
  397W        W 4448   5.188   3.649   1.858
  398W        W 4449   6.951   7.561   1.323
  399W        W 4450   3.189   7.446   2.565
  400W        W 4451   3.779   0.481  10.685
  401W        W 4452  11.401   2.573  10.859
  402W        W 4453   5.377  10.841  10.585
  403W        W 4454   1.472   9.178   0.640
  404W        W 4455   8.686  10.518  11.732
  405W        W 4456   4.959   2.397   8.138
  406W        W 4457   3.130   6.607   1.495
  407W        W 4458   0.224   6.555  11.492
  408W        W 4459   3.319   4.759  11.059
  409W        W 4460  10.357   4.151   1.247
  410W        W 4461   3.568   5.545  11.290
  411W        W 4462   5.947  10.420  10.965
  412W        W 4463   7.603   5.080  11.923
  413W        W 4464   2.775   9.112   3.415
  414W        W 4465   6.458  10.206   3.549
  415W        W 4466   3.303   3.395   0.459
  416W        W 4467   8.214   9.061  11.268
  417W        W 4468   2.338   2.271   9.146
  418W        W 4469   8.987   5.391  11.556
  419W        W 4470   5.248   2.609  10.781
  420W        W 4471   9.994   6.639   2.767
  421W        W 4472   6.960   4.644  10.746
  422W        W 4473   4.282   6.988   0.712
  423W        W 4474  11.310   6.069  10.396
  424W        W 4475   1.291   6.470   0.178
  425W        W 4476   9.041   8.896   0.528
  426W        W 4477   6.445   4.045   9.143
  427W        W 4478   2.269   9.656  11.960
  428W        W 4479  10.984   7.475   1.463
  429W        W 4480  10.035  10.764  10.406
  430W        W 4481   3.935   0.163  11.101
  431W        W 4482   7.068   7.523   0.294
  432W        W 4483   7.822   0.869   2.630
  433W        W 4484   7.077   0.255  11.526
  434W        W 4485   8.609   2.250  11.871
  435W        W 4486   4.214   5.707   0.341
  436W        W 4487   4.253   3.761   1.379
  437W        W 4488   5.538   1.954   9.455
  438W        W 4489   8.434   7.121   1.652
  439W        W 4490   7.600   1.698   3.403
  440W        W 4491  10.019  10.825   1.291
  441W        W 4492   8.027   4.107   1.197
  442W        W 4493   5.599   9.662   9.423
  443W        W 4494   1.258   6.511   1.138
  444W        W 4495   9.459   7.928   2.840
  445W        W 4496   6.967  11.297   2.816
  446W        W 4497   5.480   4.176   2.251
  447W        W 4498   2.252   2.778   8.912
  448W        W 4499   0.946  10.870   9.834
  449W        W 4500   2.832   7.521   1.825
  450W        W 4501   4.228  11.135   3.456
  451W        W 4502   4.722   0.774  11.934
  452W        W 4503   7.671   3.670  10.446
  453W        W 4504  10.869   8.838   1.462
  454W        W 4505  10.461   0.573   1.407
  455W        W 4506   3.193   8.115   9.753
  456W        W 4507   3.145   1.639   2.490
  457W        W 4508   9.315   7.547  10.789
  458W        W 4509   2.930  11.197   2.206
  459W        W 4510   7.781   9.277  11.720
  460W        W 4511   9.536   2.606   0.445
  461W        W 4512   7.059   1.700   0.202
  462W        W 4513   4.155   8.759   8.946
  463W        W 4514   0.887   1.376   0.028
  464W        W 4515   7.145   8.878   3.166
  465W        W 4516   3.139   5.667   9.428
  466W        W 4517  10.008   7.088   0.497
  467W        W 4518   5.526   8.408   9.945
  468W        W 4519   0.659   0.950   0.284
  469W        W 4520   1.111   9.484   0.369
  470W        W 4521   7.083   4.317   0.877
  471W        W 4522   2.751  10.795   1.949
  472W        W 4523   4.328  10.776   0.024
  473W        W 4524   9.222  10.063  11.060
  474W        W 4525   3.201   6.469   8.903
  475W        W 4526   5.994   5.737  11.366
  476W        W 4527   5.917   6.048   9.817
  477W        W 4528   2.167   4.846   3.284
  478W        W 4529   9.569   1.064   9.614
  479W        W 4530  10.702   0.885  11.371
  480W        W 4531   4.722   0.645  11.032
  481W        W 4532   2.295   7.599   8.020
  482W        W 4533   2.464   4.827   8.322
  483W        W 4534   7.983   9.576   9.309
  484W        W 4535   3.760   2.550   8.705
  485W        W 4536   4.563   7.143  11.806
  486W        W 4537   3.840   9.035   8.590
  487W        W 4538   0.910   8.396   1.772
  488W        W 4539   9.459   6.517  10.431
  489W        W 4540   3.060   7.136   9.518
  490W        W 4541   5.094  10.732   9.954
  491W        W 4542   7.045   1.831  10.853
  492W        W 4543   5.110   2.340   3.240
  493W        W 4544   2.289   7.179   9.876
  494W        W 4545   3.152   1.821   3.774
  495W        W 4546   7.970   6.083   3.224
  496W        W 4547  11.472   3.414   2.738
  497W        W 4548   5.949   6.445   0.390
  498W        W 4549   4.125  11.266   2.145
  499W        W 4550   0.931   2.698   1.215
  500W        W 4551   5.517   2.722   3.253
  501W        W 4552   4.864   4.335   0.893
  502W        W 4553   9.713   3.358  10.677
  503W        W 4554   5.125   9.837   2.222
  504W        W 4555   6.130  10.818  10.002
  505W        W 4556   1.451   3.326   1.485
  506W        W 4557   7.225   0.836   9.297
  507W        W 4558   0.820   6.546   1.392
  508W        W 4559   9.858   8.475   0.655
  509W        W 4560   1.665   4.027   9.661
  510W        W 4561   4.500   5.291  11.226
  511W        W 4562  10.547  10.057   2.254
  512W        W 4563  11.420   4.711  11.894
  513W        W 4564   8.169   5.453   8.462
  514W        W 4565  10.854   9.342   1.575
  515W        W 4566   1.195   2.796   2.966
  516W        W 4567   7.431   6.588   8.502
  517W        W 4568   0.053   4.831   0.369
  518W        W 4569   2.752   8.566   0.350
  519W        W 4570   2.628   4.642   1.949
  520W        W 4571   4.650  10.233   0.928
  521W        W 4572   3.880   1.747   2.170
  522W        W 4573   7.562   2.405   2.679
  523W        W 4574   2.354   6.966  10.811
  524W        W 4575   6.345   9.527   9.682
  525W        W 4576   6.187   5.080  10.847
  526W        W 4577   3.152   8.652   9.871
  527W        W 4578   8.251   4.802   3.609
  528W        W 4579   8.860   8.544  11.251
  529W        W 4580   3.318   8.084   0.369
  530W        W 4581   7.434   2.681   1.841
  531W        W 4582   6.731   0.799   9.246
  532W        W 4583   9.740   7.551   1.318
  533W        W 4584   8.452   6.087   3.438
  534W        W 4585   0.890   5.589   9.564
  535W        W 4586   1.803  11.001  10.282
  536W        W 4587   4.944   0.081  10.319
  537W        W 4588   8.542   6.640   2.176
  538W        W 4589   1.302   7.477  10.891
  539W        W 4590   0.329   1.678   0.786
  540W        W 4591   5.649   2.808  11.022
  541W        W 4592   5.537   2.313   3.587
  542W        W 4593   6.663   8.722  11.199
  543W        W 4594   3.552   0.993   1.297
  544W        W 4595   7.427   1.305   0.927
  545W        W 4596   7.371   6.157   0.337
  546W        W 4597   1.063   8.462   8.457
  547W        W 4598  11.441   5.187   3.377
  548W        W 4599   9.138   6.092   8.195
  549W        W 4600   3.890  10.797  11.001
  550W        W 4601   0.849   7.892   1.965
  551W        W 4602  10.524   9.915   1.283
  552W        W 4603   5.594   7.163   1.707
  553W        W 4604   7.628  10.079   0.093
  554W        W 4605   2.644   7.567   0.275
  555W        W 4606   9.881   6.498   2.293
  556W        W 4607  10.941   6.471   9.602
  557W        W 4608  10.043   3.331   1.359
  558W        W 4609   1.514  11.351   0.002
  559W        W 4610   7.732   1.935   2.549
  560W        W 4611   9.437   7.034  10.735
  561W        W 4612   0.403   1.168   0.712
  562W        W 4613   5.628   7.943   2.816
  563W        W 4614   6.103  11.323   2.661
  564W        W 4615   1.188   6.574   0.652
  565W        W 4616  10.804  11.296   1.151
  566W        W 4617   4.608   7.089   9.850
  567W        W 4618  11.460   2.588   3.172
  568W        W 4619   5.557   4.166   8.669
  569W        W 4620   2.342   9.110   2.830
  570W        W 4621   2.477   8.166  11.805
  571W        W 4622   9.052  10.496  10.821
  572W        W 4623   0.991   1.873  11.995
  573W        W 4624   1.340   8.667   1.929
  574W        W 4625   6.491   7.177   3.116
  575W        W 4626   4.873   1.996   1.399
  576W        W 4627   9.874   9.789  10.383
  577W        W 4628   9.596   6.785   9.212
  578W        W 4629   1.122   5.680   0.503
  579W        W 4630   5.824  10.461   9.444
  580W        W 4631   8.015   0.572  11.426
  581W        W 4632   9.232   2.141   3.470
  582W        W 4633   6.402   5.741   2.220
  583W        W 4634   1.833   2.208   9.271
  584W        W 4635   9.474   3.198   3.599
  585W        W 4636   4.312   2.642  11.091
  586W        W 4637   5.686   8.695   9.554
  587W        W 4638  10.874   6.758  11.965
  588W        W 4639   8.178  10.968   0.749
  589W        W 4640   1.311   8.992  11.495
  590W        W 4641   2.164   1.833   2.687
  591W        W 4642   2.662   0.328   2.831
  592W        W 4643   3.234   3.722   0.052
  593W        W 4644   4.641   6.166   3.517
  594W        W 4645   9.405   4.352   9.869
  595W        W 4646   4.290   7.959  10.335
  596W        W 4647   0.811   8.942   1.351
  597W        W 4648   7.386   3.136   9.463
  598W        W 4649   5.105   9.505   9.437
  599W        W 4650   3.040   6.054  11.939
  600W        W 4651   0.507   8.573   2.005
  601W        W 4652   4.305   7.180   8.872
  602W        W 4653   9.893   1.970   1.692
  603W        W 4654   0.822   3.525   3.092
  604W        W 4655   2.744   9.357   9.911
  605W        W 4656   7.398   4.857  10.493
  606W        W 4657   4.796   6.639   1.224
  607W        W 4658   7.386   1.693  11.778
  608W        W 4659   9.431   3.158  11.500
  609W        W 4660   8.712   9.885   0.322
  610W        W 4661  10.344   9.450  10.011
  611W        W 4662   2.433   2.293  10.090
  612W        W 4663  10.758   9.528   8.814
  613W        W 4664   6.967   9.969   3.213
  614W        W 4665   3.510   5.099   3.358
  615W        W 4666   5.605   9.716   1.852
  616W        W 4667   5.567   2.433   9.229
  617W        W 4668   8.563  11.337   2.241
  618W        W 4669   6.293   7.049  10.473
  619W        W 4670   2.306   7.681  11.856
  620W        W 4671   1.415   2.814   1.953
  621W        W 4672   0.200   2.213   1.471
  622W        W 4673   4.116   6.358   8.599
  623W        W 4674   6.673   7.213  11.433
  624W        W 4675   0.238   5.355   1.490
  625W        W 4676   0.307   4.258   3.099
  626W        W 4677   3.793  10.229   0.179
  627W        W 4678   8.830   4.333   0.123
  628W        W 4679   1.354   1.037   2.779
  629W        W 4680   2.383   9.587  10.154
  630W        W 4681   7.885   9.311   0.760
  631W        W 4682  11.429   5.645  11.715
  632W        W 4683   5.694   8.505   1.382
  633W        W 4684   7.192  10.195   1.399
  634W        W 4685   2.793   9.582  11.537
  635W        W 4686   6.020   6.889   1.816
  636W        W 4687  10.987   7.427  11.379
  637W        W 4688   1.411   6.682   2.164
  638W        W 4689   3.587  10.426  10.465
  639W        W 4690   3.623   9.473   3.250
  640W        W 4691   0.728   6.740   9.056
  641W        W 4692   8.996   6.821   9.542
  642W        W 4693   8.666   6.641   1.669
  643W        W 4694  11.426   5.769   1.116
  644W        W 4695   3.617   1.828   2.660
  645W        W 4696  10.488   0.736   0.929
  646W        W 4697   1.814  10.167  11.286
  647W        W 4698   4.139   5.698  11.839
  648W        W 4699  11.282   7.454  11.788
  649W        W 4700   8.568   0.548  10.220
  650W        W 4701   6.237   9.763   0.361
  651W        W 4702   1.788   7.309   0.250
  652W        W 4703   4.098   0.451   1.426
  653W        W 4704   5.197   1.666  11.733
  654W        W 4705   8.111   7.121   9.961
  655W        W 4706   8.428   1.178  10.855
  656W        W 4707   5.103   4.459  11.214
  657W        W 4708   7.124   7.136   1.104
  658W        W 4709   0.787   1.890   2.312
  659W        W 4710   7.963   0.326   0.264
  660W        W 4711   5.113  10.069   3.143
  661W        W 4712   0.720   8.887  11.091
  662W        W 4713   5.190   1.862   3.139
  663W        W 4714   2.666   5.193   3.669
  664W        W 4715   5.744   3.158   2.125
  665W        W 4716   3.617   4.854   0.625
  666W        W 4717   8.929   3.755   0.732
  667W        W 4718   7.629   9.145   3.082
  668W        W 4719   7.462   8.147   2.061
  669W        W 4720   1.287  11.381  11.023
  670W        W 4721   0.986   3.039   9.658
  671W        W 4722   9.052   0.259  11.466
  672W        W 4723   5.791   5.758  11.854
  673W        W 4724   4.971  10.238  10.037
  674W        W 4725   3.583   7.025   9.613
  675W        W 4726   6.576  11.086  10.972
  676W        W 4727   9.596   5.515   9.440
  677W        W 4728   2.102   4.196  10.573
  678W        W 4729   7.453   4.228   1.925
  679W        W 4730   0.897   7.616   9.388
  680W        W 4731   2.465  10.360  10.076
  681W        W 4732   7.070  10.564   8.673
  682W        W 4733   7.174  11.135   0.390
  683W        W 4734   0.808   3.356  10.038
  684W        W 4735   4.701   6.162   0.802
  685W        W 4736   3.646   2.384  11.795
  686W        W 4737   2.199   6.239   2.980
  687W        W 4738   8.324   5.283   2.815
  688W        W 4739   8.816   3.774   9.079
  689W        W 4740  10.780   4.852   3.640
  690W        W 4741   5.839  10.555   0.175
  691W        W 4742   2.335  11.321   9.060
  692W        W 4743   5.689   1.789   0.999
  693W        W 4744   8.152   8.268   2.263
  694W        W 4745   2.299   1.722  11.913
  695W        W 4746   1.412   5.157   2.654
  696W        W 4747   5.487   2.652   0.949
  697W        W 4748   3.123   9.457   9.177
  698W        W 4749   2.987   4.135   0.224
  699W        W 4750   4.725   7.239   0.532
  700W        W 4751   9.984   0.827   3.475
  701W        W 4752  10.587   5.176   2.282
  702W        W 4753   8.080   4.606   9.447
  703W        W 4754   1.659   2.358   2.296
  704W        W 4755   9.272   3.269  10.923
  705W        W 4756   7.130   0.935  11.307
  706W        W 4757   9.601   8.970   0.861
  707W        W 4758   4.356   9.941  10.665
  708W        W 4759  10.644   3.224   0.699
  709W        W 4760   4.900   1.281   1.216
  710W        W 4761   1.256   9.772   9.819
  711W        W 4762   6.536   9.974   9.603
  712W        W 4763   2.175   8.648   1.625
  713W        W 4764   1.860   8.562   9.989
  714W        W 4765   9.361   9.454   2.339
  715W        W 4766   2.758   2.188   0.250
  716W        W 4767   3.125   3.167   1.794
  717W        W 4768  10.071   9.599   3.078
  718W        W 4769   0.242   0.575   0.119
  719W        W 4770   4.148   9.512  10.961
  720W        W 4771   5.091   9.397  11.069
  721W        W 4772   9.203   6.580  10.867
  722W        W 4773   8.155  10.022   9.064
  723W        W 4774   7.925   0.354  10.962
  724W        W 4775   8.067   1.455   1.872
  725W        W 4776   1.133   7.978  11.594
  726W        W 4777   7.179   3.680   1.231
  727W        W 4778   0.517   7.694   1.451
  728W        W 4779  10.324   0.249   1.005
  729W        W 4780   6.325   1.716   2.299
  730W        W 4781   2.608   5.589   3.353
  731W        W 4782   3.536   8.387  11.304
  732W        W 4783   0.693  10.396   1.356
  733W        W 4784   3.671   7.918  11.523
  734W        W 4785   5.206   3.058  11.572
  735W        W 4786   6.494   2.806   3.451
  736W        W 4787   0.761   0.663   3.223
  737W        W 4788   7.014   8.425   1.908
  738W        W 4789   5.605   7.806   9.847
  739W        W 4790   5.863  10.536   2.103
  740W        W 4791   0.497  11.035   0.661
  741W        W 4792   8.292   6.362  10.989
  742W        W 4793  11.420   7.637   9.663
  743W        W 4794   1.537   7.934  10.902
  744W        W 4795   2.212   1.253   1.010
  745W        W 4796   5.674   5.543   2.734
  746W        W 4797   9.999   8.170   1.069
  747W        W 4798   3.260  10.817   0.851
  748W        W 4799  10.843   8.674   8.795
  749W        W 4800   6.693   3.217   8.918
  750W        W 4801   2.745   4.229  11.207
  751W        W 4802  10.355   5.579   1.894
  752W        W 4803  11.408   4.549   1.681
  753W        W 4804   5.025   2.074   9.543
  754W        W 4805   8.564   7.203  11.172
  755W        W 4806  10.883   4.690   1.691
  756W        W 4807   4.794   2.666  10.974
  757W        W 4808   0.950   9.016   9.199
  758W        W 4809   7.135   4.261   9.984
  759W        W 4810   9.018  11.485   9.535
  760W        W 4811  11.453   5.685  10.747
  761W        W 4812   5.710   1.104   1.812
  762W        W 4813   0.699   0.331  10.955
  763W        W 4814  10.860   7.027   1.713
  764W        W 4815  10.137   4.490   9.868
  765W        W 4816   6.677   9.112  11.674
  766W        W 4817   2.062   6.863   3.634
  767W        W 4818   7.608   0.727   2.044
  768W        W 4819  10.016   5.676  10.640
  769W        W 4820   2.608   1.794   1.755
  770W        W 4821   4.176   1.786   3.102
  771W        W 4822   6.779   5.153   0.444
  772W        W 4823   1.945   0.681   0.203
  773W        W 4824   8.539   8.950   2.743
  774W        W 4825   5.075   6.684  10.324
  775W        W 4826   7.035   1.018   3.592
  776W        W 4827   9.680   4.989   3.881
  777W        W 4828   6.270   5.713   1.263
  778W        W 4829   0.843   5.075   1.721
  779W        W 4830   7.819   4.659  10.737
  780W        W 4831   0.050   8.613   9.435
  781W        W 4832   5.946  10.104  10.486
  782W        W 4833   4.814   5.672   2.089
  783W        W 4834  10.866   0.888   1.303
  784W        W 4835   6.687   2.608   9.380
  785W        W 4836   6.044   2.155   2.251
  786W        W 4837  10.271   0.253  10.723
  787W        W 4838  10.501   5.620  10.464
  788W        W 4839   9.336   7.628   3.436
  789W        W 4840   2.815   8.484   2.794
  790W        W 4841   1.192   9.661   1.743
  791W        W 4842   5.798  10.069   0.377
  792W        W 4843   6.596   3.181  11.176
  793W        W 4844   7.482   7.639   1.261
  794W        W 4845   5.581   1.804   3.459
  795W        W 4846   6.375  10.602  11.201
  796W        W 4847   7.422   7.698   2.309
  797W        W 4848   7.553   6.729  11.421
  798W        W 4849  10.548   6.575  10.369
  799W        W 4850   8.597   9.889   8.769
  800W        W 4851   9.131   8.953  11.153
  801W        W 4852  11.443   5.591   1.861
  802W        W 4853   0.887  10.076   0.356
  803W        W 4854   2.725   6.614  10.942
  804W        W 4855  10.350   5.107   3.142
  805W        W 4856   9.986   1.704  10.270
  806W        W 4857   6.441   3.799   9.596
  807W        W 4858   1.337   5.489   3.225
  808W        W 4859   0.072  11.344  10.672
  809W        W 4860   9.557   0.232   0.527
  810W        W 4861   5.063   0.459   0.794
  811W        W 4862   3.646   2.328   1.205
  812W        W 4863  10.006   0.254   0.279
  813W        W 4864   4.577   2.196   0.977
  814W        W 4865   2.553   8.332   0.789
  815W        W 4866   0.562   9.192   0.791
  816W        W 4867   5.923   7.818  11.985
  817W        W 4868   6.503   5.133   1.865
  818W        W 4869   4.772   8.324   1.550
  819W        W 4870   3.206   1.388   2.043
  820W        W 4871  10.423   0.604   9.402
  821W        W 4872   3.852   0.376   9.682
  822W        W 4873   6.296   7.203   9.484
  823W        W 4874   2.232   5.248   9.490
  824W        W 4875   5.439   0.795   9.851
  825W        W 4876   0.905   8.346   3.527
  826W        W 4877   5.641   9.942  11.848
  827W        W 4878   2.184   3.367   2.788
  828W        W 4879  11.382   7.025  10.514
  829W        W 4880   2.715   4.503   0.951
  830W        W 4881   1.438   9.917   9.361
  831W        W 4882   7.044   4.829   0.748
  832W        W 4883   1.838   8.147   1.386
  833W        W 4884   7.812   4.189   8.694
  834W        W 4885  10.930   2.078   2.254
  835W        W 4886  11.295   9.927   0.755
  836W        W 4887   1.163   0.567   2.886
  837W        W 4888   7.784  10.655   0.785
  838W        W 4889   0.711   8.904   2.788
  839W        W 4890  10.023   5.664   0.971
  840W        W 4891   8.067  10.752   1.227
  841W        W 4892   6.258   9.203   3.134
  842W        W 4893   1.514   6.233   9.877
  843W        W 4894   6.431   0.297  11.662
  844W        W 4895   0.955   8.404   9.855
  845W        W 4896   6.673   9.415   1.068
  846W        W 4897  10.839   2.170   1.750
  847W        W 4898   4.211  10.791   2.461
  848W        W 4899   2.653   3.679   2.036
  849W        W 4900   7.859   0.373   2.704
  850W        W 4901   6.542   8.118  11.343
  851W        W 4902   0.666   2.148   1.741
  852W        W 4903   0.788   0.813   0.762
  853W        W 4904   1.295   3.121  11.576
  854W        W 4905  11.369   4.060   3.503
  855W        W 4906   2.365   2.450   0.456
  856W        W 4907   8.362   7.497   2.297
  857W        W 4908   1.200   9.403   9.455
  858W        W 4909   4.263  11.286  11.349
  859W        W 4910   1.755   5.081   1.679
  860W        W 4911   3.824   9.272   0.435
  861W        W 4912   3.518  11.395  11.952
  862W        W 4913   7.497   5.007   0.928
  863W        W 4914   2.553   4.636  11.787
  864W        W 4915   7.740   1.436   0.564
  865W        W 4916   7.903   1.930   0.711
  866W        W 4917   0.940   2.718   8.465
  867W        W 4918   3.178   7.493   1.087
  868W        W 4919   2.705   4.094   1.252
  869W        W 4920   6.974   0.323   2.755
  870W        W 4921   2.478   8.066   8.143
  871W        W 4922   4.895   2.813   4.028
  872W        W 4923   4.277   3.362  11.495
  873W        W 4924   2.253   3.816   1.328
  874W        W 4925  11.148   7.713   0.741
  875W        W 4926   1.019   8.904   0.419
  876W        W 4927   8.476   1.764   3.189
  877W        W 4928   1.352  10.045  11.736
  878W        W 4929   9.910   8.982   9.395
  879W        W 4930   0.346   2.732   0.043
  880W        W 4931   9.789   7.464   8.528
  881W        W 4932   3.920   2.177   2.886
  882W        W 4933   6.947   5.846  10.350
  883W        W 4934   4.226   2.212   3.378
  884W        W 4935   4.286   0.866   2.215
  885W        W 4936   7.745  10.168   0.582
  886W        W 4937   0.487   6.273   1.670
  887W        W 4938   0.307   1.884  10.291
  888W        W 4939  11.425   4.687  10.554
  889W        W 4940   3.627   0.474   2.727
  890W        W 4941   5.703   1.326   0.766
  891W        W 4942   1.141  10.436   9.516
  892W        W 4943  10.893  10.419   9.280
  893W        W 4944   6.275  10.244   0.205
  894W        W 4945   4.538  11.156   9.174
  895W        W 4946   4.182   4.709   2.814
  896W        W 4947   6.635   9.487  10.478
  897W        W 4948  11.311   7.676   9.144
  898W        W 4949  10.315   9.577  10.524
  899W        W 4950   3.897   6.166  10.664
  900W        W 4951   4.109   4.128   9.272
  901W        W 4952   1.690   9.510   8.599
  902W        W 4953   1.330   8.675   1.059
  903W        W 4954   0.867   6.364   2.937
  904W        W 4955   3.604  11.434   9.540
  905W        W 4956   4.785   8.402   2.882
  906W        W 4957   8.338  10.228   2.771
  907W        W 4958   5.573  10.614   2.965
  908W        W 4959   7.583   8.449  10.368
  909W        W 4960   0.186   1.458  11.898
  910W        W 4961   5.998   3.182   0.109
  911W        W 4962   0.647   7.058   9.485
  912W        W 4963   3.425   8.896   1.951
  913W        W 4964  11.285   8.014   3.066
  914W        W 4965   1.708   7.344   2.931
  915W        W 4966   3.068   5.285   8.224
  916W        W 4967   8.156   2.799  11.282
  917W        W 4968   9.294   0.460   2.742
  918W        W 4969   8.632   1.071   2.604
  919W        W 4970   9.380   2.155   0.321
  920W        W 4971  10.959  10.564   0.765
  921W        W 4972   2.270   9.105   9.982
  922W        W 4973   6.591   1.963   1.468
  923W        W 4974   5.673   1.926   1.986
  924W        W 4975   4.296   0.736  11.375
  925W        W 4976   6.122   3.815   0.394
  926W        W 4977   4.744   6.272  10.317
  927W        W 4978   0.320   2.273  10.904
  928W        W 4979   8.015   7.970   1.369
  929W        W 4980   6.585  10.431  10.758
  930W        W 4981   2.125   4.300   0.508
  931W        W 4982   3.179   5.533  10.514
  932W        W 4983   4.487   8.831   9.347
  933W        W 4984  10.382   2.411  10.919
  934W        W 4985   9.669   4.129   1.842
  935W        W 4986   1.541   6.345   3.524
  936W        W 4987   5.130   1.975   3.644
  937W        W 4988   3.299  10.171   2.709
  938W        W 4989   8.568   3.352   3.104
  939W        W 4990   6.171   1.395   2.687
  940W        W 4991  11.012   3.644   1.417
  941W        W 4992   8.547   6.167   9.160
  942W        W 4993  11.124   8.074   3.545
  943W        W 4994   8.040  11.446   8.925
  944W        W 4995   6.027  10.438   2.646
  945W        W 4996   3.583   6.391   2.712
  946W        W 4997   3.660   3.714   3.056
  947W        W 4998   9.410  10.522  10.288
  948W        W 4999   0.423   7.003   2.548
  949W        W 5000   2.106   9.996   2.860
  950W        W 5001   9.774   3.277  11.870
  951W        W 5002   7.613   2.225  10.921
  952W        W 5003   8.999  11.063   0.410
  953W        W 5004   9.299   5.096   1.460
  954W        W 5005   6.746   8.903   9.204
  955W        W 5006   8.285   9.145  11.769
  956W        W 5007   5.752   3.754   1.627
  957W        W 5008   1.327   3.768   2.878
  958W        W 5009   5.238   8.048   9.627
  959W        W 5010   0.986   1.678   1.437
  960W        W 5011   0.299   9.497   1.479
  961W        W 5012  10.408   3.234   2.190
  962W        W 5013   2.651  10.912   8.950
  963W        W 5014   5.758   7.182  11.286
  964W        W 5015   1.337   0.466   3.389
  965W        W 5016   8.605   5.905  10.965
  966W        W 5017   5.169   4.629  11.750
  967W        W 5018   1.025   0.641   1.739
  968W        W 5019   5.613   7.559  10.976
  969W        W 5020   2.119   5.970  10.922
  970W        W 5021   9.476   5.184   3.418
  971W        W 5022   3.764   8.030   8.916
  972W        W 5023   4.150   7.650   9.039
  973W        W 5024   7.146   2.315   3.015
  974W        W 5025   8.742   4.954  10.769
  975W        W 5026   0.811   0.204   1.878
  976W        W 5027   4.377   1.330   1.368
  977W        W 5028   6.994   2.757   8.995
  978W        W 5029   7.637   3.859   3.275
  979W        W 5030  11.498   4.268   0.155
  980W        W 5031   2.660   8.517   1.701
  981W        W 5032  10.874  10.357   0.301
  982W        W 5033   3.147   2.908   9.157
  983W        W 5034   1.380   2.768  10.999
  984W        W 5035   3.269   9.838   8.853
  985W        W 5036   5.059   5.863  11.359
  986W        W 5037   5.143   9.627   8.058
  987W        W 5038  10.946   8.103   2.683
  988W        W 5039   6.437   9.132   1.837
  989W        W 5040   5.666  10.136   8.550
  990W        W 5041   7.044   8.400   9.073
  991W        W 5042   6.007   5.543   9.654
  992W        W 5043   8.887   5.521  10.573
  993W        W 5044   7.455   3.610   0.772
  994W        W 5045   6.309   2.694   2.901
  995W        W 5046   8.091   5.532   0.692
  996W        W 5047   1.432   6.243   8.991
  997W        W 5048   6.670   0.068  10.850
  998W        W 5049   8.067   6.430   0.292
  999W        W 5050  10.589   4.504   9.620
 1000W        W 5051   9.577   3.554   2.667
 1001W        W 5052   4.176   2.837  10.033
 1002W        W 5053   0.354   4.545   9.816
 1003W        W 5054  10.001   9.080  11.520
 1004W        W 5055   2.640   6.582   2.918
 1005W        W 5056   3.313  10.495   3.193
 1006W        W 5057   9.918   1.699   3.457
 1007W        W 5058   9.414   5.552  11.753
 1008W        W 5059   7.984   9.957   3.271
 1009W        W 5060   1.236   4.553   9.855
 1010W        W 5061   9.023   9.369  11.465
 1011W        W 5062   3.599   0.418   0.045
 1012W        W 5063   3.060   3.077   8.393
 1013W        W 5064   0.247   9.116   0.063
 1014W        W 5065   8.149   8.930   0.579
 1015W        W 5066   9.736   6.660   0.452
 1016W        W 5067   9.326   9.390   9.938
 1017W        W 5068   5.228   1.938   0.721
 1018W        W 5069   3.142   2.381   2.152
 1019W        W 5070   9.319   5.911   1.945
 1020W        W 5071   0.941   1.528  11.097
 1021W        W 5072   2.886   1.623  10.485
 1022W        W 5073   3.775   0.273   9.177
 1023W        W 5074   0.396   6.468   3.294
 1024W        W 5075   1.848   3.613   9.393
 1025W        W 5076   9.857  10.030   3.225
 1026W        W 5077   5.948   0.493   9.280
 1027W        W 5078  11.370   7.028   1.705
 1028W        W 5079   7.672   2.611  11.946
 1029W        W 5080   8.430   0.248   0.454
 1030W        W 5081   5.771  10.920   9.194
 1031W        W 5082   8.434   8.098   9.091
 1032W        W 5083   0.316   5.171   3.014
 1033W        W 5084   4.821   8.906   0.921
 1034W        W 5085   0.543   3.984  11.882
 1035W        W 5086   0.417   6.279   9.768
 1036W        W 5087   8.744   1.451  11.776
 1037W        W 5088  11.249  11.188  10.294
 1038W        W 5089   2.616   8.125   2.098
 1039W        W 5090   3.630   8.415   9.733
 1040W        W 5091   7.894   6.948   2.595
 1041W        W 5092   9.569   2.378  11.105
 1042W        W 5093   6.938   0.800   1.290
 1043W        W 5094   6.246   6.371   8.562
 1044W        W 5095   2.182   8.323  10.717
 1045W        W 5096   0.924   1.367   9.089
 1046W        W 5097   2.068   6.847   9.524
 1047W        W 5098   9.766  10.279   8.999
 1048W        W 5099  11.061   7.701  10.501
 1049W        W 5100   1.191   1.966   0.710
 1050W        W 5101   8.595   9.950   1.143
 1051W        W 5102   6.028   8.197   3.053
 1052W        W 5103  11.041   9.839   0.326
 1053W        W 5104   4.800   9.788   2.636
 1054W        W 5105   6.141   1.378   1.148
 1055W        W 5106   1.757  11.240  11.105
 1056W        W 5107   9.403   6.639   0.081
 1057W        W 5108   8.270   0.250   2.995
 1058W        W 5109   2.438   0.714   0.308
 1059W        W 5110   2.585   6.132  11.037
 1060W        W 5111   3.766   0.066   0.383
 1061W        W 5112   7.981   8.971   1.579
 1062W        W 5113   6.636   8.926   0.320
 1063W        W 5114   0.895   3.402  11.448
 1064W        W 5115   0.843   6.782  10.905
 1065W        W 5116   8.170   6.672   1.763
 1066W        W 5117   2.431   4.834   1.200
 1067W        W 5118   9.410   2.435  10.641
 1068W        W 5119   5.098   2.644   1.294
 1069W        W 5120   0.890   3.660  10.899
 1070W        W 5121   7.566   7.220   0.308
 1071W        W 5122  10.138   7.909   0.674
 1072W        W 5123   6.708   9.314   9.990
 1073W        W 5124   9.852  10.139   1.812
 1074W        W 5125   2.198   4.677   0.161
 1075W        W 5126   2.203   7.935   2.361
 1076W        W 5127  11.182   6.489  11.255
 1077W        W 5128  10.922   9.991  10.058
 1078W        W 5129   1.593   2.359   1.454
 1079W        W 5130   6.506   1.712   1.001
 1080W        W 5131   1.930   1.346   9.400
 1081W        W 5132  11.379   7.255   0.806
 1082W        W 5133   9.876  10.854   9.920
 1083W        W 5134   1.183   9.569   0.862
 1084W        W 5135   0.724   2.320  11.299
 1085W        W 5136   9.515  10.367   0.027
 1086W        W 5137   9.330   7.618   1.007
 1087W        W 5138  10.869   7.187   3.076
 1088W        W 5139   6.610   1.462   1.464
 1089W        W 5140   5.521   6.692   1.826
 1090W        W 5141   9.413   1.897  11.060
 1091W        W 5142   9.286   1.427  11.833
 1092W        W 5143   4.694   7.742   2.951
 1093W        W 5144   6.543   3.737  10.913
 1094W        W 5145   5.133   8.034   3.031
 1095W        W 5146   9.523   8.874  10.799
 1096W        W 5147   9.480   1.651   1.509
 1097W        W 5148   2.909   9.479   2.174
 1098W        W 5149  11.323   5.105   2.876
 1099W        W 5150   7.616   9.319  10.488
 1100W        W 5151   2.874   0.941  11.428
 1101W        W 5152   2.250   4.377   9.823
 1102W        W 5153   3.773   7.978  11.025
 1103W        W 5154   5.146   6.664  10.845
 1104W        W 5155   9.750   7.015   0.951
 1105W        W 5156   0.216   2.846   8.981
 1106W        W 5157   3.725  10.359   2.905
 1107W        W 5158   3.201  11.363  10.622
 1108W        W 5159  10.975  10.827   2.537
 1109W        W 5160  10.830   6.339   2.754
 1110W        W 5161  11.124  11.115  11.517
 1111W        W 5162   0.386   6.020  10.760
 1112W        W 5163   8.186   2.820   1.266
 1113W        W 5164   7.502   2.652   9.033
 1114W        W 5165   7.045   7.038   2.073
 1115W        W 5166   0.340   9.039   3.112
 1116W        W 5167   9.861   1.805   1.192
 1117W        W 5168   2.909   5.487   0.726
 1118W        W 5169   7.948   8.367  11.325
 1119W        W 5170   7.932   0.667   3.123
 1120W        W 5171   8.989   8.701   2.777
 1121W        W 5172   2.081   0.893   0.657
 1122W        W 5173   8.012   3.860  10.081
 1123W        W 5174   9.369   7.424   9.845
 1124W        W 5175   0.853   0.495   8.841
 1125W        W 5176   4.741   4.357   2.927
 1126W        W 5177   7.041   5.027  11.330
 1127W        W 5178  11.013   4.076   0.613
 1128W        W 5179   4.420   1.303   2.758
 1129W        W 5180   2.523   4.212  10.215
 1130W        W 5181   6.422   2.750   1.667
 1131W        W 5182   3.312   0.445   9.434
 1132W        W 5183   7.033   2.976   9.826
 1133W        W 5184   5.177   4.029   8.362
 1134W        W 5185   0.062   2.862  11.239
 1135W        W 5186   6.842  10.737   0.584
 1136W        W 5187   2.698  10.812   9.920
 1137W        W 5188   4.561   2.211  11.936
 1138W        W 5189   7.094   6.516  11.416
 1139W        W 5190  10.243   4.032  10.411
 1140W        W 5191   7.889   5.027   1.472
 1141W        W 5192   6.349   3.285   3.250
 1142W        W 5193   4.285   4.216   2.646
 1143W        W 5194  11.361   7.500   3.178
 1144W        W 5195   1.249   6.670   9.765
 1145W        W 5196   9.455   4.044   2.842
 1146W        W 5197   4.738   4.110   8.641
 1147W        W 5198  10.032   8.621   1.943
 1148W        W 5199   0.897   7.714  10.671
 1149W        W 5200   8.982   5.621   0.976
 1150W        W 5201   0.929   0.224  10.215
 1151W        W 5202   1.161  10.208   2.796
 1152W        W 5203  10.102   3.050  10.547
 1153W        W 5204  11.024   1.167   0.549
 1154W        W 5205   4.602   2.259   2.382
 1155W        W 5206   7.344   1.469   9.066
 1156W        W 5207   3.813   0.387  10.196
 1157W        W 5208   2.490   1.765   8.810
 1158W        W 5209   6.673  10.926   8.726
 1159W        W 5210   3.834   4.624  11.357
 1160W        W 5211   6.191   2.963  10.328
 1161W        W 5212   3.044   5.540   8.850
 1162W        W 5213   0.271   3.160  10.830
 1163W        W 5214   2.436   4.630  11.293
 1164W        W 5215   0.118   1.784   8.853
 1165W        W 5216   4.235   5.031   9.566
 1166W        W 5217   9.988   1.721   2.666
 1167W        W 5218   9.075   4.289   2.593
 1168W        W 5219  11.262   3.114  10.867
 1169W        W 5220   8.365   1.754   0.862
 1170W        W 5221   1.268   8.459  11.545
 1171W        W 5222   6.929   6.229   9.144
 1172W        W 5223  11.393   3.185   1.344
 1173W        W 5224  10.673   1.870   3.937
 1174W        W 5225   1.175  10.280  10.424
 1175W        W 5226   9.087   9.036   2.007
 1176W        W 5227   8.959   1.888  11.931
 1177W        W 5228   4.281   9.935   2.775
 1178W        W 5229   8.973   6.923   1.198
 1179W        W 5230   6.870   3.104   9.375
 1180W        W 5231   6.215   8.509  11.275
 1181W        W 5232   9.419   3.584   3.153
 1182W        W 5233   8.555   2.074   1.282
 1183W        W 5234   8.513   8.043   2.755
 1184W        W 5235   9.873   9.312  10.648
 1185W        W 5236   7.481   2.787   2.343
 1186W        W 5237   8.959   7.140  10.852
 1187W        W 5238  10.805   9.794   1.878
 1188W        W 5239   4.748   9.477   8.467
 1189W        W 5240   8.142   1.813   2.254
 1190W        W 5241   8.017   6.436  11.441
 1191W        W 5242   7.590   5.318  10.608
 1192W        W 5243   7.055   9.063  11.997
 1193W        W 5244   7.112  10.984   9.025
 1194W        W 5245   8.878   4.567   8.640
 1195W        W 5246   4.172   2.600   3.003
 1196W        W 5247   5.669   3.850   0.717
 1197W        W 5248   1.258   6.541  11.273
 1198W        W 5249   8.501   8.997   3.240
 1199W        W 5250   4.151   0.460   8.845
 1200W        W 5251   8.723  10.914   0.956
 1201W        W 5252   6.556   8.446   9.694
 1202W        W 5253   2.330   8.648  10.341
 1203W        W 5254   0.501   1.058  11.806
 1204W        W 5255   0.400   4.389   1.720
 1205W        W 5256   0.412   0.471   2.076
 1206W        W 5257  11.300  10.773   0.408
 1207W        W 5258  10.517   4.798  10.035
 1208W        W 5259   1.815   1.749  10.102
 1209W        W 5260   6.476   4.737   0.388
 1210W        W 5261   1.211   5.005   3.186
 1211W        W 5262  10.337   6.274  11.237
 1212W        W 5263   6.117   9.626  10.574
 1213W        W 5264  10.912   7.875   1.779
 1214W        W 5265   3.301   8.330   8.932
 1215W        W 5266   2.279   6.178   9.319
 1216W        W 5267   9.941   5.448   8.712
 1217W        W 5268  10.402   2.137   9.586
 1218W        W 5269   1.852   0.250   2.730
 1219W        W 5270   3.373   1.287   8.787
 1220W        W 5271   7.191   7.288  10.060
 1221W        W 5272   8.582  10.778   0.473
 1222W        W 5273   6.414   7.994   9.009
 1223W        W 5274   6.626   5.424   0.050
 1224W        W 5275   7.479   1.539   2.378
 1225W        W 5276   6.755   9.487   3.224
 1226W        W 5277   3.467   8.635  11.765
 1227W        W 5278   5.899   2.941   0.839
 1228W        W 5279  10.898   5.549  10.035
 1229W        W 5280   2.418   1.788  11.394
 1230W        W 5281   7.216  10.643   0.224
 1231W        W 5282   0.034  10.887   0.881
 1232W        W 5283   3.299   7.462   2.060
 1233W        W 5284   8.904   7.580  11.100
 1234W        W 5285   6.246  10.023  10.924
 1235W        W 5286   3.735  10.922  10.010
 1236W        W 5287  10.077   9.102   1.787
 1237W        W 5288   3.796   7.037   0.511
 1238W        W 5289   9.403   7.153   1.864
 1239W        W 5290   3.627   9.375   9.246
 1240W        W 5291   3.840   9.866   1.205
 1241W        W 5292   1.319   5.321   9.441
 1242W        W 5293  11.332   8.574   8.971
 1243W        W 5294   8.242   6.367   8.786
 1244W        W 5295   6.925  11.464   3.295
 1245W        W 5296   2.386   1.328   9.138
 1246W        W 5297   6.378   9.157  11.276
 1247W        W 5298   3.125   1.843   9.528
 1248W        W 5299   6.566   2.465  11.898
 1249W        W 5300   3.724   9.823   2.046
 1250W        W 5301   6.175  11.065  11.290
 1251W        W 5302   7.152   7.072   0.561
 1252W        W 5303   2.337   9.903   1.773
 1253W        W 5304   8.500   9.414  11.057
 1254W        W 5305   5.522   5.644   9.544
 1255W        W 5306   7.645   7.995  10.143
 1256W        W 5307   1.145   0.363  11.213
 1257W        W 5308   1.321   8.136   1.930
 1258W        W 5309   7.547  10.868  11.450
 1259W        W 5310   1.683   4.550   9.569
 1260W        W 5311   8.902   1.648   2.909
 1261W        W 5312   5.148   8.632   0.329
 1262W        W 5313   5.640  10.026   1.411
 1263W        W 5314   9.854  10.285  10.339
 1264W        W 5315   9.049   3.698   8.632
 1265W        W 5316   5.654   8.644   0.462
 1266W        W 5317   2.027  11.292  11.923
 1267W        W 5318   7.437   4.003  11.936
 1268W        W 5319   4.572   6.748   2.919
 1269W        W 5320   5.360   5.073   2.629
 1270W        W 5321   9.494   3.018   2.493
 1271W        W 5322   9.152   1.233  10.039
 1272W        W 5323   0.639   0.550  10.496
 1273W        W 5324   4.545  10.359   8.515
 1274W        W 5325   1.237   3.555   9.858
 1275W        W 5326   0.753   0.068  11.399
 1276W        W 5327   0.631   7.154   1.280
 1277W        W 5328  10.427  10.835  11.001
 1278W        W 5329   1.920   5.047   2.638
 1279W        W 5330   1.468   9.736   1.269
 1280W        W 5331   3.661   2.345   0.693
 1281W        W 5332   6.710   6.840   2.394
 1282W        W 5333   8.447   7.101   0.332
 1283W        W 5334   5.274   3.297   2.245
 1284W        W 5335   0.226   2.308   9.120
 1285W        W 5336   1.755   6.870   2.739
 1286W        W 5337   5.270   0.172   0.398
 1287W        W 5338   0.055  10.292   2.350
 1288W        W 5339   6.744   9.988  10.997
 1289W        W 5340   6.004   8.495  11.773
 1290W        W 5341   8.056   7.243  11.117
 1291W        W 5342   9.820   9.414   0.683
 1292W        W 5343   2.400  11.335   0.280
 1293W        W 5344   2.373   9.424   0.408
 1294W        W 5345   8.492   5.613   3.594
 1295W        W 5346   4.252   3.562   0.913
 1296W        W 5347   6.971   2.362  10.998
 1297W        W 5348   8.432   3.276   9.496
 1298W        W 5349   9.192  10.110   0.403
 1299W        W 5350  10.182   8.600  11.580
 1300W        W 5351  11.423   8.631   9.918
 1301W        W 5352   6.518   0.640   0.056
 1302W        W 5353   6.105  11.065   3.461
 1303W        W 5354   0.142   7.195   9.812
 1304W        W 5355   2.910   7.601   2.980
 1305W        W 5356   0.415   9.011   1.733
 1306W        W 5357  10.527   8.498  11.959
 1307W        W 5358   7.205   5.668   1.085
 1308W        W 5359   3.389   5.270   9.143
 1309W        W 5360   9.907   8.137   2.821
 1310W        W 5361   2.907   5.475   1.747
 1311W        W 5362   2.409   3.308   1.187
 1312W        W 5363   3.876   1.290   8.618
 1313W        W 5364   8.708   6.670  10.835
 1314W        W 5365  10.418   1.498  10.445
 1315W        W 5366   7.167   6.504   3.166
 1316W        W 5367  11.475   6.133   0.001
 1317W        W 5368   0.172   1.069   0.254
 1318W        W 5369  11.449   3.389  10.437
 1319W        W 5370   8.881   3.215   8.551
 1320W        W 5371   0.069   6.091   1.918
 1321W        W 5372   5.990   4.084   9.447
 1322W        W 5373   9.875   3.699   0.627
 1323W        W 5374   4.648   8.543   0.460
 1324W        W 5375  10.821   3.474   2.397
 1325W        W 5376   0.471  10.007   2.211
 1326W        W 5377   5.052  11.451   0.833
 1327W        W 5378   7.268   6.196  10.603
 1328W        W 5379   3.779  11.136  11.421
 1329W        W 5380   2.657   9.311  11.950
 1330W        W 5381  10.616   7.861   0.517
 1331W        W 5382   1.705   4.869  11.038
 1332W        W 5383   6.902  11.371   9.495
 1333W        W 5384   1.873   8.835   0.288
 1334W        W 5385   8.552   2.354   2.360
 1335W        W 5386   3.671   2.857   0.724
 1336W        W 5387  10.680  11.412   0.668
 1337W        W 5388   2.864   4.183   2.659
 1338W        W 5389   3.144   0.319   1.519
 1339W        W 5390   0.268   5.530   9.818
 1340W        W 5391   6.310  10.449  10.311
 1341W        W 5392   4.931   0.652   1.661
 1342W        W 5393   0.247   3.128   0.390
 1343W        W 5394   2.955   0.135  10.175
 1344W        W 5395   0.483   3.090  11.431
 1345W        W 5396   1.981   8.112  11.897
 1346W        W 5397   4.604   7.594  11.561
 1347W        W 5398   7.324   0.528   8.911
 1348W        W 5399   6.575   7.886   2.355
 1349W        W 5400   7.549   2.292   0.782
 1350W        W 5401   3.762   5.198   0.255
 1351W        W 5402   3.707   4.492   1.901
 1352W        W 5403   8.137   4.624   8.660
 1353W        W 5404   7.853   8.458  11.928
 1354W        W 5405   5.492   8.983   8.595
 1355W        W 5406   0.893   9.238   3.145
 1356W        W 5407   2.802   2.107  10.366
 1357W        W 5408   0.497   1.304   2.645
 1358W        W 5409   5.310  11.358   1.752
 1359W        W 5410  10.279   9.480  11.334
 1360W        W 5411  10.727  10.409   1.329
 1361W        W 5412   2.783   2.392   0.778
 1362W        W 5413   8.022   6.004   4.129
 1363W        W 5414   2.316  10.878  11.798
 1364W        W 5415   6.981   1.520   0.724
 1365W        W 5416   0.025   9.961   8.829
 1366W        W 5417   0.478   3.058   9.777
 1367W        W 5418  10.641   3.913   0.284
 1368W        W 5419   2.817   3.768   9.457
 1369W        W 5420   4.593   9.485  10.696
 1370W        W 5421   5.672   1.721   2.929
 1371W        W 5422   3.410   1.419   2.888
 1372W        W 5423   5.284   9.481   8.538
 1373W        W 5424   0.222   0.329  10.756
 1374W        W 5425  10.888  10.128  11.290
 1375W        W 5426   4.628  10.062   2.220
 1376W        W 5427   4.934   0.780   9.773
 1377W        W 5428   4.050   4.623   3.545
 1378W        W 5429  10.537   7.227  11.533
 1379W        W 5430   6.788   3.655   9.190
 1380W        W 5431   4.514   4.447   9.558
 1381W        W 5432   3.818   0.405  11.579
 1382W        W 5433  10.883   4.175   1.136
 1383W        W 5434   5.170   9.860   3.626
 1384W        W 5435   4.354   1.430   9.952
 1385W        W 5436   7.484   0.822   3.385
 1386W        W 5437   9.036   0.784   2.441
 1387W        W 5438   8.540   7.590   9.268
 1388W        W 5439   3.694   2.651   9.271
 1389W        W 5440   8.552   7.538   2.794
 1390W        W 5441   9.018   4.605   1.309
 1391W        W 5442   8.593   2.581   0.530
 1392W        W 5443   6.073   3.306   1.154
 1393W        W 5444   2.700   7.962   2.626
 1394W        W 5445   3.198  10.310   0.099
 1395W        W 5446  10.609   9.836  10.901
 1396W        W 5447   7.604   4.375   1.453
 1397W        W 5448   2.387   7.860  10.726
 1398W        W 5449   8.635   6.362  11.725
 1399W        W 5450   8.964   9.628  11.013
 1400W        W 5451   5.770   0.379   0.501
 1401W        W 5452   6.072   8.100   8.602
 1402W        W 5453   6.059   7.288   4.033
 1403W        W 5454   4.084  10.954   9.048
 1404W        W 5455   0.877   3.907  11.368
 1405W        W 5456   4.340   8.839   0.756
 1406W        W 5457   2.791   2.479  11.834
 1407W        W 5458   7.783   6.661   9.983
 1408W        W 5459   9.585   2.877   9.454
 1409W        W 5460  10.094   8.999   9.866
 1410W        W 5461   3.673   0.792   8.963
 1411W        W 5462   4.737   9.063  11.465
 1412W        W 5463   8.771  10.880   2.357
 1413W        W 5464   3.874   5.266  10.568
 1414W        W 5465   6.676   3.776   0.260
 1415W        W 5466   8.037   9.614   9.869
 1416W        W 5467   9.090   5.735   2.796
 1417W        W 5468   7.666   4.162  11.036
 1418W        W 5469  10.721   9.801  11.775
 1419W        W 5470   3.139   9.091  10.153
 1420W        W 5471   5.828   5.204  11.609
 1421W        W 5472   3.383   6.066  10.676
 1422W        W 5473   6.519   6.674   1.680
 1423W        W 5474   9.550   6.155  10.812
 1424W        W 5475   6.929  10.864  10.663
 1425W        W 5476   8.145   8.983   1.091
 1426W        W 5477   3.336   8.057  10.226
 1427W        W 5478   4.231   2.322  10.449
 1428W        W 5479  10.831   2.774   9.170
 1429W        W 5480   0.489  10.959   1.177
 1430W        W 5481   0.977  11.334   1.407
 1431W        W 5482   8.906   7.326   9.533
 1432W        W 5483   2.170   3.413   1.889
 1433W        W 5484   9.165   7.083  11.941
 1434W        W 5485   2.900   7.875  11.925
 1435W        W 5486   2.393   0.548   1.990
 1436W        W 5487   1.175   9.666   2.939
 1437W        W 5488   8.845   0.739  11.474
 1438W        W 5489   2.942   3.026   3.115
 1439W        W 5490   4.274   2.817   0.361
 1440W        W 5491   4.644   4.261   9.113
 1441W        W 5492   4.716   2.961   1.429
 1442W        W 5493   5.222   5.596  10.951
 1443W        W 5494   5.701  11.100   3.101
 1444W        W 5495  11.067   6.064   9.910
 1445W        W 5496   1.261   4.814   9.408
 1446W        W 5497   2.325   4.339   8.436
 1447W        W 5498   2.405   2.704  11.562
 1448W        W 5499   5.796   7.118  10.417
 1449W        W 5500   1.284   1.105  11.115
 1450W        W 5501   8.724   4.253   9.199
 1451W        W 5502   7.415   5.202   1.847
 1452W        W 5503   5.136   1.693  11.250
 1453W        W 5504   6.593   6.132  10.040
 1454W        W 5505   6.583   4.514   2.527
 1455W        W 5506   1.188   5.667   1.326
 1456W        W 5507  10.287   0.640   0.093
 1457W        W 5508   3.086   8.859   2.367
 1458W        W 5509   3.408  10.774  10.866
 1459W        W 5510   8.104   4.101   3.153
 1460W        W 5511   3.150   3.528   2.756
 1461W        W 5512   4.712  10.935   9.695
 1462W        W 5513   9.862   0.287  10.371
 1463W        W 5514   5.683   3.391   8.948
 1464W        W 5515   9.085   4.599  10.949
 1465W        W 5516  10.689   1.802   0.870
 1466W        W 5517   5.195   3.726   1.373
 1467W        W 5518   9.099   4.167   8.869
 1468W        W 5519   9.747   5.290   1.234
 1469W        W 5520   9.942   8.143   0.279
 1470W        W 5521  10.395  10.946   3.264
 1471W        W 5522  10.105   2.383   2.821
 1472W        W 5523   1.278   2.380   1.048
 1473W        W 5524   7.097   0.283   1.317
 1474W        W 5525   2.168   2.111  10.990
 1475W        W 5526   7.373   7.187   2.449
 1476W        W 5527   0.014   9.571   2.768
 1477W        W 5528   9.127   6.597   9.094
 1478W        W 5529   3.147   8.934   9.144
 1479W        W 5530   4.110   9.543  10.435
 1480W        W 5531   1.912   2.212   0.424
 1481W        W 5532   4.819  10.575   1.288
 1482W        W 5533   6.214   6.211   3.029
 1483W        W 5534   3.716   5.399  11.781
 1484W        W 5535   0.143   8.896   2.147
 1485W        W 5536   6.061   6.204  11.938
 1486W        W 5537   0.900   6.460   1.907
 1487W        W 5538   5.175   3.628  10.990
 1488W        W 5539   9.281   6.300  11.286
 1489W        W 5540   8.962   3.256  10.495
 1490W        W 5541   4.570   0.263  11.963
 1491W        W 5542   1.756   9.188  11.344
 1492W        W 5543   9.643   0.587   9.449
 1493W        W 5544   9.759   0.782  11.426
 1494W        W 5545  10.366  11.361   1.924
 1495W        W 5546  10.825   1.321  11.089
 1496W        W 5547   3.713   3.365  10.929
 1497W        W 5548   0.460   3.828   2.317
 1498W        W 5549   4.598   0.752   0.777
 1499W        W 5550   9.028   8.093  10.176
 1500W        W 5551  10.810   0.304   1.001
 1501W        W 5552  10.150  10.401   9.953
 1502W        W 5553   8.540  11.235   0.176
 1503W        W 5554   1.029  10.538   2.424
 1504W        W 5555   5.140  11.459   2.739
 1505W        W 5556   5.487   4.049   3.600
 1506W        W 5557   1.991   9.885   9.383
 1507W        W 5558   4.947   1.250   2.615
 1508W        W 5559   6.630   2.674  10.381
 1509W        W 5560   5.166   4.002   3.996
 1510W        W 5561   9.120   6.350   8.646
 1511W        W 5562   8.902   7.418   1.223
 1512W        W 5563  10.567   4.288  10.096
 1513W        W 5564   2.178   9.132  11.995
 1514W        W 5565   8.079   5.025   4.048
 1515W        W 5566   7.615   7.129   1.253
 1516W        W 5567   1.671   6.916   3.249
 1517W        W 5568   0.069   5.971   9.948
 1518W        W 5569   4.427  10.399  11.355
 1519W        W 5570   9.510   9.886   1.250
 1520W        W 5571   5.536   9.634  11.337
 1521W        W 5572   2.655   1.066   1.268
 1522W        W 5573   3.342   2.248   9.268
 1523W        W 5574  11.056   9.432  11.725
 1524W        W 5575   2.292   2.251   0.914
 1525W        W 5576   9.042   6.782   1.968
 1526W        W 5577   7.801   5.742   9.865
 1527W        W 5578  11.104   4.479  10.885
 1528W        W 5579   8.007   4.698   2.189
 1529W        W 5580   7.371   4.699  11.026
 1530W        W 5581   4.247  11.396   2.618
 1531W        W 5582   3.674   6.604   0.273
 1532W        W 5583   5.919   0.928   8.514
 1533W        W 5584  10.860   8.197   0.222
 1534W        W 5585  10.794   1.815  10.493
 1535W        W 5586   9.424   2.617   2.021
 1536W        W 5587   1.625   1.345   9.818
 1537W        W 5588   0.493  10.541   2.309
 1538W        W 5589   9.340  11.364  11.214
 1539W        W 5590   9.974  11.447   9.536
 1540W        W 5591   2.911   5.355   0.217
 1541W        W 5592   3.371   2.578  10.653
 1542W        W 5593   4.346   3.781  11.193
 1543W        W 5594   6.599   2.230   0.967
 1544W        W 5595   2.145   1.776   9.199
 1545W        W 5596   2.179  11.411  11.424
 1546W        W 5597   4.361   0.795   0.309
 1547W        W 5598   9.574   8.049  10.085
 1548W        W 5599   4.910   8.587  10.885
 1549W        W 5600   0.599   5.911   0.706
 1550W        W 5601   3.236   4.293  11.295
 1551W        W 5602   2.277   8.614   2.981
 1552W        W 5603   1.825   0.266   9.502
 1553W        W 5604   6.376   4.022  10.474
 1554W        W 5605   4.108  11.254  10.833
 1555W        W 5606   5.994   6.149   0.860
 1556W        W 5607   0.276   1.653   9.839
 1557W        W 5608   1.456  10.233   1.371
 1558W        W 5609   3.751   6.601   9.391
 1559W        W 5610   1.147   1.836   8.970
 1560W        W 5611   7.947   0.439   1.778
 1561W        W 5612   6.268   8.810   9.990
 1562W        W 5613   8.004   4.164  11.424
 1563W        W 5614   8.610   8.411   2.011
 1564W        W 5615   8.202   6.537   3.248
 1565W        W 5616   9.622   6.951   2.291
 1566W        W 5617   0.701  11.382   0.989
 1567W        W 5618   8.775   8.740   3.759
 1568W        W 5619  11.450   9.138  10.765
 1569W        W 5620   1.296   5.980   0.063
 1570W        W 5621   8.912   6.107   0.535
 1571W        W 5622   8.514   3.401   8.880
 1572W        W 5623   4.732   8.090  11.645
 1573W        W 5624  11.274   9.662   1.727
 1574W        W 5625   6.763   8.047   9.401
 1575W        W 5626   7.131  10.473   9.193
 1576W        W 5627  10.960  10.634  11.419
 1577W        W 5628   5.492   6.109   2.294
 1578W        W 5629   6.370   6.164   2.538
 1579W        W 5630   3.278   8.569  10.391
 1580W        W 5631   2.689   5.534   2.842
 1581W        W 5632   0.300   9.466  11.327
 1582W        W 5633   3.204   6.191   3.384
 1583W        W 5634   0.584   1.490   3.671
 1584W        W 5635   0.300   7.080  11.775
 1585W        W 5636   3.676   3.855  11.816
 1586W        W 5637   9.851   0.008   1.812
 1587W        W 5638  10.399   1.290  11.356
 1588W        W 5639   6.239   7.898   0.400
 1589W        W 5640  11.002  10.011   1.463
 1590W        W 5641  10.824   1.353   9.620
 1591W        W 5642  10.452   6.490  11.983
 1592W        W 5643   0.750   1.165   3.149
 1593W        W 5644   0.903   3.791   2.574
 1594W        W 5645   9.681   2.156   2.612
 1595W        W 5646   3.155   2.084  10.756
 1596W        W 5647   4.522   0.960  10.092
 1597W        W 5648   1.343   2.317   1.917
 1598W        W 5649   8.856   4.597   2.227
 1599W        W 5650   5.793   9.022   9.943
 1600W        W 5651  11.014   9.854   2.333
 1601W        W 5652   8.855   1.732   1.035
 1602W        W 5653   8.006   7.464   1.310
 1603W        W 5654   9.035   7.673   2.876
 1604W        W 5655  10.008   6.999   8.990
 1605W        W 5656   3.383   3.388   1.405
 1606W        W 5657   9.172   7.587  11.943
 1607W        W 5658  10.619   3.603   9.628
 1608W        W 5659   8.094  10.303  11.875
 1609W        W 5660  10.100   8.821   8.937
 1610W        W 5661   6.969   4.625  11.730
 1611W        W 5662   6.575   1.144   9.597
 1612W        W 5663   6.281   8.987   2.672
 1613W        W 5664  10.007   8.952  11.009
 1614W        W 5665   8.322   6.837   0.766
 1615W        W 5666   2.833  11.390   8.806
 1616W        W 5667   2.493   0.063  10.373
 1617W        W 5668   6.646  10.909   1.340
 1618W        W 5669   4.583   9.044  11.939
 1619W        W 5670   9.410   2.882   0.890
 1620W        W 5671   5.014   2.851   3.166
 1621W        W 5672   0.179  10.341   1.417
 1622W        W 5673   9.826   4.802   2.312
 1623W        W 5674  10.087   0.385   9.746
 1624W        W 5675   3.303   9.961   1.308
 1625W        W 5676  10.904   6.464   1.303
 1626W        W 5677   6.111   3.653   1.996
 1627W        W 5678   4.141   4.258  11.196
 1628W        W 5679   0.727  10.816   3.405
 1629W        W 5680   9.387   8.052   1.820
 1630W        W 5681   0.436   6.182  11.769
 1631W        W 5682   4.228  10.110   3.293
 1632W        W 5683   9.459   3.929   2.320
 1633W        W 5684   2.867   2.592  10.502
 1634W        W 5685   0.770   4.200   0.698
 1635W        W 5686   1.810   0.912   8.662
 1636W        W 5687   3.787   3.609  11.378
 1637W        W 5688   2.177   5.693   9.127
 1638W        W 5689   8.110   5.831  10.974
 1639W        W 5690   4.995   9.507   8.949
 1640W        W 5691   3.871   7.556   3.233
 1641W        W 5692   5.621   3.675   2.100
 1642W        W 5693   5.064   3.555   2.788
 1643W        W 5694   0.058   6.696   2.384
 1644W        W 5695  10.470   3.225   2.700
 1645W        W 5696   5.657   7.638   1.951
 1646W        W 5697   7.339   0.895   8.468
 1647W        W 5698   7.983   5.004  10.383
 1648W        W 5699   4.442   1.088  11.049
 1649W        W 5700   2.662   3.294   0.221
 1650W        W 5701   0.432   0.265   3.399
 1651W        W 5702   3.209   3.616  10.549
 1652W        W 5703   3.189   6.050   9.797
 1653W        W 5704   9.890   2.851   1.139
 1654W        W 5705   0.417   8.625  10.052
 1655W        W 5706   7.100   2.837   0.461
 1656W        W 5707   8.092  10.052   2.366
 1657W        W 5708   0.836   8.367  11.276
 1658W        W 5709   6.206   5.292   2.397
 1659W        W 5710   1.893   2.274   1.856
 1660W        W 5711   3.222   5.315   2.473
 1661W        W 5712   5.805   5.042   0.393
 1662W        W 5713   5.166   9.744  11.718
 1663W        W 5714   1.375   5.760   1.791
 1664W        W 5715   2.156   9.021   8.919
 1665W        W 5716  10.521   6.979   9.079
 1666W        W 5717   5.546   7.960   8.680
 1667W        W 5718   4.706   0.943   3.611
 1668W        W 5719   6.427   2.124   9.317
 1669W        W 5720   1.280   7.641   9.022
 1670W        W 5721  11.232   2.819   1.712
 1671W        W 5722   3.419   2.246   3.006
 1672W        W 5723  10.852   3.674   0.929
 1673W        W 5724  11.004   6.168   0.542
 1674W        W 5725   0.875   8.647  10.282
 1675W        W 5726   2.676   0.525  11.238
 1676W        W 5727  11.473   8.074   2.589
 1677W        W 5728   7.301  10.778   2.141
 1678W        W 5729  10.422   0.455   8.922
 1679W        W 5730   5.493   6.676   0.379
 1680W        W 5731   2.696   0.252   0.242
 1681W        W 5732   3.514   4.003   2.013
 1682W        W 5733   9.604   2.905  11.061
 1683W        W 5734   4.602   9.364   9.390
 1684W        W 5735   8.708   5.115   0.351
 1685W        W 5736   5.092   4.045   0.089
 1686W        W 5737   1.680   9.496   9.604
 1687W        W 5738   4.778   1.465  11.528
 1688W        W 5739   5.636   9.390  11.781
 1689W        W 5740   1.815   0.467   1.201
 1690W        W 5741   2.708   3.643   3.045
 1691W        W 5742   9.964   4.831   1.251
 1692W        W 5743   9.015   4.824   2.670
 1693W        W 5744   0.067   9.441   3.283
 1694W        W 5745   4.559   4.813   0.469
 1695W        W 5746  10.731   5.761   3.606
 1696W        W 5747   7.093   9.856   2.242
 1697W        W 5748   6.136   4.889  10.393
 1698W        W 5749  10.983   0.748   0.829
 1699W        W 5750   8.459  10.038  10.355
 1700W        W 5751   2.702   3.659   1.532
 1701W        W 5752   3.835  10.258   0.689
 1702W        W 5753  11.132   0.041  11.797
 1703W        W 5754   4.462   9.313   1.274
 1704W        W 5755   4.656  10.781   1.733
 1705W        W 5756   9.066  11.366  10.549
 1706W        W 5757   4.238   7.764  10.952
 1707W        W 5758   5.506  10.780   1.184
 1708W        W 5759   7.925   3.197  11.611
 1709W        W 5760   5.520   6.820  10.054
 1710W        W 5761  10.134   5.160  10.515
 1711W        W 5762   6.241   3.170   2.171
 1712W        W 5763   8.453   5.185   3.342
 1713W        W 5764  10.824   0.755   0.328
 1714W        W 5765  10.106   6.285  11.686
 1715W        W 5766   8.927   3.560   9.955
 1716W        W 5767   4.809   6.980   2.459
 1717W        W 5768   3.345   8.148  11.831
 1718W        W 5769   1.082   7.942  11.091
 1719W        W 5770   2.179   1.014   3.186
 1720W        W 5771   4.204   8.402   9.485
 1721W        W 5772   8.137   7.848   3.059
 1722W        W 5773   7.855  11.488  10.387
 1723W        W 5774   1.473   3.739   1.179
 1724W        W 5775   7.212   4.711   8.242
 1725W        W 5776   6.184  11.223   9.092
 1726W        W 5777   7.868   5.478   1.745
 1727W        W 5778   5.597   1.720   8.966
 1728W        W 5779   2.772   2.689   1.965
 1729W        W 5780   0.424   4.070   0.362
 1730W        W 5781   2.412   8.573   8.815
 1731W        W 5782   3.857  11.136   8.623
 1732W        W 5783   8.403  10.929  11.784
 1733W        W 5784   9.504   0.094   9.375
 1734W        W 5785   5.545   8.005   3.699
 1735W        W 5786   8.987  10.003   3.015
 1736W        W 5787   0.416   0.330   1.040
 1737W        W 5788   6.322   8.019   0.910
 1738W        W 5789   6.212   4.076   8.135
 1739W        W 5790   5.187   2.565  11.780
 1740W        W 5791   3.169   8.322   3.144
 1741W        W 5792   3.069   5.574   1.237
 1742W        W 5793   0.746  10.459  10.635
 1743W        W 5794   5.341   6.948   3.567
 1744W        W 5795   6.006   4.209   3.651
 1745W        W 5796   8.879   5.070   1.134
 1746W        W 5797   6.182   4.312   0.980
 1747W        W 5798   4.690   3.728  10.806
 1748W        W 5799   6.605   7.974   8.530
 1749W        W 5800   0.927   2.926   0.753
 1750W        W 5801   1.688   3.251   1.916
 1751W        W 5802  10.937   5.537   2.191
 1752W        W 5803   9.440   4.257  10.898
 1753W        W 5804   3.677   6.170   9.668
 1754W        W 5805   3.624   3.549   9.895
 1755W        W 5806   6.317   5.380  10.437
 1756W        W 5807   9.907   4.682   8.898
 1757W        W 5808  10.795   7.628   9.026
 1758W        W 5809   4.251   5.584  10.880
 1759W        W 5810   5.704  10.503   8.911
 1760W        W 5811   5.911   3.783   2.865
 1761W        W 5812   7.217  10.118   0.433
 1762W        W 5813   3.254   9.640   3.583
 1763W        W 5814  11.447   8.055   1.875
 1764W        W 5815   5.689   4.115   0.257
 1765W        W 5816   4.173   6.659   0.313
 1766W        W 5817   6.910   0.747  10.306
 1767W        W 5818  10.454  10.543   0.568
 1768W        W 5819   2.912   2.964  11.910
 1769W        W 5820  10.027   2.556  11.286
 1770W        W 5821   4.453   6.654   3.594
 1771W        W 5822   1.341   8.935   2.391
 1772W        W 5823   2.155   3.330  10.488
 1773W        W 5824   7.942   9.161   9.665
 1774W        W 5825   3.284   4.007   2.875
 1775W        W 5826  11.153   9.492   9.525
 1776W        W 5827   2.751   3.733   8.956
 1777W        W 5828   9.093   8.069   2.270
 1778W        W 5829   7.789   2.847   2.810
 1779W        W 5830   7.505   3.139  10.914
 1780W        W 5831   8.512   0.619   1.192
 1781W        W 5832   6.540   0.799  11.558
 1782W        W 5833   6.515   2.235   2.417
 1783W        W 5834   9.661   8.693  11.314
 1784W        W 5835   3.275   9.785   2.348
 1785W        W 5836   4.608   0.352   1.386
 1786W        W 5837   6.721   1.099  11.963
 1787W        W 5838   5.205   1.007   3.464
 1788W        W 5839   4.479   5.377  10.447
 1789W        W 5840   0.990   8.525   9.365
 1790W        W 5841  10.779   8.465  10.885
 1791W        W 5842   7.095   9.731   1.207
 1792W        W 5843   1.948   2.233   9.993
 1793W        W 5844   6.526   8.345   0.230
 1794W        W 5845   3.378   9.103  11.522
 1795W        W 5846   6.008   7.896  11.014
 1796W        W 5847   6.232   6.470   9.834
 1797W        W 5848   1.235   0.974   0.935
 1798W        W 5849   1.434   3.093   9.908
 1799W        W 5850   1.703   4.541   3.330
 1800W        W 5851   4.033   6.750   2.892
 1801W        W 5852   6.031   1.836   9.505
 1802W        W 5853  10.788   9.111   2.949
 1803W        W 5854   9.768   8.437   8.960
 1804W        W 5855   1.486   8.018   0.033
 1805W        W 5856   9.402   6.658   1.041
 1806W        W 5857   9.391   4.694   3.579
 1807W        W 5858   0.661   6.721  11.788
 1808W        W 5859   2.615  10.559  11.442
 1809W        W 5860   3.803   2.160   9.044
 1810W        W 5861  10.903  10.911   9.967
 1811W        W 5862  10.943   6.650   3.174
 1812W        W 5863   8.029  10.075  10.081
 1813W        W 5864   4.668  10.906   3.294
 1814W        W 5865   1.483   9.663   0.051
 1815W        W 5866   9.521   2.662   1.479
 1816W        W 5867   4.280  10.817  10.612
 1817W        W 5868   9.239   5.163  10.717
 1818W        W 5869   3.230   3.829  11.536
 1819W        W 5870   5.707   4.249   9.944
 1820W        W 5871   4.099  10.021  10.227
 1821W        W 5872   1.295   9.155   2.850
 1822W        W 5873   2.575  10.105   3.026
 1823W        W 5874   6.633   9.436   9.248
 1824W        W 5875   1.620   5.562   0.454
 1825W        W 5876   8.887   4.179   9.679
 1826W        W 5877   9.924   7.161   2.647
 1827W        W 5878   2.486   5.328   1.012
 1828W        W 5879   4.169   3.120  11.051
 1829W        W 5880   1.385   5.795   9.618
 1830W        W 5881   1.063   2.930   3.485
 1831W        W 5882   1.718   6.637  11.001
 1832W        W 5883   1.208  10.945   9.386
 1833W        W 5884   4.130   5.226  11.549
 1834W        W 5885   0.572  10.293   8.873
 1835W        W 5886   5.015   5.790   9.583
 1836W        W 5887   1.374   3.790   1.832
 1837W        W 5888   0.239   3.526   9.898
 1838W        W 5889   9.963   0.484   8.689
 1839W        W 5890   9.521   1.941   9.010
 1840W        W 5891   4.626   3.230   0.251
 1841W        W 5892   9.168   0.460   9.560
 1842W        W 5893   3.590   4.216   3.275
 1843W        W 5894   8.530   5.380  10.946
 1844W        W 5895   5.671   8.711   1.864
 1845W        W 5896  10.074   2.710   9.389
 1846W        W 5897  10.219   3.412  10.886
 1847W        W 5898   7.960   9.441   8.792
 1848W        W 5899   0.799   8.254   2.312
 1849W        W 5900   0.728   8.090   9.252
 1850W        W 5901   9.086   6.664   2.914
 1851W        W 5902   8.538  10.349   0.184
 1852W        W 5903   6.571   2.648  11.192
 1853W        W 5904   0.246   5.873   1.472
 1854W        W 5905   1.812   2.788   1.203
 1855W        W 5906   3.490   8.411   1.626
 1856W        W 5907   3.829   4.812  10.855
 1857W        W 5908   8.105   2.620   8.484
 1858W        W 5909   1.532  11.021   0.862
 1859W        W 5910   6.723   9.899   0.362
 1860W        W 5911   5.849   6.227  11.463
 1861W        W 5912   4.662  11.282   2.914
 1862W        W 5913   7.165   9.385   1.960
 1863W        W 5914  10.653  11.395  11.783
 1864W        W 5915   2.014   6.285  11.856
 1865W        W 5916   7.471   3.340   1.574
 1866W        W 5917   5.789   4.114   3.207
 1867W        W 5918   8.066  10.830   1.735
 1868W        W 5919   2.456  10.883  10.904
 1869W        W 5920  11.267   4.270   2.988
 1870W        W 5921   7.179   2.644   9.475
 1871W        W 5922   9.261   0.672   1.788
 1872W        W 5923   7.201   3.259   3.037
 1873W        W 5924   2.202   3.687   3.263
 1874W        W 5925  10.326   3.382   9.977
 1875W        W 5926   1.319   9.196   1.941
 1876W        W 5927   3.732   2.088   8.446
 1877W        W 5928  10.276   3.910   9.890
 1878W        W 5929   6.949   5.374   2.034
 1879W        W 5930   4.567   2.722   0.988
 1880W        W 5931   6.246   3.663   1.493
 1881W        W 5932   8.353  10.824   9.519
 1882W        W 5933   4.744   5.232   0.760
 1883W        W 5934   7.113   4.533   1.713
 1884W        W 5935  11.044  11.339   0.270
 1885W        W 5936   9.730   5.945  11.724
 1886W        W 5937   6.700  10.444   9.461
 1887W        W 5938   5.301  10.952   8.977
 1888W        W 5939   6.287   2.350   1.366
 1889W        W 5940   4.597   0.551   2.426
 1890W        W 5941   0.473   2.762  10.570
 1891W        W 5942  10.879   1.986   2.745
 1892W        W 5943   6.471   6.100   0.986
 1893W        W 5944   1.951  10.162   1.988
 1894W        W 5945   1.155   0.865   9.106
 1895W        W 5946   3.488   9.587   9.682
 1896W        W 5947  10.387   2.792   2.446
 1897W        W 5948   1.244   8.035   9.377
 1898W        W 5949   0.348   0.836   2.436
 1899W        W 5950   1.699   5.551   1.424
 1900W        W 5951   3.241   8.851   3.225
 1901W        W 5952  10.044   4.988  10.032
 1902W        W 5953   2.090   1.804   1.747
 1903W        W 5954   8.437   3.268  10.420
 1904W        W 5955   3.786   3.100  11.379
 1905W        W 5956   9.043   6.081   9.063
 1906W        W 5957  11.186   5.724  11.223
 1907W        W 5958   1.777   4.595   1.499
 1908W        W 5959   8.730   2.512   2.824
 1909W        W 5960  11.355  10.563  11.101
 1910W        W 5961  10.040   2.613  10.316
 1911W        W 5962   8.246   0.918  10.396
 1912W        W 5963   5.517   2.108   2.572
 1913W        W 5964   5.613   0.379   9.630
 1914W        W 5965  10.965   5.217  11.482
 1915W        W 5966  10.111   3.579   9.518
 1916W        W 5967   0.276   7.260   2.971
 1917W        W 5968   3.331  11.355   1.414
 1918W        W 5969   6.713   6.145   8.684
 1919W        W 5970   1.433   7.063   8.406
 1920W        W 5971  11.417   5.663   9.204
 1921W        W 5972  10.123   6.057   2.229
 1922W        W 5973   5.065  10.331   2.316
 1923W        W 5974   0.434   9.851   3.447
 1924W        W 5975   9.175   9.582   0.336
 1925W        W 5976   9.015  10.462   2.208
 1926W        W 5977   1.777   8.936   1.796
 1927W        W 5978   2.232   2.762  10.069
 1928W        W 5979   4.106   4.245   1.558
 1929W        W 5980   2.244   1.953   3.794
 1930W        W 5981   4.115   3.344  10.052
 1931W        W 5982   0.187   1.463   1.696
 1932W        W 5983   8.468  10.736   2.771
 1933W        W 5984   4.633   3.858   2.804
 1934W        W 5985   6.617   8.438  10.229
 1935W        W 5986   2.995  10.445  10.113
 1936W        W 5987   3.187   1.774   9.012
 1937W        W 5988   9.583  10.771   1.002
 1938W        W 5989   3.507   8.008   0.930
 1939W        W 5990   5.410   7.825   9.176
 1940W        W 5991   4.043   2.568   2.517
 1941W        W 5992   7.692  11.034   0.461
 1942W        W 5993   3.609   2.120   0.239
 1943W        W 5994   6.574   1.261   9.071
 1944W        W 5995   8.083   8.330   2.770
 1945W        W 5996   0.885   0.376   2.395
 1946W        W 5997   6.908   3.318   0.577
 1947W        W 5998   4.178   9.069   1.698
 1948W        W 5999   3.484   0.481   3.741
 1949W        W 6000   3.673   3.556   1.790
 1950W        W 6001   9.920   4.756  10.786
 1951W        W 6002   7.228   1.864   2.692
 1952W        W 6003   8.677   3.688  11.300
 1953W        W 6004  11.419   9.903   9.322
 1954W        W 6005   9.818   0.100   0.984
 1955W        W 6006   1.468   5.101   2.125
 1956W        W 6007   2.425   6.114   8.826
 1957W        W 6008   3.373   9.494   0.393
 1958W        W 6009   8.608   5.260  11.866
 1959W        W 6010   5.991   6.064  10.974
 1960W        W 6011  10.512   3.424   0.263
 1961W        W 6012   3.101  11.350  11.120
 1962W        W 6013   8.628   8.794   1.233
 1963W        W 6014   1.776   5.975   2.207
 1964W        W 6015   1.691  10.807   9.248
 1965W        W 6016  11.283   9.762  11.362
 1966W        W 6017   5.301   8.954   0.701
 1967W        W 6018  10.559  11.352  10.935
 1968W        W 6019  11.447   7.566   1.704
 1969W        W 6020   9.916   5.593   0.027
 1970W        W 6021   1.382   1.416   3.136
 1971W        W 6022   4.772   1.702  11.984
 1972W        W 6023   6.527   7.555   1.015
 1973W        W 6024   4.977   6.562   3.596
 1974W        W 6025   3.845   3.164   1.492
 1975W        W 6026   7.127   8.848  11.056
 1976W        W 6027   3.267   2.679   1.750
 1977W        W 6028   2.262   7.920   1.191
 1978W        W 6029   3.692   0.297   3.209
 1979W        W 6030   4.156  11.205  10.294
 1980W        W 6031  10.422   5.185  11.477
 1981W        W 6032   2.839   8.808   0.778
 1982W        W 6033  10.871   3.279   9.309
 1983W        W 6034   3.948   7.127   9.263
 1984W        W 6035   3.856   3.386  11.828
 1985W        W 6036  11.409   3.115   9.986
 1986W        W 6037   2.223   8.926  11.317
 1987W        W 6038   6.215  10.806  10.749
 1988W        W 6039   2.194   2.221  11.489
 1989W        W 6040   3.265   9.059  10.640
 1990W        W 6041   1.294   5.291   1.654
 1991W        W 6042   9.750   4.594  10.199
 1992W        W 6043   3.888   8.187   8.372
 1993W        W 6044   8.072  10.454   2.056
 1994W        W 6045   6.976   8.428   0.558
 1995W        W 6046   5.542   2.363   9.746
 1996W        W 6047   0.686   5.994   1.223
 1997W        W 6048   1.683   6.702  11.988
 1998W        W 6049   6.081   8.878   1.603
 1999W        W 6050   0.631   1.828   9.037
 2000W        W 6051   2.765   1.121  10.433
 2001W        W 6052   6.078   0.423   2.283
 2002W        W 6053   8.564   9.730   1.617
 2003W        W 6054  11.434   0.903  11.850
 2004W        W 6055   7.214   7.835   9.935
 2005W        W 6056   8.633  10.018  11.081
 2006W        W 6057   3.328   2.249   9.785
 2007W        W 6058   1.807   6.434   1.939
 2008W        W 6059   3.650   8.915   9.035
 2009W        W 6060   2.253   3.673  11.280
 2010W        W 6061  10.067   0.235   1.429
 2011W        W 6062   8.258   1.544  11.298
 2012W        W 6063   2.908   1.867  11.243
 2013W        W 6064   8.388   9.579   0.025
 2014W        W 6065   0.309   7.943   9.549
 2015W        W 6066   2.699   3.461   8.524
 2016W        W 6067   1.325   9.344   3.435
 2017W        W 6068  10.815   7.037  10.842
 2018W        W 6069   3.837   7.493   0.253
 2019W        W 6070   1.996   7.704   3.163
 2020W        W 6071   1.850   1.379   2.000
 2021W        W 6072   9.393   9.368  11.870
 2022W        W 6073   1.618  10.514   1.781
 2023W        W 6074   8.011  11.454   0.899
 2024W        W 6075   8.589   0.584   2.283
 2025W        W 6076   4.268   4.558  11.693
 2026W        W 6077   2.437   7.491   4.067
 2027W        W 6078   9.528   9.829   9.031
 2028W        W 6079   8.062   5.303   3.623
 2029W        W 6080   9.639  10.958  11.299
 2030W        W 6081   8.901   3.633  10.836
 2031W        W 6082   6.100   9.486   0.759
 2032W        W 6083   2.620  10.878   0.208
 2033W        W 6084  10.501   0.387   3.238
 2034W        W 6085   1.549   2.416   0.094
 2035W        W 6086  10.895   1.174   8.603
 2036W        W 6087   9.065  11.264   2.166
 2037W        W 6088   8.163   7.540   1.817
 2038W        W 6089   3.072   1.480   3.354
 2039W        W 6090   2.262   4.899   3.795
 2040W        W 6091   0.117   6.766  10.135
 2041W        W 6092  10.370   7.004  11.967
 2042W        W 6093  10.827   6.106  11.196
 2043W        W 6094   1.635   2.813   3.200
 2044W        W 6095  10.122   2.789   8.864
 2045W        W 6096   4.813  10.072   1.371
 2046W        W 6097   5.688  11.352   8.931
 2047W        W 6098   2.782   4.557   1.464
 2048W        W 6099   4.502  11.259  11.965
 2049W        W 6100   8.968   9.490  10.297
 2050W        W 6101   3.047   7.808   0.726
 2051W        W 6102   5.676   8.164   1.830
 2052W        W 6103   6.420   3.350   9.352
 2053W        W 6104   1.099   2.207   1.486
 2054W        W 6105   5.543   5.705   0.451
 2055W        W 6106   8.909   5.926  11.417
 2056W        W 6107  11.473   6.743   0.854
 2057W        W 6108   6.749  10.425   1.516
 2058W        W 6109   4.376   6.530   0.965
 2059W        W 6110  10.785   5.146   1.392
 2060W        W 6111   0.393  10.340   9.909
 2061W        W 6112   6.957   3.770   2.291
 2062W        W 6113   4.037   7.932   0.978
 2063W        W 6114   5.517   3.297   1.689
 2064W        W 6115  11.262   0.410  11.101
 2065W        W 6116   1.781  10.424   2.775
 2066W        W 6117   0.998   9.956   1.340
 2067W        W 6118  10.458   8.959  11.283
 2068W        W 6119   9.665   8.163   9.568
 2069W        W 6120   1.904   2.517  11.761
 2070W        W 6121   5.955   6.182   8.936
 2071W        W 6122   0.649   1.635   1.881
 2072W        W 6123   2.211  11.333  10.914
 2073W        W 6124   4.199  10.282   2.392
 2074W        W 6125   5.275   9.607   4.099
 2075W        W 6126   2.926   8.367   8.109
 2076W        W 6127   2.831   2.941  10.891
 2077W        W 6128   7.394   2.995  11.749
 2078W        W 6129   5.453   4.657   0.345
 2079W        W 6130   1.824   0.281   3.250
 2080W        W 6131  10.897   5.973   2.427
 2081W        W 6132   6.946   9.916  11.475
 2082W        W 6133   5.759   4.775  10.043
 2083W        W 6134  11.474   5.066   1.828
 2084W        W 6135   8.122   2.866   8.954
 2085W        W 6136   4.132   3.036   2.716
 2086W        W 6137   3.599  11.057   0.383
 2087W        W 6138   2.208   9.034   3.327
 2088W        W 6139   1.684   1.868   0.772
 2089W        W 6140   0.298  10.048  10.635
 2090W        W 6141  10.444   5.487   9.444
 2091W        W 6142  10.811   9.665  10.447
 2092W        W 6143   1.391   1.757  11.276
 2093W        W 6144   9.229   3.890   1.845
 2094W        W 6145   2.622   3.191   1.795
 2095W        W 6146   8.576   1.829   9.540
 2096W        W 6147   8.194  11.103  10.451
 2097W        W 6148   8.227   5.065   0.479
 2098W        W 6149   2.404   5.329   0.026
 2099W        W 6150   3.185   7.968   1.323
 2100W        W 6151   3.666   7.574   9.206
 2101W        W 6152   1.301   9.438   2.392
 2102W        W 6153   7.620  10.376   8.998
 2103W        W 6154   0.073   0.557   9.809
 2104W        W 6155  10.384   2.421   0.300
 2105W        W 6156  11.047   5.983  11.646
 2106W        W 6157   1.956   3.157   9.133
 2107W        W 6158  10.007   6.178   9.899
 2108W        W 6159   6.117  10.859   2.935
 2109W        W 6160  11.437   2.757   2.182
 2110W        W 6161   7.145   7.023  11.530
 2111W        W 6162   0.047   3.346  11.369
 2112W        W 6163   5.719   0.776   2.207
 2113W        W 6164   0.196   3.182  11.862
 2114W        W 6165   3.888   1.048  11.389
 2115W        W 6166   1.898   0.246  10.868
 2116W        W 6167   6.014   4.397  10.320
 2117W        W 6168   9.334   7.586   8.818
 2118W        W 6169   3.305   5.122   9.631
 2119W        W 6170   3.404   3.255   3.145
 2120W        W 6171   3.587   9.320  10.251
 2121W        W 6172  10.180   0.272   2.886
 2122W        W 6173   3.998   8.911   9.426
 2123W        W 6174   5.405   8.082   4.215
 2124W        W 6175   2.176   8.413   2.095
 2125W        W 6176  10.413   6.531   2.432
 2126W        W 6177   8.124   9.966   0.257
 2127W        W 6178  11.321   3.906   1.025
 2128W        W 6179   0.843   7.432   1.747
 2129W        W 6180  10.489   6.767   1.344
 2130W        W 6181   1.924   9.675  11.316
 2131W        W 6182   3.286   2.241  10.286
 2132W        W 6183   8.568   2.636   3.626
 2133W        W 6184   4.612   2.416   9.585
 2134W        W 6185   3.167   9.409  11.920
 2135W        W 6186   2.110   5.612   0.336
 2136W        W 6187  10.014   1.177   2.584
 2137W        W 6188   1.048   3.650   1.473
 2138W        W 6189   9.589   9.792  10.817
 2139W        W 6190   0.792   6.137  10.395
 2140W        W 6191  10.058   0.815   9.083
 2141W        W 6192   9.145   1.256   3.223
 2142W        W 6193   9.255   8.363  11.472
 2143W        W 6194   1.894   1.923   1.276
 2144W        W 6195   4.369   4.395   0.196
 2145W        W 6196   8.647   1.756   0.424
 2146W        W 6197   9.756   6.716   1.850
 2147W        W 6198   1.663   9.412   1.616
 2148W        W 6199   4.495   8.374  10.034
 2149W        W 6200   3.767   9.672   8.842
 2150W        W 6201   3.621   0.274   2.256
 2151W        W 6202   0.475   8.854   9.287
 2152W        W 6203   2.460   3.229   3.200
 2153W        W 6204   5.064   2.992  10.021
 2154W        W 6205   5.214   8.622   3.091
 2155W        W 6206   1.437   1.742  11.779
 2156W        W 6207   9.997  10.508  11.820
 2157W        W 6208   4.564   4.224   3.407
 2158W        W 6209   4.124   2.560   0.773
 2159W        W 6210   8.279   3.694   1.878
 2160W        W 6211   0.541  10.339   1.831
 2161W        W 6212   7.867   4.098   9.337
 2162W        W 6213   0.780   3.687   9.059
 2163W        W 6214   7.059   3.360  11.048
 2164W        W 6215   1.619  10.544  10.392
 2165W        W 6216   6.608   4.559   0.866
 2166W        W 6217   5.254   1.161   9.552
 2167W        W 6218   0.112   7.083   1.246
 2168W        W 6219   2.135  11.305   2.331
 2169W        W 6220   7.045   0.382   9.434
 2170W        W 6221   2.744   5.653  11.776
 2171W        W 6222   5.559   9.462   2.273
 2172W        W 6223   0.821   4.822  10.934
 2173W        W 6224   1.748   8.064  10.070
 2174W        W 6225   2.505   9.029   1.540
 2175W        W 6226   9.630   8.457   1.645
 2176W        W 6227   8.413   2.330   3.217
 2177W        W 6228   7.029   9.722   0.720
 2178W        W 6229   9.588   7.458  11.647
 2179W        W 6230  11.249   6.080   1.487
 2180W        W 6231  10.588   6.130   2.066
 2181W        W 6232   7.702   0.670   9.285
 2182W        W 6233   1.527   9.500  10.992
 2183W        W 6234   9.969   1.713   2.149
 2184W        W 6235   3.223   6.068   1.273
 2185W        W 6236   3.790   9.263  11.253
 2186W        W 6237   5.092   5.565   0.254
 2187W        W 6238   8.649   3.747  10.387
 2188W        W 6239   0.911   9.766  11.410
 2189W        W 6240   9.901   8.882   2.390
 2190W        W 6241  11.061   3.164   0.965
 2191W        W 6242   9.792   7.496   9.042
 2192W        W 6243  10.823   7.540  10.915
 2193W        W 6244   5.475   4.087   9.529
 2194W        W 6245   7.105   7.467  11.273
 2195W        W 6246   1.795   0.521   1.724
 2196W        W 6247   9.256   0.767  10.736
 2197W        W 6248   3.717   3.275   1.014
 2198W        W 6249   8.381   6.328   0.800
 2199W        W 6250   1.788   9.036   9.792
 2200W        W 6251   3.138   0.238   0.014
 2201W        W 6252   1.364   7.099   0.071
 2202W        W 6253   2.846   7.939  10.947
 2203W        W 6254  10.481  11.380   3.010
 2204W        W 6255   0.786   9.889  10.037
 2205W        W 6256   6.471   9.988   1.816
 2206W        W 6257   6.558   0.867   3.389
 2207W        W 6258   7.676   6.342   1.193
 2208W        W 6259   7.908   5.585   0.203
 2209W        W 6260   9.403   3.762  10.812
 2210W        W 6261  10.414   6.990   2.703
 2211W        W 6262   2.275   8.462   0.190
 2212W        W 6263   5.103   7.024   1.863
 2213W        W 6264   8.466  11.325  11.205
 2214W        W 6265   5.536  10.234   3.439
 2215W        W 6266  10.455   2.754  11.889
 2216W        W 6267   6.640   0.925  11.051
 2217W        W 6268  11.012   1.356   2.924
 2218W        W 6269   7.619   3.054   3.266
 2219W        W 6270   8.902   4.232  11.647
 2220W        W 6271   1.594  10.254   0.159
 2221W        W 6272  10.648   3.541   1.831
 2222W        W 6273  11.121   9.945  10.878
 2223W        W 6274   7.534   6.250  11.519
 2224W        W 6275   4.587   9.317   0.741
 2225W        W 6276  10.284  11.135   9.267
 2226W        W 6277   5.426   3.784   3.065
 2227W        W 6278   5.613   4.839   0.817
 2228W        W 6279   0.502   0.763  10.034
 2229W        W 6280   1.471   8.657   0.559
 2230W        W 6281   7.400   5.770  11.517
 2231W        W 6282   0.443   3.560  11.635
 2232W        W 6283  10.216   3.672   3.361
 2233W        W 6284   1.404   3.547   8.970
 2234W        W 6285  10.643   7.483  10.314
 2235W        W 6286  10.820   9.072   9.589
 2236W        W 6287   3.535   4.659   0.148
 2237W        W 6288  10.564  10.559   2.322
 2238W        W 6289   6.617   6.324   9.534
 2239W        W 6290   6.209   0.648   0.460
 2240W        W 6291   6.498   7.512  10.522
 2241W        W 6292   5.167   3.542   9.143
 2242W        W 6293   4.641   2.454   1.423
 2243W        W 6294   4.050   4.777   0.292
 2244W        W 6295  10.926   6.906  11.478
 2245W        W 6296   8.100   5.926   1.561
 2246W        W 6297  10.476   4.091  11.398
 2247W        W 6298   6.737   9.807  10.076
 2248W        W 6299   8.410   3.520   9.975
 2249W        W 6300   3.319   9.313   1.312
 2250W        W 6301   8.240   1.185   9.970
 2251W        W 6302   9.761   6.042  10.344
 2252W        W 6303   2.665   1.170   3.237
 2253W        W 6304   4.250   7.191   0.229
 2254W        W 6305   3.720   1.829  10.974
 2255W        W 6306   1.782   3.727   2.617
 2256W        W 6307   7.942   9.795   0.875
 2257W        W 6308  11.274   7.271  10.963
 2258W        W 6309  10.496   7.846   2.697
 2259W        W 6310   9.407   8.506  10.433
 2260W        W 6311   6.683  10.296   9.975
 2261W        W 6312   7.097   5.155  11.811
 2262W        W 6313   2.408   9.514   2.111
 2263W        W 6314   4.217   8.511   2.923
 2264W        W 6315  10.416   7.991   0.055
 2265W        W 6316   5.548   7.125   2.206
 2266W        W 6317   2.906   7.257  10.289
 2267W        W 6318   3.827   4.577   9.050
 2268W        W 6319   0.364   0.991  10.519
 2269W        W 6320  11.214   3.664   9.989
 2270W        W 6321   6.248   3.172   2.734
 2271W        W 6322   1.191   8.764  11.941
 2272W        W 6323   3.538   8.495   2.254
 2273W        W 6324   0.075  10.098  11.101
 2274W        W 6325   0.378   6.398   9.275
 2275W        W 6326   3.743  10.519   2.434
 2276W        W 6327   1.947   4.312  11.920
 2277W        W 6328   7.950   1.457   2.601
 2278W        W 6329   2.226  10.796  10.082
 2279W        W 6330   1.233  10.947  11.860
 2280W        W 6331   7.555   4.511   0.963
 2281W        W 6332   4.593   0.691   8.960
 2282W        W 6333   7.718   8.481  10.864
 2283W        W 6334   3.406   1.759  10.440
 2284W        W 6335   8.540   8.174  10.436
 2285W        W 6336   3.367   0.291   8.369
 2286W        W 6337   6.213   7.004  11.406
 2287W        W 6338   0.448   8.136   1.709
 2288W        W 6339   4.455   0.409   3.339
 2289W        W 6340   6.308   6.967   2.679
 2290W        W 6341   2.450   6.616   0.180
 2291W        W 6342   2.960   5.122  10.012
 2292W        W 6343   5.943  10.928   0.949
 2293W        W 6344   8.991   9.098   0.042
 2294W        W 6345   0.570  11.472   2.304
 2295W        W 6346   8.703   0.399   3.231
 2296W        W 6347   4.595  10.400  10.839
 2297W        W 6348   4.226   7.628   2.750
 2298W        W 6349   1.680   9.005   8.732
 2299W        W 6350   5.494   0.192   0.892
 2300W        W 6351   5.313   6.869  11.286
 2301W        W 6352  10.274   9.879   2.653
 2302W        W 6353   2.587   8.558  11.499
 2303W        W 6354  10.916   4.339  11.347
 2304W        W 6355   1.423   2.844   0.867
 2305W        W 6356   3.127  11.363   9.689
 2306W        W 6357   7.543   7.539   9.386
 2307W        W 6358   6.633   1.968   0.045
 2308W        W 6359   8.387   5.533   1.691
 2309W        W 6360   2.180  10.003  10.380
 2310W        W 6361   2.789   7.060   0.170
 2311W        W 6362   2.348   7.615   2.770
 2312W        W 6363  11.422   7.703   2.225
 2313W        W 6364   2.734   6.031   9.548
 2314W        W 6365   6.130   0.916   2.495
 2315W        W 6366   0.057   2.698   1.314
 2316W        W 6367   7.331   0.355  11.968
 2317W        W 6368   4.537  10.443   9.818
 2318W        W 6369   9.474   5.564   1.595
 2319W        W 6370   5.617   9.934   9.988
 2320W        W 6371  10.906   0.261   8.918
 2321W        W 6372   6.199   8.464   2.649
 2322W        W 6373   6.967   6.000   1.725
 2323W        W 6374   8.423   9.478   9.021
 2324W        W 6375   6.758   8.969   8.302
 2325W        W 6376   8.371  11.212   1.178
 2326W        W 6377   6.486   3.641   0.719
 2327W        W 6378   5.582   6.912   3.108
 2328W        W 6379   8.042   6.579   2.260
 2329W        W 6380   9.463   0.004   2.349
 2330W        W 6381   1.954   4.606  11.455
 2331W        W 6382   6.510   2.747   1.150
 2332W        W 6383   1.936   7.616   1.453
 2333W        W 6384   4.505   8.194  11.177
 2334W        W 6385  10.612   9.193   0.989
 2335W        W 6386   6.442   4.343  11.416
 2336W        W 6387   3.233   1.819   0.414
 2337W        W 6388   9.015   6.721   3.798
 2338W        W 6389   1.745   8.655   1.356
 2339W        W 6390   7.472   4.683   0.491
 2340W        W 6391   3.014   0.461   1.994
 2341W        W 6392   0.736   6.755   3.510
 2342W        W 6393   8.003   5.097   0.956
 2343W        W 6394   3.699   3.074  10.102
 2344W        W 6395   9.698   6.200   0.669
 2345W        W 6396   7.788   3.759   8.969
 2346W        W 6397   2.985   9.705   9.596
 2347W        W 6398   8.141  10.884   0.227
 2348W        W 6399  10.416   5.747   1.316
 2349W        W 6400   6.104   0.430   0.920
 2350W        W 6401   0.047   2.302   0.982
 2351W        W 6402   5.695   0.895   0.016
 2352W        W 6403   9.802   4.257  11.989
 2353W        W 6404   0.222   6.764   2.940
 2354W        W 6405   0.197  10.970   9.446
 2355W        W 6406   5.466   3.233  10.779
 2356W        W 6407   2.154   6.829  11.269
 2357W        W 6408   4.094   0.513   2.984
 2358W        W 6409   2.761   5.562   2.299
 2359W        W 6410  10.895   6.492   2.264
 2360W        W 6411   8.385   2.405  10.576
 2361W        W 6412   6.284   5.210   0.537
 2362W        W 6413   8.956   7.940   1.274
 2363W        W 6414  10.848   7.250  11.956
 2364W        W 6415   5.094   2.253   8.604
 2365W        W 6416   5.865   6.741  11.985
 2366W        W 6417   3.640   5.595   1.191
 2367W        W 6418   2.825  10.033   2.536
 2368W        W 6419   7.657   9.948   1.331
 2369W        W 6420   8.130   5.793   2.084
 2370W        W 6421   7.619   2.905  10.422
 2371W        W 6422   9.113   4.092   1.357
 2372W        W 6423   6.198   4.128  10.970
 2373W        W 6424   7.772   3.455   2.940
 2374W        W 6425   6.063   9.629  11.317
 2375W        W 6426  10.400   1.163  10.835
 2376W        W 6427   7.731   4.397   3.344
 2377W        W 6428   6.256   6.503   1.259
 2378W        W 6429  10.978   2.799   3.043
 2379W        W 6430   7.247   6.603  11.878
 2380W        W 6431   7.949   2.116   3.429
 2381W        W 6432   0.375   3.176  10.271
 2382W        W 6433   0.075  11.319   2.358
 2383W        W 6434   1.620   1.774   8.538
 2384W        W 6435   4.092   3.970   0.097
 2385W        W 6436   8.512   4.680   1.868
 2386W        W 6437   9.804   2.015   3.081
 2387W        W 6438   0.889   5.542   0.940
 2388W        W 6439   7.933   3.261  10.635
 2389W        W 6440   3.211   7.955   2.747
 2390W        W 6441   1.795   5.522   1.952
 2391W        W 6442   2.937  10.469   2.324
 2392W        W 6443   5.469   3.740   9.990
 2393W        W 6444   0.080   6.984   0.403
 2394W        W 6445   1.617   7.534   8.642
 2395W        W 6446   6.658   2.408   3.188
 2396W        W 6447   8.507   1.291   0.214
 2397W        W 6448   1.860   2.769   1.718
 2398W        W 6449   3.621   1.790   0.842
 2399W        W 6450   4.584  11.287   1.862
 2400W        W 6451   0.940   5.517   1.951
 2401W        W 6452   5.282   7.088   2.678
 2402W        W 6453   7.096  10.846  11.702
 2403W        W 6454  10.738   8.513  11.407
 2404W        W 6455   9.818   7.088  11.080
 2405W        W 6456   4.665   1.709  11.075
 2406W        W 6457   9.990   6.565   0.887
 2407W        W 6458   2.929   5.085   9.070
 2408W        W 6459  10.771   4.617  10.475
 2409W        W 6460   0.313   6.285  10.273
 2410W        W 6461   3.266   6.920   0.304
 2411W        W 6462   6.185   1.448   0.644
 2412W        W 6463   1.828   7.152  11.781
 2413W        W 6464   0.767   9.366   1.709
 2414W        W 6465   4.038   1.793   9.747
 2415W        W 6466   7.395  10.812  10.924
 2416W        W 6467   0.681   0.435   0.369
 2417W        W 6468  11.149   6.922   2.183
 2418W        W 6469   5.242   2.621  11.283
 2419W        W 6470   6.549  10.513  11.783
 2420W        W 6471   9.870   6.932   8.474
 2421W        W 6472   3.347   3.626   0.944
 2422W        W 6473   7.923   1.845   9.583
 2423W        W 6474   1.305   9.939   2.402
 2424W        W 6475   9.875   7.113   9.967
 2425W        W 6476   5.379   1.201   0.315
 2426W        W 6477   6.970  10.836  11.184
 2427W        W 6478   5.453   4.322  10.395
 2428W        W 6479   1.850   7.066  10.780
 2429W        W 6480   2.234   8.069   3.449
 2430W        W 6481   5.391   2.301   0.281
 2431W        W 6482   8.977   0.069   0.503
 2432W        W 6483   8.993   5.557  11.075
 2433W        W 6484   1.822   1.222   2.899
 2434W        W 6485   2.808   5.944   0.951
 2435W        W 6486   4.340   3.906   1.863
 2436W        W 6487  10.530   9.322  10.915
 2437W        W 6488  10.099   1.378   3.058
 2438W        W 6489   8.858  10.788   9.963
 2439W        W 6490  10.920   9.954   9.530
 2440W        W 6491  10.072   4.800   1.855
 2441W        W 6492   0.578   0.419   2.808
 2442W        W 6493   8.163   9.748   2.771
 2443W        W 6494   2.223   6.685  10.051
 2444W        W 6495   0.919  10.839   1.460
 2445W        W 6496   2.708   1.450  10.003
 2446W        W 6497   9.950   9.205   8.638
 2447W        W 6498   6.514   7.846   1.452
 2448W        W 6499   0.273   4.762   3.337
 2449W        W 6500   8.364   9.181  10.607
 2450W        W 6501   3.211   3.143   0.893
 2451W        W 6502  10.930  11.494  10.023
 2452W        W 6503   8.574   5.522   9.540
 2453W        W 6504  10.585   8.985  10.012
 2454W        W 6505   1.280   1.489   0.935
 2455W        W 6506   8.501  10.410   2.332
 2456W        W 6507  11.180   5.622   3.201
 2457W        W 6508   6.001   6.699  10.221
 2458W        W 6509   7.323   3.233   1.079
 2459W        W 6510   9.540   4.646   9.255
 2460W        W 6511   3.589   5.062  11.403
 2461W        W 6512   2.934  10.553   0.493
 2462W        W 6513   6.188   1.050  11.273
 2463W        W 6514   5.676   8.761   3.295
 2464W        W 6515   2.736   0.471   0.698
 2465W        W 6516   8.484   7.650   1.416
 2466W        W 6517   3.168   4.263   1.709
 2467W        W 6518   0.088   0.394   3.011
 2468W        W 6519   8.274   5.522   4.049
 2469W        W 6520   1.652   9.517   2.746
 2470W        W 6521  10.708   1.257   0.129
 2471W        W 6522   6.599   5.059   0.920
 2472W        W 6523   2.201   9.490   9.661
 2473W        W 6524   1.325   6.147   2.993
 2474W        W 6525   1.952   4.610   2.894
 2475W        W 6526   8.982   5.913   9.834
 2476W        W 6527   2.217   6.656   2.639
 2477W        W 6528  11.040   8.718   3.184
 2478W        W 6529   8.498   4.164  11.321
 2479W        W 6530   3.164   4.997   2.997
 2480W        W 6531   3.625   9.837  10.273
 2481W        W 6532   7.788   0.280  11.781
 2482W        W 6533   6.199  10.811   9.464
 2483W        W 6534  10.558   8.191   2.323
 2484W        W 6535   5.209  11.450   2.236
 2485W        W 6536   0.532   5.029   0.244
 2486W        W 6537   3.329   4.220  11.853
 2487W        W 6538   3.882   1.716  10.276
 2488W        W 6539   3.666   0.246   0.854
 2489W        W 6540   3.231   9.762   0.840
 2490W        W 6541   7.474   8.923   9.676
 2491W        W 6542   5.259   8.763   1.168
 2492W        W 6543   2.288  11.479   2.802
 2493W        W 6544   9.020   3.118   2.305
 2494W        W 6545   1.407   0.747   1.395
 2495W        W 6546  10.860   0.017  11.320
 2496W        W 6547   8.015   1.793   2.987
 2497W        W 6548  11.276  11.241   9.274
 2498W        W 6549   9.910   5.229   0.377
 2499W        W 6550   5.520   5.351   0.039
 2500W        W 6551   3.131   9.202   9.633
 2501W        W 6552   3.631   4.929   2.244
 2502W        W 6553   1.796   7.665   9.143
 2503W        W 6554   9.329   8.470   9.890
 2504W        W 6555   8.965   6.379   0.117
 2505W        W 6556  10.600   8.960   1.903
 2506W        W 6557   3.262  11.433   0.474
 2507W        W 6558   1.097   9.378   1.328
 2508W        W 6559   5.267   0.476   3.508
 2509W        W 6560   7.091  10.835   2.628
 2510W        W 6561   2.091   7.231   3.290
 2511W        W 6562   1.716   5.044   3.098
 2512W        W 6563   5.685   5.668  10.053
 2513W        W 6564   0.076   3.597   2.054
 2514W        W 6565   0.900   7.176  11.857
 2515W        W 6566   9.679   7.982  10.937
 2516W        W 6567   1.327   3.623  11.200
 2517W        W 6568   8.268  10.919   2.323
 2518W        W 6569   1.787   4.711  10.565
 2519W        W 6570   9.825   5.678   1.987
 2520W        W 6571   3.470   8.043   9.340
 2521W        W 6572   2.606   4.138   3.115
 2522W        W 6573   6.261   1.144   9.988
 2523W        W 6574   5.499   3.762   2.566
 2524W        W 6575   3.089   8.628  11.419
 2525W        W 6576   9.508   5.737   1.117
 2526W        W 6577   8.339   4.175   9.520
 2527W        W 6578   2.259   0.272  11.969
 2528W        W 6579   6.502   4.018   3.679
 2529W        W 6580   4.721   9.733   0.987
 2530W        W 6581   2.762   6.224   1.405
 2531W        W 6582  10.988   6.567  10.692
 2532W        W 6583   1.704   4.082   0.351
 2533W        W 6584   2.923   0.307  10.715
 2534W        W 6585  10.430   9.458   1.871
 2535W        W 6586   2.748   7.564  11.304
 2536W        W 6587   0.416   3.102   1.383
 2537W        W 6588   4.669  10.395   3.171
 2538W        W 6589   0.045   9.629  10.888
 2539W        W 6590   5.645   6.205   1.808
 2540W        W 6591   6.235   8.076   9.491
 2541W        W 6592   2.636   5.109  11.273
 2542W        W 6593   6.066   2.009  11.380
 2543W        W 6594   1.349   4.178   0.008
 2544W        W 6595   6.575   7.612   1.925
 2545W        W 6596   3.644   9.405   3.786
 2546W        W 6597   0.913   7.218   9.069
 2547W        W 6598   7.538   2.294   2.188
 2548W        W 6599  11.329   6.985   3.147
 2549W        W 6600   7.124  10.516   9.868
 2550W        W 6601   8.917   9.200  10.720
 2551W        W 6602  10.340   2.779   0.865
 2552W        W 6603   8.730   6.835  11.946
 2553W        W 6604  11.083   8.989   1.010
 2554W        W 6605  10.426   0.818   9.856
 2555W        W 6606  10.388   3.678   0.700
 2556W        W 6607   1.849   5.842   9.869
 2557W        W 6608   9.803  10.615   2.838
 2558W        W 6609   9.779   0.927  11.920
 2559W        W 6610  10.861   3.488  10.829
 2560W        W 6611   8.825   5.632   9.089
 2561W        W 6612   5.725   3.622   3.437
 2562W        W 6613   3.779   9.855   8.333
 2563W        W 6614   7.489   9.197   0.235
 2564W        W 6615  10.220   5.292   3.945
 2565W        W 6616   0.190   5.656   3.252
 2566W        W 6617   1.684   5.081  11.503
 2567W        W 6618  10.399   8.109  11.466
 2568W        W 6619   6.810   7.193   3.595
 2569W        W 6620   9.658   5.063  10.371
 2570W        W 6621   0.255   1.921   0.333
 2571W        W 6622   7.065   9.488   0.275
 2572W        W 6623   3.035   4.679   9.628
 2573W        W 6624   6.382   4.677  10.013
 2574W        W 6625   4.756   0.486   9.406
 2575W        W 6626   4.909   4.381  10.340
 2576W        W 6627   7.071   1.807   3.178
 2577W        W 6628   8.923   6.312   9.509
 2578W        W 6629   9.832   9.595   2.609
 2579W        W 6630   4.612   8.360  10.540
 2580W        W 6631   4.858   5.715   1.547
 2581W        W 6632   2.220   2.062   9.607
 2582W        W 6633  11.238   5.275   8.937
 2583W        W 6634   6.485   2.701   2.176
 2584W        W 6635   9.347   8.527   0.750
 2585W        W 6636  10.328   3.156   3.714
 2586W        W 6637   2.901   2.472   9.980
 2587W        W 6638  10.552   3.676   2.962
 2588W        W 6639   3.614   7.567  10.245
 2589W        W 6640   1.756   8.438  10.470
 2590W        W 6641   4.990   3.508   0.932
 2591W        W 6642   0.975   2.635   1.741
 2592W        W 6643   3.820  10.921   9.487
 2593W        W 6644  11.402   2.150   3.470
 2594W        W 6645   8.925   5.100   9.796
 2595W        W 6646  11.473   5.556   3.737
 2596W        W 6647   7.372   6.430   0.768
 2597W        W 6648   1.211   0.944   3.264
 2598W        W 6649   3.124   0.188   2.417
 2599W        W 6650   2.730   6.900   9.913
 2600W        W 6651   8.046   3.822  11.028
 2601W        W 6652   9.709   5.223   2.555
 2602W        W 6653   7.245  10.017   8.971
 2603W        W 6654   2.278   5.755   9.607
 2604W        W 6655   3.594   1.772   9.357
 2605W        W 6656  10.967   4.811   9.372
 2606W        W 6657   8.505  11.214   3.729
 2607W        W 6658   3.916   9.336   1.342
 2608W        W 6659   8.041   9.194  10.179
 2609W        W 6660   0.915   5.345   9.091
 2610W        W 6661   0.378   7.682   1.974
 2611W        W 6662   1.637  11.361   2.452
 2612W        W 6663   9.320  10.379   1.353
 2613W        W 6664   0.850   4.834   9.087
 2614W        W 6665   3.270  10.296   0.852
 2615W        W 6666   7.199   2.255   9.158
 2616W        W 6667   9.508   1.500  10.330
 2617W        W 6668   3.787   5.069   1.236
 2618W        W 6669  10.351   7.911  10.307
 2619W        W 6670  10.997   9.341   2.072
 2620W        W 6671   1.812   0.433   0.675
 2621W        W 6672   2.847   9.925  11.955
 2622W        W 6673   0.501   3.255   2.717
 2623W        W 6674   3.902   5.622   1.624
 2624W        W 6675   9.214  10.614  11.703
 2625W        W 6676   2.195   1.746   0.869
 2626W        W 6677   2.224   6.171   2.467
 2627W        W 6678  10.966   7.517   3.490
 2628W        W 6679   7.255   5.667  10.731
 2629W        W 6680   2.854   8.989   2.896
 2630W        W 6681   1.359   5.465  11.126
 2631W        W 6682   5.644   0.727   8.924
 2632W        W 6683   0.386  11.004   2.118
 2633W        W 6684   9.493  10.602   9.360
 2634W        W 6685  10.336   2.269   1.659
 2635W        W 6686   3.142   1.653   0.905
 2636W        W 6687   4.518   3.679   9.941
 2637W        W 6688   7.915   7.120   1.677
 2638W        W 6689   2.079   4.231   8.869
 2639W        W 6690   0.410   4.783  10.272
 2640W        W 6691  10.740   8.628   0.890
 2641W        W 6692   5.405   2.827   1.913
 2642W        W 6693   3.148   7.505  11.001
 2643W        W 6694   5.582   4.095   1.250
 2644W        W 6695   4.569  11.322  10.586
 2645W        W 6696   0.981   9.756  11.938
 2646W        W 6697   3.938  10.610   1.525
 2647W        W 6698   5.070  10.319  11.016
 2648W        W 6699   4.182  10.627   3.419
 2649W        W 6700   4.726   4.281  10.812
 2650W        W 6701  10.803   1.190   2.078
 2651W        W 6702   2.485   7.594   3.283
 2652W        W 6703  10.390  10.372   9.134
 2653W        W 6704   4.703   8.852   1.419
 2654W        W 6705   4.720   3.923   1.511
 2655W        W 6706   7.721   3.999   2.794
 2656W        W 6707   6.990   3.815   0.744
 2657W        W 6708   4.237   3.274   2.273
 2658W        W 6709   5.751   7.134   0.697
 2659W        W 6710   9.507  10.570   0.496
 2660W        W 6711   9.551   0.998   0.829
 2661W        W 6712  10.329   8.360  10.584
 2662W        W 6713   0.433   6.927  11.234
 2663W        W 6714   7.968   1.710  10.076
 2664W        W 6715   8.410   5.038   8.637
 2665W        W 6716   9.844   7.638   9.908
 2666W        W 6717   1.485  10.434   3.210
 2667W        W 6718   0.854   1.008  10.323
 2668W        W 6719  10.339  11.415   3.510
 2669W        W 6720   6.200   9.921  10.047
 2670W        W 6721   9.107   8.912   1.060
 2671W        W 6722   9.815  10.359   1.235
 2672W        W 6723   6.128   2.952  11.230
 2673W        W 6724   8.896   1.018  11.007
 2674W        W 6725  11.221   0.220   2.244
 2675W        W 6726   2.805   5.083   2.670
 2676W        W 6727   8.406  11.266   2.738
 2677W        W 6728   3.214  11.004   1.791
 2678W        W 6729   1.435   3.304   9.457
 2679W        W 6730   9.519   3.665  11.644
 2680W        W 6731   9.819   2.159  10.502
 2681W        W 6732   7.316   8.938   2.167
 2682W        W 6733   7.586  11.207   8.987
 2683W        W 6734   5.775   7.778   3.279
 2684W        W 6735   7.983   0.486  10.464
 2685W        W 6736   6.967   0.475   2.261
 2686W        W 6737   1.000   9.236  11.870
 2687W        W 6738   4.755   0.974  11.461
 2688W        W 6739   7.434   0.062   2.657
 2689W        W 6740   6.974   6.704   0.858
 2690W        W 6741   6.074   7.429   2.706
 2691W        W 6742   6.620   2.672   0.651
 2692W        W 6743   6.718   3.053   2.967
 2693W        W 6744   7.177   8.916   2.652
 2694W        W 6745   6.586   8.352   1.418
 2695W        W 6746   4.781   2.907   8.690
 2696W        W 6747   8.505   6.070   0.203
 2697W        W 6748   3.837   9.879  10.749
 2698W        W 6749  10.406   1.588   1.396
 2699W        W 6750   2.376   6.053  10.468
 2700W        W 6751   0.323   4.524   8.884
 2701W        W 6752   8.432   7.132  11.654
 2702W        W 6753   1.452  10.055   1.911
 2703W        W 6754   5.634   1.464   9.398
 2704W        W 6755   3.754   0.843   9.474
 2705W        W 6756   9.798  11.271   1.364
 2706W        W 6757  10.570   2.641   9.591
 2707W        W 6758   8.122   0.514   0.860
 2708W        W 6759   8.712   3.140   3.540
 2709W        W 6760   9.930   2.357   1.322
 2710W        W 6761   7.627   9.818  10.274
 2711W        W 6762   3.315   0.698   2.314
 2712W        W 6763   6.163   1.811   1.811
 2713W        W 6764   3.441   7.880   3.204
 2714W        W 6765   5.048   9.143  10.267
 2715W        W 6766   2.428   5.173   9.033
 2716W        W 6767   7.740   5.471   3.975
 2717W        W 6768   4.088   5.732  10.432
 2718W        W 6769   2.237   4.642  10.824
 2719W        W 6770   0.648  10.258   9.463
 2720W        W 6771   8.169   6.807   9.054
 2721W        W 6772   6.090   9.583   9.231
 2722W        W 6773   5.886   3.902  10.266
 2723W        W 6774   8.996   8.190   2.763
 2724W        W 6775   0.196   6.046   2.666
 2725W        W 6776  11.140   8.825  10.513
 2726W        W 6777   5.395   0.354   1.837
 2727W        W 6778   0.423   7.857  10.490
 2728W        W 6779  10.898   9.610   3.645
 2729W        W 6780   0.422   3.893   1.809
 2730W        W 6781  11.352   9.858   9.829
 2731W        W 6782   0.720   5.522   1.470
 2732W        W 6783   0.512   8.426   9.586
 2733W        W 6784   0.627   1.919  10.678
 2734W        W 6785   7.197  10.059  10.085
 2735W        W 6786   4.539   5.806  10.158
 2736W        W 6787   7.846  10.894  10.161
 2737W        W 6788  10.068   6.569   3.310
 2738W        W 6789   7.409   0.823   1.105
 2739W        W 6790   5.600   5.160   9.716
 2740W        W 6791   9.906   3.964   2.588
 2741W        W 6792   5.587   8.449  10.464
 2742W        W 6793   8.465  10.188   1.863
 2743W        W 6794   5.208   4.947  11.128
 2744W        W 6795  10.933   8.184   9.047
 2745W        W 6796   7.475   3.477  11.906
 2746W        W 6797   7.151   5.153  10.851
 2747W        W 6798  11.333  10.272  11.524
 2748W        W 6799   0.972   1.150   1.841
 2749W        W 6800   2.212   6.469  10.911
 2750W        W 6801   5.218   4.126  10.819
 2751W        W 6802   8.897   2.311  10.489
 2752W        W 6803   2.915   7.134   2.232
 2753W        W 6804   7.802   3.089   0.083
 2754W        W 6805   8.088  11.358   0.409
 2755W        W 6806   7.532   1.185   9.469
 2756W        W 6807   4.323   8.282   2.035
 2757W        W 6808   2.646   6.723   1.389
 2758W        W 6809   6.487   3.198   1.422
 2759W        W 6810   2.399   4.703   8.831
 2760W        W 6811   7.088   9.917  11.994
 2761W        W 6812  11.128   5.719   0.725
 2762W        W 6813   5.933  10.089   1.830
 2763W        W 6814   9.592   7.953   2.343
 2764W        W 6815   5.252   4.755  10.203
 2765W        W 6816  10.032   1.338   9.026
 2766W        W 6817   5.584   0.392  11.994
 2767W        W 6818   4.813  10.377   0.317
 2768W        W 6819   7.622   8.143   1.086
 2769W        W 6820   2.239   6.129   0.346
 2770W        W 6821   2.832   9.031   1.937
 2771W        W 6822   2.253   0.414   1.504
 2772W        W 6823   2.196   4.685   2.371
 2773W        W 6824   4.027   2.057  11.894
 2774W        W 6825  10.531   1.207   2.734
 2775W        W 6826  10.223   5.115   9.083
 2776W        W 6827   7.732   4.522   2.839
 2777W        W 6828   2.129   5.058  11.227
 2778W        W 6829   3.954  10.688   0.353
 2779W        W 6830   8.664   7.870   3.203
 2780W        W 6831   2.908   9.623   1.232
 2781W        W 6832   5.603   1.223   2.483
 2782W        W 6833   7.692   4.637   8.422
 2783W        W 6834   2.555   4.216   9.419
 2784W        W 6835   6.994   7.571   0.800
 2785W        W 6836  10.280   4.560   0.943
 2786W        W 6837  10.390   8.670   2.297
 2787W        W 6838   4.629   2.764  11.876
 2788W        W 6839   6.500   2.192  10.228
 2789W        W 6840   8.314   3.170  11.961
 2790W        W 6841   8.214  10.506   8.904
 2791W        W 6842   5.779   9.846  10.919
 2792W        W 6843   8.505   9.136   0.256
 2793W        W 6844   5.315   2.268   1.754
 2794W        W 6845   8.500   4.639   1.366
 2795W        W 6846   5.525   8.943   2.337
 2796W        W 6847   5.894   1.209  10.788
 2797W        W 6848   9.762   4.496  11.217
 2798W        W 6849   6.513   0.596   2.741
 2799W        W 6850   2.910   3.258   1.299
 2800W        W 6851   7.247   9.395   3.371
 2801W        W 6852   3.217   6.277  10.254
 2802W        W 6853   5.067   6.482   1.810
 2803W        W 6854   4.479   7.953   9.340
 2804W        W 6855   5.702   7.483   9.423
 2805W        W 6856   9.428   3.369   9.747
 2806W        W 6857   9.527   1.212  11.307
 2807W        W 6858   3.720   4.605   2.617
 2808W        W 6859   5.516   3.684  10.534
 2809W        W 6860  10.102   7.629  11.775
 2810W        W 6861   0.780   6.933   1.748
 2811W        W 6862   0.424   7.925   0.734
 2812W        W 6863   5.670   0.768  11.493
 2813W        W 6864  11.009   8.233  10.236
 2814W        W 6865   9.919   0.217   2.250
 2815W        W 6866   9.835  11.335   9.051
 2816W        W 6867   8.621   9.296   1.912
 2817W        W 6868   7.172   1.880   8.803
 2818W        W 6869   4.694   9.087   8.959
 2819W        W 6870  10.082   4.696   9.387
 2820W        W 6871   1.340   4.147   1.468
 2821W        W 6872   7.130   0.430   3.445
 2822W        W 6873   2.425   0.979   2.243
 2823W        W 6874   1.365  11.456   3.472
 2824W        W 6875   2.987   7.062   8.104
 2825W        W 6876   8.489   0.209   9.026
 2826W        W 6877   0.626   5.791   9.057
 2827W        W 6878   9.993   9.804   8.785
 2828W        W 6879   6.621   1.257   2.436
 2829W        W 6880   4.544   1.815   9.042
 2830W        W 6881   0.270  11.276  11.624
 2831W        W 6882   9.005   6.847   0.383
 2832W        W 6883   6.250   8.995   0.757
 2833W        W 6884  10.650   7.020   2.219
 2834W        W 6885   8.949  10.012   1.956
 2835W        W 6886   3.701   0.632  11.149
 2836W        W 6887   7.873   1.652  11.945
 2837W        W 6888   3.116   1.127   2.517
 2838W        W 6889  11.384   1.273   8.795
 2839W        W 6890  10.235   6.154   2.730
 2840W        W 6891   0.440   3.557  11.124
 2841W        W 6892   8.577  10.150   3.923
 2842W        W 6893   5.252  10.594   1.868
 2843W        W 6894   6.615  10.945  11.525
 2844W        W 6895  10.916   6.842   2.669
 2845W        W 6896   7.490  10.501  11.814
 2846W        W 6897   5.628   6.121   9.369
 2847W        W 6898   1.782   6.005   2.735
 2848W        W 6899   2.397   7.052   2.318
 2849W        W 6900   0.250   9.925  11.570
 2850W        W 6901   2.258   3.877   2.798
 2851W        W 6902  11.450   8.449   3.293
 2852W        W 6903   7.135   6.398   9.627
 2853W        W 6904  10.455  10.569  11.532
 2854W        W 6905   1.065   7.435   2.230
 2855W        W 6906   3.976   3.710   2.175
 2856W        W 6907   8.962   6.359  10.470
 2857W        W 6908   6.567   8.529  11.659
 2858W        W 6909  10.446   1.908   2.374
 2859W        W 6910   1.275   3.342  10.331
 2860W        W 6911   6.058   7.136   2.251
 2861W        W 6912   4.517   3.934   9.503
 2862W        W 6913   0.851  10.717   1.982
 2863W        W 6914   0.400   8.843   0.459
 2864W        W 6915   3.766   2.184  10.087
 2865W        W 6916   7.096   0.412   9.960
 2866W        W 6917  11.065   3.807   1.959
 2867W        W 6918   7.126   0.344  10.999
 2868W        W 6919   7.529   6.670   3.835
 2869W        W 6920   9.626   7.815   0.036
 2870W        W 6921   5.016   8.179  11.178
 2871W        W 6922   4.886   8.005   2.559
 2872W        W 6923   1.590   5.899   8.531
 2873W        W 6924   6.117   9.665   2.048
 2874W        W 6925   1.745   4.161   1.803
 2875W        W 6926   1.067   7.376   8.593
 2876W        W 6927   5.340  10.313   0.406
 2877W        W 6928   0.509   9.947   0.019
 2878W        W 6929   8.351   8.657  11.954
 2879W        W 6930   8.667   5.621   3.110
 2880W        W 6931   5.585   4.715  11.437
 2881W        W 6932   0.763   1.883   0.449
 2882W        W 6933  10.129   4.274   0.406
 2883W        W 6934   6.631   1.927   0.553
 2884W        W 6935   5.311   7.395  11.369
 2885W        W 6936   5.464   9.142   9.456
 2886W        W 6937   5.643   0.784   3.264
 2887W        W 6938  10.340   4.232   2.544
 2888W        W 6939   2.076   8.791  10.844
 2889W        W 6940   6.074   7.096   1.349
 2890W        W 6941   4.785   3.853   3.682
 2891W        W 6942   5.948   2.359   2.721
 2892W        W 6943   9.339   3.769   9.050
 2893W        W 6944   1.708   4.659   1.989
 2894W        W 6945   4.757   2.265   9.112
 2895W        W 6946   2.195   6.634   1.150
 2896W        W 6947   0.039   7.527  10.576
 2897W        W 6948   3.935   9.302   2.862
 2898W        W 6949   2.001   4.167   2.402
 2899W        W 6950   5.167   2.340   4.023
 2900W        W 6951  10.074   2.207  10.041
 2901W        W 6952   3.396  10.250   2.183
 2902W        W 6953   3.747  10.812   3.140
 2903W        W 6954   7.046   9.132  10.548
 2904W        W 6955   7.987   2.802   2.261
 2905W        W 6956   7.078   3.799  10.797
 2906W        W 6957  10.852   2.629   0.233
 2907W        W 6958   7.176   9.574  10.334
 2908W        W 6959   2.312   9.975   2.343
 2909W        W 6960   4.086   6.491   2.029
 2910W        W 6961   7.596   4.719   1.865
 2911W        W 6962   0.396   1.365   8.972
 2912W        W 6963   0.899   3.758   2.017
 2913W        W 6964  11.330   6.253   2.355
 2914W        W 6965   6.764   8.925   2.263
 2915W        W 6966   2.104   0.727  10.848
 2916W        W 6967   2.898   4.677   8.685
 2917W        W 6968  11.027  10.418   9.792
 2918W        W 6969   7.559   3.625   9.942
 2919W        W 6970   0.716   3.092  11.886
 2920W        W 6971   7.663  10.352   3.274
 2921W        W 6972   4.206   3.399   1.760
 2922W        W 6973  10.872   9.473   9.961
 2923W        W 6974   9.567   8.371   3.158
 2924W        W 6975  11.014   4.561   8.900
 2925W        W 6976   8.348   9.504   1.013
 2926W        W 6977   0.956   0.160   9.709
 2927W        W 6978   9.046   4.756   0.280
 2928W        W 6979   6.726   3.814   1.434
 2929W        W 6980   5.175   5.983   1.890
 2930W        W 6981   0.779   3.046   3.072
 2931W        W 6982  10.388   5.628   8.447
 2932W        W 6983   0.995   7.947   0.084
 2933W        W 6984   7.561   3.647  10.954
 2934W        W 6985  11.251   0.257  10.540
 2935W        W 6986   1.899   8.419   2.677
 2936W        W 6987   1.816   3.688   1.579
 2937W        W 6988   8.413   4.770   0.012
 2938W        W 6989   4.751  11.206  11.141
 2939W        W 6990   0.920   3.116   1.518
 2940W        W 6991   7.293  10.019   2.747
 2941W        W 6992   6.920   4.142  11.508
 2942W        W 6993   3.312   2.734   9.615
 2943W        W 6994   1.124   1.925  10.850
 2944W        W 6995   0.657   9.310   9.486
 2945W        W 6996   1.807   8.312   0.352
 2946W        W 6997   7.405   4.849   1.407
 2947W        W 6998   5.411   7.042  11.754
 2948W        W 6999   4.680   3.460   1.332
 2949W        W 7000   0.786   5.093  10.441
 2950W        W 7001   9.936   3.234   3.358
 2951W        W 7002   1.757   8.146   9.374
 2952W        W 7003   3.042   4.778   3.429
 2953W        W 7004   9.690   1.983   0.703
 2954W        W 7005   0.763  10.110   0.875
 2955W        W 7006   2.748   8.363   9.629
 2956W        W 7007   3.774   7.971   9.954
 2957W        W 7008   8.704   3.025   2.724
 2958W        W 7009  10.585   8.195   9.952
 2959W        W 7010   0.437   1.789   3.289
 2960W        W 7011   1.718   9.966   9.800
 2961W        W 7012   2.777   4.757   3.899
 2962W        W 7013   9.941   9.916   9.855
 2963W        W 7014   0.012   0.192   1.352
 2964W        W 7015   6.632   4.542   1.942
 2965W        W 7016   1.707   0.003  11.561
 2966W        W 7017   5.023   4.331   9.470
 2967W        W 7018   5.196   8.955   3.551
 2968W        W 7019   8.222   3.058   3.638
 2969W        W 7020   7.676   6.602   8.969
 2970W        W 7021   7.173   7.562   2.768
 2971W        W 7022  10.267  10.398   2.741
 2972W        W 7023   7.177   4.220  11.042
 2973W        W 7024   9.724   3.722   3.527
 2974W        W 7025   2.768   0.734   1.653
 2975W        W 7026   8.599   9.034   0.803
 2976W        W 7027   5.021   3.150   1.828
 2977W        W 7028   3.114   0.746   1.271
 2978W        W 7029   4.818  10.691  11.225
 2979W        W 7030   2.270   5.210   4.213
 2980W        W 7031   7.120   0.494   0.805
 2981W        W 7032   2.803   6.114  11.495
 2982W        W 7033   2.123   0.747   9.970
 2983W        W 7034   1.826   9.998   8.876
 2984W        W 7035  10.710   8.627  10.361
 2985W        W 7036   0.505   4.996   8.382
 2986W        W 7037   4.160   2.673   9.519
 2987W        W 7038   7.153   6.360   4.001
 2988W        W 7039   7.471   9.060   1.657
 2989W        W 7040   3.214   6.585  10.736
 2990W        W 7041   0.985   4.410  11.205
 2991W        W 7042   2.266   3.769  10.255
 2992W        W 7043  11.328  10.960   3.325
 2993W        W 7044   9.866  10.907   3.269
 2994W        W 7045   5.960   0.932  10.338
 2995W        W 7046   1.261   7.662   0.859
 2996W        W 7047   6.911   7.026   1.572
 2997W        W 7048  10.785   6.047  10.323
 2998W        W 7049   8.661   0.449   9.460
 2999W        W 7050   4.728   4.772  10.996
 3000W        W 7051   9.638   3.605   1.692
 3001W        W 7052   9.393   6.446   2.099
 3002W        W 7053   5.778   9.927   2.401
 3003W        W 7054   8.477   7.829  10.981
 3004W        W 7055   4.669   3.642   0.540
 3005W        W 7056   3.713   3.523  10.417
 3006W        W 7057   9.137   2.748  10.329
 3007W        W 7058   4.271   7.764   0.411
 3008W        W 7059   0.683   1.582   9.492
 3009W        W 7060  10.474   0.404   0.528
 3010W        W 7061   0.283   5.892   9.460
 3011W        W 7062   1.106   8.232   8.925
 3012W        W 7063   9.084   1.719  11.455
 3013W        W 7064   8.919   9.098   1.517
 3014W        W 7065   4.596   0.238   0.864
 3015W        W 7066   1.347   3.689   0.197
 3016W        W 7067   9.267   5.633   3.268
 3017W        W 7068   8.422   9.009   9.866
 3018W        W 7069   4.014   7.446   0.745
 3019W        W 7070   9.039   2.248   1.155
 3020W        W 7071   8.390   4.366   2.246
 3021W        W 7072   6.024  10.489   0.655
 3022W        W 7073  11.284   1.810   1.652
 3023W        W 7074   7.131   4.835   2.123
 3024W        W 7075   2.102   4.210   3.163
 3025W        W 7076   3.268  10.836  10.368
 3026W        W 7077   0.847   5.340  11.356
 3027W        W 7078   5.537   2.793  10.006
 3028W        W 7079   1.781   1.719   3.057
 3029W        W 7080   4.476   7.595   0.909
 3030W        W 7081   1.772   6.036   9.392
 3031W        W 7082   4.192   7.585  11.870
 3032W        W 7083  11.122   9.185   3.384
 3033W        W 7084   4.013   6.665  10.376
 3034W        W 7085   6.169   7.916   2.668
 3035W        W 7086   5.428   1.876   8.519
 3036W        W 7087   0.583   3.410   1.791
 3037W        W 7088   3.509   1.233   3.365
 3038W        W 7089  11.007   1.046   2.515
 3039W        W 7090   4.656   8.076   0.212
 3040W        W 7091   7.447   4.026   9.656
 3041W        W 7092   7.055   6.730   3.619
 3042W        W 7093   8.698   6.467   3.172
 3043W        W 7094   5.972   5.951   0.376
 3044W        W 7095  10.457  10.791   1.873
 3045W        W 7096   4.792   1.976  11.515
 3046W        W 7097   1.462  10.351   9.081
 3047W        W 7098   8.038   3.276   1.600
 3048W        W 7099   6.335  10.737   2.303
 3049W        W 7100   5.510   8.381   9.085
 3050W        W 7101   3.286   9.570   4.111
 3051W        W 7102   2.105   5.570   3.899
 3052W        W 7103   3.989  11.031   1.206
 3053W        W 7104   7.023   3.228   0.071
 3054W        W 7105   7.874   0.779  10.061
 3055W        W 7106  10.122  10.295   8.626
 3056W        W 7107  11.479   4.128   2.032
 3057W        W 7108  10.051   3.465   2.893
 3058W        W 7109   6.734   7.340  11.930
 3059W        W 7110   2.622   0.872   9.027
 3060W        W 7111   2.569   9.608   2.613
 3061W        W 7112   0.865   6.818   2.728
 3062W        W 7113   1.406   1.241  11.948
 3063W        W 7114  11.367   1.315  11.533
 3064W        W 7115   2.051   4.849   9.835
 3065W        W 7116   3.250   5.071   8.666
 3066W        W 7117   5.102   3.912  10.365
 3067W        W 7118   1.206   1.219   1.387
 3068W        W 7119   9.964   2.262   9.045
 3069W        W 7120   7.453   4.980   9.668
 3070W        W 7121   8.959   9.160   3.026
 3071W        W 7122   2.214   9.980   9.861
 3072W        W 7123   4.606  11.095   2.358
 3073W        W 7124   6.665   7.810   0.104
 3074W        W 7125   1.716   8.675  11.395
 3075W        W 7126   8.536  10.713   1.925
 3076W        W 7127   9.960   1.477   1.645
 3077W        W 7128   7.861   3.688   2.407
 3078W        W 7129  10.833   3.105   0.027
 3079W        W 7130   1.606   7.393   3.460
 3080W        W 7131   7.560   6.569   2.445
 3081W        W 7132   9.593   6.590   3.092
 3082W        W 7133   8.428   0.632   1.701
 3083W        W 7134   8.336   0.132  10.380
 3084W        W 7135  11.406   8.089   8.810
 3085W        W 7136   3.053   7.005   2.931
 3086W        W 7137   9.880   0.900   2.996
 3087W        W 7138   2.116   1.281  10.004
 3088W        W 7139   1.697   4.583   2.475
 3089W        W 7140   3.725  10.036   9.796
 3090W        W 7141   0.743  10.562   0.575
 3091W        W 7142   5.167  11.057   3.483
 3092W        W 7143   0.051   8.545   1.778
 3093W        W 7144   8.006   1.948   1.226
 3094W        W 7145   1.188   3.209   0.075
 3095W        W 7146   7.567  11.485   0.655
 3096W        W 7147  11.198   2.240   1.359
 3097W        W 7148   6.777   8.629  10.699
 3098W        W 7149   3.803   3.708   0.738
 3099W        W 7150   8.711   1.392   9.264
 3100W        W 7151  10.945   5.067   3.218
 3101W        W 7152   9.380   8.406  10.969
 3102W        W 7153   4.744   1.678   2.882
 3103W        W 7154   6.286   7.245   3.584
 3104W        W 7155   5.991   6.215   2.212
 3105W        W 7156   0.299   8.812   8.786
 3106W        W 7157   2.945  10.923  10.779
 3107W        W 7158   6.855   2.349   0.324
 3108W        W 7159  11.236   0.794   3.672
 3109W        W 7160   4.069   7.073  11.713
 3110W        W 7161   9.761   1.438  11.980
 3111W        W 7162   1.484   7.788   3.093
 3112W        W 7163   3.855   2.754  10.854
 3113W        W 7164   3.312   4.719   9.047
 3114W        W 7165   2.214  10.499   3.029
 3115W        W 7166   5.525   3.601   3.910
 3116W        W 7167   9.483   3.331   9.248
 3117W        W 7168   6.206  10.727   8.952
 3118W        W 7169   1.323   3.640   2.332
 3119W        W 7170   1.009   3.211   9.147
 3120W        W 7171   6.270   8.772  10.829
 3121W        W 7172   5.499   5.559  11.404
 3122W        W 7173   1.815   2.827   2.267
 3123W        W 7174   1.011   8.455   0.728
 3124W        W 7175   3.808   9.486   2.418
 3125W        W 7176   5.203   2.559  10.293
 3126W        W 7177  10.638   4.411   0.255
 3127W        W 7178   4.024   4.943   8.197
 3128W        W 7179   2.787   4.615   9.183
 3129W        W 7180   1.654   5.135  10.307
 3130W        W 7181   8.902   9.620  11.910
 3131W        W 7182   9.980   0.767  10.560
 3132W        W 7183   2.889  10.881   2.591
 3133W        W 7184   8.897  10.989  10.870
 3134W        W 7185   7.105   8.435   2.866
 3135W        W 7186   4.354   8.038   1.389
 3136W        W 7187   4.203   9.778   2.280
 3137W        W 7188   0.959   9.349   9.923
 3138W        W 7189   1.226   8.788   8.820
 3139W        W 7190   9.837   3.611   9.941
 3140W        W 7191   4.208   3.588   9.230
 3141W        W 7192   9.363   9.999  10.379
 3142W        W 7193   8.854   9.421   8.718
 3143W        W 7194   7.662   8.121   2.524
 3144W        W 7195   1.349   8.373   1.487
 3145W        W 7196   8.643   2.628  11.026
 3146W        W 7197  11.334   9.348   1.290
 3147W        W 7198  10.699   6.081   0.957
 3148W        W 7199   1.905   7.910  10.539
 3149W        W 7200   1.932   0.854   2.124
 3150W        W 7201  10.386   9.380   2.747
 3151W        W 7202   2.761  11.293   9.326
 3152W        W 7203   4.184   0.930  11.835
 3153W        W 7204  10.242   8.599   0.981
 3154W        W 7205   6.634   7.662   2.799
 3155W        W 7206   3.591   0.481   1.323
 3156W        W 7207  10.747   4.819  11.236
 3157W        W 7208   3.190   6.408   0.301
 3158W        W 7209   6.714  11.426  11.350
 3159W        W 7210   1.131   1.610   8.432
 3160W        W 7211   3.827   8.805  11.453
 3161W        W 7212  10.446   4.714   1.410
 3162W        W 7213   5.392   6.524  11.803
 3163W        W 7214   5.174   0.757  11.258
 3164W        W 7215   1.305  11.044   0.377
 3165W        W 7216   3.196   3.874   1.364
 3166W        W 7217  11.285   5.776   8.711
 3167W        W 7218  10.460   3.145   9.032
 3168W        W 7219   1.403   0.131   2.985
 3169W        W 7220   6.258   7.658   3.151
 3170W        W 7221   7.884   4.154   0.714
 3171W        W 7222   6.725   3.681   3.286
 3172W        W 7223   3.854   6.590  11.788
 3173W        W 7224  10.683   5.662  11.436
 3174W        W 7225   4.743   9.927   9.712
 3175W        W 7226   4.056   0.930   1.209
 3176W        W 7227   9.587   4.294   3.300
 3177W        W 7228   8.511   8.691  10.556
 3178W        W 7229   0.072   8.986  10.254
 3179W        W 7230   0.746   6.373   0.865
 3180W        W 7231   4.264   8.994   3.121
 3181W        W 7232   6.273   0.146   0.510
 3182W        W 7233   5.867   3.321   3.057
 3183W        W 7234   2.243   5.299   2.994
 3184W        W 7235   6.450   5.879  10.536
 3185W        W 7236  10.373   7.187   9.990
 3186W        W 7237   9.818   5.746   0.509
 3187W        W 7238   3.532   8.468   0.639
 3188W        W 7239   8.369  10.028   0.703
 3189W        W 7240   9.184   6.492   3.373
 3190W        W 7241   9.198   8.025   8.549
 3191W        W 7242   1.973   2.712   0.213
 3192W        W 7243   1.670  10.017  10.321
 3193W        W 7244   4.485  10.945   1.262
 3194W        W 7245   6.225   5.731  10.083
 3195W        W 7246  10.561   3.675  11.798
 3196W        W 7247  10.000   1.805   8.765
 3197W        W 7248   9.944   6.157   3.600
 3198W        W 7249   6.963   1.314  10.974
 3199W        W 7250   0.324   2.924   3.271
 3200W        W 7251   8.488   5.844   0.679
 3201W        W 7252   8.868   5.457   1.459
 3202W        W 7253   3.322   2.725  10.157
 3203W        W 7254   4.652   6.686   9.139
 3204W        W 7255   8.476   7.446   9.789
 3205W        W 7256   3.688  10.177   8.961
 3206W        W 7257  10.693   9.486   9.319
 3207W        W 7258  11.332   8.373   0.243
 3208W        W 7259  10.898   7.008  10.323
 3209W        W 7260   3.581   1.376  11.168
 3210W        W 7261   2.106   4.435   3.623
 3211W        W 7262   3.140  10.369  11.138
 3212W        W 7263  11.242   9.381   0.204
 3213W        W 7264   8.062   7.952   0.335
 3214W        W 7265   5.785   0.552  10.645
 3215W        W 7266   0.435   8.167   1.177
 3216W        W 7267   1.279   4.343   1.928
 3217W        W 7268   2.068   5.106   8.094
 3218W        W 7269   4.009   7.932   2.368
 3219W        W 7270   7.031  10.824   1.697
 3220W        W 7271   9.423   9.864   1.765
 3221W        W 7272   3.381   4.276   2.446
 3222W        W 7273   1.636   0.550   9.104
 3223W        W 7274   0.325   3.452   8.874
 3224W        W 7275   8.072   7.670   9.995
 3225W        W 7276   9.164   1.452  11.028
 3226W        W 7277   0.800   1.266   1.035
 3227W        W 7278   3.776  11.013   2.593
 3228W        W 7279   7.370   2.433  11.336
 3229W        W 7280   4.096   4.703   2.300
 3230W        W 7281   2.856  10.353   3.406
 3231W        W 7282  10.920   9.607   1.136
 3232W        W 7283   3.089  10.444  10.639
 3233W        W 7284   5.826   1.708   2.441
 3234W        W 7285   2.835  10.088   1.024
 3235W        W 7286   9.742   4.781   3.210
 3236W        W 7287  10.859  11.308   2.676
 3237W        W 7288   6.722   1.259  11.448
 3238W        W 7289  11.058  10.375   2.320
 3239W        W 7290   0.994  11.269  10.446
 3240W        W 7291   9.304  11.307   1.372
 3241W        W 7292   0.922   6.986  11.379
 3242W        W 7293   9.345   1.944  10.532
 3243W        W 7294   5.456   1.416  10.971
 3244W        W 7295   1.733   2.077   2.698
 3245W        W 7296   7.805  10.118   2.812
 3246W        W 7297   3.251   7.292   9.066
 3247W        W 7298   4.848   8.229   2.103
 3248W        W 7299   2.823  10.595   0.999
 3249W        W 7300   8.655   2.113   1.828
 3250W        W 7301   5.697   5.111  11.070
 3251W        W 7302   0.650   3.292   0.973
 3252W        W 7303   6.577   1.249   1.934
 3253W        W 7304   0.820   4.023   9.468
 3254W        W 7305   6.983   9.989  10.550
 3255W        W 7306  10.886   8.569   2.215
 3256W        W 7307   3.616   7.547  10.767
 3257W        W 7308   0.285   2.637   0.543
 3258W        W 7309   9.002   1.882   1.497
 3259W        W 7310   0.464   9.486   9.921
 3260W        W 7311   0.707   5.787  11.581
 3261W        W 7312   1.449   1.952   0.261
 3262W        W 7313   9.501   2.863  11.989
 3263W        W 7314   4.895   9.566   1.437
 3264W        W 7315   2.505   7.570  10.227
 3265W        W 7316   6.553   6.715  10.768
 3266W        W 7317   0.392   4.791   9.343
 3267W        W 7318   8.924  10.012  10.643
 3268W        W 7319   2.883   7.200   1.414
 3269W        W 7320   7.083   3.602   1.772
 3270W        W 7321   1.008   0.947  11.788
 3271W        W 7322   9.954   1.256  11.569
 3272W        W 7323   1.707   5.696  10.838
 3273W        W 7324   5.421  11.308  10.347
 3274W        W 7325  10.533   4.626   9.121
 3275W        W 7326   0.320   7.157  10.797
 3276W        W 7327   5.436  10.395   9.774
 3277W        W 7328   1.411   0.801  11.516
 3278W        W 7329   9.837   9.352  10.123
 3279W        W 7330   2.698   2.640   9.142
 3280W        W 7331   4.980   5.359  11.322
 3281W        W 7332   1.719   4.782  11.921
 3282W        W 7333   8.890   2.916   0.793
 3283W        W 7334   4.513   7.861   2.227
 3284W        W 7335  11.461   0.746   1.396
 3285W        W 7336   6.701   7.976  10.466
 3286W        W 7337  11.273   1.567   9.794
 3287W        W 7338   4.859   9.355   9.850
 3288W        W 7339   1.795   8.948   2.699
 3289W        W 7340   8.206   8.510   1.399
 3290W        W 7341   4.141   4.702   1.296
 3291W        W 7342   0.834   9.783   9.536
 3292W        W 7343   0.940   6.424   2.404
 3293W        W 7344  10.370   8.354   2.781
 3294W        W 7345  10.924   5.702   1.210
 3295W        W 7346  10.084   5.237   2.188
 3296W        W 7347   5.778   1.209   2.978
 3297W        W 7348   9.578   8.872  11.815
 3298W        W 7349   1.215   6.718   9.220
 3299W        W 7350   5.201   5.088   0.992
 3300W        W 7351   1.265   2.476   3.361
 3301W        W 7352   5.293   2.552   2.802
 3302W        W 7353   2.316   4.775   0.665
 3303W        W 7354   1.963  10.876  10.780
 3304W        W 7355   2.208  11.257   0.754
 3305W        W 7356   0.298   9.016   9.748
 3306W        W 7357   1.204  11.264   9.979
 3307W        W 7358  11.204   6.275   8.872
 3308W        W 7359   3.638   1.788   3.193
 3309W        W 7360   3.230   8.490   9.404
 3310W        W 7361   0.065   2.932   9.498
 3311W        W 7362   6.436   3.326   0.326
 3312W        W 7363   5.059  10.836   2.466
 3313W        W 7364   2.800   0.243   9.572
 3314W        W 7365   0.820   5.810   0.078
 3315W        W 7366   2.003   8.000  11.052
 3316W        W 7367   8.828   0.776   9.827
 3317W        W 7368   2.347   1.410   2.907
 3318W        W 7369   9.493   7.109   0.341
 3319W        W 7370   7.416   8.911   8.384
 3320W        W 7371   0.071  10.533   1.899
 3321W        W 7372   1.789  10.301  10.789
 3322W        W 7373   0.791   7.307  10.984
 3323W        W 7374   8.149   4.264   2.674
 3324W        W 7375   0.424   2.711   2.354
 3325W        W 7376   8.254   6.687  11.882
 3326W        W 7377   6.924   2.724   1.776
 3327W        W 7378   5.729   5.609  10.939
 3328W        W 7379  11.253   0.734   8.834
 3329W        W 7380   4.771   7.960   9.773
 3330W        W 7381   4.372  10.856  11.097
 3331W        W 7382   3.238   0.944   9.591
 3332W        W 7383   2.433   2.811   0.047
 3333W        W 7384  10.412   3.128   9.536
 3334W        W 7385   3.408   4.656  11.630
 3335W        W 7386   3.937   8.820  10.954
 3336W        W 7387   2.694   7.247   2.677
 3337W        W 7388   3.540   5.512   8.719
 3338W        W 7389   9.463   8.024   9.077
 3339W        W 7390   8.044   0.835  10.862
 3340W        W 7391   8.237  10.498  10.331
 3341W        W 7392   5.138  11.463   8.982
 3342W        W 7393   9.106  10.897  10.396
 3343W        W 7394  10.812   7.968  11.203
 3344W        W 7395   0.719   2.588   9.812
 3345W        W 7396   1.876  10.534   1.320
 3346W        W 7397  11.025   4.412   3.648
 3347W        W 7398  11.363   3.122   3.161
 3348W        W 7399   2.432   7.154   8.974
 3349W        W 7400   6.499   4.323   9.582
 3350W        W 7401   1.899   3.826   0.855
 3351W        W 7402   9.531   4.589   1.394
 3352W        W 7403   7.948   9.801  11.781
 3353W        W 7404   7.532   7.715   0.448
 3354W        W 7405   5.028   6.490   0.263
 3355W        W 7406   6.418   4.128   8.628
 3356W        W 7407  10.239   9.079  10.368
 3357W        W 7408  11.287   6.549   0.302
 3358W        W 7409   6.510  10.933  10.345
 3359W        W 7410   5.068  11.335  10.755
 3360W        W 7411   4.728   4.144   9.911
 3361W        W 7412   4.660   9.225   1.792
 3362W        W 7413   8.857   6.577   0.807
 3363W        W 7414   2.488   3.225  11.731
 3364W        W 7415   8.759   8.012   9.480
 3365W        W 7416   6.472   2.750   8.929
 3366W        W 7417   3.726   5.686  10.819
 3367W        W 7418   3.191   1.414   9.799
 3368W        W 7419  10.118   7.905   2.369
 3369W        W 7420   9.873   7.015   3.112
 3370W        W 7421   7.421   5.732   1.788
 3371W        W 7422   2.680  10.440  10.937
 3372W        W 7423   2.185  10.477  11.065
 3373W        W 7424   5.178  10.213  11.932
 3374W        W 7425   8.990   6.597   2.429
 3375W        W 7426   1.737   9.005   3.589
 3376W        W 7427   9.546   2.646  11.525
 3377W        W 7428  11.436  10.260  10.117
 3378W        W 7429   3.135   1.824   2.973
 3379W        W 7430   4.913   5.686  10.526
 3380W        W 7431   4.669   3.432   9.485
 3381W        W 7432   8.047   1.069  11.328
 3382W        W 7433   0.804   9.282  11.387
 3383W        W 7434   7.370   3.620   2.686
 3384W        W 7435   1.693   6.696   8.939
 3385W        W 7436   3.782   9.779  11.259
 3386W        W 7437   5.259   0.673   9.376
 3387W        W 7438   5.718   5.113   9.216
 3388W        W 7439   7.521   9.432   9.502
 3389W        W 7440   3.030  10.369   1.841
 3390W        W 7441   9.786   0.430  10.882
 3391W        W 7442   3.704   3.331   2.719
 3392W        W 7443   8.208   5.889   9.440
 3393W        W 7444   6.939   6.420  10.958
 3394W        W 7445   2.561   8.807  11.939
 3395W        W 7446   3.739   5.047   8.822
 3396W        W 7447   2.261   1.372   0.503
 3397W        W 7448  11.092   0.834   1.774
 3398W        W 7449   7.951   0.790   0.470
 3399W        W 7450   9.445   5.512   0.257
 3400W        W 7451   5.735   7.658  11.491
 3401W        W 7452   6.832   9.456   8.049
 3402W        W 7453   4.492   8.121   0.743
 3403W        W 7454   8.862   6.196   2.738
 3404W        W 7455   0.430   4.539   0.160
 3405W        W 7456   6.263  10.260   9.230
 3406W        W 7457   8.438   7.066   2.563
 3407W        W 7458   2.668   9.220  10.404
 3408W        W 7459   1.922   7.083  10.252
 3409W        W 7460   3.597   3.794   2.514
 3410W        W 7461   3.375   5.437   0.463
 3411W        W 7462   6.073   5.420   1.920
 3412W        W 7463   3.896   0.871   1.683
 3413W        W 7464   7.399   2.165   3.462
 3414W        W 7465   5.746  10.923  10.971
 3415W        W 7466  11.358   8.125   9.844
 3416W        W 7467   0.718   6.004   2.615
 3417W        W 7468   5.791   8.502   2.319
 3418W        W 7469   0.748   3.357   2.281
 3419W        W 7470   7.469   3.338  11.382
 3420W        W 7471   6.046  11.472   3.140
 3421W        W 7472   5.217   1.215  10.577
 3422W        W 7473   7.434   8.532   0.281
 3423W        W 7474   1.828  10.075   1.036
 3424W        W 7475   3.755   7.036   3.251
 3425W        W 7476  11.120   8.477   1.187
 3426W        W 7477   4.614   6.205  11.750
 3427W        W 7478   1.655   4.298   0.821
 3428W        W 7479   8.015   4.624   1.177
 3429W        W 7480   6.783   4.036   2.711
 3430W        W 7481   9.056   3.246   1.420
 3431W        W 7482  10.666   7.981  10.700
 3432W        W 7483   0.109   1.073   9.894
 3433W        W 7484   9.245  10.290   9.010
 3434W        W 7485   7.953   8.218   9.270
 3435W        W 7486   8.036   0.933   1.817
 3436W        W 7487   6.150   6.746   3.114
 3437W        W 7488   4.524   1.267   0.868
 3438W        W 7489  11.441  10.755   9.991
 3439W        W 7490  11.306   6.511   2.809
 3440W        W 7491   4.527   1.608   8.549
 3441W        W 7492   2.286   3.854   9.163
 3442W        W 7493   8.945   9.896  11.478
 3443W        W 7494   1.910   5.933   0.689
 3444W        W 7495   2.921   9.058   0.322
 3445W        W 7496   2.320   1.045   9.566
 3446W        W 7497   5.050   0.792   1.180
 3447W        W 7498   9.312   1.306   1.187
 3448W        W 7499   8.342  10.887  10.911
 3449W        W 7500   0.310   5.737   0.078
 3450W        W 7501   6.686   4.221  10.935
 3451W        W 7502   2.338  11.378   1.422
 3452W        W 7503   3.715   1.408  10.663
 3453W        W 7504   3.981   1.419   3.393
 3454W        W 7505   8.904   9.948  10.108
 3455W        W 7506   7.139   2.381   8.646
 3456W        W 7507   0.990   2.617   9.375
 3457W        W 7508   9.388   4.400   8.529
 3458W        W 7509   3.782   1.280   9.136
 3459W        W 7510   4.636   3.362   3.665
 3460W        W 7511   8.455  10.331   9.445
 3461W        W 7512   0.742   7.096   3.141
 3462W        W 7513   4.488   0.135  11.014
 3463W        W 7514   4.373   6.624   2.453
 3464W        W 7515   5.638   8.014   1.216
 3465W        W 7516   4.951   3.938   3.193
 3466W        W 7517   6.210  10.193   2.226
 3467W        W 7518   5.609   3.075   1.232
 3468W        W 7519   0.413   2.197   2.503
 3469W        W 7520  10.896   2.144   0.389
 3470W        W 7521   6.999   6.510   1.655
 3471W        W 7522   4.612   0.938  10.602
 3472W        W 7523   5.202   2.086  10.037
 3473W        W 7524   8.093   7.871  11.317
 3474W        W 7525   6.431   7.657   4.060
 3475W        W 7526   8.144   6.178  11.852
 3476W        W 7527   8.789   4.767   3.490
 3477W        W 7528   1.889   1.689   0.343
 3478W        W 7529  11.186   3.354   1.808
 3479W        W 7530  11.030  10.855   9.014
 3480W        W 7531   3.728   7.928   1.461
 3481W        W 7532   9.104   1.673   2.446
 3482W        W 7533   0.251   1.866   9.381
 3483W        W 7534   0.378  10.877  11.271
 3484W        W 7535   5.542  10.683   0.676
 3485W        W 7536   8.808   4.059   2.188
 3486W        W 7537   2.057   6.116   8.436
 3487W        W 7538   9.586   1.478   8.762
 3488W        W 7539   0.532   5.590   2.846
 3489W        W 7540   2.390  10.847   2.301
 3490W        W 7541   8.787   5.817   1.840
 3491W        W 7542  10.502   4.666   2.792
 3492W        W 7543   1.339   6.101   2.475
 3493W        W 7544  10.375   1.361   9.912
 3494W        W 7545   7.610   8.063   0.108
 3495W        W 7546   6.560   8.972  10.374
 3496W        W 7547   8.019   7.712   9.143
 3497W        W 7548  10.422   9.813   9.622
 3498W        W 7549   6.471   1.928   9.788
 3499W        W 7550   8.889   0.806   2.963
 3500W        W 7551   7.165   2.088  10.031
 3501W        W 7552   8.295   0.232   8.523
 3502W        W 7553   3.242   7.033   9.989
 3503W        W 7554   0.972   3.753  10.384
 3504W        W 7555   5.731   6.504   8.607
 3505W        W 7556   8.944   6.029   3.220
 3506W        W 7557   6.508   6.672   0.677
 3507W        W 7558   9.359   4.380   0.967
 3508W        W 7559   6.702   0.404   0.492
 3509W        W 7560   2.403   3.720   0.840
 3510W        W 7561  11.447   0.417  11.635
 3511W        W 7562   7.624   7.560   1.769
 3512W        W 7563   1.660   1.326  10.337
 3513W        W 7564  11.036   9.443  10.866
 3514W        W 7565   6.378   9.847   8.887
 3515W        W 7566   4.188  10.513   1.044
 3516W        W 7567   2.740  10.464  11.954
 3517W        W 7568   5.603   2.213   3.088
 3518W        W 7569   5.637   0.680   0.995
 3519W        W 7570   5.310   1.374   3.086
 3520W        W 7571   3.310   8.043  10.720
 3521W        W 7572   4.325   5.070  10.814
 3522W        W 7573   2.228   2.491   3.331
 3523W        W 7574   7.277   4.590   3.499
 3524W        W 7575   1.922   9.867   0.285
 3525W        W 7576   6.073   3.683   9.137
 3526W        W 7577   7.223   7.485  11.785
 3527W        W 7578   3.729   2.618   0.268
 3528W        W 7579   5.995   8.238   3.553
 3529W        W 7580   9.519   0.505   0.953
 3530W        W 7581   5.653   3.126   3.571
 3531W        W 7582   9.442   7.035  10.214
 3532W        W 7583   3.769   4.102   9.647
 3533W        W 7584   1.692   3.098   0.428
 3534W        W 7585   3.343   5.993   8.740
 3535W        W 7586  10.732   9.041   2.422
 3536W        W 7587   1.936   1.652  10.598
 3537W        W 7588  11.323  10.418   9.010
 3538W        W 7589   4.382   4.400  10.337
 3539W        W 7590   3.370   2.832  11.572
 3540W        W 7591   4.103   7.437  11.350
 3541W        W 7592   3.826   4.496  10.014
 3542W        W 7593   1.643   0.405  11.274
 3543W        W 7594   4.827  11.349   1.335
 3544W        W 7595   9.301   9.139   8.459
 3545W        W 7596   2.003   2.038   8.780
 3546W        W 7597   3.021   4.102   0.818
 3547W        W 7598   2.859   3.671   1.027
 3548W        W 7599   6.212   9.958   2.692
 3549W        W 7600   2.188  10.832   9.156
 3550W        W 7601  10.879   6.980   9.463
 3551W        W 7602   5.213   8.537   9.485
 3552W        W 7603  11.117   3.775  10.490
 3553W        W 7604  11.197   8.294  11.206
 3554W        W 7605   0.242   7.551  11.986
 3555W        W 7606   0.354   8.129  10.037
 3556W        W 7607   4.300   5.128   2.079
 3557W        W 7608   6.094   3.657  11.917
 3558W        W 7609   6.571   2.078  11.533
 3559W        W 7610   7.176   3.187   2.502
 3560W        W 7611  10.015   4.391   1.554
 3561W        W 7612  10.231   6.580   0.428
 3562W        W 7613   8.485   3.784  11.930
 3563W        W 7614   4.937   8.418   0.890
 3564W        W 7615   9.970   1.330  11.063
 3565W        W 7616   3.537   6.208  11.993
 3566W        W 7617   2.573   7.072   3.140
 3567W        W 7618   1.482   1.208   8.390
 3568W        W 7619   0.400   5.578   1.052
 3569W        W 7620   6.006   8.411   0.758
 3570W        W 7621  10.315   4.737   2.318
 3571W        W 7622   7.695   6.670   1.588
 3572W        W 7623   6.438   8.563   3.602
 3573W        W 7624   1.712   8.354   0.917
 3574W        W 7625   0.562   7.064   8.697
 3575W        W 7626   1.385   1.398   8.844
 3576W        W 7627   9.545   6.116   8.516
 3577W        W 7628  11.355   1.561   9.235
 3578W        W 7629   5.878   5.072   2.720
 3579W        W 7630   7.600  11.462   0.154
 3580W        W 7631   1.407  10.743   1.337
 3581W        W 7632   7.946   1.499   1.008
 3582W        W 7633   2.351  10.445   3.516
 3583W        W 7634   0.403   8.450   3.542
 3584W        W 7635  11.190  11.331   8.794
 3585W        W 7636   6.128   7.643   2.221
 3586W        W 7637  11.043   2.283   0.870
 3587W        W 7638   9.472  11.185   1.839
 3588W        W 7639   9.651   6.639   3.607
 3589W        W 7640   3.348   0.428   0.494
 3590W        W 7641   6.589   5.327   1.355
 3591W        W 7642  10.144   6.934   2.251
 3592W        W 7643   6.766   1.195  10.074
 3593W        W 7644   4.490   9.553   8.915
 3594W        W 7645   3.299   0.055   3.462
 3595W        W 7646   2.849   6.708   0.531
 3596W        W 7647   1.311   1.689   2.287
 3597W        W 7648   0.831   7.093   9.993
 3598W        W 7649   2.965   7.044  10.794
 3599W        W 7650   3.814   2.597  11.351
 3600W        W 7651   8.984  10.473   9.435
 3601W        W 7652   0.302   3.411   3.153
 3602W        W 7653   2.118   8.566   0.657
 3603W        W 7654   5.227   9.872   1.145
 3604W        W 7655   3.757   8.412  10.244
 3605W        W 7656   5.337  11.325   1.253
 3606W        W 7657   3.388   9.983   3.227
 3607W        W 7658   3.827   4.366  11.820
 3608W        W 7659   2.439   7.977  11.301
 3609W        W 7660   5.488   7.009   9.557
 3610W        W 7661   6.252   5.864   8.642
 3611W        W 7662  10.274   9.413   9.001
 3612W        W 7663   4.675   6.431  10.823
 3613W        W 7664   2.902   5.274  10.867
 3614W        W 7665   3.074   2.110   3.370
 3615W        W 7666  10.029   5.684   9.687
 3616W        W 7667   3.647   4.345  10.964
 3617W        W 7668   6.578   1.216   0.893
 3618W        W 7669  10.340   1.079   1.305
 3619W        W 7670   2.110   8.104   9.009
 3620W        W 7671   2.182   7.144   2.788
 3621W        W 7672   0.728   4.675   2.450
 3622W        W 7673   3.181   5.781  11.502
 3623W        W 7674   7.549   1.525   2.903
 3624W        W 7675   3.698   7.744   2.772
 3625W        W 7676   6.238   0.063  11.254
 3626W        W 7677   1.943   6.308  11.335
 3627W        W 7678   5.246   4.246   0.527
 3628W        W 7679   5.453   3.349   0.809
 3629W        W 7680   3.997   0.675   3.463
 3630W        W 7681   7.695   6.960   2.113
 3631W        W 7682   2.652   9.359   9.413
 3632W        W 7683   2.716   3.777  11.458
 3633W        W 7684   8.441   5.307   9.064
 3634W        W 7685   5.746   6.538   9.675
 3635W        W 7686   8.396   4.184   1.788
 3636W        W 7687   8.088   8.146  10.882
 3637W        W 7688   2.333   8.636   9.797
 3638W        W 7689   4.821   1.724   0.959
 3639W        W 7690   5.340   9.888   8.894
 3640W        W 7691   3.684  10.144   1.643
 3641W        W 7692   5.483  10.180   2.055
 3642W        W 7693   9.743   6.114   2.593
 3643W        W 7694   6.910   9.366   1.513
 3644W        W 7695   0.296   4.119   0.871
 3645W        W 7696  10.695   6.620  11.115
 3646W        W 7697   6.518   1.989   7.995
 3647W        W 7698   1.930   1.399   8.862
 3648W        W 7699   7.434   4.001   2.365
 3649W        W 7700   3.175  10.037  10.371
 3650W        W 7701   4.821   2.003   0.410
 3651W        W 7702  10.143   5.700   2.982
 3652W        W 7703   4.134   0.482   0.905
 3653W        W 7704   7.872   6.251   1.900
 3654W        W 7705  10.946   6.694   8.572
 3655W        W 7706   0.661   9.288   0.285
 3656W        W 7707   6.158   3.207   9.864
 3657W        W 7708   0.935   0.169   3.237
 3658W        W 7709   2.101   2.398   1.392
 3659W        W 7710  10.831   0.318  10.825
 3660W        W 7711   8.571   4.135   1.320
 3661W        W 7712  10.565   4.980   0.923
 3662W        W 7713   5.886   7.996   9.067
 3663W        W 7714   1.749   7.374   1.886
 3664W        W 7715   1.159   3.322   1.921
 3665W        W 7716   3.577   1.390   2.398
 3666W        W 7717   8.189   2.179  10.139
 3667W        W 7718   4.593   4.835   1.508
 3668W        W 7719   0.285  10.558  10.373
 3669W        W 7720   1.059   3.299   2.683
 3670W        W 7721   9.902   7.671  11.287
 3671W        W 7722   8.612  10.407   3.155
 3672W        W 7723   6.512   4.836  11.483
 3673W        W 7724   8.121   3.595   3.319
 3674W        W 7725  10.567   2.741   3.482
 3675W        W 7726   5.549   6.162   0.144
 3676W        W 7727   1.890   6.178  10.254
 3677W        W 7728   7.344  11.023   0.858
 3678W        W 7729   1.904   9.813  10.814
 3679W        W 7730   5.173   8.860  11.237
 3680W        W 7731   3.882   9.934  11.740
 3681W        W 7732   7.032   4.384   3.923
 3682W        W 7733   2.577   1.686  10.884
 3683W        W 7734   6.861  11.328  10.446
 3684W        W 7735  11.240  10.342   1.151
 3685W        W 7736   5.493   4.061  11.244
 3686W        W 7737   7.108   9.658   9.328
 3687W        W 7738   4.367   4.320   2.141
 3688W        W 7739  10.249   5.299   2.673
 3689W        W 7740   2.256   0.722  11.714
 3690W        W 7741   8.084   9.632  10.437
 3691W        W 7742   1.765   2.283   3.208
 3692W        W 7743   6.034   3.228   1.679
 3693W        W 7744  10.870   1.729   9.258
 3694W        W 7745   2.252   6.167   1.465
 3695W        W 7746   0.191  11.356   0.997
 3696W        W 7747   9.587   5.366   0.760
 3697W        W 7748   4.225   1.890  11.217
 3698W        W 7749  10.094   3.861   1.621
 3699W        W 7750   3.192  10.454   1.354
 3700W        W 7751   4.889   8.622   9.091
 3701W        W 7752   8.748   8.302   3.491
 3702W        W 7753   3.046   3.095  10.436
 3703W        W 7754   5.346  11.155   0.321
 3704W        W 7755   8.431   6.726  11.331
 3705W        W 7756   6.723   7.138   0.797
 3706W        W 7757   6.092   1.607   9.949
 3707W        W 7758  10.114   8.473   1.466
 3708W        W 7759   7.974   0.975   9.585
 3709W        W 7760   1.165   1.480  10.320
 3710W        W 7761   5.944   9.385   1.644
 3711W        W 7762  11.405  11.498  11.352
 3712W        W 7763   1.160   4.255   2.691
 3713W        W 7764   3.128   1.291   0.535
 3714W        W 7765   9.462   3.896   0.887
 3715W        W 7766   3.100   8.503   1.940
 3716W        W 7767   3.761   4.701   3.122
 3717W        W 7768   6.192   0.803  10.820
 3718W        W 7769   4.408   1.826   2.126
 3719W        W 7770   1.333   6.575   2.693
 3720W        W 7771  10.966  10.773   2.018
 3721W        W 7772   3.031   4.639  11.987
 3722W        W 7773   6.465   9.563  10.977
 3723W        W 7774   4.071   8.663   9.902
 3724W        W 7775  10.284   3.234  11.870
 3725W        W 7776  10.125  11.484  11.836
 3726W        W 7777   4.195   8.296   0.373
 3727W        W 7778   9.929   2.199   0.312
 3728W        W 7779   1.184   4.057   9.831
 3729W        W 7780   9.460   6.760  11.259
 3730W        W 7781   1.275   7.111   1.862
 3731W        W 7782   2.885   2.319   9.490
 3732W        W 7783   3.007   0.568   9.910
 3733W        W 7784   4.257   7.238  10.879
 3734W        W 7785   0.834  10.905   2.906
 3735W        W 7786   5.495   6.582   2.683
 3736W        W 7787   6.073   4.650  11.723
 3737W        W 7788   7.173   3.683   0.288
 3738W        W 7789  10.202   6.681   9.988
 3739W        W 7790   9.028   9.589   2.733
 3740W        W 7791   0.305   2.447   1.951
 3741W        W 7792   3.767   9.998   2.527
 3742W        W 7793  11.493   5.197   9.419
 3743W        W 7794  11.476   5.290   1.004
 3744W        W 7795   4.967   5.203  10.313
 3745W        W 7796   7.118   2.899  10.318
 3746W        W 7797   9.816   0.522   2.644
 3747W        W 7798   3.519   1.329  11.692
 3748W        W 7799  11.038   8.589  11.860
 3749W        W 7800   4.160   2.342   1.281
 3750W        W 7801   9.937   6.572   9.543
 3751W        W 7802   0.288   1.281   3.315
 3752W        W 7803   4.116   3.091   0.750
 3753W        W 7804   9.956   6.688  11.971
 3754W        W 7805   1.666   1.459   1.309
 3755W        W 7806  10.705   4.033   1.625
 3756W        W 7807   0.340   7.502   1.010
 3757W        W 7808  11.449   0.447   1.818
 3758W        W 7809   0.189   3.050   0.913
 3759W        W 7810   3.713  11.125   1.668
 3760W        W 7811   2.030   6.874   0.314
 3761W        W 7812  11.431   3.903   9.567
 3762W        W 7813  10.277   6.086  10.349
 3763W        W 7814   1.453   7.826   1.407
 3764W        W 7815  11.092   1.703  11.320
 3765W        W 7816   2.277   8.133   1.667
 3766W        W 7817   3.699   7.435   2.377
 3767W        W 7818   8.014  10.258   1.040
 3768W        W 7819   1.360   5.593   2.259
 3769W        W 7820   7.354   8.554   0.902
 3770W        W 7821   5.268   9.026   2.778
 3771W        W 7822   6.036   3.092   8.129
 3772W        W 7823   6.757   3.669  10.424
 3773W        W 7824   5.991   4.205   8.945
 3774W        W 7825   9.471   1.892  11.910
 3775W        W 7826   6.436   8.109   3.825
 3776W        W 7827   9.142   3.337   0.928
 3777W        W 7828   4.221   9.279   2.178
 3778W        W 7829   4.776  10.884  10.757
 3779W        W 7830   0.844   4.619   1.465
 3780W        W 7831   4.276   2.317  11.497
 3781W        W 7832  10.010   6.395   8.526
 3782W        W 7833   1.024   7.510  11.390
 3783W        W 7834  10.129   9.735   2.190
 3784W        W 7835   6.764   6.434   1.222
 3785W        W 7836   6.149   6.538  11.186
 3786W        W 7837   2.422   9.372   1.163
 3787W        W 7838   5.539   9.407  10.787
 3788W        W 7839   1.834   0.825   9.541
 3789W        W 7840   5.708   8.849  10.819
 3790W        W 7841   6.162   0.943   9.099
 3791W        W 7842   6.996   9.567  10.838
 3792W        W 7843   5.646   1.828  10.560
 3793W        W 7844   1.796   3.570   9.923
 3794W        W 7845   4.744   1.132   1.683
 3795W        W 7846   7.424  10.222   8.541
 3796W        W 7847   4.690   7.107   1.039
 3797W        W 7848   6.538   2.877   9.899
 3798W        W 7849   9.955   6.654  11.329
 3799W        W 7850  10.810   4.670   2.293
 3800W        W 7851   5.493   4.609   1.434
 3801W        W 7852   0.169   6.049   8.959
 3802W        W 7853   7.531  10.801   9.300
 3803W        W 7854   7.978   9.512   2.347
 3804W        W 7855   2.242  10.925   3.334
 3805W        W 7856   3.650   4.157   0.239
 3806W        W 7857   0.375   8.847  10.641
 3807W        W 7858   8.607   2.723   0.030
 3808W        W 7859   9.834   6.602   1.366
 3809W        W 7860   5.135   0.174   9.502
 3810W        W 7861  11.480   8.188   1.405
 3811W        W 7862  10.017   7.092   1.387
 3812W        W 7863   7.723   5.897  10.637
 3813W        W 7864   6.281   3.575   8.216
 3814W        W 7865   5.097   6.748   3.020
 3815W        W 7866   0.635   1.296   1.500
 3816W        W 7867   4.221  10.472   2.896
 3817W        W 7868  10.928   7.724   0.100
 3818W        W 7869   1.856   1.482  11.885
 3819W        W 7870   7.228   1.251  10.475
 3820W        W 7871  10.075   8.398   3.236
 3821W        W 7872   7.944  11.460   9.507
 3822W        W 7873  10.312   8.482  11.098
 3823W        W 7874   2.399   8.924   0.426
 3824W        W 7875   1.226   4.620   3.496
 3825W        W 7876   5.472   0.838  10.361
 3826W        W 7877   1.962  10.285   0.574
 3827W        W 7878   9.264   7.135   0.807
 3828W        W 7879   2.391   1.962   1.335
 3829W        W 7880   2.713  10.568   1.498
 3830W        W 7881   2.313   7.643   9.035
 3831W        W 7882   4.841   9.027   0.396
 3832W        W 7883   1.665   3.156  10.618
 3833W        W 7884   6.029   9.250  10.913
 3834W        W 7885   8.378   2.934   1.786
 3835W        W 7886   3.446   3.387   2.248
 3836W        W 7887   0.883   0.484  11.915
 3837W        W 7888  10.757   4.543   3.229
 3838W        W 7889   1.769   7.891   1.846
 3839W        W 7890   4.632   9.818   1.780
 3840W        W 7891  11.138   5.100   0.044
 3841W        W 7892   1.648   1.769   9.083
 3842W        W 7893   5.034   2.512   9.836
 3843W        W 7894  10.424   0.979   8.770
 3844W        W 7895   2.708   1.410   2.333
 3845W        W 7896   4.752   3.270  11.758
 3846W        W 7897   5.114   8.168  10.655
 3847W        W 7898   7.726   4.293   0.261
 3848W        W 7899   8.983   8.381   0.373
 3849W        W 7900   9.586   0.287   9.869
 3850W        W 7901   4.225   7.325   1.741
 3851W        W 7902   8.739   8.541   9.039
 3852W        W 7903   3.851   7.081  10.627
 3853W        W 7904   5.102   6.025   0.491
 3854W        W 7905   6.757   8.040   9.922
 3855W        W 7906   9.704   7.659   1.820
 3856W        W 7907   6.541   1.905   3.259
 3857W        W 7908  11.055   9.398   2.599
 3858W        W 7909   2.385   1.462  10.415
 3859W        W 7910   0.907   1.404   0.568
 3860W        W 7911   4.183   0.012   3.120
 3861W        W 7912   0.102   8.909   3.546
 3862W        W 7913   0.476   6.479   2.621
 3863W        W 7914   5.668   1.364  10.344
 3864W        W 7915   3.160   3.717   3.279
 3865W        W 7916   7.125   3.569   9.584
 3866W        W 7917   8.651   1.847   2.302
 3867W        W 7918   1.785   2.583   2.747
 3868W        W 7919   3.236   0.980   1.716
 3869W        W 7920   2.580   2.720   2.916
 3870W        W 7921  10.355   6.995   1.781
 3871W        W 7922  10.012   4.334   2.152
 3872W        W 7923   0.944   5.965   2.168
 3873W        W 7924   0.843   1.061   9.503
 3874W        W 7925   5.633   5.097   1.266
 3875W        W 7926   6.818   2.412   1.402
 3876W        W 7927   7.051   6.688  10.529
 3877W        W 7928   0.082   7.199   2.145
 3878W        W 7929   2.658   9.661   0.787
 3879W        W 7930   4.224   5.220   0.038
 3880W        W 7931  11.052   2.832  11.261
 3881W        W 7932   1.202   5.642  11.589
 3882W        W 7933   5.144   7.735  11.014
 3883W        W 7934   4.411   2.087   1.669
 3884W        W 7935   5.708   8.552   2.827
 3885W        W 7936   9.423   5.658  10.832
 3886W        W 7937   4.103   7.080   9.757
 3887W        W 7938  11.290   3.510   8.669
 3888W        W 7939   8.676   2.821  10.523
 3889W        W 7940   8.485   8.583   8.574
 3890W        W 7941   4.918   2.489   0.208
 3891W        W 7942   3.951   7.961   9.423
 3892W        W 7943   3.229   2.879   2.216
 3893W        W 7944  10.798  10.158  10.526
 3894W        W 7945   2.887  10.020   9.178
 3895W        W 7946   1.220   6.602   3.224
 3896W        W 7947   7.699   0.271   3.390
 3897W        W 7948   3.379   6.654  11.217
 3898W        W 7949  10.908   1.781   3.204
 3899W        W 7950   4.074   1.312   2.351
 3900W        W 7951   6.617   2.224   8.458
 3901W        W 7952   3.787   7.223   1.491
 3902W        W 7953   1.120   6.981   1.366
 3903W        W 7954   3.711  11.473  10.513
 3904W        W 7955   2.232   4.622  10.292
 3905W        W 7956   3.862   1.362   1.433
 3906W        W 7957   7.868   8.575   0.899
 3907W        W 7958   5.425   1.145   1.150
 3908W        W 7959   0.033   3.635   1.556
 3909W        W 7960   0.453   5.387   9.337
 3910W        W 7961   5.221  10.944  11.059
 3911W        W 7962   7.029   9.485  11.729
 3912W        W 7963   1.844   0.312   2.210
 3913W        W 7964  11.272   2.526   9.303
 3914W        W 7965   0.798   1.775   0.966
 3915W        W 7966   7.099   2.134  11.879
 3916W        W 7967   5.305   5.140   0.477
 3917W        W 7968   1.823   3.880  10.985
 3918W        W 7969   0.265   1.306   9.462
 3919W        W 7970   5.871   9.636   1.190
 3920W        W 7971   5.048   3.056   2.699
 3921W        W 7972   1.223   2.298  11.190
 3922W        W 7973   7.970   4.662   0.674
 3923W        W 7974   9.637   2.371  11.935
 3924W        W 7975  11.396   6.599   3.510
 3925W        W 7976   2.767   0.748   9.493
 3926W        W 7977  10.825   3.604   8.886
 3927W        W 7978   8.566   3.855   3.187
 3928W        W 7979   5.271   2.752   0.485
 3929W        W 7980   2.171   1.308  11.522
 3930W        W 7981   2.403   8.363   2.541
 3931W        W 7982   0.245   0.783  11.467
 3932W        W 7983  11.124   1.624  10.810
 3933W        W 7984   1.474   1.868  10.462
 3934W        W 7985   2.894   6.927   9.049
 3935W        W 7986   3.071   8.305   2.399
 3936W        W 7987  10.617   7.887   3.471
 3937W        W 7988   3.496  10.591   1.787
 3938W        W 7989   2.404   9.863   1.223
 3939W        W 7990   0.753   1.171  10.802
 3940W        W 7991  11.217  10.588  11.940
 3941W        W 7992  11.242   7.868  11.483
 3942W        W 7993   5.304  10.002   2.668
 3943W        W 7994   6.113   4.761   0.732
 3944W        W 7995  11.474   4.898   1.315
 3945W        W 7996   6.546   0.839   8.760
 3946W        W 7997   3.594   6.161   0.492
 3947W        W 7998   8.483   4.016   9.968
 3948W        W 7999   2.856   9.116   1.194
 3949W        W 8000   9.898   2.934   8.399
 3950W        W 8001   8.408   4.283  11.819
 3951W        W 8002   8.925   2.632   2.177
 3952W        W 8003   7.613   0.744  11.126
 3953W        W 8004   8.237   6.452  10.079
 3954W        W 8005   9.151   1.277   9.011
 3955W        W 8006   8.317   6.974  10.775
 3956W        W 8007   9.011   6.918   8.112
 3957W        W 8008   2.836   0.370   3.535
 3958W        W 8009   9.517   6.255   9.064
 3959W        W 8010  10.324   9.425   1.385
 3960W        W 8011   8.957   8.092   8.998
 3961W        W 8012   4.997   4.700   1.236
 3962W        W 8013   2.826   5.930  10.182
 3963W        W 8014   6.259   4.285   0.482
 3964W        W 8015   5.604   3.878   9.069
 3965W        W 8016   3.649   2.520   2.071
 3966W        W 8017   2.618   9.480   3.101
 3967W        W 8018   0.529   9.842  11.053
 3968W        W 8019   7.859   2.422  10.490
 3969W        W 8020   4.197   9.982   8.864
 3970W        W 8021   2.682   0.572  10.333
 3971W        W 8022   3.454  10.138  11.479
 3972W        W 8023   9.481   1.627   0.356
 3973W        W 8024   7.735   1.259   9.964
 3974W        W 8025   3.608  10.307  10.957
 3975W        W 8026   7.727  11.080  10.660
 3976W        W 8027   4.184   3.468   0.399
 3977W        W 8028   7.515  10.360   9.562
 3978W        W 8029   1.621  10.494  11.693
 3979W        W 8030   7.607   6.134   3.803
 3980W        W 8031   9.893   2.761   2.285
 3981W        W 8032   6.674   9.936   1.348
 3982W        W 8033   6.668   3.364   9.789
 3983W        W 8034  11.314   9.021   9.595
 3984W        W 8035   2.792  10.037   1.533
 3985W        W 8036   7.215   8.466   2.376
 3986W        W 8037   9.159   5.488  10.088
 3987W        W 8038  10.701   2.350   1.265
 3988W        W 8039   5.634   4.864  11.928
 3989W        W 8040   6.114   2.330   3.218
 3990W        W 8041   0.642   5.865   9.944
 3991W        W 8042   4.639   6.834   0.205
 3992W        W 8043   2.213   3.918   1.841
 3993W        W 8044   4.514  10.785   8.814
 3994W        W 8045   0.974   6.651  10.391
 3995W        W 8046   9.253   9.009  10.338
 3996W        W 8047   0.433   0.054   0.586
 3997W        W 8048   8.576   7.959   2.250
 3998W        W 8049   1.451   9.345  10.066
 3999W        W 8050   4.331  10.396   0.541
 4000W        W 8051   4.558   0.859   1.276
 4001W        W 8052   0.306   0.698   8.689
 4002W        W 8053   7.615   9.038   1.135
 4003W        W 8054   5.408   0.411   3.003
 4004W        W 8055   0.040   5.269   2.309
 4005W        W 8056   0.831   6.263  10.897
 4006W        W 8057   9.698   9.602   0.231
 4007W        W 8058   5.247  11.401  11.277
 4008W        W 8059   0.807   4.625   1.963
 4009W        W 8060   7.649   7.564  10.416
 4010W        W 8061   8.226   0.368   3.491
 4011W        W 8062   4.460   7.119   9.350
 4012W        W 8063   4.168  10.076   1.863
 4013W        W 8064   3.106   3.634  10.054
 4014W        W 8065   9.516   0.690   3.541
 4015W        W 8066   3.359  10.989  11.682
 4016W        W 8067   1.037   5.127   0.309
 4017W        W 8068   7.852   2.404  11.487
 4018W        W 8069  10.861   5.003   0.478
 4019W        W 8070   5.028   0.440   2.179
 4020W        W 8071   6.318  11.259   1.140
 4021W        W 8072   1.914  10.865   9.701
 4022W        W 8073   3.752   4.996   1.748
 4023W        W 8074   8.773  10.527   3.606
 4024W        W 8075   6.039  10.010   0.856
 4025W        W 8076   3.544  10.651  11.343
 4026W        W 8077   5.029   3.425  10.555
 4027W        W 8078  10.861   7.714   3.032
 4028W        W 8079   3.115   7.409   0.369
 4029W        W 8080   9.585   4.939   4.375
 4030W        W 8081   4.802   7.976  10.277
 4031W        W 8082   3.321   2.713   3.240
 4032W        W 8083   0.558   0.854   1.716
 4033W        W 8084   7.474   9.852   3.202
 4034W        W 8085   2.885   4.517  10.412
 4035W        W 8086   5.112   8.990   2.034
 4036W        W 8087   5.216   3.208   8.749
 4037W        W 8088  10.298   6.936   9.550
 4038W        W 8089   9.122   3.708   9.497
 4039W        W 8090   8.812   1.306   1.297
 4040W        W 8091   2.793   1.272   9.497
 4041W        W 8092   2.109   2.892   3.028
 4042W        W 8093   5.822  10.597  10.500
 4043W        W 8094   3.750   2.633   9.835
 4044W        W 8095  10.879   3.278   9.909
 4045W        W 8096  11.084   5.083   2.423
 4046W        W 8097   7.991   1.058   3.478
 4047W        W 8098  11.015   3.126  10.399
 4048W        W 8099  11.398   2.323   0.402
 4049W        W 8100   3.327   9.349  11.063
 4050W        W 8101   5.137   1.588   9.240
 4051W        W 8102   9.547   7.535  10.326
 4052W        W 8103   4.217   2.844  11.537
 4053W        W 8104   6.591   0.433   1.370
 4054W        W 8105   0.118   8.568   1.074
 4055W        W 8106   0.052   2.346  10.403
 4056W        W 8107   0.500   3.848   3.371
 4057W        W 8108   2.652   6.192   3.326
 4058W        W 8109   2.857   2.029   1.165
 4059W        W 8110   2.859   3.340   3.512
 4060W        W 8111   8.841   0.372   1.847
 4061W        W 8112   0.531   9.329   3.481
 4062W        W 8113   8.934   5.132   2.271
 4063W        W 8114   6.157   3.079   3.734
 4064W        W 8115  11.285   5.650   9.687
 4065W        W 8116   9.158   8.088  11.936
 4066W        W 8117   7.654  11.252  11.137
 4067W        W 8118   1.794   2.466  10.886
 4068W        W 8119   2.395   0.157   3.285
 4069W        W 8120   3.308   9.644  11.476
 4070W        W 8121   6.654   7.018   0.310
 4071W        W 8122   1.302   7.635   1.838
 4072W        W 8123   9.509   8.668   8.552
 4073W        W 8124  10.034   4.858   2.782
 4074W        W 8125  10.155  11.419   0.651
 4075W        W 8126   9.646   4.072   1.337
 4076W        W 8127   4.608   2.120   8.629
 4077W        W 8128   6.693   0.412   3.190
 4078W        W 8129   9.704   1.483   0.805
 4079W        W 8130   4.640  11.485   9.547
 4080W        W 8131   6.039   1.310   2.169
 4081W        W 8132   9.828   7.491  10.780
 4082W        W 8133   7.931   5.003  11.539
 4083W        W 8134   7.913   9.471   0.190
 4084W        W 8135   5.634   5.696   1.900
 4085W        W 8136   8.227   2.276   0.899
 4086W        W 8137   2.800   9.835   3.441
 4087W        W 8138   6.748   8.969   0.828
 4088W        W 8139   6.423   9.859   3.164
 4089W        W 8140   5.442   5.899   1.468
 4090W        W 8141   8.493   8.224   0.203
 4091W        W 8142   6.389   2.271   1.875
 4092W        W 8143   0.757   3.286   0.402
 4093W        W 8144   9.574   8.940   8.980
 4094W        W 8145   8.312   3.032   9.937
 4095W        W 8146  11.071   2.900   9.608
 4096W        W 8147   4.671   2.974  11.356
 4097W        W 8148   6.591  11.339  11.845
 4098W        W 8149   9.849   2.446   8.580
 4099W        W 8150  10.423   0.370  11.681
 4100W        W 8151   0.768   4.330   9.993
 4101W        W 8152  11.275   4.847   0.809
 4102W        W 8153   8.426   2.069   2.764
 4103W        W 8154   5.507   9.745   3.239
 4104W        W 8155  10.522  10.881   1.373
 4105W        W 8156   9.000   8.671  10.737
 4106W        W 8157  11.360   8.741  11.373
 4107W        W 8158   7.064  10.090   9.586
 4108W        W 8159   0.184   0.743   3.399
 4109W        W 8160   4.914   1.859   8.282
 4110W        W 8161   7.855   1.155   2.221
 4111W        W 8162   8.032  11.288  11.902
 4112W        W 8163   6.433   6.418   9.039
 4113W        W 8164  10.602   9.536   3.218
 4114W        W 8165  11.019   4.700   2.797
 4115W        W 8166   0.002   9.816   2.235
 4116W        W 8167   8.983   2.181   9.553
 4117W        W 8168   4.585  10.993   0.402
 4118W        W 8169   7.101   2.301   2.488
 4119W        W 8170   5.744   1.264  11.355
 4120W        W 8171  10.482   0.767   3.649
 4121W        W 8172   0.006   6.176   3.168
 4122W        W 8173   5.249   5.493   1.272
 4123W        W 8174   2.665   6.963   1.834
 4124W        W 8175   5.094   7.615  10.028
 4125W        W 8176  10.885   5.451   8.600
 4126W        W 8177   0.815   5.619  10.439
 4127W        W 8178   5.553   9.543   2.761
 4128W        W 8179   3.102   8.467  10.918
 4129W        W 8180   5.561  10.208   0.898
 4130W        W 8181   1.392   1.906   1.202
 4131W        W 8182   4.150   7.556   1.305
 4132W        W 8183   3.820   0.008   1.281
 4133W        W 8184   6.142   0.850   3.000
 4134W        W 8185  11.144  10.530   1.612
 4135W        W 8186   0.903   0.544   3.695
 4136W        W 8187  10.000   3.288   0.331
 4137W        W 8188   4.275   9.083  11.232
 4138W        W 8189  11.127   3.917   0.123
 4139W        W 8190   3.802   3.126   0.303
 4140W        W 8191   0.129   3.134   1.800
 4141W        W 8192   6.490   7.355   2.407
 4142W        W 8193   4.771   6.968   3.351
 4143W        W 8194   4.528  10.304  10.329
 4144W        W 8195   9.558   2.463  10.174
 4145W        W 8196   0.749   8.762   3.286
 4146W        W 8197   9.463   6.230   1.476
 4147W        W 8198   6.992   1.791   9.282
 4148W        W 8199  11.243   3.049  11.675
 4149W        W 8200   8.110   8.122   0.822
 4150W        W 8201   6.629   1.577   2.871
 4151W        W 8202   9.037   2.244   9.046
 4152W        W 8203   8.759   4.609  11.322
 4153W        W 8204   2.300   1.799  10.052
 4154W        W 8205   1.927   5.332   9.911
 4155W        W 8206   1.070   2.319   0.232
 4156W        W 8207  11.207   6.908   9.851
 4157W        W 8208   2.109  10.920  11.307
 4158W        W 8209   7.927   4.052   1.691
 4159W        W 8210   0.908   8.434   2.819
 4160W        W 8211   8.594   1.879  11.489
 4161W        W 8212   6.945   4.677  10.237
 4162W        W 8213   7.017   1.290   9.419
 4163W        W 8214  11.240   1.330   1.890
 4164W        W 8215   4.352   5.613   1.876
 4165W        W 8216   9.114   8.517   1.794
 4166W        W 8217   5.095   9.533   2.965
 4167W        W 8218   6.017   2.887   3.269
 4168W        W 8219   2.196   7.479   0.503
 4169W        W 8220   8.271   2.703   2.711
 4170W        W 8221   8.921  11.276   2.674
 4171W        W 8222   2.546   9.002   8.546
 4172W        W 8223   4.925   2.928  10.529
 4173W        W 8224   8.855   9.506   9.772
 4174W        W 8225   5.229   7.503   9.567
 4175W        W 8226   9.228   6.088  11.768
 4176W        W 8227   8.012   8.719   9.986
 4177W        W 8228   5.508   8.067   0.260
 4178W        W 8229   9.535   1.528   9.809
 4179W        W 8230   6.098   3.808   1.006
 4180W        W 8231   1.146   7.435   3.165
 4181W        W 8232   3.756   8.991   3.232
 4182W        W 8233   4.858   1.003   0.389
 4183W        W 8234   2.467   7.997   9.380
 4184W        W 8235   2.182   8.436   1.149
 4185W        W 8236   2.047   4.260   9.376
 4186W        W 8237   4.680   5.273   0.255
 4187W        W 8238   1.399   8.644   2.818
 4188W        W 8239   4.396   9.440   2.643
 4189W        W 8240  11.308   7.781  10.985
 4190W        W 8241   6.104   5.905   1.815
 4191W        W 8242   0.356   8.048  11.769
 4192W        W 8243  10.878   8.128  11.719
 4193W        W 8244  10.841   1.497  10.109
 4194W        W 8245   8.403   9.402   9.546
 4195W        W 8246  11.428   4.386   0.646
 4196W        W 8247   5.920   4.637   9.209
 4197W        W 8248  10.479   5.081   1.792
 4198W        W 8249   5.204   3.958   0.934
 4199W        W 8250   4.678   6.952  10.883
 4200W        W 8251   1.195  10.544   3.621
 4201W        W 8252   5.411  10.345  10.277
 4202W        W 8253   7.679   2.723   9.515
 4203W        W 8254   6.651   0.925   0.467
 4204W        W 8255   8.130   8.684   1.977
 4205W        W 8256   0.795   1.065  11.309
 4206W        W 8257   1.569   0.858   0.577
 4207W        W 8258   8.546   5.583  11.406
 4208W        W 8259   4.548   7.523  10.560
 4209W        W 8260   1.480   3.048   9.039
 4210W        W 8261   2.557   8.621  11.000
 4211W        W 8262   6.345   2.339   0.360
 4212W        W 8263   9.283   4.196   9.363
 4213W        W 8264  11.235   5.362   1.448
 4214W        W 8265   4.356   6.665   9.983
 4215W        W 8266   9.641   1.029   1.692
 4216W        W 8267   9.131   8.069   0.804
 4217W        W 8268  10.456  10.322  11.032
 4218W        W 8269   9.826   9.565  11.645
 4219W        W 8270  10.494   8.482   9.120
 4220W        W 8271   3.023  10.947   1.317
 4221W        W 8272   0.752   3.826   9.934
 4222W        W 8273  10.199   7.647   1.119
 4223W        W 8274   9.106   1.729   8.755
 4224W        W 8275   9.500   8.431   2.152
 4225W        W 8276   7.409   7.574  10.868
 4226W        W 8277   0.861   9.605   2.167
 4227W        W 8278   1.955   9.587   1.202
 4228W        W 8279   4.181   6.244   9.752
 4229W        W 8280   0.523   2.606   1.511
 4230W        W 8281   5.904   5.725   2.315
 4231W        W 8282   5.061   0.481   8.942
 4232W        W 8283   7.728  10.567   0.252
 4233W        W 8284   7.681   9.027   2.576
 4234W        W 8285   7.425   2.776   0.895
 4235W        W 8286   8.233   1.323  11.755
 4236W        W 8287   2.333   8.490   9.307
 4237W        W 8288   7.954  11.310   2.494
 4238W        W 8289   4.239   7.001   1.231
 4239W        W 8290   8.534   0.166   1.475
 4240W        W 8291   9.285   4.493  11.419
 4241W        W 8292  11.329   1.220  11.022
 4242W        W 8293   3.672   1.328   9.638
 4243W        W 8294   9.098   5.797   8.633
 4244W        W 8295   9.992  10.562  11.305
 4245W        W 8296   2.282   7.251  11.548
 4246W        W 8297   4.843   2.119   1.922
 4247W        W 8298   5.237   1.200  10.064
 4248W        W 8299  11.483  10.465   3.299
 4249W        W 8300   1.757   8.402   1.814
 4250W        W 8301   6.034   3.728   3.836
 4251W        W 8302   4.129   4.758   8.663
 4252W        W 8303   8.127   9.425   1.820
 4253W        W 8304   5.853   8.966   0.018
 4254W        W 8305  11.165   4.286  10.339
 4255W        W 8306   4.048   1.481   0.948
 4256W        W 8307  11.398   7.664   1.199
 4257W        W 8308   5.263   8.443  11.530
 4258W        W 8309   4.724   4.314  11.826
 4259W        W 8310   9.990   1.669   0.357
 4260W        W 8311   8.403  10.352   1.392
 4261W        W 8312  10.523  10.823   8.937
 4262W        W 8313   0.496   9.559   2.993
 4263W        W 8314   7.401   4.115   9.137
 4264W        W 8315   1.717   5.975   3.250
 4265W        W 8316   4.303   0.253   0.424
 4266W        W 8317   6.178   7.492  11.272
 4267W        W 8318   7.171   9.134  10.055
 4268W        W 8319   2.906   0.956   2.100
 4269W        W 8320   9.399   8.934   3.570
 4270W        W 8321   2.243   2.810   2.546
 4271W        W 8322  11.229   0.037   0.885
 4272W        W 8323   6.605   3.647   1.913
 4273W        W 8324   6.155   2.496   0.836
 4274W        W 8325   2.008  10.736   0.851
 4275W        W 8326   7.967   4.040  11.906
 4276W        W 8327   7.429  10.917   9.876
 4277W        W 8328  10.954   1.238   9.119
 4278W        W 8329  10.720   6.545   1.781
 4279W        W 8330  10.360   6.036   9.516
 4280W        W 8331   8.347   2.345  11.444
 4281W        W 8332   8.441   1.552   2.692
 4282W        W 8333   3.111   2.131   2.587
 4283W        W 8334   7.571   2.549   3.176
 4284W        W 8335   7.886  10.437   8.509
 4285W        W 8336   4.954   8.989   9.486
 4286W        W 8337   5.052   8.828  11.846
 4287W        W 8338   2.744   2.216   2.972
 4288W        W 8339   6.496   5.910  11.923
 4289W        W 8340   7.567   6.887   0.811
 4290W        W 8341   5.337   0.350  11.512
 4291W        W 8342   9.162   2.798   2.846
 4292W        W 8343   1.810  11.306   2.975
 4293W        W 8344   4.232   9.541  11.989
 4294W        W 8345   8.997   4.111  11.170
 4295W        W 8346   1.771   9.192   2.245
 4296W        W 8347   6.878   9.420   2.436
 4297W        W 8348   8.370   1.587   1.364
 4298W        W 8349   7.019   6.944  11.018
 4299W        W 8350   9.112   3.104   3.240
 4300W        W 8351   3.555   9.332   0.876
 4301W        W 8352   8.386   1.121   2.152
 4302W        W 8353   6.964   4.662   1.233
 4303W        W 8354   1.800   8.868   0.896
 4304W        W 8355   3.617   1.742   1.733
 4305W        W 8356   5.618   1.749  11.462
 4306W        W 8357   4.231   3.184   9.581
 4307W        W 8358   8.556   2.823   8.638
 4308W        W 8359  10.679   2.295  10.532
 4309W        W 8360   6.364  10.624   8.417
 4310W        W 8361   9.355  10.809   9.826
 4311W        W 8362   1.724  10.886   0.018
 4312W        W 8363   2.748   5.643  11.256
 4313W        W 8364   0.132   2.422   9.637
 4314W        W 8365   4.412   8.650  10.946
 4315W        W 8366   9.091   2.405   1.681
 4316W        W 8367   0.565   2.915   1.906
 4317W        W 8368   2.430   2.532   9.629
 4318W        W 8369   2.863  11.483   3.193
 4319W        W 8370   3.631   0.758   0.854
 4320W        W 8371   1.878  10.002  11.775
 4321W        W 8372   1.843  10.603   8.775
 4322W        W 8373   0.992   0.675   9.874
 4323W        W 8374   8.568   5.348   0.800
 4324W        W 8375   6.771   7.488   8.668
 4325W        W 8376  10.412   5.530  11.890
 4326W        W 8377   5.119   7.375   2.280
 4327W        W 8378   1.225   2.638   9.875
 4328W        W 8379  10.039   6.768   4.382
 4329W        W 8380  10.741   5.118   9.015
 4330W        W 8381   4.163   6.449   4.236
 4331W        W 8382   0.687  11.202   8.550
 4332W        W 8383   5.592   8.006  10.717
 4333W        W 8384   8.694   7.124   2.119
 4334W        W 8385  10.961   0.827  10.931
 4335W        W 8386   6.833   6.135   0.242
 4336W        W 8387  10.350  11.482  11.372
 4337W        W 8388   8.479   1.644  10.022
 4338W        W 8389   3.268   3.042   2.691
 4339W        W 8390   3.547   9.054   0.047
 4340W        W 8391   8.593   9.632  10.618
 4341W        W 8392   9.995  11.323  10.532
 4342W        W 8393  10.891   5.067   9.826
 4343W        W 8394   7.142  11.406   9.938
 4344W        W 8395  10.499   6.551   0.863
 4345W        W 8396   5.493  10.951   2.142
 4346W        W 8397   9.910   9.201   0.015
 4347W        W 8398  10.191   7.998  10.935
 4348W        W 8399   0.966  10.593   9.029
 4349W        W 8400  11.430   2.235   2.334
 4350W        W 8401   5.183   1.753   1.746
 4351W        W 8402   0.388   8.502  11.024
 4352W        W 8403   0.489   8.129   2.694
 4353W        W 8404   8.480   7.196   8.895
 4354W        W 8405   8.403   5.159   1.337
 4355W        W 8406   0.321   7.468   0.490
 4356W        W 8407  10.041   7.032   3.575
 4357W        W 8408   3.072   2.588   2.799
 4358W        W 8409   5.631   7.144   0.209
 4359W        W 8410   2.289  10.956   2.796
 4360W        W 8411  11.337   9.089   2.928
 4361W        W 8412   9.336   9.361   1.291
 4362W        W 8413  11.477   4.133  10.729
 4363W        W 8414   0.981   7.974   1.496
 4364W        W 8415   1.674   9.659   3.250
 4365W        W 8416   6.559   3.420  11.832
 4366W        W 8417   4.262   0.363   9.358
 4367W        W 8418   4.148   0.023   1.703
 4368W        W 8419   8.380   4.206  10.426
 4369W        W 8420   7.598   8.574   2.807
 4370W        W 8421  10.362   1.020  10.313
 4371W        W 8422   7.590   6.687   2.940
 4372W        W 8423   6.032   4.572  10.791
 4373W        W 8424  11.457   2.181   2.851
 4374W        W 8425   9.281   6.457   0.552
 4375W        W 8426   9.881   7.900  10.482
 4376W        W 8427  10.616   1.752  11.426
 4377W        W 8428   6.272   6.583  11.676
 4378W        W 8429   6.196   1.395  10.436
 4379W        W 8430   4.540  10.915  11.582
 4380W        W 8431   9.887   8.130   1.966
 4381W        W 8432   6.122   9.186   1.202
 4382W        W 8433   5.540   7.047  10.857
 4383W        W 8434   0.537   7.377  11.427
 4384W        W 8435   0.626   4.238   2.683
 4385W        W 8436   2.031   5.671   8.660
 4386W        W 8437   3.547   1.780   9.871
 4387W        W 8438   5.441   5.650  10.502
 4388W        W 8439   6.406   9.530   1.501
 4389W        W 8440   0.863   4.618   0.972
 4390W        W 8441  10.445   7.412   3.633
 4391W        W 8442   6.266   4.142   2.743
 4392W        W 8443   2.445   2.641  11.044
 4393W        W 8444   1.698   7.399   0.734
 4394W        W 8445   1.677   3.284   0.993
 4395W        W 8446   0.028  10.931   8.941
 4396W        W 8447   7.394  10.038   0.912
 4397W        W 8448   9.357   1.038   2.138
 4398W        W 8449   1.241   4.264   0.501
 4399W        W 8450   5.606   4.358  11.809
 4400W        W 8451   8.470   2.343   9.575
 4401W        W 8452   1.824   1.037   1.576
 4402W        W 8453   8.700   2.138   0.774
 4403W        W 8454   4.511   2.199  10.921
 4404W        W 8455   1.500  11.276   9.047
 4405W        W 8456   9.909   9.151   2.849
 4406W        W 8457   8.454   4.859   0.908
 4407W        W 8458   0.443   0.261  11.756
 4408W        W 8459   5.171   7.747   1.351
 4409W        W 8460  10.467   1.707   2.855
 4410W        W 8461   7.904   6.502   0.774
 4411W        W 8462   5.983   5.247  10.066
 4412W        W 8463   4.659   5.299  11.736
 4413W        W 8464   8.681   2.112   9.980
 4414W        W 8465   1.700  11.307   9.882
 4415W        W 8466  11.487  10.328   9.595
 4416W        W 8467   2.843  11.147  10.311
 4417W        W 8468   4.482   0.274   2.019
 4418W        W 8469   5.717   9.410  10.305
 4419W        W 8470   5.626   0.269   1.375
 4420W        W 8471   7.861   0.994   0.939
 4421W        W 8472   7.754   9.923   8.780
 4422W        W 8473   1.812  10.966   1.618
 4423W        W 8474   1.265   7.988   9.886
 4424W        W 8475   4.476   9.348   3.582
 4425W        W 8476   6.032   6.656   0.842
 4426W        W 8477   8.190   7.055   2.113
 4427W        W 8478   0.323   4.832   2.150
 4428W        W 8479   4.636   9.793  10.256
 4429W        W 8480   0.427   0.260  10.096
 4430W        W 8481  11.226   0.846  11.379
 4431W        W 8482   7.608   9.882   2.362
 4432W        W 8483   5.196  10.012   8.404
 4433W        W 8484   4.073   9.266   8.990
 4434W        W 8485   5.066   2.979   0.064
 4435W        W 8486   3.490   5.977   3.019
 4436W        W 8487  10.369  10.080   0.764
 4437W        W 8488   3.122   5.270  11.351
 4438W        W 8489   0.442  10.850   9.869
 4439W        W 8490   2.300   5.524  11.067
 4440W        W 8491   6.648   0.547  10.697
 4441W        W 8492   1.189   0.515   0.446
 4442W        W 8493   3.321   7.960   1.832
 4443W        W 8494   0.982   2.915   2.174
 4444W        W 8495   2.722   5.567   9.784
 4445W        W 8496   3.502   0.583   1.846
 4446W        W 8497  10.451   1.773   3.465
 4447W        W 8498   7.639   0.398   0.944
 4448W        W 8499  10.762   2.974  10.859
 4449W        W 8500   8.299   1.449   8.967
 4450W        W 8501   7.942   8.694   9.476
 4451W        W 8502   3.371   9.980   9.357
 4452W        W 8503  10.899  10.918  10.549
 4453W        W 8504   0.220   1.944   1.904
 4454W        W 8505   0.520   9.343  10.867
 4455W        W 8506  10.650   2.615   8.708
 4456W        W 8507   6.952  10.399   2.883
 4457W        W 8508   4.580   4.798   0.987
 4458W        W 8509   8.514   3.964  10.854
 4459W        W 8510   8.341   2.154   0.388
 4460W        W 8511   0.816   7.319   2.668
 4461W        W 8512   8.180   3.752   8.640
 4462W        W 8513   3.513   7.604   0.624
 4463W        W 8514   1.626   1.055   9.128
 4464W        W 8515   6.140  10.275   8.723
 4465W        W 8516  11.288   3.790   2.416
 4466W        W 8517  10.410   0.018  10.247
 4467W        W 8518   8.476   8.101   1.165
 4468W        W 8519   0.050   9.500  11.782
 4469W        W 8520   5.263  10.365   1.385
 4470W        W 8521   5.596  10.448  11.727
 4471W        W 8522   2.875   9.574   0.332
 4472W        W 8523   8.150   2.766   0.313
 4473W        W 8524   1.418   4.654   2.891
 4474W        W 8525   2.845   6.404   9.935
 4475W        W 8526  10.821  10.895  11.860
 4476W        W 8527   8.381   9.478   8.504
 4477W        W 8528   9.447   5.342  11.254
 4478W        W 8529   8.957   5.222   3.281
 4479W        W 8530   3.409   2.207   1.714
 4480W        W 8531  10.508  10.873   2.741
 4481W        W 8532  10.412  11.296   9.768
 4482W        W 8533   1.285   4.755  10.325
 4483W        W 8534   2.651   0.045  11.277
 4484W        W 8535   8.142   2.739  11.778
 4485W        W 8536   1.342   6.997  11.059
 4486W        W 8537   1.487   6.292  11.688
 4487W        W 8538   2.175   5.783  11.878
 4488W        W 8539  11.348   9.012  11.793
 4489W        W 8540  10.039   2.956   2.795
 4490W        W 8541   4.503   2.982   3.094
 4491W        W 8542   9.971   3.179   9.231
 4492W        W 8543  10.893   3.140   1.473
 4493W        W 8544   9.199   3.645  11.255
 4494W        W 8545   3.498   2.302  11.073
 4495W        W 8546   7.986   0.297   9.920
 4496W        W 8547   2.108   0.862   9.111
 4497W        W 8548   1.919   3.136   9.642
 4498W        W 8549  10.269  11.268   1.146
 4499W        W 8550   6.661  11.345   1.975
 4500W        W 8551   4.069   2.997   9.124
 4501W        W 8552   3.966   0.983  10.833
 4502W        W 8553   1.693   2.217  11.376
 4503W        W 8554   3.190   0.710  11.832
 4504W        W 8555   3.349   6.549   9.826
 4505W        W 8556   8.729   9.046  10.266
 4506W        W 8557   5.677   4.048   8.179
 4507W        W 8558   5.871  11.000   0.453
 4508W        W 8559   0.147   0.351   2.500
 4509W        W 8560   5.578   9.727   0.711
 4510W        W 8561   1.201   3.737   3.383
 4511W        W 8562   9.022  10.574   0.244
 4512W        W 8563   2.876   1.351   8.982
 4513W        W 8564   9.522   0.985  10.342
 4514W        W 8565   6.984   1.818   1.157
 4515W        W 8566   1.203   0.219   9.120
 4516W        W 8567   8.945   7.174   1.658
 4517W        W 8568  11.216   9.361  10.385
 4518W        W 8569   9.167   9.562   3.264
 4519W        W 8570   3.903   6.924   2.430
 4520W        W 8571   3.755   7.098  10.118
 4521W        W 8572   4.638   6.379   3.996
 4522W        W 8573   4.719   7.509   9.553
 4523W        W 8574   7.034   8.744  11.580
 4524W        W 8575   1.299  10.493  10.869
 4525W        W 8576   5.687   8.471   8.599
 4526W        W 8577   9.384   1.096   0.238
 4527W        W 8578   1.993   6.985   0.829
 4528W        W 8579   1.138   7.122   9.544
 4529W        W 8580   5.823   5.285  10.561
 4530W        W 8581   6.866   8.538   1.050
 4531W        W 8582   4.051   7.542  10.521
 4532W        W 8583   6.031   2.801   1.329
 4533W        W 8584  11.461   5.142  11.600
 4534W        W 8585   6.688   9.542   1.946
 4535W        W 8586   6.862   8.153  11.785
 4536W        W 8587   4.287   6.990   2.108
 4537W        W 8588   6.082   7.390   1.774
 4538W        W 8589   6.205   0.476  10.327
 4539W        W 8590   9.636   7.986   0.786
 4540W        W 8591   9.920   3.820  10.796
 4541W        W 8592  11.208   1.329   0.056
 4542W        W 8593   5.991   2.664   9.077
 4543W        W 8594  11.368   2.491  11.541
 4544W        W 8595   3.105   6.637   2.043
 4545W        W 8596   6.266   9.058   9.092
 4546W        W 8597   6.833   0.259   0.002
 4547W        W 8598   2.294   0.949  10.402
 4548W        W 8599   7.127   0.277  10.484
 4549W        W 8600   8.084   8.427  10.441
 4550W        W 8601   7.951   3.335  10.139
 4551W        W 8602   9.623  10.457   3.344
 4552W        W 8603   2.607   8.090   8.890
 4553W        W 8604   7.905   3.200   9.639
 4554W        W 8605   9.845   6.131   1.146
 4555W        W 8606   2.469   6.543   9.627
 4556W        W 8607   4.600   9.503  11.218
 4557W        W 8608   5.969   4.391   8.458
 4558W        W 8609   7.743   7.945   9.644
 4559W        W 8610   1.211  11.444   0.959
 4560W        W 8611   6.607  10.818   9.799
 4561W        W 8612   4.688   6.305   8.785
 4562W        W 8613   8.564   9.451   2.884
 4563W        W 8614   5.028  11.047  11.559
 4564W        W 8615   4.599  11.231   0.853
 4565W        W 8616   0.024   9.957   3.150
 4566W        W 8617   4.550   3.358   2.746
 4567W        W 8618   3.337   7.153   0.759
 4568W        W 8619   2.991   9.818   2.956
 4569W        W 8620  10.727  10.326   1.851
 4570W        W 8621   7.512   7.196   2.938
 4571W        W 8622  10.461   6.507   9.338
 4572W        W 8623  11.471   6.805  10.979
 4573W        W 8624   1.294   8.776  10.550
 4574W        W 8625   3.414   9.299   8.765
 4575W        W 8626   8.825   3.053  10.044
 4576W        W 8627   9.572   5.759   9.897
 4577W        W 8628   9.459   6.078   3.441
 4578W        W 8629   2.678   2.306  11.361
 4579W        W 8630   1.474   2.656  11.496
 4580W        W 8631   9.885   8.372  10.323
 4581W        W 8632   9.697   4.763   9.724
 4582W        W 8633   8.111   2.265  11.940
 4583W        W 8634   9.830   4.118  10.042
 4584W        W 8635   2.365  10.145  11.897
 4585W        W 8636   1.326   5.552  10.520
 4586W        W 8637   7.468   1.194  10.941
 4587W        W 8638  10.039   2.691   3.274
 4588W        W 8639   2.149   6.771  11.788
 4589W        W 8640   1.703   3.926   3.312
 4590W        W 8641   5.959   9.127   2.099
 4591W        W 8642  10.478   2.724   2.960
 4592W        W 8643  10.866   8.662   0.376
 4593W        W 8644   6.437  10.697   3.322
 4594W        W 8645   9.381   0.815   1.313
 4595W        W 8646   9.287   3.992   3.591
 4596W        W 8647   4.550  10.807  10.182
 4597W        W 8648   6.421  10.752   0.903
 4598W        W 8649   9.545  11.147   8.448
 4599W        W 8650  10.886   4.032   3.292
 4600W        W 8651   0.754   8.613   8.919
 4601W        W 8652   0.393   5.669   2.359
 4602W        W 8653   4.635   3.199  10.864
 4603W        W 8654  10.283  10.096  10.580
 4604W        W 8655  11.378   4.408   1.157
 4605W        W 8656   8.002   9.929   1.875
 4606W        W 8657   9.919   4.377   2.900
 4607W        W 8658   2.218   4.854   1.692
 4608W        W 8659   6.519   0.699   9.980
 4609W        W 8660   8.623   6.665   9.244
 4610W        W 8661   5.909   3.391  10.295
 4611W        W 8662   7.191   6.162   1.210
 4612W        W 8663   4.246   6.677   9.477
 4613W        W 8664   8.626   2.070   3.596
 4614W        W 8665   7.451   4.267  11.495
 4615W        W 8666   4.243   0.565  10.885
 4616W        W 8667   9.283   3.370   0.006
 4617W        W 8668   0.309   2.681  10.084
 4618W        W 8669   3.790   2.207   9.560
 4619W        W 8670   7.426  11.277   9.480
 4620W        W 8671   0.159   2.254  11.932
 4621W        W 8672   8.009  11.286   1.992
 4622W        W 8673   1.448   8.430   9.692
 4623W        W 8674   2.337   7.670   9.739
 4624W        W 8675   4.979   2.813   2.254
 4625W        W 8676   5.579   7.111   1.195
 4626W        W 8677   5.670   4.235   2.726
 4627W        W 8678   8.846   9.478   1.164
 4628W        W 8679   8.290   0.214   2.480
 4629W        W 8680   2.792   4.732  10.901
 4630W        W 8681   5.194   9.271  11.540
 4631W        W 8682   6.040   0.372   2.806
 4632W        W 8683   4.197   7.526   9.530
 4633W        W 8684   2.353   3.467   9.481
 4634W        W 8685  11.282  11.245   1.316
 4635W        W 8686   8.416  10.852   3.354
 4636W        W 8687   1.231   2.642   8.903
 4637W        W 8688   2.651   8.637   2.203
 4638W        W 8689  10.104   9.788   0.451
 4639W        W 8690   1.858   2.023  11.925
 4640W        W 8691   5.773   1.229   8.958
 4641W        W 8692   1.841   3.724  10.506
 4642W        W 8693   4.592   3.185   9.961
 4643W        W 8694   5.677   3.653  11.011
 4644W        W 8695   6.438   8.267  10.853
 4645W        W 8696   9.392  10.842   3.075
 4646W        W 8697   1.193   3.151   8.644
 4647W        W 8698   7.717   8.578   2.292
 4648W        W 8699  10.974   8.629   9.346
 4649W        W 8700   3.123   0.807   0.757
 4650W        W 8701   4.721   9.062  10.959
 4651W        W 8702   3.152   0.868   9.094
 4652W        W 8703   6.327   8.867  11.919
 4653W        W 8704   5.152  10.572   3.321
 4654W        W 8705  11.317   2.604  10.021
 4655W        W 8706   8.072   0.980   9.073
 4656W        W 8707   6.747   7.705  11.566
 4657W        W 8708   2.166   9.811   0.756
 4658W        W 8709   0.379  10.956   2.632
 4659W        W 8710  11.058   2.613  10.478
 4660W        W 8711   7.543   5.978   0.852
 4661W        W 8712   3.178   4.358   1.209
 4662W        W 8713   2.343   4.124  11.608
 4663W        W 8714  10.067  10.253   2.279
 4664W        W 8715   7.101  10.361   2.396
 4665W        W 8716   8.234   8.513   3.397
 4666W        W 8717   1.309   9.285   8.955
 4667W        W 8718  10.925   0.870  11.845
 4668W        W 8719   6.493   0.096   2.859
 4669W        W 8720  10.373   8.988   0.079
 4670W        W 8721   2.688   1.171   0.314
 4671W        W 8722   7.832   7.715   0.871
 4672W        W 8723   7.514   4.626  10.041
 4673W        W 8724   5.671   3.589   0.263
 4674W        W 8725  10.485   3.643   1.323
 4675W        W 8726   8.255   2.446   1.950
 4676W        W 8727  11.494   9.050   9.129
 4677W        W 8728   3.242   3.360   9.449
 4678W        W 8729   1.670  10.689   0.465
 4679W        W 8730   2.282   4.370   1.460
 4680W        W 8731   0.551   7.064   0.233
 4681W        W 8732  11.017   7.159   8.994
 4682W        W 8733  10.118   9.094   0.938
 4683W        W 8734   1.484   3.203   3.602
 4684W        W 8735   4.813   0.470  11.511
 4685W        W 8736   0.833  10.914   0.209
 4686W        W 8737   9.526   2.391   0.988
 4687W        W 8738   2.877  10.936   8.482
 4688W        W 8739   4.980   9.413   3.464
 4689W        W 8740   8.075   8.466   0.401
 4690W        W 8741   0.559   2.313   0.262
 4691W        W 8742   0.825   7.401   3.568
 4692W        W 8743   8.064   2.074   8.561
 4693W        W 8744   8.559   8.479   2.515
 4694W        W 8745   6.145   6.205  10.272
 4695W        W 8746   0.305   5.273  10.269
 4696W        W 8747   9.828   9.439  11.133
 4697W        W 8748  10.290   0.741   2.740
 4698W        W 8749   2.883   5.048   2.179
 4699W        W 8750   4.975  11.064  10.323
 4700W        W 8751   4.049  10.546  10.260
 4701W        W 8752   9.599  11.006  10.322
 4702W        W 8753   2.945   4.974   1.688
 4703W        W 8754  10.123   3.764  11.252
 4704W        W 8755   5.109  10.935   1.510
 4705W        W 8756   7.519   0.583  10.655
 4706W        W 8757   6.732   6.289  10.516
 4707W        W 8758   6.236   7.114   0.869
 4708W        W 8759   0.124   4.127   2.620
 4709W        W 8760   7.032   1.440   2.133
 4710W        W 8761   2.964   6.886   0.998
 4711W        W 8762  10.595   0.788   1.845
 4712W        W 8763   9.609   1.669  11.487
 4713W        W 8764   2.448   7.033   0.558
 4714W        W 8765   3.171   9.601  10.081
 4715W        W 8766  10.471   8.989   9.236
 4716W        W 8767   5.129  10.554  11.577
 4717W        W 8768   4.780   5.240   1.271
 4718W        W 8769   8.090   0.657   2.249
 4719W        W 8770   0.589   8.690   0.924
 4720W        W 8771   3.519   4.640   3.594
 4721W        W 8772   6.106   5.193   1.043
 4722W        W 8773   2.016   9.079   1.327
 4723W        W 8774   4.832   0.989   9.312
 4724W        W 8775   0.898   2.416   0.705
 4725W        W 8776   8.620   4.628   9.518
 4726W        W 8777   7.256   9.972  11.077
 4727W        W 8778   4.268   7.131  10.277
 4728W        W 8779   7.387   0.836  10.222
 4729W        W 8780   2.582   4.254  10.727
 4730W        W 8781   0.444  10.811   1.658
 4731W        W 8782   9.744   6.621  10.856
 4732W        W 8783   5.879   6.877   3.539
 4733W        W 8784   5.639   4.539   3.470
 4734W        W 8785  10.794   9.570  11.307
 4735W        W 8786   1.560   6.908   0.525
 4736W        W 8787  10.328   3.677   2.477
 4737W        W 8788   8.865  10.895   3.067
 4738W        W 8789   6.329   0.703   9.521
 4739W        W 8790   9.874   0.438  11.810
 4740W        W 8791   6.032   2.668   9.945
 4741W        W 8792   3.160   1.017   3.024
 4742W        W 8793   1.610   0.674   9.971
 4743W        W 8794   4.725   5.250   1.784
 4744W        W 8795   1.817   0.465  11.751
 4745W        W 8796   1.694   3.367  11.944
 4746W        W 8797  11.412   6.159  10.941
 4747W        W 8798   0.710   9.599   1.055
 4748W        W 8799   6.109   7.895   1.777
 4749W        W 8800   1.268   8.290  10.695
 4750W        W 8801   2.711   0.370  11.733
 4751W        W 8802   5.548   6.706   0.894
 4752W        W 8803   0.251   6.173   1.006
 4753W        W 8804   1.713   9.556   9.103
 4754W        W 8805   7.758   6.560  11.882
 4755W        W 8806   9.963   8.003   9.169
 4756W        W 8807   1.911   7.185   8.960
 4757W        W 8808   7.364  11.279  10.374
 4758W        W 8809   4.852  10.842  11.998
 4759W        W 8810   1.340  10.690   2.799
 4760W        W 8811   8.483   9.911   3.127
 4761W        W 8812   8.053  11.370   3.432
 4762W        W 8813   8.039   0.226   1.320
 4763W        W 8814   4.698   2.215  10.065
 4764W        W 8815   2.247   5.695   2.223
 4765W        W 8816   4.331   1.893  10.166
 4766W        W 8817   9.454  10.110   9.448
 4767W        W 8818   1.404   1.472   0.424
 4768W        W 8819  10.461   5.556   8.935
 4769W        W 8820   5.712  11.390   2.304
 4770W        W 8821  10.295   5.246   1.304
 4771W        W 8822   3.659   8.246   2.693
 4772W        W 8823   2.628   9.122   2.409
 4773W        W 8824   5.020   6.203   1.403
 4774W        W 8825  11.456   4.745  10.059
 4775W        W 8826   2.483   7.188   3.642
 4776W        W 8827   0.712   7.564  10.220
 4777W        W 8828   8.036   0.472   8.920
 4778W        W 8829   2.017  11.368   3.467
 4779W        W 8830   1.054  10.514   1.029
 4780W        W 8831   0.178   9.357   0.488
 4781W        W 8832   9.045   3.427   1.891
 4782W        W 8833   9.679   3.718   0.111
 4783W        W 8834   5.972   1.680  11.816
 4784W        W 8835   9.969   5.275   1.691
 4785W        W 8836   6.099   6.408   1.752
 4786W        W 8837  10.427   5.811  10.984
 4787W        W 8838   6.595   4.331   1.409
 4788W        W 8839   8.195   3.728   2.818
 4789W        W 8840   0.900  11.248   3.605
 4790W        W 8841   3.840   9.818   3.537
 4791W        W 8842  11.247   1.207  10.246
 4792W        W 8843   5.332  10.704   0.070
 4793W        W 8844   6.257   1.532  11.415
 4794W        W 8845   3.215   7.207  11.874
 4795W        W 8846   5.928  11.081  10.403
 4796W        W 8847  11.098  11.222   2.210
 4797W        W 8848   6.068   7.570   0.755
 4798W        W 8849   6.523   9.848   0.847
 4799W        W 8850   1.923   3.305   2.359
 4800W        W 8851   2.891   2.251   1.702
 4801W        W 8852  10.032   9.925   1.369
 4802W        W 8853   2.031  10.483   0.074
 4803W        W 8854   6.172   8.673   9.454
 4804W        W 8855   0.820   2.840   2.628
 4805W        W 8856  10.833   2.234   9.274
 4806W        W 8857   4.211   1.078   3.698
 4807W        W 8858   2.242   3.125  11.284
 4808W        W 8859  10.721   0.075   2.262
 4809W        W 8860   2.539  11.366  11.783
 4810W        W 8861   0.999   1.398   2.783
 4811W        W 8862   1.301   1.049  10.086
 4812W        W 8863   3.107   1.179   0.009
 4813W        W 8864   8.546   3.578   0.402
 4814W        W 8865  11.481   3.872   0.505
 4815W        W 8866  10.442   5.298   9.933
 4816W        W 8867   2.241   5.222   8.563
 4817W        W 8868   2.670   5.071   3.179
 4818W        W 8869   6.543   3.952  11.806
 4819W        W 8870   8.459   9.340   2.407
 4820W        W 8871   8.178   2.363   1.447
 4821W        W 8872   0.200   9.517   0.970
 4822W        W 8873   3.216   1.604  10.905
 4823W        W 8874   1.983  11.464  10.448
 4824W        W 8875   7.096   9.300   8.474
 4825W        W 8876   7.262   4.281   2.757
 4826W        W 8877   9.962  11.450  11.029
 4827W        W 8878   8.387   0.823  11.687
 4828W        W 8879   4.685   3.743   9.067
 4829W        W 8880   5.983   9.617   3.011
 4830W        W 8881   9.020   1.722   9.790
 4831W        W 8882   5.742   6.418   3.102
 4832W        W 8883   6.928   2.194  10.497
 4833W        W 8884   5.448   4.503   8.300
 4834W        W 8885   2.736   7.067   8.568
 4835W        W 8886   4.667   4.818  10.491
 4836W        W 8887   7.928   6.225   9.749
 4837W        W 8888   3.570  11.272   2.155
 4838W        W 8889  11.271   2.018   9.485
 4839W        W 8890  10.289   0.512  10.233
 4840W        W 8891  10.405   8.343   0.483
 4841W        W 8892   4.527   2.392   0.514
 4842W        W 8893   6.976   8.930   1.772
 4843W        W 8894   5.123   2.607   8.979
 4844W        W 8895   6.983   2.752   2.282
 4845W        W 8896   2.588   0.944   0.771
 4846W        W 8897  10.559   3.513  11.274
 4847W        W 8898   9.639   4.093   0.441
 4848W        W 8899   6.105   8.172   1.341
 4849W        W 8900   3.123  11.306   0.954
 4850W        W 8901   0.264  10.020   0.885
 4851W        W 8902   5.707  10.497   1.619
 4852W        W 8903   6.932   2.943   0.960
 4853W        W 8904  10.434   4.862  10.829
 4854W        W 8905   3.520  10.848   1.296
 4855W        W 8906   8.037   2.317   2.416
 4856W        W 8907   8.349   0.202   1.968
 4857W        W 8908   2.415   5.115  10.802
 4858W        W 8909   1.898   9.653   2.028
 4859W        W 8910   2.265  10.502   9.623
 4860W        W 8911   3.029   9.401   2.654
 4861W        W 8912   6.770   2.601   2.721
 4862W        W 8913  10.681   5.494   3.165
 4863W        W 8914   6.831   8.017   1.085
 4864W        W 8915   3.913   8.770   0.450
 4865W        W 8916   8.554  10.857   9.051
 4866W        W 8917   9.935  10.953  10.882
 4867W        W 8918   0.273  11.380   8.804
 4868W        W 8919   9.396   7.497   2.549
 4869W        W 8920  11.423   6.559   1.343
 4870W        W 8921  10.457   3.207   3.211
 4871W        W 8922   4.880   1.784   2.326
 4872W        W 8923  10.335   4.638  11.901
 4873W        W 8924   7.574   2.034   3.022
 4874W        W 8925   6.111   8.418   1.786
 4875W        W 8926  10.838   0.602   2.308
 4876W        W 8927   3.915   1.386   2.863
 4877W        W 8928   1.448   6.100   0.564
 4878W        W 8929   6.168   5.048   0.025
 4879W        W 8930   7.050   5.166   1.164
 4880W        W 8931   2.296  10.292   1.445
 4881W        W 8932   8.891   1.289   2.219
 4882W        W 8933   8.566  10.371   9.943
 4883W        W 8934   0.723   0.582  11.432
 4884W        W 8935   1.497   4.120   2.325
 4885W        W 8936   4.086   6.318   8.077
 4886W        W 8937   8.855   2.096   3.133
 4887W        W 8938   2.162   2.334   2.307
 4888W        W 8939  10.581   0.312   9.828
 4889W        W 8940   0.773   9.489  10.400
 4890W        W 8941   3.591   7.480  11.262
 4891W        W 8942   7.721   5.076  11.052
 4892W        W 8943   3.138   6.744   8.485
 4893W        W 8944   0.925   7.962   0.572
 4894W        W 8945   5.978   2.578   3.654
 4895W        W 8946   3.188   7.604  10.511
 4896W        W 8947   8.369  10.876  10.019
 4897W        W 8948   9.568  10.903   8.937
 4898W        W 8949   3.508   8.893   9.523
 4899W        W 8950   7.785   3.614   1.892
 4900W        W 8951   2.951   1.157  10.920
 4901W        W 8952   2.314   7.433  11.068
 4902W        W 8953   7.960   5.519  10.313
 4903W        W 8954   5.196   8.618   1.664
 4904W        W 8955  11.459   2.064   9.956
 4905W        W 8956   6.617   1.444   0.367
 4906W        W 8957   2.609   5.761   0.258
 4907W        W 8958   0.863   3.588  11.949
 4908W        W 8959   3.693   6.295   8.997
 4909W        W 8960   0.886   9.549   9.078
 4910W        W 8961  10.136   6.596   3.845
 4911W        W 8962   4.668   7.484  11.066
 4912W        W 8963   7.118   8.057   0.232
 4913W        W 8964   9.997   5.187   9.551
 4914W        W 8965   0.314   1.660   2.311
 4915W        W 8966   2.874   1.411   2.851
 4916W        W 8967   1.529  10.424   2.304
 4917W        W 8968  11.421   6.987  11.450
 4918W        W 8969   9.493   3.439   2.167
 4919W        W 8970   8.971   0.879   9.340
 4920W        W 8971   3.670  10.354   1.171
 4921W        W 8972  10.902   2.212  11.439
 4922W        W 8973  10.446   0.107   9.347
 4923W        W 8974   9.261   6.081   2.436
 4924W        W 8975   6.887   7.484   3.190
 4925W        W 8976   6.260  11.313   1.653
 4926W        W 8977   6.424   5.853   9.629
 4927W        W 8978   7.241   2.736   1.363
 4928W        W 8979  10.230   6.508   1.925
 4929W        W 8980   0.772   5.762  11.045
 4930W        W 8981   5.468   2.835   2.420
 4931W        W 8982   7.524   0.476   0.447
 4932W        W 8983   1.118   6.025   0.945
 4933W        W 8984   3.650   8.501   3.141
 4934W        W 8985  10.217   1.150   0.027
 4935W        W 8986   2.772   1.901   0.669
 4936W        W 8987   3.202  10.475   9.547
 4937W        W 8988   3.919   6.971  11.158
 4938W        W 8989   7.435   1.967  10.512
 4939W        W 8990   4.240   2.401   8.845
 4940W        W 8991   3.394   9.872  11.935
 4941W        W 8992   8.750   3.830   1.712
 4942W        W 8993   8.024   6.461   2.771
 4943W        W 8994   1.158  10.455  11.984
 4944W        W 8995  10.439   7.483   0.156
 4945W        W 8996  10.851   1.560   2.447
 4946W        W 8997   9.937   8.954   0.462
 4947W        W 8998   9.632   4.206   8.988
 4948W        W 8999   2.620   1.354  11.258
 4949W        W 9000   4.201  11.011   1.689
 4950W        W 9001   7.004   0.815   3.123
 4951W        W 9002   8.528   8.827   1.717
 4952W        W 9003   1.686   3.085   2.766
 4953W        W 9004  11.488   2.879  10.448
 4954W        W 9005   8.878   7.824  10.627
 4955W        W 9006   5.936  10.442   1.169
 4956W        W 9007   2.804  11.371   2.684
 4957W        W 9008   2.600   2.441   1.289
 4958W        W 9009  10.329   7.420   2.410
 4959W        W 9010   9.328   4.811   2.283
 4960W        W 9011   2.909   5.081   1.203
 4961W        W 9012  10.369   1.658  10.962
 4962W        W 9013  10.882   6.123   3.236
 4963W        W 9014   1.259   4.298   9.395
 4964W        W 9015   1.371   0.379   1.997
 4965W        W 9016   7.217   7.918  11.506
 4966W        W 9017   3.812   8.157   1.945
 4967W        W 9018   1.713   8.136   2.287
 4968W        W 9019   5.882   7.250  11.773
 4969W        W 9020   0.645   3.248   3.502
 4970W        W 9021   2.175   5.800   3.264
 4971W        W 9022  10.295  11.410   2.510
 4972W        W 9023   6.460   0.943  10.424
 4973W        W 9024   6.510   6.217   2.028
 4974W        W 9025  10.132   5.104  11.922
 4975W        W 9026  10.998   4.974  10.799
 4976W        W 9027   8.788   6.464   8.272
 4977W        W 9028   1.748   4.985   0.779
 4978W        W 9029   6.446   5.710   0.415
 4979W        W 9030   6.660   4.940  11.963
 4980W        W 9031   6.248  10.440   1.653
 4981W        W 9032  11.072   0.501   9.909
 4982W        W 9033  10.159   3.777   0.231
 4983W        W 9034   5.223   6.722   2.266
 4984W        W 9035   9.344   5.959   9.463
 4985W        W 9036   0.397   9.029  11.601
 4986W        W 9037   2.312   3.727   0.334
 4987W        W 9038   4.932   9.962   9.219
 4988W        W 9039   9.090   5.511   9.541
 4989W        W 9040   1.738   6.747   9.896
 4990W        W 9041   4.741  11.472  11.562
 4991W        W 9042   7.049   5.543  11.202
 4992W        W 9043   2.494   4.146   2.269
 4993W        W 9044   6.699  11.073   3.563
 4994W        W 9045   7.906   5.909  11.442
 4995W        W 9046   6.725   7.980   0.584
 4996W        W 9047   3.501   7.922   2.311
 4997W        W 9048   8.385   6.065  11.400
 4998W        W 9049  11.417   6.430   9.817
 4999W        W 9050   1.986   2.673   9.401
 5000W        W 9051   7.355   9.718   8.556
 5001W        W 9052   5.794   6.662   1.391
 5002W        W 9053  11.237   2.102   8.982
 5003W        W 9054   8.263  10.560  11.435
 5004W        W 9055   0.179   8.074  11.282
 5005W        W 9056   9.988   5.120   3.506
 5006W        W 9057   0.941   9.063   3.678
 5007W        W 9058   2.875   6.533  11.928
 5008W        W 9059   7.294  10.448  11.333
 5009W        W 9060   4.005   0.187   3.579
 5010W        W 9061   8.044   6.853   1.237
 5011W        W 9062   8.621   4.042   2.714
 5012W        W 9063   3.624  11.230   0.877
 5013W        W 9064   0.692   7.750   2.422
 5014W        W 9065   5.459   9.418   3.663
 5015W        W 9066   0.999   9.617  10.895
 5016W        W 9067   7.403   2.611   9.935
 5017W        W 9068   4.166   6.076   1.672
 5018W        W 9069   7.546  11.056   2.679
 5019W        W 9070   8.562   7.417  10.704
 5020W        W 9071   6.544   6.137   8.197
 5021W        W 9072   2.679   6.457   0.944
 5022W        W 9073   3.260   2.616   0.003
 5023W        W 9074   6.534   8.451   9.174
 5024W        W 9075   2.613  11.106   1.069
 5025W        W 9076   6.603  10.318   2.507
 5026W        W 9077   3.115   1.196   1.067
 5027W        W 9078   8.720  10.335   9.009
 5028W        W 9079   5.458   3.132   9.287
 5029W        W 9080   5.940   5.789  10.504
 5030W        W 9081  10.042   3.697  11.739
 5031W        W 9082  10.018   5.613   9.184
 5032W        W 9083   8.498   2.587  10.087
 5033W        W 9084   5.288   2.141  11.486
 5034W        W 9085   0.555   2.312  10.366
 5035W        W 9086   1.351   9.502  11.560
 5036W        W 9087   6.676   8.389   2.308
 5037W        W 9088   8.181   9.479   3.235
 5038W        W 9089   9.877   8.646   2.838
 5039W        W 9090   2.517   6.679   3.468
 5040W        W 9091   1.379   1.444   1.818
 5041W        W 9092   9.811   9.334   2.165
 5042W        W 9093   5.320   5.115  11.600
 5043W        W 9094   6.707  11.434   1.437
 5044W        W 9095   8.874   8.281   8.127
 5045W        W 9096   2.747   7.914   9.882
 5046W        W 9097   1.706   1.574   2.572
 5047W        W 9098   5.791   9.127   0.532
 5048W        W 9099  10.931   5.543  11.878
 5049W        W 9100   1.454   4.542   8.998
 5050W        W 9101   5.600   6.151  10.655
 5051W        W 9102  11.232  10.768   9.482
 5052W        W 9103   9.356   1.822   1.050
 5053W        W 9104   5.257   1.377   8.595
 5054W        W 9105   9.630   3.792   9.488
 5055W        W 9106   2.474   2.936  10.516
 5056W        W 9107   3.751   8.461   9.237
 5057W        W 9108  11.137   1.496   0.951
 5058W        W 9109   8.615  10.827  10.468
 5059W        W 9110   5.604   7.636   8.273
 5060W        W 9111   1.372   5.673   2.754
 5061W        W 9112   7.576  10.927   1.299
 5062W        W 9113   0.476   1.471   0.311
 5063W        W 9114   4.515   1.269   0.003
 5064W        W 9115   0.271   7.493   2.519
 5065W        W 9116   2.470   5.300   0.515
 5066W        W 9117   7.814   5.500  11.712
 5067W        W 9118   7.595   8.910  10.177
 5068W        W 9119   3.084   1.834  10.054
 5069W        W 9120   4.007   0.457   1.959
 5070W        W 9121   7.502   0.680  11.608
 5071W        W 9122   4.089   4.819   0.805
 5072W        W 9123   9.595   1.337   2.937
 5073W        W 9124   6.652   7.544   9.162
 5074W        W 9125   3.258   7.799   8.928
 5075W        W 9126  11.477   0.777  10.812
 5076W        W 9127   1.415   5.085   8.988
 5077W        W 9128   7.170  10.415   3.333
 5078W        W 9129   1.339   2.313   2.896
 5079W        W 9130   8.780   3.139  10.984
 5080W        W 9131   1.767   7.643  11.859
 5081W        W 9132   4.089   2.214   2.178
 5082W        W 9133  10.104   1.722  11.402
 5083W        W 9134   3.315   8.624   2.751
 5084W        W 9135   7.843   7.455   3.259
 5085W        W 9136   4.607   4.403  11.334
 5086W        W 9137  11.314   9.257  11.284
 5087W        W 9138   8.560   7.185  10.241
 5088W        W 9139   3.455   7.082  10.968
 5089W        W 9140   1.934   0.257  10.001
 5090W        W 9141   2.927  10.051   0.510
 5091W        W 9142   0.535  10.902   8.950
 5092W        W 9143   1.778   6.442   2.453
 5093W        W 9144   3.597   8.859  10.019
 5094W        W 9145   8.523   2.835   3.164
 5095W        W 9146   7.001   0.709  11.775
 5096W        W 9147   9.340  11.160  11.695
 5097W        W 9148   9.318  11.106   9.354
 5098W        W 9149   2.663   5.567   9.263
 5099W        W 9150   1.374   7.890  10.405
 5100W        W 9151   4.363   9.096   8.566
 5101W        W 9152  11.115   9.601   3.089
 5102W        W 9153   0.792   6.611   0.275
 5103W        W 9154   3.812   8.002   0.516
 5104W        W 9155   2.463   9.599  11.136
 5105W        W 9156   9.021   6.289   1.780
 5106W        W 9157   4.340   7.120   2.625
 5107W        W 9158  10.799   8.241   3.148
 5108W        W 9159   6.617   9.411   0.553
 5109W        W 9160   1.365   0.460   0.943
 5110W        W 9161   4.539   3.023   1.911
 5111W        W 9162   8.602   3.646   8.374
 5112W        W 9163   4.488   5.981  10.655
 5113W        W 9164   4.489   1.459   3.315
 5114W        W 9165   3.437   9.128   2.807
 5115W        W 9166   0.820   5.324   3.167
 5116W        W 9167   0.319  11.032   3.636
 5117W        W 9168   0.241   9.446  10.425
 5118W        W 9169   1.805  10.909   2.614
 5119W        W 9170   1.983   3.189   3.426
 5120W        W 9171  11.450  10.799   2.333
 5121W        W 9172   0.387   5.407  11.665
 5122W        W 9173   1.743  11.357   1.951
 5123W        W 9174   3.750   7.622   1.893
 5124W        W 9175   7.989   6.936  11.519
 5125W        W 9176   4.604   4.375   1.707
 5126W        W 9177  10.837   0.977  10.074
 5127W        W 9178  10.621   2.240  11.871
 5128W        W 9179   5.476   5.216  10.200
 5129W        W 9180   7.446   8.857  10.667
 5130W        W 9181   4.036   3.116  10.511
 5131W        W 9182   0.760   4.324   9.062
 5132W        W 9183   3.254   6.705   9.353
 5133W        W 9184   4.490   3.728   2.325
 5134W        W 9185  10.870   2.136   3.559
 5135W        W 9186   6.543   9.823   2.325
 5136W        W 9187   0.935   1.617   3.289
 5137W        W 9188   0.949   1.892  11.486
 5138W        W 9189   1.379   9.913  11.251
 5139W        W 9190   2.637   3.782   9.935
 5140W        W 9191   3.386   3.198  11.967
 5141W        W 9192   0.989   7.931   2.845
 5142W        W 9193   8.155   4.624   3.145
 5143W        W 9194   5.999   2.838   8.586
 5144W        W 9195  10.395   6.997   3.226
 5145W        W 9196   6.204   1.787   0.268
 5146W        W 9197  11.467   9.216   1.781
 5147W        W 9198   0.419   9.567   2.472
 5148W        W 9199   5.046   4.308   3.570
 5149W        W 9200   1.574   1.896   1.696
 5150W        W 9201   2.223   0.776   1.153
 5151W        W 9202   5.246   1.249   1.616
 5152W        W 9203   3.064   5.361   3.374
 5153W        W 9204   6.052   7.441  10.759
 5154W        W 9205  10.839   2.787  10.044
 5155W        W 9206   6.176   2.141  11.869
 5156W        W 9207   4.596   4.835  11.959
 5157W        W 9208  10.591   1.378   3.218
 5158W        W 9209   0.892   8.426   1.246
 5159W        W 9210   5.707   0.942   9.400
 5160W        W 9211   6.902   4.081   1.844
 5161W        W 9212   3.596   5.209   8.311
 5162W        W 9213   8.849  11.377   1.157
 5163W        W 9214   3.715   7.465  11.746
 5164W        W 9215   9.066   2.286  10.983
 5165W        W 9216   9.990   9.817   9.316
 5166W        W 9217   4.205   5.176   1.579
 5167W        W 9218   2.487  10.421   2.597
 5168W        W 9219   1.301   4.737   0.708
 5169W        W 9220   1.262   8.134   1.049
 5170W        W 9221   1.906   4.094  10.111
 5171W        W 9222   2.707   4.632   2.451
 5172W        W 9223   7.913   8.808  11.578
 5173W        W 9224   8.557   5.745   2.624
 5174W        W 9225  10.270   7.013   0.940
 5175W        W 9226   0.935   4.166   3.544
 5176W        W 9227   0.911   5.529   2.507
 5177W        W 9228   8.776   6.089   1.014
 5178W        W 9229   1.680   4.182   2.831
 5179W        W 9230   2.105   9.503   3.029
 5180W        W 9231   5.118   7.016   0.207
 5181W        W 9232  10.744   2.675   1.660
 5182W        W 9233   9.481   5.744   8.982
 5183W        W 9234  10.845  10.433   8.756
 5184W        W 9235   3.610   4.205   1.456
 5185W        W 9236   0.432   5.488  10.761
 5186W        W 9237   6.090   7.636   1.272
 5187W        W 9238   9.655   1.214   3.433
 5188W        W 9239   3.366   4.291   9.866
 5189W        W 9240  10.853   1.005   3.392
 5190W        W 9241   8.102   1.917   9.087
 5191W        W 9242   6.068   0.942   3.492
 5192W        W 9243   0.708  10.853  10.310
 5193W        W 9244   6.946   9.611   8.859
 5194W        W 9245  11.071   2.468   2.630
 5195W        W 9246   9.228   5.315   9.084
 5196W        W 9247   0.939   4.155  10.754
 5197W        W 9248   9.547  10.404   2.387
 5198W        W 9249   3.845   6.467  11.284
 5199W        W 9250   1.838   7.547  10.943
 5200W        W 9251   3.716   6.110   2.004
 5201W        W 9252   2.681   1.763   9.286
 5202W        W 9253   8.914   4.157  10.179
 5203W        W 9254   4.964   3.067   9.167
 5204W        W 9255   6.394   6.205   0.501
 5205W        W 9256   8.634   1.881   9.029
 5206W        W 9257   9.393  10.845   2.193
 5207W        W 9258   9.107   5.205   0.027
 5208W        W 9259   4.658   9.492   0.265
 5209W        W 9260   3.398   7.027   2.315
 5210W        W 9261   2.003   6.333   9.742
 5211W        W 9262   6.783  11.132   0.900
 5212W        W 9263   3.998   1.005   9.937
 5213W        W 9264   6.131   0.515   8.801
 5214W        W 9265   9.110   6.602  11.666
 5215W        W 9266   9.542   1.461   1.951
 5216W        W 9267   8.996   8.501   8.574
 5217W        W 9268   6.548   6.781   3.446
 5218W        W 9269  10.411   5.226   0.418
 5219W        W 9270   0.795   7.124  10.513
 5220W        W 9271   2.263   5.566  10.581
 5221W        W 9272   1.515   4.987   9.838
 5222W        W 9273   0.247   2.144  11.435
 5223W        W 9274   9.355  11.472   2.874
 5224W        W 9275   7.983   1.197   0.174
 5225W        W 9276   3.354   7.058   1.279
 5226W        W 9277   3.559   8.469   1.130
 5227W        W 9278   8.936   7.315  11.541
 5228W        W 9279   2.464   4.234   0.100
 5229W        W 9280   0.866   0.320   1.334
 5230W        W 9281   5.286   1.096   9.050
 5231W        W 9282   7.954   9.349  10.877
 5232W        W 9283   1.251   8.657  11.077
 5233W        W 9284   2.613   0.111   2.233
 5234W        W 9285   3.175  10.842   0.143
 5235W        W 9286   0.645   5.483   0.435
 5236W        W 9287   1.115   1.847   9.497
 5237W        W 9288   2.062   2.913  10.831
 5238W        W 9289   8.473   4.925   2.320
 5239W        W 9290   6.656   0.431  11.214
 5240W        W 9291   9.374   9.864  11.967
 5241W        W 9292   9.664   8.539   1.145
 5242W        W 9293  11.143   8.179  10.710
 5243W        W 9294  11.023   3.975  10.966
 5244W        W 9295   9.317   2.171  11.504
 5245W        W 9296   3.205   4.778   2.514
 5246W        W 9297  11.228   0.474   0.079
 5247W        W 9298   1.479   2.747   9.443
 5248W        W 9299   9.815   2.143  11.489
 5249W        W 9300   7.596   4.132  10.169
 5250W        W 9301   0.682   7.603   3.070
 5251W        W 9302   0.950   2.788  11.364
 5252W        W 9303   6.092   2.057  10.849
 5253W        W 9304   7.235   1.504  11.338
 5254W        W 9305   1.801   8.185   3.120
 5255W        W 9306   3.919   2.796   1.155
 5256W        W 9307   8.531  10.009  11.810
 5257W        W 9308  10.387   1.264   1.804
 5258W        W 9309   1.721   0.017   0.944
 5259W        W 9310   9.258   7.615   1.545
 5260W        W 9311   9.558   8.955   9.878
 5261W        W 9312   9.125   5.412   1.907
 5262W        W 9313   3.705   3.108   9.585
 5263W        W 9314   1.697   0.763   3.102
 5264W        W 9315   7.078   6.318  10.139
 5265W        W 9316   5.139   0.747  10.748
 5266W        W 9317   2.866   2.810   1.490
 5267W        W 9318   1.345   8.902   9.507
 5268W        W 9319   4.396   9.954  11.668
 5269W        W 9320   9.364   3.855   9.934
 5270W        W 9321   2.794   0.046   1.246
 5271W        W 9322  10.785   5.399  11.007
 5272W        W 9323   1.342   7.581   0.357
 5273W        W 9324   0.031   4.781  11.032
 5274W        W 9325  11.068   3.516  11.794
 5275W        W 9326   1.223   4.660   2.329
 5276W        W 9327   4.963  10.391   9.542
 5277W        W 9328   4.285   7.135   3.149
 5278W        W 9329   3.423   6.666   0.721
 5279W        W 9330   5.717   8.523  11.337
 5280W        W 9331   9.633   5.127  11.942
 5281W        W 9332   3.401   0.242  10.940
 5282W        W 9333   6.446   3.596   2.401
 5283W        W 9334   9.119   2.431  11.901
 5284W        W 9335   2.745  10.299   9.647
 5285W        W 9336   4.851  10.082  11.454
 5286W        W 9337   8.902   2.932   1.776
 5287W        W 9338   2.872   9.436  10.862
 5288W        W 9339  11.293   1.243   3.368
 5289W        W 9340   3.453   8.841  11.074
 5290W        W 9341   0.380   4.485  10.733
 5291W        W 9342   6.229   8.649   1.161
 5292W        W 9343   2.293   5.652  10.095
 5293W        W 9344   0.474   1.780   1.396
 5294W        W 9345   0.798   6.571   9.541
 5295W        W 9346   0.898   1.369   2.291
 5296W        W 9347  10.785   4.151  11.827
 5297W        W 9348   1.216   9.757  10.320
 5298W        W 9349   4.344   6.523  11.324
 5299W        W 9350   9.143   7.101   2.354
 5300W        W 9351   1.224   6.254   9.454
 5301W        W 9352   3.346  11.288  10.148
 5302W        W 9353   5.131   0.302  10.997
 5303W        W 9354  11.422   1.720   3.180
 5304W        W 9355   1.415   3.149   2.344
 5305W        W 9356  10.832   7.415   0.487
 5306W        W 9357  10.749   6.578   0.408
 5307W        W 9358   5.183   9.947   1.691
 5308W        W 9359   9.482   4.877  11.078
 5309W        W 9360   7.025   0.987   0.798
 5310W        W 9361   2.095   1.567  11.063
 5311W        W 9362   6.184   0.877   1.922
 5312W        W 9363   7.954   1.373  10.905
 5313W        W 9364   1.595   4.205  10.547
 5314W        W 9365  10.819   8.618   2.724
 5315W        W 9366   5.274   0.688   0.281
 5316W        W 9367   3.599   9.640   1.588
 5317W        W 9368   3.346   6.688  11.844
 5318W        W 9369   8.392   1.679  10.837
 5319W        W 9370   1.480   4.515  11.302
 5320W        W 9371  10.385   1.579  11.838
 5321W        W 9372   5.226   0.346   9.985
 5322W        W 9373   9.866   2.672   9.841
 5323W        W 9374   6.621   4.054   0.983
 5324W        W 9375   1.335   6.072  10.369
 5325W        W 9376   7.674   2.155  10.087
 5326W        W 9377  10.601  11.070   2.275
 5327W        W 9378   9.748   5.255  10.838
 5328W        W 9379   0.032   5.558   2.776
 5329W        W 9380   5.823   6.070   2.698
 5330W        W 9381   6.832   9.773   3.662
 5331W        W 9382   3.888   4.210   2.306
 5332W        W 9383   9.819  11.499   2.699
 5333W        W 9384   4.678   7.358   1.992
 5334W        W 9385   3.880   0.571   0.451
 5335W        W 9386   8.701   7.380  11.990
 5336W        W 9387   5.142   3.503   0.017
 5337W        W 9388   1.425   7.538   9.501
 5338W        W 9389  11.375   5.586  10.231
 5339W        W 9390   2.384   2.982   9.369
 5340W        W 9391   9.004   1.471   0.238
 5341W        W 9392   8.014   7.438  11.573
 5342W        W 9393   8.070   8.791   2.988
 5343W        W 9394   7.686   1.523  10.497
 5344W        W 9395   5.704   2.356  11.270
 5345W        W 9396   7.982   1.891  11.067
 5346W        W 9397   1.411   0.049   0.499
 5347W        W 9398   6.644   5.000  10.560
 5348W        W 9399   0.997   1.972  10.348
 5349W        W 9400   1.751   3.484   3.074
 5350W        W 9401   0.048   9.000   0.809
 5351W        W 9402  10.128   4.230  11.006
 5352W        W 9403   3.054   7.870   8.041
 5353W        W 9404   2.032   5.105   0.358
 5354W        W 9405  10.371   1.427   2.290
 5355W        W 9406   1.392   0.300   2.504
 5356W        W 9407   0.026   5.174   8.519
 5357W        W 9408   2.696   0.875  11.891
 5358W        W 9409   2.748   0.585   2.401
 5359W        W 9410   4.702   7.930  10.800
 5360W        W 9411   0.453   4.545  11.246
 5361W        W 9412   0.961   5.809   3.029
 5362W        W 9413   9.027  10.880   1.826
 5363W        W 9414   3.757  11.474   2.810
 5364W        W 9415   6.439   1.510  11.892
 5365W        W 9416   6.636  10.444   8.920
 5366W        W 9417   4.322   4.685   9.145
 5367W        W 9418   7.255   3.365  10.544
 5368W        W 9419   9.429  10.246   0.873
 5369W        W 9420   9.068  10.789   9.034
 5370W        W 9421   1.906  11.263   9.381
 5371W        W 9422  10.241   9.618  11.979
 5372W        W 9423   0.399   4.637   0.707
 5373W        W 9424   6.077   4.608   2.685
 5374W        W 9425   8.049  10.036   9.569
 5375W        W 9426  11.429   0.131  10.082
 5376W        W 9427   4.418   2.790  10.602
 5377W        W 9428   2.834  10.801   9.427
 5378W        W 9429   5.516   4.615   9.604
 5379W        W 9430  10.327   2.870   9.983
 5380W        W 9431   5.068   0.347  11.950
 5381W        W 9432   7.522   4.020   1.068
 5382W        W 9433   6.803   7.116  10.391
 5383W        W 9434   4.587   4.631   2.503
 5384W        W 9435   7.128   5.296  10.354
 5385W        W 9436   6.243   3.876  11.412
 5386W        W 9437   2.921   6.619  11.420
 5387W        W 9438   9.919   9.600   1.733
 5388W        W 9439   9.041   8.945   8.861
 5389W        W 9440   8.961  11.473  11.961
 5390W        W 9441   7.531   9.682   0.495
 5391W        W 9442   2.673   1.436   0.846
 5392W        W 9443   1.189   8.377   0.248
 5393W        W 9444   8.105   2.373  10.994
 5394W        W 9445   1.154   9.153  11.035
 5395W        W 9446   5.715   1.452   1.425
 5396W        W 9447   6.190   3.798   3.335
 5397W        W 9448   4.152   8.240  10.747
 5398W        W 9449   8.080   6.781   9.571
 5399W        W 9450   3.871   8.664   1.849
 5400W        W 9451   9.000  11.399   3.221
 5401W        W 9452   4.167   8.868   1.237
 5402W        W 9453   6.109   1.898  10.373
 5403W        W 9454   8.672   9.512   3.367
 5404W        W 9455   3.658   7.523   9.717
 5405W        W 9456   3.562   0.974   2.673
 5406W        W 9457   1.211  10.824  10.306
 5407W        W 9458   8.856  10.404   1.138
 5408W        W 9459  11.312   4.696   2.160
 5409W        W 9460   5.237   2.737   8.486
 5410W        W 9461   4.285   5.200   1.077
 5411W        W 9462   1.730   6.449   3.030
 5412W        W 9463   0.248  11.445   9.300
 5413W        W 9464   3.251   1.272  10.508
 5414W        W 9465   9.998   8.616   0.069
 5415W        W 9466   3.410  10.995   8.394
 5416W        W 9467   5.430   9.506   1.428
 5417W        W 9468   5.507   8.939  10.347
 5418W        W 9469   6.032   4.529   9.685
 5419W        W 9470   2.898   8.127  11.467
 5420W        W 9471   8.476  11.266   8.727
 5421W        W 9472   0.838   2.360  10.805
 5422W        W 9473   9.454   4.545   0.494
 5423W        W 9474   2.435   3.229   2.293
 5424W        W 9475  10.074   2.256   2.284
 5425W        W 9476   7.268   6.155   8.748
 5426W        W 9477  10.685   0.295   2.749
 5427W        W 9478   7.565   0.452   1.443
 5428W        W 9479   7.631   9.942   9.283
 5429W        W 9480   3.659   2.695   2.850
 5430W        W 9481  10.360   6.059   9.015
 5431W        W 9482   0.388   3.716   9.420
 5432W        W 9483   8.742   6.357  10.000
 5433W        W 9484  10.975   4.580   9.951
 5434W        W 9485   5.035   4.749   0.672
 5435W        W 9486   3.846   9.885   3.027
 5436W        W 9487   9.014   3.794   2.907
 5437W        W 9488   2.156   0.920   2.666
 5438W        W 9489   7.040   5.504   1.550
 5439W        W 9490   0.021   6.144   0.534
 5440W        W 9491   4.650   9.844   3.133
 5441W        W 9492  10.678   3.098  11.541
 5442W        W 9493   9.890   2.244   9.556
 5443W        W 9494   3.157   4.247   8.856
 5444W        W 9495  10.036   0.367  11.333
 5445W        W 9496   8.043   2.656   3.352
 5446W        W 9497   3.934   5.251  11.084
 5447W        W 9498   1.160   4.247  10.301
 5448W        W 9499   0.452   1.213   2.090
 5449W        W 9500   4.313   0.260  11.511
 5450W        W 9501   3.355   0.336  10.416
 5451W        W 9502   5.873   0.524   1.751
 5452W        W 9503   5.264   7.893   2.228
 5453W        W 9504   4.652   8.519  11.930
 5454W        W 9505   8.430   7.193   1.147
 5455W        W 9506   9.474   6.548   2.597
 5456W        W 9507   8.303   3.816   9.139
 5457W        W 9508   3.288   7.956  11.205
 5458W        W 9509   8.200   3.192   8.519
 5459W        W 9510   7.423   6.119   2.148
 5460W        W 9511  10.928   5.685   9.069
 5461W        W 9512   5.976   9.157   9.494
 5462W        W 9513   5.727  11.015  11.958
 5463W        W 9514   8.948   9.989   9.593
 5464W        W 9515   5.240   1.630   9.752
 5465W        W 9516   8.992   6.436   1.303
 5466W        W 9517   4.771   9.929   0.023
 5467W        W 9518   7.712   7.579  11.962
 5468W        W 9519   0.679   2.218   1.205
 5469W        W 9520  10.961   4.295   9.340
 5470W        W 9521  10.815  11.054   8.566
 5471W        W 9522   1.290   5.251   0.758
 5472W        W 9523   7.026   9.838   1.720
 5473W        W 9524   8.087   5.411  11.282
 5474W        W 9525   1.181   5.225  10.145
 5475W        W 9526   2.699   3.288   0.743
 5476W        W 9527   7.492  10.552   1.686
 5477W        W 9528  10.010  10.451  10.814
 5478W        W 9529   6.281   6.653   2.201
 5479W        W 9530  10.277   9.184   2.274
 5480W        W 9531   2.401   2.298   1.818
 5481W        W 9532   8.852   7.639   0.785
 5482W        W 9533  10.957   4.710   1.192
 5483W        W 9534   9.809  10.983  11.793
 5484W        W 9535  11.134   2.239  11.932
 5485W        W 9536   3.902   1.599  11.486
 5486W        W 9537  11.489   4.161   8.529
 5487W        W 9538   7.578   7.076  11.804
 5488W        W 9539   5.944   2.757   1.867
 5489W        W 9540   1.826  10.878   2.116
 5490W        W 9541   6.067  10.577   3.700
 5491W        W 9542   8.741   8.945  11.573
 5492W        W 9543  10.506   4.085   3.638
 5493W        W 9544   4.598   0.457  10.426
 5494W        W 9545   5.235   0.847   2.442
 5495W        W 9546   7.367   7.630   3.226
 5496W        W 9547   9.656   2.632   2.829
 5497W        W 9548   1.811   0.417   8.492
 5498W        W 9549   8.060   6.835  10.376
 5499W        W 9550   9.313   1.110   8.538
 5500W        W 9551   6.908   2.478  11.525
 5501W        W 9552   8.626   0.748  10.676
 5502W        W 9553   0.786   7.701   8.888
 5503W        W 9554   2.183   3.636  11.816
 5504W        W 9555   9.434  10.827  10.808
 5505W        W 9556   8.880   4.337   1.742
 5506W        W 9557   4.845   7.123   8.946
 5507W        W 9558   5.312   8.295   2.620
 5508W        W 9559   0.500   3.194   9.281
 5509W        W 9560  10.526   6.136   0.343
 5510W        W 9561  10.915   6.643   9.089
 5511W        W 9562   0.960   6.159   0.434
 5512W        W 9563   5.858   1.375   0.240
 5513W        W 9564   1.324   8.940   1.496
 5514W        W 9565   7.708   2.472   1.271
 5515W        W 9566   2.718   3.014   8.792
 5516W        W 9567   9.468   9.161   0.351
 5517W        W 9568   3.678   0.866  11.831
 5518W        W 9569  10.099   5.177   0.843
 5519W        W 9570  11.078   7.395   2.017
 5520W        W 9571   1.600   8.067   8.871
 5521W        W 9572   1.569   2.888  11.947
 5522W        W 9573   4.156   1.268   9.500
 5523W        W 9574   6.081   3.250  11.618
 5524W        W 9575   6.151   6.715   9.376
 5525W        W 9576  11.352   8.894   0.313
 5526W        W 9577   4.093   9.289   0.873
 5527W        W 9578   8.043   5.220   2.359
 5528W        W 9579   6.884   1.670  11.702
 5529W        W 9580   5.295   7.150  10.415
 5530W        W 9581   9.153   8.063   3.239
 5531W        W 9582   7.221   3.781  11.322
 5532W        W 9583   7.116   8.948   1.263
 5533W        W 9584   0.356   5.040   9.794
 5534W        W 9585   9.597   8.889   1.969
 5535W        W 9586   8.436   0.289  10.881
 5536W        W 9587   3.675   4.582   1.072
 5537W        W 9588   6.133   0.319   9.819
 5538W        W 9589   1.516   5.677   0.935
 5539W        W 9590   4.417   0.829   9.600
 5540W        W 9591   3.713   3.629   0.255
 5541W        W 9592   8.785  10.318   0.633
 5542W        W 9593   0.762   4.627   8.625
 5543W        W 9594   2.654   6.443   1.863
 5544W        W 9595   0.707   6.542   8.444
 5545W        W 9596   3.181  11.499   1.905
 5546W        W 9597   9.456   9.758   0.723
 5547W        W 9598   4.489   4.329   1.226
 5548W        W 9599   8.211   3.228   2.633
 5549W        W 9600   7.811   9.071   2.078
 5550W        W 9601   8.572   8.666   0.436
 5551W        W 9602   0.805   8.348  11.822
 5552W        W 9603   9.583   5.550  10.371
 5553W        W 9604   1.292   8.305   3.193
 5554W        W 9605   5.579  10.826  10.101
 5555W        W 9606   5.061   7.612  10.531
 5556W        W 9607   2.021   2.488   8.520
 5557W        W 9608   7.691   8.577   1.372
 5558W        W 9609   5.098  10.472   2.820
 5559W        W 9610  10.990   6.650   0.839
 5560W        W 9611   2.318   2.275  11.981
 5561W        W 9612   9.981   7.642   2.789
 5562W        W 9613   3.674   1.705   8.855
 5563W        W 9614  10.340   7.123  11.063
 5564W        W 9615   2.317   0.960   1.676
 5565W        W 9616   2.589  11.065  11.351
 5566W        W 9617   5.584   0.883  10.994
 5567W        W 9618   4.418   9.845   9.318
 5568W        W 9619   6.447   6.567   0.153
 5569W        W 9620  10.839   3.054   2.009
 5570W        W 9621  10.443   1.119   9.320
 5571W        W 9622   5.959   5.740   9.191
 5572W        W 9623   2.237   2.334   2.827
 5573W        W 9624   8.098   7.837   2.553
 5574W        W 9625   7.509  10.988  11.986
 5575W        W 9626  11.367   8.545   2.790
 5576W        W 9627   4.869   3.979  11.220
 5577W        W 9628   5.606   1.939   1.484
 5578W        W 9629   0.374   2.679   2.844
 5579W        W 9630   7.653  11.368   9.940
 5580W        W 9631   7.747   8.932  11.095
 5581W        W 9632   5.967   3.974   2.377
 5582W        W 9633   5.225   7.437   0.485
 5583W        W 9634   8.177   1.933   1.730
 5584W        W 9635   8.663   8.089   8.588
 5585W        W 9636   5.058   9.343   0.016
 5586W        W 9637   6.970   4.136   3.468
 5587W        W 9638   6.509   7.336   1.491
 5588W        W 9639   6.198   0.451   3.323
 5589W        W 9640   0.394   3.578   0.168
 5590W        W 9641   7.777   7.123  10.708
 5591W        W 9642   0.081   9.787   0.254
 5592W        W 9643   9.057   2.792   0.305
 5593W        W 9644   8.154   1.655   0.376
 5594W        W 9645   2.176   3.877   9.719
 5595W        W 9646   9.583   9.556   8.581
 5596W        W 9647   3.358   8.297   8.420
 5597W        W 9648   5.474   4.390   9.129
 5598W        W 9649   0.784  10.580  11.144
 5599W        W 9650   8.944   8.590  10.229
 5600W        W 9651   5.629   7.572   1.447
 5601W        W 9652   4.268   4.058  10.731
 5602W        W 9653   4.807   1.731  10.011
 5603W        W 9654   8.564   6.702  10.354
 5604W        W 9655   4.045   9.097  10.181
 5605W        W 9656   3.829   5.287   0.784
 5606W        W 9657   8.823  10.021   3.490
 5607W        W 9658   3.677   5.888  11.647
 5608W        W 9659  10.933   3.133   3.458
 5609W        W 9660   4.768   2.617   2.748
 5610W        W 9661   4.065   0.910   2.677
 5611W        W 9662  10.317  10.498   1.057
 5612W        W 9663   3.855   4.891  11.820
 5613W        W 9664   8.616   4.463  10.839
 5614W        W 9665  10.846   0.347   1.861
 5615W        W 9666   3.700   9.457  11.753
 5616W        W 9667  10.244  10.732   9.566
 5617W        W 9668   7.850   5.077   8.650
 5618W        W 9669   9.545   1.196  10.803
 5619W        W 9670   0.357  11.365  11.107
 5620W        W 9671   9.553   0.262   1.404
 5621W        W 9672  11.384   8.148   9.324
 5622W        W 9673   6.018   8.976  10.429
 5623W        W 9674   0.390   0.850   1.135
 5624W        W 9675   6.914   1.652   9.809
 5625W        W 9676   1.335   4.076  11.517
 5626W        W 9677   9.817   7.494   0.802
 5627W        W 9678   7.887   2.764   9.983
 5628W        W 9679   2.674   8.306  10.631
 5629W        W 9680   9.379   6.577   8.251
 5630W        W 9681  11.325   0.008   2.749
 5631W        W 9682   3.740  11.296   3.322
 5632W        W 9683   3.005   7.821   2.243
 5633W        W 9684   3.711   2.939   2.397
 5634W        W 9685   3.679   6.214   3.552
 5635W        W 9686  11.455   9.865   1.275
 5636W        W 9687   7.723   5.178   0.486
 5637W        W 9688   3.151   2.422   1.305
 5638W        W 9689   0.765   7.945   9.779
 5639W        W 9690   0.515   5.795   1.884
 5640W        W 9691   9.549   3.168   1.340
 5641W        W 9692   5.962   8.279   0.228
 5642W        W 9693   2.276   9.022   1.991
 5643W        W 9694   4.587  10.312   9.044
 5644W        W 9695   7.856  11.445   2.973
 5645W        W 9696   9.435   8.162   0.362
 5646W        W 9697   4.196   6.102  11.071
 5647W        W 9698   1.389   6.985  10.546
 5648W        W 9699   8.451   6.235  10.523
 5649W        W 9700   9.317   4.979  11.584
 5650W        W 9701   0.937   3.724   0.942
 5651W        W 9702   8.009   9.048   3.437
 5652W        W 9703   0.434   9.303   9.017
 5653W        W 9704   8.642   1.258   3.091
 5654W        W 9705   8.546   4.719   9.015
 5655W        W 9706   6.465   6.227  10.953
 5656W        W 9707   2.935   4.702  11.433
 5657W        W 9708   2.277   0.547   9.519
 5658W        W 9709   6.569  11.216   2.493
 5659W        W 9710   5.641   5.148   1.773
 5660W        W 9711   6.048   6.281   8.094
 5661W        W 9712   9.827  10.623   1.996
 5662W        W 9713   3.235   3.776   9.124
 5663W        W 9714   1.159   3.262   1.082
 5664W        W 9715   9.092  11.244   9.985
 5665W        W 9716   9.602   2.891  10.487
 5666W        W 9717   5.075   3.252   0.485
 5667W        W 9718   3.374   9.275   2.293
 5668W        W 9719   5.087   7.788   0.123
 5669W        W 9720   3.077   4.125  10.801
 5670W        W 9721   3.631   1.262   0.701
 5671W        W 9722   6.543   4.148   3.169
 5672W        W 9723   7.549   0.342  10.182
 5673W        W 9724   3.609  10.525  11.825
 5674W        W 9725   9.064   2.751   1.268
 5675W        W 9726   3.841  10.848   2.072
 5676W        W 9727   6.161   9.988   1.391
 5677W        W 9728   5.239   7.940   0.877
 5678W        W 9729   7.845   1.465   9.200
 5679W        W 9730   3.381   7.685   0.054
 5680W        W 9731   7.705   1.154  11.731
 5681W        W 9732   9.930  10.736   0.274
 5682W        W 9733   7.272   8.005   9.420
 5683W        W 9734   7.599   9.748  10.773
 5684W        W 9735   3.324   5.235   1.966
 5685W        W 9736   8.440   4.713  10.417
 5686W        W 9737   3.115   0.592   2.759
 5687W        W 9738  10.569   2.351   2.582
 5688W        W 9739  10.027   0.869   9.583
 5689W        W 9740  10.231   9.357   9.511
 5690W        W 9741   9.469   2.702   3.325
 5691W        W 9742   7.385   9.085  11.443
 5692W        W 9743   8.056   3.353   9.156
 5693W        W 9744   5.824   5.541   1.444
 5694W        W 9745   2.198   5.310   3.487
 5695W        W 9746   0.698   5.737   3.456
 5696W        W 9747   4.083   1.445  11.025
 5697W        W 9748   2.664   4.142   1.766
 5698W        W 9749   5.554   8.252   3.232
 5699W        W 9750   6.641   9.982   8.131
 5700W        W 9751   3.348   1.903   1.306
 5701W        W 9752   0.999  10.973   0.818
 5702W        W 9753   6.672   6.700   2.935
 5703W        W 9754   3.880   4.382   0.624
 5704W        W 9755   2.311   0.040   9.535
 5705W        W 9756   0.060  11.409   3.247
 5706W        W 9757   9.165   6.640   9.998
 5707W        W 9758   7.912   4.166   2.200
 5708W        W 9759   9.092   4.262   3.141
 5709W        W 9760   3.228   9.886   1.830
 5710W        W 9761   2.688   6.630   2.375
 5711W        W 9762  10.400   7.059  10.512
 5712W        W 9763   6.754   2.071   2.829
 5713W        W 9764   2.713   9.062  11.483
 5714W        W 9765   4.478   6.761   8.646
 5715W        W 9766   2.114   8.625  11.739
 5716W        W 9767   7.693   3.774  11.529
 5717W        W 9768  10.414   7.629  11.234
 5718W        W 9769   4.419   0.717   1.747
 5719W        W 9770   3.897   4.383  10.516
 5720W        W 9771  10.231  10.431   1.569
 5721W        W 9772   0.085   0.958   1.851
 5722W        W 9773   2.144   7.466   1.005
 5723W        W 9774   1.150   0.240  10.685
 5724W        W 9775  11.300   1.237   1.388
 5725W        W 9776   3.462   9.648   2.798
 5726W        W 9777   3.578   2.316   2.515
 5727W        W 9778   7.649   0.188   9.157
 5728W        W 9779   1.818   1.334   3.413
 5729W        W 9780   3.189   5.708  10.993
 5730W        W 9781   6.973   4.653   0.267
 5731W        W 9782  11.031   0.164   3.126
 5732W        W 9783   4.319   8.682  11.549
 5733W        W 9784   1.213   0.626  10.353
 5734W        W 9785   9.988   1.894  11.894
 5735W        W 9786   5.637   3.250   9.824
 5736W        W 9787   2.501   8.544   8.314
 5737W        W 9788   1.304   1.064  10.602
 5738W        W 9789  10.930   3.298   2.918
 5739W        W 9790   3.972   8.379   1.377
 5740W        W 9791   8.684   7.880  11.909
 5741W        W 9792   9.386   1.802   2.848
 5742W        W 9793   9.428   4.915   0.983
 5743W        W 9794   1.913   3.626   8.875
 5744W        W 9795  11.381   8.855   1.424
 5745W        W 9796   4.223   9.972   0.868
 5746W        W 9797   2.773   1.666   0.197
 5747W        W 9798   7.218   3.838  10.293
 5748W        W 9799   7.717   8.026  11.625
 5749W        W 9800   3.144   3.676   1.836
 5750W        W 9801   5.207   9.026   9.029
 5751W        W 9802  10.633   7.689  11.691
 5752W        W 9803   2.718  10.254   8.738
 5753W        W 9804   0.048   7.480  11.350
 5754W        W 9805   0.296   1.201  11.216
 5755W        W 9806  10.812  11.278   3.413
 5756W        W 9807   5.757   1.472   8.516
 5757W        W 9808   3.285   1.358   9.295
 5758W        W 9809   6.031   6.535   2.660
 5759W        W 9810  10.944   6.252   0.053
 5760W        W 9811   3.865   3.874  10.960
 5761W        W 9812  11.355   7.195   9.383
 5762W        W 9813   0.199   1.402  10.281
 5763W        W 9814   0.779   0.826   2.176
 5764W        W 9815   1.056   6.081  11.348
 5765W        W 9816   3.172   4.949   0.398
 5766W        W 9817   0.682   8.404   0.334
 5767W        W 9818   6.707  11.379   0.365
 5768W        W 9819   8.996   0.946   0.956
 5769W        W 9820  11.283   1.127   9.501
 5770W        W 9821   0.906   4.208   2.249
 5771W        W 9822   8.096   9.246   2.780
 5772W        W 9823   9.471   2.151   1.443
 5773W        W 9824   1.255   7.560  11.855
 5774W        W 9825   2.234   6.130   1.962
 5775W        W 9826   9.474   9.338   1.784
 5776W        W 9827  10.577   6.246  10.760
 5777W        W 9828   9.397   7.027   3.321
 5778W        W 9829   8.600   6.138   1.475
 5779W        W 9830   7.074   6.233   8.274
 5780W        W 9831   0.942   5.327  10.854
 5781W        W 9832   8.893   9.585   2.229
 5782W        W 9833  11.322   7.434   0.302
 5783W        W 9834   8.738   0.352   2.728
 5784W        W 9835   6.689   3.177  10.270
 5785W        W 9836   5.967   9.957   3.399
 5786W        W 9837   5.958   4.581   0.216
 5787W        W 9838   5.730   7.368   3.608
 5788W        W 9839   6.340   8.088  11.837
 5789W        W 9840  11.372   5.758   2.341
 5790W        W 9841  10.813  10.871   0.366
 5791W        W 9842   7.010   3.711  11.807
 5792W        W 9843   6.860   2.291   2.043
 5793W        W 9844   8.157  10.449   0.493
 5794W        W 9845   2.796   1.279   1.732
 5795W        W 9846   8.533   6.668   1.189
 5796W        W 9847   7.999  10.542   2.568
 5797W        W 9848   5.617  10.989   1.637
 5798W        W 9849  11.425   4.690   9.561
 5799W        W 9850   2.885   0.393   9.095
 5800W        W 9851  10.737   4.106  10.540
 5801W        W 9852   3.113   7.138  11.366
 5802W        W 9853   4.652  10.277   2.673
 5803W        W 9854   1.281  10.068   0.922
 5804W        W 9855   5.490   3.656   8.565
 5805W        W 9856   2.307   7.208   0.060
 5806W        W 9857   6.137   9.814  11.839
 5807W        W 9858   4.069   7.533  10.020
 5808W        W 9859   5.300   8.596   4.157
 5809W        W 9860   7.413   0.987   2.883
 5810W        W 9861   0.251   1.354   1.173
 5811W        W 9862   7.145   9.610   9.828
 5812W        W 9863  10.526   2.771  10.456
 5813W        W 9864  11.342   0.727   2.236
 5814W        W 9865   1.231  10.936   3.266
 5815W        W 9866   2.481  10.803   0.695
 5816W        W 9867   0.943   9.581   8.573
 5817W        W 9868   6.736   2.295   8.958
 5818W        W 9869   2.637   0.767  10.796
 5819W        W 9870   4.578   6.191   0.287
 5820W        W 9871   3.430   0.902   0.323
 5821W        W 9872   0.558   9.487  11.796
 5822W        W 9873   5.906   2.280   1.706
 5823W        W 9874   2.786   3.340   9.749
 5824W        W 9875   2.847  10.089  11.451
 5825W        W 9876   5.135   3.294   9.623
 5826W        W 9877   0.328   3.995   8.964
 5827W        W 9878   8.196   3.678  11.507
 5828W        W 9879   6.607   0.139   0.931
 5829W        W 9880   1.782   1.367   0.760
 5830W        W 9881  11.422  10.722   3.769
 5831W        W 9882   0.083   3.857  10.290
 5832W        W 9883  10.242   4.620   3.238
 5833W        W 9884  10.435   7.988   8.965
 5834W        W 9885   5.314   8.029  10.218
 5835W        W 9886   6.973   6.618   0.334
 5836W        W 9887  10.402   6.737  11.528
 5837W        W 9888   6.156   4.565   1.698
 5838W        W 9889  10.528   7.865   1.434
 5839W        W 9890   6.285   7.951  10.041
 5840W        W 9891   4.037   6.446   1.326
 5841W        W 9892   6.713   5.568   0.837
 5842W        W 9893   0.373   0.886   2.952
 5843W        W 9894   3.091   6.220  11.082
 5844W        W 9895   7.275   4.167   0.433
 5845W        W 9896  10.137  10.268   0.284
 5846W        W 9897   6.897   2.182   9.592
 5847W        W 9898  11.037   3.799   2.844
 5848W        W 9899   6.674   0.275  10.246
 5849W        W 9900   1.816   4.384  10.966
 5850W        W 9901  10.842   1.882   9.747
 5851W        W 9902   9.111   7.701   9.276
 5852W        W 9903   0.069   0.066   0.044
 5853W        W 9904   8.276   5.689  11.819
 5854W        W 9905   0.319   9.048   1.231
 5855W        W 9906   4.366   1.753  11.687
 5856W        W 9907   4.194   8.645  10.421
 5857W        W 9908   0.815   4.845  11.465
 5858W        W 9909   6.475   7.190  10.959
 5859W        W 9910   1.740   5.300   8.455
 5860W        W 9911   7.583   0.946   1.571
 5861W        W 9912   7.144   0.147   0.396
 5862W        W 9913   3.516  10.471   9.959
 5863W        W 9914   2.369   0.341   9.069
 5864W        W 9915   9.826  10.110   2.714
 5865W        W 9916   8.240   7.640  11.965
 5866W        W 9917   4.747   6.730   0.682
 5867W        W 9918   9.424   9.299   2.822
 5868W        W 9919  11.085   4.990  10.287
 5869W        W 9920   2.865   4.223   9.833
 5870W        W 9921   3.524   3.055  10.579
 5871W        W 9922  10.920   2.658  11.726
 5872W        W 9923   7.556   1.864   0.328
 5873W        W 9924   7.560   6.681  10.467
 5874W        W 9925   1.902   5.239  10.769
 5875W        W 9926   4.678   9.517  11.720
 5876W        W 9927   7.022   4.323   2.278
 5877W        W 9928   7.097   3.406  10.070
 5878W        W 9929   5.652   5.798   1.006
 5879W        W 9930   2.832   2.858   9.585
 5880W        W 9931  10.601   7.446   1.861
 5881W        W 9932  10.492   4.989   9.511
 5882W        W 9933   7.615  10.414  10.069
 5883W        W 9934   6.300   7.556  11.764
 5884W        W 9935   5.576   8.099  11.747
 5885W        W 9936   9.136   4.161   0.507
 5886W        W 9937  11.332   3.166   9.092
 5887W        W 9938   2.827   8.361  10.146
 5888W        W 9939   7.174   9.244   0.842
 5889W        W 9940   4.211   2.312   9.885
 5890W        W 9941   3.852   6.642   9.886
 5891W        W 9942  11.051   2.719   1.220
 5892W        W 9943   0.221   7.773   2.939
 5893W        W 9944   4.015   1.467  11.965
 5894W        W 9945   5.139   4.657  10.703
 5895W        W 9946   0.290  10.718   0.317
 5896W        W 9947   7.029   7.926  10.915
 5897W        W 9948   1.755   1.796   9.590
 5898W        W 9949  10.182   1.274   3.555
 5899W        W 9950  10.863   9.142   0.536
 5900W        W 9951   8.113   1.578   3.483
 5901W        W 9952   3.612   4.698   8.484
 5902W        W 9953   7.938  10.103  10.580
 5903W        W 9954   5.187   8.068   1.752
 5904W        W 9955   1.807   9.973   2.444
 5905W        W 9956   2.341   1.920   0.395
 5906W        W 9957   6.594   8.178   2.806
 5907W        W 9958   9.815   1.219   1.241
 5908W        W 9959   2.689   3.236   2.736
 5909W        W 9960   8.944   6.858  11.269
 5910W        W 9961   6.143   0.555  11.266
 5911W        W 9962   2.909  10.466   2.883
 5912W        W 9963   9.939  10.787   8.568
 5913W        W 9964   4.632   3.892   0.993
 5914W        W 9965   9.409   9.886   9.895
 5915W        W 9966   5.213   3.734   0.480
 5916W        W 9967   3.285   2.899   0.409
 5917W        W 9968   3.239   1.316   3.825
 5918W        W 9969   0.781  11.202   1.865
 5919W        W 9970   3.714   8.397   0.166
 5920W        W 9971   4.784   8.564  11.407
 5921W        W 9972   9.962  11.389  10.037
 5922W        W 9973   3.775   0.165   8.662
 5923W        W 9974   2.187   9.431   1.648
 5924W        W 9975   9.909   3.779   2.127
 5925W        W 9976  10.906   4.047   9.791
 5926W        W 9977   5.199   7.259   3.184
 5927W        W 9978   5.104   9.477   1.890
 5928W        W 9979   9.053   3.641   2.374
 5929W        W 9980   1.099  10.398   1.678
 5930W        W 9981   1.382   1.439   9.361
 5931W        W 9982   3.335   6.598   3.683
 5932W        W 9983  10.537   7.363   9.446
 5933W        W 9984   6.234   5.592  10.895
 5934W        W 9985  11.326   6.986  11.970
 5935W        W 9986   6.088   5.637   0.773
 5936W        W 9987   4.170   7.930  11.451
 5937W        W 9988   1.270  10.894  11.222
 5938W        W 9989   0.803   3.284  10.541
 5939W        W 9990   4.200   7.828   1.823
 5940W        W 9991   2.957   8.960  11.045
 5941W        W 9992  10.915   1.639   0.437
 5942W        W 9993   4.179   0.185  10.524
 5943W        W 9994   6.398   3.662   2.894
 5944W        W 9995   0.812   7.855   1.045
 5945W        W 9996   1.715   8.950  10.312
 5946W        W 9997   7.317   6.045  11.088
 5947W        W 9998   6.835   7.187   2.740
 5948W        W 9999   8.870   2.226   0.302
 5949W        W10000   2.527   7.799   0.741
 5950W        W10001   6.763   5.484  10.679
 5951W        W10002   9.004   8.079  11.062
 5952W        W10003   3.393   1.818  11.380
 5953W        W10004   8.166   5.386   9.860
 5954W        W10005   0.852  10.699  11.636
 5955W        W10006   2.567   7.556   2.287
 5956W        W10007   2.435   2.895   3.571
 5957W        W10008   1.469   1.204   2.304
 5958W        W10009   4.696   1.965   3.310
 5959W        W10010   5.961   4.695   1.225
 5960W        W10011   8.553  10.396  10.738
 5961W        W10012   2.743   7.404  11.785
 5962W        W10013   8.651   2.818   9.622
 5963W        W10014   7.588   9.889   9.780
 5964W        W10015   4.677   4.291   3.933
 5965W        W10016   4.760   8.827   9.967
 5966W        W10017  11.166   4.307   2.472
 5967W        W10018   8.065  10.514   9.836
 5968W        W10019   1.588   9.996   2.912
 5969W        W10020   1.381  11.441   9.517
 5970W        W10021   2.586   4.119   0.579
 5971W        W10022   9.994   2.080  11.008
 5972W        W10023   4.117  11.206   0.302
 5973W        W10024   8.513   7.618  11.490
 5974W        W10025   7.680   9.588   2.805
 5975W        W10026   3.771   2.462   3.324
 5976W        W10027   7.757   1.505  11.377
 5977W        W10028   7.678   3.115   1.979
 5978W        W10029   9.880   5.397  11.556
 5979W        W10030   2.805   5.264   4.153
 5980W        W10031   8.892   0.506  11.032
 5981W        W10032   4.782   9.937   8.718
 5982W        W10033   6.310   7.035  11.921
 5983W        W10034   9.640   3.349   0.883
 5984W        W10035   0.265   6.931   9.166
 5985W        W10036   9.329   0.172   1.871
 5986W        W10037   8.524   4.661   8.292
 5987W        W10038   9.543   8.639   9.420
 5988W        W10039   2.407   0.651   3.448
 5989W        W10040   2.354   1.398   1.957
 5990W        W10041   6.983   5.651   0.337
 5991W        W10042  10.856   1.682   1.927
 5992W        W10043   0.374   4.258   9.405
 5993W        W10044   5.019  11.342  11.980
 5994W        W10045   6.221   5.274  11.307
 5995W        W10046   5.115  10.449   0.884
 5996W        W10047   9.357   8.008  10.558
 5997W        W10048   0.823  11.080  11.296
 5998W        W10049   6.027   6.944  10.906
 5999W        W10050   8.910   1.825  10.785
 6000W        W10051   8.135   9.096   9.186
 6001W        W10052   7.238   2.227   1.715
 6002W        W10053   0.015   3.829   3.059
 6003W        W10054   8.956   2.108   2.638
 6004W        W10055   3.242   6.207   2.322
 6005W        W10056   8.002   1.929  10.558
 6006W        W10057   8.422   0.815   3.265
 6007W        W10058   5.526   8.046  11.227
 6008W        W10059   3.360   4.493  10.579
 6009W        W10060   4.911   0.156   1.764
 6010W        W10061   8.092   4.940   9.068
 6011W        W10062   6.716   1.351  10.553
 6012W        W10063   6.594   8.958   1.365
 6013W        W10064   0.317   6.551   8.790
 6014W        W10065   7.756   7.079   9.204
 6015W        W10066   8.832   8.492   9.727
 6016W        W10067  10.028  10.716   9.075
 6017W        W10068   6.074   4.162  11.884
 6018W        W10069   7.968   6.829   3.606
 6019W        W10070   9.181   4.784   3.138
 6020W        W10071   9.095   2.839   3.690
 6021W        W10072   5.092   9.960   0.671
 6022W        W10073   3.598   6.569   2.233
 6023W        W10074   3.259   7.049   3.408
 6024W        W10075  10.941  10.982  11.041
 6025W        W10076   1.673  10.409   9.561
 6026W        W10077  10.906   0.516   3.463
 6027W        W10078   6.555   7.496   0.492
 6028W        W10079   5.093  10.979   2.983
 6029W        W10080   5.132   2.323   2.301
 6030W        W10081  10.651   4.127   8.947
 6031W        W10082   2.277   2.793   2.036
 6032W        W10083   9.589   6.946  11.700
 6033W        W10084   3.569   6.871   8.982
 6034W        W10085  11.289  11.194   9.782
 6035W        W10086   3.778   8.880   0.919
 6036W        W10087   6.255   6.814   3.884
 6037W        W10088   5.992   3.397   0.643
 6038W        W10089   7.845   0.786   8.557
 6039W        W10090   3.495   6.573   3.188
 6040W        W10091   2.167   9.137  10.475
 6041W        W10092   5.005   2.426   0.781
 6042W        W10093   8.922   6.196   3.698
 6043W        W10094   2.010   9.443   3.591
 6044W        W10095   6.679  11.365   9.034
 6045W        W10096   1.203   7.876   8.567
 6046W        W10097   7.669   8.206   0.588
 6047W        W10098   4.874  10.727   9.175
 6048W        W10099  10.825   4.557   0.727
 6049W        W10100   6.481   9.051   9.599
 6050W        W10101   7.293   6.683   1.265
 6051W        W10102   2.131   8.256   8.518
 6052W        W10103   0.925   4.547   3.064
 6053W        W10104   4.248   9.098  10.672
 6054W        W10105   0.876   8.743   2.340
 6055W        W10106   1.944   4.693   9.073
 6056W        W10107   2.963   4.290   2.164
 6057W        W10108  11.221   8.909   2.452
 6058W        W10109   3.902   1.054   0.252
 6059W        W10110   2.294   2.780   1.030
 6060W        W10111   7.187  11.254  11.391
 6061W        W10112   8.989   4.932   8.284
 6062W        W10113   9.324   5.812   0.639
 6063W        W10114   9.347   6.170   2.941
 6064W        W10115   6.519  10.318   0.635
 6065W        W10116  10.603   4.385  10.947
 6066W        W10117   1.379  10.294   9.967
 6067W        W10118   5.742   0.887   0.519
 6068W        W10119   8.014  10.959   9.139
 6069W        W10120   8.056   9.528  11.356
 6070W        W10121   9.921   2.929   1.666
 6071W        W10122   0.296  10.864   3.136
 6072W        W10123   8.109   3.115   3.121
 6073W        W10124  10.296   7.461   9.003
 6074W        W10125   6.983   8.008   1.585
 6075W        W10126  11.432   8.335  11.673
 6076W        W10127   5.501   6.952   8.763
 6077W        W10128   7.021  10.346  11.759
 6078W        W10129   4.271   7.963   9.819
 6079W        W10130   8.396   6.117   2.939
 6080W        W10131   4.259   8.941   2.599
 6081W        W10132  11.371   4.282   9.870
 6082W        W10133   0.770   1.743   9.968
 6083W        W10134   7.129   8.369   9.896
 6084W        W10135   6.155   7.613   9.237
 6085W        W10136   1.398   0.225   9.996
 6086W        W10137   5.007  11.177   9.375
 6087W        W10138   7.451   5.705  10.251
 6088W        W10139   6.236   1.923   2.773
 6089W        W10140   2.575   2.142   3.463
 6090W        W10141   7.118   8.169   8.501
 6091W        W10142   4.129   1.681   1.714
 6092W        W10143   1.554   9.245   1.134
 6093W        W10144   8.500   5.432   2.199
 6094W        W10145   0.316   8.372   9.079
 6095W        W10146   8.774   0.440  11.867
 6096W        W10147  10.364   3.665   9.090
 6097W        W10148   6.443  11.497   3.438
 6098W        W10149   1.275   3.783   9.401
 6099W        W10150   5.939   3.473   2.468
 6100W        W10151   9.927   9.665   3.586
 6101W        W10152   4.633   5.735   0.015
 6102W        W10153   9.001   3.732  11.709
 6103W        W10154   8.981   7.104   9.975
 6104W        W10155   9.168  10.014   2.472
 6105W        W10156   6.099   2.451  10.439
 6106W        W10157   2.898   8.476   8.627
 6107W        W10158   9.003   9.824   9.082
 6108W        W10159   8.050   5.966   1.015
 6109W        W10160   5.561   2.804   0.022
 6110W        W10161   0.435   2.217   3.030
 6111W        W10162   6.460   9.517   2.774
 6112W        W10163   5.590   3.308  11.821
 6113W        W10164   3.525   1.422   0.206
 6114W        W10165   8.802   6.167   2.223
 6115W        W10166   4.562   8.530   2.438
 6116W        W10167   0.784   9.988   3.079
 6117W        W10168   5.586   9.289   0.970
 6118W        W10169   3.745   6.122   4.058
 6119W        W10170  10.097  10.773   2.416
 6120W        W10171   0.260  11.356   9.801
 6121W        W10172   6.050   7.583   9.755
 6122W        W10173   2.744   5.166   8.604
 6123W        W10174   2.403   5.751   0.727
 6124W        W10175   5.641   1.815  10.010
 6125W        W10176   6.534   0.736   2.254
 6126W        W10177   1.273   9.200   8.452
 6127W        W10178   8.181   8.658  10.957
 6128W        W10179   3.663   4.828  10.370
 6129W        W10180  11.065   6.982   0.439
 6130W        W10181   2.506   5.243   1.501
 6131W        W10182   4.767   2.332   3.678
 6132W        W10183   9.486   3.130   0.428
 6133W        W10184   7.425   9.538   1.522
 6134W        W10185  10.498   4.046   9.433
 6135W        W10186   8.489   5.699   1.195
 6136W        W10187   4.669   9.546   2.202
 6137W        W10188   8.899  11.272  11.480
 6138W        W10189   6.606  10.010  11.866
 6139W        W10190   2.457   5.264   1.994
 6140W        W10191   7.452   1.673  10.083
 6141W        W10192   9.580   5.179   2.015
 6142W        W10193   7.130  11.347  11.911
 6143W        W10194   7.861   2.324   0.377
 6144W        W10195   0.389   2.610  11.561
 6145W        W10196   8.553   6.578   0.367
 6146W        W10197   0.774   1.852   2.829
 6147W        W10198   0.888   8.092  10.289
 6148W        W10199   1.822   0.982  11.790
 6149W        W10200   4.092   9.421   9.480
 6150W        W10201   4.346   9.837   1.352
 6151W        W10202   6.195  11.425   2.161
 6152W        W10203   1.700  10.646  11.170
 6153W        W10204  10.549   9.960   0.275
 6154W        W10205   3.985   6.600   3.392
 6155W        W10206  11.145   3.041   0.429
 6156W        W10207   1.698   6.199  10.742
 6157W        W10208  10.921   8.576   9.863
 6158W        W10209  10.633  10.515   3.098
 6159W        W10210   5.308   2.194   1.161
 6160W        W10211   4.386   4.410   0.726
 6161W        W10212   6.906   2.910  10.794
 6162W        W10213   9.583  11.050   2.635
 6163W        W10214   6.839   3.825   9.930
 6164W        W10215   9.867   3.899   3.083
 6165W        W10216   6.007   2.751   2.381
 6166W        W10217   4.787   0.488   0.370
 6167W        W10218   1.816   1.174   0.281
 6168W        W10219   9.092   4.803   1.822
 6169W        W10220  10.279   0.372   1.875
 6170W        W10221   7.973   7.209   0.865
 6171W        W10222   6.941  10.865   3.149
 6172W        W10223   6.192   7.930  10.552
 6173W        W10224   9.448   9.483  10.432
 6174W        W10225   3.872   9.852   9.329
 6175W        W10226   8.571   8.051   9.937
 6176W        W10227   3.379   0.931  11.399
 6177W        W10228   3.886   5.897   8.736
 6178W        W10229   8.531   9.007   8.864
 6179W        W10230   7.105   4.170   1.362
 6180W        W10231  11.433  11.034   1.850
 6181W        W10232   3.809   8.782   2.762
 6182W        W10233   0.856   0.541   9.371
 6183W        W10234   8.886   0.814   1.456
 6184W        W10235   4.169   1.857  10.689
 6185W        W10236   6.429  10.316   1.132
 6186W        W10237   0.951  10.151   2.105
 6187W        W10238   6.952  10.461  10.361
 6188W        W10239   7.782   2.275   1.753
 6189W        W10240   4.665   1.632   1.725
 6190W        W10241   0.900   8.901   1.855
 6191W        W10242   5.024   3.744   2.324
 6192W        W10243   4.640   0.152   9.044
 6193W        W10244   8.174   3.703  10.529
 6194W        W10245  10.784   6.418  11.589
 6195W        W10246  10.762   5.983   8.688
 6196W        W10247   1.853   9.367   0.316
 6197W        W10248   7.297  10.520   0.728
 6198W        W10249   7.360   6.616   1.979
 6199W        W10250  11.393   3.450   0.176
 6200W        W10251   9.168  10.752   2.639
 6201W        W10252   7.412   9.582  11.389
 6202W        W10253   2.332   8.083  10.238
 6203W        W10254  11.472   4.311  11.226
 6204W        W10255   4.480   3.714   3.275
 6205W        W10256   8.857   4.233   0.925
 6206W        W10257   9.082   1.753   9.268
 6207W        W10258   1.349   2.353  10.680
 6208W        W10259   3.071   0.805   3.987
 6209W        W10260  11.071   5.994   1.955
 6210W        W10261   8.051   4.561   1.683
 6211W        W10262   6.772  10.014   9.156
 6212W        W10263   2.163   0.455  10.414
 6213W        W10264   2.348   2.838   1.532
 6214W        W10265   3.349   9.874  11.007
 6215W        W10266   5.082  10.346   8.838
 6216W        W10267   5.602   7.428   2.933
 6217W        W10268  11.148   4.008   8.890
 6218W        W10269   8.943   7.081   9.071
 6219W        W10270   1.519   7.313   1.426
 6220W        W10271   9.476   0.531   2.250
 6221W        W10272  10.978   5.268   0.925
 6222W        W10273   7.444   4.129   3.690
 6223W        W10274   5.081   9.546  10.575
 6224W        W10275   9.521   7.110   8.823
 6225W        W10276   9.401   8.903   2.471
 6226W        W10277  10.114   7.636   9.474
 6227W        W10278   4.645  10.714   0.819
 6228W        W10279  11.319   1.751   2.163
 6229W        W10280   7.283   6.778  10.030
 6230W        W10281   5.484   1.961  11.015
 6231W        W10282   6.593   9.507   0.028
 6232W        W10283   8.138   8.807   2.471
 6233W        W10284   7.091   7.504   1.814
 6234W        W10285   4.182   6.141   0.657
 6235W        W10286  10.781   3.981   2.373
 6236W        W10287   4.769   3.475  11.282
 6237W        W10288   9.359   5.069   9.498
 6238W        W10289  11.047   8.383   1.706
 6239W        W10290   7.905   8.278   1.781
 6240W        W10291   2.985   6.634   3.291
 6241W        W10292   0.919   9.659   3.444
 6242W        W10293  10.751   9.761   2.782
 6243W        W10294   2.225   5.741   2.743
 6244W        W10295   1.250   3.322   0.580
 6245W        W10296   3.413   2.883   1.293
 6246W        W10297   9.571   6.609   8.723
 6247W        W10298   7.437   6.228   1.640
 6248W        W10299  10.415   9.961  11.379
 6249W        W10300   2.548  10.440   9.191
 6250W        W10301   0.651   7.886  11.367
 6251W        W10302  11.374  10.321  10.646
 6252W        W10303   8.902  10.963  11.908
 6253W        W10304   4.699   6.730   2.030
 6254W        W10305   3.650   0.121   1.749
 6255W        W10306   8.965   3.582   3.394
 6256W        W10307   7.068   1.191   0.326
 6257W        W10308   4.641   9.332   3.083
 6258W        W10309   3.201  10.880   9.865
 6259W        W10310   3.970   5.820   9.951
 6260W        W10311   5.883   4.148   1.910
 6261W        W10312   5.494   9.845  10.477
 6262W        W10313   3.644   8.898   1.440
 6263W        W10314  11.416   0.241   9.043
 6264W        W10315   2.831   7.909  10.390
 6265W        W10316  11.035   1.653   8.785
 6266W        W10317   2.164   4.409   1.954
 6267W        W10318   9.392   7.210   8.327
 6268W        W10319   4.222   4.171   9.892
 6269W        W10320   1.393   9.956  10.754
 6270W        W10321   7.669   3.764   0.335
 6271W        W10322   9.387   6.200  10.007
 6272W        W10323  11.142   8.863   1.909
 6273W        W10324   8.650  10.855  11.326
 6274W        W10325   4.813   1.270   9.787
 6275W        W10326   7.530   4.515   2.350
 6276W        W10327   4.951   4.554   0.215
 6277W        W10328   9.147   1.312   9.527
 6278W        W10329  10.748   9.157  10.471
 6279W        W10330   0.615   7.866   3.647
 6280W        W10331   0.675   3.178   8.594
 6281W        W10332   2.149   8.425  11.261
 6282W        W10333  11.426  10.833  10.632
 6283W        W10334   4.992   3.525  10.051
 6284W        W10335   7.683   5.976  11.941
 6285W        W10336   4.329  11.447   1.237
 6286W        W10337   0.362   7.652  10.977
 6287W        W10338   1.657   7.451  10.491
 6288W        W10339   6.247   7.619   8.713
 6289W        W10340   7.116   8.673  10.314
 6290W        W10341   5.620  11.465   9.910
 6291W        W10342   8.532   1.936  10.438
 6292W        W10343   3.032  11.401  11.627
 6293W        W10344  11.014   2.163  10.174
 6294W        W10345   1.733   6.894   1.726
 6295W        W10346   3.400   0.241   9.906
 6296W        W10347  10.921   3.107   8.790
 6297W        W10348   8.398   1.792  11.959
 6298W        W10349   1.910   8.567   8.947
 6299W        W10350   4.190   7.464   2.245
 6300W        W10351   7.236   1.234   9.902
 6301W        W10352   4.217  11.032   9.809
 6302W        W10353   5.769   6.727  11.493
 6303W        W10354   5.162   5.539   0.755
 6304W        W10355   6.781   3.429   1.071
 6305W        W10356   0.503   5.171   2.515
 6306W        W10357  10.865  11.362   9.546
 6307W        W10358   7.480   9.613  11.939
 6308W        W10359   8.892   6.910   3.332
 6309W        W10360   9.544   0.943   2.594
 6310W        W10361   2.186   7.133   1.867
 6311W        W10362  10.982   5.125   1.913
 6312W        W10363   4.551   0.801   2.855
 6313W        W10364   0.275  10.523   9.218
 6314W        W10365   2.952   6.739  10.340
 6315W        W10366   1.968   4.785   8.538
 6316W        W10367   0.979  10.466   3.170
 6317W        W10368   9.806  10.986   9.436
 6318W        W10369   1.897   9.583  10.070
 6319W        W10370  11.337   2.710   0.053
 6320W        W10371   8.409   6.377   9.606
 6321W        W10372   8.060  10.945   8.630
 6322W        W10373   8.361   8.026   1.767
 6323W        W10374   2.146   6.743   3.129
 6324W        W10375   1.146   5.818   9.164
 6325W        W10376   2.729   5.087   9.532
 6326W        W10377   3.136   0.383  11.444
 6327W        W10378   1.782   5.968   0.185
 6328W        W10379   6.217  11.248   0.171
 6329W        W10380   0.473   9.945   1.326
 6330W        W10381   1.221  10.404  11.384
 6331W        W10382   0.438   5.287   3.501
 6332W        W10383   6.259   1.088   0.204
 6333W        W10384   0.029   1.310   2.874
 6334W        W10385   3.163  10.989   8.911
 6335W        W10386   5.560  11.435  10.829
 6336W        W10387   3.755  10.736   0.840
 6337W        W10388   5.074   5.049   0.032
 6338W        W10389   0.908   6.272   9.025
 6339W        W10390   0.822  10.174   3.575
 6340W        W10391   9.166   2.131  10.081
 6341W        W10392   0.217   5.635  11.223
 6342W        W10393   9.894   2.889   0.639
 6343W        W10394   8.572   8.499   3.022
 6344W        W10395  10.437   1.469   0.512
 6345W        W10396   6.133   6.921   0.399
 6346W        W10397   4.646  10.596   2.251
 6347W        W10398   1.799   7.247   9.778
 6348W        W10399  10.282   9.132   3.203
 6349W        W10400   9.955   1.807   9.279
 6350W        W10401   4.614  11.304  10.047
 6351W        W10402   7.029   1.065   8.889
 6352W        W10403   8.827   5.299   2.740
 6353W        W10404   2.660   1.734   3.176
 6354W        W10405   3.117   3.347   8.856
 6355W        W10406   0.835   4.840   9.994
 6356W        W10407   9.860   5.677  11.119
 6357W        W10408   2.679   9.589   8.940
 6358W        W10409   2.750   7.524   8.298
 6359W        W10410   3.149   6.264   0.790
 6360W        W10411   4.055   5.147   2.539
 6361W        W10412  10.371   7.916   1.919
 6362W        W10413   8.998   4.705   0.785
 6363W        W10414   7.100  10.323   1.896
 6364W        W10415   5.201   1.675   0.266
 6365W        W10416   7.043   2.454   0.806
 6366W        W10417   4.408   9.583   9.845
 6367W        W10418   5.655   3.594   1.176
 6368W        W10419   3.242   2.136   0.868
 6369W        W10420   2.335   8.922   0.941
 6370W        W10421  10.873   1.772  11.902
 6371W        W10422   7.914   8.914   8.734
 6372W        W10423   4.118   6.157  11.603
 6373W        W10424   2.034   9.320  10.951
 6374W        W10425   0.684   8.837   0.028
 6375W        W10426   7.378   5.549  11.985
 6376W        W10427   3.324   5.782   0.847
 6377W        W10428   0.478   6.199   2.201
 6378W        W10429   0.460   6.096  11.262
 6379W        W10430   1.791   6.035   1.172
 6380W        W10431   8.621   3.746   9.553
 6381W        W10432   9.607   5.254   9.904
 6382W        W10433   0.341   7.485   3.410
 6383W        W10434  10.515   0.446  11.182
 6384W        W10435  11.102   6.965   1.254
 6385W        W10436   3.429  10.012   0.443
 6386W        W10437   0.458   2.169   0.743
 6387W        W10438   3.479   5.246  10.184
 6388W        W10439   1.826   1.882   2.191
 6389W        W10440  10.789   7.035   3.550
 6390W        W10441   6.348   3.633  10.117
 6391W        W10442   0.726  10.674   8.516
 6392W        W10443   7.194   8.456   1.426
 6393W        W10444   3.348   4.412   0.565
 6394W        W10445   4.534   6.726  10.445
 6395W        W10446   6.485   4.691  10.985
 6396W        W10447   9.340  11.397   8.917
 6397W        W10448   8.363   7.415   3.254
 6398W        W10449  10.789   0.784   2.911
 6399W        W10450   9.505   9.177  11.410
 6400W        W10451   9.922   5.740   1.468
 6401W        W10452  10.709   7.630   0.993
 6402W        W10453   8.938  10.396  11.314
 6403W        W10454   5.234   1.653  10.289
 6404W        W10455   6.836   3.207   3.459
 6405W        W10456   0.228   5.533   8.827
 6406W        W10457   1.672   5.795  11.727
 6407W        W10458   9.021   0.266   2.313
 6408W        W10459   2.146   5.684   1.195
 6409W        W10460   1.462   2.381   0.586
 6410W        W10461  10.398   8.087   9.475
 6411W        W10462   0.469   0.773  10.986
 6412W        W10463  11.073  11.078   0.755
 6413W        W10464   1.914   2.721   0.703
 6414W        W10465   7.126  11.289  10.888
 6415W        W10466  10.262   9.600   0.918
 6416W        W10467   7.860   2.785  10.855
 6417W        W10468   5.544   6.214   0.654
 6418W        W10469   9.416   3.079   1.815
 6419W        W10470   6.041   8.476   8.996
 6420W        W10471  11.496   6.097  11.459
 6421W        W10472  10.930   0.453  11.553
 6422W        W10473   9.223   9.321   0.787
 6423W        W10474   5.151   9.429   0.530
 6424W        W10475   6.250   8.674   3.120
 6425W        W10476   5.556   4.526  10.975
 6426W        W10477   5.456   0.745   1.486
 6427W        W10478   9.307   2.299   2.986
 6428W        W10479   1.280   8.424   2.366
 6429W        W10480   4.244   3.106  11.958
 6430W        W10481   1.009   2.184   9.864
 6431W        W10482   1.820   7.801   0.373
 6432W        W10483   4.077   2.233   0.375
 6433W        W10484   2.814   8.517   9.129
 6434W        W10485   8.593  10.819   1.432
 6435W        W10486   7.937   8.896  10.580
 6436W        W10487   8.614   8.092   0.673
 6437W        W10488   6.998   7.943   2.086
 6438W        W10489   7.203   1.917   2.142
 6439W        W10490  11.257   3.234   2.298
 6440W        W10491   8.494   2.905   2.278
 6441W        W10492   4.193   9.570   3.216
 6442W        W10493   3.084   4.235   9.365
 6443W        W10494  10.417   1.626   9.465
 6444W        W10495   9.911   2.592  10.792
 6445W        W10496   2.810   9.696  10.437
 6446W        W10497   0.637   8.158   8.720
 6447W        W10498   3.708   8.691   8.229
 6448W        W10499   2.309   5.932  11.416
 6449W        W10500  11.443   7.977  10.330
 6450W        W10501  10.564   2.635  11.354
 6451W        W10502   3.923   9.573   9.950
 6452W        W10503   2.371   4.359   2.727
 6453W        W10504  11.278   6.526  11.750
 6454W        W10505  10.755  10.248   2.692
 6455W        W10506   9.322   5.253   2.903
 6456W        W10507   0.275   6.969   3.446
 6457W        W10508   5.505   0.278   9.144
 6458W        W10509   3.201   7.629   9.472
 6459W        W10510  11.480  10.763  11.551
 6460W        W10511   8.172   9.971   8.499
 6461W        W10512   1.087   1.886   1.890
 6462W        W10513   5.163   4.140  11.605
 6463W        W10514   5.688   5.253   2.269
 6464W        W10515   1.312   2.670   2.489
 6465W        W10516   9.969   1.271  10.539
 6466W        W10517   9.842   0.712  10.050
 6467W        W10518   4.039   8.461   2.423
 6468W        W10519   8.827   0.536   0.356
 6469W        W10520   8.964   4.589  10.462
 6470W        W10521   4.968   2.136   2.764
 6471W        W10522   8.230  10.027  11.409
 6472W        W10523  10.707   9.478   0.170
 6473W        W10524   1.541   0.679  10.856
 6474W        W10525   7.418   6.587  10.949
 6475W        W10526   8.542   6.546   3.652
 6476W        W10527   3.885   3.024   3.170
 6477W        W10528   9.434   0.156  11.809
 6478W        W10529   8.384   8.599  11.439
 6479W        W10530   4.763   5.695   1.043
 6480W        W10531   0.673  10.404   2.760
 6481W        W10532  10.492   6.511   8.805
 6482W        W10533   0.462   3.662   0.674
 6483W        W10534   0.690   2.171   9.438
 6484W        W10535   1.238   0.756   2.355
 6485W        W10536  10.555   9.290  11.706
 6486W        W10537   4.903   8.344   3.392
 6487W        W10538   7.610   7.522   9.898
 6488W        W10539   1.675   1.966  10.924
 6489W        W10540   4.636   7.550   0.115
 6490W        W10541   0.811  10.191  11.653
 6491W        W10542   2.112   3.319   0.719
 6492W        W10543   0.466  11.408   1.451
 6493W        W10544   1.860   5.534  11.321
 6494W        W10545   4.939   4.090   1.950
 6495W        W10546   3.786   7.034   1.008
 6496W        W10547  10.638   5.871   2.849
 6497W        W10548   8.215   4.374   0.292
 6498W        W10549   0.809   8.877   9.725
 6499W        W10550   7.391  11.329   3.132
 6500W        W10551   9.104   1.864   0.612
 6501W        W10552   9.491  11.266   3.325
 6502W        W10553   2.723   7.662   1.190
 6503W        W10554   6.955   5.009   1.647
 6504W        W10555  11.405   3.408   0.684
 6505W        W10556   2.475   7.084   1.076
 6506W        W10557   0.310   0.666   0.638
 6507W        W10558   5.241   9.952   9.640
 6508W        W10559   3.608   3.036   1.907
 6509W        W10560   5.657   5.339   0.802
 6510W        W10561   7.395   9.413   2.413
 6511W        W10562   1.486   2.313  10.195
 6512W        W10563   3.626   6.561   8.571
 6513W        W10564   2.051   7.431   2.359
 6514W        W10565  11.272  10.045   2.717
 6515W        W10566   4.572   1.352   2.246
 6516W        W10567   6.964   4.187   0.020
 6517W        W10568   0.722   5.356   9.987
 6518W        W10569   6.685   1.706  11.191
 6519W        W10570   8.510  11.362   3.232
 6520W        W10571   7.143   1.995   0.626
 6521W        W10572   1.445   0.716   0.039
 6522W        W10573   7.767   9.918  11.221
 6523W        W10574   4.104   0.455  11.994
 6524W        W10575   8.081   8.197   9.965
 6525W        W10576   0.358   6.495   3.792
 6526W        W10577   4.543   5.741  11.497
 6527W        W10578   4.029  10.530   9.757
 6528W        W10579   5.672   2.340  10.742
 6529W        W10580   8.861   9.298   9.271
 6530W        W10581   1.868   6.947   2.237
 6531W        W10582   0.399  10.823  11.825
 6532W        W10583   3.057  10.862  11.273
 6533W        W10584   0.796   9.961  10.562
 6534W        W10585   2.536   5.367   8.163
 6535W        W10586   6.629   6.699  11.295
 6536W        W10587   3.185   3.293  10.927
 6537W        W10588  10.837  10.296  11.785
 6538W        W10589   1.282  11.184   2.783
 6539W        W10590   3.762  10.951  10.525
 6540W        W10591   7.579   1.974  11.388
 6541W        W10592   4.027  11.456  11.822
 6542W        W10593   0.878   0.831   1.293
 6543W        W10594   1.879   8.633   9.480
 6544W        W10595   3.640   6.172   0.985
 6545W        W10596   9.771   1.695  10.747
 6546W        W10597   3.279   5.603  11.967
 6547W        W10598   0.594   7.259   2.156
 6548W        W10599   5.793   7.007   2.664
 6549W        W10600   9.770  11.414  11.498
 6550W        W10601   5.278   6.708   1.366
 6551W        W10602   6.237   4.127   4.118
 6552W        W10603   1.558   5.972  11.256
 6553W        W10604   6.567   6.907   1.211
 6554W        W10605   7.138   7.651  10.429
 6555W        W10606   6.524   7.746  10.976
 6556W        W10607   4.202  10.997   2.958
 6557W        W10608   7.090   0.837  10.787
 6558W        W10609   5.944  11.497   9.466
 6559W        W10610   5.869   9.528   9.832
 6560W        W10611   3.815   8.957   2.294
 6561W        W10612   4.169   6.249   3.754
 6562W        W10613   1.277   2.797   0.369
 6563W        W10614  10.552   2.374  10.039
 6564W        W10615   0.331  11.453   2.793
 6565W        W10616   0.352   7.252   1.695
 6566W        W10617   3.181   2.116  11.964
 6567W        W10618   2.886   2.797  11.412
 6568W        W10619   5.467   9.232   3.192
 6569W        W10620   9.964   8.386   2.396
 6570W        W10621  10.851  11.146   1.673
 6571W        W10622   1.722   9.182   3.131
 6572W        W10623   2.334  11.091  10.466
 6573W        W10624   7.482   0.969   0.566
 6574W        W10625   1.633   1.319  11.437
 6575W        W10626   6.674   3.128   2.446
 6576W        W10627   2.146   6.564   8.675
 6577W        W10628   2.858   6.232  10.607
 6578W        W10629   4.196   3.533  10.771
 6579W        W10630   6.425   3.136   8.493
 6580W        W10631   2.295   2.465  10.573
 6581W        W10632   1.612   7.040   9.364
 6582W        W10633  11.246   7.623   2.695
 6583W        W10634   9.255   0.683   0.569
 6584W        W10635   1.746   8.663   2.255
 6585W        W10636   5.116  11.300   9.875
 6586W        W10637   2.219   9.480   9.145
 6587W        W10638  10.047   3.378   1.874
 6588W        W10639   8.778   3.348  11.964
 6589W        W10640   4.246   0.078   9.847
 6590W        W10641   9.870   2.453   1.837
 6591W        W10642  10.952   8.186   0.735
 6592W        W10643   9.718   0.688   0.352
 6593W        W10644   5.178   5.970   0.995
 6594W        W10645   7.746   4.561   9.027
 6595W        W10646   3.240   2.638   0.859
 6596W        W10647   5.215   6.081  10.327
 6597W        W10648  10.013   8.143  11.787
 6598W        W10649   6.120   0.954   0.869
 6599W        W10650   1.958   3.406  10.953
 6600W        W10651  10.206   6.102   0.748
 6601W        W10652   8.993   7.854  11.527
 6602W        W10653   1.374   1.946   3.297
 6603W        W10654   6.562   8.646   1.825
 6604W        W10655   6.307   7.180   8.968
 6605W        W10656  10.800   0.758   9.075
 6606W        W10657   2.757   8.860   9.534
 6607W        W10658  11.256   8.589   0.709
 6608W        W10659   3.547   4.103   0.946
 6609W        W10660   4.043   6.177   0.132
 6610W        W10661   4.402   1.778   0.698
 6611W        W10662   6.200   0.291  10.804
 6612W        W10663   4.095  11.449   0.786
 6613W        W10664   7.616   8.902   0.619
 6614W        W10665   2.011   3.016  11.726
 6615W        W10666   8.151   2.841  10.401
 6616W        W10667   1.305   3.608  11.703
 6617W        W10668   4.537   3.412  10.404
 6618W        W10669   4.883   7.143  11.387
 6619W        W10670   5.655   6.321  10.165
 6620W        W10671   7.473   3.872   1.577
 6621W        W10672   0.151   5.653   0.602
 6622W        W10673  10.282   8.581  10.102
 6623W        W10674   7.174   3.121   1.976
 6624W        W10675   6.006   2.366   9.493
 6625W        W10676   4.613   1.449   9.367
 6626W        W10677   4.477   4.702   3.235
 6627W        W10678  10.085   7.452  10.313
 6628W        W10679  10.060  10.918   0.791
 6629W        W10680  11.346   5.255  11.104
 6630W        W10681   4.802   1.327  10.309
 6631W        W10682   0.841   3.507   9.538
 6632W        W10683   5.766   4.368   0.685
 6633W        W10684  10.171   7.520   1.625
 6634W        W10685   8.703   1.272   9.765
 6635W        W10686   3.246   8.602   0.228
 6636W        W10687   5.911   1.640  11.044
 6637W        W10688   5.035   1.808   4.140
 6638W        W10689   7.002   1.307   1.193
 6639W        W10690   7.871   5.203   9.465
 6640W        W10691   0.456   3.773   2.827
 6641W        W10692   8.080  11.380  10.874
 6642W        W10693   1.917   5.251   8.968
 6643W        W10694   1.364   2.828  10.349
 6644W        W10695   8.152  11.319   9.979
 6645W        W10696   9.207   0.366   3.273
 6646W        W10697   0.424  11.222   0.172
 6647W        W10698   8.654  11.273  10.220
 6648W        W10699   2.700   6.553   8.748
 6649W        W10700  10.525   0.699  10.675
 6650W        W10701   5.728   7.682   4.055
 6651W        W10702   3.334   3.330  11.413
 6652W        W10703   4.086  10.361  10.793
 6653W        W10704   9.019   3.313   9.038
 6654W        W10705   6.203   5.708   2.732
 6655W        W10706   4.975   8.121   9.198
 6656W        W10707   9.256   5.932  10.421
 6657W        W10708  10.360   4.135   3.109
 6658W        W10709   3.416   7.379   3.021
 6659W        W10710   7.629   2.118  11.885
 6660W        W10711   3.112   1.384  11.369
 6661W        W10712  10.747  11.281   9.060
 6662W        W10713  10.377   0.931   3.185
 6663W        W10714   4.118   1.247  10.384
 6664W        W10715   5.893  10.903   2.467
 6665W        W10716   2.017  10.357   9.192
 6666W        W10717   1.375   3.715  10.694
 6667W        W10718   1.740   4.617   0.417
 6668W        W10719   4.250   1.214   1.853
 6669W        W10720   9.024   8.974   9.843
 6670W        W10721   1.297   4.573  10.809
 6671W        W10722   4.250   2.773   1.557
 6672W        W10723   0.719   4.150   1.210
 6673W        W10724   9.242  10.380   3.782
 6674W        W10725  10.729   6.066   1.562
 6675W        W10726   2.127  10.603   1.808
 6676W        W10727  11.236   0.743   3.162
 6677W        W10728   0.561   1.871  11.162
 6678W        W10729   1.868   9.961   1.537
 6679W        W10730   7.599   6.222  10.196
 6680W        W10731   4.367   6.654  11.814
 6681W        W10732   0.089   1.684  11.241
 6682W        W10733   7.610  10.325  10.960
 6683W        W10734   7.588   8.018  10.651
 6684W        W10735   3.783   5.005   9.330
 6685W        W10736   5.122   0.295   1.300
 6686W        W10737   1.231   5.935  10.860
 6687W        W10738   9.846   8.857   3.313
 6688W        W10739   7.648   5.488   0.911
 6689W        W10740   2.204   8.812   2.441
 6690W        W10741   7.572   1.913   9.222
 6691W        W10742   9.300   4.829  10.068
 6692W        W10743   7.154   7.458   9.053
 6693W        W10744  10.907  10.949   3.044
 6694W        W10745   7.971   2.345   9.707
 6695W        W10746   3.707   6.624  10.807
 6696W        W10747   7.889  10.851   3.429
 6697W        W10748   3.929  10.280  11.344
 6698W        W10749   5.396   8.469  10.951
 6699W        W10750   0.585   9.073  10.189
 6700W        W10751   0.261   3.185   2.285
 6701W        W10752   6.080   2.538  10.968
 6702W        W10753  10.625   8.400   1.353
 6703W        W10754   3.216  11.483   9.190
 6704W        W10755  10.140   4.241   9.122
 6705W        W10756   6.804   1.775   2.432
 6706W        W10757   0.820   4.574  10.475
 6707W        W10758   5.780   2.849   2.827
 6708W        W10759   9.970   2.721   0.169
 6709W        W10760   3.889   7.261   2.816
 6710W        W10761  10.052   0.342   3.458
 6711W        W10762   7.382   1.051   2.379
 6712W        W10763   7.953   3.308  11.130
 6713W        W10764   0.809   7.388   0.808
 6714W        W10765   1.864   3.110  10.154
 6715W        W10766   1.807   6.426   0.395
 6716W        W10767   5.560   1.897  11.988
 6717W        W10768   2.357   9.581  10.650
 6718W        W10769   6.174   2.506  11.501
 6719W        W10770   4.524   6.115   1.288
 6720W        W10771   4.754  11.480   0.402
 6721W        W10772   9.035   7.382  10.399
 6722W        W10773   1.651  11.003  11.545
 6723W        W10774   4.166   9.525  11.490
 6724W        W10775   6.260   8.729   2.215
 6725W        W10776   3.647   0.895  10.409
 6726W        W10777   0.939   6.273  11.830
 6727W        W10778   8.819   7.616   8.838
 6728W        W10779   5.352   4.452   0.974
 6729W        W10780  10.036   3.295   8.742
 6730W        W10781   8.064   1.926  11.569
 6731W        W10782   9.641   9.342   3.289
 6732W        W10783   5.626   4.605   1.925
 6733W        W10784   5.841   7.074   9.168
 6734W        W10785   3.405   1.939   2.169
 6735W        W10786   8.436   5.940   9.895
 6736W        W10787   8.363   8.395   9.549
 6737W        W10788   0.222   4.064   1.363
 6738W        W10789   6.121   1.597   9.063
 6739W        W10790   4.784   7.975   1.130
 6740W        W10791   8.966   9.187   3.594
 6741W        W10792   9.996   7.969   1.513
 6742W        W10793   6.820  10.895   2.192
 6743W        W10794   9.467   3.369   8.732
 6744W        W10795   8.711   0.163   3.664
 6745W        W10796   2.955   0.708   0.290
 6746W        W10797   6.029   2.147   9.945
 6747W        W10798   4.942   2.632   1.787
 6748W        W10799   7.052   8.670   9.509
 6749W        W10800   7.800  10.377  11.437
 6750W        W10801   5.693   0.755   2.728
 6751W        W10802  11.372   5.206   9.909
 6752W        W10803   7.438  10.034  11.612
 6753W        W10804   7.124  11.179   1.313
 6754W        W10805  11.406   3.827  11.369
 6755W        W10806   9.868   9.997  11.930
 6756W        W10807   7.125   8.903   0.472
 6757W        W10808   2.169   4.977  11.739
 6758W        W10809   4.741   8.915   2.804
 6759W        W10810   2.710   9.507   1.687
 6760W        W10811  10.746   7.717   2.266
 6761W        W10812   1.747   2.685   9.883
 6762W        W10813   5.383   9.377   9.897
 6763W        W10814   2.316  10.017  11.402
 6764W        W10815  11.434   8.110   0.911
 6765W        W10816   8.209   1.216   0.636
 6766W        W10817   9.971   7.597   0.324
 6767W        W10818   5.087   7.239  10.899
 6768W        W10819   3.535   6.905   2.797
 6769W        W10820   8.634   3.035   1.243
 6770W        W10821   7.776   3.600   1.257
 6771W        W10822   1.371   7.166  11.551
 6772W        W10823   0.900   3.796   0.419
 6773W        W10824   2.792   2.853   0.988
 6774W        W10825  10.312  11.008  11.855
 6775W        W10826   6.509   2.350  10.758
 6776W        W10827   9.461   6.949   9.695
 6777W        W10828   4.767   9.905  10.964
 6778W        W10829   6.670   0.844   3.898
 6779W        W10830  10.524   7.280   1.342
 6780W        W10831  11.351   0.159   9.569
 6781W        W10832   5.197   9.003  10.745
 6782W        W10833   2.345   1.958  10.524
 6783W        W10834   5.084   9.353   2.436
 6784W        W10835   3.169   5.101   3.801
 6785W        W10836  11.301   5.276   0.509
 6786W        W10837   8.182   5.976   8.452
 6787W        W10838   9.751   0.507   1.803
 6788W        W10839  10.479   3.861  10.894
 6789W        W10840   1.167   6.692   8.701
 6790W        W10841   2.119   7.608   3.663
 6791W        W10842   4.488   1.448  10.682
 6792W        W10843   6.054   7.525  10.250
 6793W        W10844   2.710   7.523   9.332
 6794W        W10845   4.376  10.715   9.390
 6795W        W10846   4.797   7.151  10.339
 6796W        W10847   7.928  10.334   1.562
 6797W        W10848   7.975   1.240   1.424
 6798W        W10849   7.146   6.783   2.699
 6799W        W10850   9.170   8.431   1.273
 6800W        W10851   5.773   2.630   0.455
 6801W        W10852   1.885   2.158  10.491
 6802W        W10853   3.027   2.498  11.027
 6803W        W10854  10.418   7.436   2.979
 6804W        W10855  11.062   0.417   1.417
 6805W        W10856   5.920   4.301  11.375
 6806W        W10857   7.503   5.352   1.372
 6807W        W10858   7.151   9.526   2.873
 6808W        W10859   9.369   8.874   1.505
 6809W        W10860   5.645  10.743   3.452
 6810W        W10861   7.905   2.374   9.200
 6811W        W10862   3.680   7.048   0.028
 6812W        W10863   2.277  11.084   1.852
 6813W        W10864  11.422   0.510   0.948
 6814W        W10865   3.281   8.886   1.029
 6815W        W10866   7.350   7.007   8.836
 6816W        W10867   8.906   7.627   9.970
 6817W        W10868  10.503   9.070   8.709
 6818W        W10869   4.831   6.653  11.276
 6819W        W10870   0.396   4.877   1.627
 6820W        W10871   2.426   6.453  11.485
 6821W        W10872   9.470   9.807   2.925
 6822W        W10873   8.813   5.749  11.906
 6823W        W10874  10.889   0.354   9.420
 6824W        W10875   5.002   7.492   0.953
 6825W        W10876   2.359  10.313   0.914
 6826W        W10877  10.324   6.279   1.267
 6827W        W10878   5.307   9.807   0.224
 6828W        W10879  11.271   4.688   3.283
 6829W        W10880   5.231   0.801  11.770
 6830W        W10881   5.163   2.655   3.622
 6831W        W10882   5.746   4.110  10.745
 6832W        W10883   9.376  10.319   2.864
 6833W        W10884   1.837   7.806   2.694
 6834W        W10885  10.772   7.119   0.898
 6835W        W10886   9.873   4.727   0.206
 6836W        W10887   9.951   1.199   2.080
 6837W        W10888   3.195   4.754   0.909
 6838W        W10889   2.962   3.430  11.746
 6839W        W10890   0.659  10.449   0.070
 6840W        W10891   6.676   8.673   2.725
 6841W        W10892   8.473   9.475  10.131
 6842W        W10893   1.802   5.540   2.994
 6843W        W10894  11.400   2.878   2.699
 6844W        W10895   5.481  11.314   9.403
 6845W        W10896   8.978   9.877   0.822
 6846W        W10897   8.404   3.475  10.913
 6847W        W10898   6.545   1.656  10.189
 6848W        W10899   0.830   5.319  11.885
 6849W        W10900   2.694   8.162   1.292
 6850W        W10901   9.381   4.227  10.363
 6851W        W10902   7.492   6.697   0.325
 6852W        W10903  10.011   3.775   1.106
 6853W        W10904   2.174   7.413  10.579
 6854W        W10905   9.234   7.918   9.734
 6855W        W10906   8.474   9.885   9.827
 6856W        W10907   2.682   3.781  11.980
 6857W        W10908   1.004   0.728  10.853
 6858W        W10909  10.534  10.307   9.624
 6859W        W10910   6.241   1.291   8.668
 6860W        W10911   0.499   6.032   3.086
 6861W        W10912   0.814   4.551   9.533
 6862W        W10913   7.480   1.421   1.409
 6863W        W10914   9.407   5.829  11.321
 6864W        W10915  10.854   1.331  11.623
 6865W        W10916   8.883   4.780  11.788
 6866W        W10917   2.477   3.308  10.874
 6867W        W10918   6.376   1.376  10.929
 6868W        W10919   7.469   7.379   0.814
 6869W        W10920   1.351  10.935   2.327
 6870W        W10921   8.890   7.411   3.281
 6871W        W10922   5.513  10.517   2.473
 6872W        W10923   4.130  10.368  11.817
 6873W        W10924   1.341   1.816   9.960
 6874W        W10925   3.788   4.151   2.809
 6875W        W10926   5.044   6.045  11.985
 6876W        W10927   9.450   8.415   2.655
 6877W        W10928   7.653   5.545   2.209
 6878W        W10929   1.273  10.002   3.340
 6879W        W10930   5.547   7.546   0.927
 6880W        W10931  10.423  10.031   3.117
 6881W        W10932   4.264   5.228   0.545
 6882W        W10933   4.245   2.194   9.315
 6883W        W10934   8.909   7.150   2.819
 6884W        W10935   5.793   3.678  11.497
 6885W        W10936   7.916   2.760   1.699
 6886W        W10937   3.192   2.333  11.498
 6887W        W10938   7.502  10.022   1.817
 6888W        W10939   2.352   6.661   9.132
 6889W        W10940   9.023   9.548   1.716
 6890W        W10941   4.140  10.283   9.290
 6891W        W10942   3.187   6.179   1.791
 6892W        W10943   1.684   8.139  11.462
 6893W        W10944   6.134   0.220   1.385
 6894W        W10945   2.943   3.319   2.280
 6895W        W10946   4.174  11.451   8.909
 6896W        W10947   8.964   8.732   3.289
 6897W        W10948   7.166   8.150  10.352
 6898W        W10949   7.261   2.235   1.203
 6899W        W10950  10.080   8.095   9.894
 6900W        W10951   5.667   1.768   0.487
 6901W        W10952   0.809  11.360  10.895
 6902W        W10953   0.691  10.759   9.417
 6903W        W10954   3.300  11.223   2.594
 6904W        W10955   0.309   7.865   9.038
 6905W        W10956   2.014   7.600  10.130
 6906W        W10957   4.698   1.906  10.515
 6907W        W10958   7.568  10.441   1.184
 6908W        W10959   5.276   8.865   9.882
 6909W        W10960   7.174   5.342   0.709
 6910W        W10961   8.019   7.452   0.421
 6911W        W10962   5.607   3.113   0.411
 6912W        W10963  10.944   8.949  10.984
 6913W        W10964   3.674  10.403   9.424
 6914W        W10965   8.034   6.348   9.255
 6915W        W10966  10.289   1.987  10.578
 6916W        W10967   2.864   5.665   3.791
 6917W        W10968   6.100   0.265   0.053
 6918W        W10969   2.371   0.913  11.255
 6919W        W10970   8.124  10.319  11.002
 6920W        W10971   2.671  10.174  10.488
 6921W        W10972   1.434   1.509  10.819
 6922W        W10973   9.533   0.327  11.322
 6923W        W10974   7.151   9.196   9.099
 6924W        W10975   3.338   5.241   0.936
 6925W        W10976   9.888   7.211   0.015
 6926W        W10977   7.484   1.804   0.975
 6927W        W10978   6.907   7.415  10.813
 6928W        W10979  11.221   4.733  11.422
 6929W        W10980   9.239   7.607   2.058
 6930W        W10981   2.858   9.953  10.914
 6931W        W10982   7.448  10.096   3.664
 6932W        W10983  10.816   5.524   0.375
 6933W        W10984  10.454   8.840  10.762
 6934W        W10985   0.850  11.459   2.756
 6935W        W10986  11.053   3.359  11.286
 6936W        W10987  10.716   5.128   2.774
 6937W        W10988   4.261  10.022   0.168
 6938W        W10989   8.079  11.066  11.408
 6939W        W10990   0.284   6.747   9.645
 6940W        W10991   9.746   9.472   9.634
 6941W        W10992   7.351   2.449  10.400
 6942W        W10993   5.318   4.301   3.140
 6943W        W10994   2.663  11.341   9.871
 6944W        W10995   3.458   0.993  10.875
 6945W        W10996   1.636   5.704   9.009
 6946W        W10997   1.658   4.030   9.133
 6947W        W10998   8.427   9.247   1.436
 6948W        W10999   3.393   4.708   1.506
 6949W        W11000   1.611   6.874   1.186
 6950W        W11001   6.801   8.815   9.932
 6951W        W11002   9.835   9.472   1.201
 6952W        W11003   9.018   9.967   1.420
 6953W        W11004   3.123   3.827   2.327
 6954W        W11005   7.361   2.663  10.855
 6955W        W11006   8.439   5.229  10.453
 6956W        W11007   8.362   8.549   0.882
 6957W        W11008   7.486   5.663   0.463
 6958W        W11009  11.385   0.331   3.499
 6959W        W11010   8.025   0.732   1.344
 6960W        W11011   0.464   4.014  10.896
 6961W        W11012  10.903   2.464  10.961
 6962W        W11013   6.525   7.665   9.639
 6963W        W11014   4.291   1.352   8.953
 6964W        W11015   6.080   5.024   9.596
 6965W        W11016   5.255   1.652   1.233
 6966W        W11017   5.819  10.018   9.078
 6967W        W11018   6.354  11.425  10.442
 6968W        W11019   4.380   5.614   1.371
 6969W        W11020   8.847   0.967  11.939
 6970W        W11021   3.340   2.201   8.752
 6971W        W11022   9.908   5.974   8.831
 6972W        W11023   7.525   1.702  10.950
 6973W        W11024   3.805  11.422   9.999
 6974W        W11025  10.252   5.332  10.993
 6975W        W11026   7.483   1.317   1.913
 6976W        W11027   9.826   7.492   2.283
 6977W        W11028   5.533   8.538  11.992
 6978W        W11029   5.792  11.029   9.687
 6979W        W11030   6.196   4.105   9.930
 6980W        W11031   5.493  11.423  11.755
 6981W        W11032   8.528   0.800   0.708
 6982W        W11033   5.734   8.898   9.075
 6983W        W11034   9.549  11.276   9.780
 6984W        W11035   2.788   0.694   3.140
 6985W        W11036   4.528   9.272  10.236
 6986W        W11037   6.650   5.176  11.056
 6987W        W11038   4.769   3.279   2.299
 6988W        W11039   2.447   5.170   9.948
 6989W        W11040  11.250   6.511   1.853
 6990W        W11041   2.867   1.940   2.172
 6991W        W11042   3.725   6.237  10.180
 6992W        W11043  11.277   7.373  10.141
 6993W        W11044   4.638  11.417   3.447
 6994W        W11045  10.315   2.042   1.186
 6995W        W11046   9.528   0.420   8.976
 6996W        W11047   8.318   0.685   9.821
 6997W        W11048   4.024  10.192   3.817
 6998W        W11049   1.209   4.555  11.700
 6999W        W11050   5.114   7.111   9.930
 7000W        W11051   6.333  11.162   0.646
 7001W        W11052   2.670   1.381  11.765
 7002W        W11053  10.328   9.530   8.486
 7003W        W11054   9.065   2.812   8.884
 7004W        W11055   1.901   0.111   8.987
 7005W        W11056   7.565   1.027   8.935
 7006W        W11057   3.792   2.880  11.840
 7007W        W11058   6.944   4.062   9.474
 7008W        W11059   2.718   2.950  10.073
 7009W        W11060   0.318   4.044   9.873
 7010W        W11061  10.211   1.931   0.706
 7011W        W11062   1.784  10.823   3.111
 7012W        W11063   8.979   4.125  10.677
 7013W        W11064   2.083   6.340   3.469
 7014W        W11065   2.765  11.222   1.667
 7015W        W11066  10.295   5.703   0.379
 7016W        W11067  10.826   1.330   1.550
 7017W        W11068   9.874   1.173   0.416
 7018W        W11069   1.030   7.047   0.460
 7019W        W11070   0.925   5.016   2.766
 7020W        W11071   7.288   7.151  10.575
 7021W        W11072  11.426   1.038   0.904
 7022W        W11073   2.913  11.293   0.123
 7023W        W11074   5.771   6.672   2.252
 7024W        W11075   1.866   0.872  11.287
 7025W        W11076   4.040   8.390  11.215
 7026W        W11077   7.357   2.352   0.295
 7027W        W11078   0.849   4.657   0.461
 7028W        W11079   1.330   9.800   8.857
 7029W        W11080   8.623   2.954   9.134
 7030W        W11081   6.665   8.981   3.356
 7031W        W11082   4.296   5.651   0.847
 7032W        W11083   6.052   3.700  10.695
 7033W        W11084   5.524   6.291   1.168
 7034W        W11085   4.982   3.657   8.670
 7035W        W11086   5.985   9.974   9.580
 7036W        W11087   6.481  10.879   1.813
 7037W        W11088  11.297   1.720   2.663
 7038W        W11089   7.621   2.775   0.432
 7039W        W11090   0.317   8.128   2.213
 7040W        W11091   9.048   4.641   9.106
 7041W        W11092   1.381  10.820   8.860
 7042W        W11093   7.818   0.221   2.219
 7043W        W11094   3.404   8.974   0.539
 7044W        W11095   7.966   3.654   0.783
 7045W        W11096   5.125   9.758  10.106
 7046W        W11097   8.819   0.882   1.950
 7047W        W11098  10.064  11.076   2.836
 7048W        W11099   5.647   1.279   3.495
 7049W        W11100   5.993   8.925  11.494
 7050W        W11101   5.632   4.682   2.428
 7051W        W11102   8.395   0.772   0.200
 7052W        W11103   8.020   5.812   3.660
 7053W        W11104   0.631   0.907   9.060
 7054W        W11105   2.847   4.216  11.712
 7055W        W11106  11.204   5.984   2.821
 7056W        W11107   7.500   8.053   1.569
 7057W        W11108   5.356   0.317  10.507
 7058W        W11109   5.694   6.585   9.144
 7059W        W11110   7.887   7.864   2.094
 7060W        W11111   8.891  10.417  10.337
 7061W        W11112   7.920  10.769  11.783
 7062W        W11113  10.988   0.309   0.515
 7063W        W11114   3.544   4.000  10.590
 7064W        W11115  10.196   1.481   0.957
 7065W        W11116   9.993   6.506  10.418
 7066W        W11117   4.183   2.735   3.493
 7067W        W11118   6.598   1.788   8.924
 7068W        W11119   5.721   8.179   9.510
 7069W        W11120   3.224   9.353   1.802
 7070W        W11121   7.556  11.454   1.195
 7071W        W11122   1.785   8.685   3.169
 7072W        W11123   7.333   8.348  11.785
 7073W        W11124   6.797  10.377  11.309
 7074W        W11125   0.848   8.534  10.775
 7075W        W11126   5.743  11.452   0.234
 7076W        W11127   6.733   6.337  11.765
 7077W        W11128   9.737   8.233   3.665
 7078W        W11129   5.774   8.817   0.953
 7079W        W11130  10.530   5.536   0.845
 7080W        W11131   9.115  10.457   3.264
 7081W        W11132   7.884  10.973   9.649
 7082W        W11133   6.638  10.898   9.237
 7083W        W11134   2.453   7.054  10.333
 7084W        W11135  10.752   0.334   0.051
 7085W        W11136   6.662   9.111  10.860
 7086W        W11137   4.068   2.826   2.038
 7087W        W11138   8.151   9.881   1.372
 7088W        W11139   5.087   4.507   2.247
 7089W        W11140   0.863   4.151   1.701
 7090W        W11141   6.899   2.511   9.990
 7091W        W11142   2.648   4.954  10.395
 7092W        W11143   8.277   0.356  11.866
 7093W        W11144   7.638   9.041   9.199
 7094W        W11145   3.721   5.748   0.182
 7095W        W11146  10.355   6.097   3.247
 7096W        W11147   0.014  10.807   1.383
 7097W        W11148   4.711   0.333   9.919
 7098W        W11149   5.980   3.370   8.558
 7099W        W11150   8.414  10.529   0.914
 7100W        W11151   4.732   4.135   0.446
 7101W        W11152  11.493   1.814   1.183
 7102W        W11153  10.809   7.350   2.604
 7103W        W11154   5.553   9.406   8.986
 7104W        W11155   1.425   9.154   0.144
 7105W        W11156   9.386   0.467  10.353
 7106W        W11157   2.639   7.050  11.220
 7107W        W11158   2.848  10.930  11.755
 7108W        W11159   2.136   7.344   9.401
 7109W        W11160   1.675   9.650   0.763
 7110W        W11161   0.964  10.123  11.020
 7111W        W11162   9.981   2.857  11.682
 7112W        W11163   2.356   1.551   9.618
 7113W        W11164   8.586   3.362   1.625
 7114W        W11165   0.158  10.509   2.795
 7115W        W11166  11.411   8.463   2.262
 7116W        W11167   8.443   7.107   9.408
 7117W        W11168   5.235   1.678   2.673
 7118W        W11169   9.852   6.132   3.093
 7119W        W11170   7.964   6.976   3.115
 7120W        W11171   6.983   6.597   8.777
 7121W        W11172   1.756   6.471   0.896
 7122W        W11173   6.544   1.831  10.678
 7123W        W11174   2.727   5.745  10.736
 7124W        W11175   6.070  11.300  10.848
 7125W        W11176   1.126   5.730  10.044
 7126W        W11177   1.271   8.861  10.013
 7127W        W11178   5.068   2.971   0.910
 7128W        W11179   0.745   6.503  11.347
 7129W        W11180   8.467   1.135   1.629
 7130W        W11181   7.851   7.405   2.335
 7131W        W11182   2.811   2.573   3.341
 7132W        W11183   5.559   1.347  11.834
 7133W        W11184   2.023   7.672  11.427
 7134W        W11185   8.437   0.741  11.156
 7135W        W11186   0.460   6.729  10.526
 7136W        W11187   1.947  11.130   1.168
 7137W        W11188   0.254  11.099  10.267
 7138W        W11189   4.017   4.557   9.544
 7139W        W11190  10.887   9.035   0.025
 7140W        W11191   5.119   5.569  11.763
 7141W        W11192   9.846   5.271   3.042
 7142W        W11193   6.607   9.595   8.486
 7143W        W11194  10.036   1.782   9.778
 7144W        W11195   4.692   5.714   0.533
 7145W        W11196   1.337   8.386  10.197
 7146W        W11197   8.379  11.288   9.281
 7147W        W11198   3.137   1.015  10.093
 7148W        W11199   8.685   5.828   8.225
 7149W        W11200   3.564   4.165   9.196
 7150W        W11201   2.350  10.043  10.876
 7151W        W11202   1.764   5.027   9.404
 7152W        W11203   8.063   6.005  10.240
 7153W        W11204   6.971   0.951   2.116
 7154W        W11205   5.246   0.897   2.942
 7155W        W11206   4.606   3.209   0.817
 7156W        W11207   3.497   0.039  11.416
 7157W        W11208   8.049   0.066  11.393
 7158W        W11209   4.602   0.325   8.556
 7159W        W11210   8.510   7.647   0.398
 7160W        W11211  10.315   2.701   1.381
 7161W        W11212   8.569   1.175  11.373
 7162W        W11213   5.347  11.446   3.207
 7163W        W11214   4.886   0.673   3.219
 7164W        W11215  10.050   8.478   9.385
 7165W        W11216   4.132   1.876   8.753
 7166W        W11217   5.207   8.265   1.288
 7167W        W11218   3.329  10.809   2.249
 7168W        W11219   5.124   9.111   1.522
 7169W        W11220   6.771  10.919   0.092
 7170W        W11221   1.619   9.002  10.867
 7171W        W11222  11.409   1.851  11.692
 7172W        W11223   2.611   5.731   1.366
 7173W        W11224   8.606   4.087   0.492
 7174W        W11225   3.353   5.218   1.459
 7175W        W11226   6.892   4.570  11.244
 7176W        W11227  10.827   2.742   0.736
 7177W        W11228   6.512  11.150   3.078
 7178W        W11229   5.094   3.083  11.069
 7179W        W11230   9.418  10.876   0.111
 7180W        W11231   3.779   7.977  10.504
 7181W        W11232   7.134   7.055   0.064
 7182W        W11233   1.463   8.512   9.177
 7183W        W11234   3.865   1.861   1.298
 7184W        W11235   1.189   6.728  11.749
 7185W        W11236   5.187   1.426   0.754
 7186W        W11237   4.737   8.687   1.927
 7187W        W11238   3.321   8.792   8.641
 7188W        W11239   1.284   4.663   0.189
 7189W        W11240   7.226   8.398  10.797
 7190W        W11241   0.671   1.494  10.408
 7191W        W11242   2.634   8.654   1.219
 7192W        W11243   7.019   1.704  10.346
 7193W        W11244   5.053  10.790   0.505
 7194W        W11245   2.653   2.340   2.463
 7195W        W11246  10.777   4.234   2.819
 7196W        W11247   4.672   6.106   1.820
 7197W        W11248   8.806   3.664   1.228
 7198W        W11249   5.520   3.274   2.686
 7199W        W11250   1.806   5.529   9.454
 7200W        W11251   4.449   2.160   2.868
 7201W        W11252   6.160   3.155   8.970
 7202W        W11253   6.560   5.660   1.737
 7203W        W11254   3.594  11.250  10.960
 7204W        W11255   3.369   7.141  10.475
 7205W        W11256   3.808   2.634  10.357
 7206W        W11257  11.437   4.318   9.167
 7207W        W11258   9.457   5.024   0.402
 7208W        W11259   6.554   5.693  11.264
 7209W        W11260   8.681   6.638   8.748
 7210W        W11261   0.601   1.256   9.923
 7211W        W11262   4.288   4.564  10.814
 7212W        W11263   1.054   7.878   3.380
 7213W        W11264   4.156   2.543  11.952
 7214W        W11265   5.758   7.514   8.897
 7215W        W11266   8.099   3.699   9.600
 7216W        W11267   0.388   4.888  11.754
 7217W        W11268   0.853   9.031  10.625
 7218W        W11269   6.963   0.845   2.617
 7219W        W11270   0.210   7.643  10.075
 7220W        W11271   3.812   2.092  11.425
 7221W        W11272   7.022  11.460   2.327
 7222W        W11273   9.131   3.315   2.776
 7223W        W11274   4.079   1.714   9.241
 7224W        W11275   9.423   2.422   9.695
 7225W        W11276   5.193   6.736   9.125
 7226W        W11277   6.134   6.205   9.400
 7227W        W11278   0.232   6.611   0.045
 7228W        W11279   2.263   0.212   1.024
 7229W        W11280   5.507  10.275  10.762
 7230W        W11281   4.924   0.189   3.143
 7231W        W11282   2.192   1.964   3.199
 7232W        W11283   0.761  11.201  11.780
 7233W        W11284   8.009  10.961   2.892
 7234W        W11285   8.683   1.343   0.762
 7235W        W11286   0.546   9.724   0.556
 7236W        W11287   7.024   7.556   9.555
 7237W        W11288   0.112   5.271   0.090
 7238W        W11289   4.685   6.161  11.239
 7239W        W11290   3.844  10.972  11.919
 7240W        W11291   4.573   7.563  10.052
 7241W        W11292   8.336   9.815   3.614
 7242W        W11293   3.595   1.320  10.136
 7243W        W11294   2.767   9.939   2.043
 7244W        W11295   2.155   5.123  10.345
 7245W        W11296   1.779   3.561  11.452
 7246W        W11297   8.544   8.873   9.392
 7247W        W11298   6.509   7.098   1.964
 7248W        W11299   2.621   0.932   9.964
 7249W        W11300   2.674   1.832   2.645
 7250W        W11301   0.232   0.002   1.898
 7251W        W11302   4.160   3.748  10.326
 7252W        W11303   3.680   6.117   8.332
 7253W        W11304   3.254   4.720  10.093
 7254W        W11305   0.401   6.661   1.123
 7255W        W11306   0.761   3.162  11.022
 7256W        W11307   8.621   8.912  11.014
 7257W        W11308   1.734   8.972  11.803
 7258W        W11309   8.363   1.109   1.113
 7259W        W11310   2.543   5.620   8.737
 7260W        W11311   7.421   0.470   3.000
 7261W        W11312   2.712   8.850  10.050
 7262W        W11313   4.772   2.476  11.461
 7263W        W11314  10.885   2.945   2.529
 7264W        W11315   3.469  10.550   0.451
 7265W        W11316   6.227   5.505  11.759
 7266W        W11317   7.522   8.093  11.143
 7267W        W11318   8.855   8.509   0.865
 7268W        W11319   8.160   6.368   1.334
 7269W        W11320  10.000   0.318   9.194
 7270W        W11321   9.749   7.903   3.266
 7271W        W11322   5.099   8.266  11.969
 7272W        W11323   1.758   2.640   8.942
 7273W        W11324  10.339   8.877   2.747
 7274W        W11325   3.693   4.229   8.699
 7275W        W11326  10.353   2.174  11.390
 7276W        W11327   6.260  10.389   9.732
 7277W        W11328   2.335   3.832   8.629
 7278W        W11329   3.804   9.722   0.201
 7279W        W11330   4.102   0.404   2.473
 7280W        W11331  10.370   1.795   1.859
 7281W        W11332  10.950   2.571   2.130
 7282W        W11333   1.852   7.747   9.659
 7283W        W11334   0.411   0.409   1.562
 7284W        W11335   9.099   2.767  11.319
 7285W        W11336  10.819   6.160   9.205
 7286W        W11337   2.210   6.664   1.653
 7287W        W11338  10.253   7.927   3.136
 7288W        W11339  10.891   4.653  11.811
 7289W        W11340   6.778   5.835   1.274
 7290W        W11341   0.813   2.894  10.198
 7291W        W11342   2.736   9.925   9.993
 7292W        W11343  11.260   9.514   9.020
 7293W        W11344   8.959   2.573   3.282
 7294W        W11345   0.975   2.826  10.692
 7295W        W11346   7.505  11.302   2.214
 7296W        W11347   5.706   4.070   4.067
 7297W        W11348   0.905  11.372   0.512
 7298W        W11349   1.187   4.172   0.994
 7299W        W11350   8.466   0.958   9.424
 7300W        W11351  11.170   1.685   3.661
 7301W        W11352   3.718   1.283   1.923
 7302W        W11353   2.291   9.368  11.547
 7303W        W11354   7.073   2.003  11.361
 7304W        W11355   1.736   7.834   0.988
 7305W        W11356   9.099  10.841   1.309
 7306W        W11357  10.122  11.042  11.374
 7307W        W11358   1.369   4.107  11.015
 7308W        W11359   4.192   4.695   1.805
 7309W        W11360  10.521   8.424   1.852
 7310W        W11361   2.351   3.430   3.686
 7311W        W11362   6.730   1.364   3.333
 7312W        W11363   1.559  10.494   0.915
 7313W        W11364   5.471   8.398   0.863
 7314W        W11365   0.372  10.400  11.425
 7315W        W11366   5.001  11.034   2.008
 7316W        W11367   1.050   7.484   1.290
 7317W        W11368   2.031   5.155   1.243
 7318W        W11369   0.480   2.643   1.001
 7319W        W11370   5.647   4.681   2.972
 7320W        W11371   4.521   3.245   9.006
 7321W        W11372   9.874   4.239   0.887
 7322W        W11373   3.890   8.355  11.693
 7323W        W11374   4.241  10.567   1.955
 7324W        W11375   8.848   2.328  11.433
 7325W        W11376   6.214   9.246   0.274
 7326W        W11377   0.305   5.164   0.665
 7327W        W11378   5.678   2.803  10.497
 7328W        W11379   0.453  10.987  10.750
 7329W        W11380   0.469   2.148   9.892
 7330W        W11381   0.498   6.714   2.122
 7331W        W11382  10.416   1.955   9.073
 7332W        W11383   6.904   6.044  11.383
 7333W        W11384   9.046   0.316   1.369
 7334W        W11385   2.727   6.215   0.467
 7335W        W11386  11.362  10.237   0.274
 7336W        W11387   9.065   2.145   2.140
 7337W        W11388   1.182   7.917   2.363
 7338W        W11389   3.323   5.086  11.913
 7339W        W11390   6.496   4.513  10.510
 7340W        W11391   9.269   0.567   0.073
 7341W        W11392   1.755   9.075   9.250
 7342W        W11393   3.340   1.747   8.481
 7343W        W11394  10.060   1.003   0.860
 7344W        W11395  10.009   2.397   0.797
 7345W        W11396   0.699  11.253   9.518
 7346W        W11397   8.672   6.093   8.665
 7347W        W11398   7.904   4.281   9.806
 7348W        W11399   8.994  10.174  11.927
 7349W        W11400   6.953   0.836   9.732
 7350W        W11401   7.962   4.505  10.269
 7351W        W11402   9.615   2.901   8.933
 7352W        W11403  10.431   0.930   2.301
 7353W        W11404  11.304   6.123   9.412
 7354W        W11405   5.823   2.297   1.182
 7355W        W11406   6.553   0.219   2.364
 7356W        W11407   8.252   7.889   9.567
 7357W        W11408   8.045   7.153  11.999
 7358W        W11409   7.959  11.235   1.454
 7359W        W11410   2.780   4.980   0.730
 7360W        W11411   4.962   7.053   9.449
 7361W        W11412   4.685   4.777   2.021
 7362W        W11413   1.786   2.320   0.977
 7363W        W11414   0.333   5.771  10.333
 7364W        W11415   2.866   3.700   0.484
 7365W        W11416   4.981   1.775   8.777
 7366W        W11417  10.692   6.797   9.904
 7367W        W11418   2.261   0.271   0.511
 7368W        W11419   4.156   4.859  10.394
 7369W        W11420   1.995   5.422   0.792
 7370W        W11421   6.067   6.486  10.683
 7371W        W11422   8.766   9.458   0.607
 7372W        W11423   9.952   5.663   2.492
 7373W        W11424  10.344   7.443   0.672
 7374W        W11425   1.478  11.384  10.405
 7375W        W11426  10.711   9.635   0.668
 7376W        W11427   8.620   2.562   1.047
 7377W        W11428   4.281   9.949  11.168
 7378W        W11429   8.768   5.922  10.289
 7379W        W11430   8.428   3.839   0.901
 7380W        W11431   2.095   8.068   0.729
 7381W        W11432  11.150   3.576   3.293
 7382W        W11433   7.494  10.517   2.700
 7383W        W11434   9.022   8.587   2.291
 7384W        W11435   0.964   6.918   2.237
 7385W        W11436   7.608  11.343  11.637
 7386W        W11437  10.371   8.911   1.385
 7387W        W11438   3.766   7.105   1.977
 7388W        W11439   0.567   3.670   1.348
 7389W        W11440   3.545   0.734   9.934
 7390W        W11441   0.598   9.146   2.216
 7391W        W11442  11.417   8.624  10.880
 7392W        W11443   7.249   2.787   2.807
 7393W        W11444   8.705   8.380   1.509
 7394W        W11445   3.693   3.638   9.367
 7395W        W11446   4.725   5.705  11.009
 7396W        W11447   5.332   7.262   9.130
 7397W        W11448   7.417   0.551   2.491
 7398W        W11449   3.229   3.156   9.918
 7399W        W11450   9.686   0.375   3.108
 7400W        W11451   2.283   9.842   3.360
 7401W        W11452   7.820  10.593  10.587
 7402W        W11453   7.211   1.312   3.210
 7403W        W11454   1.377   0.242   1.426
 7404W        W11455   4.484   8.473   1.130
 7405W        W11456   5.733   2.806  11.545
 7406W        W11457   1.153   1.021   0.342
 7407W        W11458   6.560   8.131   1.882
 7408W        W11459   2.820   2.702   0.358
 7409W        W11460   9.474   1.946   9.527
 7410W        W11461   3.582   7.016  11.525
 7411W        W11462   0.762   6.064   9.471
 7412W        W11463  10.273   2.920  11.022
 7413W        W11464   3.580   3.193   9.088
 7414W        W11465   2.044   0.941   3.686
 7415W        W11466   5.488   7.556  11.924
 7416W        W11467  11.333   2.717   0.781
 7417W        W11468   6.535   6.654  10.225
 7418W        W11469   7.428  10.236  10.506
 7419W        W11470   6.093   5.083   1.543
 7420W        W11471   3.598   1.806  11.851
 7421W        W11472   1.812   3.591   0.395
 7422W        W11473   5.081   4.228   1.361
 7423W        W11474   3.234   4.695   2.005
 7424W        W11475   6.091   7.737   3.678
 7425W        W11476   7.558   4.504   9.505
 7426W        W11477   5.403   9.047   0.201
 7427W        W11478  10.833   5.579   1.696
 7428W        W11479   8.596   8.887   2.218
 7429W        W11480   9.336   3.642   1.296
 7430W        W11481   8.224   8.139  11.765
 7431W        W11482   2.414   7.409   1.497
 7432W        W11483   9.092   2.695   9.393
 7433W        W11484   2.351   9.992   9.014
 7434W        W11485   6.759   4.235   0.489
 7435W        W11486   8.903   1.024   0.441
 7436W        W11487   9.897  11.249   0.228
 7437W        W11488   5.927  10.658  11.420
 7438W        W11489   4.256   1.363   0.435
 7439W        W11490   9.975  10.310   9.465
 7440W        W11491   2.859   4.543   0.476
 7441W        W11492   8.630   2.559   1.548
 7442W        W11493   8.679   7.568   1.888
 7443W        W11494   3.936   8.068   3.097
 7444W        W11495   9.945   3.300   2.401
 7445W        W11496   0.399   5.051   8.896
 7446W        W11497   0.378   8.591   2.499
 7447W        W11498   9.380  10.388   1.864
 7448W        W11499  11.110   4.589   0.290
 7449W        W11500   2.144   3.235   0.183
 7450W        W11501   5.239   1.225  11.449
 7451W        W11502   9.762   2.275   3.540
 7452W        W11503   4.660  10.404  11.814
 7453W        W11504   5.644   4.793  10.543
 7454W        W11505   7.146   3.877   3.058
 7455W        W11506   4.317   4.705   9.944
 7456W        W11507   0.489   2.676   9.377
 7457W        W11508   9.605   5.702   2.874
 7458W        W11509  10.025   7.477   3.316
 7459W        W11510   2.055   8.765   8.469
 7460W        W11511   1.786   6.464   1.432
 7461W        W11512   4.043   5.943   1.175
 7462W        W11513   5.173   7.839  11.576
 7463W        W11514   2.186  11.301  10.001
 7464W        W11515   1.981   2.669  11.294
 7465W        W11516   8.573   1.583   1.863
 7466W        W11517   0.158   9.441   9.452
 7467W        W11518  10.005   6.153   0.203
 7468W        W11519   3.645   8.426  10.781
 7469W        W11520   6.345  10.744   0.330
 7470W        W11521  10.338   9.967   1.779
 7471W        W11522   7.644   0.030   1.712
 7472W        W11523   5.103   8.617  10.389
 7473W        W11524   8.155   3.879   0.358
 7474W        W11525   8.927   3.262  11.454
 7475W        W11526   7.642   5.608  11.074
 7476W        W11527   6.714   3.665  11.384
 7477W        W11528   8.144   0.431   9.417
 7478W        W11529   4.624   2.492   3.220
 7479W        W11530  10.061   6.165  10.812
 7480W        W11531   2.373   3.378   8.942
 7481W        W11532   8.462   4.997   9.996
 7482W        W11533  11.425   4.668   8.601
 7483W        W11534   8.570   8.330  10.916
 7484W        W11535   0.767   4.879   3.467
 7485W        W11536  10.191   5.813  11.483
 7486W        W11537   0.475   4.709   2.876
 7487W        W11538   0.373   8.528   3.009
 7488W        W11539   8.436  11.213   1.725
 7489W        W11540   9.002   5.050  11.186
 7490W        W11541   7.853   4.523  11.760
 7491W        W11542   7.502   6.948   3.388
 7492W        W11543   8.949   9.142   2.498
 7493W        W11544   5.113   4.036   9.031
 7494W        W11545   8.946   5.672   2.309
 7495W        W11546  11.225  10.129   1.920
 7496W        W11547   5.012  10.061  10.536
 7497W        W11548   4.633   7.018   1.584
 7498W        W11549   1.696   3.088  11.255
 7499W        W11550   0.880  10.408  10.020
 7500W        W11551   6.035   4.920   2.061
 7501W        W11552   2.261   1.156   0.019
 7502W        W11553   2.709   5.449  10.318
 7503W        W11554  10.970  10.101   3.152
 7504W        W11555   7.223   8.380   3.369
 7505W        W11556  11.492   0.275   0.497
 7506W        W11557   6.393   0.233   9.279
 7507W        W11558   3.757   2.643   1.601
 7508W        W11559   6.953   7.988   3.122
 7509W        W11560   9.859   1.031   8.636
 7510W        W11561   5.253   3.587  11.495
 7511W        W11562   6.445   0.977   1.340
 7512W        W11563   1.996   5.090   2.136
 7513W        W11564   4.469   6.523   1.611
 7514W        W11565   0.899   2.122   3.247
 7515W        W11566   2.814   6.457   9.262
 7516W        W11567   5.022   1.235  11.945
 7517W        W11568   6.942   5.674  11.737
 7518W        W11569   9.985   1.356   9.532
 7519W        W11570   0.813   2.411   2.190
 7520W        W11571   6.458   8.100   3.312
 7521W        W11572   5.022   3.497   3.991
 7522W        W11573   8.319   2.987  10.852
 7523W        W11574   9.429   7.627   0.477
 7524W        W11575   7.461  10.806   3.128
 7525W        W11576   6.473   6.136   1.529
 7526W        W11577   6.093   0.686  11.776
 7527W        W11578   8.120   3.294   0.440
 7528W        W11579   8.530   6.582   2.698
 7529W        W11580  11.323   2.313   1.846
 7530W        W11581   9.088   5.211   0.685
 7531W        W11582   5.520  10.955  11.493
 7532W        W11583   0.266   8.542   0.035
 7533W        W11584   9.523   8.665   0.295
 7534W        W11585   6.465   5.919   9.114
 7535W        W11586   5.291   7.463   8.657
 7536W        W11587   4.233   6.216  10.266
 7537W        W11588   5.118   3.148   3.620
 7538W        W11589   8.288   3.714   1.384
 7539W        W11590   8.423   9.750   2.115
 7540W        W11591   6.189  10.858  11.825
 7541W        W11592   4.295   9.121   0.337
 7542W        W11593   1.260  11.422   1.810
 7543W        W11594   1.754   3.155   8.625
 7544W        W11595   3.755   9.288   1.912
 7545W        W11596   3.146   4.101  10.276
 7546W        W11597   2.644   9.003   9.051
 7547W        W11598   4.103  11.358   9.407
 7548W        W11599   6.379  10.080  11.408
 7549W        W11600   4.744   0.069   2.427
 7550W        W11601   1.285   7.028   2.924
 7551W        W11602   7.647   9.548   1.968
 7552W        W11603   7.378  10.755  10.396
 7553W        W11604  10.360   0.412   2.376
 7554W        W11605   0.020   4.663   2.639
 7555W        W11606   5.425   6.026  11.655
 7556W        W11607   7.384   1.649   9.593
 7557W        W11608   8.180   3.307   1.103
 7558W        W11609   6.155   1.317   1.654
 7559W        W11610   5.255   0.923   0.728
 7560W        W11611   2.558   7.031   9.451
 7561W        W11612   2.992   5.824   3.132
 7562W        W11613   2.656  10.685  10.436
 7563W        W11614   6.259   2.867   9.466
 7564W        W11615   0.473   6.180   0.273
 7565W        W11616   5.014   8.374   9.958
 7566W        W11617   5.774   9.557   0.245
 7567W        W11618   7.919   7.656  10.863
 7568W        W11619   2.610   4.227   8.887
 7569W        W11620   8.571  11.288   0.670
 7570W        W11621   3.127   5.884   0.400
 7571W        W11622   2.492  10.361   2.053
 7572W        W11623   9.990   4.181  11.526
 7573W        W11624   6.747   8.500   3.206
 7574W        W11625  11.282   1.728  10.307
 7575W        W11626   0.832  11.019   2.402
 7576W        W11627   6.983  10.942  10.130
 7577W        W11628   6.641   4.255  10.089
 7578W        W11629  10.238   4.582  10.410
 7579W        W11630   8.143   4.806   2.681
 7580W        W11631   1.288   7.538   2.693
 7581W        W11632   9.836   4.280  10.583
 7582W        W11633   2.831   3.689  10.954
 7583W        W11634   0.476   5.052   1.146
 7584W        W11635   9.032   6.861  10.445
 7585W        W11636   8.977   3.206   9.546
 7586W        W11637   9.308   4.094  11.992
 7587W        W11638  11.262   4.232  11.699
 7588W        W11639   5.030   3.814   9.589
 7589W        W11640   4.045   2.067   0.871
 7590W        W11641   8.975   7.867   0.347
 7591W        W11642   3.441   5.239  10.887
 7592W        W11643   7.429   3.253   0.404
 7593W        W11644   2.228   7.662   1.910
 7594W        W11645   3.892   1.730   0.417
 7595W        W11646   4.218   6.686  10.854
 7596W        W11647   3.603   6.604   1.730
 7597W        W11648  10.610   9.558   2.333
 7598W        W11649   9.609   6.435  11.661
 7599W        W11650   6.126   4.482   3.186
 7600W        W11651   9.438   7.020   2.789
 7601W        W11652   0.371  10.218   0.433
 7602W        W11653   2.304   7.961   0.282
 7603W        W11654   9.121   6.864   8.620
 7604W        W11655  10.770   1.978  10.983
 7605W        W11656   2.774   3.284  11.290
 7606W        W11657   5.994  10.436   3.209
 7607W        W11658   2.248   8.083   2.917
 7608W        W11659   1.297   1.811   2.802
 7609W        W11660   2.889   5.997   9.039
 7610W        W11661  10.971   3.545   0.447
 7611W        W11662   9.523   4.794   2.760
 7612W        W11663  10.938   4.245   8.490
 7613W        W11664   2.697  11.353  10.789
 7614W        W11665   4.714   8.419   9.547
 7615W        W11666   1.682   6.742  11.493
 7616W        W11667   9.782   5.670   3.374
 7617W        W11668   6.653   2.882   0.175
 7618W        W11669   7.394   4.553  11.994
 7619W        W11670  10.094   3.546  10.389
 7620W        W11671   6.095  10.872   1.438
 7621W        W11672   8.835   5.072   9.302
 7622W        W11673   9.977   0.722   2.208
 7623W        W11674  11.243   9.913  11.865
 7624W        W11675   7.701   3.221   2.482
 7625W        W11676   8.888   8.010   1.797
 7626W        W11677   8.231   8.602   9.049
 7627W        W11678   6.913  10.206   0.949
 7628W        W11679  10.301   4.132  11.919
 7629W        W11680   3.406   2.861  11.077
 7630W        W11681  10.994   9.975   9.011
 7631W        W11682   3.679  11.261   9.078
 7632W        W11683   8.516   5.073  11.389
 7633W        W11684   3.358   7.514   1.556
 7634W        W11685   5.044   8.696   2.445
 7635W        W11686   9.278   9.622   9.461
 7636W        W11687   2.489   9.110  10.887
 7637W        W11688   4.290   4.824  11.262
 7638W        W11689  11.339   7.192   3.613
 7639W        W11690   2.849   2.160   8.994
 7640W        W11691   0.289   0.334  11.261
 7641W        W11692  11.313   3.395   9.560
 7642W        W11693   5.587   2.354   8.724
 7643W        W11694  10.345   7.547  10.732
 7644W        W11695   1.304  10.918   1.811
 7645W        W11696   7.627   3.601   9.426
 7646W        W11697  11.004  10.570   3.439
 7647W        W11698   5.925   0.933   1.366
 7648W        W11699  11.319   9.854  10.406
 7649W        W11700   5.142   4.075   2.721
 7650W        W11701   6.581   0.681   0.914
 7651W        W11702   9.306   0.260  10.842
 7652W        W11703   6.101   1.870   1.299
 7653W        W11704   3.325   4.510   2.932
 7654W        W11705   7.605   7.612  11.340
 7655W        W11706  10.720  10.879   9.448
 7656W        W11707   4.363   9.082   9.771
 7657W        W11708   5.417   3.241  10.276
 7658W        W11709   4.372   1.815   1.235
 7659W        W11710  11.340   1.905   0.694
 7660W        W11711   1.280   8.851   3.288
 7661W        W11712   8.819   4.627   9.992
 7662W        W11713   0.503   7.922   0.236
 7663W        W11714   7.636   5.846   1.337
 7664W        W11715   5.153   7.596   2.742
 7665W        W11716   3.828   7.933   0.004
 7666W        W11717   3.160   4.981  10.528
 7667W        W11718   4.693   3.543   1.867
 7668W        W11719   0.092   3.604   3.566
 7669W        W11720   5.405   4.135   1.740
 7670W        W11721   5.692   7.607   0.405
 7671W        W11722   7.057  10.884   9.530
 7672W        W11723   1.630   8.493  11.909
 7673W        W11724  10.412   8.636   8.449
 7674W        W11725   8.354   5.051   9.504
 7675W        W11726   7.182   6.097  11.858
 7676W        W11727   6.164   4.440   2.212
 7677W        W11728   6.976   3.259  11.560
 7678W        W11729   0.471   0.286   9.600
 7679W        W11730   8.095   4.939   8.226
 7680W        W11731   3.197   7.626  11.573
 7681W        W11732   4.979   0.776  10.267
 7682W        W11733   1.816   5.630  10.338
 7683W        W11734   8.900   5.070   8.783
 7684W        W11735  11.392  11.000   2.811
 7685W        W11736   4.391   8.104   2.674
 7686W        W11737   1.402   3.809   0.684
 7687W        W11738   7.875  10.759  11.072
 7688W        W11739   5.546   5.173   3.112
 7689W        W11740   1.392   7.130   8.918
 7690W        W11741   9.856   6.070   9.389
 7691W        W11742   7.323   4.425   8.721
 7692W        W11743   5.575   3.122   8.401
 7693W        W11744   0.878   2.476   3.728
 7694W        W11745   4.989   1.514   3.459
 7695W        W11746   6.534   4.078   2.264
 7696W        W11747   8.337   2.937   0.791
 7697W        W11748   3.134   9.370   3.156
 7698W        W11749   8.633   4.885   3.003
 7699W        W11750   4.104   3.703   2.690
 7700W        W11751  11.074  10.536  10.301
 7701W        W11752   8.186   9.807  10.920
 7702W        W11753   2.436  10.417   0.377
 7703W        W11754   7.935   8.941   0.113
 7704W        W11755   4.079   3.710   9.704
 7705W        W11756   1.173   7.418  10.362
 7706W        W11757   2.664   0.529   1.197
 7707W        W11758   9.960   4.990  11.254
 7708W        W11759   6.114  11.335   9.983
 7709W        W11760   7.464   2.215   9.611
 7710W        W11761   7.187   0.668   1.735
 7711W        W11762  11.445  11.057  11.098
 7712W        W11763   5.656   0.022   2.800
 7713W        W11764   5.186   5.041   1.543
 7714W        W11765   6.072   2.652  11.994
 7715W        W11766   0.532  11.493  10.505
 7716W        W11767   3.123   0.769  10.539
 7717W        W11768   7.086  10.671   1.179
 7718W        W11769   4.321   4.036  11.638
 7719W        W11770  11.462   9.379   9.941
 7720W        W11771   0.228   8.383   0.587
 7721W        W11772   2.389   2.939   0.543
 7722W        W11773   4.780   2.412  10.538
 7723W        W11774   0.403   4.336   2.228
 7724W        W11775   7.044   8.012   2.587
 7725W        W11776   5.744  10.088   2.920
 7726W        W11777   6.520   1.616   9.414
 7727W        W11778   1.448  10.796   9.854
 7728W        W11779   1.208   2.165   2.418
 7729W        W11780   0.987   6.253   9.930
 7730W        W11781  10.912   3.838  11.442
 7731W        W11782   4.740   8.863   3.334
 7732W        W11783   6.427   2.292   3.627
 7733W        W11784  10.673   1.242   0.934
 7734W        W11785   6.434   3.134   0.822
 7735W        W11786   5.576   7.330   9.982
 7736W        W11787   4.174   8.664   0.034
 7737W        W11788   2.186  10.499  10.515
 7738W        W11789  10.500   3.146   1.174
 7739W        W11790   1.092   2.709  11.872
 7740W        W11791  10.271   5.547   3.467
 7741W        W11792   5.164   5.625  10.060
 7742W        W11793   9.864   3.121  10.092
 7743W        W11794   5.244   2.089   9.063
 7744W        W11795   0.120   0.948   9.120
 7745W        W11796  10.002   6.464   9.042
 7746W        W11797  11.357   6.664   9.362
 7747W        W11798   2.574   4.574   3.424
 7748W        W11799   9.906   0.691   1.249
 7749W        W11800   6.935   7.916   8.932
 7750W        W11801   2.666   3.824   3.521
 7751W        W11802   2.045   9.301   0.789
 7752W        W11803   0.178   4.344  10.276
 7753W        W11804   0.578  11.286   3.209
 7754W        W11805   0.741   2.591   3.234
 7755W        W11806   5.289   0.849   1.948
 7756W        W11807   8.102  10.508   3.100
 7757W        W11808   5.162   7.537   1.805
 7758W        W11809  10.390  10.871  10.051
 7759W        W11810   1.826   0.185   0.217
 7760W        W11811   5.022   7.374  11.820
 7761W        W11812  10.848   9.260   8.382
 7762W        W11813   1.291   4.792   1.699
 7763W        W11814   8.336   4.506   9.928
 7764W        W11815   1.841   5.350  11.943
 7765W        W11816  11.018   5.527   2.703
 7766W        W11817   8.565  11.322  10.706
 7767W        W11818   2.266   0.432   2.480
 7768W        W11819   9.870   8.470  10.826
 7769W        W11820   8.340   7.647   0.900
 7770W        W11821   5.523   9.199   1.849
 7771W        W11822  10.235   6.042   1.714
 7772W        W11823   9.773   8.875  10.339
 7773W        W11824   0.413   3.605  10.591
 7774W        W11825   0.359   6.572   0.575
 7775W        W11826   5.473   0.362   2.450
 7776W        W11827  10.852   7.294   9.871
 7777W        W11828   4.477   2.822   2.383
 7778W        W11829   2.256   6.555   0.649
 7779W        W11830   5.820   8.047  10.235
 7780W        W11831   1.969   3.209   1.452
 7781W        W11832   6.904   2.113   3.561
 7782W        W11833   3.107   1.787   1.744
 7783W        W11834   6.470   3.499   3.700
 7784W        W11835   1.707   8.420  10.967
 7785W        W11836   4.047   5.695  11.336
 7786W        W11837   2.160   1.385   2.427
 7787W        W11838   8.248   1.430   9.518
 7788W        W11839  11.090   9.014  10.047
 7789W        W11840  10.627  10.420  10.109
 7790W        W11841  10.987   3.786   9.338
 7791W        W11842  11.448   3.671   9.129
 7792W        W11843   2.799   7.344   0.765
 7793W        W11844   7.453   8.082   2.990
 7794W        W11845   3.273  11.116   3.110
 7795W        W11846   0.407   7.049   0.786
 7796W        W11847   0.886   0.316   0.816
 7797W        W11848   9.648  10.372   9.853
 7798W        W11849   8.640   3.535   2.645
 7799W        W11850   0.482   8.363  10.484
 7800W        W11851   5.608   9.146  11.221
 7801W        W11852   3.117   1.644  11.804
 7802W        W11853   9.691  10.087   0.420
 7803W        W11854   3.506   6.688  10.309
 7804W        W11855   6.915   4.091   8.918
 7805W        W11856   1.316   5.483   0.057
 7806W        W11857   5.852   0.281  11.577
 7807W        W11858   9.573  10.783   1.545
 7808W        W11859   5.237   2.736   9.462
 7809W        W11860   8.464   8.535  10.073
 7810W        W11861   7.737   4.887   3.589
 7811W        W11862   1.366   2.823   1.440
 7812W        W11863  10.623  11.049  11.418
 7813W        W11864  10.299  11.459   8.859
 7814W        W11865   8.017   7.398   9.547
 7815W        W11866  11.299   1.827   0.182
 7816W        W11867   8.022   5.504   1.261
 7817W        W11868   9.577   7.446   3.030
 7818W        W11869   5.500  11.171   0.805
 7819W        W11870   7.436   4.780  11.538
 7820W        W11871   7.653   2.858  11.322
 7821W        W11872   3.583   8.886   3.700
 7822W        W11873   4.756   2.901   9.594
 7823W        W11874   8.957   3.786   0.207
 7824W        W11875   0.846   4.774  11.963
 7825W        W11876   6.240   1.337   3.198
 7826W        W11877  10.542   2.306   0.772
 7827W        W11878  10.138  10.468   3.243
 7828W        W11879   0.695  11.297  10.036
 7829W        W11880   4.752   4.164   2.420
 7830W        W11881  10.312   9.332   0.472
 7831W        W11882   8.076   6.325   3.709
 7832W        W11883   6.773   9.136   2.866
 7833W        W11884   1.474  11.242   1.353
 7834W        W11885   5.329   5.168  10.686
 7835W        W11886  11.488   1.236   2.348
 7836W        W11887   8.508   7.687  10.279
 7837W        W11888   3.370   3.769  11.047
 7838W        W11889   0.681   5.421   8.609
 7839W        W11890   6.789   9.905   2.752
 7840W        W11891   0.632   8.083  10.895
 7841W        W11892   5.941   6.092   1.371
 7842W        W11893   8.579   4.087   8.733
 7843W        W11894   9.637   9.909   2.243
 7844W        W11895   8.647   5.483  10.055
 7845W        W11896   9.111   2.793  10.822
 7846W        W11897   8.059   5.345  10.780
 7847W        W11898  10.417   2.463   9.133
 7848W        W11899   2.688   1.951   9.777
 7849W        W11900   1.117   1.397  11.554
 7850W        W11901   3.614  10.729   9.019
 7851W        W11902   6.366   0.322   1.855
 7852W        W11903   7.086  10.405  10.861
 7853W        W11904   0.753   2.310  11.800
 7854W        W11905   7.951   6.910   0.434
 7855W        W11906   9.997   0.514   0.733
 7856W        W11907   7.039   7.000   3.168
 7857W        W11908   0.365   6.492  10.965
 7858W        W11909   4.078   6.701   8.986
 7859W        W11910   3.355   0.389   8.892
 7860W        W11911   8.163   5.603   3.199
 7861W        W11912   0.014   7.908   0.442
 7862W        W11913   2.307   3.321   9.977
 7863W        W11914   7.473   0.760   9.740
 7864W        W11915   9.147   1.211   1.690
 7865W        W11916  11.323   2.134  11.146
 7866W        W11917   5.656   6.527  11.027
 7867W        W11918   4.931   6.769  11.773
 7868W        W11919   5.638   9.022   1.400
 7869W        W11920   7.017   8.333  11.271
 7870W        W11921   0.577   4.069  10.389
 7871W        W11922   2.644   4.686   9.955
 7872W        W11923   8.626   1.175   3.590
 7873W        W11924   3.718   8.860  10.507
 7874W        W11925   9.009   0.280  10.030
 7875W        W11926   5.880   2.178   0.268
 7876W        W11927   2.478   6.560  10.478
 7877W        W11928   5.864   0.081  10.435
 7878W        W11929   0.331   9.898   9.646
 7879W        W11930   0.862   2.293   8.972
 7880W        W11931  11.442   3.617  10.899
 7881W        W11932   5.628   2.426   2.148
 7882W        W11933   5.957   3.150  10.776
 7883W        W11934   9.392  10.147  11.561
 7884W        W11935   9.908   8.243  11.301
 7885W        W11936   0.408   0.799   9.518
 7886W        W11937   4.676   9.047   2.306
 7887W        W11938   2.319   3.776  10.769
 7888W        W11939   7.754   1.032  10.506
 7889W        W11940  10.913  10.499  10.875
 7890W        W11941   0.188   9.964   1.763
 7891W        W11942   7.923   5.997   0.508
 7892W        W11943   3.070  10.500   9.052
 7893W        W11944  10.138   3.273   0.847
 7894W        W11945   3.326  10.992   9.385
 7895W        W11946   4.529   1.899   9.621
 7896W        W11947  10.969   5.887  10.771
 7897W        W11948   5.363   8.487   3.642
 7898W        W11949   0.523   2.719  11.064
 7899W        W11950   5.568   2.860   8.876
 7900W        W11951  10.237   0.831  11.599
 7901W        W11952  10.537   1.470   8.909
 7902W        W11953   8.191   5.084   1.882
 7903W        W11954   6.005   8.084  11.470
 7904W        W11955   7.596   9.394   9.991
 7905W        W11956   6.671   3.144   1.911
 7906W        W11957  10.684   3.598   3.516
 7907W        W11958   9.628   1.972  10.033
 7908W        W11959   8.899   0.009  11.023
 7909W        W11960   9.579   3.120   2.997
 7910W        W11961   4.159   9.569   8.535
 7911W        W11962   4.347   1.818   0.204
 7912W        W11963  10.427  11.079  10.525
 7913W        W11964   7.672   7.664   2.781
 7914W        W11965   6.360   6.125  11.455
 7915W        W11966   7.625   7.059   9.696
 7916W        W11967   3.568   6.607   1.216
 7917W        W11968  10.948   7.635   9.506
 7918W        W11969   8.620   2.788  11.524
 7919W        W11970   8.860  11.291   9.085
 7920W        W11971  10.289   4.592  11.359
 7921W        W11972   5.357   3.254   3.165
 7922W        W11973   8.920  11.383   1.688
 7923W        W11974   4.067   6.834   1.666
 7924W        W11975   9.807   6.169  11.262
 7925W        W11976   4.217   1.028   3.164
 7926W        W11977   4.070   9.099  11.794
 7927W        W11978   3.772   9.746   0.711
 7928W        W11979  10.988   2.384   9.722
 7929W        W11980   9.274   8.509   8.985
 7930W        W11981  10.039   7.145  11.534
 7931W        W11982   5.275   9.856  10.953
 7932W        W11983   2.644   4.916   0.219
 7933W        W11984   9.528  10.314  10.735
 7934W        W11985   6.584   7.169   4.050
 7935W        W11986   5.917   8.377  10.870
 7936W        W11987   1.314   4.222   3.189
 7937W        W11988   1.701   0.714   2.576
 7938W        W11989   8.660   1.212  10.288
 7939W        W11990   4.288   6.037   2.175
 7940W        W11991   3.297   9.577  10.591
 7941W        W11992  10.986   4.298   1.985
 7942W        W11993   9.004   0.808   3.484
 7943W        W11994   9.711   5.135   9.103
 7944W        W11995   6.686   1.790   1.935
 7945W        W11996   9.130   1.227   2.704
 7946W        W11997   2.794   8.072   0.380
 7947W        W11998   1.281   7.153   0.908
 7948W        W11999   4.942  10.724   8.527
 7949W        W12000  11.288   5.713   0.224
 7950W        W12001   1.268   2.229  11.713
 7951W        W12002   5.309   8.058   8.170
 7952W        W12003   5.798   9.074   2.819
 7953W        W12004   9.326   7.239  11.215
 7954W        W12005   3.520   4.601   9.501
 7955W        W12006  10.989   5.330   9.415
 7956W        W12007  11.367   6.797   8.863
 7957W        W12008   9.151  10.876  11.278
 7958W        W12009  10.581  10.934   0.860
 7959W        W12010  10.564   6.299   9.918
 7960W        W12011  10.424   8.852   0.571
 7961W        W12012   6.584   7.664   3.557
 7962W        W12013   5.048  10.965   1.001
 7963W        W12014   2.271   4.202   0.981
 7964W        W12015   8.123   3.283   2.134
 7965W        W12016  10.131   2.376  11.815
 7966W        W12017   9.093   1.246  10.563
 7967W        W12018   9.017   0.296   9.100
 7968W        W12019   4.677   7.489   2.500
 7969W        W12020   3.369  10.721   2.749
 7970W        W12021   7.563   1.914   1.474
 7971W        W12022   5.759  11.365  11.288
 7972W        W12023   5.639   2.290  10.244
 7973W        W12024   9.887   7.008  10.501
 7974W        W12025   5.928   3.275   9.408
 7975W        W12026   8.871   7.546   2.398
 7976W        W12027   9.407   7.166   1.322
 7977W        W12028   2.203   0.529   2.987
 7978W        W12029   2.846   1.562   1.326
 7979W        W12030   2.338   4.725   9.417
 7980W        W12031   9.176   8.292   9.417
 7981W        W12032   4.135   4.304   3.141
 7982W        W12033   9.542  11.318  10.748
 7983W        W12034   7.956   4.873   9.872
 7984W        W12035   1.279   6.492  10.763
 7985W        W12036   7.900   4.776   0.191
 7986W        W12037   2.033   7.095   1.362
 7987W        W12038   1.018   2.464  10.311
 7988W        W12039   0.828   0.899   2.691
 7989W        W12040   6.119   1.982   0.750
 7990W        W12041   2.719   6.112   2.304
 7991W        W12042  10.464   5.687   2.393
 7992W        W12043   9.935  10.429   0.729
 7993W        W12044   7.478   8.575  11.348
 7994W        W12045   4.469   2.508   1.951
 7995W        W12046  11.215  11.499   1.763
 7996W        W12047   9.576   0.992   9.091
 7997W        W12048   8.913   0.438   0.877
 7998W        W12049   1.377   6.134   1.447
 7999W        W12050   2.249   9.013   9.441
 8000W        W12051  10.501   8.112   0.963
 8001W        W12052   9.384  11.362   0.233
 8002W        W12053   6.630  10.434   2.017
 8003W        W12054   0.381   4.016  11.392
 8004W        W12055  10.282   5.454   7.938
 8005W        W12056  11.303   0.635   9.362
 8006W        W12057   1.805   7.194  11.281
 8007W        W12058   8.697   5.140   1.811
 8008W        W12059  10.037   5.517  10.156
 8009W        W12060   2.233   5.658   1.706
 8010W        W12061   3.832   4.730   4.023
 8011W        W12062   0.703   9.864   1.760
 8012W        W12063   9.331   6.719   1.561
 8013W        W12064   8.155   4.339  10.967
 8014W        W12065   6.023   5.401   3.107
 8015W        W12066   9.846   8.968   1.354
 8016W        W12067  10.141   0.801  11.070
 8017W        W12068   2.408   6.132   9.953
 8018W        W12069   6.081  10.316  11.755
 8019W        W12070   7.658   7.109  10.206
 8020W        W12071   9.387   0.838   3.076
 8021W        W12072   6.436   2.415   9.765
 8022W        W12073   7.594  10.364   2.203
 8023W        W12074   9.049   8.794   9.358
 8024W        W12075   8.625   3.357   0.845
 8025W        W12076   3.588   6.047  11.156
 8026W        W12077   7.039   2.758   3.274
 8027W        W12078   7.922   9.424   1.318
 8028W        W12079   0.320  10.013   2.727
 8029W        W12080   8.252  10.344   3.566
 8030W        W12081   1.815   1.164  10.847
 8031W        W12082   1.790   0.846  10.425
 8032W        W12083   5.135   4.452   8.726
 8033W        W12084   8.848  10.371   2.702
 8034W        W12085   0.854   6.246   3.426
 8035W        W12086   7.487   8.829  11.866
 8036W        W12087   5.982   2.047   3.710
 8037W        W12088   4.223  10.042   9.737
 8038W        W12089  11.336   0.766   0.469
 8039W        W12090   1.821   5.986   1.686
 8040W        W12091   6.397   2.879  10.784
 8041W        W12092   1.743   0.964   1.066
 8042W        W12093   0.345   7.197  10.282
 8043W        W12094   0.813   9.901   2.581
 8044W        W12095   8.414   5.527   0.283
 8045W        W12096   0.798   5.075   0.748
 8046W        W12097   6.442  10.326   2.982
 8047W        W12098   1.777   5.016   3.598
 8048W        W12099  11.090   2.633   3.543
 8049W        W12100   7.891   4.118  10.588
 8050W        W12101   9.418   5.337   8.626
 8051W        W12102   1.169   4.032   8.960
 8052W        W12103   9.446   5.600   2.350
 8053W        W12104   6.066  11.349  11.706
 8054W        W12105   0.862   6.860   0.931
 8055W        W12106   6.054   1.184  11.753
 8056W        W12107   8.197   1.429  10.436
 8057W        W12108   4.756   1.495   0.455
 8058W        W12109   3.696   2.167  10.588
 8059W        W12110   6.991   3.174   1.480
 8060W        W12111  11.031   2.297   3.118
 8061W        W12112   1.324   0.317  11.711
 8062W        W12113   0.870   4.263   0.148
 8063W        W12114   7.507   3.115   9.969
 8064W        W12115   9.855   7.189   9.457
 8065W        W12116  10.544   3.310  10.457
 8066W        W12117   0.826   7.504   0.296
 8067W        W12118   6.876   0.272   1.796
 8068W        W12119  11.073   8.095   2.204
 8069W        W12120   4.870   4.635   9.888
 8070W        W12121   4.314   1.287  11.498
 8071W        W12122  10.459   1.864  10.083
 8072W        W12123   1.188   7.043   3.466
 8073W        W12124   9.853   4.706  11.682
 8074W        W12125   3.128  10.509  11.633
 8075W        W12126   0.059   3.834  11.859
 8076W        W12127   3.811   6.611   3.883
 8077W        W12128   8.595   4.625   0.486
 8078W        W12129   1.898   1.772  11.475
 8079W        W12130   0.014  11.246   0.498
 8080W        W12131   1.231   3.248  10.860
 8081W        W12132   7.930   0.744  11.938
 8082W        W12133   9.597   7.679   9.460
 8083W        W12134   9.256   4.333   2.091
 8084W        W12135   6.102   1.287   9.495
 8085W        W12136   8.753   7.115   0.763
 8086W        W12137   4.942   1.217  11.020
 8087W        W12138   8.219   4.311   9.037
 8088W        W12139   8.876   0.324  10.550
 8089W        W12140   1.928  10.386  10.021
 8090W        W12141   5.494  10.535  11.199
 8091W        W12142   9.010   7.352   0.386
 8092W        W12143   8.279   9.546   0.522
 8093W        W12144   8.960   1.672  10.289
 8094W        W12145   0.387   5.096  11.247
 8095W        W12146   6.598  10.768   2.754
 8096W        W12147   5.992   5.481   0.228
 8097W        W12148   2.347   1.453   1.452
 8098W        W12149   0.778   2.769   0.296
 8099W        W12150   5.953   3.676   9.774
 8100W        W12151   3.594   5.072   2.752
 8101W        W12152   9.506   2.434   9.192
 8102W        W12153  11.383   7.116   2.642
 8103W        W12154   7.532   0.083  10.770
 8104W        W12155   0.279   1.768   2.805
 8105W        W12156   8.899   1.644   3.442
 8106W        W12157   7.041   1.171   1.670
 8107W        W12158   8.332   6.180   2.428
 8108W        W12159   6.956   8.573   0.066
 8109W        W12160  10.489  10.572  10.568
 8110W        W12161   9.140  10.345   9.896
 8111W        W12162   1.512   5.102   1.220
 8112W        W12163   6.856   5.928  10.880
 8113W        W12164   6.930   4.198  10.493
 8114W        W12165   1.842   2.664  10.409
 8115W        W12166   4.655   2.708  10.131
 8116W        W12167   6.481   9.993  10.479
 8117W        W12168   2.456   0.333   9.946
 8118W        W12169   3.762  10.310   3.399
 8119W        W12170   3.044   9.297   0.761
 8120W        W12171  11.110   0.748  10.444
 8121W        W12172   0.447   5.298   1.974
 8122W        W12173   3.589   5.752  10.305
 8123W        W12174   1.745   5.550   3.530
 8124W        W12175   5.217   2.120  10.562
 8125W        W12176   0.235   8.983  11.133
 8126W        W12177   8.120   7.370  10.429
 8127W        W12178   5.806  11.498   1.797
 8128W        W12179   5.944   0.788   9.831
 8129W        W12180   2.368   1.199  10.839
 8130W        W12181   1.723   3.863  11.877
 8131W        W12182   4.614   9.936   0.518
 8132W        W12183   9.411   3.324  10.252
 8133W        W12184   3.673   6.119   1.499
 8134W        W12185   2.912  11.054   0.576
 8135W        W12186   2.703   7.470  10.716
 8136W        W12187   6.047   1.815   3.251
 8137W        W12188   6.163   1.814   8.569
 8138W        W12189   2.048  10.476   2.355
 8139W        W12190   9.356  10.014   3.416
 8140W        W12191  10.467   9.880   9.086
 8141W        W12192   5.688   2.348  11.793
 8142W        W12193   6.790  10.376   0.211
 8143W        W12194   3.064   4.260   3.300
 8144W        W12195  10.011  11.024   1.758
 8145W        W12196   7.350   0.270   2.031
 8146W        W12197   7.784   6.224  11.043
 8147W        W12198   4.285   8.130  11.897
 8148W        W12199   6.405  11.274   9.547
 8149W        W12200   3.179   5.592   9.993
 8150W        W12201   5.379  10.276   9.256
 8151W        W12202   5.761   7.983   0.722
 8152W        W12203   0.618   6.642  10.037
 8153W        W12204   2.798   7.536   8.824
 8154W        W12205   2.116  10.466  11.570
 8155W        W12206   1.525   2.244   9.702
 8156W        W12207   1.459   3.844  10.201
 8157W        W12208   3.762   4.961   9.844
 8158W        W12209   7.988   3.553  11.982
 8159W        W12210   5.464  11.068   2.650
 8160W        W12211   7.919   6.736  11.022
 8161W        W12212   6.634  11.309   9.993
 8162W        W12213   8.388   6.220   1.917
 8163W        W12214  10.466   3.053   8.536
 8164W        W12215  10.815   5.802   9.569
 8165W        W12216  10.425   3.109   1.675
 8166W        W12217   7.771   3.166   0.799
 8167W        W12218   5.165   7.024   0.809
 8168W        W12219   0.456   9.845   9.153
 8169W        W12220   5.001   0.470   2.713
 8170W        W12221   1.809   1.865   3.557
 8171W        W12222   6.053   4.790  11.247
 8172W        W12223   3.735   9.316  10.741
 8173W        W12224   1.236   4.970  11.223
 8174W        W12225   9.873  11.197   2.231
 8175W        W12226   5.340  10.794   9.476
 8176W        W12227   9.885   9.949   0.891
 8177W        W12228   7.587  11.035   1.790
 8178W        W12229   3.784   0.858   2.218
 8179W        W12230   4.157   9.579   1.760
 8180W        W12231   4.091  10.489   8.820
 8181W        W12232   5.837  11.302   1.300
 8182W        W12233  10.113   0.844   1.704
 8183W        W12234   1.045   0.022   0.051
 8184W        W12235  11.475  10.414   0.719
 8185W        W12236   2.334   5.423  11.547
 8186W        W12237  10.405   9.950  10.117
 8187W        W12238   0.971  10.892  10.788
 8188W        W12239  10.480   8.629   9.621
 8189W        W12240   4.280   3.166   1.232
 8190W        W12241   9.068   6.052  10.892
 8191W        W12242   9.386   4.851   8.793
 8192W        W12243  10.972   7.788   9.992
 8193W        W12244   8.933   4.131   8.363
 8194W        W12245   1.319   6.611   1.647
 8195W        W12246   6.037   8.375   9.870
 8196W        W12247   9.123   4.646   9.594
 8197W        W12248   8.179   2.783   9.463
 8198W        W12249   7.714   2.993   1.287
 8199W        W12250   3.327   1.415   1.478
 8200W        W12251   6.993   9.186   9.576
 8201W        W12252   0.815   9.095   8.707
 8202W        W12253   6.153   8.719   0.361
 8203W        W12254   1.472  10.975  10.734
 8204W        W12255   1.791   3.739   2.101
 8205W        W12256   4.854   3.358   3.203
 8206W        W12257  11.460   9.334   2.291
 8207W        W12258   2.674  11.478   0.714
 8208W        W12259   1.430   8.064   0.577
 8209W        W12260   6.861   3.522   2.753
 8210W        W12261   5.645   2.224   0.723
 8211W        W12262   9.796   4.277   9.525
 8212W        W12263   3.312   6.273  11.545
 8213W        W12264   4.002   2.272  10.970
 8214W        W12265   9.365   3.624   0.485
 8215W        W12266   7.509   7.142  11.142
 8216W        W12267   2.092   9.496   2.508
 8217W        W12268   2.934   7.965   8.529
 8218W        W12269   6.669   5.299  11.559
 8219W        W12270  10.921   8.986  11.503
 8220W        W12271   2.684   3.711   2.546
 8221W        W12272   5.082   9.337   1.030
 8222W        W12273   4.562   6.405   8.285
 8223W        W12274  10.106   3.264  11.390
 8224W        W12275   7.917   2.664   0.832
 8225W        W12276   9.418   9.683  11.336
 8226W        W12277  10.456   1.907   0.240
 8227W        W12278   9.649   3.790  10.373
 8228W        W12279   8.414   3.231  11.376
 8229W        W12280  10.862   1.832   1.354
 8230W        W12281   2.525   6.155  11.921
 8231W        W12282   4.277   8.788   2.109
 8232W        W12283   0.378   4.545   1.218
 8233W        W12284   0.715   7.650  11.810
 8234W        W12285   4.524   0.278   2.842
 8235W        W12286   9.079   5.912   1.410
 8236W        W12287   0.466  10.358   3.215
 8237W        W12288   0.744   2.813   8.954
 8238W        W12289   9.144   0.758   8.877
 8239W        W12290   5.326   8.419   2.119
 8240W        W12291  10.314   2.698   1.953
 8241W        W12292  10.473  10.581   0.063
 8242W        W12293   4.998   6.719   8.641
 8243W        W12294   1.267   9.304  10.554
 8244W        W12295   2.640   6.052   2.810
 8245W        W12296   6.379   4.086   1.793
 8246W        W12297   1.643   0.363  10.434
 8247W        W12298   9.598   4.643   1.886
 8248W        W12299   5.715   0.448  10.131
 8249W        W12300   7.120  11.497   0.891
 8250W        W12301   1.468   6.556  10.275
 8251W        W12302   5.947   2.103   9.049
 8252W        W12303   9.036   2.929  11.810
 8253W        W12304   4.338   8.581   1.633
 8254W        W12305  10.389   0.963   0.479
 8255W        W12306   3.096   0.933   3.508
 8256W        W12307   4.392   3.596  11.945
 8257W        W12308   3.693   4.112  11.398
 8258W        W12309   0.185  10.347  11.903
 8259W        W12310   8.483  11.424  11.710
 8260W        W12311   6.512   4.828   1.409
 8261W        W12312   2.419   0.300  10.843
 8262W        W12313  10.553   6.577   3.497
 8263W        W12314   1.535   5.085   0.305
 8264W        W12315  10.995   7.989   1.248
 8265W        W12316   2.661   0.971   2.727
 8266W        W12317   6.601   1.073   2.913
 8267W        W12318   5.574   7.592  10.430
 8268W        W12319   8.375   5.719  10.543
 8269W        W12320   9.405   9.140   9.431
 8270W        W12321   5.212   4.212   9.949
 8271W        W12322   4.099   0.973   0.717
 8272W        W12323  10.620   5.120  10.414
 8273W        W12324  10.440  11.483   0.229
 8274W        W12325   8.995   0.805  10.309
 8275W        W12326   2.266   6.160   0.968
 8276W        W12327   1.844   4.103  11.437
 8277W        W12328   6.953   7.492   2.316
 8278W        W12329   1.062   7.521   9.861
 8279W        W12330   2.626   6.912  11.713
 8280W        W12331   3.089   6.290   2.896
 8281W        W12332  11.014  10.823   1.205
 8282W        W12333   9.841   3.675   9.031
 8283W        W12334   8.779   6.363  11.218
 8284W        W12335   6.049   4.139   1.424
 8285W        W12336   0.293   6.024   3.600
 8286W        W12337   5.008   2.177  11.044
 8287W        W12338  10.772   0.394  10.317
 8288W        W12339   8.320   5.783   8.909
 8289W        W12340   4.811   4.879  11.483
 8290W        W12341   4.672   7.505   1.384
 8291W        W12342   2.247   4.170  11.105
 8292W        W12343   7.256   5.096   0.284
 8293W        W12344   9.368   7.255   9.293
 8294W        W12345   6.868  10.061   8.614
 8295W        W12346   7.127   2.882  11.262
 8296W        W12347   1.863   0.045   1.486
 8297W        W12348   9.651  11.218   0.678
 8298W        W12349   4.405   7.021  11.324
 8299W        W12350   8.908   5.601   0.407
 8300W        W12351  11.234   6.221   0.986
 8301W        W12352   5.511   8.892  11.646
 8302W        W12353   7.459   5.277  11.441
 8303W        W12354   7.402   9.289  10.958
 8304W        W12355   1.043   9.065   0.910
 8305W        W12356   0.175   3.539   1.080
 8306W        W12357   8.121   5.189  11.982
 8307W        W12358  10.327   4.744   0.471
 8308W        W12359   5.931  11.440   0.810
 8309W        W12360   5.657   4.680   8.753
 8310W        W12361   5.505   3.850  11.861
 8311W        W12362   2.832   8.777  10.564
 8312W        W12363   5.191   4.589   2.735
 8313W        W12364  10.397   2.932   0.368
 8314W        W12365   3.839   5.382   2.089
 8315W        W12366  10.348  10.138  11.840
 8316W        W12367   3.351   3.890   0.518
 8317W        W12368   6.641   0.259   9.729
 8318W        W12369  10.914   8.144   9.564
 8319W        W12370   2.380  11.030   9.577
 8320W        W12371   6.494   8.520   0.710
 8321W        W12372   5.069   6.091  10.846
 8322W        W12373   8.247   4.876  10.976
 8323W        W12374   9.281   6.171   0.984
 8324W        W12375   7.546  10.782   8.704
 8325W        W12376   3.331   5.480   2.952
 8326W        W12377   9.889   1.225  10.031
 8327W        W12378   2.771   2.839   2.446
 8328W        W12379   4.400  10.361   1.496
 8329W        W12380   9.509   8.034   1.298
 8330W        W12381   3.913   6.577   0.767
 8331W        W12382   3.365   5.703   8.287
 8332W        W12383   6.951   6.086   0.757
 8333W        W12384   0.825   5.078   9.542
 8334W        W12385   9.775   6.189   1.875
 8335W        W12386   1.353   0.474   9.544
 8336W        W12387   5.067   8.172   0.477
 8337W        W12388  10.463   4.453   1.885
 8338W        W12389   9.466  11.481  10.255
 8339W        W12390   8.882  10.425   1.650
 8340W        W12391   1.935   6.632  10.505
 8341W        W12392   8.973   2.559   9.897
 8342W        W12393   8.549   9.847   9.325
 8343W        W12394  10.692   3.731  10.158
 8344W        W12395   3.254   0.530   3.253
 8345W        W12396   0.849   2.355   2.750
 8346W        W12397   9.270   8.441   3.570
 8347W        W12398   6.171   9.322  11.751
 8348W        W12399   1.120  11.420   2.296
 8349W        W12400   5.206   3.629   3.506
 8350W        W12401   0.258   9.091   2.617
 8351W        W12402   5.713   1.250   9.852
 8352W        W12403   1.706   4.559  10.089
 8353W        W12404   5.722   0.266   3.404
 8354W        W12405   4.542   2.733   9.149
 8355W        W12406   1.749   9.430  10.525
 8356W        W12407   7.673   6.459   3.388
 8357W        W12408   9.288   9.379   8.983
 8358W        W12409   5.084   4.575   1.744
 8359W        W12410   3.288   6.184   9.317
 8360W        W12411   7.815   4.604  11.245
 8361W        W12412   3.820   5.772   0.703
 8362W        W12413   1.244   5.917   3.483
 8363W        W12414   7.083   2.661  11.972
 8364W        W12415   1.797   7.328   3.946
 8365W        W12416   4.670   8.862  10.496
 8366W        W12417   9.081   1.674   1.941
 8367W        W12418   8.351   4.354   0.869
 8368W        W12419   2.673   0.216   1.713
 8369W        W12420  10.522   8.672   3.180
 8370W        W12421   1.418   7.119   2.429
 8371W        W12422   2.384   4.854   2.813
 8372W        W12423  10.454   5.803   9.964
 8373W        W12424   4.227   4.272   8.799
 8374W        W12425   1.988   4.622   1.043
 8375W        W12426   5.104   7.206   1.375
 8376W        W12427   2.356   1.855   2.209
 8377W        W12428   8.907   5.075  10.301
 8378W        W12429   4.079   5.298  10.096
 8379W        W12430   8.341   3.857   2.341
 8380W        W12431   9.375   9.342  10.924
 8381W        W12432   4.812   7.749   0.566
 8382W        W12433   1.337   4.611   1.214
 8383W        W12434   8.538   9.565  11.535
 8384W        W12435   2.312   1.498   3.486
 8385W        W12436   3.271   0.125   2.924
 8386W        W12437   7.496   8.474   9.348
 8387W        W12438   1.369   7.089  10.028
 8388W        W12439   8.536   0.314  11.397
 8389W        W12440   7.154  11.326   1.816
 8390W        W12441  11.438   4.828   9.074
 8391W        W12442   0.279   9.889  10.157
 8392W        W12443   5.066   1.671  10.760
 8393W        W12444   1.927   6.144   8.925
 8394W        W12445   7.173   0.019   9.080
 8395W        W12446   7.414   4.351  10.599
 8396W        W12447   2.782   3.279   9.239
 8397W        W12448   6.212   2.869   0.442
 8398W        W12449   8.477   0.174   0.967
 8399W        W12450   2.166   0.418  11.298
 8400W        W12451   3.299   3.850   9.630
 8401W        W12452   6.396   3.354  10.625
 8402W        W12453   0.346   9.522   1.977
 8403W        W12454   0.935   5.996   1.662
 8404W        W12455   1.344   0.976   9.580
 8405W        W12456   1.366   5.080  10.723
 8406W        W12457   7.511   0.264   9.648
 8407W        W12458   3.749   8.522   8.723
 8408W        W12459   4.197  10.942   0.740
 8409W        W12460   9.201   1.363   0.700
 8410W        W12461   2.358   5.273   2.495
 8411W        W12462   2.710   8.076   3.137
 8412W        W12463   6.148   3.457  11.142
 8413W        W12464   4.155   0.883   9.152
 8414W        W12465   5.986   7.226   3.173
 8415W        W12466  10.548   6.013  11.812
 8416W        W12467   3.359  11.399   8.706
 8417W        W12468   7.497   8.593   1.836
 8418W        W12469   1.231  10.433   0.516
 8419W        W12470   6.549   9.596  11.510
 8420W        W12471   9.104   2.457   0.696
 8421W        W12472   3.113   0.671  11.035
 8422W        W12473   8.606   0.708   8.998
 8423W        W12474   1.580   7.621   2.285
 8424W        W12475  11.479   6.517  10.565
 8425W        W12476   7.685   1.810   1.978
 8426W        W12477   7.178   1.208  11.764
 8427W        W12478   4.683   2.860   3.566
 8428W        W12479   6.798   0.379   8.965
 8429W        W12480   2.756   7.397   9.819
 8430W        W12481   0.381   4.991  10.736
 8431W        W12482  10.835  11.417  10.510
 8432W        W12483   1.284   3.273   3.138
 8433W        W12484  10.856   0.844   9.573
 8434W        W12485   8.426   2.450   9.066
 8435W        W12486   1.349   6.216   1.976
 8436W        W12487   7.800   6.099   8.839
 8437W        W12488   9.901   7.192   1.887
 8438W        W12489   9.541   3.880   8.591
 8439W        W12490   6.375   2.059   4.084
 8440W        W12491   2.913   8.416  11.889
 8441W        W12492   9.418   1.680   3.353
 8442W        W12493  10.848  10.086   0.926
 8443W        W12494   3.155   6.660   2.560
 8444W        W12495   4.827  10.311   1.823
 8445W        W12496   3.220  10.064   9.855
 8446W        W12497   6.000  11.002   1.966
 8447W        W12498   3.163   0.322   0.983
 8448ION    NA+12499   2.199   0.087   1.894
 8449ION    NA+12500   3.673   7.541   1.115
 8450ION    NA+12501   9.645   3.934  11.233
 8451ION    NA+12502   3.121   8.868   1.553
 8452ION    NA+12503   9.443   4.681  10.600
 8453ION    NA+12504   2.237   6.601   2.145
 8454ION    NA+12505   4.804   3.792  11.710
 8455ION    NA+12506   7.475   1.278   3.643
 8456ION    NA+12507  11.498   8.476  10.393
 8457ION    NA+12508   6.173   8.183   2.222
 8458ION    NA+12509   9.568   8.364  11.878
 8459ION    NA+12510   9.477   6.085   0.214
 8460ION    NA+12511   3.379   5.704   1.650
 8461ION    NA+12512   9.316   0.925  11.711
 8462ION    NA+12513   5.258   4.968   2.078
 8463ION    NA+12514  11.436   5.195  10.602
 8464ION    NA+12515   7.396   3.524   2.183
 8465ION    NA+12516   7.966  10.494   9.347
 8466ION    NA+12517   0.176   7.386   8.947
 8467ION    NA+12518   9.423   6.453   9.555
 8468ION    NA+12519   2.141   8.172   9.738
 8469ION    NA+12520   7.605   2.180   8.807
 8470ION    NA+12521   8.100   2.592   3.876
 8471ION    NA+12522   8.846  10.959   9.483
 8472ION    NA+12523   5.243   6.350  11.290
 8473ION    NA+12524   0.560   7.481   9.755
 8474ION    NA+12525   9.121  10.674   0.787
 8475ION    NA+12526   3.804   4.011  10.146
 8476ION    NA+12527   9.379   7.739  11.253
 8477ION    NA+12528   3.912   2.169   1.708
 8478ION    NA+12529   4.800   0.901   2.124
 8479ION    NA+12530   1.265   5.049  11.803
 8480ION    NA+12531   0.972  11.178   8.983
 8481ION    NA+12532   8.782   8.382  11.732
 8482ION    NA+12533   0.876   4.003   3.049
 8483ION    NA+12534   7.074   1.360   2.689
 8484ION    NA+12535   5.074   2.097  11.947
 8485ION    NA+12536   4.151   0.733  10.401
 8486ION    NA+12537  10.570   0.083   1.494
 8487ION    NA+12538   5.602   7.575   2.452
 8488ION    NA+12539  11.162   0.487   2.697
 8489ION    NA+12540   4.232   3.957   0.590
 8490ION    NA+12541   6.022   9.455   2.515
 8491ION    NA+12542   3.202   2.363   0.428
 8492ION    NA+12543   1.505   2.206   8.864
 8493ION    NA+12544   3.047   8.914  11.855
 8494ION    NA+12545   4.178   1.780   2.593
 8495ION    NA+12546   8.544   6.835   9.841
 8496ION    NA+12547   7.523   9.552   1.015
 8497ION    NA+12548   7.427   0.858   0.078
 8498ION    NA+12549   1.833   4.129   1.281
 8499ION    NA+12550   7.954   6.376  10.582
 8500ION    NA+12551   3.083   5.820   2.627
 8501ION    NA+12552   5.368   1.594   2.197
 8502ION    NA+12553   0.244   4.381  11.704
 8503ION    NA+12554   3.052   8.294   0.895
 8504ION    NA+12555   7.116   1.695   1.662
 8505ION    NA+12556   3.072  11.035   8.002
 8506ION    NA+12557   8.190   1.099   2.901
 8507ION    NA+12558   4.042   8.433   0.850
 8508ION    NA+12559   9.282   0.057   0.929
 8509ION    NA+12560   3.579   2.088   3.647
 8510ION    NA+12561   5.365  10.104  11.416
 8511ION    NA+12562   7.956   5.106   3.162
 8512ION    NA+12563  11.373   7.930  11.967
 8513ION    NA+12564   9.337   0.749   9.929
 8514ION    NA+12565  11.432  11.065  11.986
 8515ION    NA+12566  11.047   6.511  10.176
 8516ION    NA+12567   5.752   2.809   9.539
 8517ION    NA+12568   6.690   9.166   8.789
 8518ION    NA+12569   0.998   5.099   1.230
 8519ION    NA+12570   7.552   0.242  11.300
 8520ION    NA+12571   0.419   0.405   9.111
 8521ION    NA+12572   2.357   7.770   8.549
 8522ION    NA+12573   8.984   3.297   0.439
 8523ION    NA+12574   9.581   1.498   2.447
 8524ION    NA+12575  10.468   7.689   9.851
 8525ION    NA+12576  10.515   4.157   0.737
 8526ION    NA+12577   7.443   8.693   8.883
 8527ION    NA+12578   0.580   1.503  11.497
 8528ION    NA+12579   9.757  10.130  11.161
 8529ION    NA+12580  10.340  11.015   0.378
 8530ION    NA+12581   9.555   1.486   9.277
 8531ION    NA+12582   0.057   1.862  10.728
 8532ION    NA+12583   8.602   4.532   2.659
 8533ION    NA+12584   1.805  11.207   0.435
 8534ION    NA+12585   2.654   3.415  10.357
 8535ION    NA+12586   8.500   0.177   9.872
 8536ION    NA+12587   5.131   3.389   8.263
 8537ION    CL-12588   2.817   4.608   2.962
 8538ION    CL-12589   4.692   3.256   8.279
 8539ION    CL-12590   0.388   2.360   3.527
 8540ION    CL-12591   1.213  11.342  11.534
 8541ION    CL-12592  10.025   4.148   3.507
 8542ION    CL-12593  11.142  11.425  10.914
 8543ION    CL-12594   5.810  10.109  11.366
 8544ION    CL-12595   9.145   3.746  10.380
 8545ION    CL-12596   9.474  10.486  11.209
 8546ION    CL-12597   0.096   0.592  10.323
 8547ION    CL-12598   2.811   5.112  11.761
 8548ION    CL-12599   5.061   1.274   2.111
 8549ION    CL-12600   3.523  10.712   3.606
 8550ION    CL-12601  11.243   4.083   1.545
 8551ION    CL-12602   1.513   7.649  11.362
 8552ION    CL-12603   0.361   1.530  10.850
 8553ION    CL-12604   6.392   9.316   2.308
 8554ION    CL-12605   0.314  10.511  10.899
 8555ION    CL-12606   4.593   3.955  10.358
 8556ION    CL-12607   6.228   9.343  10.150
 8557ION    CL-12608   0.708   0.048   9.094
 8558ION    CL-12609   2.658   2.199  10.854
 8559ION    CL-12610   7.715   1.735   8.776
 8560ION    CL-12611   9.503   1.883   2.227
 8561ION    CL-12612   9.057   1.191  11.463
 8562ION    CL-12613   0.854   8.791  11.559
 8563ION    CL-12614   8.310   0.697   2.742
 8564ION    CL-12615   9.384  10.826   3.592
 8565ION    CL-12616  11.431   0.841   2.717
 8566ION    CL-12617   8.274   4.621  11.461
 8567ION    CL-12618   2.512   9.856   9.477
 8568ION    CL-12619   8.601   3.077   0.385
 8569ION    CL-12620   9.388   2.891   9.922
 8570ION    CL-12621   4.776   7.224   2.912
 8571ION    CL-12622   9.156   8.590  11.932
 8572ION    CL-12623   8.587   8.124  11.403
 8573ION    CL-12624   6.123   7.403   0.233
 8574ION    CL-12625  10.515   2.173   3.074
 8575ION    CL-12626  11.228   9.422   0.750
 8576ION    CL-12627   1.811   4.936   4.099
 8577ION    CL-12628   0.511   1.840  11.789
 8578ION    CL-12629   8.611  11.261   9.724
 8579ION    CL-12630   1.918  10.200   3.338
 8580ION    CL-12631   8.559   2.126  11.011
 8581ION    CL-12632  11.458   1.441   0.520
 8582ION    CL-12633   2.739  11.003   3.057
 8583ION    CL-12634   8.068   7.910  10.435
 8584ION    CL-12635  10.083   9.861  10.988
 8585ION    CL-12636   4.172   0.055   8.368
 8586ION    CL-12637   0.311   6.750   1.627
 8587ION    CL-12638   5.779   7.978   2.326
 8588ION    CL-12639   7.398   7.084   1.707
 8589ION    CL-12640   1.306   2.248   9.261
 8590ION    CL-12641   9.693   3.492  11.177
 8591ION    CL-12642   5.870  10.373  10.039
 8592ION    CL-12643   2.069  11.075   8.704
 8593ION    CL-12644   4.084   4.073   0.997
 8594ION    CL-12645   0.409  10.512   0.952
 8595ION    CL-12646   3.092   8.493   1.302
 8596ION    CL-12647   9.196  11.114   0.877
 8597ION    CL-12648  10.385   3.958   2.044
 8598ION    CL-12649  10.832   1.192  10.561
 8599ION    CL-12650   4.720   7.849   1.753
 8600ION    CL-12651   5.627   3.237  11.293
 8601ION    CL-12652  10.519   7.017   0.455
 8602ION    CL-12653   2.752   3.835  10.464
 8603ION    CL-12654   4.826   1.308   8.903
 8604ION    CL-12655   0.037   7.722   8.457
 8605ION    CL-12656   6.929   9.291  11.264
 8606ION    CL-12657   9.842   8.548   9.847
 8607ION    CL-12658   5.949   7.018   9.814
 8608ION    CL-12659   4.249   0.551  10.006
 8609ION    CL-12660   9.562   7.995  11.582
 8610ION    CL-12661   0.328   7.440   9.372
 8611ION    CL-12662   8.083   7.369   2.804
 8612ION    CL-12663   1.651   6.531   9.428
 8613ION    CL-12664   7.026   8.851   8.764
 8614ION    CL-12665   2.124  10.908   0.345
 8615ION    CL-12666   9.592   4.385   2.479
 8616ION    CL-12667   5.501   6.018  11.140
 8617ION    CL-12668   4.835   5.238  10.819
 8618ION    CL-12669   7.077   0.681   0.292
 8619ION    CL-12670   0.606   8.093   3.178
 8620ION    CL-12671  11.185   2.122  10.661
 8621ION    CL-12672   4.218   9.613   0.499
 8622ION    CL-12673   0.989  10.074   9.129
 8623ION    CL-12674   6.509   4.448  11.954
 8624ION    CL-12675   0.455   8.587   1.466
 8625ION    CL-12676   6.756   7.562  10.087
  11.50000  11.50000  12.00000
