Protein in INSANE! Membrane UpperLeaflet>POPC=1.0 LowerLeaflet>POPC=1.0
11530
    1AU     AUC    1   7.416   1.839   5.141 -0.0457 -0.0815 -0.0093
    1AU     AUC    2   7.543   1.552   5.085  0.0329 -0.0057 -0.0184
    1AU     AUC    3   7.757   1.832   5.034  0.0164 -0.0246  0.0410
    1AU     AUC    4   7.119   1.865   5.208 -0.0573 -0.0485  0.0307
    1AU     AUC    5   7.334   2.144   5.167 -0.0324  0.0955 -0.0752
    1AU     AUC    6   7.240   1.969   4.931  0.0571  0.0193  0.0700
    1AU     AUC    7   7.515   1.773   4.849  0.0626  0.0675  0.0181
    1AU     AUC    8   7.340   1.928   5.446  0.0112 -0.0621  0.0765
    1AU     AUC    9   7.635   1.764   5.328  0.0239  0.0608  0.0485
    1AU     AUC   10   7.654   2.044   5.220 -0.0257 -0.0627 -0.1162
    1AU     AUC   11   7.541   2.099   4.953 -0.1491  0.0161 -0.0148
    1AU     AUC   12   7.341   1.610   5.310  0.0077 -0.0310 -0.0242
    1AU     AUC   13   7.267   1.606   4.991  0.0065  0.0433 -0.0218
    1AU     AUC   14   7.681   1.235   5.057 -0.0488  0.0012 -0.0457
    1AU     AUC   15   7.912   1.503   5.005  0.0970 -0.0968  0.0728
    1AU     AUC   16   8.094   1.820   4.958  0.0421  0.0685  0.0966
    1AU     AUC   17   6.779   1.893   5.241  0.0932  0.0221 -0.0523
    1AU     AUC   18   6.937   2.205   5.215  0.0242  0.0859 -0.0585
    1AU     AUC   19   7.187   2.436   5.222 -0.0912 -0.0732  0.0971
    1AU     AUC   20   7.078   2.057   4.637 -0.0212 -0.0544 -0.0065
    1AU     AUC   21   7.310   1.829   4.528 -0.0820  0.0766 -0.1118
    1AU     AUC   22   7.603   1.668   4.505  0.0036  0.0759  0.0201
    1AU     AUC   23   7.263   2.035   5.760 -0.0659  0.0596 -0.0329
    1AU     AUC   24   7.556   1.840   5.708  0.0465 -0.0493  0.0601
    1AU     AUC   25   7.838   1.608   5.604  0.0702  0.1086 -0.0509
    1AU     AUC   26   7.868   2.216   5.431  0.0971  0.0146 -0.0712
    1AU     AUC   27   7.778   2.323   5.094  0.0345 -0.1162  0.0093
    1AU     AUC   28   7.677   2.323   4.759 -0.0394 -0.0110  0.1101
    1AU     AUC   29   7.193   1.365   5.538  0.0650  0.0423 -0.0513
    1AU     AUC   30   7.119   1.328   5.217 -0.0314 -0.0659 -0.0150
    1AU     AUC   31   7.069   1.334   4.830 -0.0349  0.0222 -0.0483
    1AU     AUC   32   8.006   2.034   5.192  0.0289 -0.0971 -0.0348
    1AU     AUC   33   7.936   2.085   4.830 -0.1279  0.0064  0.1073
    1AU     AUC   34   7.456   1.293   5.314 -0.0878 -0.0443  0.0701
    1AU     AUC   35   7.387   1.251   4.949  0.1059  0.0089 -0.0000
    1AU     AUC   36   7.529   2.404   5.338 -0.0235  0.0300 -0.0117
    1AU     AUC   37   7.432   2.417   4.998 -0.0127  0.0408 -0.0176
    1AU     AUC   38   6.980   1.630   5.385 -0.0049  0.0931  0.0238
    1AU     AUC   39   6.888   1.587   5.059 -0.0349  0.0251  0.0667
    1AU     AUC   40   7.667   1.413   4.765 -0.0508  0.0120  0.0253
    1AU     AUC   41   7.849   1.766   4.726 -0.0443  0.0311  0.0464
    1AU     AUC   42   6.899   1.961   4.916 -0.1161 -0.0982  0.0005
    1AU     AUC   43   7.097   2.319   4.897 -0.1089  0.0172 -0.0901
    1AU     AUC   44   7.792   1.418   5.357  0.0267 -0.0072 -0.0544
    1AU     AUC   45   7.988   1.678   5.276  0.0393 -0.0004  0.0491
    1AU     AUC   46   6.983   1.988   5.514  0.0140 -0.0280  0.0719
    1AU     AUC   47   7.195   2.241   5.485 -0.0417 -0.0908  0.0662
    1AU     AUC   48   7.344   2.199   4.686  0.0170  0.0307  0.0698
    1AU     AUC   49   7.612   2.003   4.581  0.0072  0.0198  0.0102
    1AU     AUC   50   7.565   2.129   5.620 -0.0274 -0.0288  0.0352
    1AU     AUC   51   7.895   1.945   5.554  0.0390  0.0116  0.0201
    1AU     AUC   52   7.061   1.673   4.752 -0.0204  0.0827 -0.0451
    1AU     AUC   53   7.327   1.442   4.686  0.1171  0.0525  0.0099
    1AU     AUC   54   7.167   1.728   5.669 -0.0091  0.0018  0.0681
    1AU     AUC   55   7.491   1.514   5.641 -0.1022 -0.0042  0.0658
    1AU    AUSL   56   8.324   2.132   4.985 -0.0179 -0.0022 -0.0245
    1AU    AUSL   57   8.326   2.111   5.469  0.0806  0.0426 -0.0360
    1AU     AUL   58   8.626   2.011   5.209  0.0012  0.0932 -0.0904
    1AU       S   59   8.567   1.893   5.691  0.0102 -0.1246 -0.1968
    1AU     LIG   60   9.060   2.018   5.765  0.2132  0.4101 -0.0286
    1AU     LIG   61   9.192   2.099   6.200 -0.0979 -0.0905 -0.4789
    1AU       S   62   8.517   2.474   5.247  0.0874  0.2501 -0.1547
    1AU     LIG   63   8.786   2.697   5.523 -0.1631 -0.3412  0.3037
    1AU     LIG   64   8.957   3.063   5.719  0.2367  0.1360 -0.4916
    1AU    AUSL   65   8.026   2.332   5.236 -0.0242 -0.0443 -0.0630
    1AU    AUSL   66   7.835   2.696   5.002  0.0509 -0.0393 -0.0079
    1AU     AUL   67   8.161   2.692   5.045  0.0044  0.0204 -0.0962
    1AU       S   68   8.286   2.573   5.482 -0.0407  0.1178  0.3399
    1AU     LIG   69   8.402   3.061   5.514 -0.2184  0.2173 -0.1978
    1AU     LIG   70   8.693   3.428   5.357 -0.1049  0.3157 -0.1791
    1AU       S   71   8.018   3.175   5.234  0.1967 -0.0140  0.2661
    1AU     LIG   72   8.240   3.510   5.294 -0.0285 -0.0814 -0.0063
    1AU     LIG   73   8.337   3.861   5.420  0.1875 -0.0511  0.1115
    1AU    AUSL   74   7.941   2.326   4.813  0.0129  0.0125 -0.0745
    1AU    AUSL   75   8.198   2.041   4.576 -0.1057 -0.0042  0.0154
    1AU     AUL   76   8.319   2.367   4.708  0.0189 -0.0036 -0.0284
    1AU       S   77   7.950   2.734   4.546 -0.0659 -0.0186 -0.0839
    1AU     LIG   78   8.343   2.990   4.416 -0.1540  0.0416 -0.3084
    1AU     LIG   79   8.384   3.242   4.022  0.2094  0.3989  0.2681
    1AU       S   80   8.380   2.091   4.314  0.3642  0.1313 -0.1089
    1AU     LIG   81   8.800   2.097   4.152 -0.1854 -0.1910  0.0395
    1AU     LIG   82   9.112   2.108   4.190 -0.0990  0.1356  0.0945
    1AU    AUSL   83   7.504   0.969   5.056  0.0706  0.1088  0.0450
    1AU    AUSL   84   7.276   1.041   4.648 -0.1180 -0.1112 -0.0314
    1AU     AUL   85   7.312   0.763   4.843 -0.0471  0.1012 -0.1015
    1AU       S   86   7.268   0.489   5.214 -0.2638 -0.0758  0.1960
    1AU     LIG   87   6.986   0.265   5.050  0.2623 -0.0656  0.3037
    1AU     LIG   88   6.615   0.155   4.769 -0.1049 -0.1064 -0.0362
    1AU       S   89   7.333   0.774   4.377 -0.2287  0.0405 -0.0882
    1AU     LIG   90   6.962   0.477   4.418 -0.0277  0.0978  0.0920
    1AU     LIG   91   6.656   0.206   4.259 -0.3749 -0.1353 -0.0110
    1AU    AUSL   92   7.248   0.954   5.409 -0.0732  0.0037  0.0965
    1AU    AUSL   93   7.703   1.222   5.358 -0.0084  0.0757 -0.0706
    1AU     AUL   94   7.574   0.840   5.356 -0.0485  0.0110  0.0128
    1AU       S   95   7.624   0.743   5.871 -0.0469 -0.2403  0.0492
    1AU     LIG   96   7.592   0.307   5.961  0.0506 -0.1619 -0.0845
    1AU     LIG   97   7.401  -0.033   6.198  0.0057 -0.4385 -0.0172
    1AU       S   98   7.197   0.627   5.559 -0.0097 -0.1767 -0.3981
    1AU     LIG   99   6.789   0.397   5.582  0.2388  0.1933 -0.1114
    1AU     LIG  100   6.513   0.265   5.289  0.1291 -0.0951  0.0406
    1AU    AUSL  101   7.113   1.176   5.044  0.0223 -0.0215  0.0926
    1AU    AUSL  102   6.893   1.190   5.463  0.1105 -0.0021  0.0435
    1AU     AUL  103   6.998   0.883   5.201  0.0333  0.0085  0.0762
    1AU       S  104   6.741   0.932   5.586  0.5008  0.4260 -0.1144
    1AU     LIG  105   6.620   0.721   6.007  0.4151 -0.0734  0.2814
    1AU     LIG  106   6.781   0.563   6.453 -0.0128  0.0425 -0.1733
    1AU       S  107   7.340   0.476   5.457  0.2773  0.1778 -0.1253
    1AU     LIG  108   7.452  -0.027   5.636 -0.3946  0.0514  0.2259
    1AU     LIG  109   7.290  -0.376   5.820 -0.1820 -0.2663 -0.3329
    1AU    AUSL  110   7.445   2.626   5.186  0.1065  0.1371  0.0235
    1AU    AUSL  111   7.513   2.574   4.746  0.0603  0.0457 -0.0183
    1AU     AUL  112   7.591   2.856   4.930 -0.0763 -0.0511 -0.0607
    1AU       S  113   7.778   3.153   5.288 -0.1715  0.1836  0.1477
    1AU     LIG  114   7.797   3.579   5.466  0.0781 -0.1582  0.3661
    1AU     LIG  115   7.809   3.898   5.728 -0.2915 -0.1989 -0.1303
    1AU       S  116   7.259   2.931   4.583 -0.1858 -0.4507 -0.6137
    1AU     LIG  117   7.380   3.402   4.558 -0.1806  0.0691 -0.2266
    1AU     LIG  118   7.677   3.757   4.575 -0.1673  0.0316  0.2422
    1AU    AUSL  119   7.838   2.670   5.442  0.0340  0.0712 -0.0827
    1AU    AUSL  120   7.343   2.688   5.605  0.0363  0.0299  0.0002
    1AU     AUL  121   7.432   2.877   5.404 -0.1870  0.0284  0.0202
    1AU       S  122   7.448   2.859   5.874  0.2418  0.0214 -0.0869
    1AU     LIG  123   7.535   3.374   5.851 -0.0970  0.2399 -0.2182
    1AU     LIG  124   7.290   3.660   5.781 -0.4421  0.0082  0.1282
    1AU       S  125   7.881   2.937   5.417  0.1245  0.0763 -0.1101
    1AU     LIG  126   8.033   3.263   5.746 -0.0367 -0.1204 -0.0660
    1AU     LIG  127   8.279   3.560   5.845  0.0578  0.1448  0.3462
    1AU    AUSL  128   6.727   1.574   5.291  0.0182 -0.1167 -0.0192
    1AU    AUSL  129   7.024   1.563   5.637  0.0058  0.0036 -0.0451
    1AU     AUL  130   6.689   1.410   5.649  0.0215  0.0048 -0.0005
    1AU       S  131   6.446   1.064   5.483  0.0570  0.0612  0.3526
    1AU     LIG  132   5.995   1.024   5.549 -0.1218  0.2320 -0.1182
    1AU     LIG  133   5.500   0.850   5.426 -0.1774  0.1489  0.1463
    1AU       S  134   6.294   1.886   5.923  0.0708  0.1665 -0.0869
    1AU     LIG  135   5.976   1.731   6.128 -0.0312  0.4629  0.0581
    1AU     LIG  136   5.754   1.731   6.539 -0.2123  0.3864  0.0067
    1AU    AUSL  137   6.697   1.208   5.045 -0.0362 -0.0035 -0.0703
    1AU    AUSL  138   6.490   1.754   4.967  0.0425 -0.0081  0.0702
    1AU     AUL  139   6.441   1.429   5.197 -0.0618  0.0244 -0.0341
    1AU       S  140   6.284   1.611   4.822 -0.0596  0.1743  0.0635
    1AU     LIG  141   6.057   1.255   4.644 -0.2610 -0.3105  0.0078
    1AU     LIG  142   5.683   1.294   4.429 -0.1011  0.1792 -0.2787
    1AU       S  143   6.563   0.812   5.375 -0.2585  0.0951  0.1231
    1AU     LIG  144   6.268   0.621   5.673  0.0106 -0.2231  0.0539
    1AU     LIG  145   6.053   0.706   6.056  0.2023 -0.7335 -0.0437
    1AU    AUSL  146   7.944   1.430   4.467 -0.0144  0.0297  0.0388
    1AU    AUSL  147   7.708   1.035   4.683  0.0014  0.0094  0.0780
    1AU     AUL  148   7.890   1.135   4.355 -0.0122  0.0679  0.0386
    1AU       S  149   7.622   0.756   4.500 -0.0169  0.2563  0.1702
    1AU     LIG  150   7.648   0.284   4.709 -0.0520  0.1252  0.2005
    1AU     LIG  151   7.778  -0.190   4.729  0.1368 -0.2468 -0.1917
    1AU       S  152   8.696   1.453   4.854 -0.4205  0.1685  0.1357
    1AU     LIG  153   9.026   1.513   5.114  0.2691  0.3253 -0.2477
    1AU     LIG  154   9.004   1.588   5.528 -0.0010  0.1864  0.2244
    1AU    AUSL  155   7.900   1.339   4.911 -0.0732  0.0883  0.0243
    1AU    AUSL  156   8.291   1.391   5.080 -0.0383 -0.0417  0.1032
    1AU     AUL  157   8.225   1.132   4.765 -0.0245 -0.1091 -0.0918
    1AU       S  158   8.563   1.432   4.672 -0.3944 -0.2932  0.2970
    1AU     LIG  159   8.935   1.263   4.311  0.2089  0.2309 -0.3252
    1AU     LIG  160   9.266   0.969   4.382 -0.3505 -0.1652 -0.0433
    1AU       S  161   8.483   1.127   5.178 -0.1446  0.2200 -0.2299
    1AU     LIG  162   8.847   1.091   5.378  0.0412 -0.1002 -0.0659
    1AU     LIG  163   9.300   1.129   5.569 -0.3356 -0.1057 -0.0056
    1AU    AUSL  164   8.180   1.657   4.766  0.0412 -0.0431 -0.0970
    1AU    AUSL  165   7.820   1.837   4.495  0.0944 -0.0417  0.0070
    1AU     AUL  166   8.139   1.702   4.378 -0.0111  0.0088  0.0448
    1AU       S  167   8.395   2.344   4.164  0.4065  0.2871  0.2318
    1AU     LIG  168   8.550   2.713   4.063  0.0924  0.1927 -0.0545
    1AU     LIG  169   8.850   3.021   4.091  0.1639  0.2911  0.0259
    1AU       S  170   8.499   1.705   4.733 -0.2302 -0.0722 -0.8417
    1AU     LIG  171   8.919   1.757   4.543  0.0760 -0.0254  0.0251
    1AU     LIG  172   9.278   1.936   4.586  0.0402  0.0069 -0.4537
    1AU    AUSL  173   6.808   2.270   4.701 -0.0247  0.0567 -0.0341
    1AU    AUSL  174   7.106   2.650   4.928 -0.0932  0.0054  0.0666
    1AU     AUL  175   6.775   2.697   4.677 -0.0408 -0.0271  0.0116
    1AU       S  176   7.125   2.929   4.902 -0.1205 -0.0221 -0.1325
    1AU     LIG  177   6.982   3.322   4.848 -0.0711  0.1837  0.0216
    1AU     LIG  178   6.916   3.687   4.868  0.0732 -0.3952 -0.1639
    1AU       S  179   6.688   2.340   4.378 -0.2169  0.0682  0.0425
    1AU     LIG  180   6.351   2.354   4.175  0.0682  0.0531  0.0824
    1AU     LIG  181   5.928   2.408   4.287 -0.2317  0.1554 -0.1780
    1AU    AUSL  182   6.733   2.071   5.092 -0.1066  0.1016 -0.0884
    1AU    AUSL  183   6.704   1.874   4.574  0.0360 -0.0284 -0.0485
    1AU     AUL  184   6.493   2.108   4.763 -0.0934 -0.0718  0.0343
    1AU       S  185   6.204   1.948   5.239  0.2720 -0.3976 -0.1938
    1AU     LIG  186   5.941   2.069   5.653  0.0903 -0.1424 -0.1092
    1AU     LIG  187   5.529   2.195   5.571 -0.2666  0.1281 -0.0552
    1AU       S  188   6.411   1.800   4.425 -0.1712 -0.1650 -0.3015
    1AU     LIG  189   6.147   1.474   4.217  0.0918 -0.3097  0.3866
    1AU     LIG  190   5.721   1.434   3.889 -0.0496  0.0052  0.0093
    1AU    AUSL  191   6.731   2.506   5.073  0.0432 -0.0655 -0.0770
    1AU    AUSL  192   6.642   2.312   5.471 -0.0264  0.1120  0.0429
    1AU     AUL  193   6.466   2.317   5.185  0.1319 -0.1282 -0.0611
    1AU       S  194   6.613   2.711   5.531  0.2493 -0.0814  0.4250
    1AU     LIG  195   6.246   2.860   5.500 -0.2246 -0.0500 -0.0246
    1AU     LIG  196   6.130   3.349   5.391  0.4608 -0.0219  0.0589
    1AU       S  197   6.519   2.751   5.040  0.3849  0.0263  0.2836
    1AU     LIG  198   6.454   3.123   5.124 -0.3664  0.1297 -0.0094
    1AU     LIG  199   6.490   3.545   5.121  0.1083 -0.0236  0.2846
    1AU    AUSL  200   8.111   1.380   5.493 -0.0845 -0.0020 -0.0405
    1AU    AUSL  201   8.194   1.788   5.200 -0.0652  0.0808  0.0873
    1AU     AUL  202   8.432   1.601   5.343  0.0067 -0.0537 -0.0547
    1AU       S  203   8.392   1.164   5.503  0.1613 -0.1920  0.0849
    1AU     LIG  204   8.731   1.109   5.837 -0.1724 -0.0005  0.0812
    1AU     LIG  205   9.128   1.090   6.016  0.0214  0.0864  0.2025
    1AU       S  206   8.578   1.600   5.813 -0.0804 -0.2637  0.3665
    1AU     LIG  207   8.967   1.583   6.056  0.2318 -0.0844  0.3467
    1AU     LIG  208   9.355   1.572   5.855  0.1012 -0.1104  0.0291
    1AU    AUSL  209   8.043   1.029   5.184  0.0567 -0.0242  0.0934
    1AU    AUSL  210   7.813   1.280   5.793  0.0324 -0.0394  0.0430
    1AU     AUL  211   7.937   1.028   5.560 -0.0279 -0.0059  0.0418
    1AU       S  212   8.340   0.937   5.247 -0.1790 -0.1935 -0.2616
    1AU     LIG  213   8.486   0.741   5.662 -0.1816 -0.3238 -0.4021
    1AU     LIG  214   8.179   0.473   5.874 -0.2750 -0.0352 -0.0395
    1AU       S  215   7.786   0.970   6.009 -0.6257 -0.0631 -0.1801
    1AU     LIG  216   8.053   0.757   6.266 -0.1551 -0.3108 -0.3275
    1AU     LIG  217   8.118   0.508   6.567 -0.3805 -0.1374  0.3562
    1AU    AUSL  218   7.010   2.192   5.675 -0.0401 -0.0239 -0.0304
    1AU    AUSL  219   6.692   1.895   5.546  0.1055 -0.1228  0.0478
    1AU     AUL  220   6.633   2.233   5.751 -0.0407 -0.0476 -0.0576
    1AU       S  221   6.393   1.800   5.686 -0.2826  0.0161  0.0068
    1AU     LIG  222   6.016   1.507   5.690 -0.2726  0.0751  0.0058
    1AU     LIG  223   5.544   1.671   5.877 -0.0953 -0.0162 -0.0530
    1AU       S  224   6.766   2.899   5.625 -0.0493  0.1827  0.2703
    1AU     LIG  225   6.535   3.248   5.630  0.0855  0.1059 -0.2170
    1AU     LIG  226   6.221   3.426   5.877  0.1576  0.3024 -0.1782
    1AU    AUSL  227   7.045   2.497   5.369  0.0035 -0.0088 -0.0611
    1AU    AUSL  228   7.333   2.358   5.892 -0.0585 -0.0273 -0.0074
    1AU     AUL  229   7.029   2.522   5.791  0.0673 -0.0816  0.0555
    1AU       S  230   7.381   2.632   6.138 -0.0368  0.1077  0.2772
    1AU     LIG  231   7.231   2.805   6.594 -0.4623 -0.1709 -0.3395
    1AU     LIG  232   7.238   3.103   6.752 -0.0374 -0.5149  0.0978
    1AU       S  233   6.916   2.828   5.363 -0.1039  0.2224 -0.4542
    1AU     LIG  234   6.940   3.338   5.356  0.1498  0.1067  0.2895
    1AU     LIG  235   6.886   3.709   5.494 -0.4097 -0.0918  0.1129
    1AU    AUSL  236   7.518   2.215   4.501 -0.0153  0.0346 -0.0340
    1AU    AUSL  237   7.153   2.460   4.525  0.0358  0.0143  0.0216
    1AU     AUL  238   7.534   2.586   4.427 -0.0184 -0.0454  0.0122
    1AU       S  239   7.086   2.675   4.320  0.2553 -0.3320 -0.4487
    1AU     LIG  240   6.731   2.784   4.042  0.0130  0.1840  0.1271
    1AU     LIG  241   6.650   2.707   3.674 -0.0892 -0.2664 -0.0870
    1AU       S  242   7.450   2.354   4.052  0.1424  0.1633 -0.0937
    1AU     LIG  243   7.139   2.612   3.817 -0.2841  0.0264 -0.1373
    1AU     LIG  244   7.060   3.004   3.627 -0.2184  0.0473 -0.2207
    1AU    AUSL  245   7.115   2.115   4.274 -0.0858  0.0055 -0.0267
    1AU    AUSL  246   7.314   1.558   4.217  0.0108 -0.0236 -0.0343
    1AU     AUL  247   7.065   1.845   4.046 -0.0247 -0.1225  0.0731
    1AU       S  248   7.647   2.405   3.869  0.0454 -0.0722  0.0870
    1AU     LIG  249   7.580   2.815   3.875  0.2255 -0.1166  0.2487
    1AU     LIG  250   7.308   3.040   4.082 -0.3014  0.0300  0.0863
    1AU       S  251   7.001   1.342   4.019 -0.0640 -0.1640  0.0792
    1AU     LIG  252   7.132   0.833   3.961  0.0941  0.5596 -0.0439
    1AU     LIG  253   7.026   0.403   3.904  0.1997  0.1050 -0.0571
    1AU    AUSL  254   7.520   1.924   4.201 -0.0564  0.0311 -0.0177
    1AU    AUSL  255   7.907   2.292   4.378  0.0183  0.0160 -0.0325
    1AU     AUL  256   7.865   2.028   4.184  0.0051 -0.0734 -0.0297
    1AU       S  257   8.172   2.437   4.252 -0.0190  0.2021  0.0503
    1AU     LIG  258   8.093   2.833   4.067 -0.0574 -0.3438  0.1745
    1AU     LIG  259   7.974   3.102   3.733 -0.0113  0.0954  0.0534
    1AU       S  260   7.461   2.104   3.944  0.1314 -0.2921  0.1002
    1AU     LIG  261   7.318   2.180   3.553  0.2003  0.0172  0.2596
    1AU     LIG  262   7.537   2.612   3.432  0.0330  0.2535 -0.0442
    1AU    AUSL  263   7.979   2.265   5.710 -0.0394 -0.0047  0.0187
    1AU    AUSL  264   8.026   1.797   5.604  0.0437  0.0334 -0.0787
    1AU     AUL  265   8.198   2.147   5.843 -0.1139  0.0098 -0.1000
    1AU       S  266   8.088   2.353   6.257 -0.2220 -0.3054  0.2937
    1AU     LIG  267   8.420   2.602   6.342  0.0196 -0.1221 -0.1096
    1AU     LIG  268   8.645   2.916   6.117  0.1523 -0.0055 -0.0071
    1AU       S  269   8.349   1.697   5.799 -0.2876  0.2628  0.2012
    1AU     LIG  270   8.704   1.974   6.145  0.0390  0.0361  0.0460
    1AU     LIG  271   8.667   2.221   6.521  0.0530  0.2218  0.4296
    1AU    AUSL  272   7.658   2.074   5.919 -0.1172  0.1498 -0.0057
    1AU    AUSL  273   7.608   2.337   5.551  0.0073  0.0692 -0.0352
    1AU     AUL  274   7.748   2.444   5.892 -0.0341  0.0083 -0.0361
    1AU       S  275   7.941   2.206   6.294 -0.1141 -0.1121  0.0992
    1AU     LIG  276   8.289   1.925   6.506  0.1372 -0.1131 -0.3019
    1AU     LIG  277   8.347   1.552   6.780  0.1954 -0.0115  0.0394
    1AU       S  278   7.399   2.804   6.126  0.4806 -0.0485  0.2221
    1AU     LIG  279   7.027   3.068   6.243  0.2452  0.0710 -0.0589
    1AU     LIG  280   7.031   3.435   6.445  0.0425  0.0836  0.0381
    1AU    AUSL  281   7.933   1.732   6.013  0.0664  0.0234 -0.0728
    1AU    AUSL  282   7.283   1.898   6.027  0.0803 -0.0666  0.1779
    1AU     AUL  283   7.585   1.847   6.199 -0.0391  0.0220  0.0063
    1AU       S  284   7.179   2.114   6.287  0.2378  0.1403  0.1948
    1AU     LIG  285   7.146   2.265   6.640  0.1980  0.3884 -0.3030
    1AU     LIG  286   7.147   2.465   7.065 -0.0039  0.0224  0.0465
    1AU       S  287   7.881   2.477   6.341 -0.3930  0.3123 -0.0626
    1AU     LIG  288   7.711   2.860   6.490 -0.1107  0.0013 -0.0164
    1AU     LIG  289   7.576   3.224   6.417  0.0003 -0.3039  0.0392
    1AU    AUSL  290   7.041   1.340   4.487  0.0889 -0.0529 -0.0244
    1AU    AUSL  291   7.532   1.406   4.558 -0.1274 -0.0521 -0.0595
    1AU     AUL  292   7.403   1.229   4.304  0.0261 -0.0115  0.0120
    1AU       S  293   6.879   1.100   4.320 -0.2304 -0.5867  0.5608
    1AU     LIG  294   6.652   0.732   4.063 -0.0047  0.1071 -0.0696
    1AU     LIG  295   6.286   0.510   4.087  0.2727  0.0067  0.3136
    1AU       S  296   7.625   0.743   4.231  0.0427 -0.0012 -0.0934
    1AU     LIG  297   7.392   0.308   4.234  0.0710 -0.3976 -0.0070
    1AU     LIG  298   7.466  -0.121   4.340 -0.3218  0.1697  0.1104
    1AU    AUSL  299   7.113   1.790   4.539 -0.0424  0.0192 -0.0549
    1AU    AUSL  300   6.836   1.528   4.806 -0.0096 -0.0207  0.0373
    1AU     AUL  301   6.840   1.629   4.371  0.0384 -0.0531 -0.0034
    1AU       S  302   6.711   1.305   4.003  0.3102 -0.0165 -0.1157
    1AU     LIG  303   6.303   1.083   3.928  0.1517 -0.2265  0.2302
    1AU     LIG  304   5.980   0.884   4.252 -0.2033 -0.2553 -0.3217
    1AU       S  305   6.538   1.420   4.626 -0.2087 -0.1274 -0.0266
    1AU     LIG  306   6.416   1.038   4.422 -0.2362 -0.1742 -0.5654
    1AU     LIG  307   6.462   0.592   4.564  0.1017  0.4067  0.0796
    1AU    AUSL  308   7.238   1.462   6.004  0.0705  0.0185 -0.1045
    1AU    AUSL  309   6.874   1.877   5.929  0.0052 -0.0308 -0.0459
    1AU     AUL  310   6.989   1.607   6.072 -0.0293  0.0210 -0.0192
    1AU       S  311   6.515   1.833   6.030 -0.2076 -0.0327  0.1402
    1AU     LIG  312   6.423   1.535   6.283  0.3721  0.0674  0.2050
    1AU     LIG  313   6.540   1.136   6.376 -0.2015  0.1339 -0.0130
    1AU       S  314   6.907   2.258   6.184 -0.1500 -0.3289  0.2065
    1AU     LIG  315   6.791   2.630   6.399 -0.0048 -0.4613  0.1030
    1AU     LIG  316   6.837   2.788   6.869  0.4120  0.4893  0.0187
    1AU    AUSL  317   7.580   1.637   5.758 -0.0069 -0.0781  0.0181
    1AU    AUSL  318   7.398   1.239   5.685  0.0579 -0.0175 -0.0804
    1AU     AUL  319   7.582   1.386   6.069  0.0242  0.1188  0.0082
    1AU       S  320   6.786   2.114   6.310  0.0237 -0.0600  0.0164
    1AU     LIG  321   6.857   1.866   6.655 -0.0921 -0.1434 -0.0583
    1AU     LIG  322   7.166   1.612   6.982 -0.3387 -0.0467  0.0165
    1AU       S  323   7.431   0.982   5.845 -0.3606  0.3599 -0.0585
    1AU     LIG  324   7.107   0.656   6.040 -0.0168  0.1052 -0.2274
    1AU     LIG  325   6.937   0.251   6.023  0.1645  0.0035 -0.2091
    2POPC   NC3  326   8.350   5.204   8.025 -0.1349  0.1016  0.0226
    2POPC   PO4  327   8.734   5.157   7.706  0.1248  0.0161 -0.0132
    2POPC   GL1  328   8.651   4.981   7.377 -0.1827 -0.4089  0.0569
    2POPC   GL2  329   8.479   4.695   7.206 -0.1980  0.0865 -0.0690
    2POPC   C1A  330   8.948   5.016   6.959 -0.0108 -0.0302 -0.1500
    2POPC   D2A  331   9.236   4.774   6.706 -0.0414 -0.0604 -0.3317
    2POPC   C3A  332   9.413   4.715   6.347  0.2101  0.3038  0.1797
    2POPC   C4A  333   9.820   4.633   6.326  0.0469  0.2805  0.1300
    2POPC   C1B  334   8.742   4.593   6.720 -0.1787 -0.1541  0.0979
    2POPC   C2B  335   8.941   4.658   6.313  0.2785  0.3737  0.0874
    2POPC   C3B  336   8.991   4.436   5.849 -0.0565  0.1217  0.1014
    2POPC   C4B  337   8.955   4.300   5.374 -0.0332  0.1527 -0.0437
    3POPC   NC3  338   2.538   7.535   8.149 -0.0333  0.3874  0.2009
    3POPC   PO4  339   2.805   7.457   7.730  0.1608 -0.0656 -0.2902
    3POPC   GL1  340   2.839   7.400   7.291 -0.1094  0.3228 -0.1084
    3POPC   GL2  341   2.936   7.085   7.166  0.1092 -0.2633  0.0069
    3POPC   C1A  342   2.834   7.520   6.791 -0.0782 -0.1926 -0.1004
    3POPC   D2A  343   2.581   7.699   6.341  0.0283 -0.2045  0.2039
    3POPC   C3A  344   2.782   7.791   5.951  0.0374  0.0117 -0.2889
    3POPC   C4A  345   2.777   8.129   5.737 -0.1446 -0.2067  0.0852
    3POPC   C1B  346   3.059   7.011   6.676 -0.2253  0.5909 -0.2834
    3POPC   C2B  347   3.343   7.079   6.300  0.1092  0.0229 -0.2193
    3POPC   C3B  348   3.310   7.034   5.792 -0.0402 -0.0961 -0.1357
    3POPC   C4B  349   3.282   7.336   5.382  0.0842  0.1380  0.1087
    4POPC   NC3  350   6.663   5.698   7.982  0.0002 -0.1209 -0.0778
    4POPC   PO4  351   6.706   5.807   7.579 -0.2969  0.2970 -0.1136
    4POPC   GL1  352   6.803   5.786   7.198  0.1072  0.0217  0.2724
    4POPC   GL2  353   6.977   6.055   7.049 -0.0809  0.1899  0.0104
    4POPC   C1A  354   6.900   5.592   6.829 -0.4222 -0.2650 -0.1830
    4POPC   D2A  355   7.144   5.741   6.431  0.3078 -0.2119 -0.0892
    4POPC   C3A  356   6.948   5.982   6.064 -0.2129  0.0441 -0.1095
    4POPC   C4A  357   6.894   6.307   5.748  0.6094  0.0075 -0.3979
    4POPC   C1B  358   6.668   6.021   6.705  0.1831 -0.3101  0.1480
    4POPC   C2B  359   6.364   5.744   6.742  0.2379  0.2071 -0.3224
    4POPC   C3B  360   5.975   5.908   6.590 -0.2347  0.2104  0.0331
    4POPC   C4B  361   5.567   6.077   6.650  0.0546 -0.1708  0.2652
    5POPC   NC3  362  10.178   3.183   7.599  0.4886  0.0123 -0.1784
    5POPC   PO4  363  10.156   2.716   7.604  0.4054  0.0677  0.0662
    5POPC   GL1  364   9.753   2.622   7.291 -0.1015  0.0951 -0.1450
    5POPC   GL2  365   9.401   2.737   7.213 -0.0364  0.4698  0.2297
    5POPC   C1A  366   9.997   2.371   6.900 -0.1635 -0.5379  0.1838
    5POPC   D2A  367  10.267   2.265   6.468  0.0484  0.0115  0.2402
    5POPC   C3A  368  10.176   2.286   6.103 -0.0554  0.0551 -0.3532
    5POPC   C4A  369   9.956   2.171   5.822  0.0560 -0.1470 -0.0777
    5POPC   C1B  370   9.593   2.828   6.821 -0.3682 -0.0331  0.1634
    5POPC   C2B  371   9.450   2.918   6.392 -0.0525  0.1621  0.3208
    5POPC   C3B  372   9.395   2.877   5.860 -0.3799 -0.2919 -0.1276
    5POPC   C4B  373   9.705   3.109   5.686 -0.1245 -0.0930  0.0410
    6POPC   NC3  374   3.483  10.500   7.845 -0.1222  0.1147  0.0386
    6POPC   PO4  375   3.693  10.033   7.543 -0.2750  0.2896  0.2038
    6POPC   GL1  376   3.804  10.018   7.148  0.1133 -0.1714  0.5709
    6POPC   GL2  377   4.042  10.327   7.185  0.0583  0.0522 -0.2367
    6POPC   C1A  378   3.890   9.990   6.776 -0.1868  0.0600  0.1821
    6POPC   D2A  379   4.285  10.137   6.686  0.0590 -0.2159 -0.2790
    6POPC   C3A  380   4.569  10.179   7.052  0.2877 -0.2804  0.1523
    6POPC   C4A  381   4.964   9.999   7.116  0.2177  0.1066 -0.3423
    6POPC   C1B  382   3.903  10.524   6.818  0.1132  0.1020  0.1955
    6POPC   C2B  383   3.966  10.859   6.439  0.1652  0.0703  0.3996
    6POPC   C3B  384   4.145  10.910   6.082 -0.0484  0.0699 -0.0002
    6POPC   C4B  385   4.395  10.566   5.811 -0.0630 -0.2280  0.1223
    7POPC   NC3  386   3.269   5.215   7.260  0.1365  0.1542  0.1841
    7POPC   PO4  387   3.730   5.107   7.351  0.1144  0.1749 -0.0824
    7POPC   GL1  388   3.957   5.031   6.992 -0.1337  0.1450  0.0889
    7POPC   GL2  389   4.170   4.776   6.897 -0.2044  0.3209 -0.0678
    7POPC   C1A  390   4.012   5.145   6.619 -0.0499 -0.2677  0.1702
    7POPC   D2A  391   3.900   5.440   6.349 -0.0196 -0.2497  0.1784
    7POPC   C3A  392   4.293   5.785   6.193 -0.3145 -0.0852  0.1490
    7POPC   C4A  393   4.768   5.793   6.226  0.0953  0.0482 -0.2251
    7POPC   C1B  394   4.359   4.632   6.503  0.2938  0.3625 -0.1992
    7POPC   C2B  395   4.375   4.431   6.127  0.1280 -0.0174  0.3128
    7POPC   C3B  396   4.477   4.668   5.780  0.0994  0.0240 -0.0229
    7POPC   C4B  397   4.312   4.954   5.587  0.0158 -0.0984 -0.2694
    8POPC   NC3  398   6.633   5.279   7.342 -0.2894 -0.1141 -0.3822
    8POPC   PO4  399   6.874   5.034   7.604 -0.1733 -0.0895 -0.0809
    8POPC   GL1  400   6.957   4.819   7.213  0.0345  0.1861  0.3034
    8POPC   GL2  401   6.679   4.771   7.171  0.0027  0.1619 -0.1120
    8POPC   C1A  402   7.065   5.072   6.858  0.1506 -0.0847  0.0749
    8POPC   D2A  403   6.934   5.229   6.461 -0.1245  0.1453  0.0543
    8POPC   C3A  404   6.669   5.595   6.290 -0.4168  0.1556 -0.1070
    8POPC   C4A  405   6.354   5.892   6.217 -0.1940  0.2296 -0.4740
    8POPC   C1B  406   6.762   4.709   6.701 -0.0465  0.0870  0.2360
    8POPC   C2B  407   6.598   4.903   6.287  0.2031  0.1740  0.0303
    8POPC   C3B  408   6.597   5.180   5.948 -0.3051  0.2844 -0.0308
    8POPC   C4B  409   6.783   5.319   5.518 -0.1853 -0.2145  0.0107
    9POPC   NC3  410   4.344   8.313   7.869 -0.0928 -0.1661  0.2560
    9POPC   PO4  411   4.797   8.315   8.011  0.1459 -0.0680 -0.0902
    9POPC   GL1  412   4.696   8.552   7.669 -0.1429 -0.0521  0.0026
    9POPC   GL2  413   4.799   8.306   7.445 -0.0868 -0.0112 -0.1268
    9POPC   C1A  414   4.775   8.787   7.260  0.0253  0.0461  0.0115
    9POPC   D2A  415   4.817   8.615   6.856 -0.0794 -0.1406  0.0914
    9POPC   C3A  416   4.731   8.933   6.452  0.0186  0.1645 -0.0020
    9POPC   C4A  417   4.362   8.853   6.183  0.3232 -0.1740 -0.0509
    9POPC   C1B  418   4.947   8.152   7.075  0.2030 -0.0215  0.0696
    9POPC   C2B  419   4.997   7.876   6.796  0.1550 -0.2357  0.0189
    9POPC   C3B  420   4.951   7.685   6.423 -0.3128 -0.1588 -0.0589
    9POPC   C4B  421   5.043   7.537   5.947 -0.0387  0.1299  0.0939
   10POPC   NC3  422   3.884   9.631   7.849  0.0425 -0.3460  0.0061
   10POPC   PO4  423   4.264   9.851   7.845  0.0756 -0.1740  0.3623
   10POPC   GL1  424   4.217   9.777   7.467  0.1643 -0.2324 -0.0179
   10POPC   GL2  425   3.946   9.523   7.325 -0.0419  0.2713  0.1173
   10POPC   C1A  426   4.353   9.708   7.091 -0.1548  0.2386 -0.1442
   10POPC   D2A  427   4.652   9.750   6.848 -0.0540  0.3777 -0.2212
   10POPC   C3A  428   4.552   9.746   6.450 -0.0337 -0.0501  0.0602
   10POPC   C4A  429   4.673   9.357   6.227  0.0951  0.0097 -0.2124
   10POPC   C1B  430   3.984   9.406   6.962  0.2372 -0.0533  0.0418
   10POPC   C2B  431   4.047   9.557   6.552  0.0175 -0.1197 -0.1314
   10POPC   C3B  432   4.128   9.826   6.238  0.2193  0.0037 -0.2497
   10POPC   C4B  433   4.468  10.119   6.097  0.0882  0.1845 -0.0861
   11POPC   NC3  434   1.705   9.486   7.767  0.1192 -0.0783 -0.0118
   11POPC   PO4  435   1.242   9.448   7.707  0.1106 -0.0593 -0.1071
   11POPC   GL1  436   1.425   9.345   7.299 -0.3085  0.3362 -0.1523
   11POPC   GL2  437   1.221   9.411   7.021 -0.3629  0.1297  0.3666
   11POPC   C1A  438   1.621   9.448   6.728 -0.2074 -0.0116 -0.0776
   11POPC   D2A  439   1.945   9.593   6.504 -0.0341  0.4926 -0.2429
   11POPC   C3A  440   2.166   9.791   6.155  0.1862 -0.0186  0.4140
   11POPC   C4A  441   2.324  10.009   5.801  0.3458 -0.4311 -0.0436
   11POPC   C1B  442   1.201   9.582   6.541  0.2234  0.0344 -0.1564
   11POPC   C2B  443   1.084   9.639   6.124 -0.0807 -0.1634 -0.0789
   11POPC   C3B  444   0.851   9.352   5.821  0.1315  0.0498 -0.0891
   11POPC   C4B  445   1.051   9.009   5.681  0.2103 -0.0510  0.0747
   12POPC   NC3  446   0.233   8.056   7.956  0.0696  0.4941 -0.2597
   12POPC   PO4  447  -0.070   8.235   7.684  0.3107 -0.0423  0.0910
   12POPC   GL1  448   0.072   8.441   7.425 -0.2393 -0.0005  0.0079
   12POPC   GL2  449  -0.117   8.641   7.336 -0.0533 -0.1966  0.1209
   12POPC   C1A  450   0.238   8.345   6.986  0.0165 -0.0436 -0.0215
   12POPC   D2A  451   0.482   8.576   6.614  0.1920  0.0485 -0.3886
   12POPC   C3A  452   0.330   8.665   6.243 -0.3071 -0.1611  0.0822
   12POPC   C4A  453   0.402   8.287   6.016 -0.1087 -0.0482  0.0512
   12POPC   C1B  454  -0.348   8.650   6.996  0.2836 -0.0836  0.3972
   12POPC   C2B  455  -0.493   8.473   6.610 -0.6123 -0.0305 -0.2794
   12POPC   C3B  456  -0.657   8.600   6.216 -0.1122  0.0765  0.1911
   12POPC   C4B  457  -0.942   8.621   5.915  0.1834  0.0749 -0.0234
   13POPC   NC3  458   6.960   6.397   7.493  0.3038  0.0330 -0.0065
   13POPC   PO4  459   6.637   6.752   7.758  0.0897 -0.1794 -0.0432
   13POPC   GL1  460   6.591   6.745   7.367  0.0992  0.0922  0.2273
   13POPC   GL2  461   6.566   7.012   7.186  0.0813 -0.0150 -0.2240
   13POPC   C1A  462   6.572   6.640   6.953  0.0235  0.0549 -0.1987
   13POPC   D2A  463   6.609   6.632   6.548 -0.1522 -0.1075  0.2858
   13POPC   C3A  464   6.707   6.343   6.216 -0.1582 -0.2817  0.0143
   13POPC   C4A  465   6.423   6.318   5.935  0.1049 -0.0086 -0.0987
   13POPC   C1B  466   6.353   7.063   6.861  0.2570  0.0511 -0.0356
   13POPC   C2B  467   6.142   6.889   6.467  0.0839  0.0517  0.1163
   13POPC   C3B  468   6.480   7.001   6.149 -0.0913  0.1168 -0.2660
   13POPC   C4B  469   6.790   6.782   5.915 -0.3773 -0.0476 -0.0005
   14POPC   NC3  470   8.548   5.956   7.463  0.0565  0.2791 -0.0666
   14POPC   PO4  471   8.948   6.072   7.399  0.0012  0.0731 -0.3752
   14POPC   GL1  472   8.756   6.082   6.925  0.0040  0.0514 -0.0843
   14POPC   GL2  473   8.380   5.924   6.956  0.0134  0.1070  0.0416
   14POPC   C1A  474   8.847   6.077   6.535  0.0507 -0.1074 -0.0418
   14POPC   D2A  475   8.627   6.013   6.189  0.4661 -0.0760 -0.2424
   14POPC   C3A  476   8.300   6.215   5.934 -0.0162 -0.1059  0.1441
   14POPC   C4A  477   8.368   6.488   5.708 -0.4052  0.1521  0.0510
   14POPC   C1B  478   8.217   6.127   6.673 -0.0970 -0.0689  0.0529
   14POPC   C2B  479   8.348   6.384   6.436 -0.1318 -0.0054 -0.1103
   14POPC   C3B  480   8.742   6.533   6.184  0.1417 -0.0712 -0.2077
   14POPC   C4B  481   9.068   6.469   5.842  0.1961  0.1705  0.2037
   15POPC   NC3  482   9.864   5.922   7.563 -0.2384  0.1107  0.0182
   15POPC   PO4  483  10.097   6.237   7.375 -0.1400 -0.2450 -0.1361
   15POPC   GL1  484  10.187   6.432   7.086 -0.2660  0.2695  0.2334
   15POPC   GL2  485   9.935   6.666   7.071  0.4112  0.0670  0.1512
   15POPC   C1A  486  10.321   6.384   6.584  0.0944 -0.0365 -0.1548
   15POPC   D2A  487  10.442   6.387   6.184 -0.1292 -0.0614  0.1822
   15POPC   C3A  488  10.232   6.584   5.818 -0.0268 -0.0060  0.1783
   15POPC   C4A  489  10.443   6.763   5.620 -0.2992 -0.0609  0.0266
   15POPC   C1B  490   9.624   6.603   6.768 -0.2042 -0.0194  0.2276
   15POPC   C2B  491   9.280   6.915   6.630  0.0737  0.0295 -0.0905
   15POPC   C3B  492   9.139   6.871   6.122 -0.0775  0.1788  0.2680
   15POPC   C4B  493   9.199   6.997   5.664 -0.1738  0.1543  0.2199
   16POPC   NC3  494  10.339   4.221   7.564  0.2322  0.1193 -0.3667
   16POPC   PO4  495  10.233   4.549   7.277  0.0208 -0.1882 -0.0109
   16POPC   GL1  496  10.036   4.446   6.917 -0.2327 -0.0418 -0.1957
   16POPC   GL2  497   9.680   4.541   6.960 -0.3078 -0.1215  0.2914
   16POPC   C1A  498  10.066   4.207   6.492  0.0746  0.3878 -0.0779
   16POPC   D2A  499   9.887   4.013   6.152 -0.0612  0.0436  0.1246
   16POPC   C3A  500   9.892   4.107   5.714 -0.0016  0.0441 -0.1342
   16POPC   C4A  501   9.726   4.452   5.512  0.0664 -0.1839 -0.0238
   16POPC   C1B  502   9.563   4.316   6.635 -0.1494 -0.0320 -0.0454
   16POPC   C2B  503   9.447   4.199   6.255  0.3873  0.0178  0.0701
   16POPC   C3B  504   9.045   3.875   6.012 -0.2345  0.2446 -0.1133
   16POPC   C4B  505   8.782   3.918   5.687  0.2032 -0.1666  0.0745
   17POPC   NC3  506  10.430   7.542   8.178  0.1112  0.3083 -0.3110
   17POPC   PO4  507  10.564   7.837   7.894 -0.0122 -0.2295  0.0833
   17POPC   GL1  508  10.484   7.882   7.381  0.1126 -0.1710 -0.1085
   17POPC   GL2  509  10.564   8.142   7.212  0.0018  0.2920  0.1423
   17POPC   C1A  510  10.394   7.647   6.928  0.1241 -0.0389 -0.0654
   17POPC   D2A  511  10.707   7.686   6.632  0.0262  0.1242  0.3348
   17POPC   C3A  512  10.811   7.232   6.422  0.1820 -0.0272  0.0988
   17POPC   C4A  513  10.961   6.887   6.163  0.0760  0.0357  0.1122
   17POPC   C1B  514  10.616   8.092   6.885  0.2208 -0.1511  0.2798
   17POPC   C2B  515  10.670   8.180   6.486  0.1737 -0.1671  0.1561
   17POPC   C3B  516  10.587   8.448   6.174  0.0110 -0.2906  0.2861
   17POPC   C4B  517  10.805   8.386   5.689 -0.0004 -0.1711  0.0120
   18POPC   NC3  518   7.467   9.518   7.974 -0.0724  0.0753  0.1902
   18POPC   PO4  519   7.303   9.481   7.533  0.0492 -0.1905  0.0695
   18POPC   GL1  520   7.068   9.629   7.149 -0.3808 -0.1999 -0.0257
   18POPC   GL2  521   6.795   9.451   7.174  0.1933 -0.0651  0.1555
   18POPC   C1A  522   6.978   9.580   6.700  0.0402  0.0514 -0.1502
   18POPC   D2A  523   7.051   9.390   6.330 -0.0732 -0.0374  0.0951
   18POPC   C3A  524   6.889   9.203   5.845 -0.0405  0.1937 -0.0949
   18POPC   C4A  525   6.486   9.117   5.485 -0.2719 -0.2406  0.3380
   18POPC   C1B  526   6.582   9.242   6.866  0.1857  0.0165 -0.2506
   18POPC   C2B  527   6.574   9.235   6.471 -0.0425 -0.0716  0.1599
   18POPC   C3B  528   6.201   9.333   6.283 -0.0883 -0.1220  0.2913
   18POPC   C4B  529   5.892   9.450   6.019 -0.2919 -0.0646  0.0349
   19POPC   NC3  530   5.496   3.376   7.552 -0.0931 -0.0210  0.0023
   19POPC   PO4  531   4.962   3.433   7.508  0.3364 -0.1197 -0.0228
   19POPC   GL1  532   5.117   3.466   7.113  0.3309  0.0278 -0.0196
   19POPC   GL2  533   5.490   3.405   7.011 -0.0239 -0.2364  0.1033
   19POPC   C1A  534   5.157   3.387   6.666  0.1703 -0.1115 -0.1541
   19POPC   D2A  535   5.319   3.452   6.240 -0.1240 -0.0307  0.0725
   19POPC   C3A  536   5.186   3.559   5.917 -0.1879 -0.0312 -0.3456
   19POPC   C4A  537   5.313   3.932   5.724 -0.2881 -0.0015  0.0540
   19POPC   C1B  538   5.632   3.674   6.665  0.0353  0.1408  0.1763
   19POPC   C2B  539   5.863   3.634   6.285 -0.2537  0.1412  0.0450
   19POPC   C3B  540   5.695   3.597   5.876 -0.2479 -0.0618  0.0940
   19POPC   C4B  541   5.601   3.615   5.481  0.1988  0.0725 -0.2456
   20POPC   NC3  542   7.591   0.472   8.156  0.4801  0.0962 -0.1237
   20POPC   PO4  543   7.650  -0.015   8.241 -0.0885 -0.3190  0.0289
   20POPC   GL1  544   7.727   0.098   7.829  0.0201 -0.0972 -0.2320
   20POPC   GL2  545   8.085   0.076   7.770  0.1281 -0.0193  0.2361
   20POPC   C1A  546   7.560   0.176   7.485  0.2349 -0.2764  0.1495
   20POPC   D2A  547   7.640   0.157   7.071 -0.0782  0.1735 -0.2894
   20POPC   C3A  548   7.696   0.553   6.824 -0.2202  0.1364  0.0498
   20POPC   C4A  549   7.570   0.566   6.372  0.0306  0.3085  0.2564
   20POPC   C1B  550   7.971  -0.068   7.393 -0.2505 -0.0791  0.1252
   20POPC   C2B  551   8.070  -0.313   6.942  0.1864  0.1326 -0.0500
   20POPC   C3B  552   8.262  -0.566   6.587  0.2202  0.0799  0.1002
   20POPC   C4B  553   8.135  -0.736   6.225  0.1320  0.2065  0.0165
   21POPC   NC3  554   3.294   1.130   7.633 -0.0360  0.0522  0.1467
   21POPC   PO4  555   3.281   0.678   7.597  0.0772 -0.1991 -0.4436
   21POPC   GL1  556   3.072   0.737   7.162 -0.4377  0.2974  0.0517
   21POPC   GL2  557   3.271   1.028   7.104  0.4011  0.1333  0.1928
   21POPC   C1A  558   2.996   0.641   6.745 -0.1623  0.2595  0.1687
   21POPC   D2A  559   2.696   0.589   6.391 -0.4854  0.2261 -0.1326
   21POPC   C3A  560   2.736   0.726   5.980 -0.1411 -0.1737 -0.2249
   21POPC   C4A  561   3.010   0.799   5.648 -0.2230  0.1776 -0.1814
   21POPC   C1B  562   3.056   1.112   6.798  0.2464  0.1655  0.0020
   21POPC   C2B  563   2.836   1.132   6.381  0.1050  0.0562  0.0805
   21POPC   C3B  564   2.813   1.464   6.043  0.0531 -0.1816  0.0589
   21POPC   C4B  565   2.830   1.626   5.695 -0.0619  0.1487  0.1404
   22POPC   NC3  566   7.812   8.727   7.383  0.2111  0.0716 -0.1022
   22POPC   PO4  567   7.505   9.013   7.451  0.0881  0.0580  0.2031
   22POPC   GL1  568   7.542   9.347   7.140 -0.1220 -0.1213 -0.1258
   22POPC   GL2  569   7.724   9.618   7.179 -0.0327 -0.0857 -0.0452
   22POPC   C1A  570   7.417   9.472   6.693 -0.1537  0.4562  0.0066
   22POPC   D2A  571   7.388   9.747   6.373 -0.1658  0.1067 -0.5209
   22POPC   C3A  572   6.960   9.864   6.224  0.0697 -0.1345  0.2169
   22POPC   C4A  573   6.771   9.865   5.811 -0.0955  0.0621  0.0653
   22POPC   C1B  574   7.408   9.947   7.011 -0.1930  0.0790  0.2924
   22POPC   C2B  575   7.163  10.143   6.634 -0.0956 -0.2394 -0.0421
   22POPC   C3B  576   7.009  10.479   6.340  0.1016 -0.0471  0.1522
   22POPC   C4B  577   6.813  10.572   5.933 -0.4345  0.2511  0.0430
   23POPC   NC3  578   8.645   2.612   8.031  0.2984  0.1762  0.1109
   23POPC   PO4  579   8.726   3.008   7.889  0.3726 -0.2550 -0.1314
   23POPC   GL1  580   8.490   2.795   7.539  0.0515 -0.0242 -0.0200
   23POPC   GL2  581   8.628   2.407   7.499  0.2714 -0.3194  0.1304
   23POPC   C1A  582   8.199   2.926   7.195 -0.0052 -0.2602  0.2884
   23POPC   D2A  583   8.083   2.857   6.870  0.1011  0.1445 -0.1584
   23POPC   C3A  584   8.199   2.422   6.776  0.0302  0.1020 -0.1176
   23POPC   C4A  585   8.399   2.014   6.980 -0.4269  0.2306 -0.0954
   23POPC   C1B  586   8.564   2.508   7.063 -0.0036 -0.0046 -0.1289
   23POPC   C2B  587   8.580   2.878   6.711 -0.0165  0.0915  0.1017
   23POPC   C3B  588   8.248   3.181   6.339 -0.3085 -0.2635  0.1205
   23POPC   C4B  589   7.960   3.501   6.223 -0.0692  0.0440  0.3588
   24POPC   NC3  590   0.522   4.449   7.439  0.2349 -0.0085 -0.0694
   24POPC   PO4  591   0.440   3.968   7.490  0.2054  0.2513 -0.1013
   24POPC   GL1  592   0.234   3.865   7.077 -0.1481 -0.2409  0.0799
   24POPC   GL2  593   0.309   4.091   6.927 -0.1966  0.4033  0.0896
   24POPC   C1A  594   0.161   3.546   6.718 -0.1095 -0.1653  0.1057
   24POPC   D2A  595   0.158   3.616   6.314  0.2591 -0.0253  0.0477
   24POPC   C3A  596  -0.149   3.677   6.075  0.1610 -0.1084  0.0849
   24POPC   C4A  597  -0.431   3.983   5.856  0.0402 -0.0028  0.2061
   24POPC   C1B  598   0.249   4.194   6.486  0.2095  0.0166  0.2802
   24POPC   C2B  599   0.373   4.461   6.158  0.0449 -0.0454  0.3658
   24POPC   C3B  600   0.280   4.723   5.859  0.0126 -0.3027  0.3451
   24POPC   C4B  601  -0.120   4.702   5.686  0.0959 -0.2436 -0.0764
   25POPC   NC3  602   6.788   2.538   8.831 -0.2271 -0.1773 -0.2484
   25POPC   PO4  603   6.801   2.379   8.419  0.2423 -0.1641 -0.0968
   25POPC   GL1  604   6.914   2.389   8.055 -0.1214  0.1143  0.3068
   25POPC   GL2  605   6.848   2.640   7.918 -0.0684 -0.0095  0.2249
   25POPC   C1A  606   6.941   2.274   7.598 -0.0495  0.1902 -0.0385
   25POPC   D2A  607   7.063   1.998   7.266  0.1664 -0.4686  0.0501
   25POPC   C3A  608   7.490   2.096   7.045 -0.1519  0.2026  0.1804
   25POPC   C4A  609   7.656   2.374   6.730 -0.1025  0.1089 -0.0313
   25POPC   C1B  610   7.268   2.687   7.704  0.1183  0.1019 -0.0427
   25POPC   C2B  611   7.596   2.509   7.404 -0.1020  0.3950  0.0089
   25POPC   C3B  612   7.649   2.743   7.029  0.1593  0.0587 -0.0476
   25POPC   C4B  613   7.734   3.164   6.883 -0.0744 -0.0759  0.1522
   26POPC   NC3  614   4.545   6.474   7.826  0.3365 -0.0457  0.0881
   26POPC   PO4  615   4.166   6.283   7.859  0.1753  0.1966 -0.1574
   26POPC   GL1  616   4.323   6.215   7.405  0.1606 -0.1331 -0.1709
   26POPC   GL2  617   4.099   6.431   7.310  0.4058 -0.1214 -0.1913
   26POPC   C1A  618   4.522   6.439   7.076 -0.3669  0.0495 -0.1688
   26POPC   D2A  619   4.775   6.547   6.692  0.0141  0.0924 -0.2277
   26POPC   C3A  620   4.494   6.704   6.409  0.1714 -0.0352 -0.1184
   26POPC   C4A  621   4.572   6.948   5.996 -0.0203  0.0907  0.0781
   26POPC   C1B  622   3.763   6.632   7.035 -0.4063 -0.0149  0.0293
   26POPC   C2B  623   3.571   6.640   6.672  0.2362  0.1750 -0.0377
   26POPC   C3B  624   3.319   6.487   6.243 -0.0028  0.1799  0.2908
   26POPC   C4B  625   2.944   6.684   5.990  0.1934  0.1732 -0.1698
   27POPC   NC3  626   8.479   7.685   7.729 -0.2566  0.1670 -0.0192
   27POPC   PO4  627   8.273   7.743   7.419 -0.0134  0.3702 -0.2917
   27POPC   GL1  628   8.178   7.926   7.014  0.1873 -0.0106  0.0014
   27POPC   GL2  629   7.879   7.659   6.937 -0.0107  0.0053  0.2584
   27POPC   C1A  630   8.272   7.894   6.606 -0.1338 -0.1644 -0.1125
   27POPC   D2A  631   8.404   7.722   6.298  0.2853  0.0783  0.0198
   27POPC   C3A  632   8.263   7.459   6.113  0.0899 -0.3688  0.0029
   27POPC   C4A  633   8.362   7.075   6.016  0.0054 -0.0498 -0.5644
   27POPC   C1B  634   7.441   7.454   6.689  0.0165 -0.2358 -0.2098
   27POPC   C2B  635   7.507   7.421   6.287  0.1661  0.0670  0.0398
   27POPC   C3B  636   7.684   7.290   5.835 -0.0216  0.0513 -0.1792
   27POPC   C4B  637   7.933   7.362   5.493  0.1564  0.1866  0.0931
   28POPC   NC3  638   3.418   6.695   7.840  0.0242 -0.2268 -0.2486
   28POPC   PO4  639   3.111   6.612   7.410  0.2489  0.0898  0.1880
   28POPC   GL1  640   3.160   6.611   6.936  0.1824 -0.1646 -0.2119
   28POPC   GL2  641   2.960   6.282   6.958 -0.0838 -0.2460  0.1887
   28POPC   C1A  642   2.924   6.549   6.534  0.0850 -0.3865  0.0443
   28POPC   D2A  643   2.700   6.882   6.382  0.2099 -0.3481  0.1350
   28POPC   C3A  644   2.910   7.268   6.223 -0.0113  0.1086 -0.1461
   28POPC   C4A  645   3.184   7.465   5.976 -0.0267  0.1994 -0.2511
   28POPC   C1B  646   2.677   6.031   6.708  0.2613  0.0389 -0.0050
   28POPC   C2B  647   2.646   6.186   6.240  0.0404 -0.0434  0.1115
   28POPC   C3B  648   2.484   6.507   5.990  0.1296  0.0947  0.1062
   28POPC   C4B  649   2.405   6.832   5.841  0.2027  0.1491  0.0024
   29POPC   NC3  650   5.946   1.149   8.360 -0.2397  0.0467  0.2005
   29POPC   PO4  651   5.970   0.673   8.159  0.3089 -0.0229 -0.2326
   29POPC   GL1  652   6.135   0.687   7.746  0.1201 -0.4968 -0.3213
   29POPC   GL2  653   6.415   0.637   7.805  0.1062 -0.1051  0.2546
   29POPC   C1A  654   6.023   0.919   7.461 -0.1356 -0.2479  0.3266
   29POPC   D2A  655   6.183   1.057   7.087 -0.2270  0.2378  0.2548
   29POPC   C3A  656   6.563   1.088   6.932 -0.1890  0.0498  0.0358
   29POPC   C4A  657   6.772   1.403   6.746 -0.2732 -0.2958 -0.0127
   29POPC   C1B  658   6.270   0.512   7.346  0.3248  0.0651  0.2748
   29POPC   C2B  659   6.061   0.552   6.948  0.1445 -0.0688 -0.0403
   29POPC   C3B  660   5.743   0.708   6.686 -0.2261  0.1456 -0.1298
   29POPC   C4B  661   5.551   0.735   6.278  0.2817 -0.0195  0.4601
   30POPC   NC3  662   3.080   1.930   7.769  0.0622 -0.0481 -0.0349
   30POPC   PO4  663   2.765   1.947   7.466  0.1300 -0.0285  0.0113
   30POPC   GL1  664   2.801   2.206   7.108  0.2141  0.3749 -0.1171
   30POPC   GL2  665   2.743   2.527   7.074  0.1616  0.1053  0.0356
   30POPC   C1A  666   2.830   2.126   6.637 -0.0995 -0.3657 -0.0968
   30POPC   D2A  667   2.908   2.235   6.211 -0.2626  0.0054 -0.0150
   30POPC   C3A  668   3.025   1.928   6.042  0.1362 -0.4281  0.1320
   30POPC   C4A  669   3.388   1.761   5.857  0.1267  0.2657  0.3073
   30POPC   C1B  670   2.444   2.464   6.736  0.5683  0.1003  0.1287
   30POPC   C2B  671   2.368   2.235   6.356  0.1586  0.2561  0.3278
   30POPC   C3B  672   2.242   2.067   5.953 -0.1668  0.1532  0.2015
   30POPC   C4B  673   1.880   2.044   5.704  0.1224  0.1893 -0.2126
   31POPC   NC3  674   4.106   0.865   7.848  0.0245 -0.2394 -0.0238
   31POPC   PO4  675   3.755   0.915   7.554  0.0873 -0.1323 -0.2818
   31POPC   GL1  676   3.636   0.600   7.171 -0.0206 -0.2074  0.0232
   31POPC   GL2  677   3.764   0.707   6.953  0.2875 -0.1598  0.0844
   31POPC   C1A  678   3.617   0.284   6.814  0.0145  0.0408  0.2358
   31POPC   D2A  679   3.413  -0.145   6.808 -0.0561 -0.0423  0.2262
   31POPC   C3A  680   3.532  -0.393   6.405 -0.1721  0.1834 -0.1968
   31POPC   C4A  681   3.702  -0.750   6.332  0.1204  0.1887 -0.2912
   31POPC   C1B  682   3.456   0.759   6.663  0.3604 -0.0756 -0.0027
   31POPC   C2B  683   3.229   0.702   6.245  0.1035 -0.2913 -0.3024
   31POPC   C3B  684   3.242   0.368   5.910 -0.0389 -0.2568 -0.0243
   31POPC   C4B  685   3.294   0.025   5.589  0.4324  0.2923  0.0737
   32POPC   NC3  686   1.304  10.381   7.462  0.0703  0.0532 -0.3906
   32POPC   PO4  687   1.339   9.946   7.454  0.1154  0.1296  0.2252
   32POPC   GL1  688   1.379  10.149   6.988  0.3216 -0.2653 -0.1809
   32POPC   GL2  689   1.125  10.093   6.764  0.2982  0.3008  0.0802
   32POPC   C1A  690   1.372  10.481   6.762  0.0753 -0.1187 -0.1175
   32POPC   D2A  691   1.197  10.837   6.485  0.3037 -0.0872 -0.0803
   32POPC   C3A  692   1.347  11.023   6.000 -0.2532  0.0984 -0.2615
   32POPC   C4A  693   1.804  10.951   5.898 -0.1932  0.1812 -0.1487
   32POPC   C1B  694   0.876   9.944   6.443  0.0149 -0.1074 -0.1258
   32POPC   C2B  695   0.527  10.127   6.239 -0.1940  0.1774 -0.3317
   32POPC   C3B  696   0.133  10.410   6.055 -0.0615 -0.0184 -0.1351
   32POPC   C4B  697  -0.178  10.284   5.673 -0.0749  0.3281 -0.1253
   33POPC   NC3  698   8.274   6.975   7.513  0.0219 -0.0558 -0.1939
   33POPC   PO4  699   7.957   6.596   7.597 -0.1891 -0.1516 -0.1501
   33POPC   GL1  700   7.894   6.781   7.109  0.1358  0.0854 -0.2901
   33POPC   GL2  701   7.607   6.980   6.996 -0.0127  0.2029  0.0178
   33POPC   C1A  702   8.046   6.751   6.665  0.0621 -0.1717 -0.6412
   33POPC   D2A  703   7.983   6.839   6.274  0.2629  0.1151 -0.2962
   33POPC   C3A  704   7.638   6.833   6.027 -0.1822  0.0690  0.1343
   33POPC   C4A  705   7.265   6.890   6.012  0.1588  0.0220 -0.2573
   33POPC   C1B  706   7.584   6.499   6.796 -0.2583 -0.1419  0.2191
   33POPC   C2B  707   7.621   6.375   6.482 -0.1846  0.1826  0.1811
   33POPC   C3B  708   7.840   6.359   6.091  0.2427 -0.0650  0.3187
   33POPC   C4B  709   7.785   6.462   5.722  0.0362  0.1039  0.0968
   34POPC   NC3  710   0.698   2.697   7.645  0.1520  0.0820  0.1230
   34POPC   PO4  711   0.450   2.370   7.588 -0.1042 -0.0969 -0.3482
   34POPC   GL1  712   0.388   2.320   7.214 -0.1165 -0.0783 -0.4902
   34POPC   GL2  713   0.219   2.558   7.117  0.1764 -0.0144 -0.1270
   34POPC   C1A  714   0.426   2.171   6.722  0.0858  0.2270 -0.1905
   34POPC   D2A  715   0.481   2.254   6.243  0.2853  0.0153  0.1067
   34POPC   C3A  716   0.169   2.190   5.947 -0.2569  0.2840 -0.2910
   34POPC   C4A  717   0.028   2.063   5.507 -0.0215  0.0572 -0.0519
   34POPC   C1B  718   0.156   2.596   6.729 -0.1260 -0.1722 -0.1918
   34POPC   C2B  719  -0.014   2.226   6.433 -0.3202 -0.1005 -0.2549
   34POPC   C3B  720   0.122   1.922   6.383  0.3239  0.1056  0.0855
   34POPC   C4B  721   0.255   1.611   6.126 -0.0228  0.0638 -0.2668
   35POPC   NC3  722   8.491   8.142   7.503  0.0882  0.0805  0.0577
   35POPC   PO4  723   8.884   8.090   7.638 -0.0578 -0.2858  0.3065
   35POPC   GL1  724   8.719   7.831   7.189 -0.0605 -0.3892 -0.1940
   35POPC   GL2  725   8.614   7.562   7.094 -0.0804  0.0745  0.0507
   35POPC   C1A  726   8.652   8.145   6.777  0.3070  0.0127 -0.1582
   35POPC   D2A  727   8.544   8.304   6.443 -0.2621 -0.0805 -0.1383
   35POPC   C3A  728   8.789   8.462   6.085  0.0759 -0.1609 -0.2403
   35POPC   C4A  729   8.693   8.504   5.691  0.3740 -0.2334 -0.0771
   35POPC   C1B  730   8.376   7.371   6.707  0.0737  0.0114 -0.0974
   35POPC   C2B  731   7.941   7.224   6.627 -0.2618 -0.0289  0.1385
   35POPC   C3B  732   7.580   6.976   6.526 -0.1973  0.1810 -0.3782
   35POPC   C4B  733   7.125   6.788   6.467 -0.2336  0.0547 -0.1140
   36POPC   NC3  734   2.617  10.737   7.508 -0.1188  0.1264 -0.1801
   36POPC   PO4  735   3.061  10.720   7.581 -0.1201  0.2247  0.0399
   36POPC   GL1  736   2.994  10.764   7.115 -0.0698  0.4536 -0.0769
   36POPC   GL2  737   3.065  10.984   7.038 -0.1973  0.2252  0.0849
   36POPC   C1A  738   2.948  10.513   6.828  0.3924 -0.2892  0.0738
   36POPC   D2A  739   3.007  10.257   6.399  0.3763 -0.1745 -0.1244
   36POPC   C3A  740   2.858   9.848   6.228 -0.1199  0.1032  0.0003
   36POPC   C4A  741   2.531   9.722   6.539 -0.0259  0.1359  0.1740
   36POPC   C1B  742   3.135  10.976   6.579  0.0105  0.4691 -0.0607
   36POPC   C2B  743   3.447  10.893   6.357  0.5789 -0.2452  0.0811
   36POPC   C3B  744   3.567  10.775   6.043 -0.4019  0.0198 -0.0676
   36POPC   C4B  745   3.844  10.743   5.730 -0.1294  0.0457  0.1004
   37POPC   NC3  746   7.051   7.461   8.124  0.1398 -0.0689 -0.0929
   37POPC   PO4  747   7.160   7.394   7.668 -0.4749 -0.0452 -0.2803
   37POPC   GL1  748   7.039   7.590   7.238  0.0476  0.0490 -0.0444
   37POPC   GL2  749   6.966   7.285   7.225  0.1495  0.2499 -0.1062
   37POPC   C1A  750   7.062   7.766   6.906 -0.2427 -0.0317 -0.3932
   37POPC   D2A  751   7.247   7.808   6.437  0.1021 -0.0759  0.1281
   37POPC   C3A  752   7.308   7.892   6.001  0.3512 -0.0078  0.2649
   37POPC   C4A  753   7.550   7.692   5.651 -0.2780 -0.1762  0.2637
   37POPC   C1B  754   7.116   7.164   6.814  0.0602 -0.0882 -0.0828
   37POPC   C2B  755   6.882   7.252   6.507 -0.1142  0.0090 -0.0990
   37POPC   C3B  756   6.920   7.215   6.100 -0.1506  0.3133 -0.2355
   37POPC   C4B  757   7.140   7.380   5.819  0.1938  0.0982  0.2551
   38POPC   NC3  758   8.560   8.973   7.655 -0.0021 -0.1671 -0.1412
   38POPC   PO4  759   8.160   8.994   7.717 -0.1363  0.1012  0.2868
   38POPC   GL1  760   8.146   9.039   7.248  0.0414 -0.1063  0.0333
   38POPC   GL2  761   7.970   9.092   7.087  0.1351 -0.0013  0.0633
   38POPC   C1A  762   8.437   9.192   6.856 -0.2131 -0.3195 -0.0287
   38POPC   D2A  763   8.493   9.264   6.385 -0.0058 -0.4573 -0.1195
   38POPC   C3A  764   8.410   9.183   6.041  0.0370  0.1720  0.2006
   38POPC   C4A  765   8.362   8.882   5.682  0.2374  0.0791  0.0151
   38POPC   C1B  766   7.706   8.891   6.755 -0.1407 -0.0112  0.1949
   38POPC   C2B  767   7.755   8.707   6.375  0.1699  0.0916 -0.2305
   38POPC   C3B  768   8.045   8.634   6.037 -0.1348  0.0207  0.1936
   38POPC   C4B  769   7.994   8.541   5.714 -0.0015 -0.2894  0.0672
   39POPC   NC3  770   7.566   5.547   7.480  0.0040  0.5044 -0.0153
   39POPC   PO4  771   7.289   5.892   7.419 -0.0139  0.2186 -0.0245
   39POPC   GL1  772   7.359   5.764   7.093 -0.0157 -0.1135  0.1083
   39POPC   GL2  773   7.435   5.989   6.887  0.1122  0.3338  0.0121
   39POPC   C1A  774   7.375   5.459   6.760 -0.0288 -0.1926 -0.0639
   39POPC   D2A  775   7.425   5.318   6.277  0.1385 -0.0444 -0.5802
   39POPC   C3A  776   7.880   5.443   6.171  0.0173  0.0152 -0.1538
   39POPC   C4A  777   8.059   5.403   5.817 -0.0871  0.0674 -0.0406
   39POPC   C1B  778   7.094   6.245   6.557 -0.2960  0.3295 -0.3597
   39POPC   C2B  779   7.270   6.348   6.092  0.1515 -0.2879  0.2598
   39POPC   C3B  780   7.346   6.570   5.625 -0.0656  0.0062 -0.0564
   39POPC   C4B  781   7.730   6.911   5.440  0.1078 -0.0828  0.0215
   40POPC   NC3  782   9.573   7.439   7.839 -0.4130  0.0117 -0.0479
   40POPC   PO4  783  10.054   7.651   7.901 -0.2694 -0.0391  0.2740
   40POPC   GL1  784  10.113   7.545   7.547  0.1315 -0.0544  0.1087
   40POPC   GL2  785  10.150   7.202   7.473 -0.1195  0.2264  0.1665
   40POPC   C1A  786   9.958   7.728   7.199 -0.0970  0.0739  0.1689
   40POPC   D2A  787   9.761   7.608   6.884  0.1973 -0.3479  0.1169
   40POPC   C3A  788  10.077   7.488   6.540 -0.0407  0.0158  0.2899
   40POPC   C4A  789   9.917   7.465   6.099  0.0717  0.0175  0.0446
   40POPC   C1B  790  10.164   7.228   6.983  0.0542  0.0613 -0.1259
   40POPC   C2B  791  10.376   7.071   6.637  0.2381 -0.2347 -0.0774
   40POPC   C3B  792  10.713   6.735   6.576 -0.3738  0.3234 -0.3208
   40POPC   C4B  793  11.026   6.557   6.532  0.0228 -0.0211 -0.1189
   41POPC   NC3  794   7.319   4.196   7.978  0.1516  0.1637 -0.0366
   41POPC   PO4  795   7.669   4.214   7.610  0.1995  0.1873 -0.0582
   41POPC   GL1  796   7.512   4.386   7.255 -0.0457  0.4572  0.2909
   41POPC   GL2  797   7.483   4.779   7.194  0.0452  0.0520 -0.1370
   41POPC   C1A  798   7.410   4.399   6.866  0.0069 -0.2819  0.0540
   41POPC   D2A  799   7.249   4.268   6.456  0.2883  0.3453  0.0048
   41POPC   C3A  800   6.842   4.409   6.330  0.0166 -0.0549  0.1796
   41POPC   C4A  801   6.874   4.555   6.018 -0.0108 -0.0296  0.0487
   41POPC   C1B  802   7.504   4.883   6.685 -0.1335 -0.1614 -0.1043
   41POPC   C2B  803   7.182   4.830   6.399  0.2815 -0.2957 -0.0111
   41POPC   C3B  804   7.109   5.010   5.986 -0.0579 -0.0065  0.0766
   41POPC   C4B  805   7.014   5.447   5.954  0.2094  0.1461  0.1394
   42POPC   NC3  806  10.175   8.184   7.784 -0.2891  0.0989  0.1062
   42POPC   PO4  807  10.247   8.604   7.879  0.1155 -0.1137 -0.1147
   42POPC   GL1  808  10.166   8.709   7.471  0.0175  0.1639 -0.1166
   42POPC   GL2  809  10.125   8.357   7.336 -0.1813  0.0252 -0.0423
   42POPC   C1A  810   9.840   8.756   7.085  0.2493  0.1866  0.0083
   42POPC   D2A  811   9.839   8.755   6.636 -0.3270 -0.0577 -0.1359
   42POPC   C3A  812   9.464   8.652   6.466 -0.0508 -0.0901 -0.2783
   42POPC   C4A  813   9.119   8.412   6.478  0.1445  0.1997  0.2064
   42POPC   C1B  814  10.072   8.136   6.943 -0.1295 -0.1384  0.1641
   42POPC   C2B  815  10.149   7.984   6.491 -0.0256 -0.2768  0.1775
   42POPC   C3B  816  10.323   7.867   6.183 -0.2301  0.0948 -0.1826
   42POPC   C4B  817  10.433   7.433   6.105  0.1200  0.2115  0.1824
   43POPC   NC3  818   5.428   5.658   7.922 -0.3963  0.1491 -0.3101
   43POPC   PO4  819   5.005   6.007   8.054  0.0702 -0.0696  0.2911
   43POPC   GL1  820   5.244   5.960   7.595 -0.3622  0.1880  0.3123
   43POPC   GL2  821   5.443   6.124   7.492  0.4243 -0.0285 -0.2073
   43POPC   C1A  822   5.039   5.775   7.265 -0.0814 -0.2936  0.0158
   43POPC   D2A  823   4.885   6.127   6.880 -0.1222 -0.1328  0.2809
   43POPC   C3A  824   5.071   6.129   6.434  0.2878 -0.0620  0.0904
   43POPC   C4A  825   5.341   5.959   6.151  0.0178  0.0797 -0.0502
   43POPC   C1B  826   5.452   6.006   7.085 -0.0691  0.2150 -0.0944
   43POPC   C2B  827   5.257   5.681   6.833  0.4003  0.1775 -0.0622
   43POPC   C3B  828   5.168   5.299   6.955 -0.1312 -0.0976 -0.1192
   43POPC   C4B  829   5.178   5.055   6.475  0.0775  0.1952 -0.1932
   44POPC   NC3  830   8.803   6.841   7.725 -0.0590 -0.1231  0.0900
   44POPC   PO4  831   8.704   7.239   7.597 -0.0020  0.0653  0.2238
   44POPC   GL1  832   8.805   7.066   7.204 -0.0782 -0.1516 -0.0229
   44POPC   GL2  833   9.172   7.126   7.194 -0.3705  0.0891 -0.0976
   44POPC   C1A  834   8.859   7.230   6.774  0.1471 -0.1148 -0.0918
   44POPC   D2A  835   8.801   7.578   6.551 -0.1697  0.0413 -0.1536
   44POPC   C3A  836   9.126   7.580   6.207 -0.1024  0.0899 -0.1701
   44POPC   C4A  837   9.433   7.460   5.908 -0.2551 -0.0264 -0.3895
   44POPC   C1B  838   9.261   7.451   6.982 -0.0668 -0.3063 -0.2286
   44POPC   C2B  839   9.386   7.414   6.551  0.2102 -0.2873  0.2208
   44POPC   C3B  840   9.558   7.752   6.303  0.2336  0.0875  0.2618
   44POPC   C4B  841   9.840   7.949   5.948  0.2477 -0.1048 -0.1788
   45POPC   NC3  842  10.598   5.592   7.520 -0.5867  0.0973  0.2033
   45POPC   PO4  843  10.438   5.939   7.594  0.3277  0.2859  0.0576
   45POPC   GL1  844  10.229   5.763   7.220 -0.1144 -0.0786  0.1593
   45POPC   GL2  845  10.105   5.880   6.972 -0.0098 -0.1624  0.1139
   45POPC   C1A  846  10.166   5.358   7.022  0.3748  0.0749 -0.0827
   45POPC   D2A  847  10.206   4.973   6.923 -0.2489 -0.1227  0.1534
   45POPC   C3A  848   9.850   4.901   6.684 -0.3080  0.1300  0.1289
   45POPC   C4A  849   9.619   5.141   6.313  0.0872 -0.1305  0.0118
   45POPC   C1B  850   9.912   6.151   6.684  0.3228 -0.1129  0.0533
   45POPC   C2B  851   9.888   6.516   6.369  0.0233 -0.0187  0.1774
   45POPC   C3B  852  10.096   6.854   6.228  0.0239  0.0286  0.1404
   45POPC   C4B  853  10.443   6.913   6.126  0.0295 -0.0431 -0.2329
   46POPC   NC3  854   2.756   1.134   8.131 -0.0237 -0.5182 -0.1642
   46POPC   PO4  855   2.897   1.478   7.844 -0.0471  0.0055 -0.2185
   46POPC   GL1  856   2.977   1.518   7.438  0.2832  0.1346 -0.0343
   46POPC   GL2  857   3.163   1.485   7.074  0.2064 -0.1726 -0.2024
   46POPC   C1A  858   2.650   1.206   7.169 -0.0526 -0.3009 -0.3229
   46POPC   D2A  859   2.167   1.038   7.071  0.0320  0.1732  0.2159
   46POPC   C3A  860   2.111   0.767   6.896 -0.1737 -0.2255 -0.1216
   46POPC   C4A  861   2.207   0.406   6.684  0.1166 -0.1473  0.3226
   46POPC   C1B  862   3.232   1.879   6.900  0.1425  0.2069  0.1302
   46POPC   C2B  863   3.375   2.052   6.615  0.0728 -0.0604 -0.2471
   46POPC   C3B  864   3.396   2.177   6.262  0.4135  0.0201  0.2052
   46POPC   C4B  865   3.519   2.429   5.959 -0.2144 -0.0404  0.1510
   47POPC   NC3  866  10.736   2.459   7.554  0.0791  0.1530  0.0025
   47POPC   PO4  867  11.043   2.935   7.529  0.2356  0.0425  0.2096
   47POPC   GL1  868  10.943   3.064   7.031  0.1321 -0.1683  0.0532
   47POPC   GL2  869  11.239   2.984   6.802  0.1319  0.0966 -0.2754
   47POPC   C1A  870  10.602   3.111   6.851 -0.2857 -0.1155  0.2643
   47POPC   D2A  871  10.496   3.309   6.466  0.2061 -0.0219 -0.0544
   47POPC   C3A  872  10.248   3.016   6.270 -0.0377  0.2466  0.1304
   47POPC   C4A  873   9.986   2.714   6.406  0.0004 -0.1652  0.0175
   47POPC   C1B  874  10.920   3.004   6.416 -0.0859  0.0053 -0.2805
   47POPC   C2B  875  10.693   3.073   6.033 -0.1769  0.4638  0.2112
   47POPC   C3B  876  10.759   3.359   5.635 -0.3378 -0.0038 -0.0075
   47POPC   C4B  877  10.825   3.778   5.533 -0.0629  0.0306  0.0600
   48POPC   NC3  878   7.684   1.964   8.830 -0.0213  0.1233 -0.1694
   48POPC   PO4  879   7.655   2.248   8.456 -0.1621 -0.0659 -0.0376
   48POPC   GL1  880   7.887   2.011   8.151  0.1310 -0.0928  0.0884
   48POPC   GL2  881   8.214   1.739   8.103  0.2874  0.1591 -0.1350
   48POPC   C1A  882   7.905   1.943   7.729  0.1559  0.4286  0.1841
   48POPC   D2A  883   8.335   1.930   7.625  0.1513  0.1808  0.0630
   48POPC   C3A  884   8.412   1.499   7.452 -0.0682  0.0768  0.1080
   48POPC   C4A  885   8.412   1.236   7.244  0.0897  0.0092 -0.2098
   48POPC   C1B  886   8.475   1.324   7.963  0.0185  0.2513  0.0588
   48POPC   C2B  887   8.727   1.099   7.586 -0.1083 -0.2366  0.1397
   48POPC   C3B  888   8.862   0.995   7.197 -0.0326 -0.2385 -0.1102
   48POPC   C4B  889   8.829   1.170   6.790  0.1667  0.1003 -0.0711
   49POPC   NC3  890   6.692   3.324   8.124 -0.0505 -0.3830 -0.2393
   49POPC   PO4  891   6.369   3.144   7.904  0.2032  0.0184 -0.1013
   49POPC   GL1  892   6.578   3.400   7.592  0.1759  0.1612 -0.1363
   49POPC   GL2  893   6.361   3.609   7.485  0.1304 -0.1445 -0.1660
   49POPC   C1A  894   6.979   3.598   7.325 -0.2777 -0.1173 -0.2212
   49POPC   D2A  895   7.349   3.475   7.110  0.1170  0.1540  0.1253
   49POPC   C3A  896   7.758   3.615   6.884 -0.4815 -0.2783 -0.0313
   49POPC   C4A  897   8.079   3.574   6.710 -0.0328  0.1717  0.0532
   49POPC   C1B  898   6.573   3.743   7.062  0.2069 -0.1728 -0.1299
   49POPC   C2B  899   6.703   3.502   6.762  0.0752  0.1138  0.1436
   49POPC   C3B  900   6.636   3.154   6.606 -0.1488 -0.0023  0.2081
   49POPC   C4B  901   6.358   2.872   6.752 -0.1448  0.3684  0.1217
   50POPC   NC3  902   4.678   5.885   7.744  0.0410  0.3499  0.1294
   50POPC   PO4  903   4.526   5.420   7.737  0.0413 -0.0826  0.0052
   50POPC   GL1  904   4.753   5.360   7.261 -0.2916 -0.0037 -0.0739
   50POPC   GL2  905   4.309   5.348   6.985  0.0693  0.1004  0.3513
   50POPC   C1A  906   4.761   5.541   6.966 -0.2249 -0.2513  0.0177
   50POPC   D2A  907   4.887   5.488   6.574 -0.2327 -0.0095  0.1820
   50POPC   C3A  908   5.328   5.476   6.276 -0.0047  0.3715 -0.2309
   50POPC   C4A  909   5.583   5.194   6.022  0.1496 -0.0444 -0.0199
   50POPC   C1B  910   4.280   5.569   6.693 -0.0048  0.2871 -0.0722
   50POPC   C2B  911   4.485   5.992   6.645 -0.2035 -0.2620 -0.0371
   50POPC   C3B  912   4.532   6.231   6.221  0.0191 -0.1975  0.1491
   50POPC   C4B  913   4.297   6.545   5.959  0.1529  0.1942  0.2239
   51POPC   NC3  914   2.913   2.952   7.259 -0.0307 -0.1819 -0.1264
   51POPC   PO4  915   3.401   2.877   7.273 -0.2383 -0.0264 -0.1769
   51POPC   GL1  916   3.614   2.776   6.932  0.0930  0.2297  0.0625
   51POPC   GL2  917   3.639   3.064   6.696  0.0048  0.0936 -0.1077
   51POPC   C1A  918   3.658   2.531   6.609 -0.3492 -0.0571 -0.2619
   51POPC   D2A  919   3.959   2.344   6.254  0.0129 -0.2435 -0.2379
   51POPC   C3A  920   4.005   2.442   5.881  0.0021  0.0190 -0.1709
   51POPC   C4A  921   4.071   2.556   5.499  0.2378 -0.0017 -0.2386
   51POPC   C1B  922   3.314   2.890   6.376  0.3009  0.0697 -0.0585
   51POPC   C2B  923   3.122   3.056   6.095 -0.2726 -0.0006 -0.1755
   51POPC   C3B  924   2.629   3.042   5.851  0.0178 -0.0238  0.0542
   51POPC   C4B  925   2.235   2.983   5.838 -0.1092  0.0738 -0.0285
   52POPC   NC3  926   6.295   2.041   8.180 -0.0072  0.0129 -0.2601
   52POPC   PO4  927   5.894   1.712   8.097  0.1120  0.3635 -0.0060
   52POPC   GL1  928   6.165   1.711   7.740 -0.0289 -0.2075 -0.2768
   52POPC   GL2  929   6.428   1.506   7.830  0.2131 -0.2592  0.1547
   52POPC   C1A  930   6.088   1.501   7.376 -0.3045 -0.3114 -0.1125
   52POPC   D2A  931   5.975   1.580   7.016  0.5133  0.1058 -0.1619
   52POPC   C3A  932   6.170   1.391   6.689 -0.1665 -0.1431 -0.0715
   52POPC   C4A  933   6.210   0.862   6.573 -0.0225 -0.1148  0.0403
   52POPC   C1B  934   6.451   1.132   7.523  0.0740  0.0079 -0.0366
   52POPC   C2B  935   6.676   0.701   7.380  0.1017 -0.2122 -0.1627
   52POPC   C3B  936   6.797   0.249   7.422  0.3430  0.1430  0.0228
   52POPC   C4B  937   7.144   0.159   7.115 -0.3031  0.1026  0.0147
   53POPC   NC3  938   6.583   4.501   7.616 -0.0267 -0.2270 -0.2283
   53POPC   PO4  939   6.817   4.259   7.464 -0.3700  0.2200  0.3384
   53POPC   GL1  940   7.105   4.055   7.109  0.2541 -0.1116 -0.2321
   53POPC   GL2  941   6.963   4.331   6.958 -0.0437 -0.1236  0.1100
   53POPC   C1A  942   7.166   3.772   6.777 -0.1308 -0.1347 -0.1113
   53POPC   D2A  943   7.418   3.716   6.318  0.0129 -0.2342  0.0646
   53POPC   C3A  944   7.521   4.066   6.103 -0.2127 -0.1113  0.1282
   53POPC   C4A  945   7.380   4.456   6.039 -0.0306  0.2207  0.2915
   53POPC   C1B  946   6.765   3.982   6.661 -0.0716  0.2383 -0.0348
   53POPC   C2B  947   6.916   3.897   6.322 -0.2165  0.2646 -0.2336
   53POPC   C3B  948   6.919   4.019   5.911 -0.0942 -0.0614  0.1225
   53POPC   C4B  949   6.614   4.306   5.638  0.2652  0.1884 -0.0848
   54POPC   NC3  950   4.623   9.582   7.699 -0.0333  0.3738 -0.1237
   54POPC   PO4  951   4.292   9.327   7.762 -0.0855 -0.3115  0.1853
   54POPC   GL1  952   4.479   9.183   7.340 -0.1152  0.0462  0.1846
   54POPC   GL2  953   4.829   9.330   7.327  0.2529 -0.1349  0.1218
   54POPC   C1A  954   4.446   9.164   6.900  0.0879 -0.0652  0.0767
   54POPC   D2A  955   4.371   8.763   6.788 -0.1466 -0.2192  0.0689
   54POPC   C3A  956   4.391   8.501   6.562 -0.2581  0.1329  0.3417
   54POPC   C4A  957   4.601   8.420   6.086 -0.0866  0.1733 -0.2635
   54POPC   C1B  958   4.886   9.320   6.855  0.1646 -0.1563 -0.1127
   54POPC   C2B  959   5.047   9.538   6.566  0.0146 -0.0255  0.1766
   54POPC   C3B  960   4.945   9.849   6.197 -0.3081 -0.2645 -0.1754
   54POPC   C4B  961   4.920   9.874   5.795  0.1268  0.1277  0.0732
   55POPC   NC3  962   4.374   1.844   7.362  0.0530  0.1346  0.0655
   55POPC   PO4  963   4.374   1.412   7.271  0.1339  0.2981 -0.1613
   55POPC   GL1  964   4.555   1.296   6.898 -0.1608 -0.0754  0.4961
   55POPC   GL2  965   4.361   1.019   6.869 -0.1572  0.3603 -0.1794
   55POPC   C1A  966   4.684   1.123   6.540 -0.1097 -0.2252  0.0599
   55POPC   D2A  967   4.646   0.867   6.291 -0.1002 -0.0880 -0.1934
   55POPC   C3A  968   4.562   1.063   5.895 -0.0324 -0.1955  0.2359
   55POPC   C4A  969   4.718   1.268   5.417 -0.2727  0.0187 -0.0207
   55POPC   C1B  970   4.221   0.900   6.507  0.1123 -0.2687 -0.0089
   55POPC   C2B  971   3.947   0.596   6.499 -0.1606  0.2235 -0.0366
   55POPC   C3B  972   3.669   0.574   6.131  0.1952 -0.0740  0.3155
   55POPC   C4B  973   3.485   0.882   5.864 -0.1176 -0.0077  0.0581
   56POPC   NC3  974   5.544   0.467   8.337  0.1517 -0.1610  0.0091
   56POPC   PO4  975   5.793   0.113   8.066 -0.1408  0.0119  0.0280
   56POPC   GL1  976   5.942  -0.002   7.729 -0.0372  0.3303  0.1729
   56POPC   GL2  977   6.323   0.022   7.605  0.0645 -0.0212 -0.1168
   56POPC   C1A  978   5.846   0.280   7.401 -0.0812  0.1413  0.0537
   56POPC   D2A  979   5.763   0.564   7.313 -0.2485 -0.1475  0.1578
   56POPC   C3A  980   5.555   0.527   7.059  0.2149  0.0203 -0.0370
   56POPC   C4A  981   5.249   0.741   6.922  0.1460 -0.2253  0.0553
   56POPC   C1B  982   6.331   0.068   7.176  0.2678 -0.1222  0.2005
   56POPC   C2B  983   6.292  -0.154   6.808 -0.1350 -0.0398  0.0328
   56POPC   C3B  984   6.336  -0.091   6.259 -0.0398 -0.0271 -0.0980
   56POPC   C4B  985   6.372   0.025   5.834  0.2186 -0.0363  0.4068
   57POPC   NC3  986   7.801   5.953   7.279  0.1024  0.0709 -0.0361
   57POPC   PO4  987   8.053   5.794   7.295 -0.0198  0.3206 -0.2026
   57POPC   GL1  988   7.830   5.536   6.995 -0.1103 -0.2659 -0.2137
   57POPC   GL2  989   7.893   5.772   6.779 -0.2095 -0.1269  0.3680
   57POPC   C1A  990   7.935   5.223   6.689 -0.2934 -0.1182  0.2489
   57POPC   D2A  991   7.987   4.981   6.283  0.2667  0.1723  0.1465
   57POPC   C3A  992   7.694   4.961   6.001 -0.2179  0.0417 -0.1593
   57POPC   C4A  993   7.494   5.371   5.699 -0.0121  0.1858 -0.0127
   57POPC   C1B  994   7.619   5.781   6.425  0.3466  0.1152  0.3366
   57POPC   C2B  995   7.414   5.765   5.993  0.1312  0.0660  0.2394
   57POPC   C3B  996   7.477   6.070   5.767 -0.1560 -0.0404 -0.1819
   57POPC   C4B  997   7.516   6.159   5.280  0.0270  0.0444 -0.0858
   58POPC   NC3  998   2.219  10.019   7.409 -0.1474  0.2522 -0.0439
   58POPC   PO4  999   1.822   9.778   7.381  0.1825  0.2355 -0.0303
   58POPC   GL1 1000   1.860   9.868   6.964  0.3661  0.2050 -0.1150
   58POPC   GL2 1001   2.080  10.128   6.873 -0.1959 -0.0057  0.2295
   58POPC   C1A 1002   1.665   9.966   6.600  0.1148 -0.1806  0.0718
   58POPC   D2A 1003   1.396  10.235   6.366  0.3657 -0.0491  0.0777
   58POPC   C3A 1004   1.713  10.572   6.374  0.0736 -0.2338 -0.2006
   58POPC   C4A 1005   1.794  11.019   6.379 -0.2392  0.4364 -0.2864
   58POPC   C1B 1006   2.077  10.196   6.366  0.0910  0.2750  0.0767
   58POPC   C2B 1007   1.688  10.089   6.015  0.2791 -0.1860  0.2750
   58POPC   C3B 1008   1.409   9.870   5.755  0.0402 -0.1626 -0.0949
   58POPC   C4B 1009   1.254   9.945   5.298  0.0918  0.0749  0.1798
   59POPC   NC3 1010   8.661   6.290   7.848 -0.2752 -0.0555  0.3503
   59POPC   PO4 1011   8.477   6.449   7.429 -0.2718  0.2097  0.2589
   59POPC   GL1 1012   8.541   6.520   7.058  0.0832  0.0976  0.3194
   59POPC   GL2 1013   8.431   6.924   6.974  0.0496  0.2535 -0.1907
   59POPC   C1A 1014   8.890   6.586   6.711  0.1035  0.1952  0.0646
   59POPC   D2A 1015   9.193   6.413   6.326  0.0391 -0.0880  0.0692
   59POPC   C3A 1016   9.182   5.976   6.019  0.0375  0.0054 -0.0225
   59POPC   C4A 1017   9.576   5.825   5.695  0.0437  0.2162  0.0953
   59POPC   C1B 1018   8.520   6.941   6.510  0.0342  0.0220  0.0652
   59POPC   C2B 1019   8.835   7.184   6.294  0.0878  0.0505  0.0709
   59POPC   C3B 1020   8.811   7.408   5.913 -0.1381 -0.0009 -0.0699
   59POPC   C4B 1021   9.120   7.791   5.666 -0.1442  0.1016  0.1065
   60POPC   NC3 1022   0.026   0.345   8.139  0.3311  0.1208 -0.0642
   60POPC   PO4 1023  -0.113   0.410   7.677 -0.1019  0.3957  0.2900
   60POPC   GL1 1024   0.200   0.241   7.409 -0.1299  0.1990  0.3956
   60POPC   GL2 1025   0.295   0.572   7.363 -0.0871  0.2126 -0.0244
   60POPC   C1A 1026   0.540   0.092   7.005 -0.2222 -0.2039  0.0817
   60POPC   D2A 1027   0.723  -0.093   6.615 -0.1283  0.0331  0.0395
   60POPC   C3A 1028   0.585  -0.092   6.216 -0.1155 -0.0299  0.1832
   60POPC   C4A 1029   0.491  -0.001   5.829 -0.0134  0.3807  0.1418
   60POPC   C1B 1030   0.427   0.564   6.926  0.1276 -0.1679 -0.0341
   60POPC   C2B 1031   0.318   0.286   6.555 -0.1603 -0.0035 -0.0920
   60POPC   C3B 1032   0.108   0.209   6.192 -0.1176 -0.2118 -0.0611
   60POPC   C4B 1033  -0.205   0.461   6.106  0.1346  0.0598  0.1929
   61POPC   NC3 1034   4.788   0.287   7.773  0.1067 -0.1363  0.1546
   61POPC   PO4 1035   4.524   0.553   7.723 -0.0957  0.0857  0.3122
   61POPC   GL1 1036   4.769   0.693   7.321 -0.2116 -0.1727  0.2045
   61POPC   GL2 1037   4.524   0.541   7.023 -0.2609  0.1332 -0.0146
   61POPC   C1A 1038   4.937   1.068   7.151 -0.3151 -0.0659  0.2829
   61POPC   D2A 1039   5.141   1.215   6.776 -0.2241  0.0496 -0.0270
   61POPC   C3A 1040   5.176   0.995   6.427  0.0703 -0.0474  0.5795
   61POPC   C4A 1041   5.180   0.905   6.008 -0.1144  0.0217  0.1988
   61POPC   C1B 1042   4.758   0.653   6.739  0.0354 -0.2554 -0.1438
   61POPC   C2B 1043   5.009   0.445   6.383 -0.1115 -0.3484  0.2546
   61POPC   C3B 1044   5.294   0.319   5.952  0.1981 -0.0690 -0.0139
   61POPC   C4B 1045   5.557   0.405   5.588  0.0590 -0.0427  0.2301
   62POPC   NC3 1046   8.032   3.777   7.774 -0.1320  0.2603 -0.1065
   62POPC   PO4 1047   8.261   4.239   7.743 -0.1242  0.2567 -0.0069
   62POPC   GL1 1048   8.108   4.328   7.359 -0.1382 -0.2719  0.0508
   62POPC   GL2 1049   7.992   4.614   7.162  0.1909 -0.1771  0.1607
   62POPC   C1A 1050   7.863   4.076   7.020  0.2179 -0.1537  0.0233
   62POPC   D2A 1051   7.720   3.977   6.575 -0.2016 -0.0518  0.0553
   62POPC   C3A 1052   8.116   4.045   6.466  0.1235  0.2937  0.0848
   62POPC   C4A 1053   8.105   4.067   6.083  0.0675 -0.0228 -0.3483
   62POPC   C1B 1054   7.839   4.494   6.651 -0.1617 -0.2039 -0.2251
   62POPC   C2B 1055   7.850   4.492   6.187  0.1072  0.1007 -0.0195
   62POPC   C3B 1056   8.221   4.558   5.901  0.3073 -0.0183 -0.2380
   62POPC   C4B 1057   8.598   4.767   5.882  0.1734  0.0492  0.3691
   63POPC   NC3 1058   0.367   3.636   7.852  0.3580 -0.1379  0.2076
   63POPC   PO4 1059  -0.071   3.811   7.818  0.4038  0.0128  0.0714
   63POPC   GL1 1060  -0.168   3.759   7.357 -0.0326 -0.3571  0.4152
   63POPC   GL2 1061  -0.253   3.407   7.232  0.3066  0.1371  0.0184
   63POPC   C1A 1062  -0.430   3.859   6.996 -0.1948  0.1742 -0.0013
   63POPC   D2A 1063  -0.278   3.806   6.579 -0.0077 -0.0508  0.2367
   63POPC   C3A 1064  -0.248   4.117   6.270  0.1036  0.2002  0.0847
   63POPC   C4A 1065  -0.103   4.451   6.134 -0.2336 -0.1971  0.1623
   63POPC   C1B 1066  -0.568   3.360   6.853 -0.1796  0.0645  0.0855
   63POPC   C2B 1067  -0.808   3.174   6.636  0.0015 -0.2885 -0.1157
   63POPC   C3B 1068  -0.932   3.301   6.196 -0.1593  0.3093 -0.0113
   63POPC   C4B 1069  -0.927   3.581   5.818 -0.3284 -0.1087  0.3691
   64POPC   NC3 1070   4.738   4.338   6.930 -0.0561 -0.0876 -0.3026
   64POPC   PO4 1071   4.697   3.949   6.875  0.0771  0.1082 -0.0871
   64POPC   GL1 1072   4.699   3.576   6.635 -0.1492  0.0469  0.2047
   64POPC   GL2 1073   4.961   3.782   6.466 -0.4207 -0.1905 -0.0289
   64POPC   C1A 1074   4.708   3.472   6.156  0.1038 -0.1132  0.0720
   64POPC   D2A 1075   4.403   3.378   5.837  0.0417  0.0858  0.0151
   64POPC   C3A 1076   4.697   3.300   5.519  0.1692  0.1818 -0.1195
   64POPC   C4A 1077   5.152   3.301   5.456 -0.1593 -0.1795  0.0198
   64POPC   C1B 1078   5.443   3.971   6.246  0.2581 -0.0302 -0.1855
   64POPC   C2B 1079   5.610   4.246   5.970  0.1295  0.1647 -0.0082
   64POPC   C3B 1080   5.953   4.524   6.083 -0.0666  0.0829 -0.0641
   64POPC   C4B 1081   6.325   4.522   6.020  0.0910 -0.3196 -0.2132
   65POPC   NC3 1082   1.886   8.558   7.579  0.2478 -0.1377  0.1528
   65POPC   PO4 1083   2.047   8.152   7.581  0.1848 -0.1527  0.1672
   65POPC   GL1 1084   2.246   8.021   7.103  0.1540  0.0699 -0.1057
   65POPC   GL2 1085   2.518   7.765   7.045  0.3296 -0.1256 -0.1147
   65POPC   C1A 1086   1.899   7.989   6.790  0.2087  0.1402  0.2669
   65POPC   D2A 1087   1.685   8.086   6.484 -0.0560 -0.1792 -0.0663
   65POPC   C3A 1088   1.403   8.244   6.473  0.1301  0.3747  0.2586
   65POPC   C4A 1089   0.891   8.463   6.400 -0.1387 -0.1522  0.0333
   65POPC   C1B 1090   2.530   8.062   6.692  0.1228  0.4496 -0.0882
   65POPC   C2B 1091   2.711   8.290   6.263  0.1136  0.1620 -0.1127
   65POPC   C3B 1092   2.873   8.545   6.058 -0.5037  0.0247 -0.2375
   65POPC   C4B 1093   3.336   8.573   6.042  0.1857 -0.0682 -0.0096
   66POPC   NC3 1094   3.226   3.374   7.465 -0.0384  0.0879  0.1678
   66POPC   PO4 1095   2.806   3.470   7.312 -0.2015  0.1091 -0.0964
   66POPC   GL1 1096   2.864   3.677   6.917 -0.0585 -0.3872  0.1569
   66POPC   GL2 1097   2.967   4.052   6.854  0.0140  0.3643 -0.3006
   66POPC   C1A 1098   2.963   3.676   6.479 -0.0753 -0.0561 -0.0139
   66POPC   D2A 1099   3.315   3.420   6.448  0.0683  0.1337 -0.2741
   66POPC   C3A 1100   3.815   3.419   6.342  0.1812  0.2419 -0.0365
   66POPC   C4A 1101   3.969   3.680   6.021 -0.2151 -0.1555  0.1027
   66POPC   C1B 1102   3.039   4.183   6.385 -0.1368  0.1455 -0.1790
   66POPC   C2B 1103   3.370   4.257   5.983  0.0019  0.0237 -0.2045
   66POPC   C3B 1104   3.429   4.355   5.550 -0.1597  0.0845 -0.3341
   66POPC   C4B 1105   3.413   4.529   5.092 -0.1214 -0.1560  0.0996
   67POPC   NC3 1106   6.005   5.176   7.790  0.0076  0.3527  0.2757
   67POPC   PO4 1107   5.857   5.547   7.728 -0.0250 -0.2319  0.1050
   67POPC   GL1 1108   5.929   5.345   7.343  0.2611  0.0233  0.2444
   67POPC   GL2 1109   6.166   5.212   7.176  0.1602  0.1668 -0.0018
   67POPC   C1A 1110   5.753   5.402   6.949 -0.1222 -0.0837  0.1509
   67POPC   D2A 1111   5.755   5.369   6.566 -0.0279  0.1358  0.0824
   67POPC   C3A 1112   6.127   5.284   6.601  0.3273 -0.1630  0.2743
   67POPC   C4A 1113   6.479   5.246   6.717 -0.2653 -0.0621  0.0190
   67POPC   C1B 1114   6.277   4.839   6.888  0.0552  0.2065  0.0505
   67POPC   C2B 1115   6.182   4.800   6.460 -0.1448 -0.0130 -0.0682
   67POPC   C3B 1116   6.146   5.064   6.111 -0.0556  0.1658  0.1321
   67POPC   C4B 1117   5.982   5.478   6.120 -0.1337 -0.0244 -0.0519
   68POPC   NC3 1118   4.996   9.465   7.972 -0.2304 -0.2598  0.0701
   68POPC   PO4 1119   4.939   9.910   8.008  0.1548 -0.4099 -0.1508
   68POPC   GL1 1120   5.203  10.138   7.692 -0.0848 -0.3036  0.1274
   68POPC   GL2 1121   5.193  10.308   7.462 -0.1327  0.1574 -0.3958
   68POPC   C1A 1122   5.442   9.885   7.290 -0.0107 -0.0864  0.4077
   68POPC   D2A 1123   5.428   9.794   6.805  0.0331 -0.1236  0.1440
   68POPC   C3A 1124   5.141  10.018   6.641 -0.3271  0.2235 -0.1986
   68POPC   C4A 1125   4.780  10.197   6.577 -0.0133 -0.0296 -0.0786
   68POPC   C1B 1126   5.427  10.280   7.025 -0.4150  0.0935 -0.0365
   68POPC   C2B 1127   5.695  10.226   6.708 -0.1565  0.3454 -0.0469
   68POPC   C3B 1128   5.849  10.528   6.441 -0.1514 -0.0489 -0.0555
   68POPC   C4B 1129   5.886  10.619   6.123  0.2484 -0.1890  0.1957
   69POPC   NC3 1130   3.206  10.112   7.553 -0.1488 -0.1642  0.1149
   69POPC   PO4 1131   2.746  10.261   7.569 -0.0382 -0.2204  0.2278
   69POPC   GL1 1132   2.796  10.088   7.186  0.1498  0.0999 -0.1536
   69POPC   GL2 1133   2.809  10.028   6.842 -0.1055 -0.0557  0.3194
   69POPC   C1A 1134   3.117   9.709   7.020 -0.0929 -0.1175  0.1378
   69POPC   D2A 1135   3.485   9.608   7.025 -0.2969  0.2150 -0.0082
   69POPC   C3A 1136   3.615   9.109   7.093 -0.1567  0.0109  0.2283
   69POPC   C4A 1137   3.979   8.785   7.157  0.2134 -0.2464  0.0744
   69POPC   C1B 1138   2.569  10.239   6.542  0.1096 -0.1363 -0.3134
   69POPC   C2B 1139   2.580  10.222   6.127 -0.0514  0.0349  0.0590
   69POPC   C3B 1140   2.558  10.544   5.924 -0.0169  0.2520 -0.0862
   69POPC   C4B 1141   2.807  10.579   5.620 -0.0150  0.1482  0.1166
   70POPC   NC3 1142   3.628   2.105   7.936  0.0445  0.2054 -0.2422
   70POPC   PO4 1143   3.604   2.332   7.572 -0.3125 -0.4622  0.3493
   70POPC   GL1 1144   3.614   2.314   7.172 -0.0313 -0.0796 -0.1373
   70POPC   GL2 1145   3.329   2.388   7.063  0.1941 -0.3635 -0.2239
   70POPC   C1A 1146   3.946   2.130   6.851  0.1214 -0.0179 -0.3659
   70POPC   D2A 1147   3.920   1.847   6.432 -0.2034  0.2730  0.3796
   70POPC   C3A 1148   3.774   1.982   5.997 -0.4890 -0.2022 -0.4159
   70POPC   C4A 1149   4.110   1.986   5.745 -0.1213 -0.2951  0.0232
   70POPC   C1B 1150   3.048   2.587   6.676  0.0852  0.2356  0.0573
   70POPC   C2B 1151   2.735   2.760   6.339  0.3874  0.1349  0.0798
   70POPC   C3B 1152   2.358   2.896   6.523 -0.1530 -0.1479  0.2734
   70POPC   C4B 1153   1.992   2.760   6.603  0.3358  0.0723  0.0081
   71POPC   NC3 1154   0.113   6.659   7.933  0.0063 -0.1860 -0.0113
   71POPC   PO4 1155  -0.250   6.443   7.599  0.1279  0.0818  0.2243
   71POPC   GL1 1156  -0.174   6.216   7.168  0.0424 -0.0439  0.0744
   71POPC   GL2 1157  -0.023   6.415   6.952  0.2945 -0.0878 -0.0719
   71POPC   C1A 1158  -0.218   6.026   6.842  0.1318 -0.1440  0.3181
   71POPC   D2A 1159  -0.455   5.824   6.478 -0.1845  0.0670 -0.1615
   71POPC   C3A 1160  -0.287   5.469   6.130  0.1248  0.0419 -0.3740
   71POPC   C4A 1161  -0.295   5.384   5.715  0.2294  0.3091  0.1349
   71POPC   C1B 1162   0.232   6.815   6.965 -0.2673  0.1145  0.0211
   71POPC   C2B 1163   0.617   6.884   6.680 -0.0732 -0.3031 -0.0740
   71POPC   C3B 1164   0.948   6.818   6.446  0.0657  0.0164  0.0941
   71POPC   C4B 1165   1.360   6.999   6.619 -0.0852  0.0742 -0.1945
   72POPC   NC3 1166   4.705   2.717   7.566 -0.0532  0.0301  0.1552
   72POPC   PO4 1167   4.687   2.277   7.434 -0.3272  0.1429 -0.0081
   72POPC   GL1 1168   4.856   2.285   6.982  0.1899 -0.3819  0.0566
   72POPC   GL2 1169   4.563   2.100   6.857  0.0846  0.0137 -0.1974
   72POPC   C1A 1170   4.939   2.214   6.555 -0.2254 -0.1845 -0.0349
   72POPC   D2A 1171   4.918   2.012   6.136 -0.1466 -0.2705  0.1821
   72POPC   C3A 1172   5.045   2.100   5.673  0.0347  0.1662  0.0641
   72POPC   C4A 1173   5.158   2.395   5.292 -0.0322 -0.0546 -0.1418
   72POPC   C1B 1174   4.401   2.107   6.475 -0.0313 -0.0567  0.0204
   72POPC   C2B 1175   4.449   2.189   6.034 -0.0130 -0.4206 -0.0669
   72POPC   C3B 1176   4.506   2.600   5.787  0.1615 -0.1735  0.0045
   72POPC   C4B 1177   4.839   2.770   5.524 -0.0927  0.0635 -0.0608
   73POPC   NC3 1178   9.485  10.632   8.144  0.1035 -0.1238  0.2772
   73POPC   PO4 1179   9.762  10.849   7.948  0.1510 -0.0967 -0.2842
   73POPC   GL1 1180   9.889  10.812   7.516  0.2002  0.1069  0.2695
   73POPC   GL2 1181   9.955  10.436   7.333  0.2184 -0.0524 -0.1403
   73POPC   C1A 1182  10.271  10.796   7.234  0.3516  0.1401 -0.0324
   73POPC   D2A 1183  10.520  11.032   7.080  0.1285 -0.1805  0.2665
   73POPC   C3A 1184  10.682  11.462   7.001  0.2216 -0.0655  0.0581
   73POPC   C4A 1185  10.705  11.864   6.971 -0.2556  0.1305 -0.1502
   73POPC   C1B 1186   9.669  10.518   6.987  0.0751 -0.1409 -0.0192
   73POPC   C2B 1187   9.526  10.465   6.582  0.1438 -0.2318  0.1103
   73POPC   C3B 1188   9.566  10.222   6.177  0.2426 -0.2788 -0.3273
   73POPC   C4B 1189   9.940  10.210   5.892 -0.0813  0.0273  0.1759
   74POPC   NC3 1190   1.657   1.224   8.213  0.1543 -0.0010  0.2822
   74POPC   PO4 1191   1.881   1.226   7.808  0.2707  0.2532  0.1479
   74POPC   GL1 1192   1.791   1.345   7.459  0.2150 -0.0196  0.1175
   74POPC   GL2 1193   1.641   1.111   7.220 -0.0739  0.1075  0.0361
   74POPC   C1A 1194   2.062   1.575   7.196  0.0215  0.1903 -0.2180
   74POPC   D2A 1195   2.460   1.753   7.078  0.2239 -0.1387  0.1022
   74POPC   C3A 1196   2.358   1.905   6.735 -0.0463 -0.2171 -0.0262
   74POPC   C4A 1197   2.404   1.683   6.319  0.0548  0.1900  0.0028
   74POPC   C1B 1198   1.798   1.253   6.773 -0.0296  0.0641 -0.0309
   74POPC   C2B 1199   2.187   1.382   6.706 -0.0641  0.0364  0.1395
   74POPC   C3B 1200   2.650   1.414   6.754  0.1188  0.0644 -0.2633
   74POPC   C4B 1201   2.974   1.645   6.490  0.0899 -0.0821 -0.1064
   75POPC   NC3 1202   9.575   2.463   7.751 -0.0339 -0.1884  0.0228
   75POPC   PO4 1203   9.588   2.064   7.390  0.0148  0.0934 -0.2586
   75POPC   GL1 1204   9.514   2.122   6.988 -0.0268 -0.1919  0.0921
   75POPC   GL2 1205   9.765   1.972   6.800 -0.0686  0.0649  0.1860
   75POPC   C1A 1206   9.445   2.303   6.560  0.0595 -0.1774 -0.3680
   75POPC   D2A 1207   9.552   2.452   6.243  0.1151  0.0750  0.0552
   75POPC   C3A 1208   9.471   2.311   5.810  0.1694 -0.1046 -0.1239
   75POPC   C4A 1209   9.257   2.514   5.510  0.1729  0.2705  0.0273
   75POPC   C1B 1210   9.762   1.938   6.325 -0.0650  0.0346  0.0193
   75POPC   C2B 1211   9.863   1.710   5.902  0.2374  0.1413 -0.0360
   75POPC   C3B 1212   9.593   1.899   5.557  0.0299  0.3168 -0.0106
   75POPC   C4B 1213   9.285   2.075   5.224 -0.1508 -0.1861  0.1109
   76POPC   NC3 1214   3.110   5.904   7.305 -0.0815 -0.1827  0.0553
   76POPC   PO4 1215   3.499   5.674   7.367  0.0609  0.4454 -0.1440
   76POPC   GL1 1216   3.567   6.058   7.147  0.1567  0.1931 -0.1113
   76POPC   GL2 1217   3.505   6.104   6.810  0.2749 -0.0413  0.0954
   76POPC   C1A 1218   4.013   6.177   6.924 -0.0298 -0.2516 -0.2321
   76POPC   D2A 1219   4.060   6.495   6.593 -0.0415  0.0240  0.2145
   76POPC   C3A 1220   4.299   6.800   6.868  0.0354 -0.1025 -0.0900
   76POPC   C4A 1221   4.532   7.171   7.101  0.1204  0.0357 -0.0565
   76POPC   C1B 1222   3.190   6.060   6.541  0.1097  0.2333 -0.3191
   76POPC   C2B 1223   3.128   6.003   6.059 -0.2022 -0.1190 -0.0008
   76POPC   C3B 1224   3.283   6.127   5.652  0.1120 -0.0541 -0.2106
   76POPC   C4B 1225   3.598   6.048   5.426  0.1850 -0.2399 -0.0833
   77POPC   NC3 1226   9.774   1.089   7.703 -0.0122  0.0132 -0.0467
   77POPC   PO4 1227   9.309   1.142   7.777  0.0954  0.2650  0.4021
   77POPC   GL1 1228   9.365   1.136   7.244  0.0390  0.0871  0.0049
   77POPC   GL2 1229   9.576   0.833   7.204  0.0187 -0.0177  0.1026
   77POPC   C1A 1230   9.270   1.037   6.876 -0.2134  0.1442 -0.1586
   77POPC   D2A 1231   9.284   0.846   6.387  0.1355  0.1098  0.0466
   77POPC   C3A 1232   9.625   0.728   6.382 -0.0654 -0.0620  0.0475
   77POPC   C4A 1233   9.773   0.887   6.781  0.3484  0.1022 -0.0238
   77POPC   C1B 1234   9.464   0.510   6.819 -0.1016  0.0112  0.2274
   77POPC   C2B 1235   9.173   0.325   6.450  0.0871  0.0004  0.2112
   77POPC   C3B 1236   9.039   0.522   6.102 -0.1515  0.0240 -0.1067
   77POPC   C4B 1237   9.040   0.650   5.742 -0.2262  0.2822 -0.3889
   78POPC   NC3 1238   9.873   4.199   7.352 -0.1858 -0.0416 -0.3749
   78POPC   PO4 1239   9.288   4.171   7.514 -0.0200 -0.0852 -0.3748
   78POPC   GL1 1240   9.486   4.107   7.113 -0.1414 -0.0480 -0.0378
   78POPC   GL2 1241   9.827   3.982   6.956  0.0371 -0.0325  0.1930
   78POPC   C1A 1242   9.395   3.856   6.782 -0.1326  0.0438 -0.2062
   78POPC   D2A 1243   9.514   3.675   6.249  0.2282 -0.3276  0.0030
   78POPC   C3A 1244   9.240   3.353   6.167  0.0945 -0.0487  0.1777
   78POPC   C4A 1245   8.954   3.143   6.463 -0.1976 -0.0694  0.0714
   78POPC   C1B 1246   9.858   3.654   6.666  0.3023 -0.1480  0.3403
   78POPC   C2B 1247  10.148   3.616   6.275  0.0876 -0.5184 -0.2862
   78POPC   C3B 1248  10.227   3.326   5.925  0.1864  0.1217 -0.1219
   78POPC   C4B 1249  10.277   3.233   5.505 -0.1623 -0.1501 -0.2476
   79POPC   NC3 1250   4.051   7.397   7.646  0.0648 -0.0865 -0.1839
   79POPC   PO4 1251   3.650   7.171   7.773 -0.2144  0.0385 -0.1219
   79POPC   GL1 1252   3.436   7.387   7.435  0.2998  0.0961  0.0430
   79POPC   GL2 1253   3.701   7.410   7.295  0.0991 -0.0431 -0.0625
   79POPC   C1A 1254   3.234   7.658   7.074 -0.4167  0.0246  0.0820
   79POPC   D2A 1255   3.036   7.966   6.806 -0.1154 -0.0072  0.1444
   79POPC   C3A 1256   3.072   7.961   6.399 -0.4050 -0.1579 -0.0192
   79POPC   C4A 1257   3.187   8.049   6.006 -0.1034  0.0196 -0.1959
   79POPC   C1B 1258   3.524   7.260   6.754  0.2947 -0.1440  0.0287
   79POPC   C2B 1259   3.318   7.509   6.494  0.2569 -0.0940  0.2008
   79POPC   C3B 1260   3.510   7.761   6.203 -0.2644 -0.1126  0.2727
   79POPC   C4B 1261   3.677   7.888   5.806 -0.0269 -0.2495 -0.2515
   80POPC   NC3 1262   9.436   8.596   8.090 -0.1729  0.2998  0.2505
   80POPC   PO4 1263   9.332   9.037   8.180 -0.0773  0.3056 -0.2417
   80POPC   GL1 1264   9.533   9.008   7.806  0.1578  0.2801  0.0371
   80POPC   GL2 1265   9.385   8.862   7.483  0.2182  0.2394 -0.2478
   80POPC   C1A 1266   9.859   9.125   7.450  0.0748 -0.0111  0.0480
   80POPC   D2A 1267   9.838   9.356   7.081  0.1243  0.3438  0.3630
   80POPC   C3A 1268  10.173   9.570   6.849  0.1002  0.0360  0.0764
   80POPC   C4A 1269  10.370   9.852   6.619  0.1203 -0.0031  0.1513
   80POPC   C1B 1270   9.392   9.052   7.116  0.3385  0.1657  0.3449
   80POPC   C2B 1271   9.290   8.994   6.764  0.0253 -0.1048  0.3407
   80POPC   C3B 1272   9.196   9.197   6.365 -0.0243  0.2521 -0.0475
   80POPC   C4B 1273   8.852   9.146   6.117 -0.4620 -0.1969  0.1577
   81POPC   NC3 1274   1.587   7.412   7.688  0.1179  0.3817 -0.2584
   81POPC   PO4 1275   1.174   7.198   7.578  0.0329  0.0612 -0.1900
   81POPC   GL1 1276   1.319   7.476   7.216 -0.0779  0.0016  0.1414
   81POPC   GL2 1277   1.038   7.817   7.313 -0.0846 -0.0062 -0.1721
   81POPC   C1A 1278   1.599   7.515   6.809  0.1964  0.3201 -0.0029
   81POPC   D2A 1279   1.588   7.635   6.375 -0.0389  0.3419 -0.2060
   81POPC   C3A 1280   1.194   7.802   6.209  0.1764  0.0126  0.2699
   81POPC   C4A 1281   0.784   7.929   6.074  0.0494 -0.0683 -0.4276
   81POPC   C1B 1282   0.805   7.548   7.004  0.1089  0.3378 -0.2726
   81POPC   C2B 1283   0.953   7.270   6.749 -0.1546 -0.4026  0.1669
   81POPC   C3B 1284   1.145   7.308   6.296  0.2964  0.0434  0.0874
   81POPC   C4B 1285   1.209   7.011   6.035 -0.0056 -0.0515 -0.2820
   82POPC   NC3 1286   4.949   7.456   7.646 -0.2578 -0.0168 -0.1459
   82POPC   PO4 1287   4.789   7.017   7.767  0.0712  0.1205  0.3721
   82POPC   GL1 1288   4.966   6.984   7.344 -0.0484 -0.1898 -0.0470
   82POPC   GL2 1289   4.897   6.775   7.075  0.0815  0.5525 -0.1978
   82POPC   C1A 1290   5.315   7.097   7.052  0.0118 -0.1230  0.2015
   82POPC   D2A 1291   5.361   7.117   6.608 -0.2819  0.1725  0.0180
   82POPC   C3A 1292   5.609   6.997   6.325  0.1965  0.0796  0.4364
   82POPC   C4A 1293   5.847   6.761   6.037  0.1707 -0.0435 -0.0399
   82POPC   C1B 1294   4.786   7.057   6.667  0.0437  0.1389 -0.0963
   82POPC   C2B 1295   4.908   7.183   6.297  0.1997 -0.1891  0.0617
   82POPC   C3B 1296   5.259   7.052   6.002 -0.1663 -0.1267  0.0592
   82POPC   C4B 1297   5.594   7.020   5.674  0.2138  0.1283  0.0530
   83POPC   NC3 1298   0.692   6.966   7.702 -0.0167 -0.0848  0.1457
   83POPC   PO4 1299   0.273   7.126   7.712  0.1985  0.1316 -0.2507
   83POPC   GL1 1300   0.173   7.217   7.320  0.2061  0.0190 -0.0469
   83POPC   GL2 1301  -0.150   7.270   7.218  0.3087 -0.3393 -0.2239
   83POPC   C1A 1302   0.376   7.264   6.883  0.1269 -0.1045 -0.3283
   83POPC   D2A 1303   0.527   7.471   6.581 -0.2087  0.0488 -0.0032
   83POPC   C3A 1304   0.345   7.641   6.265  0.2313 -0.0364  0.2230
   83POPC   C4A 1305   0.090   7.885   5.976 -0.1971  0.1277 -0.1844
   83POPC   C1B 1306   0.110   7.652   7.080  0.3709 -0.0263  0.3428
   83POPC   C2B 1307   0.395   7.869   6.968  0.1055 -0.1392  0.2213
   83POPC   C3B 1308   0.708   8.242   6.995  0.3280  0.5065  0.1403
   83POPC   C4B 1309   1.073   8.235   6.826  0.1906 -0.1510 -0.0874
   84POPC   NC3 1310   7.372  10.294   8.489  0.1368 -0.1529  0.0492
   84POPC   PO4 1311   7.399  10.118   8.054 -0.2421  0.2158 -0.3072
   84POPC   GL1 1312   7.677  10.291   7.659 -0.0638  0.0011 -0.0568
   84POPC   GL2 1313   7.735  10.010   7.479 -0.0785 -0.1095 -0.1816
   84POPC   C1A 1314   7.609  10.419   7.226  0.2120  0.0959  0.2088
   84POPC   D2A 1315   7.258  10.485   7.006  0.3105 -0.0764  0.1062
   84POPC   C3A 1316   7.268  10.748   6.702  0.0904 -0.3402  0.1519
   84POPC   C4A 1317   7.148  11.036   6.566  0.1658 -0.0484 -0.1696
   84POPC   C1B 1318   7.921   9.998   7.009 -0.0544  0.5072 -0.1536
   84POPC   C2B 1319   7.721  10.172   6.712  0.0060 -0.0682 -0.2319
   84POPC   C3B 1320   7.732  10.605   6.532  0.1128  0.2174  0.1061
   84POPC   C4B 1321   7.919  10.903   6.363 -0.0275  0.0553  0.2925
   85POPC   NC3 1322   8.790   9.588   7.908  0.1347  0.0504  0.1671
   85POPC   PO4 1323   8.464   9.385   7.929  0.0549 -0.1451  0.3375
   85POPC   GL1 1324   8.346   9.483   7.487  0.0584  0.0633 -0.0922
   85POPC   GL2 1325   8.163   9.753   7.433  0.2689 -0.0793  0.3804
   85POPC   C1A 1326   8.638   9.551   7.170  0.1294 -0.1420  0.1563
   85POPC   D2A 1327   8.859   9.448   6.745 -0.2134 -0.2202  0.0196
   85POPC   C3A 1328   9.012   9.658   6.355 -0.0225  0.3229  0.1143
   85POPC   C4A 1329   9.082   9.806   5.930 -0.2676  0.3931 -0.2282
   85POPC   C1B 1330   8.163   9.572   7.028  0.0081 -0.0043 -0.0287
   85POPC   C2B 1331   8.342   9.658   6.694 -0.0787 -0.1385  0.0565
   85POPC   C3B 1332   8.513   9.750   6.388  0.0790 -0.1431  0.2608
   85POPC   C4B 1333   8.534   9.715   5.895 -0.0491 -0.1779 -0.0858
   86POPC   NC3 1334   5.867   4.316   7.717  0.0548 -0.1423  0.2680
   86POPC   PO4 1335   5.864   4.731   7.537 -0.2585 -0.2532  0.0418
   86POPC   GL1 1336   5.968   4.480   7.239 -0.0390 -0.0012  0.0173
   86POPC   GL2 1337   6.237   4.411   7.258 -0.2408 -0.0845 -0.0206
   86POPC   C1A 1338   5.866   4.448   6.841 -0.0179  0.0865 -0.0326
   86POPC   D2A 1339   5.717   4.365   6.526  0.1889  0.0899  0.2279
   86POPC   C3A 1340   5.931   4.144   6.404  0.0480  0.0456 -0.2960
   86POPC   C4A 1341   6.029   3.972   5.946 -0.1583  0.2237  0.1489
   86POPC   C1B 1342   6.479   4.313   6.898  0.3587 -0.1884  0.0455
   86POPC   C2B 1343   6.365   4.318   6.586  0.0586  0.0249  0.1418
   86POPC   C3B 1344   6.471   4.090   6.224 -0.0148 -0.2802  0.0180
   86POPC   C4B 1345   6.476   3.807   5.773 -0.1575 -0.0312  0.0722
   87POPC   NC3 1346   1.338   3.731   7.344  0.0074 -0.1473 -0.1610
   87POPC   PO4 1347   0.800   3.620   7.429 -0.1693 -0.0301  0.0060
   87POPC   GL1 1348   0.696   3.755   7.022  0.0094 -0.1163 -0.1245
   87POPC   GL2 1349   0.695   3.490   6.904  0.2751  0.2538 -0.1355
   87POPC   C1A 1350   0.563   3.857   6.632  0.1627 -0.1141 -0.1146
   87POPC   D2A 1351   0.614   3.944   6.200 -0.2086  0.1897 -0.0468
   87POPC   C3A 1352   0.231   3.991   5.969  0.0313 -0.0784 -0.3006
   87POPC   C4A 1353   0.034   4.260   5.689  0.0577 -0.0439 -0.0205
   87POPC   C1B 1354   0.569   3.339   6.492 -0.0434 -0.1707  0.1180
   87POPC   C2B 1355   0.468   3.210   6.094 -0.2828 -0.1895  0.1691
   87POPC   C3B 1356   0.468   3.496   5.742  0.1247 -0.1167 -0.1418
   87POPC   C4B 1357   0.610   3.896   5.627  0.4058 -0.1795  0.0945
   88POPC   NC3 1358   1.514   5.065   7.336 -0.2606  0.3255  0.0379
   88POPC   PO4 1359   1.387   4.675   7.489 -0.1239  0.0138  0.1483
   88POPC   GL1 1360   1.417   4.613   7.099  0.5989  0.1685 -0.1988
   88POPC   GL2 1361   1.448   4.784   6.821 -0.0815 -0.0042 -0.1750
   88POPC   C1A 1362   1.253   4.315   6.694 -0.1199 -0.4387 -0.1168
   88POPC   D2A 1363   0.963   4.445   6.377  0.3939 -0.2630 -0.1141
   88POPC   C3A 1364   0.781   4.401   5.929 -0.0935 -0.2272 -0.3205
   88POPC   C4A 1365   0.521   4.386   5.631 -0.0638 -0.2138 -0.2400
   88POPC   C1B 1366   1.316   4.769   6.438 -0.0753 -0.0965 -0.0946
   88POPC   C2B 1367   1.305   5.057   6.035  0.0858 -0.0581 -0.0058
   88POPC   C3B 1368   0.980   5.195   5.637  0.0319  0.1472 -0.0199
   88POPC   C4B 1369   0.742   5.249   5.285 -0.2102 -0.3234  0.1285
   89POPC   NC3 1370   7.187   2.096   8.382  0.0449  0.1981  0.2597
   89POPC   PO4 1371   7.522   1.706   8.476 -0.0623 -0.0733 -0.3923
   89POPC   GL1 1372   7.670   1.452   8.074  0.1277  0.1270 -0.2726
   89POPC   GL2 1373   8.006   1.255   8.108  0.2127  0.0901 -0.0650
   89POPC   C1A 1374   7.778   1.411   7.605 -0.0801 -0.1122 -0.0070
   89POPC   D2A 1375   7.681   1.313   7.162  0.0030 -0.2082  0.3163
   89POPC   C3A 1376   7.622   1.629   6.890  0.0444 -0.0327  0.4605
   89POPC   C4A 1377   7.870   1.878   6.758 -0.1552  0.1208  0.0476
   89POPC   C1B 1378   8.163   1.068   7.654 -0.2946 -0.0662 -0.0499
   89POPC   C2B 1379   8.430   0.762   7.517  0.2234  0.0387 -0.3749
   89POPC   C3B 1380   8.866   0.644   7.641 -0.2007  0.1233  0.1552
   89POPC   C4B 1381   8.995   0.199   7.480 -0.3552  0.3009  0.1497
   90POPC   NC3 1382   1.880   6.511   7.949  0.0805  0.0819 -0.0457
   90POPC   PO4 1383   1.981   6.417   7.506 -0.3964 -0.0134  0.0482
   90POPC   GL1 1384   1.801   6.436   7.071  0.1010  0.0521 -0.1428
   90POPC   GL2 1385   1.988   6.635   6.924 -0.1132 -0.2154  0.2069
   90POPC   C1A 1386   1.750   6.292   6.611 -0.0874 -0.4182 -0.0604
   90POPC   D2A 1387   1.578   6.123   6.284 -0.0326  0.0519 -0.0539
   90POPC   C3A 1388   1.472   5.800   6.348  0.0409  0.0595 -0.0696
   90POPC   C4A 1389   1.466   5.839   6.788 -0.0007 -0.0097 -0.0154
   90POPC   C1B 1390   1.987   7.002   6.678  0.1714 -0.1373  0.0545
   90POPC   C2B 1391   1.942   7.320   6.436 -0.3292 -0.0425  0.1162
   90POPC   C3B 1392   2.063   7.772   6.187 -0.0281  0.0524 -0.0115
   90POPC   C4B 1393   2.287   8.006   5.841  0.0030 -0.0961 -0.0449
   91POPC   NC3 1394   1.194   6.795   7.825 -0.0770 -0.0903 -0.2004
   91POPC   PO4 1395   1.435   6.409   7.761 -0.3215  0.0745 -0.1434
   91POPC   GL1 1396   1.337   6.435   7.354 -0.0640 -0.2383 -0.2920
   91POPC   GL2 1397   1.115   6.706   7.293  0.0420 -0.2146  0.0190
   91POPC   C1A 1398   1.248   6.321   6.904 -0.2932  0.2894 -0.3985
   91POPC   D2A 1399   1.372   6.522   6.514 -0.1981 -0.0754  0.0241
   91POPC   C3A 1400   1.683   6.823   6.334 -0.0588 -0.0317  0.0009
   91POPC   C4A 1401   2.205   6.831   6.252  0.0510  0.1081  0.3125
   91POPC   C1B 1402   0.771   6.595   7.053 -0.1083  0.1998  0.1414
   91POPC   C2B 1403   0.702   6.387   6.598  0.0996  0.0769 -0.1325
   91POPC   C3B 1404   0.940   6.415   6.166  0.0331 -0.0453  0.1679
   91POPC   C4B 1405   0.896   6.220   5.768 -0.1866  0.0218 -0.2761
   92POPC   NC3 1406   5.061   3.892   7.299 -0.1655 -0.0213  0.2342
   92POPC   PO4 1407   5.495   3.846   7.399 -0.1077 -0.1281  0.0147
   92POPC   GL1 1408   5.860   3.649   7.251 -0.1669  0.1877 -0.2580
   92POPC   GL2 1409   5.975   3.959   7.346 -0.0315  0.1477 -0.1921
   92POPC   C1A 1410   6.055   3.418   6.884 -0.2406  0.1995 -0.0637
   92POPC   D2A 1411   5.978   3.222   6.563  0.2788  0.0746  0.0052
   92POPC   C3A 1412   6.279   3.134   6.287 -0.0225  0.0922  0.1344
   92POPC   C4A 1413   6.570   3.012   6.091  0.2259  0.2343  0.0605
   92POPC   C1B 1414   6.061   3.967   6.923  0.0912 -0.0934  0.3187
   92POPC   C2B 1415   6.259   3.741   6.610  0.1096 -0.0197  0.1642
   92POPC   C3B 1416   6.560   3.547   6.233 -0.2135 -0.1630 -0.0740
   92POPC   C4B 1417   6.874   3.443   5.901 -0.1468 -0.1018  0.1245
   93POPC   NC3 1418   6.614   7.930   8.188 -0.0989 -0.1099  0.0000
   93POPC   PO4 1419   6.302   7.864   7.793  0.3015 -0.2459 -0.2344
   93POPC   GL1 1420   6.283   7.768   7.336 -0.1191  0.0911  0.2361
   93POPC   GL2 1421   6.524   7.570   7.298 -0.0507 -0.0547  0.0853
   93POPC   C1A 1422   6.193   7.712   6.888  0.0534 -0.1371  0.0259
   93POPC   D2A 1423   6.400   7.387   6.427 -0.0403  0.2261 -0.0235
   93POPC   C3A 1424   6.059   7.337   6.137 -0.1315  0.3842 -0.1762
   93POPC   C4A 1425   6.136   7.056   5.784 -0.0741 -0.0052 -0.3449
   93POPC   C1B 1426   6.608   7.482   6.921 -0.0574 -0.1854  0.2788
   93POPC   C2B 1427   6.728   7.730   6.504 -0.0966 -0.0161 -0.0057
   93POPC   C3B 1428   6.856   8.005   6.105 -0.1631  0.0209  0.0316
   93POPC   C4B 1429   7.116   8.287   5.744  0.3331 -0.1156 -0.0389
   94POPC   NC3 1430   1.771   4.417   7.664  0.1020 -0.0296  0.0913
   94POPC   PO4 1431   2.109   4.232   7.330  0.6282 -0.3977  0.0131
   94POPC   GL1 1432   2.024   4.096   6.903 -0.2722  0.0263 -0.0744
   94POPC   GL2 1433   2.231   3.876   6.953  0.0437  0.2029 -0.0212
   94POPC   C1A 1434   1.751   4.274   6.698  0.3556 -0.0504  0.0702
   94POPC   D2A 1435   1.575   4.300   6.256  0.1522  0.2232  0.0483
   94POPC   C3A 1436   1.333   4.581   5.997  0.0808  0.1007 -0.2792
   94POPC   C4A 1437   1.152   4.733   5.631 -0.1697  0.3673  0.0676
   94POPC   C1B 1438   2.494   3.964   6.572  0.0914  0.0771  0.2344
   94POPC   C2B 1439   2.676   3.935   6.174 -0.2830  0.2053  0.4475
   94POPC   C3B 1440   2.911   4.024   5.771 -0.1089 -0.1089 -0.2181
   94POPC   C4B 1441   2.962   4.385   5.537  0.1298 -0.1086  0.1043
   95POPC   NC3 1442   7.100   1.456   8.301 -0.0783 -0.0335 -0.0356
   95POPC   PO4 1443   6.756   1.759   8.308  0.0956 -0.0335  0.0770
   95POPC   GL1 1444   6.787   1.867   7.896  0.0287 -0.3116  0.0261
   95POPC   GL2 1445   6.964   1.630   7.805  0.1647  0.1043 -0.0470
   95POPC   C1A 1446   6.564   1.888   7.426  0.2361 -0.1559 -0.1014
   95POPC   D2A 1447   6.513   1.561   7.114  0.1032 -0.0077  0.3242
   95POPC   C3A 1448   6.376   1.854   6.782 -0.0304  0.2305  0.0742
   95POPC   C4A 1449   6.247   1.998   6.454 -0.0063 -0.1614  0.1688
   95POPC   C1B 1450   6.877   1.389   7.429 -0.1699 -0.2735 -0.2894
   95POPC   C2B 1451   7.023   1.102   7.226  0.4076 -0.2582  0.0105
   95POPC   C3B 1452   6.985   0.705   6.984  0.2292 -0.1949 -0.0433
   95POPC   C4B 1453   6.660   0.394   6.914 -0.1025  0.0284 -0.3760
   96POPC   NC3 1454   2.295   4.667   7.443  0.2303 -0.0738  0.2043
   96POPC   PO4 1455   2.662   4.467   7.283 -0.2002 -0.1350  0.1622
   96POPC   GL1 1456   2.521   4.394   6.905 -0.0926 -0.1863 -0.1220
   96POPC   GL2 1457   2.193   4.581   6.871  0.0855 -0.1721 -0.1334
   96POPC   C1A 1458   2.393   4.676   6.423  0.3861  0.0645 -0.1474
   96POPC   D2A 1459   2.404   4.799   6.043  0.0468 -0.0077 -0.2267
   96POPC   C3A 1460   2.698   4.826   5.668  0.2728  0.2147 -0.2143
   96POPC   C4A 1461   2.952   5.001   5.377  0.1121  0.1496 -0.0171
   96POPC   C1B 1462   1.902   4.829   6.570  0.3875  0.1741  0.2877
   96POPC   C2B 1463   1.799   5.077   6.206  0.2760 -0.1351 -0.2672
   96POPC   C3B 1464   1.792   5.470   6.195  0.0584 -0.0081 -0.2944
   96POPC   C4B 1465   1.792   5.802   5.964  0.2332  0.1587 -0.0125
   97POPC   NC3 1466   0.354   1.682   7.954  0.0019 -0.2268 -0.0216
   97POPC   PO4 1467   0.225   1.452   7.706  0.1756  0.0038  0.0117
   97POPC   GL1 1468   0.018   1.466   7.300  0.0743 -0.3328  0.0108
   97POPC   GL2 1469  -0.324   1.496   7.181  0.4623  0.3863  0.2336
   97POPC   C1A 1470   0.229   1.460   6.934 -0.0439  0.4247  0.0315
   97POPC   D2A 1471   0.306   1.428   6.587  0.2745 -0.1369  0.0776
   97POPC   C3A 1472   0.630   1.287   6.380 -0.2179 -0.4310  0.2052
   97POPC   C4A 1473   1.074   1.346   6.093  0.4656  0.0401  0.0458
   97POPC   C1B 1474  -0.598   1.294   6.866  0.0149  0.1585 -0.0365
   97POPC   C2B 1475  -0.769   1.500   6.556  0.2720 -0.1817  0.2282
   97POPC   C3B 1476  -0.545   1.734   6.259  0.0607 -0.4719 -0.3248
   97POPC   C4B 1477  -0.304   1.848   5.951  0.0054 -0.0169 -0.1498
   98POPC   NC3 1478   5.438   1.874   8.072  0.2028 -0.0707 -0.0411
   98POPC   PO4 1479   5.045   1.787   8.073  0.0540 -0.0923 -0.1514
   98POPC   GL1 1480   5.060   1.942   7.620 -0.2784  0.0901 -0.0512
   98POPC   GL2 1481   4.866   1.814   7.474 -0.2562  0.1309  0.0989
   98POPC   C1A 1482   5.254   1.981   7.194  0.3062  0.2059  0.0580
   98POPC   D2A 1483   5.357   2.074   6.784  0.0960 -0.2856  0.0159
   98POPC   C3A 1484   5.418   2.027   6.329 -0.1242  0.1400 -0.1029
   98POPC   C4A 1485   5.439   2.224   6.019 -0.0863 -0.0269  0.1115
   98POPC   C1B 1486   4.888   1.696   7.025 -0.1746 -0.1701  0.2947
   98POPC   C2B 1487   5.211   1.676   6.570 -0.0993  0.0222  0.0700
   98POPC   C3B 1488   5.453   1.356   6.277  0.1147  0.0529 -0.0687
   98POPC   C4B 1489   5.661   1.099   5.920  0.1764 -0.0501  0.1191
   99POPC   NC3 1490   2.554   9.539   8.005  0.0849 -0.0525  0.1357
   99POPC   PO4 1491   2.206   9.345   7.686 -0.1692 -0.1766  0.4191
   99POPC   GL1 1492   2.353   9.437   7.250 -0.1073  0.0317 -0.1848
   99POPC   GL2 1493   2.431   9.739   7.010 -0.2654  0.0376  0.1179
   99POPC   C1A 1494   2.117   9.350   6.911  0.0383 -0.2494  0.1544
   99POPC   D2A 1495   2.315   9.287   6.575 -0.1592  0.2794  0.2309
   99POPC   C3A 1496   2.213   9.258   6.105  0.3857  0.1487 -0.0462
   99POPC   C4A 1497   2.153   8.929   5.743 -0.0214 -0.0255 -0.0433
   99POPC   C1B 1498   2.716   9.452   6.956 -0.2513  0.1096 -0.0865
   99POPC   C2B 1499   3.077   9.238   6.935  0.1798 -0.0054  0.3144
   99POPC   C3B 1500   3.425   9.301   6.599 -0.0523 -0.1315  0.0855
   99POPC   C4B 1501   3.676   9.450   6.195  0.1938 -0.0727 -0.1768
  100POPC   NC3 1502   5.051   2.412   7.829 -0.0796  0.3114 -0.1806
  100POPC   PO4 1503   5.183   2.810   7.758 -0.1393 -0.1155  0.0801
  100POPC   GL1 1504   5.185   3.011   7.288  0.0389  0.0072  0.0907
  100POPC   GL2 1505   5.004   2.833   7.063  0.1777  0.1988  0.3907
  100POPC   C1A 1506   5.446   2.972   6.949 -0.0717 -0.1253  0.3995
  100POPC   D2A 1507   5.868   2.789   6.802  0.1053 -0.3827  0.1467
  100POPC   C3A 1508   5.930   2.746   6.397 -0.0707 -0.3380 -0.4602
  100POPC   C4A 1509   6.193   2.665   6.005 -0.0998  0.0131  0.1702
  100POPC   C1B 1510   5.172   2.602   6.792  0.0855 -0.1540 -0.0239
  100POPC   C2B 1511   5.320   2.531   6.349  0.3074 -0.0865  0.0285
  100POPC   C3B 1512   5.685   2.609   5.935  0.1928 -0.2149  0.0184
  100POPC   C4B 1513   5.868   2.556   5.588 -0.2055 -0.0318 -0.1085
  101POPC   NC3 1514   1.705   2.040   7.609  0.0678 -0.0388  0.0673
  101POPC   PO4 1515   1.806   2.458   7.439  0.0575  0.1746  0.1692
  101POPC   GL1 1516   1.718   2.555   7.082  0.0639  0.1789  0.1113
  101POPC   GL2 1517   1.613   2.866   7.041 -0.0583  0.0782 -0.0486
  101POPC   C1A 1518   1.485   2.552   6.670 -0.4138  0.0331  0.1210
  101POPC   D2A 1519   1.337   2.683   6.217  0.2751 -0.1397 -0.2658
  101POPC   C3A 1520   1.676   2.824   5.940  0.0937  0.0559 -0.1998
  101POPC   C4A 1521   1.700   2.847   5.531 -0.1725  0.2526 -0.2350
  101POPC   C1B 1522   1.459   3.085   6.615 -0.2182  0.1056  0.0183
  101POPC   C2B 1523   1.436   3.425   6.216  0.1211 -0.1457  0.2010
  101POPC   C3B 1524   1.611   3.809   5.983  0.0044  0.1966 -0.0924
  101POPC   C4B 1525   1.960   4.107   5.934  0.0356 -0.0057  0.1313
  102POPC   NC3 1526   6.283   8.291   7.498 -0.0256  0.0108 -0.2544
  102POPC   PO4 1527   5.840   8.420   7.389 -0.0158  0.1410  0.0757
  102POPC   GL1 1528   5.944   8.343   7.003  0.0122  0.0792 -0.3646
  102POPC   GL2 1529   6.208   8.306   7.007 -0.5043  0.0866 -0.0280
  102POPC   C1A 1530   5.878   8.272   6.580 -0.0646 -0.1074 -0.1297
  102POPC   D2A 1531   5.903   8.214   6.141  0.1627 -0.2787 -0.0057
  102POPC   C3A 1532   5.988   8.568   5.820  0.4294  0.0690  0.0760
  102POPC   C4A 1533   6.057   8.877   5.594  0.0331  0.2402 -0.0290
  102POPC   C1B 1534   6.193   8.696   6.710  0.3397 -0.0250  0.1075
  102POPC   C2B 1535   6.056   8.685   6.290 -0.0520  0.0736  0.1391
  102POPC   C3B 1536   5.875   8.988   6.113 -0.0170  0.1137 -0.0354
  102POPC   C4B 1537   5.542   9.136   5.819  0.0798 -0.2299 -0.0652
  103POPC   NC3 1538   4.934   1.264   8.012 -0.0971  0.0861 -0.1982
  103POPC   PO4 1539   4.932   0.832   7.890  0.1694 -0.7147 -0.2965
  103POPC   GL1 1540   5.152   1.082   7.614  0.2970  0.0866  0.1144
  103POPC   GL2 1541   5.541   1.037   7.545 -0.0935 -0.4109 -0.0728
  103POPC   C1A 1542   5.200   1.457   7.287 -0.2762  0.0748 -0.0527
  103POPC   D2A 1543   5.477   1.612   6.992 -0.1811 -0.1333 -0.0031
  103POPC   C3A 1544   5.785   1.979   7.038  0.0825  0.1635 -0.0372
  103POPC   C4A 1545   6.145   1.987   7.248  0.1701 -0.1981 -0.1226
  103POPC   C1B 1546   5.596   1.045   7.103  0.0033 -0.0181 -0.5180
  103POPC   C2B 1547   5.715   1.182   6.693  0.1058  0.1497  0.2786
  103POPC   C3B 1548   5.941   1.216   6.296  0.1876  0.0088  0.1302
  103POPC   C4B 1549   6.226   1.151   5.996  0.1078  0.3330 -0.1901
  104POPC   NC3 1550   2.585   8.192   7.425  0.1728 -0.0219  0.2934
  104POPC   PO4 1551   2.304   8.482   7.284 -0.1886  0.0230  0.1838
  104POPC   GL1 1552   2.180   8.600   6.908  0.0691  0.1651 -0.1629
  104POPC   GL2 1553   2.101   8.384   6.668 -0.1424  0.0764 -0.0087
  104POPC   C1A 1554   2.492   8.676   6.515 -0.0313  0.1492  0.1911
  104POPC   D2A 1555   2.570   8.931   6.258 -0.0216 -0.0627 -0.2550
  104POPC   C3A 1556   2.667   8.972   5.830  0.0919 -0.2338 -0.0073
  104POPC   C4A 1557   2.783   9.004   5.328  0.3300 -0.3052  0.0054
  104POPC   C1B 1558   2.208   8.205   6.328 -0.1986  0.1139  0.2766
  104POPC   C2B 1559   2.380   8.525   5.980  0.1165  0.0673 -0.2022
  104POPC   C3B 1560   2.028   8.509   5.567 -0.1711  0.1979 -0.1080
  104POPC   C4B 1561   1.775   8.568   5.125  0.0801  0.1246  0.3112
  105POPC   NC3 1562   5.629   3.052   8.541 -0.1195 -0.2290  0.1019
  105POPC   PO4 1563   5.848   2.817   8.306  0.1974  0.2180 -0.0334
  105POPC   GL1 1564   5.847   2.738   7.813 -0.1630  0.1252 -0.0697
  105POPC   GL2 1565   6.117   2.784   7.708  0.3812  0.0718 -0.1999
  105POPC   C1A 1566   5.743   2.542   7.431 -0.0509 -0.2193  0.0166
  105POPC   D2A 1567   5.597   2.456   6.992  0.2811  0.1789  0.0791
  105POPC   C3A 1568   5.822   2.260   6.599 -0.1927 -0.0473  0.1623
  105POPC   C4A 1569   5.935   2.231   6.124  0.1245  0.1215 -0.1713
  105POPC   C1B 1570   6.450   2.398   7.596 -0.3222  0.1600  0.2186
  105POPC   C2B 1571   6.639   2.265   7.163 -0.0637  0.0290 -0.0147
  105POPC   C3B 1572   6.560   2.303   6.691 -0.3142 -0.0525 -0.0325
  105POPC   C4B 1573   6.339   2.457   6.373  0.2835  0.0574  0.1156
  106POPC   NC3 1574   3.453   0.232   7.422  0.2333 -0.1457 -0.1370
  106POPC   PO4 1575   3.792  -0.077   7.525  0.2969  0.3544  0.1157
  106POPC   GL1 1576   4.108   0.021   7.263  0.2793 -0.2103  0.0139
  106POPC   GL2 1577   4.091   0.378   7.298 -0.3491 -0.1773 -0.1047
  106POPC   C1A 1578   4.422  -0.089   6.855 -0.2529 -0.1666 -0.2910
  106POPC   D2A 1579   4.341  -0.191   6.417  0.1879 -0.3157 -0.0967
  106POPC   C3A 1580   4.034  -0.353   6.159  0.0609  0.4409 -0.0593
  106POPC   C4A 1581   3.948  -0.561   5.818  0.0084 -0.2212 -0.0236
  106POPC   C1B 1582   4.079   0.299   6.882 -0.0232 -0.3224 -0.0001
  106POPC   C2B 1583   4.402   0.340   6.521  0.1175  0.1637 -0.1216
  106POPC   C3B 1584   4.619   0.258   6.134  0.2449 -0.0888  0.0732
  106POPC   C4B 1585   4.864   0.551   5.919  0.4287 -0.0032 -0.1429
  107POPC   NC3 1586   5.940   6.320   8.021 -0.0261 -0.3234  0.1163
  107POPC   PO4 1587   5.618   6.663   7.748 -0.3997  0.3134  0.0125
  107POPC   GL1 1588   5.598   6.634   7.330  0.0717 -0.1888  0.0512
  107POPC   GL2 1589   5.367   6.481   7.171 -0.0067 -0.0572 -0.3428
  107POPC   C1A 1590   5.826   6.357   6.952  0.0568  0.2464  0.2078
  107POPC   D2A 1591   6.169   6.354   6.704 -0.0848 -0.2246 -0.1600
  107POPC   C3A 1592   6.138   6.376   6.309 -0.2520  0.2964 -0.0067
  107POPC   C4A 1593   5.826   6.259   5.957  0.0795  0.3559  0.4197
  107POPC   C1B 1594   5.261   6.586   6.816  0.0038  0.1275  0.3254
  107POPC   C2B 1595   5.127   6.753   6.433 -0.2416  0.1251  0.1375
  107POPC   C3B 1596   4.924   6.622   6.104 -0.1727  0.2243 -0.2656
  107POPC   C4B 1597   4.958   6.239   5.906  0.3142 -0.2966 -0.1179
  108POPC   NC3 1598   0.676   1.948   7.714 -0.1625 -0.4426  0.3141
  108POPC   PO4 1599   1.096   1.962   7.877 -0.2023 -0.4155 -0.4113
  108POPC   GL1 1600   1.136   1.864   7.481  0.0883 -0.0813  0.1213
  108POPC   GL2 1601   1.376   2.071   7.267 -0.1319  0.0559 -0.2454
  108POPC   C1A 1602   0.889   1.874   7.137  0.0987 -0.0895 -0.2679
  108POPC   D2A 1603   0.478   1.877   7.091  0.2759  0.0615 -0.0961
  108POPC   C3A 1604   0.004   1.912   6.868  0.0279 -0.2460 -0.1018
  108POPC   C4A 1605  -0.230   2.254   6.898 -0.1537  0.0932  0.0354
  108POPC   C1B 1606   1.355   2.086   6.763 -0.2574  0.0786 -0.1138
  108POPC   C2B 1607   1.234   2.116   6.394  0.0403  0.2291  0.1037
  108POPC   C3B 1608   0.921   2.323   6.027  0.5206  0.2073  0.0805
  108POPC   C4B 1609   0.710   2.577   5.795 -0.1063 -0.1645 -0.0638
  109POPC   NC3 1610   3.951   3.809   6.855 -0.0336 -0.3016  0.2266
  109POPC   PO4 1611   4.164   4.206   6.960 -0.0596  0.3627 -0.0804
  109POPC   GL1 1612   4.082   4.180   6.537  0.1075  0.2109 -0.0098
  109POPC   GL2 1613   4.287   3.921   6.423 -0.1294  0.0588  0.2881
  109POPC   C1A 1614   3.897   4.181   6.054  0.0551  0.0003  0.0232
  109POPC   D2A 1615   3.734   4.001   5.729 -0.0554  0.1457  0.1091
  109POPC   C3A 1616   4.094   3.813   5.559  0.2235  0.0775  0.0430
  109POPC   C4A 1617   4.564   3.759   5.491  0.0636 -0.4702  0.2182
  109POPC   C1B 1618   4.349   3.937   5.969  0.0693 -0.0629  0.0074
  109POPC   C2B 1619   4.277   4.224   5.645 -0.0883  0.2000  0.1289
  109POPC   C3B 1620   3.977   4.551   5.568 -0.2244 -0.2409 -0.0877
  109POPC   C4B 1621   3.698   4.870   5.409  0.1529 -0.2730 -0.1845
  110POPC   NC3 1622   9.031   8.719   7.821  0.0497 -0.0805  0.1512
  110POPC   PO4 1623   8.670   8.504   7.807  0.0571 -0.0545 -0.5207
  110POPC   GL1 1624   8.857   8.601   7.392  0.0438 -0.1416 -0.0313
  110POPC   GL2 1625   8.738   8.419   7.194 -0.0487 -0.0277 -0.0205
  110POPC   C1A 1626   9.188   8.567   7.056 -0.1318 -0.0708 -0.0657
  110POPC   D2A 1627   9.481   8.335   7.038  0.2813 -0.2700 -0.1207
  110POPC   C3A 1628   9.651   8.101   6.717  0.0367  0.1623 -0.0740
  110POPC   C4A 1629   9.779   8.308   6.349  0.3176 -0.1604 -0.0799
  110POPC   C1B 1630   8.435   8.587   6.910  0.0580 -0.1648 -0.0864
  110POPC   C2B 1631   8.200   8.810   6.595  0.1215  0.1474 -0.1373
  110POPC   C3B 1632   7.978   9.285   6.662  0.1985 -0.0420  0.1578
  110POPC   C4B 1633   7.867   9.721   6.553 -0.1374 -0.2366  0.1172
  111POPC   NC3 1634   2.846   0.398   7.525 -0.1092 -0.0538  0.0685
  111POPC   PO4 1635   2.437   0.508   7.516 -0.0808  0.0888 -0.2432
  111POPC   GL1 1636   2.516   0.773   7.197 -0.0783  0.1067 -0.0246
  111POPC   GL2 1637   2.563   0.531   7.034  0.0620 -0.0002  0.1072
  111POPC   C1A 1638   2.578   0.936   6.735  0.0040 -0.2539 -0.0123
  111POPC   D2A 1639   2.314   1.013   6.394  0.0562 -0.2751 -0.2076
  111POPC   C3A 1640   2.413   1.226   6.049 -0.1394  0.0852 -0.1878
  111POPC   C4A 1641   2.313   1.496   5.710  0.1289 -0.1513 -0.0343
  111POPC   C1B 1642   2.612   0.192   6.808 -0.2611  0.1678 -0.3927
  111POPC   C2B 1643   2.657  -0.026   6.371  0.1138 -0.0662 -0.3557
  111POPC   C3B 1644   3.087  -0.105   6.103  0.3298  0.3088 -0.0879
  111POPC   C4B 1645   3.283  -0.468   5.925  0.0176 -0.0130 -0.1075
  112POPC   NC3 1646   3.579   1.434   7.332  0.1088 -0.2036  0.0556
  112POPC   PO4 1647   3.816   1.796   7.349  0.3354 -0.3599 -0.0891
  112POPC   GL1 1648   3.644   1.638   6.878 -0.0847  0.0537  0.0693
  112POPC   GL2 1649   3.541   1.313   6.737 -0.2812  0.1769  0.3350
  112POPC   C1A 1650   3.491   1.596   6.341  0.0032 -0.0943 -0.0529
  112POPC   D2A 1651   3.288   1.248   6.199 -0.1426  0.1511  0.4641
  112POPC   C3A 1652   3.114   1.254   5.762 -0.4491  0.2021  0.1021
  112POPC   C4A 1653   2.653   1.150   5.554 -0.0982  0.2528 -0.0487
  112POPC   C1B 1654   3.793   1.097   6.372  0.0391  0.2212  0.0765
  112POPC   C2B 1655   3.996   0.962   6.058 -0.2038  0.1681  0.0114
  112POPC   C3B 1656   4.291   0.646   5.923  0.4599  0.1123  0.0181
  112POPC   C4B 1657   4.411   0.294   5.637 -0.1233 -0.0176 -0.0990
  113POPC   NC3 1658   1.095   6.059   7.674 -0.1102 -0.1629  0.0713
  113POPC   PO4 1659   0.898   5.788   7.292  0.1178 -0.0941  0.0426
  113POPC   GL1 1660   0.960   5.954   6.980  0.0473 -0.1075 -0.0547
  113POPC   GL2 1661   0.662   6.108   7.000  0.0874  0.3241 -0.1611
  113POPC   C1A 1662   1.040   6.046   6.546  0.0585 -0.2880  0.1930
  113POPC   D2A 1663   1.064   5.870   6.063  0.1118  0.0125 -0.2471
  113POPC   C3A 1664   1.371   6.002   5.775 -0.0768 -0.1352 -0.2266
  113POPC   C4A 1665   1.453   6.360   5.642  0.3061  0.1039  0.0391
  113POPC   C1B 1666   0.672   5.683   6.553  0.3121 -0.2591  0.0876
  113POPC   C2B 1667   0.618   6.009   6.225  0.1955 -0.0477  0.2710
  113POPC   C3B 1668   0.353   6.302   6.027 -0.2387 -0.1323 -0.0013
  113POPC   C4B 1669  -0.013   6.328   5.781  0.0820  0.0825 -0.1928
  114POPC   NC3 1670   6.774   0.263   8.414  0.0309 -0.2028  0.0592
  114POPC   PO4 1671   7.116   0.551   8.200  0.0014  0.0832  0.1411
  114POPC   GL1 1672   6.976   0.748   7.876  0.3645 -0.0379  0.0671
  114POPC   GL2 1673   7.038   1.066   7.904 -0.1022 -0.0515 -0.1175
  114POPC   C1A 1674   7.167   0.628   7.477  0.3370 -0.1356  0.0479
  114POPC   D2A 1675   7.439   0.780   7.190  0.0257  0.0627  0.1659
  114POPC   C3A 1676   7.324   1.091   6.821 -0.2050 -0.2596 -0.2649
  114POPC   C4A 1677   6.995   1.007   6.523  0.2725 -0.1564 -0.1494
  114POPC   C1B 1678   7.316   1.218   7.594 -0.1208 -0.1978 -0.4670
  114POPC   C2B 1679   7.367   1.651   7.450 -0.1143  0.1129 -0.4049
  114POPC   C3B 1680   7.441   2.010   7.585  0.1217  0.3444  0.0244
  114POPC   C4B 1681   7.545   2.284   7.827  0.2169  0.0812  0.0813
  115POPC   NC3 1682   2.065   0.846   7.497  0.0508 -0.2459 -0.1154
  115POPC   PO4 1683   1.678   0.496   7.333  0.0531  0.3010 -0.1597
  115POPC   GL1 1684   1.587   0.679   6.879 -0.2486 -0.2902 -0.0431
  115POPC   GL2 1685   1.500   0.349   6.799  0.2523  0.1020 -0.3255
  115POPC   C1A 1686   1.880   0.786   6.481 -0.1279  0.3697  0.1268
  115POPC   D2A 1687   1.924   1.094   6.106 -0.3292  0.1343 -0.0202
  115POPC   C3A 1688   1.938   1.453   6.270 -0.1790  0.1361 -0.0070
  115POPC   C4A 1689   1.946   1.920   6.399 -0.2380 -0.2389  0.0307
  115POPC   C1B 1690   1.391   0.579   6.400 -0.3137 -0.1086 -0.0716
  115POPC   C2B 1691   1.712   0.606   6.044  0.3605  0.0291 -0.1322
  115POPC   C3B 1692   1.815   0.687   5.703  0.0732 -0.0394 -0.1815
  115POPC   C4B 1693   1.674   0.938   5.386 -0.0831 -0.1267 -0.0115
  116POPC   NC3 1694   4.239   0.831   7.367  0.5745  0.0476  0.0134
  116POPC   PO4 1695   3.949   1.125   7.118 -0.1984  0.2787  0.0032
  116POPC   GL1 1696   4.072   1.397   6.798  0.2091 -0.1820  0.1639
  116POPC   GL2 1697   4.223   1.694   6.869 -0.0797 -0.2822  0.0052
  116POPC   C1A 1698   4.263   1.370   6.308  0.4190 -0.2712  0.0788
  116POPC   D2A 1699   4.344   1.720   6.116  0.2023 -0.0308 -0.1231
  116POPC   C3A 1700   4.609   1.727   5.837 -0.0343 -0.1987  0.4358
  116POPC   C4A 1701   4.740   1.732   5.328 -0.2880 -0.0968  0.1555
  116POPC   C1B 1702   4.556   1.655   6.580 -0.3619  0.0900 -0.0821
  116POPC   C2B 1703   4.794   1.513   6.245 -0.0313 -0.1051  0.2703
  116POPC   C3B 1704   5.095   1.544   5.967  0.0952  0.0762  0.0469
  116POPC   C4B 1705   5.168   1.303   5.593 -0.4118 -0.0212 -0.0748
  117POPC   NC3 1706   2.594   2.712   7.501  0.1523  0.2395  0.0621
  117POPC   PO4 1707   2.491   3.137   7.452  0.3432 -0.2095  0.1634
  117POPC   GL1 1708   2.492   3.232   7.050  0.0350 -0.0360  0.3179
  117POPC   GL2 1709   2.717   3.084   6.775 -0.3487  0.1224  0.0344
  117POPC   C1A 1710   2.292   3.474   6.652 -0.0427 -0.0389 -0.2003
  117POPC   D2A 1711   2.105   3.766   6.370  0.2924 -0.3182  0.1488
  117POPC   C3A 1712   2.139   4.281   6.362  0.2734  0.0161 -0.1349
  117POPC   C4A 1713   1.907   4.568   6.034 -0.2084 -0.0150 -0.0689
  117POPC   C1B 1714   2.618   3.269   6.355 -0.0866  0.1743  0.0326
  117POPC   C2B 1715   2.829   3.506   6.039  0.0102  0.3131 -0.0189
  117POPC   C3B 1716   2.931   3.412   5.638  0.1485  0.4288  0.1006
  117POPC   C4B 1717   3.248   3.408   5.315  0.0642  0.3006  0.1140
  118POPC   NC3 1718   4.057   4.649   7.604 -0.1421 -0.0878 -0.3772
  118POPC   PO4 1719   4.431   4.592   7.341  0.0319  0.2557  0.1537
  118POPC   GL1 1720   4.687   4.890   7.015  0.1849  0.1572 -0.1227
  118POPC   GL2 1721   4.850   4.748   6.731  0.2852 -0.1140 -0.2378
  118POPC   C1A 1722   4.602   5.124   6.620  0.1440  0.0750 -0.0067
  118POPC   D2A 1723   4.359   5.076   6.219  0.0051 -0.0358 -0.2326
  118POPC   C3A 1724   4.018   4.833   6.140  0.0980  0.0527 -0.3619
  118POPC   C4A 1725   3.691   4.630   5.952 -0.2131  0.0534  0.1603
  118POPC   C1B 1726   4.811   4.756   6.231  0.1726  0.0143  0.0154
  118POPC   C2B 1727   5.040   5.137   5.959 -0.0542 -0.1887  0.1204
  118POPC   C3B 1728   4.989   5.580   5.902  0.3760  0.0673 -0.2158
  118POPC   C4B 1729   5.183   5.790   5.591  0.1729  0.2755 -0.0687
  119POPC   NC3 1730   7.317   3.755   8.613 -0.1755  0.1788 -0.4289
  119POPC   PO4 1731   7.130   3.839   8.241  0.2624  0.3017 -0.1168
  119POPC   GL1 1732   7.148   3.490   7.950 -0.0634  0.0796 -0.1569
  119POPC   GL2 1733   7.201   3.073   8.055  0.1481  0.0332 -0.0588
  119POPC   C1A 1734   7.348   3.437   7.650  0.1162 -0.0779 -0.0203
  119POPC   D2A 1735   7.717   3.624   7.437 -0.2007 -0.1367 -0.0066
  119POPC   C3A 1736   8.061   3.495   7.210  0.0460 -0.0446  0.0013
  119POPC   C4A 1737   8.317   3.838   7.055  0.0417  0.0090  0.1260
  119POPC   C1B 1738   6.994   3.067   7.679 -0.0595 -0.0455  0.1867
  119POPC   C2B 1739   6.739   2.785   7.437  0.2492 -0.0906  0.1969
  119POPC   C3B 1740   6.245   2.710   7.232 -0.0597 -0.1290  0.2015
  119POPC   C4B 1741   6.149   2.414   6.961 -0.0580  0.3431  0.1533
  120POPC   NC3 1742   3.371   8.050   7.591  0.2815 -0.0188 -0.0717
  120POPC   PO4 1743   3.713   7.786   7.624  0.1861  0.2453  0.3416
  120POPC   GL1 1744   3.935   7.835   7.200 -0.2251 -0.2110 -0.4189
  120POPC   GL2 1745   4.167   7.535   7.199  0.1516 -0.0842  0.0558
  120POPC   C1A 1746   3.888   7.799   6.773 -0.2124  0.0640 -0.0601
  120POPC   D2A 1747   3.879   7.525   6.467  0.2681 -0.2240  0.2937
  120POPC   C3A 1748   4.032   7.698   6.084 -0.6633  0.1929 -0.1024
  120POPC   C4A 1749   4.239   7.832   5.708 -0.1632 -0.1070 -0.1862
  120POPC   C1B 1750   4.066   7.327   6.933  0.1437 -0.1230  0.0387
  120POPC   C2B 1751   3.932   7.032   6.612 -0.1743  0.0902  0.2338
  120POPC   C3B 1752   4.101   6.964   6.207 -0.3648 -0.0171 -0.0483
  120POPC   C4B 1753   4.168   7.233   5.834  0.0333 -0.0218  0.0360
  121POPC   NC3 1754   8.779   0.527   8.309  0.0150 -0.0535 -0.1406
  121POPC   PO4 1755   9.135   0.268   8.164 -0.0440 -0.3965  0.1467
  121POPC   GL1 1756   9.385   0.350   7.697 -0.0926  0.0567  0.2329
  121POPC   GL2 1757   9.326   0.680   7.598 -0.1149 -0.0797  0.0343
  121POPC   C1A 1758   9.466   0.174   7.242  0.0040 -0.2461  0.1430
  121POPC   D2A 1759   9.342   0.059   6.938  0.1762  0.0786  0.1411
  121POPC   C3A 1760   8.902   0.123   6.864 -0.2776  0.2059  0.0294
  121POPC   C4A 1761   8.526  -0.092   7.083  0.0442  0.3263  0.2715
  121POPC   C1B 1762   9.167   0.567   7.158 -0.2423 -0.0106 -0.1244
  121POPC   C2B 1763   9.004   0.592   6.802  0.2291 -0.1960 -0.0152
  121POPC   C3B 1764   8.653   0.502   6.575  0.2266  0.2147  0.2409
  121POPC   C4B 1765   8.499   0.335   6.256 -0.3694  0.0598  0.0546
  122POPC   NC3 1766   2.255   5.510   7.449 -0.2393  0.2297 -0.1063
  122POPC   PO4 1767   2.461   5.170   7.636 -0.1048  0.0711 -0.2633
  122POPC   GL1 1768   2.417   5.151   7.141 -0.0809 -0.1162 -0.0693
  122POPC   GL2 1769   2.062   5.136   7.048 -0.1998  0.2861 -0.1200
  122POPC   C1A 1770   2.662   4.949   6.766 -0.4319  0.0856 -0.0580
  122POPC   D2A 1771   2.900   4.636   6.537  0.1184 -0.1606  0.0017
  122POPC   C3A 1772   2.839   4.549   6.079 -0.1124  0.0539 -0.3000
  122POPC   C4A 1773   2.536   4.377   5.832  0.2708 -0.3326  0.1442
  122POPC   C1B 1774   2.280   5.159   6.642 -0.3203  0.0927  0.2360
  122POPC   C2B 1775   2.302   5.279   6.196 -0.0512 -0.2286 -0.2023
  122POPC   C3B 1776   2.115   5.124   5.843 -0.0405  0.0942 -0.1479
  122POPC   C4B 1777   2.227   5.168   5.384 -0.1949 -0.0231 -0.1428
  123POPC   NC3 1778   3.734   4.524   7.128  0.2730  0.1526 -0.0019
  123POPC   PO4 1779   3.561   4.075   7.114 -0.0940  0.0574 -0.2244
  123POPC   GL1 1780   3.582   4.201   6.713  0.1590  0.3638 -0.3701
  123POPC   GL2 1781   3.413   4.485   6.528 -0.0089 -0.1683 -0.3829
  123POPC   C1A 1782   3.568   3.885   6.278 -0.2267 -0.0977  0.1321
  123POPC   D2A 1783   3.289   3.784   6.044 -0.1678  0.1212  0.2041
  123POPC   C3A 1784   3.309   3.824   5.550  0.0685  0.2384  0.4434
  123POPC   C4A 1785   3.422   3.863   5.138 -0.1659  0.0523 -0.3191
  123POPC   C1B 1786   3.374   4.814   6.294 -0.0919 -0.1150  0.1804
  123POPC   C2B 1787   3.567   5.162   6.068  0.3717 -0.0848 -0.1429
  123POPC   C3B 1788   3.930   5.319   5.870  0.1166  0.0763  0.0118
  123POPC   C4B 1789   4.436   5.522   5.749  0.0617  0.1032  0.1800
  124POPC   NC3 1790  10.380   1.292   7.641  0.3828 -0.0657  0.1414
  124POPC   PO4 1791  10.084   1.577   7.573  0.1208  0.1405  0.1903
  124POPC   GL1 1792   9.985   1.722   7.252 -0.0704 -0.2477 -0.1172
  124POPC   GL2 1793   9.678   1.600   7.116  0.5456  0.3603 -0.0796
  124POPC   C1A 1794  10.250   1.843   6.852 -0.1422  0.0897 -0.0073
  124POPC   D2A 1795  10.561   1.529   6.593  0.0482  0.0379 -0.3207
  124POPC   C3A 1796  10.616   1.050   6.527 -0.2207  0.3628  0.1335
  124POPC   C4A 1797  10.689   0.599   6.526 -0.0697  0.2733 -0.2315
  124POPC   C1B 1798   9.558   1.448   6.769 -0.1022 -0.1733 -0.2521
  124POPC   C2B 1799   9.196   1.315   6.467  0.2523 -0.0413 -0.1965
  124POPC   C3B 1800   8.803   1.064   6.353 -0.1860 -0.2205  0.1623
  124POPC   C4B 1801   8.580   0.772   6.175 -0.2220 -0.0523  0.3020
  125POPC   NC3 1802   1.370   2.454   7.643 -0.3612  0.2120 -0.0613
  125POPC   PO4 1803   1.219   2.674   7.275 -0.0781  0.3405 -0.3967
  125POPC   GL1 1804   0.973   2.463   6.940 -0.0258  0.2965 -0.0960
  125POPC   GL2 1805   0.753   2.676   7.070  0.1501 -0.1774 -0.1306
  125POPC   C1A 1806   0.829   2.493   6.546  0.2870  0.0014 -0.2212
  125POPC   D2A 1807   0.631   2.758   6.302  0.0967  0.2064  0.2283
  125POPC   C3A 1808   0.275   2.702   6.051 -0.3382  0.0080  0.2294
  125POPC   C4A 1809   0.146   2.573   5.620 -0.2905 -0.4494 -0.2196
  125POPC   C1B 1810   0.985   2.980   6.719 -0.0333 -0.3585 -0.0251
  125POPC   C2B 1811   1.020   3.063   6.251 -0.1547  0.2891 -0.0331
  125POPC   C3B 1812   0.871   3.077   5.777  0.0244 -0.1998 -0.2481
  125POPC   C4B 1813   0.432   3.018   5.590  0.2342 -0.2309 -0.0330
  126POPC   NC3 1814   7.710   7.812   7.423  0.0670  0.3892  0.2027
  126POPC   PO4 1815   7.982   8.202   7.392 -0.4588 -0.3280 -0.2384
  126POPC   GL1 1816   7.870   8.380   7.074  0.2024 -0.0001 -0.3478
  126POPC   GL2 1817   7.657   8.149   6.987  0.1822 -0.1176  0.0483
  126POPC   C1A 1818   8.003   8.307   6.686 -0.0157 -0.1760 -0.4069
  126POPC   D2A 1819   8.022   8.194   6.255 -0.0748  0.0655  0.3004
  126POPC   C3A 1820   8.326   8.194   5.974  0.1216  0.2010  0.0472
  126POPC   C4A 1821   8.365   8.163   5.559  0.1673  0.0326 -0.0794
  126POPC   C1B 1822   7.644   7.969   6.605 -0.0497  0.2599  0.1392
  126POPC   C2B 1823   7.845   7.734   6.190  0.1829 -0.4624 -0.0507
  126POPC   C3B 1824   8.097   7.773   5.778 -0.1060  0.0004 -0.2789
  126POPC   C4B 1825   8.143   7.775   5.348  0.1606  0.0568 -0.1335
  127POPC   NC3 1826  10.072   0.466   7.739  0.0167 -0.1418 -0.3194
  127POPC   PO4 1827  10.193   0.816   7.675 -0.2823  0.0264  0.0982
  127POPC   GL1 1828  10.190   0.656   7.277 -0.1460 -0.1841  0.0473
  127POPC   GL2 1829   9.893   0.496   7.269 -0.1429  0.1803 -0.0082
  127POPC   C1A 1830  10.227   0.680   6.790 -0.3420 -0.0873 -0.1530
  127POPC   D2A 1831  10.102   1.026   6.413  0.0299 -0.0098 -0.1398
  127POPC   C3A 1832  10.102   0.725   6.097 -0.1737 -0.0733 -0.1612
  127POPC   C4A 1833  10.075   0.312   5.938 -0.3475 -0.0509  0.2269
  127POPC   C1B 1834   9.929   0.330   6.842  0.1285 -0.3475 -0.0166
  127POPC   C2B 1835   9.654   0.208   6.494  0.1091 -0.1547 -0.1241
  127POPC   C3B 1836   9.501   0.010   6.101  0.2660 -0.2996  0.3079
  127POPC   C4B 1837   9.221   0.028   5.627  0.0439  0.1886 -0.1453
  128POPC   NC3 1838   0.606  10.304   8.506 -0.0134 -0.2328 -0.0170
  128POPC   PO4 1839   0.378  10.288   8.071 -0.4007  0.2687 -0.1638
  128POPC   GL1 1840   0.259  10.349   7.617  0.2746 -0.2483  0.0362
  128POPC   GL2 1841   0.396  10.517   7.403 -0.0559 -0.3473  0.2111
  128POPC   C1A 1842   0.070  10.170   7.170  0.0625 -0.0865  0.0889
  128POPC   D2A 1843   0.127  10.044   6.722 -0.1955  0.1702 -0.1561
  128POPC   C3A 1844  -0.170  10.391   6.447 -0.4853  0.3592  0.0355
  128POPC   C4A 1845  -0.325  10.705   6.122 -0.1824  0.2748  0.1473
  128POPC   C1B 1846   0.067  10.628   7.058 -0.2128 -0.3001 -0.0999
  128POPC   C2B 1847  -0.310  10.434   6.918  0.0603  0.3122  0.1909
  128POPC   C3B 1848  -0.758  10.642   6.669 -0.4390 -0.0818 -0.0155
  128POPC   C4B 1849  -0.784  10.662   6.181 -0.1592 -0.0776 -0.2161
  129POPC   NC3 1850   8.418   3.704   8.507  0.3158 -0.0698  0.0607
  129POPC   PO4 1851   8.047   3.521   8.201 -0.1566  0.1000 -0.4133
  129POPC   GL1 1852   7.850   3.268   7.890  0.0536 -0.0153  0.0679
  129POPC   GL2 1853   7.654   3.064   7.819  0.1291 -0.0033 -0.4244
  129POPC   C1A 1854   7.979   2.772   7.674 -0.0566 -0.1766 -0.2183
  129POPC   D2A 1855   8.111   2.416   7.642  0.1942  0.2154 -0.1538
  129POPC   C3A 1856   7.993   2.158   7.265 -0.0328 -0.3946 -0.0910
  129POPC   C4A 1857   7.985   1.724   7.245 -0.0562  0.2960  0.3474
  129POPC   C1B 1858   7.622   3.083   7.337 -0.0673 -0.1984 -0.3196
  129POPC   C2B 1859   7.182   2.947   7.198  0.1222  0.0199  0.0554
  129POPC   C3B 1860   6.898   3.208   7.123 -0.1134  0.0126  0.1479
  129POPC   C4B 1861   6.469   3.187   7.134  0.0175  0.2680  0.0681
  130POPC   NC3 1862   4.567  10.313   8.042  0.1480 -0.1806 -0.1807
  130POPC   PO4 1863   4.870  10.545   7.778 -0.2630 -0.5270 -0.0666
  130POPC   GL1 1864   4.794  10.616   7.402 -0.0052  0.4791 -0.2325
  130POPC   GL2 1865   4.595  10.926   7.324 -0.2596  0.0028  0.0701
  130POPC   C1A 1866   5.016  10.488   6.905  0.1478  0.0335 -0.0116
  130POPC   D2A 1867   5.362  10.495   6.614  0.3186  0.1254  0.0019
  130POPC   C3A 1868   5.324  10.675   6.251 -0.0892 -0.1516  0.2401
  130POPC   C4A 1869   5.431  10.602   5.844  0.2669  0.0748  0.0251
  130POPC   C1B 1870   4.943  11.005   7.105  0.1691  0.1883 -0.0303
  130POPC   C2B 1871   4.879  10.930   6.739  0.2549 -0.2828  0.1238
  130POPC   C3B 1872   4.874  10.663   6.434 -0.0879 -0.0054 -0.0709
  130POPC   C4B 1873   4.980  10.341   6.079  0.2540  0.0761 -0.1779
  131POPC   NC3 1874   9.377   6.965   8.149  0.0910  0.1933  0.1391
  131POPC   PO4 1875   9.714   6.971   7.728 -0.1131 -0.2224  0.0592
  131POPC   GL1 1876   9.676   7.167   7.405 -0.2862  0.1548 -0.2061
  131POPC   GL2 1877   9.575   7.433   7.363  0.0565 -0.1574  0.4302
  131POPC   C1A 1878   9.625   7.078   6.967  0.2602  0.2989  0.0148
  131POPC   D2A 1879   9.844   7.064   6.606  0.1210  0.2389 -0.0913
  131POPC   C3A 1880   9.622   6.938   6.232  0.0357 -0.1225  0.2243
  131POPC   C4A 1881   9.658   7.009   5.827 -0.0797  0.0833 -0.1112
  131POPC   C1B 1882   9.453   7.874   7.191 -0.0044  0.0322 -0.2311
  131POPC   C2B 1883   9.083   8.044   7.001  0.0465 -0.3685 -0.0190
  131POPC   C3B 1884   9.156   7.912   6.601 -0.3481  0.2137 -0.0633
  131POPC   C4B 1885   8.846   7.992   6.226  0.0206 -0.0270  0.0529
  132POPC   NC3 1886   3.908   2.698   7.309  0.0396  0.0464  0.0564
  132POPC   PO4 1887   4.319   2.670   7.241  0.1993  0.0421 -0.2344
  132POPC   GL1 1888   4.170   2.678   6.899 -0.2002 -0.2320  0.2616
  132POPC   GL2 1889   4.452   2.580   6.751 -0.1685  0.2681 -0.2511
  132POPC   C1A 1890   4.081   2.859   6.578 -0.0311  0.1758 -0.2760
  132POPC   D2A 1891   3.808   2.847   6.167  0.0159  0.3247 -0.1935
  132POPC   C3A 1892   3.603   3.318   5.901 -0.3104  0.3619  0.0013
  132POPC   C4A 1893   3.712   3.471   5.518 -0.3123 -0.0983 -0.1235
  132POPC   C1B 1894   4.656   2.617   6.363  0.1777 -0.2602 -0.2472
  132POPC   C2B 1895   4.879   2.509   6.042  0.0088  0.0959 -0.1086
  132POPC   C3B 1896   5.211   2.603   5.783  0.0123 -0.0495  0.1858
  132POPC   C4B 1897   5.383   2.830   5.515 -0.3796 -0.3138  0.2492
  133POPC   NC3 1898   3.875   7.768   8.101 -0.1013  0.1815  0.0600
  133POPC   PO4 1899   4.208   7.916   7.652 -0.2038 -0.0283 -0.0869
  133POPC   GL1 1900   4.459   7.877   7.269  0.1837  0.0407  0.0228
  133POPC   GL2 1901   4.710   7.725   7.204  0.0225 -0.1398 -0.0484
  133POPC   C1A 1902   4.318   8.093   6.890 -0.1779 -0.0664  0.1672
  133POPC   D2A 1903   3.959   8.419   6.766 -0.0016  0.0323 -0.2689
  133POPC   C3A 1904   3.917   8.599   6.271  0.2370 -0.2166 -0.0275
  133POPC   C4A 1905   3.734   8.991   6.182 -0.1418 -0.1347 -0.2575
  133POPC   C1B 1906   4.526   7.623   6.770  0.0472  0.4298  0.0498
  133POPC   C2B 1907   4.426   7.447   6.359  0.0598 -0.1740 -0.1897
  133POPC   C3B 1908   4.565   7.473   5.908  0.0530  0.1083 -0.1253
  133POPC   C4B 1909   4.711   7.671   5.563  0.4110 -0.1467 -0.0631
  134POPC   NC3 1910   1.039   8.727   7.739 -0.3267  0.2790  0.1823
  134POPC   PO4 1911   0.978   8.301   7.516  0.1404  0.0506 -0.2487
  134POPC   GL1 1912   1.095   8.574   7.257 -0.0811 -0.1174  0.3507
  134POPC   GL2 1913   1.462   8.774   7.348  0.2449 -0.0130 -0.1716
  134POPC   C1A 1914   1.161   8.742   6.862  0.0200 -0.0288  0.1414
  134POPC   D2A 1915   1.180   9.104   6.581 -0.1423  0.0604 -0.0612
  134POPC   C3A 1916   1.434   9.185   6.255 -0.2055  0.2665  0.0355
  134POPC   C4A 1917   1.630   9.604   6.184 -0.2176  0.1416 -0.0068
  134POPC   C1B 1918   1.689   8.954   6.954  0.1848  0.1805  0.0905
  134POPC   C2B 1919   1.920   8.974   6.670  0.0308  0.1138  0.1613
  134POPC   C3B 1920   2.005   8.748   6.339  0.2009 -0.0624 -0.0618
  134POPC   C4B 1921   1.713   8.467   6.078  0.0674 -0.0250  0.1182
  135POPC   NC3 1922   8.037   0.353   8.205  0.2151 -0.1650  0.1658
  135POPC   PO4 1923   7.876   0.777   8.348 -0.1256  0.2322 -0.2412
  135POPC   GL1 1924   7.953   0.780   7.928  0.0007  0.2654 -0.3154
  135POPC   GL2 1925   8.028   0.548   7.725  0.5414  0.1527  0.2052
  135POPC   C1A 1926   7.717   0.964   7.575  0.0424 -0.2360 -0.2104
  135POPC   D2A 1927   8.013   0.954   7.205  0.0343  0.2630  0.1163
  135POPC   C3A 1928   7.985   1.100   6.851 -0.0298 -0.1575 -0.0033
  135POPC   C4A 1929   7.734   0.981   6.590  0.1793 -0.0043  0.1650
  135POPC   C1B 1930   8.015   0.426   7.348 -0.0762 -0.3092  0.0962
  135POPC   C2B 1931   8.191   0.261   7.015  0.4580 -0.2277  0.3172
  135POPC   C3B 1932   8.287   0.023   6.687 -0.1582 -0.1090 -0.0791
  135POPC   C4B 1933   8.661  -0.205   6.526  0.0259  0.0412 -0.3167
  136POPC   NC3 1934   0.929   0.199   7.819  0.1836  0.0972  0.0530
  136POPC   PO4 1935   1.285  -0.029   7.819  0.0306 -0.3327  0.1020
  136POPC   GL1 1936   1.205   0.123   7.383 -0.1998  0.1597  0.0264
  136POPC   GL2 1937   1.404  -0.003   7.163 -0.1607 -0.2519  0.2759
  136POPC   C1A 1938   1.047   0.195   6.934 -0.1629  0.1190  0.0054
  136POPC   D2A 1939   0.797   0.475   6.598  0.0137  0.1533 -0.0686
  136POPC   C3A 1940   0.908   0.438   6.143  0.1362 -0.2950  0.1015
  136POPC   C4A 1941   0.804   0.591   5.716 -0.0999 -0.0662 -0.2733
  136POPC   C1B 1942   1.831  -0.128   6.915  0.3229 -0.1182  0.1156
  136POPC   C2B 1943   2.185  -0.161   6.610 -0.1385 -0.3070 -0.0000
  136POPC   C3B 1944   2.201   0.075   6.201  0.1377  0.1880  0.3216
  136POPC   C4B 1945   2.322   0.288   5.753  0.1138 -0.1742 -0.0025
  137POPC   NC3 1946   7.825   4.719   7.599 -0.0294 -0.1078 -0.0054
  137POPC   PO4 1947   7.857   5.091   7.324 -0.0523 -0.1568  0.0688
  137POPC   GL1 1948   8.178   5.133   7.075  0.0714 -0.0593  0.2289
  137POPC   GL2 1949   8.340   5.402   7.059 -0.0181 -0.2300  0.0750
  137POPC   C1A 1950   8.428   5.023   6.784  0.0975 -0.1098 -0.1267
  137POPC   D2A 1951   8.573   4.989   6.380 -0.3442  0.1162  0.0234
  137POPC   C3A 1952   8.623   5.311   6.045  0.0253 -0.0029  0.1147
  137POPC   C4A 1953   8.474   5.681   5.760  0.2240  0.0443  0.0567
  137POPC   C1B 1954   8.340   5.627   6.533 -0.1910  0.0218  0.1665
  137POPC   C2B 1955   8.133   5.878   6.263 -0.1827 -0.0567 -0.1551
  137POPC   C3B 1956   7.903   5.903   5.920  0.1512  0.1049  0.2901
  137POPC   C4B 1957   7.789   5.697   5.444  0.2961 -0.1790  0.2338
  138POPC   NC3 1958   0.491   0.995   7.730 -0.0008  0.1098 -0.0497
  138POPC   PO4 1959   0.865   0.989   7.524 -0.0943 -0.0809  0.0612
  138POPC   GL1 1960   0.990   1.116   6.999  0.0334  0.0465 -0.0301
  138POPC   GL2 1961   1.088   0.851   6.860 -0.1155 -0.1985  0.4140
  138POPC   C1A 1962   1.252   1.260   6.656 -0.0315  0.0032 -0.1915
  138POPC   D2A 1963   1.512   1.101   6.363  0.0843  0.0492  0.2195
  138POPC   C3A 1964   1.281   0.898   6.001  0.0488 -0.3274  0.1273
  138POPC   C4A 1965   1.231   1.120   5.693  0.0117 -0.3792  0.2311
  138POPC   C1B 1966   0.954   0.925   6.402  0.2551  0.2859 -0.4400
  138POPC   C2B 1967   0.743   0.899   6.135  0.2440  0.0533  0.0479
  138POPC   C3B 1968   0.448   0.595   6.072 -0.1235 -0.0837  0.0961
  138POPC   C4B 1969   0.297   0.501   5.745  0.0213 -0.0337 -0.2037
  139POPC   NC3 1970   5.078   4.946   7.980 -0.2828 -0.0886  0.0868
  139POPC   PO4 1971   5.524   5.166   7.788 -0.0977  0.3611  0.2479
  139POPC   GL1 1972   5.529   4.982   7.291  0.0444  0.0044 -0.0753
  139POPC   GL2 1973   5.816   4.910   7.096  0.1112 -0.1474 -0.0750
  139POPC   C1A 1974   5.386   4.585   6.903 -0.2032  0.2284 -0.0067
  139POPC   D2A 1975   5.243   4.593   6.480 -0.0788 -0.3988  0.1715
  139POPC   C3A 1976   5.052   4.370   6.052  0.0007 -0.0224  0.3947
  139POPC   C4A 1977   4.773   4.180   5.863  0.0590  0.0347  0.0319
  139POPC   C1B 1978   5.587   4.975   6.740  0.0922  0.0357 -0.1522
  139POPC   C2B 1979   5.649   4.881   6.364 -0.0681  0.2444 -0.0068
  139POPC   C3B 1980   5.441   4.757   6.097 -0.2350  0.1163 -0.1087
  139POPC   C4B 1981   5.240   4.712   5.750  0.2447  0.2312 -0.0232
  140POPC   NC3 1982   5.678   9.355   7.835  0.0612  0.2654 -0.0589
  140POPC   PO4 1983   5.300   9.098   7.667  0.1186 -0.1472 -0.1624
  140POPC   GL1 1984   5.290   9.081   7.232  0.3676 -0.0518 -0.1465
  140POPC   GL2 1985   5.190   8.932   6.996  0.2840  0.3379 -0.0250
  140POPC   C1A 1986   5.489   9.304   6.888 -0.1128 -0.1452  0.0729
  140POPC   D2A 1987   5.825   9.296   6.594  0.0935 -0.1679  0.0738
  140POPC   C3A 1988   6.014   9.769   6.528  0.0144 -0.0036 -0.1101
  140POPC   C4A 1989   5.942   9.978   6.217  0.1949  0.2842 -0.3196
  140POPC   C1B 1990   5.208   8.993   6.660  0.0012  0.3354 -0.1847
  140POPC   C2B 1991   5.336   9.198   6.317 -0.0140 -0.1168 -0.2384
  140POPC   C3B 1992   5.532   9.717   6.279  0.1447 -0.2074  0.0898
  140POPC   C4B 1993   5.457  10.125   6.240  0.1808  0.0734 -0.2704
  141POPC   NC3 1994   8.546   4.272   8.132  0.0383 -0.0583 -0.1096
  141POPC   PO4 1995   8.597   3.883   8.089  0.1761  0.0644 -0.0204
  141POPC   GL1 1996   8.559   3.830   7.701  0.2347  0.2381 -0.0313
  141POPC   GL2 1997   8.815   3.926   7.590  0.1562  0.1089 -0.1340
  141POPC   C1A 1998   8.641   3.551   7.323 -0.0821  0.1233 -0.0599
  141POPC   D2A 1999   8.682   3.187   7.230  0.1419  0.0111 -0.0926
  141POPC   C3A 2000   8.892   2.872   7.270 -0.3360 -0.1005  0.2556
  141POPC   C4A 2001   9.056   2.420   7.153  0.1767 -0.1153  0.2581
  141POPC   C1B 2002   8.672   4.214   7.218 -0.2012 -0.1747  0.1595
  141POPC   C2B 2003   8.365   4.307   6.882 -0.3650  0.0193  0.1567
  141POPC   C3B 2004   8.307   4.581   6.410  0.1099  0.1193 -0.1307
  141POPC   C4B 2005   8.574   4.295   6.107  0.1248 -0.1540 -0.0864
  142POPC   NC3 2006   1.053   1.293   7.973 -0.1587  0.1285 -0.0359
  142POPC   PO4 2007   0.769   1.494   7.731  0.2155  0.0218 -0.1230
  142POPC   GL1 2008   0.672   1.447   7.403 -0.0641 -0.1367 -0.1374
  142POPC   GL2 2009   0.460   1.215   7.283  0.0744 -0.2034  0.1703
  142POPC   C1A 2010   0.748   1.466   6.835  0.0470 -0.0804  0.0210
  142POPC   D2A 2011   0.908   1.799   6.600 -0.2535  0.0437  0.0401
  142POPC   C3A 2012   0.837   1.755   6.201 -0.0054  0.1487 -0.0356
  142POPC   C4A 2013   0.615   1.890   5.903 -0.0034 -0.1056  0.2978
  142POPC   C1B 2014   0.545   1.056   6.814  0.0226 -0.0433  0.1643
  142POPC   C2B 2015   0.420   0.873   6.540 -0.2891 -0.0979  0.2216
  142POPC   C3B 2016   0.160   0.992   6.132 -0.0280 -0.0818 -0.0273
  142POPC   C4B 2017  -0.153   1.339   6.084 -0.1826 -0.3816 -0.2870
  143POPC   NC3 2018   3.868   5.973   7.598  0.4021  0.2048 -0.0520
  143POPC   PO4 2019   4.005   5.579   7.450  0.1385  0.1999 -0.0587
  143POPC   GL1 2020   3.934   5.637   7.017  0.3057 -0.4305 -0.0250
  143POPC   GL2 2021   3.684   5.448   6.866 -0.0132  0.1509  0.0973
  143POPC   C1A 2022   3.878   5.868   6.569  0.1266 -0.0078 -0.0191
  143POPC   D2A 2023   3.686   6.092   6.230  0.0771  0.2202  0.2035
  143POPC   C3A 2024   3.826   6.410   6.191  0.2698 -0.0180  0.0248
  143POPC   C4A 2025   3.755   6.797   5.911  0.0839  0.1013 -0.1943
  143POPC   C1B 2026   3.488   5.135   6.656  0.1958 -0.1517 -0.1364
  143POPC   C2B 2027   3.011   5.143   6.556 -0.1083  0.1656 -0.1665
  143POPC   C3B 2028   2.724   5.134   6.261  0.0654  0.1238 -0.1119
  143POPC   C4B 2029   2.591   5.365   5.816 -0.0662  0.2066 -0.0557
  144POPC   NC3 2030   9.892   2.581   8.069  0.3091 -0.1747  0.0134
  144POPC   PO4 2031   9.710   2.987   7.756  0.1610  0.0535 -0.1799
  144POPC   GL1 2032   9.711   3.202   7.422 -0.3354  0.1968  0.0317
  144POPC   GL2 2033   9.938   3.029   7.183 -0.2301 -0.0126  0.1150
  144POPC   C1A 2034   9.525   3.341   7.031  0.1133 -0.0223 -0.1190
  144POPC   D2A 2035   9.401   3.305   6.644  0.1579 -0.0958  0.1396
  144POPC   C3A 2036   9.017   3.597   6.672  0.3078  0.1081  0.0738
  144POPC   C4A 2037   8.588   3.431   6.786 -0.0434 -0.0488  0.0490
  144POPC   C1B 2038  10.234   2.795   6.936 -0.1229  0.0600  0.0983
  144POPC   C2B 2039  10.467   2.684   6.575 -0.3084  0.0281 -0.0499
  144POPC   C3B 2040  10.521   2.615   6.197  0.0553 -0.1310 -0.1745
  144POPC   C4B 2041  10.411   2.801   5.742  0.0882  0.2149 -0.2821
  145POPC   NC3 2042   6.276   9.670   8.444  0.1001  0.0041 -0.1204
  145POPC   PO4 2043   6.243   9.550   7.961 -0.2460  0.2194  0.2920
  145POPC   GL1 2044   6.167   9.884   7.617 -0.1126  0.1504  0.1163
  145POPC   GL2 2045   6.264   9.592   7.430 -0.1501 -0.2834  0.2281
  145POPC   C1A 2046   6.317  10.333   7.334 -0.0672  0.2283  0.0068
  145POPC   D2A 2047   6.729  10.364   7.152  0.3250  0.1420  0.0384
  145POPC   C3A 2048   6.813  10.623   6.873  0.1407 -0.1604 -0.0914
  145POPC   C4A 2049   6.696  10.847   6.492  0.0341 -0.2232 -0.3920
  145POPC   C1B 2050   6.323   9.678   7.167  0.0832 -0.0223 -0.1426
  145POPC   C2B 2051   6.454   9.714   6.678 -0.1245 -0.1459  0.0840
  145POPC   C3B 2052   6.465   9.758   6.226 -0.0653  0.1302 -0.0982
  145POPC   C4B 2053   6.417   9.479   5.836  0.0102  0.3023 -0.1734
  146POPC   NC3 2054   5.936   7.031   7.578  0.0438  0.3022  0.1601
  146POPC   PO4 2055   6.209   7.381   7.600 -0.1215 -0.0514 -0.4116
  146POPC   GL1 2056   6.027   7.255   7.167  0.1113 -0.0828  0.2354
  146POPC   GL2 2057   5.752   7.215   7.131 -0.0769  0.0244 -0.0191
  146POPC   C1A 2058   5.877   7.361   6.663 -0.4331  0.0167  0.1943
  146POPC   D2A 2059   5.584   7.514   6.387  0.2101 -0.1010  0.0391
  146POPC   C3A 2060   5.355   7.543   6.771  0.1595 -0.0183 -0.0828
  146POPC   C4A 2061   4.987   7.410   6.907 -0.0954  0.1417  0.3557
  146POPC   C1B 2062   5.765   6.877   6.847 -0.1984 -0.2377  0.2619
  146POPC   C2B 2063   5.712   6.531   6.503  0.4824 -0.3382  0.0243
  146POPC   C3B 2064   5.487   6.429   6.265 -0.0470  0.0763  0.0482
  146POPC   C4B 2065   5.384   6.502   5.853  0.1085 -0.0012 -0.1780
  147POPC   NC3 2066   8.916   1.516   8.455 -0.4201 -0.3559  0.1339
  147POPC   PO4 2067   8.619   1.871   8.413  0.1841 -0.1034 -0.1914
  147POPC   GL1 2068   8.752   1.734   8.007 -0.3226  0.0104  0.2808
  147POPC   GL2 2069   8.813   2.056   7.853 -0.3399  0.0527  0.1249
  147POPC   C1A 2070   8.890   1.614   7.629  0.0960  0.2239  0.1172
  147POPC   D2A 2071   8.770   1.538   7.130 -0.1217  0.1967  0.1231
  147POPC   C3A 2072   9.096   1.546   6.963  0.0563 -0.1321 -0.0575
  147POPC   C4A 2073   9.311   1.770   6.522  0.1467 -0.4112 -0.0464
  147POPC   C1B 2074   8.886   2.016   7.337  0.0854  0.3953  0.1543
  147POPC   C2B 2075   8.912   2.009   6.878 -0.1148  0.1634  0.0859
  147POPC   C3B 2076   8.805   1.666   6.588  0.0533 -0.3763  0.2886
  147POPC   C4B 2077   8.478   1.522   6.311 -0.3598  0.2005 -0.0215
  148POPC   NC3 2078   2.113   6.889   7.374  0.0427 -0.0211  0.0489
  148POPC   PO4 2079   1.862   7.236   7.336  0.2970 -0.2166 -0.0242
  148POPC   GL1 2080   2.103   7.380   7.030 -0.3374  0.1130  0.2692
  148POPC   GL2 2081   2.435   7.153   7.114 -0.3320 -0.1392  0.4088
  148POPC   C1A 2082   2.370   7.385   6.667 -0.2538  0.2395 -0.1842
  148POPC   D2A 2083   2.403   7.285   6.192 -0.0748  0.2111 -0.0010
  148POPC   C3A 2084   2.425   7.478   5.754  0.2269 -0.1501 -0.2809
  148POPC   C4A 2085   2.263   7.656   5.291  0.0182 -0.0720 -0.2693
  148POPC   C1B 2086   2.446   6.904   6.809 -0.0154 -0.0062  0.2079
  148POPC   C2B 2087   2.397   6.546   6.591  0.3111  0.1275  0.0678
  148POPC   C3B 2088   2.159   6.268   6.341  0.2162  0.2490 -0.1646
  148POPC   C4B 2089   2.107   6.223   5.829 -0.2409  0.4113  0.1436
  149POPC   NC3 2090   1.566   3.303   7.219 -0.0054 -0.4209 -0.1630
  149POPC   PO4 2091   1.163   3.271   7.392 -0.4480 -0.1773  0.4753
  149POPC   GL1 2092   1.249   3.560   6.912  0.2225  0.1883  0.1481
  149POPC   GL2 2093   1.169   3.892   6.893 -0.0108  0.1358  0.0393
  149POPC   C1A 2094   1.021   3.538   6.586  0.2574  0.0279  0.2391
  149POPC   D2A 2095   0.902   3.495   6.122  0.5317 -0.0995  0.2611
  149POPC   C3A 2096   0.989   3.623   5.719 -0.0424  0.0370  0.2806
  149POPC   C4A 2097   1.303   3.797   5.482 -0.6350 -0.0112  0.0135
  149POPC   C1B 2098   0.792   4.230   6.851 -0.3240 -0.1615 -0.2444
  149POPC   C2B 2099   0.555   4.565   6.725  0.1994  0.0410  0.1115
  149POPC   C3B 2100   0.156   4.757   6.456  0.1802 -0.3457 -0.2078
  149POPC   C4B 2101   0.051   5.106   6.109  0.1142  0.0389 -0.0929
  150POPC   NC3 2102   5.564  10.459   8.556  0.2007 -0.3107  0.0558
  150POPC   PO4 2103   5.361  10.741   8.307 -0.3845 -0.1764 -0.1002
  150POPC   GL1 2104   5.386  10.618   7.830 -0.1487 -0.0915  0.2183
  150POPC   GL2 2105   5.373  10.794   7.614 -0.0794 -0.3835  0.1741
  150POPC   C1A 2106   5.689  10.343   7.469  0.0407  0.0444  0.1345
  150POPC   D2A 2107   5.899  10.497   7.100  0.4392 -0.1656 -0.2301
  150POPC   C3A 2108   5.837  10.874   6.789 -0.1400  0.0503 -0.0660
  150POPC   C4A 2109   6.273  11.108   6.566 -0.0108  0.2190 -0.2693
  150POPC   C1B 2110   5.415  10.822   7.162 -0.0934  0.1828 -0.1867
  150POPC   C2B 2111   5.354  11.020   6.677  0.0180  0.0215  0.0397
  150POPC   C3B 2112   5.611  11.043   6.372  0.1885 -0.0427  0.0270
  150POPC   C4B 2113   5.799  11.074   6.044 -0.1255 -0.0826 -0.0376
  151POPC   NC3 2114   2.336   8.951   7.449  0.0133  0.1283 -0.2620
  151POPC   PO4 2115   2.843   8.723   7.527 -0.0125 -0.2499  0.0183
  151POPC   GL1 2116   2.692   8.780   7.045  0.0206  0.0848 -0.0170
  151POPC   GL2 2117   2.721   8.457   6.981  0.1025 -0.3168 -0.0577
  151POPC   C1A 2118   2.744   9.002   6.715 -0.0720 -0.3539 -0.3143
  151POPC   D2A 2119   2.832   9.358   6.389 -0.0862 -0.0876  0.1583
  151POPC   C3A 2120   3.217   9.749   6.509 -0.0730  0.2377 -0.2147
  151POPC   C4A 2121   3.361  10.113   6.800  0.5570 -0.1861  0.3756
  151POPC   C1B 2122   3.037   8.431   6.664 -0.0057  0.5552 -0.2247
  151POPC   C2B 2123   3.490   8.332   6.562 -0.2008  0.0170 -0.1028
  151POPC   C3B 2124   3.909   8.070   6.374 -0.3640 -0.0314  0.1864
  151POPC   C4B 2125   4.129   8.217   6.033 -0.2890 -0.2541  0.1320
  152POPC   NC3 2126   1.233   8.151   8.053 -0.1145  0.0873  0.3039
  152POPC   PO4 2127   1.487   8.365   7.789  0.1527 -0.3954 -0.0903
  152POPC   GL1 2128   1.476   8.279   7.367  0.2303 -0.1365  0.0405
  152POPC   GL2 2129   1.785   8.283   7.171 -0.4671 -0.0154  0.2957
  152POPC   C1A 2130   1.409   7.918   7.035 -0.3433 -0.0513 -0.0387
  152POPC   D2A 2131   1.196   7.745   6.704 -0.1984 -0.2012 -0.0016
  152POPC   C3A 2132   0.845   7.853   6.585  0.2537 -0.0222  0.1176
  152POPC   C4A 2133   0.445   8.072   6.510  0.2080  0.1393 -0.1293
  152POPC   C1B 2134   1.621   8.453   6.903  0.0605  0.0375  0.0207
  152POPC   C2B 2135   1.532   8.706   6.462  0.2805 -0.0163 -0.2300
  152POPC   C3B 2136   1.207   8.773   6.187 -0.0462 -0.1341 -0.1017
  152POPC   C4B 2137   0.810   8.957   6.253 -0.0209  0.0653 -0.0421
  153POPC   NC3 2138   1.807   6.001   7.709 -0.1261 -0.1002 -0.2435
  153POPC   PO4 2139   1.714   5.564   7.452  0.1486  0.1674 -0.3154
  153POPC   GL1 2140   1.716   5.503   7.016  0.1919  0.0829 -0.1493
  153POPC   GL2 2141   1.728   5.280   6.694  0.0187 -0.1929 -0.0116
  153POPC   C1A 2142   1.902   5.820   6.627  0.0155  0.0979 -0.4184
  153POPC   D2A 2143   2.275   5.798   6.396  0.2926 -0.1012 -0.1301
  153POPC   C3A 2144   2.427   5.799   5.912  0.2908 -0.2435  0.0179
  153POPC   C4A 2145   2.725   6.103   5.686  0.1126 -0.1336 -0.0209
  153POPC   C1B 2146   1.295   5.266   6.558 -0.0149 -0.0016  0.1937
  153POPC   C2B 2147   1.042   5.392   6.362  0.1631 -0.1009 -0.1152
  153POPC   C3B 2148   0.706   5.495   6.140 -0.1856  0.2308  0.4328
  153POPC   C4B 2149   0.195   5.649   6.053 -0.2854  0.4020  0.1243
  154POPC   NC3 2150   7.258   8.664   7.713  0.2587 -0.0177 -0.2500
  154POPC   PO4 2151   6.971   8.392   7.631 -0.1719 -0.3214 -0.0091
  154POPC   GL1 2152   7.035   8.175   7.232  0.0268 -0.0528 -0.2800
  154POPC   GL2 2153   6.735   8.160   7.272  0.0565 -0.1478  0.4715
  154POPC   C1A 2154   7.024   8.258   6.838  0.1524  0.1319  0.0389
  154POPC   D2A 2155   6.867   8.315   6.426  0.0667  0.0732  0.0021
  154POPC   C3A 2156   6.540   8.730   6.368  0.2290  0.0919  0.2850
  154POPC   C4A 2157   6.387   8.942   5.948  0.1657  0.1546 -0.0531
  154POPC   C1B 2158   6.626   7.979   7.007  0.1091  0.0948  0.1278
  154POPC   C2B 2159   6.349   8.050   6.585  0.0037  0.2423  0.0606
  154POPC   C3B 2160   6.139   7.814   6.327  0.1059  0.2580 -0.1424
  154POPC   C4B 2161   6.138   7.770   5.921 -0.0392 -0.0567 -0.0513
  155POPC   NC3 2162   5.763   8.948   7.502  0.0555 -0.3431 -0.4418
  155POPC   PO4 2163   6.070   9.190   7.606 -0.0402 -0.1838 -0.0618
  155POPC   GL1 2164   6.061   9.199   7.082 -0.1489  0.0749 -0.1041
  155POPC   GL2 2165   5.784   8.972   7.035  0.0573  0.0904 -0.1704
  155POPC   C1A 2166   5.842   9.595   6.961 -0.5208 -0.0759 -0.3507
  155POPC   D2A 2167   5.930  10.011   7.141 -0.1776 -0.1797 -0.1543
  155POPC   C3A 2168   6.140  10.159   6.767 -0.2131 -0.0037  0.3285
  155POPC   C4A 2169   6.552  10.317   6.486 -0.0130  0.0509  0.1573
  155POPC   C1B 2170   5.707   8.741   6.632  0.0438 -0.1458 -0.1822
  155POPC   C2B 2171   5.518   8.610   6.245  0.2387 -0.1846  0.1400
  155POPC   C3B 2172   5.346   8.412   5.968 -0.0601 -0.0233 -0.0405
  155POPC   C4B 2173   5.087   8.438   5.615  0.0833 -0.0475 -0.0018
  156POPC   NC3 2174   9.798  10.206   8.230  0.5041 -0.1712 -0.0731
  156POPC   PO4 2175  10.036  10.422   7.849  0.2071  0.3034  0.2353
  156POPC   GL1 2176   9.543  10.346   7.691 -0.1032  0.2972 -0.0700
  156POPC   GL2 2177   9.168  10.382   7.640 -0.1702 -0.2739  0.0768
  156POPC   C1A 2178   9.383  10.114   7.309  0.0676 -0.0579  0.0990
  156POPC   D2A 2179   9.107   9.827   7.106 -0.0822 -0.0584  0.1332
  156POPC   C3A 2180   9.330   9.465   6.821  0.2708  0.1267  0.2063
  156POPC   C4A 2181   9.668   9.280   6.599  0.0933  0.1243  0.1854
  156POPC   C1B 2182   8.945  10.455   7.276  0.1767 -0.0875  0.1538
  156POPC   C2B 2183   9.129  10.309   6.893 -0.2267 -0.0263 -0.0595
  156POPC   C3B 2184   9.455  10.017   6.788 -0.0908 -0.0994  0.3873
  156POPC   C4B 2185   9.487   9.823   6.462  0.0733  0.4239  0.2679
  157POPC   NC3 2186   3.349   8.719   7.589  0.0917 -0.1471  0.1210
  157POPC   PO4 2187   3.127   8.365   7.302  0.3865  0.0363 -0.3763
  157POPC   GL1 2188   3.236   8.722   6.997  0.0802 -0.1297  0.0553
  157POPC   GL2 2189   3.500   8.664   6.966  0.3424 -0.2597 -0.1140
  157POPC   C1A 2190   3.181   8.887   6.553 -0.3590  0.0492 -0.1401
  157POPC   D2A 2191   3.227   9.041   6.162 -0.1942 -0.1499 -0.0956
  157POPC   C3A 2192   3.058   9.434   5.962  0.1753  0.0197  0.0847
  157POPC   C4A 2193   3.300   9.829   6.019  0.1939 -0.2609  0.1547
  157POPC   C1B 2194   3.705   8.838   6.652 -0.0012 -0.3894 -0.0742
  157POPC   C2B 2195   4.120   9.084   6.533 -0.0475  0.0276  0.1530
  157POPC   C3B 2196   4.219   9.337   6.142 -0.2452  0.1085 -0.1286
  157POPC   C4B 2197   4.069   9.155   5.829 -0.2410  0.0986 -0.1622
  158POPC   NC3 2198   0.541   9.473   7.670  0.1470  0.0796  0.1823
  158POPC   PO4 2199   0.474   9.015   7.865 -0.0758  0.1732 -0.0002
  158POPC   GL1 2200   0.313   8.892   7.468  0.2995 -0.0490 -0.3332
  158POPC   GL2 2201   0.583   8.668   7.330  0.1743  0.2439 -0.1846
  158POPC   C1A 2202   0.168   8.872   6.983 -0.1712  0.1576  0.2394
  158POPC   D2A 2203   0.000   8.687   6.636 -0.0848  0.0506 -0.3177
  158POPC   C3A 2204  -0.187   9.038   6.270  0.0463  0.2058 -0.2506
  158POPC   C4A 2205  -0.268   9.496   6.305  0.0092  0.1740  0.3559
  158POPC   C1B 2206   0.651   9.137   7.080  0.0292 -0.0429 -0.1585
  158POPC   C2B 2207   0.712   9.434   6.758  0.1521 -0.1891  0.1792
  158POPC   C3B 2208   0.419   9.660   6.493  0.3233 -0.0215  0.1030
  158POPC   C4B 2209   0.055   9.938   6.230 -0.1637  0.0385 -0.1066
  159POPC   NC3 2210   5.182   8.226   7.774 -0.0284  0.1226 -0.0784
  159POPC   PO4 2211   5.298   7.924   7.654  0.1818 -0.1404  0.0969
  159POPC   GL1 2212   5.405   8.097   7.200  0.2059 -0.0421 -0.0265
  159POPC   GL2 2213   5.431   8.402   7.071 -0.0084  0.2229 -0.0156
  159POPC   C1A 2214   5.545   7.969   6.749  0.2859 -0.2320 -0.4293
  159POPC   D2A 2215   5.432   7.977   6.354 -0.0279  0.4723 -0.2451
  159POPC   C3A 2216   5.594   7.758   5.991  0.2889 -0.1405 -0.3490
  159POPC   C4A 2217   5.825   7.467   5.688  0.3411 -0.2597 -0.1265
  159POPC   C1B 2218   5.312   8.444   6.660  0.1438  0.1118  0.3497
  159POPC   C2B 2219   5.041   8.408   6.378 -0.1294  0.1218  0.0870
  159POPC   C3B 2220   4.692   8.128   6.507  0.2863 -0.0535 -0.1243
  159POPC   C4B 2221   4.433   7.995   6.333  0.2532  0.1668  0.3386
  160POPC   NC3 2222  10.618   9.848   8.117  0.0180  0.1456  0.1358
  160POPC   PO4 2223  11.028   9.775   7.905 -0.1414  0.0560  0.3218
  160POPC   GL1 2224  10.814   9.576   7.537 -0.0635  0.0111 -0.0221
  160POPC   GL2 2225  10.432   9.629   7.663  0.0262  0.0797  0.0160
  160POPC   C1A 2226  10.745   9.237   7.198  0.0928 -0.1780 -0.0445
  160POPC   D2A 2227  10.649   9.269   6.749 -0.0993 -0.1778 -0.0488
  160POPC   C3A 2228  11.007   9.141   6.545 -0.0826  0.0405 -0.1936
  160POPC   C4A 2229  11.077   9.260   6.201  0.1302  0.2233  0.0062
  160POPC   C1B 2230  10.288   9.411   7.308 -0.1855  0.1169 -0.0691
  160POPC   C2B 2231  10.202   9.062   7.039 -0.1593 -0.0143  0.0775
  160POPC   C3B 2232  10.169   9.159   6.573 -0.1228  0.3437  0.0764
  160POPC   C4B 2233  10.131   9.070   6.083  0.0414  0.0918  0.0358
  161POPC   NC3 2234   0.101   4.997   7.924  0.1759  0.0466  0.3458
  161POPC   PO4 2235   0.447   4.952   7.513 -0.1777  0.2493  0.2608
  161POPC   GL1 2236   0.613   4.929   7.169 -0.2536 -0.1357  0.2041
  161POPC   GL2 2237   1.020   5.003   7.172  0.5140  0.0543  0.0201
  161POPC   C1A 2238   0.379   5.055   6.864 -0.0726  0.0103  0.0889
  161POPC   D2A 2239   0.381   5.247   6.413  0.0596 -0.1226 -0.0526
  161POPC   C3A 2240   0.094   5.546   6.492 -0.1189 -0.2614 -0.2859
  161POPC   C4A 2241   0.088   5.988   6.393 -0.3673 -0.2086  0.1341
  161POPC   C1B 2242   0.963   4.828   6.798  0.0313 -0.0028  0.1324
  161POPC   C2B 2243   0.769   4.969   6.409 -0.0708  0.0303 -0.1876
  161POPC   C3B 2244   0.652   4.951   5.986  0.3061  0.0638 -0.2179
  161POPC   C4B 2245   0.444   5.171   5.725 -0.0550  0.2381  0.2096
  162POPC   NC3 2246   6.526   9.108   7.860 -0.2116  0.0689  0.2546
  162POPC   PO4 2247   6.569   8.684   7.584  0.6118  0.0569 -0.2358
  162POPC   GL1 2248   6.837   8.672   7.233 -0.0300 -0.1166  0.0298
  162POPC   GL2 2249   6.612   8.571   7.007 -0.2581  0.0256  0.3182
  162POPC   C1A 2250   7.224   8.677   6.964 -0.2160 -0.0882  0.2310
  162POPC   D2A 2251   7.396   8.430   6.585  0.1813  0.3618 -0.0090
  162POPC   C3A 2252   7.316   8.374   6.163  0.1200 -0.1507 -0.0975
  162POPC   C4A 2253   7.611   8.245   5.902 -0.1134  0.0431 -0.0273
  162POPC   C1B 2254   6.821   8.807   6.721 -0.1435  0.0436 -0.0171
  162POPC   C2B 2255   7.077   8.894   6.439 -0.0301  0.0725 -0.1865
  162POPC   C3B 2256   7.480   9.053   6.220 -0.2576  0.0754  0.0825
  162POPC   C4B 2257   7.800   9.378   6.191 -0.1037 -0.0768  0.1953
  163POPC   NC3 2258   2.194   2.230   7.677 -0.1086  0.0890  0.3100
  163POPC   PO4 2259   2.391   2.309   7.354  0.1789  0.0372  0.1498
  163POPC   GL1 2260   2.190   2.194   7.155  0.0409 -0.1652  0.0244
  163POPC   GL2 2261   1.915   2.031   7.168 -0.0715 -0.1739 -0.2288
  163POPC   C1A 2262   1.976   2.275   6.760  0.1260  0.1374  0.0770
  163POPC   D2A 2263   1.792   2.451   6.292  0.0458  0.1517 -0.3776
  163POPC   C3A 2264   2.059   2.582   6.113  0.0875  0.0435  0.3305
  163POPC   C4A 2265   2.490   2.492   5.954  0.3734  0.2913 -0.1567
  163POPC   C1B 2266   1.749   1.769   6.880 -0.1299 -0.0886  0.3425
  163POPC   C2B 2267   1.535   1.636   6.445 -0.1267  0.3559 -0.0350
  163POPC   C3B 2268   1.554   1.927   6.061 -0.0483  0.0505  0.1344
  163POPC   C4B 2269   1.518   2.385   5.795 -0.0565 -0.1936  0.2906
  164POPC   NC3 2270   0.735  10.168   7.741 -0.0481 -0.0250 -0.2143
  164POPC   PO4 2271   0.871  10.580   7.521  0.2078  0.1985 -0.1046
  164POPC   GL1 2272   0.866  10.166   7.262 -0.1196 -0.1518  0.1366
  164POPC   GL2 2273   0.845  10.375   7.060  0.1708  0.1738  0.1402
  164POPC   C1A 2274   0.690   9.868   6.975 -0.0882  0.1489  0.0743
  164POPC   D2A 2275   0.353   9.574   7.058  0.2593 -0.0111 -0.0531
  164POPC   C3A 2276  -0.056   9.716   7.023  0.2638  0.3782 -0.2470
  164POPC   C4A 2277  -0.427   9.903   7.184 -0.1579  0.1542  0.0631
  164POPC   C1B 2278   0.473  10.397   6.892 -0.2174 -0.1773  0.2028
  164POPC   C2B 2279   0.228  10.578   6.590  0.0462  0.1623  0.0363
  164POPC   C3B 2280  -0.150  10.805   6.651 -0.0454 -0.0805 -0.0408
  164POPC   C4B 2281  -0.504  11.048   6.458  0.2260  0.2896  0.1103
  165POPC   NC3 2282   2.822   5.007   7.351  0.1244  0.1604  0.2115
  165POPC   PO4 2283   2.795   5.554   7.445 -0.1342  0.1761  0.2823
  165POPC   GL1 2284   2.847   5.464   7.073 -0.1766 -0.1119  0.0492
  165POPC   GL2 2285   3.158   5.558   6.882 -0.2236  0.1308  0.1304
  165POPC   C1A 2286   2.759   5.551   6.619 -0.0746 -0.1044  0.2594
  165POPC   D2A 2287   2.826   5.643   6.190 -0.0927  0.0156 -0.0811
  165POPC   C3A 2288   3.120   5.300   5.895  0.0100  0.2675  0.0239
  165POPC   C4A 2289   3.219   4.784   5.771 -0.1446  0.3501 -0.1444
  165POPC   C1B 2290   3.287   5.514   6.415  0.1698 -0.3502  0.2780
  165POPC   C2B 2291   3.527   5.670   6.045  0.1673 -0.0981  0.2145
  165POPC   C3B 2292   3.894   5.904   5.755 -0.1576  0.2981 -0.0535
  165POPC   C4B 2293   4.118   5.727   5.338 -0.0735 -0.2605 -0.1674
  166POPC   NC3 2294   8.212  10.073   8.360  0.3679 -0.1915 -0.2027
  166POPC   PO4 2295   8.471  10.425   8.182 -0.0099  0.0810  0.1945
  166POPC   GL1 2296   8.481  10.477   7.681 -0.0997  0.1337 -0.1613
  166POPC   GL2 2297   8.240  10.237   7.417 -0.2836  0.1520  0.0231
  166POPC   C1A 2298   8.490  10.879   7.522 -0.1218 -0.1190 -0.2598
  166POPC   D2A 2299   8.708  11.180   7.152  0.0056  0.2209  0.0680
  166POPC   C3A 2300   8.401  11.491   6.971  0.0288 -0.1144  0.0593
  166POPC   C4A 2301   8.398  11.764   6.593  0.1619 -0.0321 -0.0510
  166POPC   C1B 2302   8.531  10.158   7.004 -0.0917 -0.0808 -0.0669
  166POPC   C2B 2303   8.817   9.963   6.683 -0.1654  0.2115 -0.0575
  166POPC   C3B 2304   9.100  10.249   6.393  0.1535  0.2158  0.3524
  166POPC   C4B 2305   9.125  10.615   6.387  0.0151 -0.0377  0.1047
  167POPC   NC3 2306   9.372   3.500   7.760  0.1849  0.1155 -0.1924
  167POPC   PO4 2307   9.649   3.774   7.502 -0.2741  0.1094 -0.2707
  167POPC   GL1 2308   9.200   3.714   7.301 -0.0438 -0.1069 -0.0125
  167POPC   GL2 2309   9.131   3.433   7.362  0.0818  0.1769 -0.2387
  167POPC   C1A 2310   8.959   3.843   7.067 -0.0521  0.0735 -0.3823
  167POPC   D2A 2311   8.657   3.941   6.681  0.1970  0.0706 -0.4206
  167POPC   C3A 2312   8.475   3.635   6.357 -0.2731 -0.0075  0.1495
  167POPC   C4A 2313   8.754   3.404   6.009  0.1719  0.1036 -0.0759
  167POPC   C1B 2314   9.055   3.208   6.965 -0.0378 -0.2223  0.0045
  167POPC   C2B 2315   9.129   2.819   6.815 -0.0289 -0.0636  0.1949
  167POPC   C3B 2316   9.022   2.570   6.533 -0.0978  0.1117  0.0125
  167POPC   C4B 2317   9.063   2.590   6.037 -0.2179 -0.3626  0.0859
  168POPC   NC3 2318   8.977  10.272   8.384 -0.0780 -0.1292  0.0393
  168POPC   PO4 2319   9.333  10.110   8.095 -0.0148  0.0382  0.1905
  168POPC   GL1 2320   9.674   9.833   7.789  0.0359  0.0539 -0.1244
  168POPC   GL2 2321   9.789   9.499   7.737 -0.2347  0.1373  0.0206
  168POPC   C1A 2322   9.863   9.870   7.232  0.0052 -0.1588 -0.3354
  168POPC   D2A 2323   9.968  10.105   6.769 -0.1415  0.1735  0.4172
  168POPC   C3A 2324  10.058  10.182   6.382  0.0087 -0.0197  0.1594
  168POPC   C4A 2325  10.397  10.110   6.115  0.2030  0.1220 -0.1809
  168POPC   C1B 2326   9.461   9.466   7.515 -0.0092 -0.1229 -0.0561
  168POPC   C2B 2327   9.001   9.288   7.288  0.1460  0.0499  0.0916
  168POPC   C3B 2328   8.844   8.952   6.933  0.0690 -0.1298 -0.0003
  168POPC   C4B 2329   8.795   8.873   6.476  0.0359  0.0398 -0.2454
  169POPC   NC3 2330   4.585   3.059   7.205 -0.0353 -0.1844  0.0213
  169POPC   PO4 2331   4.135   3.210   7.195  0.0826 -0.0155  0.1127
  169POPC   GL1 2332   4.298   3.296   6.724  0.3841 -0.3469 -0.4047
  169POPC   GL2 2333   4.558   3.043   6.600 -0.0784 -0.1208 -0.0784
  169POPC   C1A 2334   4.288   3.279   6.309  0.1933 -0.2042 -0.0029
  169POPC   D2A 2335   4.312   2.923   6.069  0.0987 -0.2535 -0.2047
  169POPC   C3A 2336   4.754   2.966   5.968 -0.1195 -0.0115  0.0056
  169POPC   C4A 2337   5.194   3.055   5.961 -0.2997 -0.1457  0.0293
  169POPC   C1B 2338   5.014   2.920   6.450 -0.1545 -0.3003  0.1298
  169POPC   C2B 2339   5.477   3.060   6.486 -0.2292  0.0786  0.1415
  169POPC   C3B 2340   5.787   3.112   6.108 -0.2519  0.3589 -0.0087
  169POPC   C4B 2341   5.788   3.132   5.704  0.0847  0.1628 -0.1111
  170POPC   NC3 2342   2.285   3.597   7.307 -0.0705  0.1815 -0.1859
  170POPC   PO4 2343   1.877   3.748   7.366 -0.1531 -0.4921  0.0271
  170POPC   GL1 2344   1.792   3.605   6.914  0.0172 -0.1438  0.1235
  170POPC   GL2 2345   1.909   3.269   6.818  0.1026  0.4784  0.2672
  170POPC   C1A 2346   1.627   3.799   6.495 -0.0666  0.0150  0.2440
  170POPC   D2A 2347   1.199   3.973   6.301 -0.2141  0.2122  0.0379
  170POPC   C3A 2348   1.157   4.073   5.898  0.1460  0.2215  0.0545
  170POPC   C4A 2349   1.514   4.269   5.666  0.1452  0.2252 -0.2637
  170POPC   C1B 2350   2.001   3.231   6.313  0.0766  0.1066  0.1291
  170POPC   C2B 2351   2.245   3.413   6.043 -0.1381 -0.0341 -0.0625
  170POPC   C3B 2352   2.412   3.855   5.741  0.0577  0.2139  0.0942
  170POPC   C4B 2353   2.561   4.114   5.409 -0.0104  0.0019  0.2631
  171POPC   NC3 2354   0.127   4.266   7.705 -0.0827 -0.0966 -0.0822
  171POPC   PO4 2355  -0.178   4.604   7.730  0.0320  0.0852 -0.0544
  171POPC   GL1 2356  -0.003   4.658   7.335 -0.1635  0.0311 -0.0227
  171POPC   GL2 2357  -0.083   4.288   7.255 -0.0264 -0.2338  0.1334
  171POPC   C1A 2358  -0.046   4.768   6.944 -0.1237 -0.0116 -0.0262
  171POPC   D2A 2359  -0.177   5.118   6.622 -0.3624  0.4303 -0.1807
  171POPC   C3A 2360  -0.595   5.285   6.526 -0.0741 -0.0210 -0.0332
  171POPC   C4A 2361  -1.011   5.547   6.690 -0.3404 -0.1654  0.3914
  171POPC   C1B 2362  -0.168   4.330   6.745 -0.1679 -0.0352  0.0202
  171POPC   C2B 2363  -0.385   4.609   6.507  0.2213 -0.1755 -0.1037
  171POPC   C3B 2364  -0.358   4.868   6.183 -0.0923 -0.1194 -0.1665
  171POPC   C4B 2365  -0.684   5.062   6.015  0.0050  0.1684 -0.0958
  172POPC   NC3 2366   9.525   6.128   7.311  0.1334 -0.1097  0.1959
  172POPC   PO4 2367   9.347   5.809   7.521  0.1385  0.1406  0.1269
  172POPC   GL1 2368   9.199   5.759   7.130  0.0543  0.1636  0.1393
  172POPC   GL2 2369   9.454   5.880   6.935 -0.3364  0.0638 -0.1082
  172POPC   C1A 2370   8.882   5.635   6.784 -0.2327  0.0294 -0.1862
  172POPC   D2A 2371   8.848   5.565   6.353  0.4431  0.0843 -0.3340
  172POPC   C3A 2372   9.300   5.522   6.085  0.0605 -0.1772 -0.2337
  172POPC   C4A 2373   9.822   5.571   6.160  0.1086 -0.1407  0.1793
  172POPC   C1B 2374   9.389   5.825   6.569  0.3074  0.1106  0.2851
  172POPC   C2B 2375   9.584   6.029   6.260 -0.2994 -0.1817  0.1037
  172POPC   C3B 2376   9.995   6.070   6.046  0.2552 -0.2139  0.0763
  172POPC   C4B 2377  10.112   5.675   5.722 -0.2095  0.2784 -0.2521
  173POPC   NC3 2378   9.232   5.326   7.778  0.3072  0.1293  0.2672
  173POPC   PO4 2379   9.584   5.577   7.860  0.0124  0.1691 -0.0886
  173POPC   GL1 2380   9.623   5.157   7.506  0.1523 -0.1855 -0.1381
  173POPC   GL2 2381   9.871   5.017   7.291 -0.1754  0.0536  0.0500
  173POPC   C1A 2382   9.377   4.785   7.260  0.0556  0.2053 -0.0224
  173POPC   D2A 2383   9.035   4.542   7.168  0.2390  0.1952  0.1896
  173POPC   C3A 2384   9.069   4.284   6.853  0.0842  0.1067  0.1224
  173POPC   C4A 2385   9.005   4.205   6.445 -0.0886  0.4294 -0.1453
  173POPC   C1B 2386   9.584   5.224   7.003  0.2472 -0.1414 -0.2209
  173POPC   C2B 2387   9.276   5.285   6.754 -0.2423  0.0121  0.1106
  173POPC   C3B 2388   9.091   5.101   6.358  0.1385  0.0098  0.1436
  173POPC   C4B 2389   9.070   4.923   5.950  0.0389 -0.0328 -0.0032
  174POPC   NC3 2390   8.859   9.366   3.903 -0.0824  0.1413  0.0349
  174POPC   PO4 2391   8.415   9.036   4.089  0.1488  0.0391  0.3402
  174POPC   GL1 2392   8.508   8.859   4.466  0.2438 -0.0256  0.0212
  174POPC   GL2 2393   8.796   8.868   4.536  0.2376  0.0325 -0.0612
  174POPC   C1A 2394   8.398   8.675   4.831 -0.1321 -0.2316 -0.0655
  174POPC   D2A 2395   8.256   8.595   5.211 -0.0318 -0.1676  0.1256
  174POPC   C3A 2396   7.961   8.958   5.346 -0.0472 -0.0313 -0.1866
  174POPC   C4A 2397   7.783   8.995   5.750  0.0502  0.0986  0.2618
  174POPC   C1B 2398   9.181   8.953   4.694  0.1066  0.1534  0.0986
  174POPC   C2B 2399   9.386   9.231   5.041  0.0814 -0.2254  0.1757
  174POPC   C3B 2400   9.432   9.471   5.470  0.0166  0.3702  0.0588
  174POPC   C4B 2401   9.300   9.376   5.892  0.0853 -0.3395  0.1999
  175POPC   NC3 2402  10.678   8.022   4.013 -0.0565 -0.1066  0.0612
  175POPC   PO4 2403  10.427   8.321   3.993  0.1175 -0.1479  0.0073
  175POPC   GL1 2404  10.449   8.344   4.397 -0.0481  0.3641 -0.0441
  175POPC   GL2 2405  10.536   8.071   4.493 -0.0015 -0.0656 -0.1172
  175POPC   C1A 2406  10.547   8.460   4.908  0.3254  0.1997  0.2869
  175POPC   D2A 2407  10.516   8.508   5.326  0.2751 -0.2673 -0.0976
  175POPC   C3A 2408  10.662   8.876   5.330 -0.1395 -0.0096  0.2809
  175POPC   C4A 2409  10.914   9.234   5.448 -0.2562 -0.0211 -0.4441
  175POPC   C1B 2410  10.283   7.947   4.821 -0.0283  0.2379 -0.0683
  175POPC   C2B 2411  10.140   7.863   5.132 -0.0031  0.0970  0.0432
  175POPC   C3B 2412  10.200   7.365   5.391 -0.4907 -0.1234 -0.2527
  175POPC   C4B 2413  10.185   7.146   5.771  0.1362  0.0023 -0.0301
  176POPC   NC3 2414   7.369   8.124   3.721  0.2344 -0.3780  0.3113
  176POPC   PO4 2415   7.058   7.765   3.684 -0.4701 -0.3387  0.0248
  176POPC   GL1 2416   7.118   7.874   4.075  0.0983  0.0464 -0.0071
  176POPC   GL2 2417   7.387   7.890   4.134 -0.1610  0.2428 -0.3749
  176POPC   C1A 2418   6.979   7.782   4.453  0.0226  0.0851  0.0997
  176POPC   D2A 2419   6.839   7.531   4.721 -0.0741  0.1968  0.0520
  176POPC   C3A 2420   6.962   7.185   4.610  0.2194 -0.0873  0.0422
  176POPC   C4A 2421   7.025   6.687   4.541 -0.3288 -0.1810  0.2213
  176POPC   C1B 2422   7.419   7.932   4.545  0.2293  0.0224 -0.2187
  176POPC   C2B 2423   7.291   8.079   4.977 -0.0259  0.0511 -0.0961
  176POPC   C3B 2424   7.503   8.132   5.332  0.2232  0.0583 -0.0057
  176POPC   C4B 2425   7.866   8.099   5.522  0.1145 -0.2044  0.2156
  177POPC   NC3 2426   7.326   6.632   3.587  0.1095  0.0346 -0.2691
  177POPC   PO4 2427   7.493   6.232   3.842 -0.3434 -0.0438 -0.0640
  177POPC   GL1 2428   7.569   6.218   4.162  0.1438  0.0455 -0.0920
  177POPC   GL2 2429   7.783   5.983   4.190  0.0504 -0.1971 -0.1706
  177POPC   C1A 2430   7.483   6.185   4.575  0.2646 -0.0028 -0.1388
  177POPC   D2A 2431   7.263   6.349   4.882 -0.1580  0.2914 -0.5240
  177POPC   C3A 2432   7.364   6.708   5.116 -0.1168 -0.2961  0.0659
  177POPC   C4A 2433   7.113   6.966   5.495  0.2577  0.3728 -0.0217
  177POPC   C1B 2434   7.751   5.762   4.551 -0.0500 -0.1083  0.2966
  177POPC   C2B 2435   7.519   5.726   4.890  0.2771  0.2486 -0.0370
  177POPC   C3B 2436   7.318   5.702   5.273 -0.0103  0.0349 -0.0590
  177POPC   C4B 2437   7.093   5.757   5.568  0.0865 -0.4727 -0.3626
  178POPC   NC3 2438   9.343   0.651   3.518 -0.3370  0.0444  0.0925
  178POPC   PO4 2439   9.193   0.495   3.945 -0.2931 -0.4427 -0.0128
  178POPC   GL1 2440   9.030   0.499   4.307 -0.1040  0.1040 -0.0402
  178POPC   GL2 2441   8.781   0.260   4.430  0.3847 -0.1156  0.1512
  178POPC   C1A 2442   9.218   0.550   4.695  0.2041 -0.1501 -0.3027
  178POPC   D2A 2443   9.220   0.299   5.141  0.2425 -0.1873  0.0593
  178POPC   C3A 2444   9.625   0.359   5.563 -0.0260  0.0259 -0.0636
  178POPC   C4A 2445   9.566   0.501   5.946 -0.0348 -0.0185 -0.2457
  178POPC   C1B 2446   8.767   0.328   4.796 -0.0978 -0.0466  0.1508
  178POPC   C2B 2447   8.827   0.590   5.214 -0.0689 -0.2131  0.2178
  178POPC   C3B 2448   8.865   0.313   5.460  0.0444  0.1501  0.1036
  178POPC   C4B 2449   8.777   0.211   5.832 -0.0480 -0.0229 -0.0443
  179POPC   NC3 2450   6.020   7.576   3.491 -0.0294  0.0213  0.1939
  179POPC   PO4 2451   5.807   7.671   3.820  0.0480  0.2810  0.0991
  179POPC   GL1 2452   5.741   7.400   4.213 -0.0612 -0.3226  0.2095
  179POPC   GL2 2453   5.353   7.184   4.313 -0.1851 -0.2050  0.0530
  179POPC   C1A 2454   5.570   7.405   4.721 -0.0535 -0.2148 -0.0369
  179POPC   D2A 2455   5.711   7.257   5.154 -0.2620 -0.0298 -0.1793
  179POPC   C3A 2456   6.120   7.309   5.328  0.2092  0.1386 -0.0199
  179POPC   C4A 2457   6.494   7.007   5.463 -0.0788 -0.0833 -0.0047
  179POPC   C1B 2458   5.512   6.906   4.635 -0.2550  0.3515 -0.0518
  179POPC   C2B 2459   5.610   6.693   5.081 -0.0049 -0.0241  0.0163
  179POPC   C3B 2460   5.634   6.486   5.455 -0.3047  0.1693  0.0200
  179POPC   C4B 2461   5.541   6.075   5.551 -0.1495 -0.0643  0.1444
  180POPC   NC3 2462   4.879   7.239   4.077 -0.2127 -0.2067 -0.1648
  180POPC   PO4 2463   4.946   6.979   3.997 -0.1002  0.3072  0.3036
  180POPC   GL1 2464   4.943   6.798   4.419  0.0118 -0.0361 -0.3329
  180POPC   GL2 2465   4.986   7.036   4.693  0.3534  0.1517  0.1098
  180POPC   C1A 2466   4.569   6.762   4.715 -0.0735  0.0229  0.0351
  180POPC   D2A 2467   4.505   6.498   5.084 -0.1561  0.1283  0.1029
  180POPC   C3A 2468   4.826   6.244   5.324  0.2296  0.0026 -0.0734
  180POPC   C4A 2469   5.155   6.277   5.447 -0.0562  0.0821  0.0289
  180POPC   C1B 2470   5.244   7.033   5.123  0.1286 -0.2567  0.2509
  180POPC   C2B 2471   5.182   6.771   5.443 -0.0892  0.1565  0.0873
  180POPC   C3B 2472   4.737   6.602   5.637  0.3948 -0.0252 -0.3311
  180POPC   C4B 2473   4.457   6.102   5.655  0.1113 -0.0018  0.1277
  181POPC   NC3 2474  10.250   2.530   3.697 -0.3900  0.1836  0.1024
  181POPC   PO4 2475   9.902   2.333   3.379  0.1848  0.0171  0.0350
  181POPC   GL1 2476   9.753   2.182   3.787 -0.2111  0.1414  0.1205
  181POPC   GL2 2477   9.909   2.441   4.112  0.0325  0.0439  0.0607
  181POPC   C1A 2478   9.619   2.027   4.178  0.0255  0.2798  0.0798
  181POPC   D2A 2479   9.661   2.227   4.668  0.2761 -0.0520  0.0361
  181POPC   C3A 2480   9.809   1.962   4.996  0.4733  0.2371  0.1525
  181POPC   C4A 2481  10.051   1.820   5.340 -0.1289 -0.0796 -0.3679
  181POPC   C1B 2482   9.949   2.947   4.304  0.2014  0.1361 -0.2093
  181POPC   C2B 2483   9.946   3.381   4.288  0.2007  0.4980 -0.0821
  181POPC   C3B 2484  10.191   3.845   4.325 -0.1457  0.0251 -0.2721
  181POPC   C4B 2485  10.054   4.189   4.024 -0.0716 -0.2292  0.1088
  182POPC   NC3 2486  10.089   0.563   4.099  0.0247  0.0475  0.2275
  182POPC   PO4 2487  10.480   0.709   3.933 -0.2231 -0.0686 -0.1537
  182POPC   GL1 2488  10.439   0.688   4.434  0.0446 -0.0369  0.1974
  182POPC   GL2 2489  10.719   0.561   4.541 -0.1008 -0.0669  0.3037
  182POPC   C1A 2490  10.308   1.053   4.708 -0.1456  0.2117  0.0502
  182POPC   D2A 2491   9.946   1.334   4.881 -0.1323 -0.1652  0.0057
  182POPC   C3A 2492   9.767   1.182   5.180  0.0479  0.1166  0.0247
  182POPC   C4A 2493   9.726   1.408   5.599  0.1083  0.1376 -0.0627
  182POPC   C1B 2494  10.681   0.667   4.982 -0.1889 -0.1649 -0.2016
  182POPC   C2B 2495  10.796   0.735   5.360 -0.0822  0.0423  0.0779
  182POPC   C3B 2496  11.210   0.961   5.634  0.3313 -0.3137 -0.0417
  182POPC   C4B 2497  11.421   1.351   5.828  0.2163 -0.0848  0.2645
  183POPC   NC3 2498   8.321   0.520   4.296 -0.0882  0.2190 -0.0260
  183POPC   PO4 2499   8.093   0.741   4.520 -0.0604 -0.0294 -0.1717
  183POPC   GL1 2500   8.371   0.630   4.821 -0.2980 -0.4221  0.0243
  183POPC   GL2 2501   8.618   0.818   4.626 -0.1118  0.1598 -0.0893
  183POPC   C1A 2502   8.324   0.410   5.192 -0.1027 -0.0319 -0.2690
  183POPC   D2A 2503   8.357   0.128   5.545 -0.2374  0.1486 -0.4863
  183POPC   C3A 2504   8.250  -0.021   5.883  0.0556 -0.1358 -0.0656
  183POPC   C4A 2505   8.158  -0.220   6.187  0.1006  0.0462 -0.0289
  183POPC   C1B 2506   8.948   0.955   4.863  0.2265 -0.0481 -0.0797
  183POPC   C2B 2507   9.178   1.327   4.695  0.0641 -0.2598  0.3960
  183POPC   C3B 2508   9.430   1.457   4.837  0.0057  0.3490  0.2214
  183POPC   C4B 2509   9.512   1.574   5.196  0.1723  0.0945  0.1992
  184POPC   NC3 2510  10.704   5.518   3.896  0.0201 -0.0403 -0.2542
  184POPC   PO4 2511  11.096   5.424   3.643 -0.0287 -0.0463 -0.0159
  184POPC   GL1 2512  11.232   5.425   4.003  0.1394  0.3848  0.1499
  184POPC   GL2 2513  11.102   5.587   4.192  0.0059  0.1194  0.1051
  184POPC   C1A 2514  11.439   5.090   4.328 -0.0224  0.0349  0.1910
  184POPC   D2A 2515  11.471   5.118   4.744  0.1360 -0.0477 -0.0498
  184POPC   C3A 2516  11.222   4.865   5.051 -0.2044  0.2406 -0.1924
  184POPC   C4A 2517  10.976   4.558   5.305  0.0957 -0.0237  0.3299
  184POPC   C1B 2518  11.041   5.328   4.550 -0.0059  0.0334  0.2782
  184POPC   C2B 2519  11.077   5.325   4.993  0.1788 -0.1204 -0.0412
  184POPC   C3B 2520  11.063   5.472   5.348 -0.1403  0.1575  0.1752
  184POPC   C4B 2521  10.856   5.861   5.592  0.1144 -0.0518 -0.0123
  185POPC   NC3 2522   1.084   1.845   3.408 -0.0015 -0.3334 -0.4358
  185POPC   PO4 2523   0.668   2.042   3.333  0.0843  0.0376 -0.0974
  185POPC   GL1 2524   0.775   1.921   3.763  0.0964 -0.1850 -0.2016
  185POPC   GL2 2525   0.580   1.774   3.960 -0.0737 -0.1564  0.0443
  185POPC   C1A 2526   0.939   2.149   4.167  0.0333  0.0215  0.1986
  185POPC   D2A 2527   0.787   2.149   4.591 -0.0173  0.2474  0.2542
  185POPC   C3A 2528   0.723   2.594   4.737  0.1722 -0.4336  0.0563
  185POPC   C4A 2529   0.363   2.724   5.070  0.2870  0.1816 -0.0196
  185POPC   C1B 2530   0.689   1.703   4.417  0.1268 -0.1037  0.0319
  185POPC   C2B 2531   0.408   1.446   4.727  0.0313 -0.2606  0.0431
  185POPC   C3B 2532   0.137   1.620   5.011 -0.4272 -0.1744  0.1091
  185POPC   C4B 2533  -0.113   1.939   5.056  0.1117 -0.2732 -0.1318
  186POPC   NC3 2534   7.558   9.316   4.004 -0.0368  0.2850  0.2236
  186POPC   PO4 2535   7.348   9.619   3.731 -0.2932 -0.0352  0.3729
  186POPC   GL1 2536   7.216   9.780   4.080  0.0294 -0.0195 -0.2916
  186POPC   GL2 2537   6.884   9.703   4.184  0.0141  0.1318  0.1946
  186POPC   C1A 2538   7.092   9.786   4.637 -0.2809  0.2804  0.0146
  186POPC   D2A 2539   7.014   9.912   5.077 -0.2541  0.1936  0.0552
  186POPC   C3A 2540   7.194   9.792   5.397  0.2409  0.3459 -0.0672
  186POPC   C4A 2541   7.293   9.909   5.754 -0.1799 -0.1588  0.1188
  186POPC   C1B 2542   6.917   9.318   4.448  0.3712  0.4645 -0.1764
  186POPC   C2B 2543   7.299   9.177   4.737  0.0216  0.1469  0.0720
  186POPC   C3B 2544   7.677   8.995   4.881 -0.2100  0.1455 -0.2849
  186POPC   C4B 2545   8.084   9.076   4.903 -0.0405 -0.1341 -0.0270
  187POPC   NC3 2546   1.217   9.826   4.113  0.3968  0.1286  0.3791
  187POPC   PO4 2547   0.918   9.508   4.021 -0.2059  0.3079 -0.0407
  187POPC   GL1 2548   1.092   9.436   4.424 -0.2899  0.0804  0.0039
  187POPC   GL2 2549   1.118   9.754   4.595 -0.1279 -0.0184 -0.1652
  187POPC   C1A 2550   1.028   9.177   4.893 -0.1869 -0.0844  0.3399
  187POPC   D2A 2551   1.336   8.977   5.203  0.2335  0.0776  0.2992
  187POPC   C3A 2552   1.727   9.057   5.270 -0.0558  0.1575 -0.1658
  187POPC   C4A 2553   1.807   8.992   4.923  0.2391 -0.1716  0.2978
  187POPC   C1B 2554   1.010   9.654   4.985 -0.2311  0.3411  0.0285
  187POPC   C2B 2555   1.192   9.437   5.402 -0.2002  0.0521  0.1053
  187POPC   C3B 2556   1.539   9.379   5.681 -0.0431  0.0247 -0.0772
  187POPC   C4B 2557   1.896   9.416   5.782 -0.0364 -0.0595 -0.0503
  188POPC   NC3 2558  10.325   4.974   3.420  0.2006  0.0145 -0.2585
  188POPC   PO4 2559  10.340   5.306   3.646  0.0453  0.1989  0.0087
  188POPC   GL1 2560  10.367   5.208   4.155  0.1348  0.1431 -0.1352
  188POPC   GL2 2561  10.581   5.441   4.342  0.0254 -0.2678 -0.2668
  188POPC   C1A 2562  10.064   5.201   4.467 -0.0171 -0.1556  0.1451
  188POPC   D2A 2563   9.705   5.081   4.730 -0.3089 -0.0910 -0.0102
  188POPC   C3A 2564   9.732   4.632   4.953 -0.0128  0.0540 -0.1531
  188POPC   C4A 2565  10.026   4.257   5.113  0.0445 -0.3884 -0.0597
  188POPC   C1B 2566  10.778   5.692   4.747  0.0451 -0.1070  0.1195
  188POPC   C2B 2567  11.047   5.866   5.054  0.2811  0.4644  0.2273
  188POPC   C3B 2568  11.239   6.082   5.350  0.3033 -0.0002  0.0415
  188POPC   C4B 2569  11.560   6.281   5.327 -0.1313 -0.2918  0.3133
  189POPC   NC3 2570   0.795   8.590   4.044  0.0955  0.2700  0.2319
  189POPC   PO4 2571   1.154   8.714   3.997 -0.3109  0.0798  0.0719
  189POPC   GL1 2572   1.112   8.656   4.401  0.0286 -0.0190 -0.0443
  189POPC   GL2 2573   1.049   8.403   4.382 -0.4102  0.0964 -0.2312
  189POPC   C1A 2574   1.142   8.668   4.803 -0.0904 -0.0306 -0.1281
  189POPC   D2A 2575   1.292   8.490   5.217  0.0569  0.2171 -0.0180
  189POPC   C3A 2576   1.486   8.662   5.603 -0.2405  0.0916 -0.0362
  189POPC   C4A 2577   1.695   8.938   5.901 -0.1055  0.2563 -0.0852
  189POPC   C1B 2578   1.018   8.201   4.756  0.0747  0.0925  0.1281
  189POPC   C2B 2579   0.814   8.176   5.110  0.1874 -0.1342 -0.0223
  189POPC   C3B 2580   0.977   8.156   5.537  0.1367 -0.1069  0.1950
  189POPC   C4B 2581   1.274   8.240   5.984 -0.0687 -0.1727  0.0565
  190POPC   NC3 2582   8.462   6.567   3.742  0.2115 -0.1659 -0.1886
  190POPC   PO4 2583   8.801   6.745   3.914 -0.0151  0.0240  0.1939
  190POPC   GL1 2584   8.453   6.674   4.294  0.0807 -0.1125 -0.0783
  190POPC   GL2 2585   8.794   6.623   4.453  0.0819 -0.1490  0.0237
  190POPC   C1A 2586   8.192   6.708   4.574 -0.1554  0.1322 -0.2779
  190POPC   D2A 2587   8.301   6.537   5.130 -0.0526 -0.0864  0.2390
  190POPC   C3A 2588   8.637   6.342   5.250  0.0843  0.1018 -0.0337
  190POPC   C4A 2589   9.006   6.376   5.395 -0.1210 -0.1779  0.0595
  190POPC   C1B 2590   9.155   6.770   4.650 -0.4025  0.3162 -0.2020
  190POPC   C2B 2591   9.384   6.536   4.999  0.0779  0.0647  0.0971
  190POPC   C3B 2592   9.476   6.578   5.454 -0.0783  0.0605  0.0620
  190POPC   C4B 2593   9.634   6.484   5.878 -0.2282  0.0469  0.1439
  191POPC   NC3 2594   8.072   4.728   3.725  0.1933  0.2233  0.0399
  191POPC   PO4 2595   8.089   5.213   3.682 -0.1053  0.1571  0.2165
  191POPC   GL1 2596   8.160   5.143   4.027  0.2134 -0.2933  0.0090
  191POPC   GL2 2597   8.458   5.227   4.129 -0.2887 -0.3324 -0.0336
  191POPC   C1A 2598   7.986   5.014   4.519 -0.0993 -0.1210 -0.1237
  191POPC   D2A 2599   8.095   4.921   4.999 -0.1294  0.2166 -0.2993
  191POPC   C3A 2600   8.466   5.001   5.280  0.0547  0.2255 -0.0277
  191POPC   C4A 2601   8.858   4.874   5.439 -0.1941  0.0929  0.1492
  191POPC   C1B 2602   8.428   5.023   4.555 -0.2900 -0.2727  0.1686
  191POPC   C2B 2603   8.721   4.840   4.761 -0.0381  0.2186  0.1506
  191POPC   C3B 2604   8.559   4.574   5.064 -0.2144  0.1166 -0.5074
  191POPC   C4B 2605   8.525   4.166   5.060 -0.1577  0.0822 -0.0266
  192POPC   NC3 2606   0.739   2.707   3.588 -0.2508 -0.2449  0.2682
  192POPC   PO4 2607   0.498   2.503   3.541  0.0260 -0.0119  0.1273
  192POPC   GL1 2608   0.355   2.332   3.973  0.2727 -0.0415 -0.1025
  192POPC   GL2 2609   0.268   2.060   4.195  0.1693 -0.2020 -0.2991
  192POPC   C1A 2610   0.293   2.494   4.416 -0.1542 -0.0929 -0.0911
  192POPC   D2A 2611  -0.119   2.453   4.675  0.2784 -0.1272 -0.0992
  192POPC   C3A 2612  -0.118   2.573   5.050 -0.0051 -0.0241  0.0822
  192POPC   C4A 2613  -0.102   2.938   5.355  0.1852  0.1870 -0.1348
  192POPC   C1B 2614   0.249   2.105   4.667  0.3467  0.1216 -0.0321
  192POPC   C2B 2615   0.296   2.199   5.039 -0.2726 -0.0415  0.0757
  192POPC   C3B 2616   0.551   2.260   5.409  0.1329  0.0534  0.0325
  192POPC   C4B 2617   0.940   1.997   5.517 -0.0937 -0.0280 -0.1420
  193POPC   NC3 2618   0.714   5.699   3.507 -0.4708  0.0442  0.0108
  193POPC   PO4 2619   1.130   5.431   3.522  0.1539  0.1142  0.2227
  193POPC   GL1 2620   0.991   5.524   3.921 -0.2694 -0.3271 -0.0011
  193POPC   GL2 2621   1.188   5.215   4.056  0.1468 -0.0700  0.0586
  193POPC   C1A 2622   0.861   5.598   4.330  0.0439 -0.0653 -0.4671
  193POPC   D2A 2623   0.653   5.621   4.736  0.3661  0.0570 -0.2004
  193POPC   C3A 2624   0.763   5.734   5.229 -0.2561  0.5919  0.1357
  193POPC   C4A 2625   0.731   5.658   5.674  0.0723 -0.0233  0.4084
  193POPC   C1B 2626   1.181   5.251   4.548  0.2228  0.3365  0.2056
  193POPC   C2B 2627   1.109   5.368   4.947  0.0227 -0.0884  0.0042
  193POPC   C3B 2628   1.231   5.519   5.429 -0.0424  0.2763 -0.0975
  193POPC   C4B 2629   1.317   5.514   5.857 -0.0437 -0.0040  0.0037
  194POPC   NC3 2630   3.647   6.636   3.646 -0.1915  0.1323  0.0300
  194POPC   PO4 2631   3.699   7.004   3.703 -0.2666 -0.2372 -0.2768
  194POPC   GL1 2632   3.701   6.851   4.087  0.0645  0.0057  0.3019
  194POPC   GL2 2633   3.327   6.883   4.056  0.1125 -0.1074 -0.0608
  194POPC   C1A 2634   3.752   6.999   4.458 -0.0835 -0.1439  0.0259
  194POPC   D2A 2635   4.073   7.186   4.796  0.3244  0.1622 -0.0013
  194POPC   C3A 2636   4.162   6.858   5.131  0.2157  0.0155  0.3733
  194POPC   C4A 2637   4.304   6.797   5.522 -0.0632 -0.1768  0.0637
  194POPC   C1B 2638   2.956   6.891   4.423  0.1640  0.2783 -0.1971
  194POPC   C2B 2639   2.878   7.254   4.776 -0.0973 -0.1979  0.0249
  194POPC   C3B 2640   2.993   7.648   5.007  0.0386  0.0281  0.0442
  194POPC   C4B 2641   2.871   7.679   5.417  0.0559  0.0704 -0.0207
  195POPC   NC3 2642   8.051  10.727   3.873 -0.0591  0.1459  0.1493
  195POPC   PO4 2643   8.306  10.781   4.118  0.1079  0.1190  0.0259
  195POPC   GL1 2644   8.341  10.843   4.562 -0.2490  0.2494 -0.1585
  195POPC   GL2 2645   8.149  10.962   4.691 -0.0450  0.0008  0.1184
  195POPC   C1A 2646   8.481  10.769   5.001 -0.2898  0.0835 -0.3143
  195POPC   D2A 2647   8.367  10.491   5.306 -0.0323  0.1181  0.0892
  195POPC   C3A 2648   8.655  10.433   5.651 -0.0361  0.4385  0.0066
  195POPC   C4A 2649   8.742  10.174   6.041 -0.1371  0.1167 -0.0282
  195POPC   C1B 2650   8.020  10.830   5.121 -0.0216  0.0272 -0.3025
  195POPC   C2B 2651   7.946  10.639   5.518  0.0840  0.4809 -0.1290
  195POPC   C3B 2652   7.778  10.397   5.984  0.1958 -0.4120  0.1680
  195POPC   C4B 2653   7.493  10.211   6.282 -0.1511 -0.1412  0.1550
  196POPC   NC3 2654   6.822   7.338   3.674  0.0033  0.0452  0.1438
  196POPC   PO4 2655   6.911   6.813   3.795  0.0856 -0.0121 -0.0261
  196POPC   GL1 2656   6.612   6.742   4.123  0.2098 -0.1376 -0.1177
  196POPC   GL2 2657   6.567   7.076   4.166  0.2491  0.0116  0.1788
  196POPC   C1A 2658   6.403   6.526   4.400  0.3280 -0.2961 -0.2987
  196POPC   D2A 2659   6.365   6.600   4.821  0.1521  0.0436 -0.0572
  196POPC   C3A 2660   6.715   6.916   4.955  0.3573  0.0452  0.0177
  196POPC   C4A 2661   6.942   7.234   5.115  0.0754 -0.2884  0.2589
  196POPC   C1B 2662   6.434   7.011   4.583  0.3378 -0.0330 -0.2346
  196POPC   C2B 2663   6.407   7.293   4.946 -0.2401  0.4603 -0.2136
  196POPC   C3B 2664   6.566   7.474   5.301  0.2030  0.1932  0.2158
  196POPC   C4B 2665   6.484   7.749   5.601  0.0310 -0.1315 -0.0256
  197POPC   NC3 2666   4.912   3.488   3.464 -0.1122 -0.3872  0.0810
  197POPC   PO4 2667   4.569   3.894   3.350 -0.2518  0.2438 -0.0123
  197POPC   GL1 2668   4.456   3.729   3.765  0.3947  0.2538  0.1104
  197POPC   GL2 2669   4.266   3.489   3.882 -0.1269  0.2780 -0.1873
  197POPC   C1A 2670   4.109   3.919   4.009 -0.0204  0.1736  0.1003
  197POPC   D2A 2671   3.829   4.037   4.296 -0.1442 -0.1247 -0.2138
  197POPC   C3A 2672   3.772   3.804   4.781 -0.1150 -0.1698  0.0512
  197POPC   C4A 2673   3.619   3.468   5.002 -0.0403  0.0309  0.0972
  197POPC   C1B 2674   4.269   3.550   4.380 -0.0183 -0.1377  0.0157
  197POPC   C2B 2675   4.290   3.699   4.755  0.2699  0.1260  0.0959
  197POPC   C3B 2676   4.095   3.902   5.100  0.0533 -0.0882 -0.1676
  197POPC   C4B 2677   3.788   4.187   5.275  0.0869 -0.3511  0.1529
  198POPC   NC3 2678   3.420   2.509   3.556  0.1046  0.0084 -0.1148
  198POPC   PO4 2679   3.682   2.237   3.710  0.2545 -0.2236 -0.3921
  198POPC   GL1 2680   3.642   2.532   3.982 -0.0922  0.0885 -0.1175
  198POPC   GL2 2681   4.008   2.591   4.051  0.1838 -0.0224  0.3135
  198POPC   C1A 2682   3.510   2.625   4.414 -0.4878 -0.0991 -0.3211
  198POPC   D2A 2683   3.359   2.508   4.830  0.1957  0.0388  0.2845
  198POPC   C3A 2684   3.529   2.468   5.129  0.1448  0.0786 -0.1533
  198POPC   C4A 2685   3.560   2.659   5.526  0.0193 -0.2449 -0.3543
  198POPC   C1B 2686   3.950   2.870   4.375  0.0773  0.1542  0.0917
  198POPC   C2B 2687   3.749   2.862   4.775  0.1220  0.1290  0.0745
  198POPC   C3B 2688   3.760   2.962   5.228 -0.4920  0.3108  0.2508
  198POPC   C4B 2689   3.970   3.043   5.656 -0.0929  0.1219  0.0359
  199POPC   NC3 2690   2.662   3.707   2.812 -0.1529  0.1092  0.0594
  199POPC   PO4 2691   2.473   3.646   3.286  0.1877  0.0360 -0.1292
  199POPC   GL1 2692   2.353   3.792   3.744 -0.1500  0.0799 -0.2808
  199POPC   GL2 2693   2.410   4.090   3.779  0.1166  0.0706 -0.0131
  199POPC   C1A 2694   2.359   3.839   4.247  0.0293 -0.2170 -0.1468
  199POPC   D2A 2695   2.262   3.836   4.616 -0.1116  0.0096  0.1701
  199POPC   C3A 2696   1.946   4.070   4.802 -0.0620  0.1134 -0.3178
  199POPC   C4A 2697   1.610   3.973   5.013  0.0720  0.1453 -0.1032
  199POPC   C1B 2698   2.501   4.370   4.062  0.1814  0.2089  0.0872
  199POPC   C2B 2699   2.451   4.322   4.496 -0.0984  0.0829  0.1110
  199POPC   C3B 2700   2.392   4.225   4.919 -0.2416  0.1413  0.2140
  199POPC   C4B 2701   2.093   4.339   5.246 -0.0202  0.1408 -0.2957
  200POPC   NC3 2702   2.597   3.002   3.577 -0.0616  0.2673 -0.1610
  200POPC   PO4 2703   2.246   2.826   3.818  0.0612  0.1521 -0.2402
  200POPC   GL1 2704   2.036   2.913   4.201  0.2907  0.1114 -0.1066
  200POPC   GL2 2705   1.717   3.015   4.086 -0.0683  0.1420  0.0226
  200POPC   C1A 2706   2.093   3.100   4.589  0.0588 -0.0005  0.0188
  200POPC   D2A 2707   1.911   3.105   4.929 -0.3082  0.1077  0.1314
  200POPC   C3A 2708   2.127   3.074   5.335  0.2215 -0.1158 -0.0312
  200POPC   C4A 2709   2.411   3.366   5.494  0.0916 -0.1302 -0.0301
  200POPC   C1B 2710   1.591   3.216   4.504  0.1224  0.0350  0.1133
  200POPC   C2B 2711   1.388   3.151   4.868  0.1002 -0.0734 -0.2192
  200POPC   C3B 2712   1.285   3.155   5.319  0.2190 -0.0542  0.2190
  200POPC   C4B 2713   1.351   3.240   5.739  0.0006  0.2234 -0.1487
  201POPC   NC3 2714   7.080   3.675   2.736  0.0861  0.1352  0.1189
  201POPC   PO4 2715   7.215   3.641   3.203 -0.0005  0.1302  0.1907
  201POPC   GL1 2716   7.186   3.544   3.612 -0.2247 -0.0617 -0.1828
  201POPC   GL2 2717   7.493   3.430   3.616  0.1105  0.0281 -0.0139
  201POPC   C1A 2718   7.249   3.541   4.087 -0.1700 -0.0315 -0.0280
  201POPC   D2A 2719   7.016   3.656   4.382  0.2314 -0.0768  0.1510
  201POPC   C3A 2720   6.659   3.863   4.341 -0.0346 -0.0412 -0.0845
  201POPC   C4A 2721   6.360   3.740   4.639  0.1579 -0.1876  0.0790
  201POPC   C1B 2722   7.689   3.391   3.952  0.0910  0.2191 -0.0901
  201POPC   C2B 2723   7.827   3.223   4.300  0.1630  0.1938  0.1359
  201POPC   C3B 2724   7.951   3.322   4.711  0.1698  0.3665  0.2736
  201POPC   C4B 2725   7.593   3.573   4.987  0.0585  0.0614  0.2855
  202POPC   NC3 2726   4.777   8.781   3.598 -0.1821  0.1756  0.2117
  202POPC   PO4 2727   4.200   8.749   3.594 -0.0671  0.0509 -0.0191
  202POPC   GL1 2728   4.419   8.880   3.989 -0.1565  0.0602  0.1960
  202POPC   GL2 2729   4.175   8.865   4.185 -0.2740 -0.1171 -0.0060
  202POPC   C1A 2730   4.440   9.104   4.508 -0.1239 -0.1166  0.0415
  202POPC   D2A 2731   4.476   9.424   4.702  0.1366 -0.1905 -0.3469
  202POPC   C3A 2732   4.838   9.619   4.775  0.1235 -0.0420 -0.1131
  202POPC   C4A 2733   5.025   9.798   5.226  0.1304 -0.1497 -0.0980
  202POPC   C1B 2734   4.117   8.679   4.593  0.1612  0.3134 -0.0556
  202POPC   C2B 2735   3.938   8.579   4.990  0.1468 -0.2313 -0.2834
  202POPC   C3B 2736   3.533   8.368   5.189  0.0847  0.3353  0.2409
  202POPC   C4B 2737   3.385   7.982   5.434  0.3011  0.1006 -0.1145
  203POPC   NC3 2738   9.641   7.275   3.608 -0.0016  0.1206 -0.0792
  203POPC   PO4 2739   9.952   7.658   3.717  0.0918 -0.4790  0.0345
  203POPC   GL1 2740  10.259   7.745   4.088  0.1336  0.1389  0.0140
  203POPC   GL2 2741  10.160   7.982   4.205  0.3108 -0.2746  0.1478
  203POPC   C1A 2742  10.453   7.593   4.455  0.0513 -0.2118 -0.2825
  203POPC   D2A 2743  10.258   7.423   4.867  0.4371  0.0448  0.2333
  203POPC   C3A 2744   9.887   7.482   5.078  0.1971  0.2316  0.2001
  203POPC   C4A 2745   9.668   7.938   5.291 -0.0864  0.0639 -0.0611
  203POPC   C1B 2746  10.025   8.335   4.626  0.0966 -0.0962  0.2989
  203POPC   C2B 2747  10.069   8.348   5.097  0.0803 -0.0393  0.1973
  203POPC   C3B 2748  10.071   8.370   5.505  0.1120  0.2782 -0.2780
  203POPC   C4B 2749  10.254   8.298   5.823  0.1673  0.0953 -0.1005
  204POPC   NC3 2750   1.384   7.568   3.885 -0.2351 -0.3041 -0.2285
  204POPC   PO4 2751   1.819   7.340   3.874  0.0275 -0.0251  0.2778
  204POPC   GL1 2752   2.073   7.223   4.331 -0.1520  0.0512 -0.3034
  204POPC   GL2 2753   2.471   7.114   4.387  0.0044 -0.1190  0.0545
  204POPC   C1A 2754   2.068   6.940   4.697  0.1983 -0.1527  0.0155
  204POPC   D2A 2755   1.858   7.129   5.078  0.1833 -0.0409 -0.0736
  204POPC   C3A 2756   1.950   7.041   5.544  0.0481  0.0499 -0.1273
  204POPC   C4A 2757   2.065   7.142   5.894  0.0386 -0.2746  0.1544
  204POPC   C1B 2758   2.513   7.534   4.620 -0.0776 -0.3212 -0.2271
  204POPC   C2B 2759   2.547   7.812   4.962 -0.0522 -0.2188  0.0148
  204POPC   C3B 2760   2.448   8.104   5.320 -0.1099  0.0144 -0.1294
  204POPC   C4B 2761   2.553   8.526   5.494 -0.0335  0.2066 -0.2415
  205POPC   NC3 2762   8.583   9.088   3.632  0.0104  0.2986 -0.5082
  205POPC   PO4 2763   8.336   9.534   3.837  0.0806 -0.1194 -0.3154
  205POPC   GL1 2764   8.563   9.672   4.210  0.0020  0.2317  0.1351
  205POPC   GL2 2765   8.676  10.021   4.281  0.1811  0.2360  0.2572
  205POPC   C1A 2766   8.415   9.810   4.623  0.4486 -0.1095  0.2240
  205POPC   D2A 2767   8.206   9.835   4.970  0.1287 -0.2185 -0.0390
  205POPC   C3A 2768   8.298   9.982   5.397  0.0836  0.0151 -0.0791
  205POPC   C4A 2769   8.119  10.098   5.710 -0.4185 -0.3716 -0.3148
  205POPC   C1B 2770   8.892   9.835   4.600 -0.1560  0.0117 -0.2282
  205POPC   C2B 2771   8.992   9.503   4.858 -0.2292 -0.0385 -0.1144
  205POPC   C3B 2772   8.890   9.197   5.139  0.3083  0.1374  0.1669
  205POPC   C4B 2773   8.552   8.994   5.274  0.0141  0.0250  0.3561
  206POPC   NC3 2774   2.854   6.023   3.275 -0.0990 -0.2015  0.2917
  206POPC   PO4 2775   3.080   5.936   3.620  0.1449 -0.2195  0.0109
  206POPC   GL1 2776   3.055   5.967   4.045 -0.0565  0.0559  0.2443
  206POPC   GL2 2777   3.413   5.948   4.104 -0.1114  0.1942  0.1830
  206POPC   C1A 2778   2.868   5.902   4.367  0.1160  0.2525  0.1057
  206POPC   D2A 2779   2.697   5.574   4.708  0.0747 -0.0026  0.2542
  206POPC   C3A 2780   3.067   5.368   5.015  0.0868 -0.0448 -0.3893
  206POPC   C4A 2781   3.512   5.150   5.060  0.3268 -0.1352 -0.0987
  206POPC   C1B 2782   3.363   5.856   4.465 -0.0673  0.1969 -0.2498
  206POPC   C2B 2783   3.612   5.622   4.763  0.1151 -0.3095  0.0690
  206POPC   C3B 2784   3.540   5.586   5.226  0.0072  0.0567  0.2230
  206POPC   C4B 2785   3.444   5.224   5.576 -0.2433 -0.2562 -0.4566
  207POPC   NC3 2786   1.758   4.318   3.013  0.0028 -0.1835  0.1704
  207POPC   PO4 2787   2.185   4.515   3.112 -0.1056 -0.1283 -0.0067
  207POPC   GL1 2788   2.098   4.563   3.568 -0.1015 -0.0072  0.2051
  207POPC   GL2 2789   2.281   4.825   3.774  0.2485 -0.4405 -0.4446
  207POPC   C1A 2790   1.951   4.301   3.883 -0.0814  0.2874  0.1580
  207POPC   D2A 2791   1.959   4.147   4.324  0.2900 -0.0401 -0.0564
  207POPC   C3A 2792   1.626   3.889   4.477 -0.0279  0.0909 -0.2127
  207POPC   C4A 2793   1.315   3.687   4.766 -0.1213 -0.0089 -0.2310
  207POPC   C1B 2794   2.125   4.676   4.144  0.0715 -0.0384  0.1593
  207POPC   C2B 2795   2.007   4.615   4.538 -0.0688 -0.3598 -0.3202
  207POPC   C3B 2796   2.019   4.794   5.023  0.1125  0.0915 -0.1877
  207POPC   C4B 2797   2.179   4.721   5.596  0.1665  0.2078  0.1323
  208POPC   NC3 2798   3.040   0.969   3.150 -0.3030 -0.0131  0.0194
  208POPC   PO4 2799   2.868   0.799   3.481  0.2536  0.2273  0.0873
  208POPC   GL1 2800   2.733   0.521   3.870 -0.1398 -0.0641  0.2092
  208POPC   GL2 2801   2.420   0.363   3.999 -0.0638 -0.2306 -0.3724
  208POPC   C1A 2802   2.777   0.651   4.313 -0.0512 -0.2992  0.2410
  208POPC   D2A 2803   3.094   0.687   4.604  0.2072  0.0564  0.0801
  208POPC   C3A 2804   3.063   0.824   5.045 -0.2573 -0.1516  0.1224
  208POPC   C4A 2805   3.018   1.261   5.225 -0.3971  0.0906  0.1346
  208POPC   C1B 2806   2.366   0.218   4.405 -0.2391  0.2113 -0.0010
  208POPC   C2B 2807   2.531   0.015   4.753 -0.0084 -0.0941  0.0815
  208POPC   C3B 2808   2.582  -0.324   4.892  0.2868  0.3927 -0.2251
  208POPC   C4B 2809   2.453  -0.522   5.386  0.0897 -0.0955  0.0054
  209POPC   NC3 2810   8.177   9.965   4.007  0.0461 -0.1047 -0.2703
  209POPC   PO4 2811   7.871   9.648   3.782 -0.1202 -0.0039 -0.0132
  209POPC   GL1 2812   7.701   9.870   4.200  0.1775 -0.1444  0.0400
  209POPC   GL2 2813   7.547   9.584   4.467  0.0406 -0.1321  0.1270
  209POPC   C1A 2814   7.420  10.143   4.420  0.1796  0.1453  0.0547
  209POPC   D2A 2815   7.377  10.306   4.795 -0.2007 -0.1108 -0.0499
  209POPC   C3A 2816   7.354  10.314   5.195  0.0784 -0.1660 -0.2649
  209POPC   C4A 2817   6.964  10.254   5.467  0.2821  0.3123 -0.1448
  209POPC   C1B 2818   7.867   9.539   4.834 -0.1039  0.1412 -0.5453
  209POPC   C2B 2819   7.842   9.672   5.295 -0.1626 -0.0369 -0.1468
  209POPC   C3B 2820   7.534   9.407   5.609 -0.2000 -0.0022  0.0151
  209POPC   C4B 2821   7.355   9.441   5.948 -0.1636  0.0799 -0.0359
  210POPC   NC3 2822  10.547   6.867   4.011  0.3396 -0.1548 -0.0306
  210POPC   PO4 2823  10.957   6.872   4.074  0.2464 -0.5698 -0.1903
  210POPC   GL1 2824  10.889   6.630   4.377  0.2134  0.2003 -0.0916
  210POPC   GL2 2825  11.176   6.661   4.467  0.0905 -0.1831  0.2500
  210POPC   C1A 2826  10.548   6.695   4.760 -0.0060  0.1730  0.0671
  210POPC   D2A 2827  10.292   6.575   5.132  0.1601  0.0939  0.0789
  210POPC   C3A 2828   9.963   6.843   5.429  0.4261 -0.4084  0.2869
  210POPC   C4A 2829   9.630   6.935   5.181  0.0282  0.0217 -0.0183
  210POPC   C1B 2830  11.433   6.933   4.672  0.1142  0.3465 -0.3068
  210POPC   C2B 2831  11.566   7.022   5.052  0.0921 -0.1990  0.0906
  210POPC   C3B 2832  11.613   7.091   5.467 -0.2569 -0.3992 -0.0849
  210POPC   C4B 2833  11.718   7.362   5.800 -0.0080  0.1126 -0.0574
  211POPC   NC3 2834   6.783   7.848   3.256 -0.3058  0.3038  0.1177
  211POPC   PO4 2835   6.547   7.696   3.581  0.0571 -0.2425  0.1939
  211POPC   GL1 2836   6.649   7.616   4.031  0.3075  0.2201  0.1428
  211POPC   GL2 2837   6.904   7.457   4.163 -0.1126  0.0772  0.0099
  211POPC   C1A 2838   6.224   7.552   4.297 -0.0324 -0.0010  0.1790
  211POPC   D2A 2839   6.040   7.418   4.690  0.3015 -0.1138 -0.0670
  211POPC   C3A 2840   6.132   7.721   5.029 -0.1327 -0.3454  0.2865
  211POPC   C4A 2841   6.062   7.846   5.407 -0.0029 -0.5170 -0.0087
  211POPC   C1B 2842   7.378   7.470   4.346  0.1723 -0.0881  0.2904
  211POPC   C2B 2843   7.791   7.631   4.474 -0.0364  0.1333 -0.1335
  211POPC   C3B 2844   8.102   7.621   4.851  0.2417  0.3213  0.1022
  211POPC   C4B 2845   8.445   7.638   4.970 -0.2148  0.2366  0.1486
  212POPC   NC3 2846   6.814   4.997   3.602 -0.0124 -0.1565  0.3940
  212POPC   PO4 2847   7.106   4.626   3.373 -0.4533  0.1331 -0.2003
  212POPC   GL1 2848   7.023   4.608   3.806 -0.2830  0.0628  0.4570
  212POPC   GL2 2849   7.281   4.488   4.053  0.0488 -0.0083 -0.1028
  212POPC   C1A 2850   6.698   4.627   4.139 -0.1924  0.0044  0.2921
  212POPC   D2A 2851   6.300   4.748   4.222 -0.0500 -0.1193  0.2501
  212POPC   C3A 2852   6.035   4.989   4.414  0.1774 -0.1567 -0.0260
  212POPC   C4A 2853   5.787   4.887   4.716  0.1055  0.5257  0.1652
  212POPC   C1B 2854   7.515   4.567   4.352 -0.2358  0.1022 -0.2337
  212POPC   C2B 2855   7.655   4.700   4.793  0.0443  0.2512 -0.3586
  212POPC   C3B 2856   7.678   4.619   5.246 -0.1886 -0.1194 -0.1568
  212POPC   C4B 2857   7.719   4.516   5.668  0.1143 -0.1481  0.2681
  213POPC   NC3 2858   5.160   2.482   3.095  0.0517 -0.0834 -0.2282
  213POPC   PO4 2859   5.104   2.619   3.500  0.0337  0.0739  0.0228
  213POPC   GL1 2860   5.177   2.824   3.832 -0.1280 -0.1546 -0.0665
  213POPC   GL2 2861   5.025   3.163   3.912 -0.0063  0.1945  0.0145
  213POPC   C1A 2862   4.968   2.718   4.254  0.2812 -0.1531 -0.1598
  213POPC   D2A 2863   4.943   2.632   4.721  0.1782 -0.1904  0.2553
  213POPC   C3A 2864   4.685   2.625   5.107 -0.1288  0.2904  0.2182
  213POPC   C4A 2865   4.408   2.946   5.298  0.2637  0.2093  0.1402
  213POPC   C1B 2866   4.701   3.379   4.088  0.0881  0.3181 -0.0782
  213POPC   C2B 2867   4.728   3.583   4.406 -0.1168 -0.0973  0.3626
  213POPC   C3B 2868   4.706   3.940   4.712  0.1672 -0.0424  0.0474
  213POPC   C4B 2869   4.675   4.085   5.157 -0.0870 -0.0246  0.0754
  214POPC   NC3 2870   1.968   1.719   3.896 -0.0130  0.2620  0.1250
  214POPC   PO4 2871   2.264   1.907   3.763  0.0332 -0.2251 -0.1825
  214POPC   GL1 2872   2.243   2.198   4.027 -0.2560  0.0165 -0.2838
  214POPC   GL2 2873   2.222   2.001   4.282 -0.0935 -0.3266 -0.0183
  214POPC   C1A 2874   2.252   2.480   4.376 -0.0840 -0.1132  0.1723
  214POPC   D2A 2875   2.189   2.616   4.702  0.0822  0.2968 -0.0674
  214POPC   C3A 2876   2.442   2.769   5.080  0.0642 -0.0562  0.1250
  214POPC   C4A 2877   2.736   2.988   5.362  0.1941  0.1660  0.0333
  214POPC   C1B 2878   2.139   1.842   4.640  0.4360  0.2278 -0.1472
  214POPC   C2B 2879   2.127   1.925   5.072 -0.2410 -0.0233  0.1873
  214POPC   C3B 2880   2.330   2.029   5.463 -0.0330 -0.2987  0.1395
  214POPC   C4B 2881   2.723   2.116   5.673  0.1076  0.0665  0.0264
  215POPC   NC3 2882   3.991   8.266   3.803 -0.1102  0.1133  0.1556
  215POPC   PO4 2883   4.222   7.866   3.917 -0.0125  0.3130 -0.3082
  215POPC   GL1 2884   4.379   7.722   4.365  0.1334  0.0006 -0.2393
  215POPC   GL2 2885   4.466   7.938   4.484 -0.1505 -0.1309  0.1040
  215POPC   C1A 2886   4.180   7.692   4.806 -0.0662 -0.2787 -0.2199
  215POPC   D2A 2887   4.334   7.716   5.239 -0.0053  0.0692 -0.0971
  215POPC   C3A 2888   4.721   7.855   5.006 -0.0448 -0.2152  0.1049
  215POPC   C4A 2889   4.877   8.152   4.716 -0.1253  0.3295  0.3814
  215POPC   C1B 2890   4.361   8.186   4.908  0.1579 -0.3711  0.1927
  215POPC   C2B 2891   4.348   8.463   5.224  0.1466  0.0323  0.3051
  215POPC   C3B 2892   4.586   8.786   5.411 -0.3693 -0.2714 -0.3438
  215POPC   C4B 2893   4.562   9.118   5.798 -0.0763 -0.2862  0.2553
  216POPC   NC3 2894   2.366   1.369   3.725 -0.0311 -0.1903  0.3063
  216POPC   PO4 2895   2.035   1.179   3.988  0.0012 -0.1153  0.1715
  216POPC   GL1 2896   1.974   1.168   4.394  0.0006 -0.2215 -0.1873
  216POPC   GL2 2897   1.901   1.403   4.603 -0.0560  0.0381  0.0482
  216POPC   C1A 2898   2.014   0.912   4.766  0.2415 -0.1051  0.2710
  216POPC   D2A 2899   2.020   0.696   5.193  0.0588  0.0148  0.3772
  216POPC   C3A 2900   1.920   0.281   5.419  0.0932  0.2182 -0.0402
  216POPC   C4A 2901   1.545   0.085   5.520  0.1220 -0.2639 -0.2354
  216POPC   C1B 2902   2.010   1.248   5.120  0.0226 -0.4047  0.0569
  216POPC   C2B 2903   2.113   1.092   5.517  0.1829 -0.1951 -0.0447
  216POPC   C3B 2904   2.297   0.796   5.792  0.5570  0.1488 -0.2288
  216POPC   C4B 2905   2.220   0.603   6.127 -0.4701 -0.0314  0.0942
  217POPC   NC3 2906   8.655   8.574   4.083 -0.1698 -0.0140 -0.0996
  217POPC   PO4 2907   9.007   8.838   4.006  0.2837 -0.1448  0.4208
  217POPC   GL1 2908   9.229   8.504   4.270  0.4672 -0.0254 -0.7103
  217POPC   GL2 2909   9.497   8.550   4.536  0.0442 -0.1037  0.1245
  217POPC   C1A 2910   9.076   8.436   4.780  0.0749 -0.0810 -0.0079
  217POPC   D2A 2911   8.850   7.982   4.942 -0.0741 -0.1487  0.0172
  217POPC   C3A 2912   8.778   7.887   5.331  0.1714 -0.0193  0.3748
  217POPC   C4A 2913   8.665   7.844   5.783 -0.1775 -0.1167 -0.2268
  217POPC   C1B 2914   9.530   8.679   4.999  0.0334  0.0440  0.5397
  217POPC   C2B 2915   9.624   8.479   5.395  0.3094  0.3082 -0.2224
  217POPC   C3B 2916   9.555   8.218   5.698 -0.2785  0.0214  0.2240
  217POPC   C4B 2917   9.343   8.122   6.086  0.1835 -0.1636 -0.0206
  218POPC   NC3 2918   7.722   5.778   3.750  0.1224 -0.0174  0.1386
  218POPC   PO4 2919   7.295   5.746   3.702 -0.0108  0.1312  0.1571
  218POPC   GL1 2920   7.277   5.813   4.224 -0.1757  0.1946  0.3829
  218POPC   GL2 2921   7.051   6.181   4.276  0.4217 -0.4352 -0.0531
  218POPC   C1A 2922   7.073   5.880   4.672 -0.3926 -0.0750 -0.1209
  218POPC   D2A 2923   6.921   5.871   5.063  0.1123  0.1273  0.1064
  218POPC   C3A 2924   6.873   6.311   5.185  0.2466 -0.2525 -0.1729
  218POPC   C4A 2925   6.601   6.556   5.405 -0.2836 -0.1357 -0.1984
  218POPC   C1B 2926   6.723   6.287   4.629  0.0079  0.0636  0.1232
  218POPC   C2B 2927   6.448   6.163   4.994 -0.1584 -0.1000  0.0033
  218POPC   C3B 2928   6.524   6.065   5.438 -0.3312 -0.0604 -0.0067
  218POPC   C4B 2929   6.608   5.760   5.783 -0.0411  0.2094  0.2480
  219POPC   NC3 2930   8.648   5.851   3.640  0.1938  0.1015 -0.0013
  219POPC   PO4 2931   9.075   5.871   3.809 -0.2976 -0.2689 -0.1287
  219POPC   GL1 2932   8.842   5.640   4.043 -0.3065 -0.1225 -0.2159
  219POPC   GL2 2933   9.017   5.395   4.161 -0.3545  0.1060  0.1723
  219POPC   C1A 2934   8.586   5.669   4.343 -0.2626 -0.1081 -0.0705
  219POPC   D2A 2935   8.237   5.500   4.548 -0.1689  0.0889 -0.0117
  219POPC   C3A 2936   8.316   5.473   4.926 -0.2738  0.3282  0.0880
  219POPC   C4A 2937   8.228   5.447   5.287 -0.2298  0.1222 -0.0769
  219POPC   C1B 2938   8.793   5.339   4.639  0.3241 -0.0558  0.0683
  219POPC   C2B 2939   8.782   5.261   5.009  0.0637 -0.2013 -0.0111
  219POPC   C3B 2940   8.793   5.431   5.445 -0.2539  0.2483 -0.0776
  219POPC   C4B 2941   9.177   5.310   5.529  0.0966 -0.1777 -0.2928
  220POPC   NC3 2942   3.764   9.881   3.599  0.0620 -0.0235 -0.0294
  220POPC   PO4 2943   3.756   9.694   4.004  0.1291  0.3896  0.1566
  220POPC   GL1 2944   3.712   9.735   4.287 -0.3054 -0.3021 -0.4645
  220POPC   GL2 2945   3.333   9.849   4.351 -0.2033 -0.0970  0.2289
  220POPC   C1A 2946   3.996   9.669   4.633 -0.0225 -0.0688 -0.1763
  220POPC   D2A 2947   4.147   9.547   5.065  0.0676 -0.0844  0.0728
  220POPC   C3A 2948   4.184   9.473   5.492  0.0216 -0.2183  0.1590
  220POPC   C4A 2949   4.424   9.667   5.854 -0.1424  0.2300  0.0192
  220POPC   C1B 2950   3.460  10.013   4.678 -0.0566  0.1237  0.3016
  220POPC   C2B 2951   3.766   9.949   4.994 -0.0322  0.0309 -0.0115
  220POPC   C3B 2952   3.971   9.901   5.349  0.2820 -0.2023  0.1270
  220POPC   C4B 2953   3.854   9.722   5.803  0.2310  0.0480 -0.3726
  221POPC   NC3 2954   6.151   5.363   3.991 -0.0113 -0.0835 -0.1753
  221POPC   PO4 2955   6.322   5.055   3.730 -0.1439 -0.3183  0.0083
  221POPC   GL1 2956   6.592   5.222   4.100  0.2188 -0.0269 -0.0525
  221POPC   GL2 2957   6.641   5.513   4.308 -0.0191 -0.1897  0.1377
  221POPC   C1A 2958   6.570   5.050   4.532  0.0888  0.1409  0.3831
  221POPC   D2A 2959   6.722   4.676   4.662 -0.1927 -0.0568  0.1978
  221POPC   C3A 2960   6.715   4.624   5.122 -0.1482  0.1633 -0.2350
  221POPC   C4A 2961   6.748   4.783   5.508 -0.0129  0.0861 -0.0895
  221POPC   C1B 2962   6.985   5.370   4.527 -0.0155  0.3049  0.0081
  221POPC   C2B 2963   7.116   5.402   4.940  0.1013  0.1979  0.0302
  221POPC   C3B 2964   7.199   5.179   5.286 -0.0262  0.3690  0.0166
  221POPC   C4B 2965   7.445   4.898   5.590  0.2505 -0.1681  0.1896
  222POPC   NC3 2966   1.342   4.958   3.627  0.2257 -0.1923 -0.1823
  222POPC   PO4 2967   1.051   4.629   3.556  0.1428  0.1642 -0.2587
  222POPC   GL1 2968   1.123   4.411   4.021  0.3715 -0.0268  0.2836
  222POPC   GL2 2969   0.740   4.486   4.215 -0.0991 -0.0245  0.0485
  222POPC   C1A 2970   1.354   4.314   4.466  0.0576 -0.2692 -0.0373
  222POPC   D2A 2971   1.629   4.429   4.768 -0.0325 -0.2019  0.0787
  222POPC   C3A 2972   1.614   4.565   5.231  0.2100  0.1332  0.0056
  222POPC   C4A 2973   1.655   4.724   5.648 -0.0540 -0.0319 -0.0784
  222POPC   C1B 2974   0.582   4.152   4.510  0.1661  0.1195  0.2547
  222POPC   C2B 2975   0.456   3.855   4.811 -0.0599 -0.1916  0.3623
  222POPC   C3B 2976   0.757   3.643   4.871 -0.2994  0.0452  0.3338
  222POPC   C4B 2977   0.855   3.821   5.206  0.2474  0.2261 -0.0798
  223POPC   NC3 2978   5.796   8.993   4.127  0.0990 -0.2100 -0.1004
  223POPC   PO4 2979   6.165   8.844   4.181  0.1919 -0.0421 -0.1613
  223POPC   GL1 2980   6.061   8.890   4.629 -0.0261  0.3090 -0.3491
  223POPC   GL2 2981   5.736   9.173   4.610 -0.0253  0.1196  0.1626
  223POPC   C1A 2982   6.231   8.792   5.076 -0.2379  0.3658 -0.1783
  223POPC   D2A 2983   6.484   8.636   5.425 -0.0230 -0.1677 -0.0271
  223POPC   C3A 2984   6.348   8.304   5.645 -0.2439 -0.0766  0.2690
  223POPC   C4A 2985   6.372   8.331   6.092 -0.2888  0.1867 -0.1839
  223POPC   C1B 2986   5.771   9.556   4.976 -0.0664 -0.1872 -0.1341
  223POPC   C2B 2987   5.566   9.651   5.319  0.0619  0.0109 -0.1094
  223POPC   C3B 2988   5.279   9.525   5.717 -0.0176 -0.1845 -0.0907
  223POPC   C4B 2989   5.103   9.419   5.996  0.2989 -0.3918  0.1847
  224POPC   NC3 2990   2.011   3.517   3.407 -0.2089 -0.0587 -0.1905
  224POPC   PO4 2991   2.090   3.302   3.810  0.1557  0.4216 -0.0732
  224POPC   GL1 2992   2.432   3.337   4.158  0.2973 -0.1140 -0.2282
  224POPC   GL2 2993   2.724   3.426   3.906  0.3048 -0.0587  0.2435
  224POPC   C1A 2994   2.519   3.380   4.573  0.2389  0.3562 -0.0366
  224POPC   D2A 2995   2.316   3.404   4.938  0.3367 -0.0240  0.1018
  224POPC   C3A 2996   2.207   3.740   5.200  0.0141 -0.0423 -0.0879
  224POPC   C4A 2997   1.866   3.878   5.491  0.1621  0.0383 -0.2180
  224POPC   C1B 2998   2.958   3.155   4.160 -0.1780 -0.0147  0.1634
  224POPC   C2B 2999   3.055   2.722   4.232  0.0103 -0.0486 -0.0274
  224POPC   C3B 3000   3.121   2.193   4.424 -0.2232 -0.2673  0.0455
  224POPC   C4B 3001   3.256   1.746   4.425  0.3969  0.0307  0.0867
  225POPC   NC3 3002   5.000   8.012   3.215  0.0470 -0.2397 -0.0382
  225POPC   PO4 3003   4.995   8.200   3.601 -0.0639  0.0616  0.1504
  225POPC   GL1 3004   4.965   8.319   4.116 -0.2590  0.3428 -0.0886
  225POPC   GL2 3005   4.730   8.488   4.347  0.1542  0.0139 -0.4143
  225POPC   C1A 3006   5.303   8.245   4.380  0.1513 -0.1169 -0.0433
  225POPC   D2A 3007   5.385   8.191   4.883  0.1141  0.0045  0.2680
  225POPC   C3A 3008   5.392   8.425   5.257 -0.3247 -0.1551  0.1287
  225POPC   C4A 3009   5.526   8.691   5.574 -0.0326  0.0517  0.0063
  225POPC   C1B 3010   4.641   8.639   4.712  0.0861  0.0075  0.1404
  225POPC   C2B 3011   4.465   8.890   4.950 -0.3295  0.0389  0.2521
  225POPC   C3B 3012   4.669   9.227   5.140 -0.3593 -0.0291 -0.0299
  225POPC   C4B 3013   4.743   9.435   5.492  0.0026  0.0436 -0.1311
  226POPC   NC3 3014   4.711   7.908   4.055 -0.3034  0.0994 -0.3182
  226POPC   PO4 3015   4.897   7.714   3.806  0.1385  0.1966  0.0862
  226POPC   GL1 3016   5.212   7.647   4.140 -0.0909  0.4296  0.1273
  226POPC   GL2 3017   5.082   7.559   4.431 -0.3252  0.0408 -0.0540
  226POPC   C1A 3018   5.528   7.809   4.451  0.0675 -0.0880 -0.0904
  226POPC   D2A 3019   5.780   7.888   4.781  0.2015  0.2167 -0.0027
  226POPC   C3A 3020   5.673   7.808   5.128  0.1700  0.0739  0.3250
  226POPC   C4A 3021   5.380   7.573   5.395  0.2901 -0.1987 -0.1638
  226POPC   C1B 3022   5.215   7.707   4.847 -0.0699  0.1833 -0.0737
  226POPC   C2B 3023   5.165   7.998   5.241  0.0632  0.3659  0.0718
  226POPC   C3B 3024   5.217   7.972   5.682  0.0698 -0.2027  0.0367
  226POPC   C4B 3025   4.734   7.943   5.951 -0.0806  0.1071  0.4734
  227POPC   NC3 3026   9.516   5.856   4.021  0.1601 -0.0120 -0.2062
  227POPC   PO4 3027   9.919   5.534   3.968 -0.0770 -0.0598  0.2313
  227POPC   GL1 3028  10.068   5.671   4.350 -0.0541 -0.1946  0.2788
  227POPC   GL2 3029   9.883   5.998   4.356  0.0523 -0.2610  0.3043
  227POPC   C1A 3030  10.210   5.641   4.769 -0.2160  0.2204 -0.0272
  227POPC   D2A 3031  10.459   5.292   4.797  0.0842 -0.2541  0.0235
  227POPC   C3A 3032  10.509   5.161   5.170  0.1365 -0.0180 -0.1808
  227POPC   C4A 3033  10.829   5.053   5.412  0.0591  0.0677 -0.0026
  227POPC   C1B 3034   9.963   6.100   4.763 -0.0259  0.0572 -0.0695
  227POPC   C2B 3035  10.136   6.116   5.123 -0.1678  0.0373 -0.2928
  227POPC   C3B 3036  10.311   6.070   5.589 -0.1383  0.2279 -0.2392
  227POPC   C4B 3037  10.527   5.947   6.039  0.4435  0.1233  0.2643
  228POPC   NC3 3038   5.681   4.942   3.150  0.1462 -0.1424 -0.1236
  228POPC   PO4 3039   5.875   4.681   3.390  0.1537  0.3581  0.4103
  228POPC   GL1 3040   5.855   4.625   3.876  0.0053  0.1384  0.0248
  228POPC   GL2 3041   5.929   4.312   3.976 -0.1867  0.0770 -0.1682
  228POPC   C1A 3042   5.557   4.750   4.211  0.0240  0.0703  0.4658
  228POPC   D2A 3043   5.349   5.081   4.416  0.1508  0.1561 -0.0504
  228POPC   C3A 3044   5.300   5.056   4.825 -0.2046 -0.1225  0.2301
  228POPC   C4A 3045   5.155   4.947   5.268 -0.2336  0.1166 -0.0020
  228POPC   C1B 3046   5.926   4.504   4.470 -0.2406  0.3641  0.0824
  228POPC   C2B 3047   6.162   4.557   4.775  0.2410 -0.0020  0.1036
  228POPC   C3B 3048   6.203   4.572   5.175  0.0231 -0.1221  0.1070
  228POPC   C4B 3049   6.096   4.346   5.612  0.1306  0.4524 -0.2236
  229POPC   NC3 3050   6.800   9.797   3.649  0.0614  0.2164  0.0771
  229POPC   PO4 3051   6.922  10.323   3.443  0.0151 -0.0366 -0.0495
  229POPC   GL1 3052   6.818  10.705   3.702  0.1936 -0.0213  0.0141
  229POPC   GL2 3053   6.582  10.907   3.792  0.1768  0.0661 -0.0490
  229POPC   C1A 3054   7.044  10.699   4.117 -0.0307 -0.3934 -0.0631
  229POPC   D2A 3055   6.978  10.651   4.502  0.0130 -0.0886  0.0856
  229POPC   C3A 3056   7.225  10.784   4.761  0.1851 -0.0560  0.0897
  229POPC   C4A 3057   7.483  10.795   5.130  0.1026 -0.1783  0.1223
  229POPC   C1B 3058   6.402  10.617   4.095  0.0764  0.1534  0.0270
  229POPC   C2B 3059   6.517  10.435   4.428 -0.0801  0.0653  0.1325
  229POPC   C3B 3060   6.370  10.350   4.846  0.2320  0.0965 -0.0990
  229POPC   C4B 3061   6.416  10.495   5.289 -0.0937  0.2016 -0.1366
  230POPC   NC3 3062   3.521   0.084   3.256  0.0579 -0.3122  0.1084
  230POPC   PO4 3063   3.390  -0.297   3.516  0.0873 -0.2368 -0.1030
  230POPC   GL1 3064   3.421  -0.150   3.876  0.0661 -0.2523  0.2520
  230POPC   GL2 3065   3.658  -0.413   3.975  0.1614 -0.0146 -0.0440
  230POPC   C1A 3066   3.515   0.135   4.209 -0.0410 -0.0674  0.0640
  230POPC   D2A 3067   3.416   0.487   4.312 -0.0326 -0.2396 -0.0775
  230POPC   C3A 3068   3.622   0.649   4.623  0.2766  0.0661 -0.1109
  230POPC   C4A 3069   3.598   0.757   5.058 -0.1141 -0.0957  0.1784
  230POPC   C1B 3070   3.462  -0.313   4.373  0.0658 -0.1767  0.1550
  230POPC   C2B 3071   3.542  -0.302   4.867  0.1485  0.0347 -0.3738
  230POPC   C3B 3072   3.202  -0.096   5.108  0.0304  0.2435 -0.2252
  230POPC   C4B 3073   2.830   0.032   5.147  0.1163  0.0307 -0.0834
  231POPC   NC3 3074   0.429   6.386   3.960  0.3242 -0.0891  0.1348
  231POPC   PO4 3075   0.849   6.394   3.931 -0.0811 -0.0729  0.0924
  231POPC   GL1 3076   0.846   6.523   4.340 -0.0971  0.0787 -0.0182
  231POPC   GL2 3077   1.157   6.545   4.377  0.2378  0.2542  0.2698
  231POPC   C1A 3078   1.022   6.555   4.841  0.0288  0.1736  0.0603
  231POPC   D2A 3079   1.247   6.497   5.182  0.0543  0.2986  0.0159
  231POPC   C3A 3080   1.118   6.691   5.554 -0.1223 -0.0615 -0.2559
  231POPC   C4A 3081   0.771   6.819   5.879 -0.2259  0.1130  0.1482
  231POPC   C1B 3082   1.523   6.747   4.508 -0.0123 -0.0704 -0.2201
  231POPC   C2B 3083   1.581   6.754   4.915  0.4741 -0.1974  0.0707
  231POPC   C3B 3084   1.681   6.677   5.377  0.1361 -0.0441 -0.2381
  231POPC   C4B 3085   1.799   6.623   5.807  0.1971  0.1843 -0.1082
  232POPC   NC3 3086   6.070   2.342   3.326  0.0033  0.1294  0.0517
  232POPC   PO4 3087   6.092   2.757   3.005 -0.0470  0.3153 -0.1373
  232POPC   GL1 3088   6.148   2.800   3.542  0.3591  0.0182 -0.0713
  232POPC   GL2 3089   6.268   3.221   3.672 -0.1605 -0.0144 -0.2851
  232POPC   C1A 3090   6.171   2.759   3.987 -0.3922 -0.0368  0.1795
  232POPC   D2A 3091   6.361   2.781   4.444 -0.1561  0.1875  0.2607
  232POPC   C3A 3092   6.026   2.609   4.787  0.0443  0.2432 -0.1823
  232POPC   C4A 3093   5.716   2.480   5.160  0.1652 -0.0940  0.1839
  232POPC   C1B 3094   5.934   3.257   3.868 -0.0029 -0.2565 -0.0484
  232POPC   C2B 3095   5.611   3.188   4.087 -0.1710  0.0106 -0.2556
  232POPC   C3B 3096   5.359   2.979   4.362  0.1162  0.2269  0.0447
  232POPC   C4B 3097   5.039   3.156   4.571 -0.2211  0.0287  0.1433
  233POPC   NC3 3098   6.890   2.908   2.821 -0.2973 -0.1303  0.0015
  233POPC   PO4 3099   6.756   3.351   2.945 -0.1610 -0.1821 -0.0396
  233POPC   GL1 3100   6.793   3.381   3.424 -0.2666 -0.1006 -0.1039
  233POPC   GL2 3101   6.709   3.637   3.397 -0.1328  0.3233 -0.1881
  233POPC   C1A 3102   6.700   3.229   3.799  0.2173 -0.2662  0.0627
  233POPC   D2A 3103   6.880   3.199   4.314  0.1618  0.1431  0.1200
  233POPC   C3A 3104   6.516   3.288   4.673 -0.1669 -0.0908  0.1875
  233POPC   C4A 3105   6.042   3.254   4.817 -0.1245  0.2136 -0.0677
  233POPC   C1B 3106   6.716   3.793   3.720  0.1327 -0.1311  0.0055
  233POPC   C2B 3107   6.941   4.047   3.977  0.0833 -0.0738 -0.1355
  233POPC   C3B 3108   6.942   4.259   4.398 -0.0881  0.0789 -0.2842
  233POPC   C4B 3109   7.200   4.419   4.697  0.2012 -0.1877  0.0996
  234POPC   NC3 3110   3.879   3.355   3.581 -0.0085 -0.0513 -0.0201
  234POPC   PO4 3111   3.443   3.205   3.493  0.1184 -0.0906 -0.1035
  234POPC   GL1 3112   3.368   3.342   3.822  0.0915 -0.2286 -0.2033
  234POPC   GL2 3113   3.657   3.138   4.025 -0.1778 -0.1580  0.0457
  234POPC   C1A 3114   3.195   3.579   4.041 -0.0806  0.1771 -0.0962
  234POPC   D2A 3115   3.301   3.699   4.474 -0.1287  0.0143 -0.0619
  234POPC   C3A 3116   3.103   3.556   4.793 -0.2736 -0.1771  0.1992
  234POPC   C4A 3117   2.846   3.261   4.931  0.3363 -0.1017 -0.0374
  234POPC   C1B 3118   3.463   3.073   4.292  0.2881  0.1286 -0.0317
  234POPC   C2B 3119   3.252   3.104   4.660  0.1392 -0.0169 -0.0661
  234POPC   C3B 3120   3.279   2.958   5.094 -0.1636 -0.1082  0.1029
  234POPC   C4B 3121   3.168   2.982   5.547 -0.1072  0.0525  0.1189
  235POPC   NC3 3122   1.534   0.819   3.622  0.0853 -0.0725  0.0085
  235POPC   PO4 3123   1.153   1.085   3.863 -0.1580  0.2662 -0.1901
  235POPC   GL1 3124   1.160   1.309   4.317  0.0144 -0.1846  0.2781
  235POPC   GL2 3125   1.172   1.711   4.381 -0.0796  0.1605 -0.3364
  235POPC   C1A 3126   1.405   1.259   4.555  0.0481 -0.0203  0.2502
  235POPC   D2A 3127   1.526   1.176   4.984 -0.0752  0.0395 -0.0634
  235POPC   C3A 3128   1.350   1.374   5.214 -0.2622 -0.2734  0.1519
  235POPC   C4A 3129   1.159   1.892   5.066  0.4035  0.1296 -0.0937
  235POPC   C1B 3130   1.525   1.804   4.661 -0.0631 -0.1740 -0.2497
  235POPC   C2B 3131   1.760   1.630   5.045 -0.2153  0.1925 -0.1685
  235POPC   C3B 3132   1.803   1.551   5.507  0.0169  0.0036 -0.0188
  235POPC   C4B 3133   1.599   1.442   5.922  0.4790 -0.1486 -0.1422
  236POPC   NC3 3134  10.330   3.353   3.387 -0.1265  0.4023 -0.2637
  236POPC   PO4 3135  10.691   3.043   3.276 -0.1552 -0.0121  0.1515
  236POPC   GL1 3136  10.563   3.086   3.803 -0.0381  0.0279 -0.1427
  236POPC   GL2 3137  10.460   3.373   3.882 -0.0620  0.0836  0.1529
  236POPC   C1A 3138  10.391   3.068   4.221  0.0748  0.2176  0.0777
  236POPC   D2A 3139  10.387   2.879   4.700 -0.1346 -0.0780  0.2883
  236POPC   C3A 3140  10.262   3.051   5.071 -0.1749 -0.0028 -0.1197
  236POPC   C4A 3141   9.893   3.264   5.201 -0.1496 -0.0698 -0.0503
  236POPC   C1B 3142  10.912   3.297   4.071  0.2363 -0.4594 -0.0730
  236POPC   C2B 3143  10.885   3.037   4.466  0.0460 -0.0692 -0.0413
  236POPC   C3B 3144  10.803   3.098   4.908 -0.3077 -0.2500  0.0385
  236POPC   C4B 3145  11.104   3.464   5.121  0.0720 -0.0494  0.0218
  237POPC   NC3 3146   6.231  10.499   3.057  0.2782  0.0348  0.0243
  237POPC   PO4 3147   6.360  10.190   3.414  0.1735  0.1494 -0.1377
  237POPC   GL1 3148   6.531  10.230   3.814 -0.2763  0.1777  0.3816
  237POPC   GL2 3149   6.783  10.226   3.908 -0.1941 -0.3231 -0.1100
  237POPC   C1A 3150   6.498   9.935   4.246  0.0001 -0.0993  0.3964
  237POPC   D2A 3151   6.613   9.685   4.683  0.4619 -0.2128 -0.2260
  237POPC   C3A 3152   6.861   9.376   4.994 -0.3812  0.0460  0.3202
  237POPC   C4A 3153   6.984   9.320   5.325  0.3809  0.1736 -0.1492
  237POPC   C1B 3154   6.990  10.231   4.287  0.3452 -0.1973 -0.0213
  237POPC   C2B 3155   6.848  10.239   4.767 -0.1653  0.1616  0.1260
  237POPC   C3B 3156   6.840  10.563   5.084  0.2315 -0.1624  0.0519
  237POPC   C4B 3157   7.012  10.754   5.460  0.0808 -0.1345 -0.3060
  238POPC   NC3 3158   1.805   6.817   3.873 -0.4219 -0.3099 -0.1015
  238POPC   PO4 3159   1.819   6.382   3.751 -0.1656 -0.0084 -0.1442
  238POPC   GL1 3160   1.670   6.454   4.165 -0.0989 -0.1552  0.1558
  238POPC   GL2 3161   1.514   6.225   4.234  0.0139  0.1385 -0.0246
  238POPC   C1A 3162   1.845   6.423   4.634 -0.2115 -0.0182  0.1186
  238POPC   D2A 3163   2.020   6.545   4.977 -0.0634  0.0410  0.1512
  238POPC   C3A 3164   2.437   6.360   5.025  0.1198 -0.2602  0.0507
  238POPC   C4A 3165   2.585   5.980   4.952  0.1657 -0.0947 -0.1022
  238POPC   C1B 3166   1.419   6.196   4.624  0.1749  0.0634 -0.2226
  238POPC   C2B 3167   1.612   6.185   5.023  0.1169  0.0075  0.1330
  238POPC   C3B 3168   1.874   6.260   5.372  0.0237  0.0088  0.2080
  238POPC   C4B 3169   2.187   6.588   5.512 -0.2015 -0.0993  0.2430
  239POPC   NC3 3170   1.732   3.076   3.543 -0.0775 -0.1364  0.3409
  239POPC   PO4 3171   1.820   2.663   3.663 -0.1069 -0.1842  0.3266
  239POPC   GL1 3172   1.506   2.516   3.964 -0.0915 -0.1900  0.2315
  239POPC   GL2 3173   1.805   2.459   4.119  0.0656 -0.0049 -0.1357
  239POPC   C1A 3174   1.238   2.602   4.100 -0.0668  0.0136 -0.3493
  239POPC   D2A 3175   0.780   2.713   4.171  0.0198 -0.1562 -0.2526
  239POPC   C3A 3176   0.414   2.904   4.100 -0.4327 -0.2882  0.3120
  239POPC   C4A 3177   0.031   2.692   4.050 -0.1646 -0.3803  0.0742
  239POPC   C1B 3178   1.660   2.639   4.471 -0.2279 -0.2482  0.0825
  239POPC   C2B 3179   1.652   2.662   4.883  0.0560  0.3727  0.2309
  239POPC   C3B 3180   1.978   2.632   5.127  0.3751 -0.1015  0.1068
  239POPC   C4B 3181   2.024   2.457   5.521 -0.0001 -0.4315 -0.0232
  240POPC   NC3 3182   2.908   6.357   3.740  0.0343 -0.0729  0.2384
  240POPC   PO4 3183   3.258   6.397   3.844  0.1996  0.1024 -0.0287
  240POPC   GL1 3184   3.421   6.410   4.250  0.1659  0.2461  0.2613
  240POPC   GL2 3185   3.761   6.242   4.345 -0.1345  0.2075  0.1216
  240POPC   C1A 3186   3.356   6.599   4.668 -0.1085 -0.2776  0.1203
  240POPC   D2A 3187   3.675   6.718   5.003 -0.0584 -0.1724  0.1607
  240POPC   C3A 3188   3.700   7.033   5.375 -0.1413  0.1443 -0.0608
  240POPC   C4A 3189   3.686   7.331   5.963 -0.1914 -0.0443 -0.2793
  240POPC   C1B 3190   3.583   6.131   4.863 -0.3967  0.0244  0.2508
  240POPC   C2B 3191   3.290   6.341   5.127  0.1329 -0.2081  0.3351
  240POPC   C3B 3192   2.912   6.318   5.189 -0.0382 -0.0052 -0.3117
  240POPC   C4B 3193   2.729   6.584   5.493 -0.1149  0.0388 -0.2830
  241POPC   NC3 3194   2.697   2.114   3.767 -0.1328  0.2010  0.0543
  241POPC   PO4 3195   2.758   1.672   3.660  0.2724 -0.0437 -0.1834
  241POPC   GL1 3196   2.624   1.642   4.105 -0.2165 -0.4268 -0.1153
  241POPC   GL2 3197   2.455   1.425   4.322 -0.1108  0.2855  0.2933
  241POPC   C1A 3198   2.764   1.862   4.423 -0.1933  0.0334  0.3392
  241POPC   D2A 3199   3.001   2.100   4.888  0.1789 -0.2624  0.2804
  241POPC   C3A 3200   2.758   1.886   5.217  0.1536  0.0685 -0.3198
  241POPC   C4A 3201   2.548   1.526   5.213  0.1516 -0.0766  0.0449
  241POPC   C1B 3202   2.390   1.399   4.815 -0.0585 -0.0481 -0.0637
  241POPC   C2B 3203   2.466   0.977   5.064 -0.1966 -0.1013  0.1709
  241POPC   C3B 3204   2.502   0.589   5.318  0.1833  0.1512  0.1855
  241POPC   C4B 3205   2.850   0.360   5.583  0.0142  0.2888 -0.1272
  242POPC   NC3 3206   9.211   0.046   4.165 -0.1532 -0.0044  0.0836
  242POPC   PO4 3207   9.733   0.141   4.178 -0.3437  0.1397  0.0212
  242POPC   GL1 3208   9.567   0.275   4.573  0.0330  0.4075 -0.1810
  242POPC   GL2 3209   9.672   0.347   4.951 -0.1291  0.1567 -0.0519
  242POPC   C1A 3210   9.156  -0.029   4.771  0.1108 -0.3415 -0.0868
  242POPC   D2A 3211   8.993  -0.190   5.100  0.1282  0.2082  0.0551
  242POPC   C3A 3212   9.073  -0.439   5.429  0.2236  0.0124  0.2356
  242POPC   C4A 3213   9.228  -0.469   5.833 -0.1119 -0.1386  0.0726
  242POPC   C1B 3214   9.768   0.632   5.231 -0.4350 -0.2363 -0.0665
  242POPC   C2B 3215   9.754   0.873   5.624  0.1382 -0.2999  0.0100
  242POPC   C3B 3216   9.678   0.995   5.967  0.1537  0.0305  0.0138
  242POPC   C4B 3217   9.639   1.216   6.243  0.0562  0.0492  0.0487
  243POPC   NC3 3218   2.223   4.997   3.281 -0.3010 -0.0016  0.3366
  243POPC   PO4 3219   1.813   5.030   3.556  0.0946  0.3220  0.3430
  243POPC   GL1 3220   1.682   4.755   3.932 -0.5190 -0.0438  0.0791
  243POPC   GL2 3221   1.702   5.081   4.089 -0.1829 -0.3382 -0.0333
  243POPC   C1A 3222   1.486   4.783   4.398 -0.5120 -0.0926  0.0633
  243POPC   D2A 3223   1.093   4.797   4.635 -0.3880 -0.2307  0.0016
  243POPC   C3A 3224   1.048   4.803   5.126 -0.0250  0.3293 -0.0528
  243POPC   C4A 3225   0.697   4.796   5.468 -0.2840 -0.3162 -0.4204
  243POPC   C1B 3226   1.828   5.122   4.516  0.1780 -0.1466  0.1886
  243POPC   C2B 3227   1.554   4.915   4.878  0.0314 -0.0267 -0.2415
  243POPC   C3B 3228   1.446   5.085   5.312  0.2444  0.0190 -0.1102
  243POPC   C4B 3229   1.676   5.339   5.594  0.0562 -0.1847  0.1423
  244POPC   NC3 3230   4.868   4.669   3.258 -0.4071 -0.0116 -0.1784
  244POPC   PO4 3231   5.299   4.619   3.230 -0.0297  0.0225  0.0999
  244POPC   GL1 3232   5.182   4.506   3.700 -0.0371 -0.3820  0.1230
  244POPC   GL2 3233   5.418   4.345   3.812  0.1475  0.1300 -0.0703
  244POPC   C1A 3234   5.094   4.621   4.172 -0.0851 -0.0319  0.1824
  244POPC   D2A 3235   5.189   4.572   4.524 -0.1241 -0.3967 -0.1603
  244POPC   C3A 3236   5.540   4.469   4.795  0.1070  0.0163 -0.2242
  244POPC   C4A 3237   5.830   4.220   5.013 -0.1827  0.1572 -0.0881
  244POPC   C1B 3238   5.554   4.180   4.162 -0.1327 -0.0027 -0.0022
  244POPC   C2B 3239   5.492   4.012   4.604 -0.0204 -0.0585 -0.2597
  244POPC   C3B 3240   5.449   3.850   5.018  0.0039  0.0545  0.0080
  244POPC   C4B 3241   5.062   3.814   5.240 -0.2450 -0.1471 -0.0735
  245POPC   NC3 3242   9.463  10.523   3.938 -0.1353  0.2139 -0.1775
  245POPC   PO4 3243   9.370  10.239   4.098 -0.0369  0.1828  0.0184
  245POPC   GL1 3244   9.081  10.390   4.424 -0.1644  0.0939  0.0284
  245POPC   GL2 3245   8.829  10.561   4.359  0.0418  0.2933 -0.0076
  245POPC   C1A 3246   9.107  10.221   4.780 -0.2171  0.0240 -0.1652
  245POPC   D2A 3247   9.179   9.919   5.117  0.0643  0.1948 -0.0573
  245POPC   C3A 3248   9.280   9.910   5.502  0.2857 -0.0358 -0.0661
  245POPC   C4A 3249   9.609   9.810   5.892  0.3043  0.0285  0.2707
  245POPC   C1B 3250   8.656  10.276   4.662 -0.0841 -0.0439  0.0094
  245POPC   C2B 3251   8.643  10.138   5.067  0.0568  0.0113 -0.0430
  245POPC   C3B 3252   8.744   9.828   5.405  0.4016 -0.0820 -0.1300
  245POPC   C4B 3253   8.871   9.441   5.608 -0.1076  0.0983 -0.0737
  246POPC   NC3 3254   3.821   1.801   3.773 -0.1899  0.0779  0.0082
  246POPC   PO4 3255   4.197   1.614   3.826  0.1823 -0.0846  0.3073
  246POPC   GL1 3256   4.442   1.761   4.064 -0.1401  0.2109  0.2522
  246POPC   GL2 3257   4.168   1.944   4.294  0.1801  0.1035 -0.2318
  246POPC   C1A 3258   4.862   1.792   4.141  0.0016  0.1996 -0.2174
  246POPC   D2A 3259   5.004   2.127   4.461 -0.2670 -0.2108 -0.1412
  246POPC   C3A 3260   4.886   2.128   4.938 -0.3362 -0.2233 -0.2944
  246POPC   C4A 3261   4.500   2.216   5.311  0.2171  0.1718  0.2676
  246POPC   C1B 3262   4.269   2.005   4.800  0.0455 -0.0607  0.0259
  246POPC   C2B 3263   3.972   1.980   5.151 -0.0437  0.2433  0.0350
  246POPC   C3B 3264   3.704   2.191   5.526  0.0447  0.2424 -0.1197
  246POPC   C4B 3265   3.311   2.146   5.563  0.0851 -0.0586  0.1526
  247POPC   NC3 3266   3.543   7.422   3.948 -0.1721 -0.0144  0.0857
  247POPC   PO4 3267   3.721   7.830   3.793  0.0148 -0.2843 -0.0884
  247POPC   GL1 3268   3.628   7.931   4.268  0.0542  0.2082  0.1295
  247POPC   GL2 3269   3.897   7.912   4.231 -0.4841 -0.1643 -0.1577
  247POPC   C1A 3270   3.313   8.064   4.475 -0.0753 -0.0267  0.5229
  247POPC   D2A 3271   3.328   8.028   4.880 -0.1555  0.1067  0.0266
  247POPC   C3A 3272   3.570   7.618   5.093 -0.1114 -0.2339 -0.0443
  247POPC   C4A 3273   3.881   7.475   5.475 -0.0587 -0.0865 -0.1306
  247POPC   C1B 3274   3.739   7.473   4.631 -0.1892 -0.0768 -0.2165
  247POPC   C2B 3275   3.460   7.187   4.848 -0.3649 -0.2019 -0.2756
  247POPC   C3B 3276   3.221   6.842   5.210 -0.1396 -0.4479  0.2457
  247POPC   C4B 3277   3.199   6.589   5.527  0.0781  0.3469  0.0029
  248POPC   NC3 3278   9.569   8.136   4.241 -0.1724  0.2847 -0.2806
  248POPC   PO4 3279   9.267   7.896   4.188 -0.1864  0.0798  0.0001
  248POPC   GL1 3280   9.336   7.904   4.738  0.1387 -0.3927  0.0254
  248POPC   GL2 3281   9.556   8.155   4.822  0.2856  0.2234 -0.1878
  248POPC   C1A 3282   9.298   7.598   5.080 -0.1539 -0.3670 -0.3634
  248POPC   D2A 3283   9.454   7.438   5.318  0.0300  0.1549  0.1483
  248POPC   C3A 3284   9.821   7.501   5.621 -0.0596  0.1042  0.2061
  248POPC   C4A 3285  10.130   7.803   5.633 -0.3754 -0.0700 -0.4569
  248POPC   C1B 3286   9.258   8.182   5.159  0.2405  0.0103 -0.0864
  248POPC   C2B 3287   9.114   8.299   5.536  0.0065 -0.1147 -0.0883
  248POPC   C3B 3288   9.256   8.557   5.958  0.0099 -0.0843  0.1626
  248POPC   C4B 3289   9.457   8.951   6.043  0.1027 -0.0271  0.1278
  249POPC   NC3 3290   9.434   6.761   2.859 -0.1849  0.1537 -0.1854
  249POPC   PO4 3291   9.619   6.638   3.294 -0.1591 -0.2824 -0.2225
  249POPC   GL1 3292   9.823   6.568   3.718 -0.0614  0.1615  0.1640
  249POPC   GL2 3293   9.761   6.859   3.860 -0.2948 -0.1428 -0.3198
  249POPC   C1A 3294   9.812   6.479   4.171 -0.1131  0.0560  0.3335
  249POPC   D2A 3295   9.532   6.294   4.452 -0.0814  0.2345 -0.0485
  249POPC   C3A 3296   9.493   6.045   4.732  0.0153  0.1766  0.0212
  249POPC   C4A 3297   9.530   6.088   5.221  0.1318 -0.0846  0.2702
  249POPC   C1B 3298   9.813   6.957   4.309 -0.2213 -0.3536 -0.0819
  249POPC   C2B 3299   9.661   6.720   4.630 -0.2485 -0.2547 -0.2406
  249POPC   C3B 3300   9.821   6.474   5.028 -0.0762  0.1151  0.1611
  249POPC   C4B 3301   9.875   6.295   5.480  0.1551 -0.1779  0.1126
  250POPC   NC3 3302   8.445   7.218   3.314  0.1698 -0.0210 -0.0196
  250POPC   PO4 3303   8.060   7.180   3.540 -0.0018  0.1419  0.2101
  250POPC   GL1 3304   7.775   7.113   3.892  0.0947  0.0739  0.1035
  250POPC   GL2 3305   7.684   7.420   4.005  0.0220 -0.1260 -0.1404
  250POPC   C1A 3306   7.803   6.738   4.176  0.0496 -0.2510 -0.0869
  250POPC   D2A 3307   7.596   6.646   4.484  0.0180 -0.1120  0.1435
  250POPC   C3A 3308   7.424   7.049   4.608 -0.1548  0.2263  0.1043
  250POPC   C4A 3309   7.379   7.477   4.796  0.1336  0.0490 -0.1524
  250POPC   C1B 3310   7.993   7.220   4.339 -0.2197 -0.3006  0.0843
  250POPC   C2B 3311   8.263   7.184   4.703 -0.0070  0.0139  0.0078
  250POPC   C3B 3312   8.263   7.054   5.146  0.1054  0.0338 -0.2136
  250POPC   C4B 3313   8.187   6.907   5.584 -0.0940 -0.2435 -0.0604
  251POPC   NC3 3314   0.589   9.539   4.403  0.0626  0.1596 -0.0928
  251POPC   PO4 3315   0.769   9.984   4.356  0.2150  0.0879  0.1898
  251POPC   GL1 3316   0.708   9.973   4.797 -0.1684  0.0872  0.1563
  251POPC   GL2 3317   0.427   9.793   4.763 -0.0730 -0.2196  0.0421
  251POPC   C1A 3318   0.682   9.907   5.217  0.0551 -0.2704 -0.1380
  251POPC   D2A 3319   0.916   9.803   5.612  0.0223 -0.0668  0.1733
  251POPC   C3A 3320   1.006  10.089   5.967  0.1712 -0.2203 -0.3403
  251POPC   C4A 3321   1.057  10.479   6.191  0.0879 -0.4360  0.0311
  251POPC   C1B 3322   0.200   9.646   5.098  0.0657 -0.2131  0.0883
  251POPC   C2B 3323   0.079   9.758   5.459 -0.1200  0.0271 -0.1181
  251POPC   C3B 3324  -0.002   9.660   5.829 -0.0122  0.0024 -0.2870
  251POPC   C4B 3325  -0.133   9.328   5.866 -0.0983 -0.0006  0.1273
  252POPC   NC3 3326   3.560   3.662   3.296  0.0542 -0.0206  0.0112
  252POPC   PO4 3327   3.363   4.110   3.298 -0.1248  0.0049  0.0916
  252POPC   GL1 3328   3.380   3.895   3.715  0.1021 -0.1726 -0.1584
  252POPC   GL2 3329   3.679   3.752   3.858 -0.1457  0.1654  0.0728
  252POPC   C1A 3330   3.346   4.089   4.134 -0.0834  0.2862  0.0340
  252POPC   D2A 3331   3.398   4.213   4.535  0.0105  0.3756 -0.0081
  252POPC   C3A 3332   3.796   4.337   4.786 -0.0332  0.3509  0.1799
  252POPC   C4A 3333   3.938   4.641   5.048  0.1413  0.1566 -0.0933
  252POPC   C1B 3334   3.772   3.581   4.213 -0.3263 -0.0212  0.0497
  252POPC   C2B 3335   3.765   3.300   4.557 -0.1938  0.1325  0.0152
  252POPC   C3B 3336   4.091   3.287   4.874  0.0972 -0.3045 -0.0576
  252POPC   C4B 3337   4.313   3.425   5.206 -0.2156 -0.2511 -0.0685
  253POPC   NC3 3338   9.247   2.888   3.534 -0.1207  0.3570  0.3135
  253POPC   PO4 3339   9.279   3.346   3.385  0.2444  0.0851 -0.2414
  253POPC   GL1 3340   9.248   3.425   3.796 -0.1904  0.2787 -0.4731
  253POPC   GL2 3341   9.433   3.171   3.963 -0.0771 -0.2417 -0.2930
  253POPC   C1A 3342   9.072   3.500   4.180 -0.2536 -0.2818  0.1554
  253POPC   D2A 3343   9.105   3.557   4.678 -0.0532 -0.1326 -0.3637
  253POPC   C3A 3344   9.203   3.257   5.018 -0.1175 -0.0121  0.0437
  253POPC   C4A 3345   9.368   2.932   5.295  0.0402 -0.1125 -0.2498
  253POPC   C1B 3346   9.458   3.260   4.415 -0.0852 -0.1601 -0.4785
  253POPC   C2B 3347   9.711   3.305   4.711 -0.0089  0.1854  0.0197
  253POPC   C3B 3348  10.083   3.423   4.797 -0.0139 -0.0881  0.1834
  253POPC   C4B 3349  10.443   3.453   4.563 -0.2623 -0.4212 -0.2749
  254POPC   NC3 3350   1.373   8.153   3.943  0.0274  0.4411 -0.0558
  254POPC   PO4 3351   1.603   8.469   3.815 -0.0689  0.0936 -0.2502
  254POPC   GL1 3352   1.557   8.413   4.294 -0.0576 -0.4693 -0.0325
  254POPC   GL2 3353   1.627   8.597   4.522  0.0779  0.1653  0.2099
  254POPC   C1A 3354   1.568   8.225   4.807 -0.1608 -0.2321  0.2170
  254POPC   D2A 3355   1.296   7.934   5.141 -0.0395  0.1498  0.0473
  254POPC   C3A 3356   1.524   8.156   5.576  0.0667  0.0406 -0.1254
  254POPC   C4A 3357   1.602   7.877   5.973 -0.0364  0.3203 -0.2825
  254POPC   C1B 3358   2.021   8.315   4.439 -0.0893  0.1119  0.0176
  254POPC   C2B 3359   2.430   8.051   4.551  0.0096 -0.3244  0.3644
  254POPC   C3B 3360   2.893   7.961   4.649  0.2956 -0.0921 -0.1237
  254POPC   C4B 3361   3.228   7.575   4.583  0.0775  0.0090  0.0788
  255POPC   NC3 3362   5.816   5.092   3.648 -0.0928 -0.2726  0.2793
  255POPC   PO4 3363   5.632   5.356   4.015 -0.1408 -0.2433  0.0592
  255POPC   GL1 3364   5.798   5.569   4.336 -0.0800  0.2334  0.4181
  255POPC   GL2 3365   6.188   5.446   4.551 -0.1798  0.0654 -0.1800
  255POPC   C1A 3366   5.750   5.397   4.747  0.4221 -0.0922 -0.0183
  255POPC   D2A 3367   5.710   5.218   5.156 -0.0134 -0.1920 -0.0125
  255POPC   C3A 3368   5.621   4.794   5.196  0.0331  0.3731 -0.3199
  255POPC   C4A 3369   5.561   4.364   5.458 -0.0522  0.0131  0.5871
  255POPC   C1B 3370   6.220   5.134   4.828  0.4509  0.1977 -0.1205
  255POPC   C2B 3371   6.302   5.069   5.300 -0.3209 -0.2674  0.2022
  255POPC   C3B 3372   6.232   4.827   5.641 -0.2480  0.1016 -0.3046
  255POPC   C4B 3373   5.788   4.916   5.661 -0.0933 -0.2522 -0.1685
  256POPC   NC3 3374   0.912   7.348   3.501  0.1398 -0.2353 -0.1739
  256POPC   PO4 3375   1.277   7.117   3.695  0.2211  0.0412  0.0969
  256POPC   GL1 3376   1.424   7.099   4.168  0.0216 -0.1869  0.2874
  256POPC   GL2 3377   1.151   7.383   4.322 -0.1416  0.2071  0.0758
  256POPC   C1A 3378   1.636   7.311   4.618 -0.1219 -0.0696 -0.2291
  256POPC   D2A 3379   1.515   7.511   5.050 -0.0336 -0.0784 -0.1055
  256POPC   C3A 3380   1.701   7.513   5.325 -0.2563 -0.0352 -0.0335
  256POPC   C4A 3381   1.942   7.632   5.675  0.1504  0.1935  0.0639
  256POPC   C1B 3382   1.210   7.098   4.714  0.1662  0.0117  0.1281
  256POPC   C2B 3383   1.308   7.051   5.170 -0.3589 -0.2578  0.0401
  256POPC   C3B 3384   1.464   7.137   5.585 -0.1130 -0.0034 -0.1848
  256POPC   C4B 3385   1.657   7.371   5.977 -0.0152  0.1017 -0.1246
  257POPC   NC3 3386   1.162   1.588   3.901 -0.3014  0.1874 -0.1568
  257POPC   PO4 3387   1.417   1.903   3.821 -0.2302 -0.2701  0.0087
  257POPC   GL1 3388   1.404   2.182   4.332  0.2055  0.1466 -0.0142
  257POPC   GL2 3389   1.731   1.999   4.261 -0.2448 -0.2058  0.0137
  257POPC   C1A 3390   1.241   2.291   4.749 -0.0326  0.1533  0.2799
  257POPC   D2A 3391   0.911   2.270   5.035 -0.3767  0.3557 -0.0733
  257POPC   C3A 3392   1.232   2.396   5.391  0.2506 -0.0209  0.0353
  257POPC   C4A 3393   1.220   2.724   5.597 -0.0538  0.0676 -0.0168
  257POPC   C1B 3394   1.815   2.195   4.726 -0.0308 -0.1706 -0.0352
  257POPC   C2B 3395   1.612   2.104   5.147 -0.3556 -0.3025  0.0946
  257POPC   C3B 3396   1.433   1.945   5.510  0.1283 -0.0567  0.1911
  257POPC   C4B 3397   1.150   1.669   5.768  0.3527  0.1331 -0.2922
  258POPC   NC3 3398   0.943   6.982   4.072  0.0924  0.2859  0.0054
  258POPC   PO4 3399   0.637   6.912   3.884  0.0280  0.1610 -0.0071
  258POPC   GL1 3400   0.479   7.215   4.226 -0.1131  0.1996 -0.0040
  258POPC   GL2 3401   0.520   7.460   4.365  0.2928 -0.0710  0.1599
  258POPC   C1A 3402   0.089   7.274   4.561  0.1516 -0.1947  0.2759
  258POPC   D2A 3403  -0.445   7.063   4.514  0.2930  0.1867  0.2125
  258POPC   C3A 3404  -0.755   7.402   4.451 -0.0086  0.0037 -0.0365
  258POPC   C4A 3405  -0.915   7.746   4.636 -0.1383 -0.1347  0.1275
  258POPC   C1B 3406   0.475   7.371   4.879 -0.4013  0.1320  0.1988
  258POPC   C2B 3407   0.364   7.288   5.318 -0.2683  0.1772 -0.0571
  258POPC   C3B 3408   0.421   7.157   5.698  0.0759  0.0318 -0.0353
  258POPC   C4B 3409   0.567   7.184   6.139  0.2211 -0.0010  0.1591
  259POPC   NC3 3410   3.071   4.535   3.162 -0.1223 -0.1881 -0.1671
  259POPC   PO4 3411   2.882   4.161   2.964  0.1682  0.1524 -0.1939
  259POPC   GL1 3412   2.858   4.194   3.451 -0.0806 -0.0927 -0.1090
  259POPC   GL2 3413   2.831   3.851   3.553  0.0791  0.0956  0.3179
  259POPC   C1A 3414   2.981   4.436   3.781  0.0069 -0.3283 -0.1255
  259POPC   D2A 3415   2.941   4.464   4.309 -0.1017 -0.1634 -0.0662
  259POPC   C3A 3416   2.895   4.340   4.653 -0.2232  0.1185  0.0099
  259POPC   C4A 3417   2.918   4.222   5.022  0.1924 -0.1205 -0.2311
  259POPC   C1B 3418   2.881   4.010   3.998 -0.2991  0.0433 -0.1296
  259POPC   C2B 3419   2.866   3.847   4.363 -0.0085 -0.3484 -0.3399
  259POPC   C3B 3420   2.692   3.840   4.819 -0.5289 -0.0881  0.0987
  259POPC   C4B 3421   2.764   3.678   5.160  0.3262  0.0118 -0.0806
  260POPC   NC3 3422  10.137  10.643   4.278 -0.0053  0.0536 -0.0938
  260POPC   PO4 3423  10.568  10.404   4.483  0.0916 -0.0933 -0.0635
  260POPC   GL1 3424  10.145  10.205   4.609 -0.0945  0.0508 -0.2609
  260POPC   GL2 3425   9.985  10.454   4.682  0.3282  0.0564 -0.1671
  260POPC   C1A 3426  10.116  10.132   4.978 -0.0758  0.5631  0.0610
  260POPC   D2A 3427  10.148  10.293   5.368 -0.1058  0.0104 -0.0876
  260POPC   C3A 3428  10.284  10.680   5.594  0.1555  0.1818  0.0324
  260POPC   C4A 3429  10.734  10.870   5.742  0.1332 -0.1460 -0.0932
  260POPC   C1B 3430  10.106  10.644   5.052  0.0469 -0.2852  0.1709
  260POPC   C2B 3431  10.125  11.014   5.269  0.2211 -0.1719  0.2990
  260POPC   C3B 3432  10.362  11.279   5.580 -0.1097  0.1892 -0.0922
  260POPC   C4B 3433  10.629  11.604   5.776 -0.2534  0.0285 -0.0284
  261POPC   NC3 3434   4.839  10.155   3.398  0.1634  0.1969  0.1410
  261POPC   PO4 3435   4.886  10.597   3.383 -0.1986  0.1391 -0.5361
  261POPC   GL1 3436   4.828  10.664   3.777 -0.0600  0.1001 -0.1325
  261POPC   GL2 3437   5.124  10.784   3.981 -0.0420 -0.1934  0.0527
  261POPC   C1A 3438   4.781  10.537   4.268 -0.3516 -0.0321 -0.1543
  261POPC   D2A 3439   5.072  10.573   4.639 -0.3031  0.2497 -0.1613
  261POPC   C3A 3440   5.006  10.295   4.904  0.3045  0.1432 -0.1022
  261POPC   C4A 3441   4.942  10.288   5.356  0.1021  0.2567  0.0073
  261POPC   C1B 3442   5.394  10.879   4.280  0.2861 -0.0578 -0.1901
  261POPC   C2B 3443   5.589  10.740   4.648 -0.0742 -0.0212 -0.1348
  261POPC   C3B 3444   5.511  10.650   5.078  0.1176 -0.1422  0.1550
  261POPC   C4B 3445   5.261  10.682   5.397  0.2175  0.0632 -0.0142
  262POPC   NC3 3446   3.084   2.461   3.144  0.0562 -0.1529 -0.0573
  262POPC   PO4 3447   2.843   2.548   3.586 -0.0449 -0.2099 -0.0663
  262POPC   GL1 3448   2.616   2.532   4.008 -0.0959 -0.0972 -0.0037
  262POPC   GL2 3449   2.598   2.835   4.177  0.1116 -0.0595 -0.0718
  262POPC   C1A 3450   2.700   2.399   4.527 -0.0360 -0.2526 -0.1671
  262POPC   D2A 3451   2.488   2.237   4.802  0.0098 -0.1980  0.2713
  262POPC   C3A 3452   2.535   2.335   5.180 -0.0232  0.1769  0.1181
  262POPC   C4A 3453   2.561   2.557   5.470 -0.2181  0.0421 -0.2026
  262POPC   C1B 3454   2.719   2.869   4.695 -0.1186 -0.3013  0.1386
  262POPC   C2B 3455   2.894   2.622   5.027 -0.2479 -0.0278 -0.1635
  262POPC   C3B 3456   3.018   2.454   5.384 -0.0338 -0.1706  0.1093
  262POPC   C4B 3457   2.971   2.561   5.893 -0.1280 -0.2334  0.0825
  263POPC   NC3 3458   5.079   2.089   3.489 -0.0761  0.0037 -0.1658
  263POPC   PO4 3459   5.466   2.218   3.365 -0.5586  0.0696 -0.1365
  263POPC   GL1 3460   5.678   2.333   3.739 -0.3413  0.0866  0.2274
  263POPC   GL2 3461   6.040   2.331   3.794  0.2059  0.0935 -0.2636
  263POPC   C1A 3462   5.669   2.690   3.985 -0.0640 -0.2520 -0.0014
  263POPC   D2A 3463   5.898   2.870   4.396 -0.2937  0.0362 -0.2720
  263POPC   C3A 3464   6.152   3.241   4.347 -0.2885 -0.1224  0.0272
  263POPC   C4A 3465   6.469   3.457   4.191  0.0186  0.1130 -0.0892
  263POPC   C1B 3466   5.965   1.897   3.977  0.0015 -0.3254 -0.0745
  263POPC   C2B 3467   5.867   1.764   4.502  0.2744  0.7048  0.3059
  263POPC   C3B 3468   5.697   1.593   4.899  0.2428  0.1288  0.1942
  263POPC   C4B 3469   5.734   1.702   5.255  0.0321  0.0355 -0.1802
  264POPC   NC3 3470   9.559   8.863   4.174  0.2795 -0.0355 -0.1356
  264POPC   PO4 3471   9.402   9.205   4.065  0.1876 -0.0087  0.5303
  264POPC   GL1 3472   9.211   9.345   4.304  0.1015  0.0593  0.2589
  264POPC   GL2 3473   8.870   9.324   4.411 -0.0327 -0.0283 -0.0292
  264POPC   C1A 3474   9.383   9.690   4.632  0.2477  0.0991 -0.4634
  264POPC   D2A 3475   9.701   9.757   4.839  0.2083 -0.1475 -0.1203
  264POPC   C3A 3476   9.627  10.194   4.826  0.0062 -0.0362 -0.0867
  264POPC   C4A 3477   9.612  10.627   5.017  0.0742  0.0512 -0.1564
  264POPC   C1B 3478   8.570   9.328   4.706  0.0630 -0.0587 -0.2728
  264POPC   C2B 3479   8.507   9.514   5.057 -0.2546  0.4602  0.1492
  264POPC   C3B 3480   8.372   9.376   5.529 -0.1314  0.0723 -0.0722
  264POPC   C4B 3481   8.036   9.408   5.741  0.1079 -0.0144  0.0525
  265POPC   NC3 3482   2.246   6.907   3.991 -0.0899 -0.0858 -0.0013
  265POPC   PO4 3483   2.395   6.466   3.808 -0.3542 -0.1763 -0.2424
  265POPC   GL1 3484   2.550   6.539   4.260 -0.3301 -0.2193  0.1452
  265POPC   GL2 3485   2.879   6.412   4.275 -0.1212 -0.2753  0.1572
  265POPC   C1A 3486   2.516   6.660   4.680  0.1278  0.1139  0.1080
  265POPC   D2A 3487   2.788   6.754   4.985 -0.4340  0.1148  0.0819
  265POPC   C3A 3488   2.764   7.175   5.260 -0.2520 -0.2272 -0.0067
  265POPC   C4A 3489   2.824   7.167   5.723  0.0004  0.2708  0.1385
  265POPC   C1B 3490   2.847   6.308   4.658 -0.0210 -0.0082  0.3441
  265POPC   C2B 3491   3.122   5.958   4.880  0.2222  0.2727  0.2120
  265POPC   C3B 3492   3.072   5.860   5.255 -0.1305  0.3142 -0.2112
  265POPC   C4B 3493   2.939   5.701   5.682 -0.1868 -0.2096  0.0071
  266POPC   NC3 3494   0.406   4.915   3.426 -0.4589 -0.0972 -0.1615
  266POPC   PO4 3495   0.066   5.023   3.712  0.0976  0.1437 -0.0495
  266POPC   GL1 3496   0.112   5.016   4.196 -0.1747 -0.1223 -0.0631
  266POPC   GL2 3497  -0.136   4.889   4.457 -0.0711  0.2336  0.2643
  266POPC   C1A 3498   0.350   4.759   4.482  0.1092 -0.3428  0.0777
  266POPC   D2A 3499   0.654   4.583   4.663  0.3986  0.1534  0.1401
  266POPC   C3A 3500   0.618   4.343   5.050 -0.2031  0.2401  0.3481
  266POPC   C4A 3501   0.952   4.345   5.377  0.0427  0.2639  0.1251
  266POPC   C1B 3502  -0.053   4.803   4.868 -0.2450 -0.1507  0.2509
  266POPC   C2B 3503  -0.316   4.693   5.169 -0.0216  0.1780 -0.1195
  266POPC   C3B 3504  -0.452   4.401   5.582  0.0938  0.0354 -0.1372
  266POPC   C4B 3505  -0.608   4.422   6.010 -0.1451 -0.3350 -0.2293
  267POPC   NC3 3506   2.717   8.914   3.457  0.1174 -0.1708  0.0515
  267POPC   PO4 3507   2.402   9.227   3.710 -0.2457  0.1675 -0.2704
  267POPC   GL1 3508   2.600   9.285   4.029 -0.1592  0.1973  0.0111
  267POPC   GL2 3509   2.396   9.538   4.258  0.0620 -0.2382  0.0607
  267POPC   C1A 3510   2.636   9.023   4.451 -0.4709 -0.1944 -0.0827
  267POPC   D2A 3511   2.636   8.809   4.872  0.2279  0.1153  0.3430
  267POPC   C3A 3512   2.708   8.366   4.944  0.1446  0.0486  0.0693
  267POPC   C4A 3513   2.920   8.116   5.168 -0.3122  0.0603 -0.2216
  267POPC   C1B 3514   2.531   9.466   4.592 -0.1738 -0.0538  0.1039
  267POPC   C2B 3515   2.767   9.421   4.999 -0.0079  0.0711  0.0489
  267POPC   C3B 3516   2.820   9.447   5.481  0.1324  0.0641  0.0315
  267POPC   C4B 3517   2.565   9.482   5.870 -0.2291 -0.1384  0.1024
  268POPC   NC3 3518   4.755   0.853   3.819  0.2467  0.1024  0.0096
  268POPC   PO4 3519   4.367   0.642   3.724 -0.0393 -0.2419 -0.1417
  268POPC   GL1 3520   4.085   0.577   4.075  0.2125 -0.1038  0.0623
  268POPC   GL2 3521   3.878   0.814   4.128 -0.1142  0.2151  0.1892
  268POPC   C1A 3522   3.960   0.354   4.370  0.2006 -0.1640  0.1149
  268POPC   D2A 3523   3.706   0.154   4.691  0.0930 -0.0767 -0.1468
  268POPC   C3A 3524   3.698   0.159   5.166 -0.0846  0.0914  0.0980
  268POPC   C4A 3525   3.800   0.450   5.620 -0.0560  0.2915  0.1426
  268POPC   C1B 3526   4.153   0.875   4.475  0.3177  0.0510  0.0172
  268POPC   C2B 3527   4.456   0.924   4.643 -0.3233  0.3552  0.1025
  268POPC   C3B 3528   4.762   1.174   4.764 -0.1844 -0.1169  0.1284
  268POPC   C4B 3529   4.687   1.635   4.597  0.0633  0.1055  0.1557
  269POPC   NC3 3530   6.531   6.440   3.703 -0.0811  0.3167 -0.1064
  269POPC   PO4 3531   6.149   6.674   3.529 -0.0364 -0.1481 -0.0739
  269POPC   GL1 3532   6.135   6.750   3.984 -0.2888 -0.0762  0.2482
  269POPC   GL2 3533   5.956   6.474   4.010 -0.1392  0.0457 -0.0872
  269POPC   C1A 3534   6.003   6.960   4.343 -0.1400  0.2614 -0.2277
  269POPC   D2A 3535   5.999   6.919   4.882  0.0416 -0.2790  0.1563
  269POPC   C3A 3536   6.144   6.740   5.233  0.0313  0.2654  0.0086
  269POPC   C4A 3537   6.099   6.615   5.643  0.0297  0.1545 -0.0309
  269POPC   C1B 3538   5.797   6.497   4.468  0.1268  0.0765 -0.2692
  269POPC   C2B 3539   5.903   6.285   4.912  0.1028 -0.1813 -0.0058
  269POPC   C3B 3540   6.010   6.072   5.314  0.1084  0.1333 -0.1591
  269POPC   C4B 3541   6.106   5.942   5.722  0.0764  0.4528 -0.0393
  270POPC   NC3 3542   3.492   8.284   3.900 -0.0744  0.2420  0.2458
  270POPC   PO4 3543   3.633   8.649   3.817 -0.0634 -0.0611  0.2327
  270POPC   GL1 3544   3.731   8.770   4.226  0.3894  0.1075  0.3449
  270POPC   GL2 3545   3.729   8.431   4.299  0.1794 -0.3718  0.1068
  270POPC   C1A 3546   3.625   8.707   4.685 -0.2434 -0.1874 -0.2486
  270POPC   D2A 3547   3.528   8.919   5.077  0.2243 -0.0183 -0.1105
  270POPC   C3A 3548   3.521   8.782   5.468  0.1649 -0.0305 -0.0542
  270POPC   C4A 3549   3.200   8.965   5.695  0.0644  0.0682 -0.5325
  270POPC   C1B 3550   3.863   8.225   4.626 -0.4224  0.1235  0.0317
  270POPC   C2B 3551   3.823   8.018   5.034  0.0148  0.1880  0.1741
  270POPC   C3B 3552   3.996   8.125   5.385  0.0004 -0.2404 -0.2048
  270POPC   C4B 3553   3.743   8.386   5.703 -0.1597 -0.2910 -0.1263
  271POPC   NC3 3554   9.534   4.368   3.165  0.0619  0.0000  0.2883
  271POPC   PO4 3555   9.841   4.584   3.528 -0.0153 -0.1387 -0.1762
  271POPC   GL1 3556   9.762   4.571   4.037 -0.1097 -0.2440  0.2932
  271POPC   GL2 3557   9.351   4.577   4.162 -0.0655  0.2054  0.1386
  271POPC   C1A 3558   9.881   4.672   4.461  0.0014  0.1980  0.1837
  271POPC   D2A 3559  10.170   4.780   4.778 -0.2690  0.0528 -0.0396
  271POPC   C3A 3560  10.007   5.000   5.100  0.1447  0.3320  0.2031
  271POPC   C4A 3561  10.073   4.816   5.522  0.0154  0.1105 -0.5421
  271POPC   C1B 3562   9.329   4.613   4.635 -0.2029  0.0152 -0.0179
  271POPC   C2B 3563   9.133   4.698   5.078 -0.1562  0.0670  0.0215
  271POPC   C3B 3564   9.355   4.794   5.484 -0.1783  0.1480 -0.0531
  271POPC   C4B 3565   9.636   4.866   5.854 -0.1341 -0.0942  0.3887
  272POPC   NC3 3566   2.937  10.382   3.719 -0.1919  0.2958 -0.2524
  272POPC   PO4 3567   2.474  10.338   3.787 -0.1744  0.0935  0.5762
  272POPC   GL1 3568   2.513  10.084   4.115  0.0098 -0.0728 -0.1522
  272POPC   GL2 3569   2.164  10.025   4.274 -0.2397 -0.0731  0.0472
  272POPC   C1A 3570   2.597  10.052   4.538 -0.0810 -0.2583 -0.1423
  272POPC   D2A 3571   2.407   9.947   4.910 -0.0261 -0.2101 -0.1836
  272POPC   C3A 3572   2.412   9.739   5.316  0.1083 -0.1904  0.0867
  272POPC   C4A 3573   2.321   9.284   5.430 -0.0283 -0.2713  0.3726
  272POPC   C1B 3574   2.079   9.690   4.604 -0.1979  0.0796  0.0981
  272POPC   C2B 3575   2.044   9.540   4.966 -0.0566 -0.1923  0.1652
  272POPC   C3B 3576   2.285   9.172   4.952 -0.0538 -0.0280 -0.0053
  272POPC   C4B 3577   2.215   8.827   5.234 -0.0685 -0.2271 -0.0664
  273POPC   NC3 3578   6.099   8.388   3.866 -0.0807  0.0988 -0.0909
  273POPC   PO4 3579   6.463   8.664   3.709 -0.0550  0.3343  0.0487
  273POPC   GL1 3580   6.558   8.457   4.043 -0.2186 -0.2387 -0.0742
  273POPC   GL2 3581   6.558   8.586   4.407  0.0495  0.0164  0.0275
  273POPC   C1A 3582   6.505   8.055   4.239 -0.2549 -0.1341  0.1566
  273POPC   D2A 3583   6.489   7.913   4.711  0.0559  0.1694  0.2778
  273POPC   C3A 3584   6.799   7.959   4.951  0.1314 -0.0117  0.2239
  273POPC   C4A 3585   7.077   7.745   5.383 -0.0903  0.1253  0.1081
  273POPC   C1B 3586   6.109   8.356   4.628 -0.3014 -0.1175  0.0066
  273POPC   C2B 3587   5.879   8.337   5.032 -0.0715 -0.1543  0.1784
  273POPC   C3B 3588   5.884   8.327   5.355  0.0294 -0.1496  0.0698
  273POPC   C4B 3589   5.654   8.176   5.584 -0.4503  0.0447  0.0064
  274POPC   NC3 3590   3.510   5.719   3.613  0.0115  0.0456 -0.1926
  274POPC   PO4 3591   3.295   5.438   3.418  0.1019 -0.3121  0.1006
  274POPC   GL1 3592   3.339   5.349   3.859  0.1880  0.1300 -0.0039
  274POPC   GL2 3593   3.383   5.061   3.969 -0.4712 -0.1239 -0.1323
  274POPC   C1A 3594   3.100   5.426   4.156  0.0452  0.1040  0.3709
  274POPC   D2A 3595   2.611   5.494   4.160  0.1576  0.1994 -0.0970
  274POPC   C3A 3596   2.390   5.797   4.368  0.0714  0.1354  0.1981
  274POPC   C4A 3597   2.319   6.198   4.477  0.0945  0.0431 -0.0309
  274POPC   C1B 3598   3.289   4.848   4.294  0.1288 -0.2359 -0.4683
  274POPC   C2B 3599   3.284   4.696   4.623  0.0465 -0.2054  0.1864
  274POPC   C3B 3600   3.059   4.907   4.857  0.1000 -0.0185 -0.1571
  274POPC   C4B 3601   2.630   5.107   4.996  0.1718  0.2150 -0.2615
  275POPC   NC3 3602   5.262   0.694   3.536 -0.4170  0.0686 -0.0736
  275POPC   PO4 3603   5.069   1.082   3.546  0.1410  0.0428  0.2490
  275POPC   GL1 3604   5.247   1.059   3.970  0.1862 -0.2017  0.1383
  275POPC   GL2 3605   5.514   0.911   3.953 -0.2344 -0.0407 -0.6216
  275POPC   C1A 3606   5.170   1.174   4.408  0.0136  0.1601  0.2346
  275POPC   D2A 3607   5.329   1.157   4.763  0.0206  0.2425 -0.1162
  275POPC   C3A 3608   5.274   1.448   5.154 -0.0492 -0.5421 -0.4554
  275POPC   C4A 3609   5.215   1.850   5.261 -0.1495 -0.0340 -0.0268
  275POPC   C1B 3610   5.422   0.746   4.399  0.0342  0.1702  0.3066
  275POPC   C2B 3611   5.394   0.458   4.681  0.0248 -0.1690  0.0466
  275POPC   C3B 3612   5.491   0.438   5.098  0.1697  0.3944 -0.2226
  275POPC   C4B 3613   5.976   0.572   5.289 -0.4657  0.1836 -0.2613
  276POPC   NC3 3614   4.476   0.319   3.366  0.0763 -0.2984 -0.0510
  276POPC   PO4 3615   4.863   0.382   3.622 -0.3826  0.3760  0.0770
  276POPC   GL1 3616   4.675   0.340   4.032 -0.0923 -0.3851  0.1165
  276POPC   GL2 3617   4.609   0.633   4.202 -0.0081  0.1592 -0.0978
  276POPC   C1A 3618   4.875   0.250   4.423 -0.2618  0.0607  0.1276
  276POPC   D2A 3619   4.984   0.217   4.858 -0.5518 -0.0645 -0.2512
  276POPC   C3A 3620   4.649   0.346   5.143 -0.1398 -0.0474 -0.0966
  276POPC   C4A 3621   4.624   0.752   5.500  0.0408 -0.0858 -0.0375
  276POPC   C1B 3622   4.904   0.735   4.502 -0.5489 -0.0105  0.2987
  276POPC   C2B 3623   5.075   0.746   4.924 -0.3639  0.0830 -0.1544
  276POPC   C3B 3624   5.058   0.839   5.287 -0.0650 -0.0054 -0.2185
  276POPC   C4B 3625   5.052   0.401   5.421 -0.2371 -0.3637 -0.1507
  277POPC   NC3 3626   5.865   3.123   3.233 -0.1550 -0.1249 -0.1054
  277POPC   PO4 3627   5.632   3.605   3.402 -0.2349 -0.0435  0.0109
  277POPC   GL1 3628   5.369   3.513   3.739  0.1932  0.0185  0.0723
  277POPC   GL2 3629   5.619   3.727   3.895  0.2362  0.3117  0.1810
  277POPC   C1A 3630   5.212   3.516   4.209  0.5044  0.0350  0.1707
  277POPC   D2A 3631   5.163   3.621   4.630 -0.2082 -0.1886 -0.0512
  277POPC   C3A 3632   4.981   3.418   4.956 -0.0088 -0.4510 -0.0428
  277POPC   C4A 3633   4.665   3.126   4.927 -0.0820 -0.0546  0.0528
  277POPC   C1B 3634   5.686   3.620   4.297  0.2031 -0.0446  0.0288
  277POPC   C2B 3635   5.580   3.323   4.671  0.1031 -0.2585  0.1396
  277POPC   C3B 3636   5.550   3.256   5.131 -0.3113  0.1927  0.2048
  277POPC   C4B 3637   5.876   2.937   5.180 -0.1634  0.1145 -0.2281
  278POPC   NC3 3638   4.962   4.220   3.406  0.0388  0.0740 -0.2852
  278POPC   PO4 3639   5.291   3.946   3.558 -0.1768 -0.0887 -0.1465
  278POPC   GL1 3640   5.107   3.966   3.998 -0.0574  0.1830 -0.1721
  278POPC   GL2 3641   4.824   4.123   3.846 -0.1527 -0.0461  0.0187
  278POPC   C1A 3642   5.035   4.156   4.380  0.4208  0.1094 -0.0703
  278POPC   D2A 3643   5.060   4.167   4.790  0.0101  0.0316 -0.1192
  278POPC   C3A 3644   4.845   4.543   4.981  0.1369  0.1071 -0.0079
  278POPC   C4A 3645   4.862   4.596   5.427 -0.0019 -0.1683 -0.3223
  278POPC   C1B 3646   4.629   3.982   4.114 -0.0097 -0.1381  0.1553
  278POPC   C2B 3647   4.330   4.078   4.389  0.0669 -0.0754 -0.2690
  278POPC   C3B 3648   4.324   4.286   4.866  0.2277  0.0169 -0.0425
  278POPC   C4B 3649   4.389   4.460   5.253  0.0221  0.0906 -0.0523
  279POPC   NC3 3650  10.520   8.792   4.125 -0.1465  0.2059 -0.1474
  279POPC   PO4 3651  10.902   8.505   4.015  0.0447 -0.0698  0.4126
  279POPC   GL1 3652  11.046   8.474   4.431  0.0740 -0.2657 -0.0325
  279POPC   GL2 3653  11.312   8.609   4.454  0.3714  0.0532  0.0712
  279POPC   C1A 3654  11.098   8.289   4.845 -0.3649 -0.0916  0.4113
  279POPC   D2A 3655  10.936   8.301   5.148  0.3307 -0.2649 -0.1481
  279POPC   C3A 3656  11.265   8.260   5.509 -0.0224 -0.0344  0.1128
  279POPC   C4A 3657  11.381   7.745   5.595  0.1481 -0.1647  0.1692
  279POPC   C1B 3658  11.465   8.841   4.654 -0.2386  0.1159  0.0735
  279POPC   C2B 3659  11.544   8.742   5.102  0.2204  0.0717 -0.1430
  279POPC   C3B 3660  11.628   8.627   5.405  0.3635 -0.0029  0.2124
  279POPC   C4B 3661  11.585   8.538   5.877  0.0214  0.0271 -0.0790
  280POPC   NC3 3662  10.764   0.316   4.069 -0.3097 -0.0491 -0.1420
  280POPC   PO4 3663  10.476   0.162   4.237  0.2733 -0.2964 -0.1172
  280POPC   GL1 3664  10.370   0.143   4.657  0.1342  0.2861  0.2624
  280POPC   GL2 3665  10.029   0.343   4.526 -0.3206 -0.1876  0.2297
  280POPC   C1A 3666  10.561   0.218   5.014  0.1002  0.0758 -0.1308
  280POPC   D2A 3667  10.817   0.233   5.316 -0.1365  0.2360  0.0967
  280POPC   C3A 3668  11.181   0.440   5.223  0.0484 -0.1025  0.1649
  280POPC   C4A 3669  11.522   0.610   4.966  0.1644  0.2299 -0.3700
  280POPC   C1B 3670  10.148   0.625   4.867  0.4101  0.0346 -0.0710
  280POPC   C2B 3671  10.314   0.872   5.195 -0.2214  0.2697 -0.1033
  280POPC   C3B 3672  10.197   1.036   5.568 -0.0127  0.0558  0.2370
  280POPC   C4B 3673  10.136   1.314   6.001 -0.0203  0.0672  0.0629
  281POPC   NC3 3674   1.720   9.752   3.507 -0.1544 -0.1115  0.1215
  281POPC   PO4 3675   1.626   9.866   3.933  0.2121 -0.2115 -0.0688
  281POPC   GL1 3676   1.621   9.926   4.401  0.0828  0.2256  0.0511
  281POPC   GL2 3677   1.404  10.145   4.540  0.0575  0.6267 -0.1186
  281POPC   C1A 3678   1.936  10.119   4.747  0.1886 -0.2372 -0.0561
  281POPC   D2A 3679   1.703  10.080   5.122  0.1485  0.0485 -0.0973
  281POPC   C3A 3680   1.858  10.462   5.463  0.0829  0.0295  0.0025
  281POPC   C4A 3681   2.037  10.476   5.860  0.0459  0.3404  0.0413
  281POPC   C1B 3682   1.232  10.205   4.881  0.0392  0.2208 -0.1736
  281POPC   C2B 3683   1.360  10.401   5.174  0.0164  0.2214 -0.0805
  281POPC   C3B 3684   1.341  10.371   5.604  0.2558  0.0811 -0.3011
  281POPC   C4B 3685   1.479  10.545   5.955 -0.0208 -0.0456 -0.1470
  282POPC   NC3 3686  10.102   9.762   4.329  0.0418 -0.2878  0.0398
  282POPC   PO4 3687  10.465   9.787   4.462 -0.0068 -0.0585 -0.1857
  282POPC   GL1 3688  10.660   9.893   4.789 -0.2470 -0.0446 -0.2168
  282POPC   GL2 3689  10.848  10.147   4.773 -0.0089 -0.1337 -0.0193
  282POPC   C1A 3690  10.513   9.983   5.224 -0.2926  0.1261  0.1363
  282POPC   D2A 3691  10.353   9.811   5.523 -0.0523 -0.1925 -0.2318
  282POPC   C3A 3692  10.100   9.736   5.908  0.3913 -0.1491  0.1487
  282POPC   C4A 3693   9.960   9.647   6.362 -0.2350 -0.0079 -0.0196
  282POPC   C1B 3694  10.965  10.159   5.257  0.2105 -0.2843  0.1672
  282POPC   C2B 3695  10.985  10.565   5.459 -0.1110 -0.1591 -0.1051
  282POPC   C3B 3696  11.369  10.816   5.388 -0.2062  0.3077  0.0329
  282POPC   C4B 3697  11.795  10.784   5.697  0.0261 -0.4260 -0.1531
  283POPC   NC3 3698   5.205   8.655   3.847 -0.1800  0.1385 -0.3611
  283POPC   PO4 3699   4.869   8.910   4.140  0.2634  0.1069  0.0265
  283POPC   GL1 3700   5.168   8.732   4.361 -0.0042  0.1065  0.1418
  283POPC   GL2 3701   5.272   9.094   4.313  0.2951  0.4867  0.0184
  283POPC   C1A 3702   5.508   8.654   4.742  0.3052 -0.0031  0.0094
  283POPC   D2A 3703   5.753   8.795   5.031 -0.2014 -0.0008 -0.4086
  283POPC   C3A 3704   5.884   9.175   5.238  0.2093 -0.0966  0.2065
  283POPC   C4A 3705   5.996   9.471   5.522 -0.1199 -0.0283  0.2412
  283POPC   C1B 3706   5.088   9.147   4.682  0.0645  0.1251 -0.1399
  283POPC   C2B 3707   5.006   8.821   5.042  0.0841  0.1913 -0.1083
  283POPC   C3B 3708   4.873   8.405   5.125  0.2780  0.2461 -0.1118
  283POPC   C4B 3709   4.649   8.167   5.425 -0.0712  0.0905  0.1675
  284POPC   NC3 3710   2.338   9.763   3.799 -0.0432  0.3786  0.0533
  284POPC   PO4 3711   1.929   9.467   3.866  0.3823 -0.0619  0.1982
  284POPC   GL1 3712   2.081   9.120   4.119  0.1327  0.0147  0.2561
  284POPC   GL2 3713   1.890   9.232   4.439  0.0040 -0.1512  0.1746
  284POPC   C1A 3714   2.195   8.831   4.392  0.1898  0.1396 -0.0983
  284POPC   D2A 3715   2.182   8.662   4.775  0.1958 -0.2520 -0.0867
  284POPC   C3A 3716   2.098   8.209   4.913 -0.2394  0.1741 -0.0536
  284POPC   C4A 3717   1.851   7.954   5.142 -0.2596 -0.1047 -0.0024
  284POPC   C1B 3718   1.620   9.556   4.715 -0.0787  0.0010 -0.1143
  284POPC   C2B 3719   1.530   9.432   5.036  0.2371 -0.0660  0.3202
  284POPC   C3B 3720   1.778   9.618   5.348 -0.0857  0.0881 -0.0640
  284POPC   C4B 3721   1.928   9.914   5.588  0.0776  0.1384 -0.1187
  285POPC   NC3 3722   1.694  10.581   3.690  0.1203 -0.2353  0.3993
  285POPC   PO4 3723   1.649  11.083   3.621  0.1203 -0.0144 -0.1903
  285POPC   GL1 3724   1.965  10.918   3.999  0.2960  0.0141 -0.0296
  285POPC   GL2 3725   2.109  10.704   3.964  0.1945  0.2161  0.0404
  285POPC   C1A 3726   1.880  10.967   4.393 -0.0341  0.0703 -0.0900
  285POPC   D2A 3727   2.000  11.164   4.789 -0.1876 -0.0013 -0.0917
  285POPC   C3A 3728   2.458  11.315   4.775  0.4384  0.1905 -0.1978
  285POPC   C4A 3729   2.791  11.164   4.814  0.3415 -0.3985 -0.0856
  285POPC   C1B 3730   2.124  10.494   4.370 -0.3199 -0.0365  0.0355
  285POPC   C2B 3731   2.076  10.639   4.762  0.0112 -0.3281  0.1966
  285POPC   C3B 3732   2.098  10.590   5.082 -0.0925 -0.0148 -0.0808
  285POPC   C4B 3733   2.360  10.868   5.320  0.1891  0.0989  0.1025
  286POPC   NC3 3734   2.173   5.887   3.524  0.1424  0.1357 -0.0994
  286POPC   PO4 3735   2.439   5.634   3.355  0.2248 -0.4983 -0.0921
  286POPC   GL1 3736   2.296   5.349   3.703  0.1656  0.0464 -0.1630
  286POPC   GL2 3737   1.989   5.527   3.817  0.0339 -0.2221 -0.1972
  286POPC   C1A 3738   2.208   5.182   4.157  0.1428  0.0907 -0.4502
  286POPC   D2A 3739   2.374   5.144   4.494 -0.2197 -0.0958  0.1155
  286POPC   C3A 3740   2.567   4.741   4.680 -0.0494 -0.2333 -0.6440
  286POPC   C4A 3741   2.649   4.594   5.196  0.0457 -0.1034  0.1677
  286POPC   C1B 3742   1.883   5.559   4.208 -0.0677 -0.1575 -0.0508
  286POPC   C2B 3743   2.120   5.493   4.642 -0.2619 -0.1619 -0.2208
  286POPC   C3B 3744   2.335   5.502   4.982  0.0967 -0.0155 -0.2062
  286POPC   C4B 3745   2.695   5.554   5.281 -0.0548 -0.1560 -0.2793
  287POPC   NC3 3746   6.603   8.992   4.031 -0.1466  0.2806 -0.2133
  287POPC   PO4 3747   6.922   8.787   3.637  0.0933 -0.1032  0.1313
  287POPC   GL1 3748   7.123   8.535   3.930  0.2242  0.2489  0.4192
  287POPC   GL2 3749   7.162   8.705   4.233 -0.0462 -0.1589  0.1902
  287POPC   C1A 3750   6.999   8.293   4.257  0.0295 -0.1150  0.0672
  287POPC   D2A 3751   6.957   8.291   4.674 -0.1333 -0.2394  0.1167
  287POPC   C3A 3752   6.568   8.409   4.960  0.1156 -0.0013 -0.0833
  287POPC   C4A 3753   6.327   8.187   5.158 -0.2426 -0.0135 -0.2187
  287POPC   C1B 3754   6.889   8.824   4.641 -0.2744  0.1502 -0.1083
  287POPC   C2B 3755   6.743   8.897   5.053  0.1214 -0.2938 -0.0145
  287POPC   C3B 3756   6.951   8.841   5.520 -0.0919  0.1719 -0.2304
  287POPC   C4B 3757   6.782   8.612   5.904 -0.0763  0.2812 -0.0147
  288POPC   NC3 3758  10.116   1.829   3.285  0.0523 -0.2496 -0.1941
  288POPC   PO4 3759  10.007   1.355   3.342  0.1707 -0.2417 -0.4372
  288POPC   GL1 3760   9.799   1.384   3.772  0.0669  0.0770  0.5199
  288POPC   GL2 3761  10.033   1.578   3.884  0.2396  0.0445  0.0188
  288POPC   C1A 3762   9.742   1.185   4.192 -0.1589  0.0704 -0.0183
  288POPC   D2A 3763   9.923   0.949   4.470 -0.3902 -0.1724 -0.0527
  288POPC   C3A 3764   9.664   0.830   4.765  0.3310 -0.0072  0.0058
  288POPC   C4A 3765   9.326   0.783   5.171  0.0372  0.1995 -0.0533
  288POPC   C1B 3766  10.216   1.394   4.201  0.1315  0.2818  0.2636
  288POPC   C2B 3767  10.343   1.564   4.630 -0.2036 -0.0638  0.1626
  288POPC   C3B 3768  10.431   1.454   5.069  0.1951  0.0468 -0.1353
  288POPC   C4B 3769  10.409   1.543   5.619  0.1994 -0.0383 -0.1249
  289POPC   NC3 3770   7.623   3.953   3.336 -0.2941  0.1428  0.3376
  289POPC   PO4 3771   7.955   4.137   3.488  0.0031  0.3957 -0.2298
  289POPC   GL1 3772   7.858   4.017   3.853  0.0927  0.2846 -0.4066
  289POPC   GL2 3773   7.532   3.951   3.836 -0.0729 -0.0252 -0.0884
  289POPC   C1A 3774   8.093   3.617   4.015 -0.0897  0.0725  0.1425
  289POPC   D2A 3775   8.342   3.486   4.447  0.2489  0.1530  0.2802
  289POPC   C3A 3776   8.747   3.293   4.530 -0.2297  0.2639 -0.4075
  289POPC   C4A 3777   9.106   2.972   4.553 -0.2818 -0.1554 -0.0997
  289POPC   C1B 3778   7.416   4.023   4.199 -0.0153 -0.2127  0.0014
  289POPC   C2B 3779   7.274   3.941   4.619  0.0509 -0.1095  0.3390
  289POPC   C3B 3780   7.259   3.918   5.104  0.1217 -0.1020 -0.2914
  289POPC   C4B 3781   7.474   4.081   5.449  0.1080 -0.0388  0.2869
  290POPC   NC3 3782   3.960   2.566   3.030  0.1270  0.0321  0.0681
  290POPC   PO4 3783   4.095   2.416   3.459  0.0029 -0.2070  0.4250
  290POPC   GL1 3784   4.404   2.633   3.663  0.1080  0.4027  0.1144
  290POPC   GL2 3785   4.688   2.495   3.800  0.0736  0.1297 -0.1009
  290POPC   C1A 3786   4.469   2.873   4.074 -0.0412  0.2082  0.1918
  290POPC   D2A 3787   4.464   3.034   4.428 -0.1886 -0.1398  0.0988
  290POPC   C3A 3788   4.270   2.853   4.704 -0.0277  0.1277 -0.1676
  290POPC   C4A 3789   4.179   2.489   4.975  0.0431 -0.1782 -0.0418
  290POPC   C1B 3790   4.597   2.292   4.211  0.0481  0.0071  0.2028
  290POPC   C2B 3791   4.261   2.414   4.486  0.1915 -0.0926  0.1944
  290POPC   C3B 3792   3.813   2.312   4.653 -0.0440 -0.3080  0.1683
  290POPC   C4B 3793   3.489   2.065   4.731 -0.0241  0.1991 -0.0925
  291POPC   NC3 3794   4.013   7.438   3.595 -0.2740  0.2335  0.1826
  291POPC   PO4 3795   4.134   7.110   3.512 -0.0334 -0.0991  0.0578
  291POPC   GL1 3796   4.254   6.960   3.930 -0.2432  0.1701  0.0241
  291POPC   GL2 3797   4.127   6.729   3.901 -0.3598 -0.0601 -0.0550
  291POPC   C1A 3798   4.366   7.156   4.396  0.0494  0.0519 -0.1375
  291POPC   D2A 3799   4.559   7.379   4.790 -0.3675 -0.0326 -0.1184
  291POPC   C3A 3800   4.905   7.404   5.197  0.5708 -0.0308  0.1161
  291POPC   C4A 3801   4.941   7.250   5.506  0.0944 -0.1898 -0.2563
  291POPC   C1B 3802   4.083   6.636   4.382  0.2269  0.1386 -0.0608
  291POPC   C2B 3803   4.080   6.496   4.798  0.1355  0.0802 -0.2049
  291POPC   C3B 3804   4.039   6.246   5.208 -0.0229 -0.1893  0.5195
  291POPC   C4B 3805   3.874   6.404   5.665  0.0355  0.0657 -0.3883
  292POPC   NC3 3806   0.071   3.505   3.492 -0.0778  0.0733  0.1045
  292POPC   PO4 3807   0.382   3.868   3.294  0.1219  0.0712 -0.3456
  292POPC   GL1 3808   0.522   3.856   3.647 -0.1392 -0.0316  0.2604
  292POPC   GL2 3809   0.451   3.559   3.792 -0.2373 -0.3088  0.0472
  292POPC   C1A 3810   0.634   4.009   3.985 -0.1065 -0.0823 -0.0493
  292POPC   D2A 3811   1.019   3.978   4.278  0.1858 -0.0401 -0.0859
  292POPC   C3A 3812   1.026   4.059   4.752 -0.0650  0.3573  0.1714
  292POPC   C4A 3813   1.232   4.244   4.988  0.1701 -0.3431  0.0658
  292POPC   C1B 3814   0.178   3.822   4.122  0.2253  0.0057 -0.0755
  292POPC   C2B 3815  -0.030   3.858   4.486  0.0874 -0.1627 -0.1650
  292POPC   C3B 3816   0.008   3.805   4.947  0.2420  0.2420 -0.0311
  292POPC   C4B 3817  -0.207   3.492   5.174  0.0371  0.0383 -0.0136
  293POPC   NC3 3818   4.346   1.094   3.459  0.0666 -0.1470 -0.3263
  293POPC   PO4 3819   4.259   1.108   3.886  0.0810  0.1077  0.1000
  293POPC   GL1 3820   4.108   1.371   4.255 -0.0882  0.0659 -0.1927
  293POPC   GL2 3821   3.790   1.560   4.243  0.1458 -0.1181  0.1092
  293POPC   C1A 3822   4.187   1.366   4.756 -0.1223  0.1845 -0.1317
  293POPC   D2A 3823   4.446   1.492   5.006 -0.0614 -0.4747 -0.1744
  293POPC   C3A 3824   4.245   1.639   5.383  0.1257 -0.1651 -0.0154
  293POPC   C4A 3825   4.209   1.423   5.726  0.1009 -0.3512  0.0409
  293POPC   C1B 3826   3.718   1.617   4.712 -0.0113 -0.0967  0.5936
  293POPC   C2B 3827   3.854   1.490   5.137 -0.2160 -0.2516 -0.2887
  293POPC   C3B 3828   3.703   1.675   5.475 -0.2796  0.0996  0.0563
  293POPC   C4B 3829   3.717   1.412   5.877  0.1657  0.0546  0.2289
  294POPC   NC3 3830  10.558   4.251   3.131  0.2332 -0.0548  0.1167
  294POPC   PO4 3831  10.516   3.840   3.266  0.2041 -0.0553  0.0236
  294POPC   GL1 3832  10.721   4.080   3.613  0.1337  0.0806  0.0660
  294POPC   GL2 3833  10.993   4.230   3.744  0.1036  0.1642 -0.0729
  294POPC   C1A 3834  10.543   4.161   3.986  0.2179 -0.2486  0.1258
  294POPC   D2A 3835  10.318   4.478   4.336  0.1139 -0.0921 -0.1007
  294POPC   C3A 3836  10.423   4.328   4.799 -0.1288 -0.0131 -0.0133
  294POPC   C4A 3837  10.563   4.226   5.211  0.2018 -0.1760 -0.2265
  294POPC   C1B 3838  10.992   4.406   4.126 -0.2895 -0.0709  0.1756
  294POPC   C2B 3839  10.899   4.348   4.413  0.2807  0.1224  0.0915
  294POPC   C3B 3840  10.924   4.311   4.860 -0.1189 -0.2419 -0.0312
  294POPC   C4B 3841  11.074   4.044   5.231 -0.1444 -0.0298 -0.1893
  295POPC   NC3 3842   3.297   5.364   2.873 -0.1943 -0.0260  0.0135
  295POPC   PO4 3843   3.094   5.010   3.019  0.3777  0.0180  0.3050
  295POPC   GL1 3844   3.179   4.913   3.520  0.1857  0.0106  0.1976
  295POPC   GL2 3845   3.375   4.699   3.538  0.2279 -0.0857  0.1965
  295POPC   C1A 3846   2.814   4.931   3.880  0.1192  0.6066  0.1421
  295POPC   D2A 3847   2.646   4.840   4.178 -0.2772 -0.0769 -0.0565
  295POPC   C3A 3848   2.848   5.124   4.421  0.6497 -0.4121 -0.0217
  295POPC   C4A 3849   3.261   5.248   4.597  0.1420  0.0883  0.0591
  295POPC   C1B 3850   3.490   4.554   3.972 -0.1261 -0.0649 -0.1489
  295POPC   C2B 3851   3.715   4.603   4.406 -0.1548  0.2592 -0.1455
  295POPC   C3B 3852   3.725   4.943   4.663 -0.1621  0.1968 -0.1217
  295POPC   C4B 3853   3.931   5.227   4.628  0.1047  0.2352 -0.3246
  296POPC   NC3 3854   0.198   2.058   3.638  0.2983  0.0854 -0.0945
  296POPC   PO4 3855  -0.229   2.074   3.558 -0.0178 -0.2588 -0.0498
  296POPC   GL1 3856  -0.371   2.163   4.019 -0.0414  0.0822 -0.1195
  296POPC   GL2 3857  -0.345   2.388   4.193  0.1186 -0.1358 -0.1619
  296POPC   C1A 3858  -0.650   1.979   4.291 -0.2299  0.2330  0.1498
  296POPC   D2A 3859  -0.927   1.647   4.375  0.0676  0.2877  0.0860
  296POPC   C3A 3860  -1.404   1.510   4.197  0.0645 -0.0603 -0.1080
  296POPC   C4A 3861  -1.743   1.672   3.982  0.1472  0.0725  0.2824
  296POPC   C1B 3862  -0.584   2.492   4.565  0.2998 -0.1013  0.0748
  296POPC   C2B 3863  -0.750   2.628   4.994 -0.0663  0.0399  0.0295
  296POPC   C3B 3864  -0.770   2.771   5.367 -0.1199  0.1321 -0.1695
  296POPC   C4B 3865  -0.890   2.699   5.881  0.1683 -0.1172  0.1450
  297POPC   NC3 3866   8.855   7.619   3.932 -0.0702  0.2338 -0.1757
  297POPC   PO4 3867   9.105   7.172   3.842  0.2157 -0.1335  0.1130
  297POPC   GL1 3868   9.086   7.236   4.361 -0.1222  0.1454 -0.6401
  297POPC   GL2 3869   8.938   7.551   4.551  0.2913 -0.1131 -0.2298
  297POPC   C1A 3870   9.410   7.180   4.833  0.2369  0.2798 -0.2781
  297POPC   D2A 3871   9.105   6.929   5.170  0.1328  0.1257  0.0630
  297POPC   C3A 3872   8.864   7.263   5.463  0.1814 -0.0387 -0.2064
  297POPC   C4A 3873   8.406   7.439   5.659  0.0457  0.2447 -0.1201
  297POPC   C1B 3874   8.731   7.212   4.848  0.3066  0.0068  0.2260
  297POPC   C2B 3875   8.611   6.841   4.899  0.3366  0.0709  0.0401
  297POPC   C3B 3876   8.619   6.864   5.380  0.0256 -0.0612 -0.0387
  297POPC   C4B 3877   8.753   6.937   5.800  0.0788  0.2662 -0.0012
  298POPC   NC3 3878   2.074   8.317   3.666 -0.0094 -0.1518  0.1205
  298POPC   PO4 3879   2.368   8.638   3.616  0.1944 -0.0374  0.0284
  298POPC   GL1 3880   2.523   8.741   3.969 -0.0860 -0.0860 -0.2841
  298POPC   GL2 3881   2.874   8.901   3.933 -0.3101  0.0791  0.1935
  298POPC   C1A 3882   2.618   8.496   4.383 -0.0596 -0.1144  0.3389
  298POPC   D2A 3883   3.055   8.496   4.598 -0.2261  0.0849 -0.2017
  298POPC   C3A 3884   3.115   8.606   5.036 -0.1128  0.1991  0.1266
  298POPC   C4A 3885   3.154   8.469   5.510  0.3315 -0.0612 -0.1281
  298POPC   C1B 3886   3.140   8.950   4.356  0.2915  0.1282 -0.0489
  298POPC   C2B 3887   3.090   9.122   4.793 -0.1008 -0.1765 -0.0974
  298POPC   C3B 3888   3.187   9.279   5.241 -0.2412 -0.0782 -0.0351
  298POPC   C4B 3889   3.343   9.681   5.415 -0.0218  0.0094 -0.3135
  299POPC   NC3 3890   0.686   0.526   3.848 -0.0200  0.2154 -0.1906
  299POPC   PO4 3891   1.118   0.546   3.749 -0.2298 -0.2934  0.0572
  299POPC   GL1 3892   1.044   0.524   4.287 -0.0102  0.1274  0.0196
  299POPC   GL2 3893   0.839   0.831   4.255 -0.1511 -0.0539  0.0928
  299POPC   C1A 3894   0.927   0.278   4.675  0.0372  0.3106 -0.0975
  299POPC   D2A 3895   1.057   0.201   5.081  0.0002  0.1043  0.0076
  299POPC   C3A 3896   1.081   0.419   5.329  0.3429  0.1129 -0.0289
  299POPC   C4A 3897   1.292   0.551   5.608  0.0163 -0.4387  0.3314
  299POPC   C1B 3898   0.874   1.023   4.716 -0.0371 -0.1946  0.2619
  299POPC   C2B 3899   0.934   1.484   4.838  0.0471 -0.1690 -0.2419
  299POPC   C3B 3900   0.657   1.807   5.036 -0.3820  0.2214  0.2211
  299POPC   C4B 3901   0.449   1.777   5.395  0.2209  0.0105 -0.0542
  300POPC   NC3 3902   6.108   0.741   3.065 -0.4417  0.0996 -0.1195
  300POPC   PO4 3903   5.848   0.428   3.408 -0.0280  0.1342  0.0307
  300POPC   GL1 3904   5.966   0.310   3.780 -0.0971  0.2117  0.0787
  300POPC   GL2 3905   5.648   0.016   3.848 -0.1449 -0.1812  0.1969
  300POPC   C1A 3906   5.799   0.421   4.177  0.2243  0.2420 -0.2003
  300POPC   D2A 3907   5.873   0.556   4.632 -0.0107 -0.0477  0.0930
  300POPC   C3A 3908   5.727   0.858   4.884 -0.4240  0.1719  0.1453
  300POPC   C4A 3909   5.724   1.182   5.186  0.1386  0.1026  0.1411
  300POPC   C1B 3910   5.904  -0.030   4.209  0.1556 -0.1832  0.3157
  300POPC   C2B 3911   6.134   0.094   4.578  0.1853 -0.1194 -0.0380
  300POPC   C3B 3912   6.027   0.093   4.984  0.0407  0.0585  0.0829
  300POPC   C4B 3913   5.881   0.071   5.417 -0.0899  0.0910 -0.1093
  301POPC   NC3 3914  10.379   8.742   3.638 -0.0006  0.0615  0.1058
  301POPC   PO4 3915  10.052   8.909   3.922  0.0134 -0.0051  0.1819
  301POPC   GL1 3916   9.989   8.966   4.421  0.1852  0.2413  0.1239
  301POPC   GL2 3917  10.184   8.823   4.610  0.3690 -0.0381 -0.0990
  301POPC   C1A 3918   9.793   9.043   4.811 -0.3604 -0.0393 -0.0892
  301POPC   D2A 3919   9.783   9.140   5.300  0.2763  0.1066 -0.3012
  301POPC   C3A 3920   9.415   8.941   5.521 -0.0310  0.3306  0.3852
  301POPC   C4A 3921   9.036   8.951   5.679 -0.3661  0.0153 -0.2081
  301POPC   C1B 3922  10.239   8.987   5.117  0.1584 -0.4726  0.3031
  301POPC   C2B 3923  10.096   8.875   5.552 -0.1015  0.0833  0.1130
  301POPC   C3B 3924  10.442   8.877   5.784 -0.0145  0.0990 -0.3038
  301POPC   C4B 3925  10.801   8.872   5.854  0.1905 -0.0123 -0.0712
  302POPC   NC3 3926   4.302   0.121   3.846  0.2713 -0.1368 -0.1587
  302POPC   PO4 3927   3.911  -0.010   3.627 -0.0304  0.2040  0.2628
  302POPC   GL1 3928   3.993  -0.125   4.155  0.0323 -0.0867  0.1215
  302POPC   GL2 3929   4.328  -0.029   4.318  0.0891  0.0921 -0.0593
  302POPC   C1A 3930   3.966  -0.218   4.629  0.1759  0.3019  0.0636
  302POPC   D2A 3931   4.140  -0.404   4.994  0.1010 -0.0095 -0.1383
  302POPC   C3A 3932   4.129  -0.222   5.371  0.2390  0.1167 -0.0033
  302POPC   C4A 3933   4.200   0.167   5.172 -0.0021 -0.0224 -0.0414
  302POPC   C1B 3934   4.488  -0.158   4.697 -0.0715 -0.3825  0.1683
  302POPC   C2B 3935   4.571  -0.160   5.072 -0.1159 -0.0282  0.1623
  302POPC   C3B 3936   4.698  -0.048   5.382 -0.1501  0.1466 -0.1170
  302POPC   C4B 3937   4.902  -0.018   5.815  0.2713 -0.0363 -0.2375
  303POPC   NC3 3938   8.152   6.272   2.942  0.3053 -0.3764  0.0351
  303POPC   PO4 3939   8.251   6.279   3.421  0.3160 -0.0086  0.1453
  303POPC   GL1 3940   8.099   6.204   3.841 -0.0337 -0.1004 -0.1980
  303POPC   GL2 3941   8.100   6.393   4.076 -0.0441 -0.4437 -0.1992
  303POPC   C1A 3942   8.213   5.955   4.317  0.1669 -0.1208  0.1492
  303POPC   D2A 3943   8.462   6.186   4.575 -0.0790  0.2569 -0.1803
  303POPC   C3A 3944   8.299   6.097   4.882  0.0077  0.0934  0.2142
  303POPC   C4A 3945   7.958   5.922   5.013  0.2636 -0.1027 -0.0498
  303POPC   C1B 3946   7.947   6.267   4.595  0.1838 -0.0680 -0.1765
  303POPC   C2B 3947   7.742   6.410   4.926 -0.0646  0.2602  0.1980
  303POPC   C3B 3948   7.813   6.842   4.950 -0.1242 -0.2388  0.0432
  303POPC   C4B 3949   7.800   7.216   4.837 -0.0442  0.0101  0.1506
  304POPC   NC3 3950   5.319   1.163   3.111  0.2587  0.0457 -0.0314
  304POPC   PO4 3951   5.193   1.527   3.302  0.2449 -0.2492 -0.0659
  304POPC   GL1 3952   5.230   1.571   3.634  0.2196 -0.1785 -0.0334
  304POPC   GL2 3953   5.460   1.865   3.785 -0.1048 -0.0415 -0.3082
  304POPC   C1A 3954   5.292   1.608   4.155 -0.0393 -0.0723 -0.0548
  304POPC   D2A 3955   5.313   1.663   4.600 -0.1150 -0.3361  0.0971
  304POPC   C3A 3956   5.468   2.080   4.844 -0.0429  0.1769 -0.1232
  304POPC   C4A 3957   5.882   2.105   4.887  0.2335  0.0036 -0.1991
  304POPC   C1B 3958   5.511   2.062   4.260 -0.2239 -0.1582  0.0906
  304POPC   C2B 3959   5.482   2.482   4.504  0.3258  0.0930  0.0436
  304POPC   C3B 3960   5.480   2.827   4.786  0.1523  0.3264  0.1709
  304POPC   C4B 3961   5.132   2.951   5.049 -0.1003  0.1023 -0.0572
  305POPC   NC3 3962   7.381  10.113   3.779  0.2159 -0.2090  0.1057
  305POPC   PO4 3963   7.784  10.275   3.885 -0.0173 -0.0551  0.1064
  305POPC   GL1 3964   7.966  10.415   4.321 -0.2320 -0.0439  0.0102
  305POPC   GL2 3965   8.241  10.391   4.392  0.1600  0.1030 -0.0020
  305POPC   C1A 3966   7.832  10.116   4.654 -0.3884 -0.0697  0.4527
  305POPC   D2A 3967   7.582   9.864   4.910  0.2463  0.0988 -0.3251
  305POPC   C3A 3968   7.376   9.509   5.062 -0.2404  0.0170  0.1412
  305POPC   C4A 3969   7.413   9.035   5.309 -0.0826  0.2788  0.0453
  305POPC   C1B 3970   8.211  10.388   4.846  0.3129 -0.0724 -0.0375
  305POPC   C2B 3971   7.894  10.215   5.176 -0.0469  0.0473  0.2384
  305POPC   C3B 3972   7.684  10.153   5.599 -0.1926 -0.0194 -0.0909
  305POPC   C4B 3973   7.742   9.830   5.964  0.0365  0.0163  0.2366
  306POPC   NC3 3974  10.640   5.813   3.515 -0.0388 -0.2709  0.3409
  306POPC   PO4 3975  10.870   5.990   3.946  0.0833 -0.4510 -0.0248
  306POPC   GL1 3976  10.931   6.086   4.367  0.2439 -0.1645 -0.0663
  306POPC   GL2 3977  11.224   6.100   4.398  0.1479 -0.0722  0.2213
  306POPC   C1A 3978  10.991   6.316   4.785  0.0395  0.0738 -0.0831
  306POPC   D2A 3979  11.268   6.536   4.971 -0.0515  0.0136  0.1578
  306POPC   C3A 3980  11.223   6.734   5.319  0.1522  0.2396  0.1228
  306POPC   C4A 3981  11.086   6.665   5.690 -0.1286  0.0052 -0.0229
  306POPC   C1B 3982  11.467   6.128   4.742  0.0427 -0.0142  0.2906
  306POPC   C2B 3983  11.855   6.022   4.973  0.0779  0.0285  0.0011
  306POPC   C3B 3984  12.035   6.008   5.303 -0.3225  0.0449 -0.1356
  306POPC   C4B 3985  12.452   5.787   5.424 -0.3654 -0.1053  0.2371
  307POPC   NC3 3986   3.847   6.204   3.848  0.3110 -0.0149  0.3321
  307POPC   PO4 3987   4.277   6.319   3.701 -0.1680  0.0932  0.0823
  307POPC   GL1 3988   4.327   6.261   4.194  0.0882  0.1424 -0.0616
  307POPC   GL2 3989   4.558   6.497   4.299 -0.2253 -0.2428 -0.0653
  307POPC   C1A 3990   4.173   6.071   4.572  0.1581  0.2892  0.1111
  307POPC   D2A 3991   4.044   5.726   4.824 -0.1599  0.0741  0.1742
  307POPC   C3A 3992   4.348   5.515   4.981 -0.1028  0.2136 -0.2939
  307POPC   C4A 3993   4.008   5.278   5.293 -0.1610 -0.0429  0.0010
  307POPC   C1B 3994   4.822   6.330   4.668  0.0209 -0.0727 -0.1847
  307POPC   C2B 3995   5.016   6.582   5.009 -0.2839 -0.2451 -0.2115
  307POPC   C3B 3996   4.692   6.901   5.214 -0.1031  0.1330  0.2315
  307POPC   C4B 3997   4.485   7.240   5.384 -0.0585 -0.1066  0.2042
  308POPC   NC3 3998   9.396   3.849   3.525  0.0606 -0.0879  0.0124
  308POPC   PO4 3999   8.969   4.158   3.472 -0.3188 -0.2544 -0.1963
  308POPC   GL1 4000   8.963   4.080   3.829  0.2107 -0.1749 -0.0071
  308POPC   GL2 4001   9.199   3.932   3.978 -0.0247  0.2464  0.1894
  308POPC   C1A 4002   8.867   4.335   4.192 -0.2865  0.2143 -0.1643
  308POPC   D2A 4003   8.909   4.350   4.664 -0.0050  0.0271 -0.1966
  308POPC   C3A 4004   8.975   4.013   4.933 -0.0116 -0.0981 -0.0055
  308POPC   C4A 4005   9.071   3.756   5.257  0.1181  0.2285  0.0406
  308POPC   C1B 4006   9.198   3.993   4.394  0.0038 -0.2184  0.0444
  308POPC   C2B 4007   9.406   4.121   4.795  0.0120 -0.0727  0.1932
  308POPC   C3B 4008   9.489   4.163   5.216  0.3059 -0.0649  0.2952
  308POPC   C4B 4009   9.353   4.110   5.620  0.0037 -0.2806 -0.0458
  309POPC   NC3 4010   5.354  10.486   3.591 -0.1765 -0.1903  0.3699
  309POPC   PO4 4011   5.408  10.028   3.528  0.0415 -0.0245  0.0293
  309POPC   GL1 4012   5.603  10.287   3.957  0.1190  0.2669 -0.3732
  309POPC   GL2 4013   5.498  10.401   4.233 -0.0120  0.0161  0.1286
  309POPC   C1A 4014   5.951  10.066   4.233  0.2113  0.0349 -0.0531
  309POPC   D2A 4015   5.976  10.373   4.605 -0.0347 -0.1881  0.1167
  309POPC   C3A 4016   5.941  10.356   5.105  0.2253 -0.0182 -0.0466
  309POPC   C4A 4017   5.947  10.394   5.629  0.2932 -0.2590 -0.2322
  309POPC   C1B 4018   5.539  10.192   4.647  0.1240 -0.4200 -0.3073
  309POPC   C2B 4019   5.422  10.019   5.035 -0.2462 -0.1447 -0.0923
  309POPC   C3B 4020   5.514  10.198   5.408  0.0005  0.1127  0.0579
  309POPC   C4B 4021   5.590   9.951   5.775  0.2826  0.0106  0.2017
  310POPC   NC3 4022  10.062   6.231   3.181 -0.0074  0.1660 -0.2139
  310POPC   PO4 4023  10.294   6.205   3.607 -0.1627 -0.1090 -0.0856
  310POPC   GL1 4024  10.241   6.445   4.047  0.2517  0.0736 -0.1143
  310POPC   GL2 4025  10.501   6.330   4.236  0.0484 -0.0760 -0.0390
  310POPC   C1A 4026  10.172   6.569   4.537 -0.1585 -0.0155  0.2533
  310POPC   D2A 4027  10.028   6.902   4.881  0.0181 -0.1854  0.2661
  310POPC   C3A 4028  10.427   7.032   5.139  0.0022 -0.0338 -0.0290
  310POPC   C4A 4029  10.761   6.977   5.347  0.3467 -0.0066  0.4102
  310POPC   C1B 4030  10.440   6.048   4.539 -0.5446 -0.0164 -0.4292
  310POPC   C2B 4031  10.604   6.092   4.962  0.1866 -0.1293 -0.1580
  310POPC   C3B 4032  10.772   6.520   5.146 -0.2280 -0.3533 -0.2038
  310POPC   C4B 4033  10.971   6.916   4.888 -0.2002  0.0930  0.2511
  311POPC   NC3 4034   2.048   0.676   3.764  0.3559  0.0090 -0.1837
  311POPC   PO4 4035   2.378   0.830   3.760  0.0201  0.1385  0.1822
  311POPC   GL1 4036   2.327   0.841   4.176  0.1460 -0.2748  0.0484
  311POPC   GL2 4037   2.016   0.702   4.277  0.2688 -0.3031  0.2245
  311POPC   C1A 4038   2.480   0.982   4.569  0.2181 -0.2842  0.1126
  311POPC   D2A 4039   2.811   1.185   4.710 -0.1046  0.2022  0.1386
  311POPC   C3A 4040   2.967   1.567   4.847 -0.0158 -0.1642 -0.1456
  311POPC   C4A 4041   3.285   1.673   5.092 -0.1836 -0.1313 -0.3664
  311POPC   C1B 4042   1.619   0.616   4.558  0.4945 -0.3229 -0.1886
  311POPC   C2B 4043   1.245   0.687   4.792  0.0562  0.1389 -0.0241
  311POPC   C3B 4044   1.115   0.890   5.127 -0.2097  0.0244  0.1131
  311POPC   C4B 4045   0.959   0.945   5.375 -0.0252 -0.0820  0.1980
  312POPC   NC3 4046   7.624   5.280   3.708  0.2282 -0.1343 -0.0799
  312POPC   PO4 4047   7.394   4.906   3.681  0.0561  0.0260 -0.1170
  312POPC   GL1 4048   7.232   5.036   4.092  0.2133  0.1628  0.0927
  312POPC   GL2 4049   7.263   5.328   4.036 -0.1431  0.0672  0.3102
  312POPC   C1A 4050   7.116   4.884   4.458 -0.0005  0.0093  0.0644
  312POPC   D2A 4051   7.165   4.851   4.966 -0.0313 -0.3216  0.1917
  312POPC   C3A 4052   6.735   5.084   4.977  0.0864 -0.1236  0.0287
  312POPC   C4A 4053   6.592   5.462   4.916  0.3832  0.3299 -0.0164
  312POPC   C1B 4054   7.535   5.227   4.467 -0.3507  0.0159 -0.1072
  312POPC   C2B 4055   7.734   5.246   4.876  0.0259 -0.2695  0.2346
  312POPC   C3B 4056   7.762   5.126   5.299  0.1010 -0.0269  0.0479
  312POPC   C4B 4057   8.027   4.927   5.596  0.2800  0.2680 -0.2584
  313POPC   NC3 4058   2.708   0.315   3.336 -0.0376 -0.2343  0.1152
  313POPC   PO4 4059   2.646   0.036   3.630 -0.1328 -0.0363 -0.3617
  313POPC   GL1 4060   2.707  -0.001   3.966 -0.2171  0.0086 -0.3824
  313POPC   GL2 4061   2.587  -0.159   4.194 -0.3018 -0.2332 -0.1697
  313POPC   C1A 4062   2.974   0.147   4.242 -0.3059 -0.2332 -0.0068
  313POPC   D2A 4063   3.173   0.177   4.622 -0.3688  0.1202 -0.1162
  313POPC   C3A 4064   3.200   0.349   5.033  0.1035 -0.1723 -0.2895
  313POPC   C4A 4065   3.342   0.516   5.430  0.0795 -0.0801 -0.1293
  313POPC   C1B 4066   2.908  -0.242   4.503 -0.0269  0.4981  0.4260
  313POPC   C2B 4067   3.048  -0.505   4.850 -0.1601 -0.1717 -0.1213
  313POPC   C3B 4068   2.877  -0.824   5.209 -0.0471  0.0891 -0.2780
  313POPC   C4B 4069   2.924  -0.779   5.677  0.0860  0.0879 -0.2499
  314POPC   NC3 4070   2.969   9.425   3.681 -0.1801  0.1601 -0.2367
  314POPC   PO4 4071   2.741   9.892   3.606  0.0377  0.1419 -0.3307
  314POPC   GL1 4072   2.871   9.762   4.097 -0.0160  0.2507 -0.1431
  314POPC   GL2 4073   3.028   9.396   4.254  0.1101  0.1330  0.1025
  314POPC   C1A 4074   2.968   9.769   4.646  0.3761 -0.5044  0.0267
  314POPC   D2A 4075   3.221   9.733   4.968 -0.2170  0.0987 -0.1984
  314POPC   C3A 4076   3.361  10.123   5.248 -0.0960 -0.2980  0.2768
  314POPC   C4A 4077   3.642  10.340   5.393  0.2160 -0.0444 -0.2956
  314POPC   C1B 4078   3.404   9.434   4.574  0.2426  0.1405  0.0986
  314POPC   C2B 4079   3.611   9.401   4.961 -0.2327 -0.0487  0.3043
  314POPC   C3B 4080   3.723   9.329   5.365 -0.1978  0.2238  0.0403
  314POPC   C4B 4081   3.614   9.199   5.753 -0.0421  0.2216 -0.0059
  315POPC   NC3 4082   9.267   6.735   3.705  0.1408  0.1839 -0.0594
  315POPC   PO4 4083   9.161   6.430   4.055 -0.3415 -0.0999 -0.0846
  315POPC   GL1 4084   9.045   6.169   4.393  0.4929  0.0189 -0.1888
  315POPC   GL2 4085   9.138   5.868   4.355 -0.4445 -0.1262  0.3231
  315POPC   C1A 4086   8.901   6.123   4.835 -0.0385  0.1844 -0.1146
  315POPC   D2A 4087   8.707   5.809   5.031  0.1710  0.1054 -0.1436
  315POPC   C3A 4088   8.500   5.900   5.331 -0.0402  0.2901 -0.1752
  315POPC   C4A 4089   8.101   6.127   5.455  0.0604 -0.1688  0.1122
  315POPC   C1B 4090   9.180   5.629   4.736 -0.1490 -0.1455  0.2039
  315POPC   C2B 4091   9.205   5.709   5.182 -0.0470 -0.1231 -0.0214
  315POPC   C3B 4092   9.110   5.889   5.550 -0.0534  0.0664 -0.1240
  315POPC   C4B 4093   8.814   6.027   5.677 -0.1164  0.0250  0.2918
  316POPC   NC3 4094   8.117   8.563   3.894  0.0731  0.1696 -0.3433
  316POPC   PO4 4095   7.788   8.284   3.984 -0.1465  0.1549  0.2699
  316POPC   GL1 4096   7.760   8.511   4.371  0.0001  0.1390 -0.0274
  316POPC   GL2 4097   8.090   8.585   4.429 -0.0008  0.1105 -0.0333
  316POPC   C1A 4098   7.412   8.521   4.695 -0.1767 -0.1308 -0.0954
  316POPC   D2A 4099   7.192   8.696   4.998  0.3152  0.1836 -0.1291
  316POPC   C3A 4100   7.038   8.458   5.232 -0.2776 -0.1274  0.0723
  316POPC   C4A 4101   6.759   8.129   5.439  0.2752  0.1549 -0.1866
  316POPC   C1B 4102   7.974   8.464   4.823 -0.2668  0.0615 -0.3378
  316POPC   C2B 4103   7.731   8.529   5.130  0.1041  0.0164 -0.0036
  316POPC   C3B 4104   7.510   8.614   5.563 -0.0428  0.0150  0.3479
  316POPC   C4B 4105   7.304   8.830   5.852  0.0967  0.0751 -0.2120
  317POPC   NC3 4106   6.582   9.167   3.528  0.0144  0.3454 -0.0123
  317POPC   PO4 4107   6.504   9.424   3.841  0.1230  0.3322  0.1554
  317POPC   GL1 4108   6.465   9.344   4.287  0.2244  0.1888  0.2683
  317POPC   GL2 4109   6.138   9.477   4.529 -0.2193 -0.0694 -0.3126
  317POPC   C1A 4110   6.506   9.198   4.679  0.2293  0.1032 -0.2630
  317POPC   D2A 4111   6.328   9.298   5.035  0.0087  0.3844  0.2903
  317POPC   C3A 4112   6.400   9.659   5.185  0.3689  0.2064 -0.1684
  317POPC   C4A 4113   6.553  10.027   5.281 -0.1072  0.1772 -0.0507
  317POPC   C1B 4114   6.112   9.892   4.844  0.0991  0.0140 -0.2882
  317POPC   C2B 4115   6.003   9.910   5.315 -0.0708  0.2187  0.2260
  317POPC   C3B 4116   6.127   9.925   5.750 -0.0002 -0.1034  0.0764
  317POPC   C4B 4117   6.439  10.224   5.996 -0.1043 -0.0530  0.1205
  318POPC   NC3 4118   0.158   9.559   4.137 -0.0799 -0.0464  0.1053
  318POPC   PO4 4119   0.272   9.113   4.274 -0.0505  0.0160 -0.1217
  318POPC   GL1 4120   0.370   9.248   4.715 -0.0614 -0.2532  0.0338
  318POPC   GL2 4121   0.122   9.357   4.652 -0.0409  0.1549  0.3063
  318POPC   C1A 4122   0.473   9.162   5.067 -0.3802 -0.1789 -0.1868
  318POPC   D2A 4123   0.647   9.418   5.319 -0.1398  0.0404 -0.2258
  318POPC   C3A 4124   0.505   9.538   5.551  0.2843 -0.1866 -0.3832
  318POPC   C4A 4125   0.496   9.664   6.036  0.1147  0.0606 -0.0908
  318POPC   C1B 4126  -0.142   9.323   4.999  0.0547 -0.0400  0.0867
  318POPC   C2B 4127  -0.301   9.427   5.286  0.2742  0.1492  0.2225
  318POPC   C3B 4128  -0.606   9.347   5.624 -0.0611  0.1348 -0.0107
  318POPC   C4B 4129  -0.972   9.345   5.833  0.0064 -0.1866 -0.1242
  319POPC   NC3 4130   3.926   9.170   3.814 -0.0087  0.0790 -0.0884
  319POPC   PO4 4131   4.136   9.609   3.654 -0.0167  0.0995 -0.1379
  319POPC   GL1 4132   4.297   9.500   3.991 -0.1028 -0.1187 -0.2004
  319POPC   GL2 4133   4.142   9.426   4.210 -0.0124  0.2874 -0.0772
  319POPC   C1A 4134   4.439   9.751   4.322  0.1085 -0.2531  0.3604
  319POPC   D2A 4135   4.372   9.954   4.783  0.3615  0.2015 -0.2362
  319POPC   C3A 4136   4.565   9.966   5.133 -0.2358  0.3843 -0.0195
  319POPC   C4A 4137   4.431  10.079   5.519  0.0604  0.0811  0.0767
  319POPC   C1B 4138   3.922   9.203   4.536 -0.1625  0.1417  0.1351
  319POPC   C2B 4139   4.001   9.079   4.945 -0.0997 -0.0619 -0.0043
  319POPC   C3B 4140   4.024   8.904   5.441  0.3019 -0.0462  0.1450
  319POPC   C4B 4141   4.188   8.634   5.708 -0.3408  0.0178 -0.0724
  320POPC   NC3 4142   5.687   9.725   3.822  0.1002  0.4883  0.2209
  320POPC   PO4 4143   5.529   9.397   4.000  0.3966  0.2912 -0.1069
  320POPC   GL1 4144   5.443   9.580   4.448 -0.4814  0.2338 -0.0243
  320POPC   GL2 4145   5.471   9.849   4.248  0.3929 -0.1279 -0.4077
  320POPC   C1A 4146   5.298   9.505   4.923  0.4739 -0.0891 -0.3489
  320POPC   D2A 4147   5.268   9.170   5.218  0.0153  0.0808  0.1315
  320POPC   C3A 4148   5.029   8.999   5.585 -0.4024  0.1478  0.3047
  320POPC   C4A 4149   4.961   8.806   6.061 -0.0467  0.1343 -0.0980
  320POPC   C1B 4150   5.124  10.052   4.316 -0.0717  0.1984 -0.0421
  320POPC   C2B 4151   4.715  10.132   4.510  0.1896 -0.3377 -0.0545
  320POPC   C3B 4152   4.310  10.237   4.390 -0.1094 -0.0175  0.0692
  320POPC   C4B 4153   3.913  10.166   4.378  0.3538  0.0266  0.0555
  321POPC   NC3 4154   0.341   7.353   3.752  0.1586  0.2258  0.1758
  321POPC   PO4 4155   0.374   7.736   4.016 -0.0419 -0.1125  0.0480
  321POPC   GL1 4156   0.262   7.936   4.418 -0.1504 -0.1171  0.5464
  321POPC   GL2 4157   0.647   8.091   4.453  0.0761  0.0862  0.2409
  321POPC   C1A 4158   0.051   7.864   4.895 -0.1551 -0.0275 -0.0285
  321POPC   D2A 4159  -0.142   7.551   5.161 -0.1125 -0.1026 -0.2401
  321POPC   C3A 4160  -0.073   7.456   5.612  0.1242 -0.1140  0.1432
  321POPC   C4A 4161   0.022   7.201   5.888  0.2487 -0.3218 -0.3245
  321POPC   C1B 4162   0.686   7.837   4.739  0.1418 -0.4699  0.1826
  321POPC   C2B 4163   0.486   7.759   5.153  0.0376 -0.2558 -0.0066
  321POPC   C3B 4164   0.127   7.906   5.469 -0.0520  0.0260 -0.4602
  321POPC   C4B 4165  -0.266   8.017   5.411  0.2309 -0.1111  0.0324
  322POPC   NC3 4166   0.545   1.126   3.992 -0.2523 -0.2448 -0.1708
  322POPC   PO4 4167   0.255   1.459   3.769 -0.2882  0.3530 -0.0647
  322POPC   GL1 4168   0.203   1.559   4.185  0.0859  0.1339 -0.0185
  322POPC   GL2 4169  -0.133   1.689   4.057 -0.3500 -0.0197 -0.0864
  322POPC   C1A 4170  -0.078   1.297   4.409 -0.2222 -0.0182  0.3142
  322POPC   D2A 4171  -0.013   1.132   4.833 -0.0564 -0.0893 -0.2120
  322POPC   C3A 4172   0.006   1.240   5.298  0.1316 -0.2783  0.6677
  322POPC   C4A 4173   0.177   1.370   5.610 -0.1794 -0.0847 -0.1179
  322POPC   C1B 4174  -0.158   1.933   4.453 -0.3293  0.2406  0.1256
  322POPC   C2B 4175  -0.511   2.084   4.755 -0.0630 -0.0618  0.0137
  322POPC   C3B 4176  -0.496   2.273   5.117 -0.2075  0.1101 -0.2672
  322POPC   C4B 4177  -0.420   2.287   5.479  0.0207  0.0546  0.0007
  323POPC   NC3 4178   1.295   5.828   3.224 -0.1462  0.0444 -0.0202
  323POPC   PO4 4179   1.645   5.837   3.399 -0.2051 -0.0137 -0.2905
  323POPC   GL1 4180   1.672   5.930   3.856 -0.1535  0.1516  0.2523
  323POPC   GL2 4181   2.000   6.048   4.083 -0.1737  0.1448 -0.3111
  323POPC   C1A 4182   1.417   5.652   4.161 -0.2382  0.2306 -0.0737
  323POPC   D2A 4183   1.310   5.732   4.599  0.1768 -0.1521 -0.1423
  323POPC   C3A 4184   1.534   5.606   4.916 -0.0112  0.0838 -0.2040
  323POPC   C4A 4185   1.824   5.271   5.089  0.0020 -0.2033 -0.1418
  323POPC   C1B 4186   1.832   5.931   4.532  0.2591 -0.3489  0.1168
  323POPC   C2B 4187   2.078   6.003   4.959  0.1012 -0.0469  0.1529
  323POPC   C3B 4188   2.283   5.944   5.418 -0.0887 -0.0483  0.0584
  323POPC   C4B 4189   2.102   5.578   5.659 -0.2333 -0.0659 -0.1929
  324POPC   NC3 4190   4.087   5.153   3.280 -0.0661 -0.1371  0.5022
  324POPC   PO4 4191   4.396   4.822   3.265  0.2015  0.1157 -0.1203
  324POPC   GL1 4192   4.567   4.583   3.669  0.0758  0.0926  0.0763
  324POPC   GL2 4193   4.307   4.279   3.721 -0.1610  0.0564 -0.1100
  324POPC   C1A 4194   4.631   4.485   4.110 -0.1948 -0.2136 -0.1896
  324POPC   D2A 4195   4.692   4.446   4.522 -0.0839  0.0103  0.0396
  324POPC   C3A 4196   4.777   4.881   4.664  0.1577 -0.0058 -0.1010
  324POPC   C4A 4197   4.852   5.345   4.767 -0.0914  0.1824  0.3628
  324POPC   C1B 4198   4.044   4.662   3.925  0.1676 -0.3814 -0.1954
  324POPC   C2B 4199   4.168   4.693   4.453 -0.0837 -0.1375 -0.2830
  324POPC   C3B 4200   4.335   4.951   4.847 -0.2919 -0.3698  0.0269
  324POPC   C4B 4201   4.626   4.961   5.144  0.0940 -0.1065 -0.1557
  325POPC   NC3 4202   8.430   2.930   3.277 -0.0084 -0.1020 -0.0982
  325POPC   PO4 4203   8.418   3.511   3.246 -0.1545 -0.0146  0.0110
  325POPC   GL1 4204   8.474   3.651   3.721 -0.0996 -0.1508 -0.2005
  325POPC   GL2 4205   8.386   4.006   3.733 -0.0212 -0.2981  0.1338
  325POPC   C1A 4206   8.622   3.730   4.089 -0.2288 -0.2410  0.2072
  325POPC   D2A 4207   8.720   3.918   4.496 -0.1756  0.2458 -0.1923
  325POPC   C3A 4208   8.585   3.639   4.899  0.3185 -0.2095 -0.0200
  325POPC   C4A 4209   8.440   3.258   4.917  0.0787  0.1650  0.3260
  325POPC   C1B 4210   8.370   4.197   4.108 -0.1524  0.2535 -0.2454
  325POPC   C2B 4211   8.231   3.975   4.471  0.0760 -0.0222 -0.0987
  325POPC   C3B 4212   8.070   3.853   4.883 -0.3584  0.0288 -0.3944
  325POPC   C4B 4213   7.911   3.976   5.225 -0.5945  0.1265  0.1406
  326POPC   NC3 4214   4.458   5.830   3.444  0.0269 -0.1181  0.0277
  326POPC   PO4 4215   4.077   5.547   3.602  0.2290 -0.0768 -0.1764
  326POPC   GL1 4216   3.873   5.630   3.954  0.0497  0.0180 -0.1769
  326POPC   GL2 4217   3.662   5.497   4.243  0.1532  0.1770  0.0714
  326POPC   C1A 4218   4.080   5.668   4.320  0.0452 -0.4004  0.1774
  326POPC   D2A 4219   4.464   5.564   4.496 -0.1893  0.0669 -0.2046
  326POPC   C3A 4220   4.640   5.878   4.728 -0.1184 -0.0269 -0.2887
  326POPC   C4A 4221   4.455   5.999   5.092  0.4130  0.1925  0.0868
  326POPC   C1B 4222   3.964   5.119   4.130 -0.2034 -0.1885  0.1498
  326POPC   C2B 4223   4.285   5.128   4.279  0.1446 -0.0596  0.1559
  326POPC   C3B 4224   4.574   5.123   4.264 -0.0287 -0.0538 -0.2659
  326POPC   C4B 4225   4.884   5.101   3.937 -0.2493  0.0497 -0.0647
  327POPC   NC3 4226   9.883   9.402   3.871  0.0933  0.0072  0.1148
  327POPC   PO4 4227  10.172   9.357   4.112  0.0276 -0.0926 -0.0937
  327POPC   GL1 4228  10.453   9.187   4.370  0.2455 -0.1620  0.0280
  327POPC   GL2 4229  10.223   9.320   4.622  0.2906 -0.1963 -0.4514
  327POPC   C1A 4230  10.672   8.928   4.717 -0.0498  0.0498 -0.2479
  327POPC   D2A 4231  10.975   8.776   4.916 -0.2538 -0.0371  0.2188
  327POPC   C3A 4232  11.125   8.742   5.376  0.0073  0.1955  0.1573
  327POPC   C4A 4233  11.286   8.930   5.776 -0.3205 -0.2743  0.2688
  327POPC   C1B 4234  10.081   9.511   5.024 -0.1841 -0.0327  0.0691
  327POPC   C2B 4235   9.817   9.823   5.381 -0.0113  0.1028 -0.3219
  327POPC   C3B 4236   9.647  10.206   5.426  0.0660 -0.1162 -0.1480
  327POPC   C4B 4237   9.808  10.621   5.500  0.5608 -0.2247 -0.2029
  328POPC   NC3 4238   4.656   6.652   3.807 -0.1730  0.0417  0.1344
  328POPC   PO4 4239   5.095   6.446   4.089 -0.0974  0.2519  0.3572
  328POPC   GL1 4240   5.290   6.282   4.332  0.1198  0.0569  0.0075
  328POPC   GL2 4241   5.265   6.455   4.625 -0.2124 -0.0277  0.1530
  328POPC   C1A 4242   5.213   5.880   4.555 -0.1106  0.1437 -0.2526
  328POPC   D2A 4243   5.289   5.555   4.719 -0.0489  0.0503  0.3527
  328POPC   C3A 4244   5.277   5.465   5.206 -0.1097 -0.0377 -0.3449
  328POPC   C4A 4245   5.395   5.252   5.534 -0.1695  0.1550 -0.3140
  328POPC   C1B 4246   5.400   6.165   4.979 -0.0903  0.3004  0.0730
  328POPC   C2B 4247   5.091   5.888   5.111  0.4609 -0.2077  0.2136
  328POPC   C3B 4248   4.765   5.571   5.255  0.0874 -0.3493  0.1806
  328POPC   C4B 4249   4.798   5.213   5.521 -0.1681  0.2463  0.1914
  329POPC   NC3 4250   6.026   5.880   3.248 -0.0109 -0.3422 -0.2119
  329POPC   PO4 4251   5.946   5.672   3.638 -0.0457 -0.1984 -0.2040
  329POPC   GL1 4252   6.048   5.838   3.995  0.2067  0.0420 -0.4032
  329POPC   GL2 4253   5.783   6.034   4.081 -0.0792  0.1391  0.1867
  329POPC   C1A 4254   6.173   5.915   4.367  0.1152 -0.1255  0.3445
  329POPC   D2A 4255   6.109   5.898   4.758  0.1493 -0.1751  0.0275
  329POPC   C3A 4256   6.112   5.596   5.094 -0.0260 -0.3347 -0.0191
  329POPC   C4A 4257   6.116   5.465   5.544 -0.2938  0.3749 -0.2581
  329POPC   C1B 4258   5.672   6.003   4.573 -0.0210  0.1298 -0.1862
  329POPC   C2B 4259   5.646   5.797   4.980  0.1051  0.0247 -0.3375
  329POPC   C3B 4260   5.704   5.656   5.374 -0.3004  0.3704  0.0892
  329POPC   C4B 4261   5.635   5.673   5.841 -0.0362 -0.1237  0.0024
  330POPC   NC3 4262   9.779   3.108   3.347 -0.0624 -0.1393 -0.1364
  330POPC   PO4 4263   9.733   3.499   3.670 -0.1263  0.1370  0.0912
  330POPC   GL1 4264   9.725   3.851   3.896  0.0112  0.3478 -0.0245
  330POPC   GL2 4265   9.606   3.688   4.178  0.1661 -0.2312 -0.1739
  330POPC   C1A 4266   9.655   4.142   4.304  0.1127  0.0489  0.2073
  330POPC   D2A 4267   9.947   4.167   4.648 -0.2151 -0.0639  0.1543
  330POPC   C3A 4268  10.231   3.883   4.840 -0.4895 -0.2550 -0.1438
  330POPC   C4A 4269  10.143   3.731   5.291 -0.0313  0.0645 -0.1830
  330POPC   C1B 4270   9.717   3.773   4.580  0.0749 -0.2718 -0.0732
  330POPC   C2B 4271   9.745   3.802   5.000 -0.1075  0.2800 -0.0019
  330POPC   C3B 4272   9.489   3.575   5.273 -0.1538  0.2192 -0.0176
  330POPC   C4B 4273   9.309   3.498   5.671 -0.2043 -0.0706 -0.1510
  331POPC   NC3 4274   6.282   3.677   2.808 -0.0085 -0.0120  0.2163
  331POPC   PO4 4275   6.005   3.855   3.192 -0.0985 -0.3107  0.3467
  331POPC   GL1 4276   6.112   3.771   3.642  0.0699 -0.0478  0.1717
  331POPC   GL2 4277   6.264   4.083   3.643  0.1685  0.1965 -0.1993
  331POPC   C1A 4278   6.096   3.787   4.131 -0.0385  0.1192  0.0460
  331POPC   D2A 4279   5.962   4.000   4.539 -0.1411  0.0750 -0.0646
  331POPC   C3A 4280   5.965   3.768   5.005 -0.0449  0.0487  0.0489
  331POPC   C4A 4281   6.100   3.860   5.357 -0.2165  0.0674  0.2150
  331POPC   C1B 4282   6.462   4.224   4.010  0.2433 -0.0374 -0.1110
  331POPC   C2B 4283   6.421   4.286   4.446 -0.2694  0.0703 -0.0923
  331POPC   C3B 4284   6.549   4.222   4.845 -0.3561 -0.0459 -0.1640
  331POPC   C4B 4285   6.681   4.047   5.144 -0.1471  0.1616  0.0984
  332POPC   NC3 4286   9.236   1.941   3.247 -0.2434  0.1141  0.1208
  332POPC   PO4 4287   8.908   2.298   3.381  0.3142  0.2262 -0.2511
  332POPC   GL1 4288   9.064   2.497   3.828  0.1182  0.0393 -0.0133
  332POPC   GL2 4289   9.398   2.452   3.965 -0.4781  0.0994 -0.1860
  332POPC   C1A 4290   8.987   2.597   4.283 -0.2266  0.0755  0.1087
  332POPC   D2A 4291   9.220   2.462   4.568  0.0648  0.1216  0.3160
  332POPC   C3A 4292   9.065   2.633   4.909  0.0597  0.2544 -0.0813
  332POPC   C4A 4293   8.802   2.954   5.014 -0.0873  0.1341 -0.1356
  332POPC   C1B 4294   9.460   2.727   4.223 -0.0633 -0.4532  0.0159
  332POPC   C2B 4295   9.565   2.804   4.675  0.1816 -0.0803  0.1180
  332POPC   C3B 4296   9.517   2.525   5.024 -0.0979 -0.2193  0.0962
  332POPC   C4B 4297   9.808   2.333   5.340 -0.1143  0.1337  0.1435
  333POPC   NC3 4298  10.647   0.852   3.504 -0.1268  0.0240  0.4814
  333POPC   PO4 4299  11.001   0.749   3.725 -0.0310  0.0036  0.0553
  333POPC   GL1 4300  11.131   0.682   4.199 -0.0437  0.0228  0.0144
  333POPC   GL2 4301  11.180   0.979   4.421 -0.1239  0.2978 -0.2429
  333POPC   C1A 4302  11.207   0.452   4.586  0.1638  0.3620  0.2436
  333POPC   D2A 4303  11.217   0.077   4.848  0.0368  0.2567  0.3914
  333POPC   C3A 4304  10.981  -0.184   4.974 -0.1494 -0.3473  0.4384
  333POPC   C4A 4305  10.595  -0.291   5.155 -0.0541 -0.3299 -0.2271
  333POPC   C1B 4306  11.154   0.899   4.753  0.0182 -0.0945 -0.1677
  333POPC   C2B 4307  11.145   0.977   5.077 -0.0157 -0.0155  0.1794
  333POPC   C3B 4308  11.356   1.252   5.250 -0.1763 -0.1025  0.0407
  333POPC   C4B 4309  11.666   1.522   5.432  0.1980 -0.1527  0.0603
  334POPC   NC3 4310   0.437   3.340   3.141  0.2167 -0.1822  0.1605
  334POPC   PO4 4311   0.824   3.292   3.210 -0.2728 -0.0009 -0.0533
  334POPC   GL1 4312   0.872   3.226   3.650 -0.3382 -0.0684 -0.1942
  334POPC   GL2 4313   1.270   3.170   3.757 -0.0741 -0.0055  0.2105
  334POPC   C1A 4314   0.773   3.273   4.065 -0.0546  0.3063  0.0488
  334POPC   D2A 4315   0.585   3.100   4.555 -0.0715 -0.0447 -0.1417
  334POPC   C3A 4316   0.729   3.038   4.885  0.1117 -0.2519  0.2851
  334POPC   C4A 4317   0.836   3.309   5.280  0.3073  0.1786  0.2224
  334POPC   C1B 4318   1.223   3.073   4.132  0.1905  0.1571 -0.2444
  334POPC   C2B 4319   1.094   2.878   4.512  0.2224 -0.2646  0.0619
  334POPC   C3B 4320   1.138   2.708   4.997 -0.4309 -0.1650 -0.2868
  334POPC   C4B 4321   0.822   2.695   5.291  0.0643 -0.0822 -0.1155
  335POPC   NC3 4322   7.927   7.851   3.833  0.0122  0.1397 -0.1760
  335POPC   PO4 4323   8.409   7.899   3.847 -0.4684 -0.3502  0.1901
  335POPC   GL1 4324   8.360   8.194   4.174 -0.1643 -0.0503 -0.3387
  335POPC   GL2 4325   8.069   8.034   4.266 -0.2870  0.0088 -0.1017
  335POPC   C1A 4326   8.446   8.149   4.607  0.1412  0.2584  0.2261
  335POPC   D2A 4327   8.405   8.143   5.058 -0.0117  0.1781 -0.1427
  335POPC   C3A 4328   8.737   8.430   5.116 -0.1470 -0.0858 -0.0537
  335POPC   C4A 4329   9.052   8.729   5.235 -0.1140 -0.1724 -0.2123
  335POPC   C1B 4330   7.924   8.060   4.614 -0.0574 -0.0564  0.0032
  335POPC   C2B 4331   7.853   8.053   4.961 -0.1429 -0.1253 -0.2096
  335POPC   C3B 4332   7.723   7.637   5.123 -0.4508  0.0172 -0.0147
  335POPC   C4B 4333   7.434   7.278   5.295 -0.0440 -0.3464 -0.1048
  336POPC   NC3 4334   9.945   5.003   3.818 -0.2632 -0.1278  0.3693
  336POPC   PO4 4335   9.557   5.015   3.893 -0.5306 -0.2895 -0.1792
  336POPC   GL1 4336   9.462   5.133   4.328 -0.2000 -0.0268  0.2973
  336POPC   GL2 4337   9.534   5.409   4.332  0.1232 -0.0715  0.1639
  336POPC   C1A 4338   9.248   5.057   4.627  0.0387 -0.3023 -0.0015
  336POPC   D2A 4339   9.308   5.229   5.018 -0.0176  0.1154  0.2282
  336POPC   C3A 4340   9.598   5.309   5.252  0.2161 -0.0456  0.2020
  336POPC   C4A 4341   9.712   5.338   5.589  0.1060  0.1134 -0.1378
  336POPC   C1B 4342   9.708   5.586   4.654  0.1335 -0.0933 -0.4583
  336POPC   C2B 4343   9.852   5.743   5.110  0.1564  0.0624  0.1208
  336POPC   C3B 4344  10.204   5.515   5.269  0.2117  0.0830  0.3118
  336POPC   C4B 4345  10.565   5.653   5.240  0.0089  0.2290  0.3568
  337POPC   NC3 4346   0.436   8.219   3.715  0.0568  0.3048  0.2360
  337POPC   PO4 4347   0.861   8.113   3.926  0.0617 -0.1036  0.1214
  337POPC   GL1 4348   1.041   7.853   4.282  0.0542 -0.2135  0.1578
  337POPC   GL2 4349   1.445   7.780   4.313  0.2143 -0.2858 -0.0147
  337POPC   C1A 4350   1.158   7.655   4.731 -0.2640  0.2637 -0.2883
  337POPC   D2A 4351   0.960   7.563   5.038 -0.0501  0.0053 -0.1640
  337POPC   C3A 4352   1.192   7.558   5.395  0.1004 -0.0465 -0.1899
  337POPC   C4A 4353   1.251   7.753   5.668 -0.0682  0.1515  0.1595
  337POPC   C1B 4354   1.802   7.862   4.617  0.0909 -0.0034  0.0710
  337POPC   C2B 4355   2.037   7.570   4.833 -0.3405 -0.0980  0.0475
  337POPC   C3B 4356   2.344   7.266   5.045 -0.0519  0.2890  0.2084
  337POPC   C4B 4357   2.324   6.950   5.152  0.0613  0.3605 -0.0045
  338POPC   NC3 4358   0.775  10.653   3.775  0.2286  0.2085  0.0885
  338POPC   PO4 4359   0.568  10.343   4.019 -0.0607  0.0049 -0.0528
  338POPC   GL1 4360   0.859  10.510   4.335  0.0102 -0.0925 -0.5094
  338POPC   GL2 4361   0.461  10.379   4.544 -0.2441  0.1999 -0.0105
  338POPC   C1A 4362   1.223  10.657   4.397 -0.1810 -0.2343 -0.3174
  338POPC   D2A 4363   1.542  10.602   4.663 -0.3680 -0.0527  0.0009
  338POPC   C3A 4364   1.594  10.905   5.016  0.2252  0.1036 -0.0084
  338POPC   C4A 4365   1.556  11.234   5.147  0.0692 -0.1376 -0.0924
  338POPC   C1B 4366   0.818  10.453   4.852  0.1793 -0.1704  0.0048
  338POPC   C2B 4367   0.868  10.365   5.296 -0.3684  0.0713 -0.0449
  338POPC   C3B 4368   0.774  10.405   5.632  0.0029  0.1632 -0.0871
  338POPC   C4B 4369   0.438  10.040   5.758 -0.2194  0.0217 -0.3076
  339POPC   NC3 4370   0.925   3.719   3.379  0.0196 -0.1083 -0.1992
  339POPC   PO4 4371   1.404   3.549   3.392  0.1118 -0.0047  0.3709
  339POPC   GL1 4372   1.635   3.496   3.817  0.1206 -0.2723  0.0128
  339POPC   GL2 4373   1.911   3.792   3.923 -0.0543  0.0522  0.0380
  339POPC   C1A 4374   1.418   3.556   4.110  0.2559 -0.0897 -0.2957
  339POPC   D2A 4375   1.081   3.526   4.370 -0.0454  0.0582 -0.0958
  339POPC   C3A 4376   0.671   3.659   4.368  0.0630  0.3913  0.1492
  339POPC   C4A 4377   0.250   3.503   4.608 -0.3224  0.1062 -0.0737
  339POPC   C1B 4378   1.985   3.562   4.385  0.0411  0.1500 -0.0430
  339POPC   C2B 4379   1.814   3.562   4.822 -0.0472 -0.2061  0.0959
  339POPC   C3B 4380   1.748   3.423   5.248 -0.0407  0.1704  0.2989
  339POPC   C4B 4381   1.835   3.308   5.713  0.1385 -0.0293  0.0345
  340POPC   NC3 4382   8.563   4.447   3.539 -0.1467 -0.1765  0.1936
  340POPC   PO4 4383   8.583   4.830   3.886  0.0906 -0.0308 -0.0656
  340POPC   GL1 4384   8.308   4.677   4.196 -0.2155 -0.0402 -0.2670
  340POPC   GL2 4385   7.985   4.468   4.153  0.0250  0.0084  0.2588
  340POPC   C1A 4386   8.348   4.399   4.625 -0.0656 -0.1520 -0.1536
  340POPC   D2A 4387   8.119   4.408   4.976  0.3467 -0.0100 -0.1520
  340POPC   C3A 4388   8.154   4.429   5.326  0.2046  0.0448 -0.1808
  340POPC   C4A 4389   8.493   4.448   5.519  0.1949  0.2882 -0.0308
  340POPC   C1B 4390   7.847   4.244   4.515  0.0656  0.1739 -0.1171
  340POPC   C2B 4391   7.575   4.240   4.920  0.0588  0.0165  0.0577
  340POPC   C3B 4392   7.156   4.378   5.222 -0.1575  0.1371 -0.1685
  340POPC   C4B 4393   7.112   4.478   5.591 -0.0853  0.0674 -0.1357
  341POPC   NC3 4394   3.417   1.567   3.566 -0.3683 -0.0120 -0.0457
  341POPC   PO4 4395   3.568   1.214   3.897 -0.1973  0.0046 -0.2737
  341POPC   GL1 4396   3.601   1.098   4.405  0.1069  0.1527  0.0323
  341POPC   GL2 4397   3.273   1.127   4.475 -0.2254  0.2559  0.1196
  341POPC   C1A 4398   3.796   1.111   4.734  0.1123 -0.1537 -0.1230
  341POPC   D2A 4399   4.010   0.986   5.037  0.2947  0.1775  0.1244
  341POPC   C3A 4400   4.120   0.550   4.882 -0.1014 -0.4194  0.0397
  341POPC   C4A 4401   4.425   0.435   4.590 -0.0849  0.0241  0.0139
  341POPC   C1B 4402   3.331   1.208   4.857 -0.0694 -0.2137 -0.1565
  341POPC   C2B 4403   3.505   1.212   5.294  0.0029  0.0154 -0.0307
  341POPC   C3B 4404   3.920   1.065   5.581  0.0375  0.0493 -0.1072
  341POPC   C4B 4405   4.144   0.641   5.351  0.0041 -0.1926  0.0488
  342W        W 4406   3.694   9.690   9.633  0.2611  0.1401 -0.1742
  343W        W 4407   7.483  10.685   8.776 -0.5243  0.0187  0.0094
  344W        W 4408   8.058   9.195   9.704  0.1480  0.1582  0.2334
  345W        W 4409   0.467   4.332   2.173 -0.0035 -0.0050  0.0295
  346W        W 4410   9.629   0.719   2.206 -0.0214  0.0668 -0.1959
  347W        W 4411   5.048   1.324   9.153  0.0469  0.2612 -0.0723
  348W        W 4412   5.140   5.546   4.211 -0.1559 -0.0174  0.1731
  349W        W 4413   1.007   7.700   8.256 -0.1002  0.1503  0.1562
  350W        W 4414   4.105   7.010   9.754  0.1282 -0.0247  0.2915
  351W        W 4415   2.345   9.843   9.740  0.1590  0.2234  0.0455
  352W        W 4416   5.964   7.522  10.538  0.1141  0.4367 -0.1656
  353W        W 4417   1.090   5.592   0.590 -0.0833  0.0343 -0.2475
  354W        W 4418   9.701   9.032   2.891 -0.0788  0.2618  0.2065
  355W        W 4419   6.080  10.040   0.373  0.0343  0.3998  0.0251
  356W        W 4420  10.319   3.367   1.164  0.0350  0.1761 -0.0046
  357W        W 4421   1.908   6.231   3.310 -0.0423 -0.1496  0.1397
  358W        W 4422   6.148   5.874   7.888  0.3242 -0.1932  0.0358
  359W        W 4423   7.420   8.316   2.194 -0.1897  0.0401 -0.0087
  360W        W 4424   1.940   6.164   1.083  0.0740  0.0032  0.0357
  361W        W 4425  10.747   0.965   7.433 -0.1240 -0.0715  0.0664
  362W        W 4426   9.059  10.543   3.290 -0.0452  0.2963  0.1735
  363W        W 4427   5.924   6.461   9.454 -0.2483  0.0156 -0.3686
  364W        W 4428   3.559   6.223   0.516  0.1488  0.0614  0.0066
  365W        W 4429   5.075   3.362  10.299  0.1833 -0.1681  0.0997
  366W        W 4430   7.647   5.503   3.289  0.0877 -0.2732  0.0731
  367W        W 4431   6.871   8.380   3.223 -0.0401  0.0629 -0.0061
  368W        W 4432   0.091   2.164   3.093 -0.3438  0.0493 -0.1795
  369W        W 4433   2.221   7.423   2.181  0.1112 -0.0895  0.1696
  370W        W 4434   2.876  10.746   9.007 -0.0243 -0.2857 -0.2683
  371W        W 4435   9.655   7.668   3.245 -0.0488  0.2945  0.2276
  372W        W 4436   6.424  10.245   0.683  0.0101 -0.2399  0.1831
  373W        W 4437   5.117   4.175   9.024  0.1091  0.0079  0.2346
  374W        W 4438   6.258   0.099   1.245  0.1730 -0.2967  0.1502
  375W        W 4439   2.328   7.139   2.609 -0.3273  0.3601 -0.0286
  376W        W 4440   6.029   0.377   9.129 -0.2107 -0.1307  0.0257
  377W        W 4441   4.561   8.812   1.369  0.0380 -0.2709  0.0682
  378W        W 4442   1.398   8.426   2.110 -0.0788 -0.0619 -0.0502
  379W        W 4443   1.928   1.939   8.579 -0.1832 -0.2017 -0.0520
  380W        W 4444   5.158   7.561  10.263 -0.0871 -0.1120 -0.0036
  381W        W 4445   2.645   9.405   9.007  0.1428 -0.0160 -0.2267
  382W        W 4446   6.131  10.347   8.786  0.2014 -0.0673 -0.0797
  383W        W 4447   9.517   0.431   9.822  0.0199 -0.1887  0.1735
  384W        W 4448   9.338   3.053   2.982  0.2653  0.0855 -0.2092
  385W        W 4449   8.187   8.495   1.715 -0.3074 -0.3801  0.1245
  386W        W 4450   7.964   4.419   0.357 -0.0316  0.4043 -0.1706
  387W        W 4451   0.764   6.402   3.038  0.0069 -0.4102  0.4656
  388W        W 4452   8.693  10.546   1.523  0.1189  0.1958 -0.0035
  389W        W 4453   9.890   2.213   1.713  0.0789 -0.0171  0.0143
  390W        W 4454   9.697   0.369   3.727 -0.2087  0.1465 -0.0299
  391W        W 4455   1.252   6.199  10.908 -0.3712 -0.0777  0.2650
  392W        W 4456   5.886  10.427  10.506 -0.1002  0.2650 -0.1836
  393W        W 4457   9.099   2.229   2.815  0.0326 -0.1221 -0.0908
  394W        W 4458   7.319   5.092   1.056  0.1269  0.3674 -0.2233
  395W        W 4459   1.922   8.215   0.939  0.1572  0.2116 -0.1714
  396W        W 4460   9.677   6.323   1.836 -0.1099 -0.1335 -0.0051
  397W        W 4461   4.435   6.067   1.718  0.1545 -0.0333  0.1235
  398W        W 4462   4.583   7.004   0.021  0.0719 -0.1208 -0.1090
  399W        W 4463  10.110   3.323   2.502  0.1177  0.1115 -0.0776
  400W        W 4464   3.498   7.017   2.303 -0.0534 -0.1036 -0.0575
  401W        W 4465   9.289   0.991   3.853  0.1492  0.1169 -0.0781
  402W        W 4466   1.937   4.725   9.614 -0.1790 -0.1364 -0.0387
  403W        W 4467   4.569   4.609   2.785 -0.0004  0.0386 -0.0513
  404W        W 4468   7.870   0.412  10.443  0.0062 -0.1335 -0.0270
  405W        W 4469   3.830   4.868   2.289 -0.1691 -0.0142  0.1983
  406W        W 4470   7.583   0.495   9.715 -0.0045 -0.0791  0.0261
  407W        W 4471   0.911   1.754   1.783 -0.0289  0.1872 -0.0516
  408W        W 4472   4.192   8.414   2.085 -0.1597 -0.0095 -0.0664
  409W        W 4473  10.198   1.231  10.088  0.1331  0.3451 -0.1209
  410W        W 4474   5.895   2.530   1.524 -0.2573 -0.0403 -0.3196
  411W        W 4475   5.260   1.057   2.069  0.0378  0.2351 -0.1638
  412W        W 4476   2.814   5.329   2.056 -0.1277  0.3502  0.1363
  413W        W 4477   3.481   0.397   2.023  0.0702  0.2958  0.0963
  414W        W 4478   4.896   9.772   9.685  0.0738  0.1498  0.2526
  415W        W 4479   5.908   5.916  10.257  0.1608  0.0647  0.0040
  416W        W 4480   0.076   9.949   1.688  0.0893 -0.1722 -0.3413
  417W        W 4481   3.881   7.915   2.284  0.1446 -0.0185  0.0406
  418W        W 4482   0.700   0.274   9.723  0.2926 -0.2039 -0.1182
  419W        W 4483   3.611   0.261   8.436  0.1663  0.1251  0.2485
  420W        W 4484   0.460   7.507   8.912  0.2679 -0.3757 -0.0620
  421W        W 4485   5.952   3.324   8.242  0.0187  0.1172 -0.0012
  422W        W 4486   8.321   1.588   2.877  0.2059 -0.1545 -0.1907
  423W        W 4487   3.630   9.743   1.504 -0.5013 -0.2830 -0.0135
  424W        W 4488   5.638   1.322   2.388 -0.1227  0.2603 -0.0136
  425W        W 4489   9.278   1.938   7.829 -0.1029 -0.1844  0.0652
  426W        W 4490   5.962   0.782   3.778  0.2965 -0.4124 -0.2678
  427W        W 4491   1.608   9.031  11.298 -0.1151  0.0262 -0.0835
  428W        W 4492   0.975   6.832  11.277 -0.0959  0.4058  0.2169
  429W        W 4493   7.107   2.206   1.523  0.1194  0.0249 -0.2891
  430W        W 4494   7.287   6.129   3.358  0.1230 -0.0535 -0.0640
  431W        W 4495   9.647   5.754   1.296 -0.3833 -0.0886 -0.1033
  432W        W 4496  10.274   0.012   1.751  0.0774 -0.0274 -0.2203
  433W        W 4497   9.306   1.510   1.322 -0.1829  0.0274 -0.2572
  434W        W 4498   9.679   8.833   0.045  0.2342 -0.0564  0.1269
  435W        W 4499   4.992   5.550  10.231  0.1294  0.1054  0.4389
  436W        W 4500   3.974   5.442   0.620  0.3027  0.3328  0.0939
  437W        W 4501   9.567   6.636   9.484 -0.0178 -0.1663 -0.1743
  438W        W 4502   9.983   1.562   8.079 -0.0677 -0.0037  0.1448
  439W        W 4503   0.929   3.069   8.720  0.1393 -0.0896 -0.1168
  440W        W 4504   0.682  10.450   8.989  0.0545  0.3768 -0.0512
  441W        W 4505   7.557   9.909   0.643 -0.2952  0.1772  0.1528
  442W        W 4506   2.048   7.713   8.426  0.1969 -0.0203  0.0260
  443W        W 4507   3.528   3.269   8.728  0.0181  0.0401 -0.0652
  444W        W 4508   3.643   7.252   3.270  0.1691  0.2683 -0.3101
  445W        W 4509   6.381   8.067   0.082  0.1203 -0.4248 -0.1002
  446W        W 4510   3.343   7.884  10.238 -0.4117 -0.1254  0.2997
  447W        W 4511   6.307   9.615   1.927 -0.3263 -0.3339  0.0262
  448W        W 4512   8.471   6.358   8.435  0.1417  0.2319 -0.2101
  449W        W 4513   2.379   8.410   8.755 -0.1132  0.3205 -0.0088
  450W        W 4514   5.803   9.622  10.070 -0.2178  0.1157  0.2697
  451W        W 4515   8.634   8.516   8.320  0.0058 -0.0418  0.1188
  452W        W 4516   4.512   0.985   8.155 -0.0638  0.0060 -0.4246
  453W        W 4517   0.793   3.147   9.878 -0.0206  0.2376  0.0374
  454W        W 4518   3.968   9.171   1.609  0.0989  0.2899  0.0868
  455W        W 4519   1.241   4.200   1.013  0.1191 -0.1407  0.0636
  456W        W 4520   3.170   5.757   7.825  0.5049 -0.1284  0.0061
  457W        W 4521   4.591   9.860   3.806 -0.0887 -0.1646 -0.2277
  458W        W 4522   2.980   8.798   8.010  0.1960  0.5461 -0.3785
  459W        W 4523   7.863   5.673   0.924  0.2336 -0.1052  0.4396
  460W        W 4524   7.653   7.041   0.028  0.3538 -0.1392 -0.2489
  461W        W 4525   4.713   5.368   1.202  0.0337  0.0525  0.0786
  462W        W 4526   1.181   1.344   7.461  0.0606  0.2715  0.2596
  463W        W 4527   8.376   2.493  10.227  0.3917 -0.2165  0.2228
  464W        W 4528   9.784   6.159   8.521 -0.1669  0.0505 -0.3459
  465W        W 4529  10.625   1.002  10.840 -0.1849  0.1391  0.1024
  466W        W 4530   7.976  10.165  10.642  0.0956 -0.3241 -0.0244
  467W        W 4531   7.202   0.937   0.824  0.3191  0.0550 -0.0846
  468W        W 4532   2.053   1.200   9.314  0.1773  0.0750  0.0953
  469W        W 4533   7.818   0.312   8.653 -0.2351 -0.0212 -0.1458
  470W        W 4534   4.957   8.568   9.747  0.5099 -0.2877 -0.0711
  471W        W 4535   3.392   0.001   1.059 -0.1095  0.0896  0.2644
  472W        W 4536   0.952   8.244   2.325  0.0142 -0.1115 -0.0395
  473W        W 4537  10.259   8.400   0.353 -0.2641  0.1970  0.1049
  474W        W 4538   0.833   5.950   0.316 -0.1953 -0.0882  0.3144
  475W        W 4539   6.547   8.678   1.854 -0.1415 -0.0289  0.0668
  476W        W 4540   6.121  10.423   1.637  0.1324 -0.0696 -0.0705
  477W        W 4541   0.741  10.476   9.495 -0.0670 -0.1408  0.2021
  478W        W 4542   1.833   6.731   8.543 -0.0085 -0.0640 -0.1395
  479W        W 4543  10.707   6.743   0.803  0.0736  0.0779 -0.2422
  480W        W 4544   8.556   4.055   3.171 -0.0275 -0.0538 -0.0140
  481W        W 4545   4.539   6.944   1.267  0.0473 -0.2004 -0.0576
  482W        W 4546   1.574   6.861   9.938 -0.0474  0.1906  0.3010
  483W        W 4547   3.628   9.119  10.022 -0.0647  0.0201  0.3191
  484W        W 4548   5.211   0.369   0.386  0.1281  0.1887 -0.1838
  485W        W 4549   2.460   9.287   2.806 -0.1077  0.2343 -0.1667
  486W        W 4550   1.414   1.816   2.025 -0.0586 -0.0153 -0.1871
  487W        W 4551   5.868   4.541   2.356  0.5200  0.3761 -0.1842
  488W        W 4552   3.361   0.808   0.800  0.0593 -0.0417 -0.2993
  489W        W 4553   0.154   3.006   2.172 -0.0050  0.0707 -0.1721
  490W        W 4554   2.965   5.050   8.164 -0.1448 -0.1704  0.0071
  491W        W 4555   7.247   6.099   2.467  0.1581 -0.4369 -0.1156
  492W        W 4556   7.639   9.248   2.923  0.1152  0.0970 -0.0663
  493W        W 4557   5.460   1.725   9.467  0.1566 -0.0160  0.0489
  494W        W 4558  10.162   4.829   7.703  0.3404  0.0569  0.1225
  495W        W 4559   6.541  10.560   9.494  0.1662  0.2959 -0.2697
  496W        W 4560   4.054   7.318  10.657  0.1593 -0.3263 -0.2146
  497W        W 4561   7.460  10.667   3.839 -0.0381  0.2202 -0.0495
  498W        W 4562   9.404  10.284   3.019  0.2599  0.0870  0.5697
  499W        W 4563   9.590   4.332   0.372 -0.1839 -0.1326 -0.1620
  500W        W 4564   2.135   6.850   1.470  0.0263 -0.0650 -0.3064
  501W        W 4565   2.963  10.410   0.405  0.0621 -0.0618  0.2291
  502W        W 4566  10.752   7.901   8.449 -0.5211  0.1460 -0.0064
  503W        W 4567   9.974   4.627   0.604  0.0706  0.1627  0.1902
  504W        W 4568   6.747   9.918   2.028 -0.1867  0.2268 -0.2706
  505W        W 4569   2.113   5.135  10.548  0.0584 -0.2603  0.1857
  506W        W 4570   9.942   6.149   2.256  0.0609  0.0137  0.3177
  507W        W 4571   3.154   0.470   2.528  0.2097 -0.2200  0.0848
  508W        W 4572   4.272   3.697   0.468  0.3060  0.0464  0.4181
  509W        W 4573   7.679   2.952   8.337  0.4359 -0.2795  0.1225
  510W        W 4574   2.306   3.765   2.501  0.1386 -0.6423 -0.2577
  511W        W 4575   9.454   1.137  11.305  0.0133  0.1277 -0.1347
  512W        W 4576   1.175   6.001   3.836 -0.0039  0.0370  0.1008
  513W        W 4577   7.565   7.136   3.395 -0.0496 -0.0489  0.0221
  514W        W 4578   2.918   7.227   3.229 -0.0633 -0.0296 -0.0186
  515W        W 4579   7.176   5.694   9.368  0.2617  0.0592  0.5130
  516W        W 4580   5.708   5.546   1.227 -0.2086 -0.0795 -0.1712
  517W        W 4581   2.342  10.587   2.058  0.0321 -0.0321 -0.2598
  518W        W 4582   5.228   9.371   0.072  0.3144  0.0411  0.1367
  519W        W 4583   0.672   7.839   9.678 -0.0698 -0.0677 -0.0871
  520W        W 4584  10.277   6.251   1.803  0.3705  0.1890 -0.0397
  521W        W 4585   8.236   1.551  10.405  0.2217  0.1771 -0.1908
  522W        W 4586   0.895   0.153   2.258  0.0543  0.2065 -0.2047
  523W        W 4587  10.338  10.337   8.194 -0.0655 -0.2134 -0.5032
  524W        W 4588   4.158   8.638   1.553  0.1839  0.1254  0.0711
  525W        W 4589   7.733   6.192   7.732 -0.0015 -0.2830  0.4039
  526W        W 4590   9.720   6.683   1.050  0.1680  0.1235  0.1222
  527W        W 4591   5.684   3.428   1.552 -0.0695 -0.1048  0.1467
  528W        W 4592   4.985   1.875   0.307 -0.3305  0.0567  0.1943
  529W        W 4593   8.555   7.822   0.521 -0.4003  0.1328 -0.0053
  530W        W 4594   5.836   5.350   0.057  0.0845 -0.2399  0.0405
  531W        W 4595  10.499   5.307  10.434 -0.0250 -0.0172 -0.2445
  532W        W 4596   0.623   0.730  10.774 -0.4863 -0.2426 -0.1703
  533W        W 4597   3.264   8.966  10.800  0.0638  0.1749  0.1377
  534W        W 4598   1.088   1.567   1.229 -0.1057  0.0903 -0.1707
  535W        W 4599   3.197   9.123   8.560  0.2817 -0.2827  0.4593
  536W        W 4600   0.220   6.239   7.517 -0.0708 -0.1351  0.2516
  537W        W 4601   4.477   4.891   1.890  0.0452  0.0258 -0.1922
  538W        W 4602   8.603   7.187   3.743  0.1244 -0.1579 -0.0902
  539W        W 4603   4.694   8.032   2.529  0.1968 -0.4359 -0.0529
  540W        W 4604   9.618   6.540   0.197 -0.0072  0.0321  0.2629
  541W        W 4605   0.683   9.422   2.311 -0.1133 -0.0485 -0.2850
  542W        W 4606  10.571   6.982   3.125 -0.2690 -0.0112 -0.1826
  543W        W 4607  10.274   2.278  11.010 -0.1023  0.0777 -0.3446
  544W        W 4608   1.128   5.302  10.942  0.0087  0.2119  0.0222
  545W        W 4609   4.681   5.491   3.200 -0.0402  0.1305  0.1164
  546W        W 4610   9.570   5.224   8.416  0.1553  0.0036 -0.1301
  547W        W 4611   8.638  10.193   9.326  0.2593 -0.0881 -0.2198
  548W        W 4612  10.610   2.811   2.489 -0.1356  0.1977 -0.1789
  549W        W 4613   0.308   0.184   9.393 -0.0105  0.1650 -0.1604
  550W        W 4614   6.602   1.285   0.335 -0.2826 -0.2403  0.3230
  551W        W 4615   8.742   9.861   2.522 -0.1866 -0.1175  0.0973
  552W        W 4616   8.782   7.754  11.029 -0.0750 -0.1360  0.0932
  553W        W 4617   1.318   3.675   1.749 -0.1291  0.4264  0.1382
  554W        W 4618   6.843   0.096   1.115 -0.0498 -0.2101  0.0798
  555W        W 4619   5.631   0.476   7.783  0.0585 -0.0249 -0.1751
  556W        W 4620   8.808   1.898   2.970  0.1538  0.0852  0.0232
  557W        W 4621   6.711   6.813   9.382 -0.0996  0.1334 -0.0621
  558W        W 4622   3.488   6.463   1.552  0.0872 -0.0097  0.1706
  559W        W 4623   8.041   0.868   3.955 -0.2538 -0.2743  0.0113
  560W        W 4624   1.034   8.936   9.921  0.0122 -0.2268 -0.1297
  561W        W 4625   1.491   6.604   9.004 -0.0953 -0.2570 -0.0880
  562W        W 4626   7.286   3.914   7.542  0.0203  0.0147  0.2496
  563W        W 4627  10.168   0.236   2.944 -0.2308 -0.2355  0.0417
  564W        W 4628   6.354  10.349   7.846  0.1636  0.2420 -0.0040
  565W        W 4629   4.342   2.512   7.789 -0.0195 -0.1042 -0.0003
  566W        W 4630   5.309  10.105   0.847  0.0617 -0.0203  0.0895
  567W        W 4631   8.891  10.694  10.213  0.2290 -0.1972  0.0342
  568W        W 4632   5.909   9.835   3.349 -0.0163 -0.1669  0.0930
  569W        W 4633   0.065   7.364   3.249  0.0981 -0.0645 -0.2256
  570W        W 4634   6.544   6.526   9.795 -0.1135 -0.0210  0.0050
  571W        W 4635   8.988   1.061  10.940  0.2048 -0.0537  0.3366
  572W        W 4636   5.474   5.070   9.231  0.3700 -0.0492  0.3422
  573W        W 4637   2.867   8.977   0.568 -0.0523  0.5212 -0.2239
  574W        W 4638   2.360   0.863   0.994 -0.1623 -0.3429  0.0354
  575W        W 4639   8.404   7.373   9.530 -0.1441 -0.2115 -0.0972
  576W        W 4640   6.249   0.912  11.084  0.0605 -0.1623  0.0649
  577W        W 4641   3.751   2.795   1.257 -0.1784 -0.0206  0.1037
  578W        W 4642   0.292   7.858  10.877  0.2406 -0.2239  0.0753
  579W        W 4643  10.122   3.042   0.761  0.1726  0.0377 -0.0394
  580W        W 4644   3.278   3.320   1.773 -0.0542 -0.0460  0.0958
  581W        W 4645   0.421   4.377  10.712  0.1750  0.1499  0.2552
  582W        W 4646   7.823   0.088   3.424  0.3304 -0.3942 -0.2275
  583W        W 4647   6.485   9.285   0.677 -0.0732 -0.1830  0.1022
  584W        W 4648   7.684   6.393   1.600  0.0338  0.3308  0.0461
  585W        W 4649   7.738   6.787   1.986 -0.0699  0.0879  0.1166
  586W        W 4650   6.866   9.110   2.736  0.2819  0.2060  0.3229
  587W        W 4651   2.135   2.078   3.210 -0.0918  0.0136  0.2506
  588W        W 4652   8.890   0.562  10.889 -0.1664  0.0034 -0.2567
  589W        W 4653   1.808   2.661   8.865 -0.2919 -0.0429 -0.0195
  590W        W 4654   4.507   0.275   9.930 -0.1115  0.1027  0.1648
  591W        W 4655   9.252   3.304   0.722 -0.1767 -0.0330  0.1192
  592W        W 4656   3.677   0.373   3.691 -0.1427 -0.4872 -0.1476
  593W        W 4657   6.662   4.113   9.442 -0.0095 -0.1371  0.1092
  594W        W 4658   1.372   6.765   0.405 -0.3152 -0.2726 -0.1496
  595W        W 4659   4.321   5.145   3.748  0.4750 -0.2018 -0.0564
  596W        W 4660   8.784   4.122   9.796  0.2451  0.3789  0.0104
  597W        W 4661   4.533   2.058   9.811 -0.2830 -0.0279 -0.0605
  598W        W 4662   4.635   3.461   8.725 -0.1911  0.1586  0.3133
  599W        W 4663   2.101   3.770   2.975 -0.0564  0.3120  0.0743
  600W        W 4664   5.163   3.283   1.365  0.1509 -0.0334 -0.2161
  601W        W 4665   1.885   9.237   1.618  0.1292 -0.4939 -0.1430
  602W        W 4666   9.727  10.530   0.439 -0.0888  0.1279  0.0877
  603W        W 4667   8.582   1.581   0.273 -0.0518  0.2896  0.1089
  604W        W 4668   2.300   8.957   8.860  0.0062  0.4747 -0.3157
  605W        W 4669   8.410   4.984   8.490  0.0829 -0.4733  0.0368
  606W        W 4670   2.477   1.335   7.672  0.2957  0.0935  0.5007
  607W        W 4671   0.712   3.784   2.921 -0.1864 -0.4500 -0.0056
  608W        W 4672   8.038   7.272   3.009 -0.2354  0.2900  0.1537
  609W        W 4673   6.072   5.342  10.971 -0.2842  0.1374  0.2256
  610W        W 4674   1.199   2.310   9.979  0.0743 -0.1324  0.1488
  611W        W 4675   0.223   1.606   3.285 -0.1553  0.1221  0.0639
  612W        W 4676   4.039   1.857   7.803 -0.1516  0.0843  0.2382
  613W        W 4677   8.096   9.113   2.188 -0.0761  0.5050  0.1625
  614W        W 4678   4.141   0.447   9.554 -0.2992 -0.1459 -0.1073
  615W        W 4679   0.531   2.863   3.146  0.1928 -0.0471 -0.5512
  616W        W 4680  10.300   7.526  10.547  0.0242  0.0417  0.1337
  617W        W 4681   3.920   9.291   3.313 -0.1126  0.2455  0.1561
  618W        W 4682   2.158  10.441   0.974  0.3587 -0.1525  0.0300
  619W        W 4683   6.347   8.656   9.210  0.0447  0.4749 -0.2252
  620W        W 4684   2.426   4.116   3.275 -0.1918  0.1814  0.0327
  621W        W 4685   8.150  10.372  11.115 -0.0538  0.0320  0.0897
  622W        W 4686   6.326   3.728   9.496 -0.0408  0.1482  0.0227
  623W        W 4687   1.348   8.325   1.629 -0.1376 -0.0171  0.5087
  624W        W 4688   0.499   2.836  11.143 -0.0927  0.1097  0.2493
  625W        W 4689   0.250   3.146   2.694  0.0743  0.2867 -0.0827
  626W        W 4690  10.407   0.776   0.396  0.0957 -0.0071 -0.2465
  627W        W 4691   2.475  10.478   7.970 -0.0096  0.0066  0.2704
  628W        W 4692   9.904   0.087  10.002  0.4407 -0.1307 -0.0669
  629W        W 4693   1.803   6.093  10.411  0.2332  0.0404  0.1347
  630W        W 4694   7.307   5.030   2.520  0.0971 -0.1679  0.0810
  631W        W 4695   4.624   0.440   8.201 -0.3036 -0.2269 -0.0386
  632W        W 4696   8.385   1.630   9.669  0.1720 -0.0957 -0.1317
  633W        W 4697   9.079   2.801   1.551  0.2805  0.2007 -0.2482
  634W        W 4698   1.705   4.449   0.811  0.0049 -0.1337  0.2355
  635W        W 4699   8.460   9.553   8.694  0.1830  0.0262  0.1132
  636W        W 4700   4.541   3.523   7.798  0.1753  0.3626 -0.0738
  637W        W 4701   9.033   1.811   8.813  0.1701 -0.0104  0.1831
  638W        W 4702   5.933   4.731   1.513  0.0740 -0.0447  0.0970
  639W        W 4703   2.887  10.749  11.097 -0.0128  0.2563  0.3101
  640W        W 4704   1.427   6.994  10.446  0.4049  0.0189  0.0296
  641W        W 4705   8.317   3.885  10.714  0.0413 -0.0410  0.0906
  642W        W 4706   1.346   4.335   8.406  0.0437  0.2617  0.0077
  643W        W 4707   5.192   6.860   8.050 -0.2094  0.2623 -0.1590
  644W        W 4708   6.669  10.682   0.650 -0.0176  0.2777 -0.2102
  645W        W 4709   9.895  10.467   9.114 -0.0450  0.0711 -0.2706
  646W        W 4710   4.179   3.617   0.934  0.1222 -0.1725 -0.0251
  647W        W 4711   3.703   4.446   2.567 -0.0061 -0.2801  0.4463
  648W        W 4712   4.229   2.512   9.155 -0.0123  0.0478  0.1486
  649W        W 4713   8.013   9.635   0.803  0.1932  0.1552 -0.0972
  650W        W 4714   1.679   1.023  10.352  0.1283  0.1062  0.1417
  651W        W 4715   4.976   5.033   9.057 -0.1327 -0.0301 -0.1342
  652W        W 4716  10.014   3.570   7.228  0.1702 -0.2174  0.2951
  653W        W 4717   4.289   8.161   0.778  0.0015  0.0082 -0.0043
  654W        W 4718   4.941   2.577   9.656 -0.0471 -0.0422 -0.0906
  655W        W 4719   0.158   3.949   8.220 -0.0443  0.1793  0.2998
  656W        W 4720   8.372  10.107   2.900 -0.0699  0.0466 -0.1693
  657W        W 4721   8.183   2.041  10.464 -0.1119 -0.2768  0.0202
  658W        W 4722   7.461   8.953   0.139 -0.2351 -0.1835 -0.0606
  659W        W 4723   8.477  10.113  10.886 -0.0530  0.1467 -0.2477
  660W        W 4724   1.137   0.714   1.624  0.0835  0.2352 -0.1993
  661W        W 4725   0.907   2.640   9.082 -0.0220  0.1908  0.4166
  662W        W 4726   1.518   6.432   9.537 -0.2508 -0.2499 -0.0559
  663W        W 4727   2.238   9.749   8.412  0.2774 -0.4936 -0.0621
  664W        W 4728   4.952   1.104   0.737  0.3719 -0.0881  0.1464
  665W        W 4729   6.562   8.789   1.334  0.0275  0.0996  0.3290
  666W        W 4730   4.213   3.107  10.617 -0.0961  0.4144 -0.0744
  667W        W 4731  10.239   0.038   8.899 -0.2549 -0.0870  0.2760
  668W        W 4732  10.623   9.305   2.702  0.1334  0.0549 -0.1028
  669W        W 4733   5.291   3.120  10.940  0.1842  0.0328 -0.1536
  670W        W 4734   9.173   9.991   0.046  0.2004 -0.1037 -0.4505
  671W        W 4735   9.390  10.703  10.118  0.0267 -0.2923 -0.0207
  672W        W 4736   3.901   1.373   3.490 -0.0293 -0.0245 -0.2432
  673W        W 4737   4.027   1.895   3.358 -0.0830 -0.4684  0.2826
  674W        W 4738   0.252   6.566   9.850  0.0997  0.0090  0.2829
  675W        W 4739   3.720  10.240   1.560  0.1837  0.0024  0.2479
  676W        W 4740   3.601   5.443   1.030 -0.2351 -0.0769 -0.2117
  677W        W 4741   5.268   5.743  11.242 -0.0679 -0.1345 -0.2228
  678W        W 4742   9.220   3.383   2.624 -0.3045  0.1339  0.0367
  679W        W 4743   0.706   5.437   6.941  0.4520 -0.0308  0.0305
  680W        W 4744   8.444  10.485   8.761 -0.3024  0.0091  0.0288
  681W        W 4745   3.454   2.507   0.902  0.1496 -0.1299  0.1135
  682W        W 4746  10.464   0.468  10.741  0.1209 -0.2611 -0.1172
  683W        W 4747   6.743   6.234   2.410  0.0992 -0.2741 -0.3083
  684W        W 4748   9.622   2.859   0.839  0.3332 -0.0636 -0.4781
  685W        W 4749  10.287   7.439   1.000 -0.0526 -0.1804  0.3546
  686W        W 4750   0.972  10.487   3.228 -0.2828  0.1011  0.0260
  687W        W 4751   8.383  10.021   2.030 -0.0209 -0.3302  0.0601
  688W        W 4752   8.439   5.546   2.303 -0.1862 -0.1903 -0.2293
  689W        W 4753   7.287   1.547  10.822 -0.0030  0.4668  0.2025
  690W        W 4754   8.921   4.575   8.414  0.0286 -0.2886 -0.0743
  691W        W 4755   8.162   9.011   1.510  0.2778 -0.0462 -0.1411
  692W        W 4756   6.393   9.070   9.498  0.2815  0.0464  0.0702
  693W        W 4757   0.518   4.289   8.393  0.0455 -0.2854  0.0005
  694W        W 4758   1.222   5.992  10.430  0.1773 -0.0174 -0.0890
  695W        W 4759   8.556   5.714   9.356 -0.2223  0.3242  0.2123
  696W        W 4760   6.647   5.491   9.703  0.0968  0.3378  0.0499
  697W        W 4761  10.711   1.817   2.097  0.1128 -0.1548 -0.0470
  698W        W 4762   1.417   5.744   7.866 -0.1166  0.0918 -0.2388
  699W        W 4763   9.816   3.419   7.980  0.0540 -0.2057 -0.2473
  700W        W 4764   6.595   8.597   9.732 -0.1924 -0.3055 -0.1332
  701W        W 4765   8.917   6.413   1.073 -0.0214  0.2310  0.0049
  702W        W 4766   8.501   0.163   8.040  0.3108 -0.2753  0.1010
  703W        W 4767   7.608  10.287  10.390  0.1961  0.0940 -0.0078
  704W        W 4768   8.833   6.082  11.226 -0.2452 -0.1733  0.0758
  705W        W 4769   7.804   1.841  10.151  0.1313  0.4013  0.2243
  706W        W 4770   5.997   4.014  11.321  0.0281 -0.3082 -0.1199
  707W        W 4771   8.235   6.010  10.450  0.1930 -0.1986  0.0042
  708W        W 4772   4.061   7.851   1.231 -0.1370 -0.1199 -0.0875
  709W        W 4773   0.054   4.574   9.449  0.3072  0.1771 -0.1187
  710W        W 4774   3.128   3.830   7.284 -0.0452  0.1648  0.0231
  711W        W 4775   4.229   4.647   8.128  0.0224 -0.1197  0.2564
  712W        W 4776   1.135   0.130   4.011  0.1921  0.3294 -0.4666
  713W        W 4777   2.301  10.638   2.530  0.4231 -0.0062 -0.2823
  714W        W 4778   3.147   0.764   3.921 -0.1382  0.2104 -0.0060
  715W        W 4779   8.006   4.202   1.030  0.2136 -0.1700  0.0093
  716W        W 4780   3.710   3.873  10.541  0.1492 -0.0318  0.0963
  717W        W 4781   4.549  10.360   2.580  0.2167  0.3004 -0.1485
  718W        W 4782   5.267   3.117   3.368  0.0522  0.0874  0.2150
  719W        W 4783   8.031   6.771   2.759  0.0594 -0.1921 -0.3275
  720W        W 4784   7.006   4.819   0.403  0.0781 -0.0133 -0.0786
  721W        W 4785   5.864   9.985   2.758 -0.0944  0.2659 -0.3656
  722W        W 4786   1.206   3.218  10.112  0.4749 -0.0132  0.6005
  723W        W 4787   4.024   4.973   8.465  0.0416  0.3411  0.1482
  724W        W 4788   5.416   2.642   9.725  0.3884  0.3379  0.1392
  725W        W 4789  10.702   6.110  11.038  0.0832 -0.0803  0.2781
  726W        W 4790   6.771  10.365   1.873 -0.0376 -0.2242 -0.2616
  727W        W 4791   7.659   7.005   7.541 -0.0739  0.0523 -0.0070
  728W        W 4792   8.273   4.839   7.664 -0.0890  0.0959 -0.1057
  729W        W 4793   1.504   8.897   0.438 -0.0776 -0.0812 -0.0853
  730W        W 4794   4.835   2.187   2.849  0.0111 -0.2045 -0.1038
  731W        W 4795   8.691   6.451   0.205 -0.3602 -0.0611 -0.1033
  732W        W 4796   5.979   4.522   8.545 -0.0005 -0.2809  0.4325
  733W        W 4797   0.206   6.481   2.547  0.0716 -0.1182  0.4669
  734W        W 4798   4.488   5.863   1.209  0.2039 -0.2495 -0.0500
  735W        W 4799   7.406   8.060   9.569  0.1049 -0.1192  0.0536
  736W        W 4800   0.797   3.664   0.991  0.3179  0.1793  0.0969
  737W        W 4801   7.779   9.114   0.588 -0.1919  0.4228  0.3964
  738W        W 4802  10.732   3.444   1.952  0.0392  0.0410  0.0470
  739W        W 4803   8.257   0.439   3.798  0.1759  0.3165 -0.1048
  740W        W 4804   2.943   8.528   2.361 -0.0371  0.4162  0.1350
  741W        W 4805   9.520   4.635   2.254  0.4643  0.1719 -0.0683
  742W        W 4806   0.398   9.516   0.410  0.5540 -0.0892 -0.2645
  743W        W 4807   8.705   3.274   2.723  0.0431 -0.1735 -0.1137
  744W        W 4808   7.954   9.701   0.307 -0.0732  0.0424 -0.2754
  745W        W 4809  10.679   4.201   8.602 -0.0416  0.0284 -0.0916
  746W        W 4810   7.246   7.219   3.885 -0.2549  0.1120 -0.1246
  747W        W 4811   7.892   8.594   2.173  0.4382  0.1092 -0.0814
  748W        W 4812   7.325   6.686   8.815 -0.1385  0.2912  0.0990
  749W        W 4813   2.634   2.407   2.687 -0.2952 -0.0884 -0.0327
  750W        W 4814   9.112   2.110   0.647  0.1259  0.3549  0.4579
  751W        W 4815   0.445   9.463   0.999  0.1217  0.1865 -0.2968
  752W        W 4816   3.970   6.030   1.288 -0.2013 -0.2158 -0.0977
  753W        W 4817   1.108   8.175  11.142 -0.0083 -0.0768  0.0667
  754W        W 4818  10.127   9.972  10.448 -0.0859  0.2737  0.1548
  755W        W 4819   4.956   4.978   2.828 -0.0096 -0.3635  0.5989
  756W        W 4820  10.490   5.489   9.512  0.1354  0.1143 -0.1264
  757W        W 4821   3.074   9.612   8.387  0.2610 -0.0288  0.0054
  758W        W 4822   6.375   0.076   9.122  0.1004  0.0807  0.2049
  759W        W 4823   2.572   6.830  11.183 -0.1308  0.2170 -0.1201
  760W        W 4824   2.568   0.751   8.432 -0.2370 -0.0132  0.3376
  761W        W 4825   7.857   1.440   1.899  0.3390 -0.0259 -0.4291
  762W        W 4826   1.234   3.086   1.602 -0.1722 -0.2287  0.2609
  763W        W 4827   2.822   1.626   8.396  0.1840  0.0050 -0.2190
  764W        W 4828   2.527   5.465  10.382  0.1994 -0.0637  0.0320
  765W        W 4829  10.482   7.913   0.292  0.0618  0.2319 -0.1399
  766W        W 4830   9.740   5.684   8.311 -0.2563  0.0968  0.0581
  767W        W 4831   9.148   9.767   8.512  0.1473 -0.2347 -0.1835
  768W        W 4832   9.043   0.935   0.655  0.0693 -0.0023 -0.1111
  769W        W 4833   4.945   7.507   9.679 -0.0608  0.0052 -0.0226
  770W        W 4834   5.570   2.819   0.292 -0.2451  0.2468 -0.0202
  771W        W 4835   4.763  10.389   8.549 -0.2357 -0.1532  0.0344
  772W        W 4836   0.903   8.552  10.323 -0.1623  0.1954 -0.3723
  773W        W 4837   6.598   3.659  10.842  0.1840 -0.1825  0.1169
  774W        W 4838   8.784   4.414   7.670 -0.0317  0.0546 -0.2114
  775W        W 4839   7.978   9.713   3.019 -0.1623 -0.0524  0.1294
  776W        W 4840   5.864   6.938   1.090  0.2355  0.3078 -0.0253
  777W        W 4841   1.272   7.754   9.087  0.2285 -0.0011  0.0310
  778W        W 4842   2.304   5.929  10.543  0.0385 -0.2712  0.0011
  779W        W 4843   2.660   3.690  11.173  0.0186 -0.2757 -0.1280
  780W        W 4844   7.463   7.637   9.276  0.2506  0.1795 -0.2598
  781W        W 4845   9.473   1.148   2.670 -0.1193  0.3809  0.5292
  782W        W 4846   4.021   2.495   8.581  0.1306 -0.2734 -0.1519
  783W        W 4847   1.929   4.851   1.707  0.0883 -0.3115 -0.3768
  784W        W 4848   8.124   3.610  10.322 -0.2361  0.2206 -0.2217
  785W        W 4849   2.627   9.411   1.941  0.3377 -0.1643  0.0966
  786W        W 4850   0.625   5.115  11.177 -0.0942  0.1347  0.1956
  787W        W 4851   0.341   4.734   2.474  0.2693  0.4195  0.1022
  788W        W 4852   3.092   6.484   0.657 -0.1984 -0.2892 -0.1994
  789W        W 4853   1.216   9.078   8.562  0.1631 -0.0670 -0.1747
  790W        W 4854   2.252  10.012   3.409  0.0301 -0.1094 -0.1954
  791W        W 4855   9.290   5.748  10.053 -0.1669 -0.0432  0.0549
  792W        W 4856   6.665  10.416  10.979  0.0745  0.2173 -0.0394
  793W        W 4857  10.336   3.451   8.065  0.1612  0.1329  0.2072
  794W        W 4858   8.153  10.685   9.782  0.0456  0.1290 -0.0859
  795W        W 4859   5.815   2.155   8.332 -0.1750  0.2543  0.0246
  796W        W 4860   8.774   2.661  10.490 -0.1220 -0.3073 -0.0624
  797W        W 4861   7.807   0.937   1.900 -0.1822 -0.0397  0.1007
  798W        W 4862   4.947   7.655   1.440 -0.2506 -0.2847 -0.0283
  799W        W 4863   4.022   1.412   7.601 -0.0287 -0.3744  0.0650
  800W        W 4864   7.628   1.236  11.010  0.3850  0.2228 -0.4475
  801W        W 4865   1.075   6.502   2.572 -0.3121 -0.1425 -0.1991
  802W        W 4866   2.188   8.325   8.200  0.1278 -0.1070  0.0680
  803W        W 4867   4.902   3.676   1.252 -0.0563 -0.1597 -0.1773
  804W        W 4868   5.662   8.328   0.922 -0.4284 -0.0682 -0.1840
  805W        W 4869  10.683   2.775   9.342  0.1042  0.3326  0.0374
  806W        W 4870   2.394   4.217  10.966  0.0068 -0.0129 -0.0781
  807W        W 4871   4.717   3.970   8.791  0.4011  0.2594  0.2247
  808W        W 4872   2.936   7.759   0.077  0.1052 -0.0347 -0.1908
  809W        W 4873   1.456   1.971   1.494  0.2147 -0.0464 -0.0386
  810W        W 4874   8.752   0.084   0.963  0.1341  0.1467 -0.0380
  811W        W 4875   2.243   9.733   2.989  0.1821  0.0081 -0.1041
  812W        W 4876   8.360   2.441   1.185 -0.1985 -0.0741  0.3441
  813W        W 4877   7.144   2.257   9.554 -0.0037  0.1764  0.0348
  814W        W 4878  10.664   4.418  11.210 -0.1328  0.0921  0.2126
  815W        W 4879   5.272   0.044  11.041 -0.0097  0.0506 -0.1464
  816W        W 4880   6.093   6.169   3.620  0.0712 -0.0098 -0.1148
  817W        W 4881   2.445   6.116   9.132 -0.1997  0.1511 -0.1989
  818W        W 4882   7.224   2.206   8.940  0.0462 -0.1818  0.0996
  819W        W 4883   3.243   5.309   2.328 -0.2671 -0.1910 -0.2332
  820W        W 4884   2.590   5.805  11.262 -0.1061 -0.0956 -0.1407
  821W        W 4885   9.905   8.923  10.220  0.4140  0.0386  0.2599
  822W        W 4886   9.659   9.732   2.266  0.0799  0.3464 -0.0446
  823W        W 4887   1.358   0.699   0.571  0.0625  0.0221 -0.4223
  824W        W 4888  10.265   9.107   9.218 -0.3244  0.0095  0.0269
  825W        W 4889   0.206   3.823  10.132 -0.2310  0.1322  0.2559
  826W        W 4890   2.317   6.938   0.323  0.2371  0.0286  0.1443
  827W        W 4891   6.598   5.316   0.062 -0.0483  0.2293 -0.0996
  828W        W 4892   5.630   6.930  11.084 -0.3740  0.0356 -0.0842
  829W        W 4893   3.973   7.888   0.479 -0.2907 -0.1967  0.1416
  830W        W 4894   9.761   5.867  10.650 -0.2044 -0.1025  0.1986
  831W        W 4895   2.728   7.820   3.686 -0.1669  0.0637  0.1429
  832W        W 4896   1.834   8.084   9.149 -0.0106 -0.1353  0.1138
  833W        W 4897   1.487   7.486   1.726  0.0564  0.0343  0.1926
  834W        W 4898   2.560  10.601   9.831  0.2472  0.1066 -0.0155
  835W        W 4899   4.817   3.312  10.760 -0.3319 -0.0565  0.4175
  836W        W 4900   3.685   6.305   1.012 -0.3007  0.0008 -0.1697
  837W        W 4901   9.198   5.011   2.423  0.2017  0.2241  0.0614
  838W        W 4902   6.915   9.966   8.498  0.1749  0.0765  0.0548
  839W        W 4903   4.787   1.889   1.271 -0.1590 -0.0560  0.0325
  840W        W 4904   5.103   9.793  10.165 -0.0580 -0.3437  0.2001
  841W        W 4905   6.738  10.534   7.601 -0.1870 -0.2374 -0.3295
  842W        W 4906   4.787   5.589   3.762 -0.0671  0.1129  0.4068
  843W        W 4907   2.030   6.625   9.017 -0.1895 -0.0164 -0.0986
  844W        W 4908   2.815   9.808   1.157 -0.0333  0.4785 -0.1924
  845W        W 4909   6.563   5.199  10.679 -0.2490 -0.0992  0.0869
  846W        W 4910   0.715   5.823  10.389 -0.0674 -0.1265 -0.2103
  847W        W 4911   4.371   2.071  11.220  0.0547  0.2914  0.0637
  848W        W 4912   3.944   5.428  11.163  0.1673 -0.2877 -0.0554
  849W        W 4913   8.008   1.904   2.056  0.0253  0.0621 -0.2138
  850W        W 4914   8.937   9.581   1.816  0.1909  0.4619 -0.1787
  851W        W 4915   8.021   3.623   3.574 -0.0698  0.1843 -0.2232
  852W        W 4916   3.830   0.128   9.481  0.3198  0.0072 -0.1840
  853W        W 4917   8.722  10.442  11.166  0.0868 -0.1424 -0.2052
  854W        W 4918   5.232   4.181   7.649 -0.2385 -0.2755 -0.0390
  855W        W 4919   7.866   0.566   4.990  0.0373 -0.0326 -0.0284
  856W        W 4920   8.858   6.086   9.159  0.0831  0.2025  0.0053
  857W        W 4921   9.977   4.889   8.411  0.1586 -0.0915 -0.0511
  858W        W 4922   2.369   6.587   7.801 -0.1325  0.0692  0.2191
  859W        W 4923   9.441  10.313   8.563 -0.1719  0.0281  0.2387
  860W        W 4924   6.461   7.077   9.909 -0.1759 -0.1588  0.0348
  861W        W 4925   0.815   9.703   1.526 -0.0667  0.0707  0.2624
  862W        W 4926   0.430   0.004   7.826 -0.1335  0.2534 -0.0444
  863W        W 4927   2.588  10.742   1.001  0.2187  0.1857 -0.0920
  864W        W 4928   0.768   1.449   3.629 -0.1010  0.1815  0.0775
  865W        W 4929   9.431   1.884   1.584 -0.4194 -0.1174  0.3310
  866W        W 4930   1.703   7.326   8.504 -0.0630 -0.2548  0.2448
  867W        W 4931   1.525   0.413   4.116  0.2126  0.1936 -0.2194
  868W        W 4932  10.264   3.877   0.974 -0.2383 -0.0136 -0.4080
  869W        W 4933   8.434   6.694   8.004  0.3157  0.0804 -0.2112
  870W        W 4934   6.617   5.133   0.501  0.3844  0.0476  0.1236
  871W        W 4935   5.043   4.276   2.366 -0.0307 -0.2198  0.0800
  872W        W 4936  10.327   5.880   3.975 -0.2238  0.2580  0.0333
  873W        W 4937   9.421   8.750   9.356  0.2108 -0.1937 -0.0444
  874W        W 4938   1.138   4.695   8.611 -0.2033 -0.0555  0.0316
  875W        W 4939   6.746   9.743   9.706  0.0202  0.0685 -0.0326
  876W        W 4940  10.698   7.443   4.030  0.0000 -0.2180  0.0506
  877W        W 4941   1.283   3.527   9.360 -0.3463  0.1099  0.4444
  878W        W 4942   0.113   5.481   0.610  0.1387 -0.0259  0.2923
  879W        W 4943   3.848   8.077   2.981  0.1163  0.1748  0.3374
  880W        W 4944   4.239  10.722   1.065 -0.1993  0.0500 -0.0889
  881W        W 4945   6.510   7.854   0.867 -0.1837 -0.1831  0.0107
  882W        W 4946   2.896   0.060   8.051 -0.1632  0.0022  0.0767
  883W        W 4947   8.738   8.976   8.123  0.4826 -0.0742  0.0686
  884W        W 4948   8.372   4.354   1.812  0.2115  0.0699 -0.4446
  885W        W 4949   5.019   4.449   7.334  0.2227 -0.0399  0.1766
  886W        W 4950   2.911   7.870   7.431 -0.0037 -0.1947 -0.2413
  887W        W 4951   8.715   3.225   0.457 -0.2089 -0.2471 -0.0946
  888W        W 4952   1.149   3.674  11.059 -0.2754  0.0781 -0.0229
  889W        W 4953   4.147   1.304   1.146 -0.1755  0.0833  0.0157
  890W        W 4954   9.358   8.479   2.789 -0.1390  0.1874 -0.1715
  891W        W 4955   6.827   0.966  10.921  0.3496  0.0904 -0.1159
  892W        W 4956   5.316   8.642   7.533 -0.0535 -0.1969  0.0311
  893W        W 4957   7.976   5.619  10.229  0.1620  0.0226 -0.2247
  894W        W 4958   7.063   0.446   1.629 -0.1276 -0.0389 -0.1096
  895W        W 4959   5.788   4.879  10.977 -0.2051 -0.4719  0.0147
  896W        W 4960   4.055   6.909   2.331 -0.1196 -0.0676  0.0083
  897W        W 4961   7.162   5.221   0.178 -0.0700 -0.1856  0.1526
  898W        W 4962   0.975   6.944   2.255 -0.3315 -0.2457 -0.0255
  899W        W 4963   1.502   7.948   3.133 -0.0949 -0.3191  0.1213
  900W        W 4964   1.523   4.892   9.924  0.0614 -0.0428 -0.0673
  901W        W 4965   8.095   0.566  10.922 -0.1786  0.0912 -0.1775
  902W        W 4966   6.897  10.241   9.900  0.1116  0.1508  0.2880
  903W        W 4967   6.466   2.835   0.657 -0.0435 -0.1862  0.0980
  904W        W 4968   1.396   0.478   7.764 -0.1826 -0.0391  0.0513
  905W        W 4969   2.396   0.214   7.943 -0.4990  0.0256  0.3278
  906W        W 4970   6.146   5.021   0.319  0.1163 -0.1125  0.1287
  907W        W 4971   7.996   4.771   1.735 -0.4089  0.1770  0.1281
  908W        W 4972   4.697   8.530  10.463 -0.1581  0.0337  0.2375
  909W        W 4973   9.067   9.744   0.860  0.0753 -0.1415 -0.0181
  910W        W 4974   8.869   1.202   1.724 -0.1541 -0.1057 -0.2721
  911W        W 4975   5.503   1.367  10.829 -0.3869  0.2713  0.0621
  912W        W 4976   1.394   5.687   9.588  0.1497  0.1366 -0.4783
  913W        W 4977   3.061   8.064  10.766 -0.0861  0.0378  0.0247
  914W        W 4978   4.150   9.922   9.191 -0.0005 -0.1789  0.0619
  915W        W 4979   2.024   8.615   4.036  0.1643 -0.2634  0.2539
  916W        W 4980   0.228   1.773   0.542  0.0748  0.4474  0.1061
  917W        W 4981   9.384   8.746   3.201  0.0157  0.1693 -0.0685
  918W        W 4982   4.295  10.328   1.844  0.1204 -0.0671  0.1874
  919W        W 4983   7.361   5.709   1.543 -0.1001 -0.0109  0.1174
  920W        W 4984   8.239   3.183   2.858  0.3218 -0.1489 -0.0779
  921W        W 4985   7.089   4.480   1.870 -0.1962  0.1510 -0.0606
  922W        W 4986   7.177   4.045   0.784 -0.1425 -0.0852 -0.2218
  923W        W 4987   9.265   1.748   9.710  0.2510  0.0075  0.0277
  924W        W 4988  10.004   2.972   1.284  0.0045  0.2266  0.3642
  925W        W 4989   8.400   2.513   2.881  0.3661 -0.1693 -0.3604
  926W        W 4990   1.132   4.082   2.780  0.1391 -0.0953  0.2270
  927W        W 4991   4.944   0.752   9.015 -0.1726 -0.1506 -0.1722
  928W        W 4992   6.507   2.020   2.641  0.1538  0.1537  0.1926
  929W        W 4993   3.698   0.600   9.324 -0.2217  0.1209  0.1375
  930W        W 4994   5.701   5.786  11.032  0.2273 -0.0059 -0.1729
  931W        W 4995   0.914   5.135   8.515 -0.2746 -0.0538  0.0982
  932W        W 4996   0.725   7.024   8.990  0.4295 -0.0101 -0.2318
  933W        W 4997   5.364   4.672   1.489  0.1839  0.1161  0.3218
  934W        W 4998   7.468   0.396   1.118  0.0860 -0.2255  0.0741
  935W        W 4999   1.887   9.708   1.229 -0.1445 -0.2631  0.1268
  936W        W 5000  10.533   8.724  11.066 -0.1752 -0.0596  0.0877
  937W        W 5001   8.661   9.896   8.334 -0.2607 -0.1674  0.2485
  938W        W 5002   1.656   5.304   9.718 -0.1161 -0.2100  0.0592
  939W        W 5003   5.336   5.006   3.633 -0.0099  0.0337  0.0936
  940W        W 5004   2.525   3.832   2.012 -0.1535  0.1752 -0.1293
  941W        W 5005   9.785   6.376   2.737 -0.0656  0.1965 -0.1059
  942W        W 5006   9.565   0.114   0.080  0.1261  0.2949  0.3131
  943W        W 5007   7.103   5.832   8.247 -0.0604 -0.0601 -0.2855
  944W        W 5008   1.417   4.151  11.069  0.0874  0.1449 -0.0926
  945W        W 5009   2.385   8.106   0.683 -0.0282 -0.1223  0.2487
  946W        W 5010   6.074  10.484   9.775  0.1235 -0.0440  0.0641
  947W        W 5011   7.526   1.352  10.447  0.1886 -0.0976 -0.1274
  948W        W 5012   3.678   1.235   0.320 -0.2215 -0.0002 -0.2612
  949W        W 5013   5.673   2.988   1.345  0.0197  0.3652  0.0991
  950W        W 5014   1.609   2.235   0.600  0.1125 -0.0809 -0.1135
  951W        W 5015   5.615   1.443   0.213 -0.1442 -0.1294  0.0962
  952W        W 5016   8.807   3.687   2.997 -0.2140 -0.0973 -0.4111
  953W        W 5017   4.998   7.188   2.583 -0.1419  0.0463 -0.0317
  954W        W 5018   6.157   6.107   9.723 -0.2219  0.2916 -0.0576
  955W        W 5019   7.993   0.507   0.845 -0.0917  0.0970  0.0830
  956W        W 5020   6.867   6.492   9.013 -0.1815 -0.0530 -0.0343
  957W        W 5021   0.710   4.601  11.105 -0.1282 -0.1636  0.0030
  958W        W 5022   8.921   6.357   3.631  0.1666 -0.0158  0.3664
  959W        W 5023   4.529   7.790   1.645  0.1859 -0.1026  0.0101
  960W        W 5024   4.511   7.732   0.631  0.0353  0.0644 -0.2596
  961W        W 5025   1.877   5.193   0.768 -0.2488  0.0164  0.1133
  962W        W 5026   2.454   2.330   0.905  0.1385 -0.1754 -0.2698
  963W        W 5027   6.699   4.840   1.897  0.1545  0.2171  0.0179
  964W        W 5028   3.971  10.746   8.583 -0.2124 -0.2048 -0.0121
  965W        W 5029  10.092   0.717   1.342 -0.2394  0.3896  0.0622
  966W        W 5030   8.046   4.103   9.335  0.0938 -0.0492 -0.0202
  967W        W 5031   3.569   7.525   8.347  0.2410  0.0155 -0.1049
  968W        W 5032   9.138   6.282   1.961  0.0187  0.0731  0.1187
  969W        W 5033   9.564  10.675   3.456  0.2842  0.0744  0.0286
  970W        W 5034   1.999   5.026   7.629  0.0382  0.1614 -0.2097
  971W        W 5035   4.201   7.332   2.093  0.2392 -0.1221  0.0502
  972W        W 5036   4.530   5.116   8.148 -0.0860 -0.2503 -0.0700
  973W        W 5037   8.114   6.681   9.480 -0.0582 -0.2239  0.1884
  974W        W 5038   3.869  10.687   1.964  0.4487  0.0492  0.0543
  975W        W 5039  10.254   9.657  11.316  0.0471 -0.1181 -0.5178
  976W        W 5040   0.695   5.163   7.898  0.2175 -0.1993 -0.0176
  977W        W 5041  10.028   1.404   0.653  0.0158 -0.1164  0.1297
  978W        W 5042   3.741   5.483   3.212 -0.0278  0.0441 -0.1014
  979W        W 5043  10.609   1.183   3.105 -0.0496 -0.1247  0.2156
  980W        W 5044   2.702   1.217   0.833 -0.0519 -0.1994  0.0089
  981W        W 5045   6.064   3.040   0.311 -0.2163  0.1237 -0.1418
  982W        W 5046   0.154   9.008   8.320 -0.2427  0.0106  0.0534
  983W        W 5047   8.096  10.341  10.128  0.2574  0.0143 -0.4842
  984W        W 5048   5.858   0.610   9.950 -0.0883 -0.1077 -0.2138
  985W        W 5049   6.833   3.564   1.191  0.1715 -0.1062  0.0613
  986W        W 5050   8.164   5.684   1.289 -0.3213 -0.1643  0.1114
  987W        W 5051   6.546   5.176   7.986 -0.1315  0.1498 -0.1488
  988W        W 5052   3.263   3.821   0.756 -0.0881  0.3169 -0.0606
  989W        W 5053   0.128   5.213   1.015  0.1205 -0.0072 -0.0693
  990W        W 5054   0.058   3.967   9.270 -0.0393 -0.1094 -0.1675
  991W        W 5055   3.956   1.579   0.571  0.1294  0.1904  0.0560
  992W        W 5056   1.482   5.434  11.249  0.2506 -0.1292  0.3106
  993W        W 5057   1.719   3.418   1.790 -0.4716  0.1752 -0.1586
  994W        W 5058   2.948   6.099   8.760  0.2972  0.1824 -0.1448
  995W        W 5059   0.872   8.229   0.282 -0.0096  0.1134  0.0678
  996W        W 5060   4.763   8.641  10.972 -0.1216 -0.0944  0.0184
  997W        W 5061   1.187   7.736   9.651  0.2066  0.1718  0.1301
  998W        W 5062   9.180   6.273   0.323  0.1759  0.1463 -0.2814
  999W        W 5063   6.211   0.758   9.631 -0.2266  0.0647  0.2810
 1000W        W 5064   8.901   1.104   0.115 -0.1493 -0.1205  0.0157
 1001W        W 5065   3.399   1.285  10.842 -0.1450  0.2657 -0.3014
 1002W        W 5066   0.701   0.960   9.864 -0.0874  0.1382  0.0920
 1003W        W 5067   3.020   4.208   7.572 -0.1163 -0.0845  0.1355
 1004W        W 5068  10.181   5.060   9.081  0.0232  0.1166 -0.0028
 1005W        W 5069   9.509   6.657   7.314 -0.2060  0.3288 -0.0447
 1006W        W 5070   3.605   8.704  10.584  0.2196 -0.0843  0.3053
 1007W        W 5071  10.554  10.283   2.646 -0.2918  0.0550  0.0541
 1008W        W 5072   6.288   4.725   7.978 -0.0832  0.0600  0.2465
 1009W        W 5073   7.555   8.469   1.703  0.1133 -0.2193  0.2669
 1010W        W 5074   9.382   6.630   0.651  0.0172 -0.0471 -0.1467
 1011W        W 5075   2.961   3.057   7.715  0.2100  0.0210 -0.2469
 1012W        W 5076   2.603   9.819   2.584 -0.1006  0.1631 -0.2322
 1013W        W 5077   6.229   3.675   8.033  0.2132  0.1060  0.1345
 1014W        W 5078   5.267   6.032   0.350 -0.1232 -0.0118 -0.0349
 1015W        W 5079   6.659   9.981   7.567 -0.2540 -0.2546 -0.2904
 1016W        W 5080   5.131   8.680   2.183 -0.0140  0.2987 -0.1467
 1017W        W 5081   2.634  10.448  10.730  0.0145 -0.1160  0.0548
 1018W        W 5082   2.156  10.518   3.451 -0.3745  0.0529  0.0666
 1019W        W 5083   5.569   3.764   0.279  0.2886 -0.0578 -0.0675
 1020W        W 5084   4.711   9.556   0.821 -0.0588  0.2346  0.1649
 1021W        W 5085   8.915   1.751   1.550  0.0367 -0.2363  0.0930
 1022W        W 5086   3.200   5.835   2.172 -0.0091  0.2826 -0.3363
 1023W        W 5087   6.454   2.877   8.900 -0.3988 -0.1065 -0.2451
 1024W        W 5088   0.075   6.189   8.479  0.3892  0.1034  0.1803
 1025W        W 5089   4.765   3.382   3.000  0.1974  0.2939  0.4546
 1026W        W 5090   4.640   4.459   1.934 -0.2146 -0.0788  0.3113
 1027W        W 5091   7.779   0.081  10.091 -0.0020 -0.0840 -0.1075
 1028W        W 5092   1.720   2.075   0.141  0.0499  0.0814  0.1770
 1029W        W 5093   5.202   2.104   1.012  0.2077 -0.1295 -0.0448
 1030W        W 5094   5.432   7.035   7.569  0.3193 -0.2867  0.0206
 1031W        W 5095   0.784   7.694   2.363  0.1702 -0.0157  0.0654
 1032W        W 5096   0.126   1.730  10.048  0.1613  0.0978 -0.1677
 1033W        W 5097   6.305   4.061   9.903 -0.0491  0.3740 -0.1408
 1034W        W 5098   3.531   4.670   1.249  0.0018  0.0724 -0.2833
 1035W        W 5099   1.522   6.379   1.323  0.0560  0.0663  0.0425
 1036W        W 5100   8.218   4.866  10.728  0.1960 -0.0094 -0.0739
 1037W        W 5101   8.332   7.359   2.473  0.1414  0.0212  0.2624
 1038W        W 5102   7.331   8.861   2.743  0.0716 -0.2471 -0.1681
 1039W        W 5103   8.220  10.549   2.049  0.0545  0.1958 -0.0080
 1040W        W 5104   3.575   8.897   0.289 -0.2458 -0.0353 -0.1981
 1041W        W 5105   9.081   2.300   8.882 -0.2324  0.0171 -0.0358
 1042W        W 5106   2.901   6.683   9.602  0.3169  0.2474  0.0199
 1043W        W 5107   2.356   2.845   9.528  0.1825 -0.1215 -0.1220
 1044W        W 5108   8.790   9.006   2.244  0.0303 -0.0186 -0.1754
 1045W        W 5109   7.887  10.445   1.415  0.0270  0.2130  0.0702
 1046W        W 5110   4.825   7.194   8.600  0.4079 -0.4423 -0.0559
 1047W        W 5111   4.512   7.454   7.788  0.4614  0.3695  0.1052
 1048W        W 5112   5.437   2.433   8.158  0.1657  0.3215 -0.2642
 1049W        W 5113   2.609   4.753   2.959 -0.2105 -0.0720  0.1282
 1050W        W 5114   1.379   1.380   0.871  0.0625 -0.4195 -0.2277
 1051W        W 5115   3.057   6.785   0.057 -0.2133  0.0075 -0.1512
 1052W        W 5116   1.882   0.609   3.233  0.0605  0.2872  0.0022
 1053W        W 5117   7.069  10.560   9.487 -0.0733  0.2105  0.1128
 1054W        W 5118   9.604   1.581   7.781 -0.1397  0.1421 -0.4424
 1055W        W 5119   8.402   1.158   4.236 -0.0476  0.1196 -0.0250
 1056W        W 5120   1.044   6.759  10.299  0.2200  0.1240  0.3267
 1057W        W 5121   5.765   8.504   1.430 -0.3521 -0.3640  0.2349
 1058W        W 5122  10.608   5.551   6.925  0.0746  0.2672  0.2096
 1059W        W 5123   4.749   4.690  10.541 -0.0966 -0.0657 -0.2942
 1060W        W 5124   4.257   9.134   1.186  0.4033 -0.0417  0.2113
 1061W        W 5125   5.079   2.705   0.446  0.2600 -0.1469  0.2543
 1062W        W 5126   0.581   8.351   9.613  0.0086 -0.1532 -0.1055
 1063W        W 5127   1.297   1.769   0.085 -0.1631  0.0271  0.0923
 1064W        W 5128   5.523   0.325  10.750  0.3448  0.3314 -0.0890
 1065W        W 5129   6.096   5.268   2.795 -0.0413 -0.0040  0.2445
 1066W        W 5130   2.387   9.159   0.513  0.1086 -0.2492  0.1676
 1067W        W 5131   6.863   3.207  10.612  0.1941  0.1935  0.0411
 1068W        W 5132   3.182   3.275   6.943  0.0147 -0.0545 -0.0933
 1069W        W 5133   3.570   8.117   1.388  0.1108  0.0283  0.0570
 1070W        W 5134   1.409   5.962   7.282 -0.0755 -0.0017  0.4177
 1071W        W 5135   5.591   5.869   8.802  0.1313 -0.1158  0.2160
 1072W        W 5136   3.556   8.257   0.334 -0.1295 -0.4925  0.1992
 1073W        W 5137   5.778   1.406   0.728 -0.0180 -0.0426 -0.0728
 1074W        W 5138   2.649  10.286   3.350 -0.1752  0.0884  0.2217
 1075W        W 5139   7.065   2.747   0.362 -0.1273  0.0992 -0.1782
 1076W        W 5140   2.622  10.245   2.343 -0.2045  0.0129  0.0583
 1077W        W 5141   5.037   0.531   8.583 -0.0114 -0.1811 -0.1649
 1078W        W 5142   2.109   0.266   7.160  0.0455  0.0041  0.0997
 1079W        W 5143   4.691   6.249   3.314  0.0246 -0.0830 -0.0563
 1080W        W 5144   1.878   6.012   0.583  0.2258 -0.2939  0.0782
 1081W        W 5145   2.105   7.608   2.718 -0.0579  0.2404  0.0385
 1082W        W 5146   6.297   2.591   1.888  0.1547  0.0411  0.1926
 1083W        W 5147   8.883   2.717   3.133 -0.2776 -0.2752 -0.1725
 1084W        W 5148   0.681   5.841   3.041  0.0606  0.0433  0.0446
 1085W        W 5149   8.555   5.432   3.181 -0.2946 -0.2721  0.1557
 1086W        W 5150   9.473   3.927   7.964 -0.2833  0.0378  0.0115
 1087W        W 5151   2.206   7.940   8.836 -0.2130 -0.1710  0.0180
 1088W        W 5152   1.399   5.119   2.770  0.3108 -0.0002 -0.0330
 1089W        W 5153   7.218   7.729   9.981 -0.0889  0.2358 -0.1544
 1090W        W 5154   5.452   8.942  11.123  0.1404 -0.2463  0.0629
 1091W        W 5155   2.430   8.518   7.771 -0.2086 -0.1444 -0.0817
 1092W        W 5156   0.556   0.823  11.249 -0.0786 -0.1224 -0.0579
 1093W        W 5157   3.970   9.862   8.288  0.0972  0.1721  0.0615
 1094W        W 5158   7.746   8.062   3.303  0.1815  0.0531 -0.0874
 1095W        W 5159   2.884   3.383   1.414 -0.1909  0.2338 -0.0515
 1096W        W 5160   8.898   2.291   1.483  0.1733 -0.1829  0.2505
 1097W        W 5161   3.259   6.993   9.892  0.1855 -0.0129  0.2974
 1098W        W 5162   9.760   8.102   2.656 -0.0539 -0.1758  0.0189
 1099W        W 5163   5.100   5.445   9.324  0.3109 -0.1720  0.1303
 1100W        W 5164   8.562   4.066   9.336  0.0564  0.3668  0.0671
 1101W        W 5165  10.260   7.119   9.223 -0.2727 -0.0907 -0.4420
 1102W        W 5166  10.543   7.784   9.748 -0.0401 -0.1280 -0.0036
 1103W        W 5167   5.864   3.633   2.054 -0.3975 -0.0288  0.0324
 1104W        W 5168   1.327   5.057   2.181 -0.2667 -0.0357  0.0162
 1105W        W 5169   6.758   7.843  10.038  0.0328  0.0394  0.0250
 1106W        W 5170   5.505   6.323   9.050  0.1528  0.1472 -0.0999
 1107W        W 5171   9.348   0.793   3.015 -0.0189  0.1836 -0.5537
 1108W        W 5172   4.558   5.767   9.358  0.3129 -0.0130  0.1078
 1109W        W 5173   2.998   8.340   7.768  0.1129 -0.0046  0.0402
 1110W        W 5174   2.789   3.372   1.905  0.0417  0.0887  0.1669
 1111W        W 5175   6.192   0.224   3.019 -0.0461  0.1710  0.2494
 1112W        W 5176   5.620   3.360   1.024  0.1395  0.0176 -0.0725
 1113W        W 5177  10.752   1.118   1.579  0.0111 -0.0798 -0.0734
 1114W        W 5178   1.956   2.456   8.384  0.1154  0.0343 -0.0610
 1115W        W 5179   2.003   5.456  10.113 -0.4471 -0.3688  0.0447
 1116W        W 5180   5.478   5.610   2.403 -0.2706 -0.0347  0.0937
 1117W        W 5181   2.362   8.340   1.647 -0.2392 -0.0362 -0.0325
 1118W        W 5182   7.831   7.515   0.044 -0.2852 -0.1595 -0.1661
 1119W        W 5183   3.242   5.702   1.277 -0.1274 -0.0821 -0.3618
 1120W        W 5184   3.323   1.308   9.844  0.4639  0.0232  0.0361
 1121W        W 5185   9.967   5.385   0.208  0.2071 -0.1680  0.0733
 1122W        W 5186   2.796  10.337   1.868 -0.1253  0.1930  0.0785
 1123W        W 5187   6.236  10.728   3.490  0.1983  0.0587  0.0071
 1124W        W 5188   6.056   0.154   1.689 -0.1476  0.1936  0.1910
 1125W        W 5189   9.732   9.302   8.163  0.2614 -0.0130  0.2142
 1126W        W 5190   1.428   0.748   9.505  0.1759 -0.0481 -0.2641
 1127W        W 5191   9.723  10.764   2.931 -0.4460  0.1943 -0.0201
 1128W        W 5192   6.073   0.627   1.890  0.2121  0.1998  0.0916
 1129W        W 5193   4.016   8.923   2.070 -0.0437  0.2670  0.0500
 1130W        W 5194   2.715   1.131   4.021 -0.2521 -0.1717 -0.0271
 1131W        W 5195   4.305   7.010  10.341 -0.1899  0.0232 -0.4270
 1132W        W 5196   4.247   8.694   8.832  0.1970 -0.1715 -0.0238
 1133W        W 5197   5.643   9.169  10.680  0.2219  0.1460 -0.3197
 1134W        W 5198   6.778   1.411   8.641  0.1041  0.1199  0.1073
 1135W        W 5199   0.028   5.657   0.002 -0.0145 -0.1358  0.1984
 1136W        W 5200   7.504   6.005   0.796  0.0455 -0.0176  0.0237
 1137W        W 5201   1.665   4.685   8.098  0.0761  0.1344 -0.2654
 1138W        W 5202   0.858   2.000  11.247  0.0703 -0.0957  0.1937
 1139W        W 5203   8.809   4.774  10.830 -0.0348 -0.3223  0.0341
 1140W        W 5204   1.157   3.875   1.331  0.2523 -0.0973 -0.3872
 1141W        W 5205   5.065   1.147  10.206 -0.2490 -0.3896 -0.0845
 1142W        W 5206   1.091   9.953  11.015 -0.2687 -0.0728 -0.0841
 1143W        W 5207   6.363   4.431   2.419 -0.1228  0.1342 -0.0184
 1144W        W 5208   0.685   7.117  10.331  0.0900  0.2141 -0.0681
 1145W        W 5209   0.184   8.461   9.248 -0.0226  0.0513 -0.1624
 1146W        W 5210   7.816   2.258   0.414  0.1573 -0.0474 -0.0040
 1147W        W 5211  10.740   1.049   0.014 -0.2199  0.0054  0.1676
 1148W        W 5212   6.345   2.126   1.768 -0.0359  0.0767  0.0652
 1149W        W 5213   2.743   2.244   2.123  0.0605 -0.0094 -0.2771
 1150W        W 5214   3.184   0.448   3.051 -0.2260 -0.1109  0.0893
 1151W        W 5215   6.710   6.716   2.929  0.1455 -0.0624  0.0670
 1152W        W 5216  10.576   4.000   1.920 -0.1057 -0.0707  0.4766
 1153W        W 5217   4.222   0.141   7.723  0.0928 -0.3172  0.2925
 1154W        W 5218   2.551   2.789   0.920 -0.0970  0.0127 -0.0511
 1155W        W 5219   2.729   5.438   8.940  0.2140  0.0467 -0.0565
 1156W        W 5220   3.317   8.218   9.043 -0.0029 -0.0021 -0.0458
 1157W        W 5221   1.939   8.481  10.643  0.0617 -0.0369  0.2135
 1158W        W 5222   6.561   2.827  11.057 -0.2825 -0.1783 -0.0042
 1159W        W 5223   6.427   4.465  10.687  0.0338  0.1974  0.1884
 1160W        W 5224   6.702   3.152   1.468  0.4392  0.2807 -0.1847
 1161W        W 5225   0.836   0.346  10.571  0.2356  0.0348 -0.0329
 1162W        W 5226   4.587   1.432   9.864 -0.0709  0.0278  0.2741
 1163W        W 5227   9.893   2.871   8.553 -0.0415  0.0342 -0.1039
 1164W        W 5228  10.370   2.952   2.049  0.2016  0.0790  0.2171
 1165W        W 5229   9.785   7.228   8.241 -0.0403  0.0884 -0.0886
 1166W        W 5230   3.254   2.014   1.627  0.4650  0.3292  0.0825
 1167W        W 5231   6.348   3.505   8.512  0.0491  0.1039  0.2384
 1168W        W 5232   7.704   4.892   4.094  0.1830  0.0119  0.3027
 1169W        W 5233   7.773   7.612   0.834 -0.1815 -0.1452 -0.1661
 1170W        W 5234   0.133   9.819   1.153  0.4529  0.2047 -0.0343
 1171W        W 5235   3.332   1.546   1.491  0.2255 -0.3028  0.2392
 1172W        W 5236  10.461   2.628   0.511  0.2818  0.0522 -0.0271
 1173W        W 5237   8.709   1.161   2.256 -0.0150 -0.3122 -0.0702
 1174W        W 5238   9.936   1.897   1.254  0.1546  0.1656 -0.0206
 1175W        W 5239   7.486   7.886   1.848 -0.0189  0.0098 -0.2399
 1176W        W 5240   4.808   3.493   1.677 -0.0010  0.1454 -0.2618
 1177W        W 5241   2.760   5.144   3.371 -0.1122 -0.2715  0.1002
 1178W        W 5242   9.078   4.750   1.938  0.1377  0.2043  0.0209
 1179W        W 5243   4.461   0.762  11.318  0.4673 -0.2235  0.1312
 1180W        W 5244   8.278   2.403   0.107 -0.2480  0.0968 -0.2196
 1181W        W 5245  10.560   7.000  10.460  0.2060  0.2858 -0.0689
 1182W        W 5246   2.430   1.847   1.045 -0.2653 -0.3548  0.2357
 1183W        W 5247   1.421   7.059   1.994 -0.2949 -0.1737  0.2271
 1184W        W 5248  10.690   6.400   0.142  0.0772  0.1978  0.0846
 1185W        W 5249   9.775   1.048   1.134  0.1660 -0.2547 -0.1077
 1186W        W 5250   4.801   9.047  10.455  0.0025 -0.1812 -0.1448
 1187W        W 5251   0.306   9.968  10.249  0.1649  0.1531  0.1274
 1188W        W 5252   3.232   9.223  11.300  0.3266  0.1939  0.1734
 1189W        W 5253   2.528   8.986   7.956 -0.0449 -0.2320  0.1042
 1190W        W 5254   1.505   5.042   8.419  0.2271 -0.0255  0.2042
 1191W        W 5255   7.960   0.353   0.322 -0.0149  0.1658  0.0307
 1192W        W 5256   9.999   2.434   0.087 -0.2399  0.2428 -0.1474
 1193W        W 5257   8.827   1.820   3.479 -0.0160  0.2798  0.1635
 1194W        W 5258   9.804   8.249   8.105 -0.1378 -0.1673 -0.1281
 1195W        W 5259   7.432   5.486   1.965  0.2938 -0.2008 -0.1033
 1196W        W 5260   9.090   5.275   2.847 -0.3838  0.0406  0.2248
 1197W        W 5261   4.507   2.535   1.759  0.4107  0.0248 -0.0118
 1198W        W 5262   1.138  10.594   0.681 -0.0654  0.4172  0.1915
 1199W        W 5263   4.041   7.453   0.793 -0.1447  0.3074 -0.1503
 1200W        W 5264   7.500   0.991   8.041 -0.4431 -0.0233 -0.0134
 1201W        W 5265   9.296   7.487  10.607 -0.1083  0.3840  0.1755
 1202W        W 5266   2.283   9.006   3.233 -0.4176  0.0794 -0.1712
 1203W        W 5267   3.807   2.817   3.540 -0.2117 -0.1315 -0.0108
 1204W        W 5268   2.340   4.003  10.057  0.2371 -0.0405  0.0691
 1205W        W 5269   2.886   7.715   3.188 -0.1754  0.0661  0.1426
 1206W        W 5270   3.024   8.845   1.095  0.2943  0.2322 -0.3513
 1207W        W 5271   0.087   7.380   8.514 -0.0140 -0.0180  0.0319
 1208W        W 5272   0.894  10.176   0.621  0.0694  0.1440 -0.0554
 1209W        W 5273   2.900   1.714   0.764 -0.0988  0.1362  0.2515
 1210W        W 5274   9.150  10.611   2.262 -0.3682 -0.2171 -0.2195
 1211W        W 5275   2.017   3.180   7.316 -0.1677  0.0014  0.0949
 1212W        W 5276   2.006   6.732   9.472 -0.1333 -0.0902 -0.3134
 1213W        W 5277   7.423   1.958   0.352  0.2710 -0.0167  0.0627
 1214W        W 5278   6.162   9.277   9.881 -0.1423  0.0702  0.3202
 1215W        W 5279   7.603   1.166   0.179 -0.1324 -0.2635  0.2650
 1216W        W 5280  10.270   8.977   1.255  0.1574  0.1853  0.1618
 1217W        W 5281   5.466   8.015   1.377  0.3395  0.0632 -0.2529
 1218W        W 5282   7.759   5.055   8.540 -0.1043  0.1277  0.1783
 1219W        W 5283   8.319   8.096  10.014  0.1397  0.1529  0.3980
 1220W        W 5284   8.849   3.647   2.342 -0.0719  0.0537  0.0875
 1221W        W 5285   1.645  10.332   9.943 -0.1014  0.1889  0.2153
 1222W        W 5286   2.125   9.646   2.489 -0.3095 -0.0444  0.0672
 1223W        W 5287   1.619   0.894   1.529  0.0379 -0.2241  0.0575
 1224W        W 5288   0.123   3.068   8.948  0.1191  0.0884 -0.0286
 1225W        W 5289   1.602   1.413   4.148 -0.1120 -0.5205  0.2528
 1226W        W 5290   8.349   3.367   2.345  0.0755  0.0662 -0.3995
 1227W        W 5291  10.751   2.830   8.419  0.0579  0.0960  0.0303
 1228W        W 5292   5.894   4.554  10.593  0.3066  0.2632  0.0826
 1229W        W 5293   3.628   1.142   2.357  0.1600 -0.0396 -0.3414
 1230W        W 5294   2.840   5.063   2.545  0.1335  0.2498 -0.3492
 1231W        W 5295   1.922   4.083   3.431  0.1717 -0.0209 -0.1892
 1232W        W 5296  10.267   4.389   1.921 -0.0920 -0.2959  0.1299
 1233W        W 5297  10.440   1.830   7.837 -0.2531 -0.0802 -0.1390
 1234W        W 5298   4.691  10.068   7.605 -0.2488  0.1031  0.0864
 1235W        W 5299   6.186   7.712   9.270 -0.2757 -0.2660 -0.3915
 1236W        W 5300   4.425   7.494   1.250  0.0637 -0.2981  0.1135
 1237W        W 5301   4.847   6.858  10.135 -0.2235 -0.1030  0.0178
 1238W        W 5302   3.309   7.978  11.150 -0.0325 -0.0703 -0.2552
 1239W        W 5303   6.801   9.892   3.090  0.0220  0.0668  0.0862
 1240W        W 5304   4.653   2.251   9.345 -0.1652 -0.2160  0.0799
 1241W        W 5305   7.901   9.634   9.500  0.0717  0.1484  0.1625
 1242W        W 5306   2.999   1.014  10.716  0.1413  0.1676 -0.2194
 1243W        W 5307   0.816   8.791   3.102 -0.1441  0.1500  0.1098
 1244W        W 5308   1.106   1.660  10.993  0.1561  0.2643  0.0527
 1245W        W 5309   4.609   4.221   9.291 -0.0163 -0.0395  0.0082
 1246W        W 5310   6.846   9.764  10.216 -0.2965  0.0548 -0.1110
 1247W        W 5311  10.076   0.095   8.390 -0.0433 -0.0822  0.2939
 1248W        W 5312   8.839   9.743   9.369 -0.0425  0.0581 -0.2092
 1249W        W 5313   9.413   9.370   8.516 -0.1594 -0.4373 -0.0771
 1250W        W 5314   4.239   2.859   8.299  0.0518  0.2136 -0.1141
 1251W        W 5315   6.202   0.205  10.140 -0.2207 -0.0358  0.1900
 1252W        W 5316   0.478   9.758   9.804  0.0960 -0.0251 -0.0056
 1253W        W 5317   9.995   5.117   9.667  0.4772  0.1279  0.2904
 1254W        W 5318   3.523   5.136   1.858  0.0244 -0.0146 -0.0702
 1255W        W 5319   1.917   7.196   9.709  0.2286 -0.0929  0.1502
 1256W        W 5320   0.065   7.245   9.676 -0.1726  0.3687 -0.0830
 1257W        W 5321   3.458   7.408  10.195 -0.0484 -0.1053  0.0457
 1258W        W 5322   3.658   5.749   1.995 -0.0794  0.2315 -0.2428
 1259W        W 5323   5.719   4.854   1.960  0.0974 -0.1533 -0.2798
 1260W        W 5324   2.367   8.160   4.080  0.1185  0.2594 -0.1357
 1261W        W 5325   1.686   5.983  11.106  0.1117 -0.0632  0.1592
 1262W        W 5326   2.364   0.787   9.222  0.1009 -0.3801 -0.1640
 1263W        W 5327   2.330   2.412  11.289  0.0165 -0.1084 -0.3371
 1264W        W 5328   5.758   9.405   0.040  0.0246 -0.2473  0.1264
 1265W        W 5329   7.394   5.557   1.086  0.0616  0.0143  0.2118
 1266W        W 5330   1.681   5.253   9.251 -0.4672 -0.0113  0.2782
 1267W        W 5331   5.108   2.984   2.296 -0.2228  0.0585  0.2172
 1268W        W 5332  10.399   6.696   8.070  0.1111  0.3687  0.4186
 1269W        W 5333   0.169   2.520  10.506 -0.1631 -0.1481  0.2041
 1270W        W 5334   6.289   9.629   0.114 -0.3649 -0.1364 -0.3282
 1271W        W 5335   7.638   6.205   0.329  0.1617 -0.0005  0.2744
 1272W        W 5336   0.841   3.459  10.314  0.0686  0.0572  0.0802
 1273W        W 5337   5.279   6.667   1.717  0.1591 -0.2376  0.1791
 1274W        W 5338   2.720   5.810   2.064 -0.0627  0.1037 -0.1361
 1275W        W 5339   5.453   1.090   1.542  0.1847 -0.1139 -0.0049
 1276W        W 5340  10.544   4.934   3.000  0.0196 -0.0030 -0.0845
 1277W        W 5341   3.440   9.707   0.291 -0.0085 -0.3609  0.3848
 1278W        W 5342   5.011   5.683   0.907 -0.0366 -0.0277 -0.1636
 1279W        W 5343   9.130   1.067   8.512  0.0511 -0.0610 -0.1189
 1280W        W 5344   0.584   2.683   9.503 -0.0947  0.1057  0.1252
 1281W        W 5345  10.632   6.818   9.468 -0.2904  0.0868  0.3296
 1282W        W 5346   7.388   5.782   2.918  0.0587  0.1386  0.1287
 1283W        W 5347   2.200   7.715   4.338 -0.1919  0.1811  0.1665
 1284W        W 5348   2.769   6.298   2.043 -0.0765  0.1233  0.2487
 1285W        W 5349   1.138   9.030   0.092 -0.0358 -0.3049  0.1203
 1286W        W 5350   6.949   1.408   0.667 -0.0085 -0.0496 -0.3497
 1287W        W 5351   2.809   2.693   2.252  0.0789 -0.1904  0.0236
 1288W        W 5352  10.342   9.453   8.836  0.1211 -0.0180 -0.0898
 1289W        W 5353   7.876   7.909   8.295  0.0558  0.0073 -0.3467
 1290W        W 5354   7.743   1.554   1.051  0.1260  0.2969 -0.0100
 1291W        W 5355   1.906   7.095   2.892  0.5112  0.1049  0.0444
 1292W        W 5356   4.417   3.608  10.680 -0.2577 -0.1005 -0.1879
 1293W        W 5357   4.360   5.439   1.610 -0.1498 -0.3156  0.0840
 1294W        W 5358   8.463   0.426   0.254  0.0424 -0.5006 -0.0921
 1295W        W 5359   6.928   5.388   8.289  0.0547  0.1941 -0.1459
 1296W        W 5360   7.154   7.506   8.883  0.2617 -0.2063 -0.3290
 1297W        W 5361   7.146   4.382  11.324 -0.0508 -0.1848 -0.3148
 1298W        W 5362   1.643   8.775   2.562 -0.1352 -0.1896  0.0613
 1299W        W 5363   4.097   2.385   2.079 -0.1630 -0.1512 -0.0720
 1300W        W 5364   1.607   3.091   2.244 -0.0239 -0.1105 -0.0730
 1301W        W 5365   6.199   3.291   2.341 -0.0831 -0.1757  0.1932
 1302W        W 5366   1.888   1.167   1.106 -0.2646  0.2135 -0.2696
 1303W        W 5367   4.848   3.090   9.046  0.2664  0.1352  0.0024
 1304W        W 5368   2.332   2.097   1.466 -0.2982 -0.3561 -0.0395
 1305W        W 5369   3.328   0.873   2.746  0.2594  0.0189  0.2522
 1306W        W 5370   2.549   0.732   2.420 -0.0988  0.3726  0.1200
 1307W        W 5371   0.363   3.467   2.294 -0.0310 -0.1222  0.3171
 1308W        W 5372   1.464   1.543   7.795  0.1640  0.0365 -0.3387
 1309W        W 5373   4.414   6.376   8.661  0.1214  0.0252  0.0363
 1310W        W 5374  10.557   1.981   7.310  0.0732 -0.2916  0.0551
 1311W        W 5375   3.254   9.770  10.475 -0.2340  0.0126  0.2046
 1312W        W 5376   6.205   5.108   1.865  0.2473  0.0129 -0.0166
 1313W        W 5377   6.363  10.762   8.602 -0.1214 -0.2988  0.2200
 1314W        W 5378   0.075   9.480   3.639 -0.0643 -0.1634 -0.3253
 1315W        W 5379   6.988   3.931  11.161 -0.0548  0.1118  0.0658
 1316W        W 5380   2.121   9.295   8.185  0.1515  0.1060 -0.1215
 1317W        W 5381   4.884   2.366  10.552  0.0950 -0.1472  0.2445
 1318W        W 5382   1.573   4.051   0.573 -0.0750  0.1920  0.2608
 1319W        W 5383   8.718   4.143   0.541  0.2695 -0.1343 -0.2023
 1320W        W 5384   8.133   1.377   0.716  0.1213  0.0611  0.0874
 1321W        W 5385   2.357   9.660  10.191  0.1963  0.0202  0.2880
 1322W        W 5386   0.725   8.153   0.881  0.0377 -0.0026 -0.0041
 1323W        W 5387   7.718   8.497   3.538 -0.0060  0.1992  0.0814
 1324W        W 5388   6.118   1.255   2.144 -0.3129 -0.0150 -0.0912
 1325W        W 5389   5.752   5.868   8.295  0.0676 -0.0403 -0.1572
 1326W        W 5390   5.641   2.709   3.402  0.2598 -0.0470  0.0248
 1327W        W 5391  10.324  10.311   0.953  0.0347  0.2458 -0.1558
 1328W        W 5392   6.203   3.424   1.374 -0.1159  0.0668  0.0412
 1329W        W 5393   5.619   3.086   9.074  0.0525 -0.0246 -0.1291
 1330W        W 5394   0.308   7.545   9.359  0.1743 -0.2305 -0.1530
 1331W        W 5395   7.704   6.971   9.245  0.5428  0.0675 -0.1960
 1332W        W 5396   9.654   2.053   9.827  0.0008 -0.1257  0.0333
 1333W        W 5397   8.500   9.136   1.850 -0.0053 -0.0510 -0.1689
 1334W        W 5398   7.913   8.026   9.221 -0.3394 -0.2163  0.3486
 1335W        W 5399   5.271   7.595   7.238 -0.1473 -0.0521  0.2557
 1336W        W 5400   2.105   0.687   1.368 -0.1962 -0.0236  0.0941
 1337W        W 5401   1.747   6.168   9.076  0.1557 -0.2254 -0.0133
 1338W        W 5402   1.208   7.937   1.931  0.1316  0.1472 -0.3440
 1339W        W 5403  10.234   4.482   2.616 -0.2169 -0.1588 -0.0985
 1340W        W 5404   3.449   6.239   2.079 -0.0690  0.1068  0.3450
 1341W        W 5405   6.922   9.440   8.869  0.0525  0.1598 -0.1219
 1342W        W 5406   8.626   0.905   1.232 -0.0709  0.0554  0.1894
 1343W        W 5407   5.806   3.280  10.927 -0.1600 -0.0846  0.0945
 1344W        W 5408   4.621   8.004  10.640  0.1569 -0.2558  0.3382
 1345W        W 5409   8.120   6.377   2.429 -0.0915 -0.2880 -0.3276
 1346W        W 5410   7.658   8.038  10.609  0.0023 -0.0136 -0.0975
 1347W        W 5411  10.174   2.501   2.038  0.4349  0.2159 -0.0653
 1348W        W 5412   9.453   2.313   8.206  0.2837  0.0276  0.0776
 1349W        W 5413   3.902   2.696   7.854 -0.1270  0.0179  0.0754
 1350W        W 5414   8.226   6.518  10.779  0.1276  0.1416  0.4625
 1351W        W 5415   4.784   3.568   9.950  0.2349 -0.0953 -0.0026
 1352W        W 5416   9.911   3.841   8.211  0.1174  0.0759  0.2128
 1353W        W 5417   3.322  10.746   0.580 -0.0292  0.0359  0.3246
 1354W        W 5418   9.590   8.747  10.813  0.0188  0.0577 -0.0365
 1355W        W 5419   6.844   9.764  11.248  0.1621 -0.1315  0.0741
 1356W        W 5420   9.471   9.794   3.207 -0.1098  0.0870 -0.2414
 1357W        W 5421   4.364   2.147   3.104 -0.4212  0.0396 -0.1484
 1358W        W 5422   7.072   5.024   8.032  0.1759 -0.0671  0.2220
 1359W        W 5423   8.705   0.767   4.059 -0.0123  0.2744 -0.0147
 1360W        W 5424   0.437   9.195   3.305  0.0069 -0.0897 -0.2135
 1361W        W 5425   7.081   8.796   9.833  0.0730 -0.1325  0.2987
 1362W        W 5426   0.858   7.083  10.782  0.2483 -0.1449  0.0498
 1363W        W 5427   9.554   3.018   2.377  0.0404  0.1551 -0.0063
 1364W        W 5428   8.957   8.012   2.514 -0.1963 -0.0458 -0.2303
 1365W        W 5429   0.719   4.157   0.957  0.0792 -0.1227 -0.0303
 1366W        W 5430   1.763   9.929   2.690 -0.1445  0.0383 -0.1123
 1367W        W 5431   0.649   5.962   0.775 -0.0440 -0.0380  0.0871
 1368W        W 5432   5.576   1.830  11.187 -0.0296  0.1690  0.3831
 1369W        W 5433   1.351   3.108   8.190  0.0314  0.1715  0.3559
 1370W        W 5434   3.070   3.291   2.606  0.1751  0.0213  0.0313
 1371W        W 5435   9.855   6.486  10.022 -0.0495  0.0601 -0.2289
 1372W        W 5436   8.434   5.726   7.917 -0.3005  0.1308 -0.0739
 1373W        W 5437   9.390   9.847   1.310  0.2586  0.1401  0.0744
 1374W        W 5438   3.148  10.186   3.140  0.0513  0.1071  0.3934
 1375W        W 5439   3.610   1.200   3.164  0.2648 -0.2252  0.1953
 1376W        W 5440   5.342   4.438   0.874 -0.1837  0.2256 -0.0503
 1377W        W 5441  10.486   2.790   8.884 -0.2355  0.0301 -0.0158
 1378W        W 5442   4.134   4.744   9.720  0.2532 -0.1520  0.2348
 1379W        W 5443   3.208   6.191   1.194 -0.2292 -0.1443  0.3066
 1380W        W 5444   9.852   5.931  10.140  0.2820  0.1096 -0.4169
 1381W        W 5445   2.740   5.018   0.362 -0.0513 -0.0358  0.0723
 1382W        W 5446  10.307   2.636   8.340  0.1413  0.0961 -0.4542
 1383W        W 5447   3.859   4.380  10.902  0.0842  0.2200  0.1096
 1384W        W 5448   3.015  10.375   7.977 -0.1964 -0.2041  0.0279
 1385W        W 5449   6.898   8.617   2.723  0.2878 -0.0391 -0.1235
 1386W        W 5450   8.539   6.212  10.114 -0.1109 -0.0895  0.1045
 1387W        W 5451   2.918   4.193   0.902 -0.0672  0.0457 -0.0132
 1388W        W 5452  10.279   1.131   3.794 -0.0914 -0.1151  0.1415
 1389W        W 5453   8.330   5.665   2.789 -0.0884 -0.1624  0.1720
 1390W        W 5454   8.568   7.497   1.109 -0.1258 -0.0746 -0.1599
 1391W        W 5455   0.571   7.154   0.080  0.0126  0.1277 -0.0488
 1392W        W 5456   1.758   8.074   8.183 -0.0099 -0.1423  0.2870
 1393W        W 5457   4.179   2.551  10.475  0.3419 -0.4909 -0.2660
 1394W        W 5458   1.996   3.637   0.402  0.1150  0.1852 -0.1668
 1395W        W 5459  10.487   3.397   0.291 -0.4196 -0.1355  0.1489
 1396W        W 5460   5.120   5.185   2.311  0.0771 -0.2724  0.2300
 1397W        W 5461   0.832   2.095   2.823 -0.1460  0.2910  0.3044
 1398W        W 5462   7.505   8.016   2.820 -0.2691 -0.0244  0.2666
 1399W        W 5463   3.109   0.222  10.118  0.2563  0.2043  0.0323
 1400W        W 5464   5.470   5.788   9.288 -0.0682  0.1224  0.1690
 1401W        W 5465   2.664   6.630  10.682  0.2075 -0.0169 -0.0795
 1402W        W 5466   3.115   1.434   4.101 -0.2250  0.4186 -0.0610
 1403W        W 5467   0.635   4.422   1.699 -0.2068 -0.2336  0.1870
 1404W        W 5468   8.089   6.104   8.883 -0.2191 -0.0490  0.1064
 1405W        W 5469   4.576   7.751   9.328  0.0334  0.0629  0.1453
 1406W        W 5470  10.736   8.709   3.324 -0.0970  0.2212  0.1148
 1407W        W 5471   4.400   7.291   8.291 -0.0391 -0.0630 -0.3144
 1408W        W 5472   6.430   9.030  10.622 -0.1089 -0.2295  0.4145
 1409W        W 5473   4.399   7.968   3.067  0.2595 -0.1568 -0.0322
 1410W        W 5474  10.428   5.008   1.377 -0.2561 -0.2248 -0.3110
 1411W        W 5475   0.836   0.401   0.235 -0.3472  0.1618 -0.2660
 1412W        W 5476   3.105   2.807   2.784  0.2138  0.4816 -0.0886
 1413W        W 5477   3.793   8.046  11.305 -0.0329  0.2621 -0.2257
 1414W        W 5478   9.225  10.481   0.276 -0.3246 -0.2674 -0.2033
 1415W        W 5479   3.186   5.579   8.822 -0.0992  0.0309  0.0881
 1416W        W 5480   2.202   7.041  10.452  0.1202  0.1145 -0.0324
 1417W        W 5481   3.614   4.274   9.773  0.0584  0.2634 -0.2864
 1418W        W 5482   7.256   7.247  10.134  0.1496  0.0974 -0.1685
 1419W        W 5483   9.789   7.649  10.909 -0.0599  0.0694  0.1121
 1420W        W 5484   8.771   2.593   0.412 -0.2319 -0.1554 -0.1702
 1421W        W 5485   3.691   4.785   7.917  0.2284  0.0148  0.1250
 1422W        W 5486   3.402   5.081  10.862 -0.1523  0.0848 -0.0827
 1423W        W 5487   1.912   0.944   1.973  0.3618 -0.1523  0.0120
 1424W        W 5488   4.626   7.074   2.922 -0.0379  0.4631  0.2276
 1425W        W 5489   7.013   6.933  10.470  0.0742 -0.0735  0.0606
 1426W        W 5490   9.468   1.773   0.483 -0.1622  0.0723  0.3787
 1427W        W 5491   8.367   0.021  10.225 -0.0508 -0.0113  0.5202
 1428W        W 5492   8.167   6.379   9.876  0.0928 -0.0255 -0.1091
 1429W        W 5493  10.563   1.776   3.101 -0.0647  0.1840 -0.0565
 1430W        W 5494   8.532   2.124   3.723 -0.1719 -0.1126  0.2721
 1431W        W 5495   1.056   9.466   2.718  0.0989 -0.2080 -0.0791
 1432W        W 5496   7.901   2.346  10.142 -0.1814  0.0400  0.0451
 1433W        W 5497   7.721   8.978   8.959 -0.0961 -0.3148  0.0931
 1434W        W 5498   7.895   5.118  10.998 -0.5325 -0.3307  0.0919
 1435W        W 5499   7.249   1.615   6.529  0.2543  0.1125 -0.0643
 1436W        W 5500   6.624   1.361  11.139  0.1110 -0.0038  0.3491
 1437W        W 5501   7.758   8.863   8.479 -0.2648 -0.1065  0.2662
 1438W        W 5502   1.691   1.085   0.610  0.0071 -0.1992 -0.3009
 1439W        W 5503   8.549   9.687   3.021 -0.1729 -0.1293  0.1439
 1440W        W 5504   3.750   2.575  11.124 -0.0481  0.3083 -0.2287
 1441W        W 5505   5.568   3.300   0.037  0.2300 -0.1429  0.1059
 1442W        W 5506   6.186   6.217   2.351  0.4158 -0.0857  0.1301
 1443W        W 5507   5.581   0.230  10.286 -0.1191  0.1492  0.2430
 1444W        W 5508   3.245   7.436   3.542 -0.0146  0.3288  0.5990
 1445W        W 5509   2.509   0.426   1.334  0.1881 -0.0201  0.0007
 1446W        W 5510   3.189   6.984   8.169  0.0047  0.0362 -0.1099
 1447W        W 5511   1.279   0.130   0.322  0.0850  0.0703 -0.2272
 1448W        W 5512   2.795   6.107   0.858 -0.1162  0.0207 -0.1239
 1449W        W 5513   8.197   0.727   2.668 -0.3741 -0.2179 -0.0510
 1450W        W 5514   9.373   5.465   3.779 -0.1884 -0.0352  0.0467
 1451W        W 5515   0.042   2.153   1.596  0.0270 -0.0638 -0.1562
 1452W        W 5516   2.758  10.461   8.366 -0.1917 -0.1860 -0.1077
 1453W        W 5517   0.355   9.475  10.208  0.0612  0.0300  0.1747
 1454W        W 5518   5.216   2.494   7.323  0.2294  0.0102 -0.1179
 1455W        W 5519   1.641   3.601   9.727  0.1970  0.2757 -0.0747
 1456W        W 5520   2.825   4.992  10.369 -0.3001  0.0200  0.2329
 1457W        W 5521   4.431   5.907   8.848 -0.3251 -0.2210 -0.0039
 1458W        W 5522   0.859   7.501   3.971  0.0087  0.0138 -0.0108
 1459W        W 5523   2.021   5.763   1.470 -0.0572 -0.1428  0.0611
 1460W        W 5524   6.095   7.408   0.413  0.1567  0.1925 -0.1090
 1461W        W 5525   6.639   6.281   0.360 -0.0371 -0.1848  0.1618
 1462W        W 5526   4.176  10.244   1.281 -0.2133  0.0410 -0.1110
 1463W        W 5527   4.593  10.586   8.981  0.3467  0.1678  0.0142
 1464W        W 5528   7.146   9.588   2.190 -0.1144 -0.0719 -0.3170
 1465W        W 5529   1.560   6.812   3.438  0.0235 -0.1078  0.0005
 1466W        W 5530   5.472   6.201   8.049  0.1392 -0.1702 -0.0006
 1467W        W 5531   6.813   3.776   8.779  0.0937 -0.0514  0.0296
 1468W        W 5532   2.984   6.457  11.013 -0.0710  0.1138  0.2526
 1469W        W 5533   3.459  10.653   0.014 -0.0571 -0.0883  0.1864
 1470W        W 5534   2.140   7.173   8.352 -0.0512  0.0385  0.4135
 1471W        W 5535   2.336   3.885   0.180  0.0363 -0.0872 -0.0751
 1472W        W 5536   7.427   4.001   2.853 -0.0545  0.1185  0.0084
 1473W        W 5537   3.681   5.696   2.749 -0.0758  0.1583 -0.1650
 1474W        W 5538   6.880  10.246   0.406 -0.1080  0.0901  0.2009
 1475W        W 5539   5.310   3.823  10.255  0.0379 -0.1143  0.1068
 1476W        W 5540   7.818   0.546   2.348 -0.1438 -0.2382  0.0654
 1477W        W 5541   8.163  10.680   3.079 -0.3654 -0.1299 -0.1343
 1478W        W 5542   7.732   0.797  10.759 -0.0225 -0.4784  0.3569
 1479W        W 5543   1.479   2.246   3.337  0.3749  0.4492 -0.1637
 1480W        W 5544   2.716   6.225  10.260 -0.1973 -0.0086  0.0840
 1481W        W 5545   0.859   3.501   1.589  0.1390  0.1487 -0.0618
 1482W        W 5546   9.637   9.325   1.132  0.1193  0.2044 -0.1624
 1483W        W 5547   5.428   4.160   9.838  0.0403  0.1004 -0.1525
 1484W        W 5548   0.798   4.264   3.209 -0.2097 -0.2395  0.2489
 1485W        W 5549   5.766   0.970  11.250  0.2694 -0.4000  0.1907
 1486W        W 5550   3.035   5.201   7.723 -0.2160 -0.0166 -0.1532
 1487W        W 5551   7.813   6.553   3.238  0.0898  0.1735  0.2694
 1488W        W 5552   0.229   6.322   0.593  0.3786 -0.0138 -0.1251
 1489W        W 5553   1.733   9.606   8.278 -0.2228  0.3445  0.1336
 1490W        W 5554   6.188   9.852   3.782 -0.1227 -0.1765  0.0034
 1491W        W 5555   9.066   4.796   7.641  0.0162 -0.1451 -0.0849
 1492W        W 5556   0.278   9.597   2.610  0.3317  0.1608 -0.0895
 1493W        W 5557   0.548   7.990   9.148  0.1528  0.0004  0.0774
 1494W        W 5558   2.780   8.309   3.824 -0.1594  0.0250  0.0635
 1495W        W 5559  10.519   8.289   0.769 -0.0347  0.0452  0.0055
 1496W        W 5560   6.973   6.822   0.332 -0.1368 -0.2328  0.1690
 1497W        W 5561   7.051   5.973  10.416  0.0026  0.0146  0.3491
 1498W        W 5562   6.857   9.999  10.799  0.0902 -0.1788 -0.1100
 1499W        W 5563   0.172   6.472  10.703  0.0939 -0.0246 -0.3253
 1500W        W 5564   3.232   6.266   7.838 -0.0640  0.3004  0.1957
 1501W        W 5565   1.038   8.943   0.879 -0.0426  0.1785 -0.2645
 1502W        W 5566   4.890  10.761   8.243 -0.5610  0.3120 -0.2294
 1503W        W 5567   3.482   2.206   9.952 -0.1929 -0.2580 -0.2580
 1504W        W 5568   3.104   1.321   2.773  0.2351  0.1026 -0.0160
 1505W        W 5569   7.149   9.791   0.381 -0.1799 -0.1143 -0.1200
 1506W        W 5570   4.844   3.649   8.236  0.0565 -0.2233  0.1328
 1507W        W 5571   3.829   0.942   2.774 -0.0567  0.1858  0.0988
 1508W        W 5572   6.421   7.539  10.684 -0.1850 -0.2379 -0.4475
 1509W        W 5573   5.289   0.254   9.295  0.1455  0.0663  0.1394
 1510W        W 5574   2.373   0.859   7.925  0.1043  0.0090  0.1006
 1511W        W 5575   7.510   5.691   2.440 -0.1636  0.0423 -0.1269
 1512W        W 5576   7.988   0.256   2.743  0.0955 -0.0332  0.0768
 1513W        W 5577   1.281   9.672   3.104  0.1519 -0.2991  0.0720
 1514W        W 5578   4.317   7.008   7.899  0.2168  0.0791  0.0346
 1515W        W 5579   5.223   8.815   0.787 -0.1868  0.0356  0.0972
 1516W        W 5580   7.537   3.010  11.169 -0.0227  0.1150  0.2027
 1517W        W 5581   1.590   6.899   7.081  0.2267 -0.0665  0.2228
 1518W        W 5582   1.406   2.603   8.143 -0.0610  0.3161  0.1173
 1519W        W 5583   2.330   7.552   7.468  0.0340  0.0097 -0.0045
 1520W        W 5584   1.473   4.043   3.727 -0.0862  0.3769 -0.1454
 1521W        W 5585   8.191   8.900   0.425 -0.0347  0.1099  0.0371
 1522W        W 5586   1.969   0.076   8.760  0.0209 -0.0305  0.2442
 1523W        W 5587   2.395   2.022   2.398 -0.3389  0.0611  0.1350
 1524W        W 5588   0.338   2.799   1.122  0.0233  0.2450 -0.1242
 1525W        W 5589   3.133   0.071  10.654  0.1416  0.0644 -0.1761
 1526W        W 5590   9.423   4.831   3.431  0.0788 -0.2988  0.3268
 1527W        W 5591   9.213   9.331   3.073 -0.0991  0.0187  0.0021
 1528W        W 5592   6.172   4.368   3.175  0.0787  0.0537 -0.1283
 1529W        W 5593   6.118   4.741   2.761  0.3162  0.2743 -0.1991
 1530W        W 5594   6.870   4.861   0.881 -0.2654 -0.0245  0.0749
 1531W        W 5595   9.614   7.363   8.677  0.2577 -0.0122 -0.2053
 1532W        W 5596   3.236   1.976   2.174 -0.0083 -0.1380  0.4085
 1533W        W 5597  10.367   9.934   2.058  0.0960  0.1845 -0.2157
 1534W        W 5598   9.373   8.131   8.421  0.1273 -0.4392 -0.0654
 1535W        W 5599   3.754   6.886   9.017  0.2353 -0.4572  0.2444
 1536W        W 5600   6.112   1.433  11.154 -0.0616  0.1934  0.1179
 1537W        W 5601   0.811   3.025   8.129 -0.2226  0.2417  0.1280
 1538W        W 5602   7.463   0.759   8.654 -0.1370 -0.1511  0.0694
 1539W        W 5603   3.170   1.375   2.236 -0.1883  0.1264  0.0382
 1540W        W 5604   5.656   9.812   0.532 -0.1744 -0.0100 -0.1815
 1541W        W 5605   3.133   6.596   2.287 -0.2083 -0.1059 -0.0185
 1542W        W 5606   0.690   4.739   2.994  0.1028 -0.2975  0.0899
 1543W        W 5607   9.349   4.878   2.939 -0.3373 -0.0288  0.0137
 1544W        W 5608   0.613   0.318  11.040 -0.0824  0.3086  0.2084
 1545W        W 5609   8.701   9.031   8.681 -0.0645 -0.0223 -0.0767
 1546W        W 5610   1.862   3.641   1.408  0.0041  0.1816 -0.0150
 1547W        W 5611   0.836   5.546   8.760 -0.1172  0.1157 -0.0662
 1548W        W 5612   3.859   8.545   2.387 -0.1022 -0.0623  0.1028
 1549W        W 5613   8.141   7.631   3.325  0.1999  0.1964 -0.0782
 1550W        W 5614   0.130   8.982   3.777 -0.2600 -0.2442  0.0613
 1551W        W 5615   7.456   7.857  11.174  0.3394 -0.1118 -0.1778
 1552W        W 5616   2.151   4.733   2.148 -0.1649 -0.1222 -0.2520
 1553W        W 5617   0.267   7.003  10.711 -0.0898  0.1387  0.0465
 1554W        W 5618   7.585   9.863   2.341  0.0174 -0.0619  0.0874
 1555W        W 5619   3.353   2.725   9.556  0.0510 -0.0577  0.1122
 1556W        W 5620   7.352   7.022   2.409 -0.3828  0.2475  0.0716
 1557W        W 5621   8.352   0.595   1.698 -0.5000 -0.0917  0.3092
 1558W        W 5622  10.558   1.384   9.201  0.4947  0.3885  0.1062
 1559W        W 5623   6.894   8.352   9.383  0.2019 -0.1636 -0.1998
 1560W        W 5624   1.718   5.826   2.036 -0.0834  0.1095  0.1155
 1561W        W 5625   4.396   8.448   8.351 -0.0270 -0.2477 -0.0050
 1562W        W 5626   4.586   0.462   2.810  0.1899  0.0521 -0.0173
 1563W        W 5627   9.410   0.512   1.802  0.0480  0.1209  0.1233
 1564W        W 5628   8.644   9.928   3.755  0.2153  0.1672 -0.0149
 1565W        W 5629   5.737   4.203   8.250  0.4280 -0.0394  0.4416
 1566W        W 5630   4.253   7.207   9.028 -0.0586  0.1804 -0.1589
 1567W        W 5631   1.386   1.593   7.063  0.0814  0.0991  0.3170
 1568W        W 5632   6.064   4.586   0.082  0.0998 -0.0194 -0.0476
 1569W        W 5633   2.400   8.939   9.811  0.1192  0.3062  0.3218
 1570W        W 5634   5.403   6.942   1.295  0.0432  0.1545 -0.1612
 1571W        W 5635   6.547   0.681   8.263  0.0245 -0.0409 -0.3403
 1572W        W 5636   3.421   9.926   2.271  0.1601 -0.1390 -0.1493
 1573W        W 5637   3.727   6.527   8.656 -0.0251 -0.0097  0.1044
 1574W        W 5638   7.142   0.720   2.832 -0.0881  0.0061  0.1648
 1575W        W 5639   7.410   3.240   0.253 -0.2002  0.2233  0.0407
 1576W        W 5640   7.472   1.545   9.897  0.0755  0.0766  0.0730
 1577W        W 5641   0.011  10.166   3.143 -0.0466  0.2570  0.0650
 1578W        W 5642   9.986  10.126   0.137 -0.1372  0.0119 -0.0548
 1579W        W 5643   8.365   6.992   9.899 -0.1491 -0.0350  0.4794
 1580W        W 5644   5.946   3.405   7.737 -0.3499  0.0719  0.3026
 1581W        W 5645   5.806   0.488   0.382 -0.0504  0.2022 -0.0601
 1582W        W 5646   7.459   6.598   7.841 -0.3171 -0.1091  0.0165
 1583W        W 5647   2.503   5.814   2.877  0.1341 -0.2001  0.0830
 1584W        W 5648   5.189   9.897   2.636  0.1116  0.2626 -0.2662
 1585W        W 5649   9.495   6.335   2.300  0.2343  0.0105  0.0106
 1586W        W 5650   1.622   2.221   9.639 -0.0123 -0.2048  0.4124
 1587W        W 5651   3.974  10.570   0.275 -0.0423 -0.0299 -0.1308
 1588W        W 5652   9.701   4.899   8.852 -0.2179 -0.0535 -0.1138
 1589W        W 5653   0.726   1.036   3.037 -0.0399 -0.3238 -0.0944
 1590W        W 5654   7.702   0.667   0.004  0.1334 -0.0270  0.0434
 1591W        W 5655   6.571  10.444   1.290 -0.0400 -0.2969 -0.0463
 1592W        W 5656   6.841   0.168   8.892 -0.4484  0.0290 -0.2454
 1593W        W 5657   6.342   1.047   1.441  0.0371 -0.2506 -0.3101
 1594W        W 5658   5.586   3.329   2.390  0.2393 -0.0876 -0.1067
 1595W        W 5659   3.916   0.449   1.670  0.0223 -0.0557  0.0728
 1596W        W 5660  10.644   0.021   9.178  0.1377 -0.6226  0.0811
 1597W        W 5661   9.753   2.730   3.667 -0.0274  0.2569  0.1224
 1598W        W 5662   6.038   8.194   9.463 -0.1238 -0.1167  0.1984
 1599W        W 5663   1.297   7.796  10.884 -0.1643  0.0401  0.0831
 1600W        W 5664   6.057   4.985   8.886  0.0836  0.1941  0.3896
 1601W        W 5665   3.001   0.950   8.588 -0.2028  0.2657  0.4300
 1602W        W 5666   6.045   5.167   1.295  0.0976 -0.0656  0.0616
 1603W        W 5667   1.908   7.234   1.234  0.3038 -0.0915 -0.1306
 1604W        W 5668   9.619   5.433   9.842  0.2457 -0.1397  0.3149
 1605W        W 5669   9.277   8.319   2.311  0.2601 -0.1201  0.0910
 1606W        W 5670   3.207   9.909   0.717 -0.0231 -0.2013 -0.1501
 1607W        W 5671   7.406   3.788   0.233 -0.1788  0.1155 -0.0806
 1608W        W 5672   5.228   3.460   9.019  0.0768 -0.3130  0.1352
 1609W        W 5673   0.843   4.613   8.196  0.1506 -0.1853 -0.5277
 1610W        W 5674   8.024   8.975   2.960 -0.2356  0.0866 -0.0490
 1611W        W 5675   9.508   7.798   9.570 -0.1231  0.0203  0.2165
 1612W        W 5676   0.793   2.262  10.291  0.0489  0.1200 -0.0973
 1613W        W 5677  10.360   6.389   0.548  0.1526 -0.0221  0.3412
 1614W        W 5678   6.713  10.633   0.149  0.3180  0.3117 -0.3167
 1615W        W 5679   3.212   9.557   9.365  0.1307  0.1398 -0.2372
 1616W        W 5680   5.651   7.506   7.519  0.1861 -0.3981  0.1448
 1617W        W 5681   9.327  10.380  10.472 -0.1260 -0.2772  0.0756
 1618W        W 5682   8.523   5.877   0.253  0.0375  0.0670  0.1400
 1619W        W 5683   6.958   7.279   9.745 -0.0017 -0.0499  0.1240
 1620W        W 5684   8.756   6.591   9.844  0.1235  0.0381  0.1577
 1621W        W 5685   3.869   8.679   2.881 -0.4807 -0.2190  0.0905
 1622W        W 5686   2.009   6.370   9.895 -0.1221 -0.0146 -0.3262
 1623W        W 5687   5.346   7.348   1.712 -0.2136 -0.1337  0.1453
 1624W        W 5688   4.148  10.480   9.248  0.1504  0.1104  0.2024
 1625W        W 5689   3.212   9.981   9.663 -0.1423 -0.1669 -0.2133
 1626W        W 5690   9.219   9.499  10.457  0.3142  0.0457 -0.1427
 1627W        W 5691   6.993   9.491  10.873 -0.3809  0.0785 -0.1313
 1628W        W 5692   9.229   1.501   3.599  0.0538  0.0314  0.1084
 1629W        W 5693   6.283   0.879   4.929  0.1352  0.1173 -0.1199
 1630W        W 5694   6.932   0.705   2.077 -0.2408 -0.1582 -0.0673
 1631W        W 5695   8.940  10.444   3.857 -0.1771 -0.0431 -0.0035
 1632W        W 5696   1.639   3.227   1.286  0.1527 -0.1169  0.1454
 1633W        W 5697   5.025   8.917   9.057  0.1205  0.0735  0.0764
 1634W        W 5698   1.015   0.425   8.711  0.0253  0.2910  0.1357
 1635W        W 5699  10.386   4.068   8.999  0.0379  0.1656 -0.2896
 1636W        W 5700   3.538   9.565   3.047 -0.0348  0.0254  0.0423
 1637W        W 5701   2.315   1.096   9.859 -0.0582 -0.1606  0.2667
 1638W        W 5702   4.813   3.806   2.540 -0.0237 -0.0777 -0.2662
 1639W        W 5703   1.120   4.314   7.286  0.2436 -0.2172  0.1405
 1640W        W 5704   1.749   1.632  11.154  0.0233  0.0137 -0.2159
 1641W        W 5705   4.057   7.957   3.438  0.1450 -0.2197 -0.1743
 1642W        W 5706   2.363   1.129   1.972  0.2303  0.0947  0.1025
 1643W        W 5707   4.675   5.623  10.674 -0.1675  0.2340 -0.2162
 1644W        W 5708   3.896   4.651   3.383 -0.1808 -0.1111  0.3404
 1645W        W 5709   0.517  10.091   1.393  0.1234 -0.0299  0.3445
 1646W        W 5710   5.039   2.684  10.134 -0.0990  0.0389 -0.0538
 1647W        W 5711   4.158   3.070   0.839  0.0613  0.0501 -0.1740
 1648W        W 5712   9.179   2.527   0.078  0.0662 -0.0090  0.1997
 1649W        W 5713   4.098   3.873   7.888 -0.1643 -0.0705  0.0067
 1650W        W 5714   0.432   5.191   8.725 -0.1278 -0.1407 -0.2068
 1651W        W 5715  10.231   9.979   8.989  0.2454 -0.0292  0.3494
 1652W        W 5716   3.256   4.646   0.837  0.1099  0.1100  0.1402
 1653W        W 5717   0.249   0.959  10.445  0.3530 -0.0493  0.0875
 1654W        W 5718   8.400   0.547   9.459 -0.0775 -0.0386 -0.2235
 1655W        W 5719   7.432   7.275   0.987  0.0543  0.0188 -0.2075
 1656W        W 5720   0.409   2.198   2.475  0.2600 -0.2544 -0.0602
 1657W        W 5721   5.324   6.171   8.501  0.2010 -0.0410 -0.2777
 1658W        W 5722   6.875   8.401   8.510 -0.2618 -0.3371  0.1585
 1659W        W 5723   3.025   7.303   3.944  0.1091 -0.0596  0.0207
 1660W        W 5724   6.224   4.115   8.667 -0.1370  0.0617 -0.2635
 1661W        W 5725   2.776   0.465   9.784  0.1896 -0.0160  0.0962
 1662W        W 5726   8.261   5.152   1.990  0.0583 -0.0643 -0.0126
 1663W        W 5727   5.833   7.310   2.106  0.1767  0.2809 -0.0689
 1664W        W 5728  10.233   6.139   2.715 -0.0163  0.2846 -0.1123
 1665W        W 5729   8.592   7.327   0.382  0.0245 -0.0278 -0.1370
 1666W        W 5730   8.733   9.387   0.894 -0.2940 -0.0391 -0.1758
 1667W        W 5731   8.129   2.961  11.121  0.3629  0.0129 -0.1012
 1668W        W 5732   7.714   0.775   2.774 -0.0389 -0.0730  0.3098
 1669W        W 5733   9.493  10.270  11.161 -0.4613 -0.0389  0.1733
 1670W        W 5734  10.216   6.437   8.578  0.4442 -0.0869 -0.1327
 1671W        W 5735   5.007   6.202   2.949 -0.0763  0.0970  0.0004
 1672W        W 5736   6.020   3.269   8.823  0.1588 -0.1453 -0.5100
 1673W        W 5737   5.663   0.036   0.704  0.1875  0.0865  0.0293
 1674W        W 5738   1.223  10.311   8.749 -0.1611 -0.2917  0.0917
 1675W        W 5739   5.948   1.198  10.715 -0.2356 -0.0857  0.0421
 1676W        W 5740   4.625   3.040   2.605  0.1136 -0.0392 -0.3127
 1677W        W 5741   5.467   7.332   2.596 -0.0041  0.0552 -0.3548
 1678W        W 5742   9.375   7.173  10.027  0.1486 -0.2451  0.0117
 1679W        W 5743   0.993   4.878   9.820  0.0146 -0.0305 -0.1608
 1680W        W 5744   9.884   8.348  10.802  0.3845  0.1674  0.1135
 1681W        W 5745   0.684   5.911   3.975 -0.0341 -0.0215 -0.2936
 1682W        W 5746   3.145   9.098   3.275  0.1564  0.0775 -0.1375
 1683W        W 5747   1.604   8.247  10.899  0.2487  0.0593  0.1116
 1684W        W 5748   4.821   0.010   2.048  0.1021 -0.1407 -0.2379
 1685W        W 5749   5.741   3.865   7.846 -0.1153  0.0462 -0.0844
 1686W        W 5750   0.695   0.826   1.442 -0.1173  0.1897  0.2933
 1687W        W 5751   8.302   1.660   3.425  0.2563 -0.0200  0.3133
 1688W        W 5752   2.480   8.127   3.433  0.2255 -0.1197 -0.0201
 1689W        W 5753   7.940   0.872   3.467 -0.1398 -0.1517  0.2392
 1690W        W 5754   3.296   2.488   1.396  0.0021 -0.1499 -0.0274
 1691W        W 5755   9.531   9.334  10.885  0.1197  0.3316 -0.1371
 1692W        W 5756   3.785   1.362   1.421 -0.1257 -0.1836  0.1151
 1693W        W 5757   3.991   4.070   2.046  0.2376 -0.0927 -0.0196
 1694W        W 5758   5.937   6.294   8.526 -0.0134  0.1746 -0.1733
 1695W        W 5759   9.838   4.179  10.924 -0.0466  0.4368 -0.2314
 1696W        W 5760   6.360   5.724   2.498  0.1176 -0.0102 -0.1979
 1697W        W 5761   8.944   2.374   9.423  0.1088 -0.1882 -0.0131
 1698W        W 5762   9.848   1.537   0.221  0.3732 -0.3105  0.2500
 1699W        W 5763   7.336   2.947  10.477  0.1722 -0.0641  0.1235
 1700W        W 5764   9.396   6.283   3.652  0.1226  0.3246  0.3028
 1701W        W 5765   9.991   8.483   4.178 -0.1268 -0.0027 -0.2586
 1702W        W 5766   2.777   9.653   9.832  0.0272 -0.0232 -0.1795
 1703W        W 5767   2.898   1.843   9.292 -0.2339  0.1919  0.1147
 1704W        W 5768  10.494   5.112   8.711  0.2004  0.0847 -0.0454
 1705W        W 5769   5.432   6.616  10.727 -0.0573  0.0859 -0.1462
 1706W        W 5770   9.490   3.662  10.335 -0.2423 -0.0702  0.1432
 1707W        W 5771   0.097   9.620   3.064  0.1881 -0.0351  0.0699
 1708W        W 5772   8.050   2.122   2.824 -0.1273 -0.2406  0.0707
 1709W        W 5773   9.788   3.878   9.997 -0.1397  0.0485  0.1071
 1710W        W 5774   7.090   7.142   2.814 -0.0398  0.2763  0.4484
 1711W        W 5775   0.556   6.587   0.250  0.4169 -0.1143 -0.3869
 1712W        W 5776  10.046   3.601   0.572 -0.1318  0.2269 -0.0653
 1713W        W 5777   8.256   9.950   3.423 -0.2190 -0.0024 -0.3069
 1714W        W 5778   5.256   0.246   1.423 -0.2903  0.1074  0.2582
 1715W        W 5779  10.681   4.611   3.457 -0.4800  0.1583  0.0738
 1716W        W 5780   0.398   9.811   8.494  0.1784 -0.2142 -0.1413
 1717W        W 5781   0.926   5.204   2.060  0.0193  0.1827  0.0364
 1718W        W 5782   5.092   7.702   2.519 -0.2847 -0.0694 -0.0351
 1719W        W 5783   9.510   5.771   3.424  0.2978 -0.3846 -0.3436
 1720W        W 5784   9.762   8.991   9.061 -0.2154  0.2399  0.0958
 1721W        W 5785   1.277   3.381  10.566 -0.1086 -0.3473 -0.2178
 1722W        W 5786   2.973   4.642   1.226  0.0380  0.1827 -0.0885
 1723W        W 5787   3.971   8.545   0.200 -0.1763  0.2539  0.2723
 1724W        W 5788   0.270   4.960   2.920 -0.2255  0.0268  0.1593
 1725W        W 5789   6.176   4.488   9.002 -0.2604  0.0619 -0.4176
 1726W        W 5790   2.144  10.290   9.643 -0.2057 -0.0100 -0.4582
 1727W        W 5791   6.890   5.809   2.702 -0.1464 -0.2940  0.2207
 1728W        W 5792   9.232   7.113   7.674  0.0315  0.5275  0.0236
 1729W        W 5793   0.745   6.079   9.187  0.2418 -0.0136  0.0626
 1730W        W 5794   8.157   8.916  10.950 -0.2439  0.0000 -0.0544
 1731W        W 5795   4.456   9.663   1.371  0.1261 -0.1928  0.2664
 1732W        W 5796   1.500   1.788   9.752 -0.4703 -0.0015 -0.2751
 1733W        W 5797   3.406   0.701   3.467 -0.0283 -0.1144  0.1703
 1734W        W 5798   1.181   7.713   0.152  0.1392 -0.0979 -0.3769
 1735W        W 5799   6.700   3.090   0.222 -0.3997  0.0063 -0.3719
 1736W        W 5800   8.029   8.881  10.204 -0.0046 -0.2223  0.0962
 1737W        W 5801   0.116   6.634   8.964  0.2236 -0.3118  0.2606
 1738W        W 5802   5.797   6.906   0.526  0.0045  0.2470  0.1841
 1739W        W 5803   4.269   0.820   2.454 -0.0098  0.2452  0.0967
 1740W        W 5804   7.469   8.355   7.377  0.2175 -0.1240  0.1044
 1741W        W 5805   6.790   7.777   7.679  0.1833 -0.0294 -0.2003
 1742W        W 5806   0.919   9.649   7.323 -0.1405 -0.0412 -0.0264
 1743W        W 5807   7.719  10.156   0.137  0.2336  0.1858  0.0766
 1744W        W 5808   1.213   5.188   9.486  0.4072  0.3342  0.4766
 1745W        W 5809   1.310   4.898  10.579 -0.1635  0.1908  0.3500
 1746W        W 5810   6.979   9.313   3.890  0.0165 -0.0295 -0.1752
 1747W        W 5811  10.710   2.308   2.289 -0.0697 -0.1345  0.0924
 1748W        W 5812   6.107   1.126   2.684  0.1530 -0.1089 -0.0828
 1749W        W 5813  10.241   4.976   0.337  0.3219  0.2063 -0.1105
 1750W        W 5814   8.328   8.401   9.400 -0.2558 -0.1404  0.1351
 1751W        W 5815   2.095   1.086   3.428  0.0849 -0.1574 -0.3462
 1752W        W 5816   2.650   2.617   8.546  0.0117 -0.0438  0.2138
 1753W        W 5817   4.967   2.818   1.365  0.0376 -0.1340  0.1385
 1754W        W 5818   1.817   2.545   0.289  0.0165 -0.0532 -0.1020
 1755W        W 5819   5.140   5.986   1.222 -0.0249 -0.0763 -0.2095
 1756W        W 5820   5.067   5.659   2.902  0.1203  0.3585  0.1074
 1757W        W 5821   6.198   6.548   7.680 -0.1436  0.0023 -0.2286
 1758W        W 5822   8.701   6.942   2.398  0.0330 -0.1183  0.0830
 1759W        W 5823   0.635   1.816  10.079  0.1343  0.2838  0.0889
 1760W        W 5824   2.537   3.853   8.984 -0.2046  0.0655 -0.1975
 1761W        W 5825   6.881   8.924   2.189 -0.0761 -0.0004 -0.2499
 1762W        W 5826   0.007   1.213   0.487 -0.3907  0.3386  0.0627
 1763W        W 5827   0.095   2.402   0.769  0.2254 -0.0261 -0.0500
 1764W        W 5828   7.941   7.416   8.199  0.0212 -0.0549 -0.1109
 1765W        W 5829   8.403   3.679   2.758  0.1354 -0.0887  0.0459
 1766W        W 5830   4.436   0.050   0.072 -0.1795 -0.2633 -0.0345
 1767W        W 5831   8.622   6.487   2.199  0.0985  0.3066  0.0642
 1768W        W 5832  10.286   6.607   2.488  0.1001 -0.1270  0.1648
 1769W        W 5833   4.684   7.730  11.113 -0.3237 -0.0298 -0.0766
 1770W        W 5834   4.019   5.654  10.222  0.0412 -0.1372  0.1730
 1771W        W 5835   8.201   3.533   0.216 -0.3688 -0.1546 -0.1015
 1772W        W 5836   6.211   6.557   0.482  0.4493 -0.1918  0.0659
 1773W        W 5837   0.624   4.333   0.430 -0.2057  0.0265 -0.1123
 1774W        W 5838  10.500   0.680   1.735  0.2721  0.1107  0.0416
 1775W        W 5839  10.719   6.396   3.329 -0.4079 -0.0982 -0.0525
 1776W        W 5840   5.224   4.607   8.762  0.3544 -0.0300  0.0386
 1777W        W 5841   7.969   4.341   1.503 -0.0741  0.0284  0.0469
 1778W        W 5842   9.370   4.190  10.313 -0.1586  0.0634 -0.0325
 1779W        W 5843   9.658   3.618   2.508 -0.1510 -0.1494  0.1379
 1780W        W 5844   4.255   5.012   1.461 -0.0904  0.3616 -0.0281
 1781W        W 5845   6.915   1.099   6.022 -0.2004  0.1120 -0.1434
 1782W        W 5846   4.840   1.695   9.351  0.1451  0.1366 -0.2410
 1783W        W 5847   8.038   0.091  11.218  0.2226 -0.0759  0.2029
 1784W        W 5848   1.598   3.983   7.732  0.1340 -0.2522 -0.1352
 1785W        W 5849   4.828   3.759  10.490 -0.0122  0.0768 -0.0140
 1786W        W 5850   2.991   4.077   8.962  0.2228  0.0275  0.0835
 1787W        W 5851   7.837   4.423   8.069 -0.2351 -0.3023 -0.1171
 1788W        W 5852   4.121   6.880  10.937 -0.1459 -0.2279  0.0786
 1789W        W 5853  10.178   2.576   1.512 -0.0282 -0.0825 -0.0807
 1790W        W 5854   0.019   9.996   3.686 -0.0054  0.1023  0.2463
 1791W        W 5855   3.672   2.784   8.770  0.1017  0.3059 -0.1111
 1792W        W 5856   6.113   5.811   8.728  0.2061 -0.2777 -0.2060
 1793W        W 5857   7.545   7.156  10.555  0.2209 -0.2018 -0.1619
 1794W        W 5858   1.104   6.136   9.603  0.0291 -0.3453 -0.0333
 1795W        W 5859   4.503  10.530   0.483 -0.1084 -0.0737  0.3208
 1796W        W 5860   2.342  10.053   9.285 -0.3547  0.0444 -0.0540
 1797W        W 5861   9.809   8.871   0.937  0.3796 -0.0332 -0.1501
 1798W        W 5862   4.833  10.051   0.647  0.0010 -0.2695 -0.1190
 1799W        W 5863   6.083   5.349   9.731 -0.2679 -0.1891  0.1330
 1800W        W 5864   9.207   8.362   9.634 -0.0541  0.0524  0.0104
 1801W        W 5865   4.068   6.506   1.533  0.1753 -0.4013  0.1154
 1802W        W 5866  10.450   4.698   3.843  0.0301  0.1870 -0.0976
 1803W        W 5867   3.705   8.212  10.195  0.0207 -0.1110 -0.0713
 1804W        W 5868   6.565   4.402   2.875  0.0414 -0.4182  0.2566
 1805W        W 5869   5.095   5.642   2.097 -0.2138  0.4394 -0.2704
 1806W        W 5870   5.881   9.854  11.209  0.0063 -0.1277  0.3285
 1807W        W 5871   5.268   2.293   0.114 -0.1667  0.3249  0.0040
 1808W        W 5872  10.159   3.682   7.675  0.2452 -0.1661  0.3745
 1809W        W 5873   1.967   4.009   1.071  0.0429 -0.2320 -0.2414
 1810W        W 5874   3.838   5.072   9.423  0.2980  0.0726  0.0991
 1811W        W 5875   9.340   8.163  10.226  0.0013 -0.0064  0.0892
 1812W        W 5876   0.011   4.539   2.812  0.1020  0.0149  0.1017
 1813W        W 5877   2.110   4.529   8.401  0.4935 -0.5541  0.1922
 1814W        W 5878  10.199   9.626   2.443  0.4819  0.3131  0.1599
 1815W        W 5879   5.411   9.514  10.958  0.0468 -0.0304 -0.0424
 1816W        W 5880   1.890   5.292   2.773  0.1532 -0.1677  0.1791
 1817W        W 5881   4.754   2.944   8.514  0.0554 -0.1732  0.0521
 1818W        W 5882   6.427   4.147  11.069  0.0281 -0.1826 -0.2178
 1819W        W 5883   8.656   7.686   8.795 -0.2296 -0.0541 -0.2199
 1820W        W 5884  10.525   1.111   2.618  0.2868  0.0212 -0.0353
 1821W        W 5885   3.007   4.488   0.354  0.2321 -0.0586 -0.4448
 1822W        W 5886   0.442   8.584   0.335 -0.1497 -0.3058 -0.4516
 1823W        W 5887   1.822   9.595   0.679 -0.0266 -0.0104  0.4648
 1824W        W 5888   8.118   6.819   8.925  0.1577 -0.0709  0.1404
 1825W        W 5889   9.802   0.517   3.152 -0.0379 -0.1755 -0.0930
 1826W        W 5890   5.175   9.689   0.519  0.4483  0.0481 -0.1890
 1827W        W 5891   1.738   7.782   9.652  0.0501 -0.3066 -0.1250
 1828W        W 5892   4.864   0.592   0.813  0.0886  0.2523 -0.1938
 1829W        W 5893   1.182   4.116  10.091  0.1956 -0.5168 -0.2033
 1830W        W 5894   7.654   7.769   8.855  0.0271  0.0423  0.4391
 1831W        W 5895   2.657   6.033  10.847 -0.0074  0.1772 -0.0337
 1832W        W 5896   2.355   1.367   1.148 -0.2130  0.2119  0.0938
 1833W        W 5897   8.141   2.951   1.108  0.0379 -0.1832 -0.2262
 1834W        W 5898   4.529   4.022   0.949 -0.0339  0.1840 -0.1466
 1835W        W 5899   1.678  10.214  10.490 -0.0323  0.1799 -0.0635
 1836W        W 5900   7.466   1.207   2.630 -0.1639 -0.2148 -0.1095
 1837W        W 5901   5.473   5.718   1.690 -0.0663  0.1791 -0.1548
 1838W        W 5902   2.607   4.314   8.578 -0.1284  0.0182  0.0081
 1839W        W 5903   3.809   4.595   9.254 -0.0775  0.1490  0.0497
 1840W        W 5904   8.206   7.306   0.732 -0.0447  0.0231  0.1031
 1841W        W 5905   2.234   7.787   3.764  0.4077 -0.0304  0.0943
 1842W        W 5906   3.275  10.432   8.831 -0.2745  0.2503 -0.0500
 1843W        W 5907   9.114   2.566   7.783  0.2530  0.2508  0.2327
 1844W        W 5908  10.556   2.923   7.346  0.1030  0.4255  0.1191
 1845W        W 5909   0.405   0.059   0.138  0.0191  0.0699  0.2474
 1846W        W 5910   5.908  10.541   2.145 -0.3471 -0.1914 -0.4147
 1847W        W 5911   7.740   8.742   9.735 -0.1203  0.0134  0.0276
 1848W        W 5912   9.953   8.402   0.834  0.1484 -0.1158 -0.0264
 1849W        W 5913   2.799   9.846   9.318  0.3287  0.0203 -0.1981
 1850W        W 5914   4.469  10.204   9.471  0.0513  0.1513 -0.0754
 1851W        W 5915   8.943   7.569   2.066  0.0001 -0.0324  0.0990
 1852W        W 5916   7.261   0.157   3.363 -0.0457  0.2314 -0.1901
 1853W        W 5917   4.326   0.636   1.935  0.0244 -0.2701  0.0431
 1854W        W 5918   0.944   4.234   2.226  0.0877  0.1659 -0.1444
 1855W        W 5919  10.076   0.078   1.269  0.0942  0.0696  0.0672
 1856W        W 5920   3.507   0.011   9.940 -0.2629  0.0845 -0.1590
 1857W        W 5921   5.793  10.679   9.047  0.2270 -0.0048  0.1508
 1858W        W 5922   5.285   7.669   3.049 -0.0493  0.2804 -0.1073
 1859W        W 5923   1.138   4.747   9.124 -0.1314  0.2795 -0.0569
 1860W        W 5924   1.603  10.751   1.613  0.0080 -0.1347 -0.1162
 1861W        W 5925   6.914   8.796   8.015  0.1482  0.2041  0.1974
 1862W        W 5926   8.505   3.029   9.628  0.0344 -0.1077  0.0370
 1863W        W 5927   5.233   3.556   9.759  0.0896 -0.0836  0.1092
 1864W        W 5928   4.403   1.792   0.368  0.2093 -0.1230  0.1143
 1865W        W 5929   8.128   5.407   9.236  0.3122 -0.1188  0.1955
 1866W        W 5930   5.376   1.822   1.519  0.1167 -0.0023 -0.1381
 1867W        W 5931   8.924   6.849   2.904  0.0118 -0.4681  0.2553
 1868W        W 5932   0.895   5.119   0.698  0.1294  0.6564  0.3984
 1869W        W 5933   5.484   6.224   1.811 -0.1538  0.0467  0.2094
 1870W        W 5934   9.030   8.960   1.736  0.2341  0.3641  0.0635
 1871W        W 5935   3.956  10.177   9.752 -0.0362  0.0273  0.1610
 1872W        W 5936   4.067   8.361   9.876 -0.0715 -0.4884 -0.0704
 1873W        W 5937   9.643   2.547   9.103  0.0489 -0.0966  0.0406
 1874W        W 5938   8.687   0.218   1.993  0.3082 -0.0369 -0.0354
 1875W        W 5939   0.957   6.987   0.558 -0.2946  0.0535  0.0124
 1876W        W 5940   1.519   6.239   1.878 -0.2164  0.0359  0.2772
 1877W        W 5941   5.539   4.376  11.056 -0.2683  0.2009 -0.0267
 1878W        W 5942   3.488   3.450  11.240  0.2486  0.2424 -0.2626
 1879W        W 5943   0.431   8.289   1.680 -0.2951 -0.1052 -0.0149
 1880W        W 5944   8.689   7.733   1.603 -0.2269 -0.0391  0.0133
 1881W        W 5945   6.517   5.400   2.141 -0.1899  0.0548 -0.1110
 1882W        W 5946   9.557  10.199   9.872 -0.1511 -0.0964 -0.2391
 1883W        W 5947   9.813   3.065  10.235 -0.3649 -0.0255  0.0870
 1884W        W 5948   6.256   1.893   8.714  0.0519 -0.2329  0.1313
 1885W        W 5949   8.329   0.643   8.536 -0.2252 -0.0984  0.3517
 1886W        W 5950   2.772   1.739   2.181 -0.0608  0.0006  0.3507
 1887W        W 5951   2.608   3.291   9.665 -0.0261  0.0916  0.1145
 1888W        W 5952   8.693   6.374   3.178 -0.1161 -0.2287 -0.0023
 1889W        W 5953   1.787   1.467   1.846  0.0090  0.1162  0.1421
 1890W        W 5954   4.674   0.782   3.266 -0.0408  0.2613 -0.1108
 1891W        W 5955   2.262   4.330  10.429  0.1236  0.0877  0.1287
 1892W        W 5956  10.609   7.363   1.934 -0.1641 -0.1548  0.0822
 1893W        W 5957   4.497   3.715   9.153  0.0743  0.0257  0.3698
 1894W        W 5958   9.695   3.404   0.879 -0.0276  0.4923  0.0984
 1895W        W 5959   4.069   6.531   2.757  0.0325  0.0737 -0.0558
 1896W        W 5960   7.909   6.655   3.713 -0.1253 -0.0041  0.3268
 1897W        W 5961   1.494   4.347   2.557 -0.1157  0.0148 -0.1314
 1898W        W 5962   7.520   7.211   7.974 -0.1607  0.0854  0.0016
 1899W        W 5963   8.446   7.192   9.007 -0.0354  0.0304  0.1752
 1900W        W 5964   4.124   2.220   0.965 -0.3924  0.1220 -0.0803
 1901W        W 5965   1.538   0.952   4.104 -0.0138  0.0350 -0.2948
 1902W        W 5966   1.461   7.348   9.774  0.4594  0.0913 -0.0000
 1903W        W 5967   9.685   1.222   2.172  0.0211 -0.2914 -0.2322
 1904W        W 5968   8.329   4.994   0.278 -0.0558  0.3081 -0.1625
 1905W        W 5969   0.370   9.657  11.203 -0.0256  0.1776  0.0428
 1906W        W 5970   4.179   2.745  10.956  0.0494  0.1413  0.4255
 1907W        W 5971   3.169   8.381   1.533  0.1154 -0.0582  0.0585
 1908W        W 5972   1.821  10.674   9.545  0.5050 -0.0225 -0.0580
 1909W        W 5973   6.498   6.671   0.100  0.0064 -0.4233  0.2553
 1910W        W 5974   0.164   8.712   9.700  0.1837 -0.1387  0.0749
 1911W        W 5975   1.546   1.765   2.554  0.2136  0.0449  0.2195
 1912W        W 5976   1.759   7.057   8.993  0.1972 -0.2172 -0.2170
 1913W        W 5977   7.287   8.122   1.345  0.2930 -0.1630  0.1683
 1914W        W 5978  10.626   3.700   1.429  0.0223  0.3319 -0.1017
 1915W        W 5979   1.146  10.119   8.000 -0.5378 -0.1965 -0.4751
 1916W        W 5980   8.800   3.650   1.223 -0.3045 -0.3812  0.0473
 1917W        W 5981   7.341   2.363   0.660 -0.0482  0.0260  0.0958
 1918W        W 5982   7.576   6.578   2.478  0.1725 -0.0428  0.1377
 1919W        W 5983   2.818  10.723   2.348 -0.0111  0.1474  0.3350
 1920W        W 5984   2.076  10.113   0.581  0.2501  0.0745  0.2683
 1921W        W 5985   3.461   3.799   1.711  0.0359 -0.0595 -0.1206
 1922W        W 5986   2.788   1.686  10.818 -0.1256  0.0944  0.1527
 1923W        W 5987   8.315   5.405   0.474  0.3807 -0.0029 -0.0432
 1924W        W 5988   4.636   5.890   2.282 -0.1776 -0.1496 -0.2768
 1925W        W 5989   6.233   6.298  10.268  0.0715  0.2645  0.1759
 1926W        W 5990   6.421   0.439  11.315  0.0834 -0.2019 -0.2495
 1927W        W 5991   4.075   0.208   3.158 -0.1678  0.0873  0.3767
 1928W        W 5992   0.631   4.673   8.712  0.1947  0.1031  0.0606
 1929W        W 5993   0.074   2.682   2.927  0.2415  0.0497 -0.0514
 1930W        W 5994   0.226   1.034   9.185  0.2683 -0.1321 -0.2817
 1931W        W 5995   3.965   5.030   0.315  0.2061 -0.0096  0.0175
 1932W        W 5996   5.752   4.423   1.125 -0.1350  0.0457 -0.0733
 1933W        W 5997   4.321   6.828   1.948 -0.3031 -0.4273  0.1887
 1934W        W 5998  10.394   2.084   1.255  0.3151  0.1745 -0.3156
 1935W        W 5999   0.267   4.084   1.756 -0.0508  0.0785 -0.1297
 1936W        W 6000   4.169   5.887   0.767 -0.0343 -0.3886  0.4282
 1937W        W 6001   6.635   6.849   2.111  0.1631  0.1984  0.1048
 1938W        W 6002   1.385   3.215  11.019 -0.1023 -0.1439 -0.2216
 1939W        W 6003   4.542   3.886   9.673 -0.0134 -0.3447  0.0499
 1940W        W 6004   0.250   7.848   9.912  0.2125 -0.1649 -0.3543
 1941W        W 6005   8.040   9.783   8.782 -0.0005 -0.1391  0.1951
 1942W        W 6006   7.359   1.785   1.414 -0.0081  0.0224 -0.3534
 1943W        W 6007   4.666   8.967   8.742  0.0079 -0.1380 -0.0263
 1944W        W 6008   1.353   8.913   8.963  0.2228 -0.1054 -0.1049
 1945W        W 6009   3.542  10.257   0.650  0.1595  0.2114  0.1959
 1946W        W 6010   0.304   5.480   7.812 -0.0504  0.2941  0.0924
 1947W        W 6011   2.831  10.315   2.838  0.0382 -0.2898  0.1247
 1948W        W 6012   4.625   6.375  10.205  0.1116  0.0145 -0.0058
 1949W        W 6013   7.923   2.314   9.662  0.1632 -0.1836  0.0210
 1950W        W 6014   6.853   8.378   1.483 -0.0588 -0.1182 -0.2588
 1951W        W 6015   6.649   7.627   1.935 -0.0137  0.2161  0.2878
 1952W        W 6016   2.719   6.270   2.743  0.4214 -0.0672 -0.0125
 1953W        W 6017   6.278   6.046   1.415 -0.1298  0.0706  0.0964
 1954W        W 6018   8.735   0.753   9.820  0.4088  0.2060 -0.2483
 1955W        W 6019   5.002   7.061   0.928 -0.0267  0.2055 -0.0213
 1956W        W 6020   7.593   5.067  10.024 -0.1510  0.0227 -0.0006
 1957W        W 6021   8.999   5.619   9.102 -0.1581 -0.0647 -0.0988
 1958W        W 6022   2.729   7.865   0.941 -0.1186 -0.3093 -0.1444
 1959W        W 6023   0.072   7.025   1.641 -0.0799  0.0035 -0.1889
 1960W        W 6024   7.697   7.599   3.076  0.0460 -0.4378  0.0444
 1961W        W 6025   0.386   3.085   3.597 -0.3244 -0.1278 -0.0427
 1962W        W 6026   2.471   3.389   0.271  0.0031  0.0976  0.0027
 1963W        W 6027   0.474  10.298   3.441  0.2235  0.0013 -0.1039
 1964W        W 6028   0.201   3.038   9.642  0.1587  0.2775  0.0070
 1965W        W 6029   6.340   0.842   0.994  0.0308  0.0669  0.3529
 1966W        W 6030   1.456   2.687  11.004  0.1116 -0.2015 -0.0123
 1967W        W 6031   1.897   9.104   9.096  0.2503 -0.2694 -0.0147
 1968W        W 6032   2.981   0.505  10.970  0.3087 -0.0247 -0.0797
 1969W        W 6033   7.976   1.481   6.429  0.0486  0.0901 -0.0518
 1970W        W 6034   7.047   2.870  11.196 -0.0633  0.0274 -0.0911
 1971W        W 6035   0.542   7.835   8.397  0.0726  0.4010  0.0521
 1972W        W 6036   6.454   7.605   2.593  0.1325 -0.0065 -0.0093
 1973W        W 6037   2.009   3.301   8.325 -0.2361 -0.1456  0.1304
 1974W        W 6038   1.252   8.398   8.531  0.0285 -0.3278 -0.3480
 1975W        W 6039   1.212   6.069   8.979 -0.0835  0.2096  0.1522
 1976W        W 6040   9.262   8.802   2.187  0.2862 -0.4366  0.2927
 1977W        W 6041   9.421   2.222   9.373 -0.4610 -0.0554 -0.1017
 1978W        W 6042   2.486  10.110   0.277 -0.2998  0.1060  0.1162
 1979W        W 6043   1.921   7.162   3.451  0.1143  0.1330  0.0732
 1980W        W 6044  10.515   2.999   1.483  0.1443 -0.1181  0.2301
 1981W        W 6045   8.015   8.574   0.784 -0.1001 -0.1976 -0.0636
 1982W        W 6046   5.981   1.119  10.181  0.1816 -0.2264  0.1135
 1983W        W 6047   4.532   6.456   1.285  0.0461  0.1890 -0.0788
 1984W        W 6048   5.737   3.866   1.201  0.1727  0.6211  0.2589
 1985W        W 6049   8.856   9.398   8.369 -0.3769  0.2844 -0.3300
 1986W        W 6050   6.489   0.470   2.065 -0.0774  0.4139 -0.1338
 1987W        W 6051   4.904   5.942   8.518 -0.0252  0.1195  0.2106
 1988W        W 6052  10.739   6.449   3.819 -0.0649 -0.1583  0.1399
 1989W        W 6053   3.768   5.181   3.685 -0.0486  0.2256 -0.0467
 1990W        W 6054   9.494   6.508   8.930 -0.4171 -0.2332 -0.0857
 1991W        W 6055   8.218   3.236   0.690  0.1467 -0.2048  0.1582
 1992W        W 6056   3.352   6.876   1.838  0.1066  0.0770  0.1420
 1993W        W 6057  10.090   9.533  10.888 -0.2687  0.1416  0.1850
 1994W        W 6058   6.131   8.481   0.635  0.0405  0.2491 -0.0694
 1995W        W 6059   5.839   2.577   2.116 -0.0026  0.1080  0.0612
 1996W        W 6060   7.728   8.142   0.500 -0.1130 -0.0131  0.0588
 1997W        W 6061   9.273   4.090   9.046 -0.0416  0.0901 -0.3681
 1998W        W 6062   8.346   2.193   8.183  0.1083 -0.3162  0.1695
 1999W        W 6063   5.391   9.538   1.877 -0.2253  0.1435  0.0478
 2000W        W 6064   4.738   2.618   8.918 -0.0762  0.2091 -0.0517
 2001W        W 6065   3.561   2.390   2.788 -0.2630  0.2900 -0.1145
 2002W        W 6066   2.681   6.136   0.327  0.0277 -0.2691  0.0459
 2003W        W 6067   4.538   7.221   1.720 -0.0859 -0.1700 -0.1684
 2004W        W 6068   4.123   4.295  10.510  0.2525 -0.0425 -0.1876
 2005W        W 6069   6.837   8.988  10.898  0.3130  0.1167  0.1597
 2006W        W 6070   3.364   8.042   9.713  0.2140  0.0731 -0.0011
 2007W        W 6071   8.153  10.498   0.315 -0.0748  0.2224  0.2189
 2008W        W 6072   3.352   1.928   7.340 -0.3021  0.1453  0.0520
 2009W        W 6073   7.190   3.722  10.714 -0.1524  0.0120  0.3012
 2010W        W 6074   1.965   4.051   9.696  0.2060 -0.0474  0.0400
 2011W        W 6075   0.088   0.077  10.846 -0.1405 -0.0099  0.0727
 2012W        W 6076   2.153   3.149   0.664  0.4656  0.2742  0.3528
 2013W        W 6077   3.927   8.233   8.197 -0.1908 -0.1972  0.0501
 2014W        W 6078   4.311   9.901   2.135 -0.0737  0.2476 -0.1857
 2015W        W 6079   1.427   9.081   4.508 -0.1871  0.1140 -0.1751
 2016W        W 6080   1.030   0.438   9.316  0.2724 -0.1126 -0.0456
 2017W        W 6081   5.457   7.940  10.385  0.3758  0.1318  0.0180
 2018W        W 6082   3.965   2.051   2.870  0.0186  0.0495  0.2874
 2019W        W 6083   4.596   9.455   8.702 -0.2674 -0.3657  0.3482
 2020W        W 6084   7.337  10.366   0.513 -0.1933 -0.0956  0.0089
 2021W        W 6085   1.860   4.717   7.199  0.0481  0.1296 -0.0261
 2022W        W 6086  10.622   2.028   9.742  0.3970 -0.0916 -0.0832
 2023W        W 6087   2.322   4.306   9.536  0.1453 -0.2190  0.2263
 2024W        W 6088   6.267   8.543  10.531  0.3331  0.2753  0.0362
 2025W        W 6089   9.741   8.424   1.331 -0.1977 -0.0065 -0.0560
 2026W        W 6090   7.007   7.971   1.721 -0.0489  0.1844 -0.2123
 2027W        W 6091   7.288   0.167   9.147  0.1608  0.2913  0.3195
 2028W        W 6092   6.454   4.813   3.205 -0.0463 -0.1089  0.1210
 2029W        W 6093  10.743   6.611  10.259  0.0983  0.1865  0.0355
 2030W        W 6094   0.582   3.007   9.135 -0.2654  0.0405 -0.1753
 2031W        W 6095   8.560   2.697   1.648 -0.1407  0.0123  0.1142
 2032W        W 6096   9.417   7.253   1.944  0.0732 -0.0705 -0.2054
 2033W        W 6097   5.451   1.114   0.980 -0.2058 -0.0285 -0.2134
 2034W        W 6098   2.618   3.794   9.533  0.0752 -0.0124 -0.3339
 2035W        W 6099   6.601   8.330   8.955  0.0346 -0.0393  0.1486
 2036W        W 6100   8.271   1.406   1.216  0.1701 -0.0668  0.0611
 2037W        W 6101   3.609   4.596   8.369 -0.0792  0.0216 -0.1675
 2038W        W 6102   2.134   0.136   1.191 -0.0560 -0.1241 -0.2857
 2039W        W 6103   4.960   3.793   9.346  0.1663  0.5967  0.2293
 2040W        W 6104  10.116  10.305   1.401 -0.2609 -0.0566 -0.0793
 2041W        W 6105   7.063   8.938   3.193  0.3798 -0.1336  0.0566
 2042W        W 6106   0.152   7.991   9.469  0.0599 -0.0024 -0.2567
 2043W        W 6107   4.017  10.674   1.524 -0.1019  0.3125  0.1762
 2044W        W 6108   1.454   4.251  10.510  0.1021  0.1236  0.0238
 2045W        W 6109   2.193   8.548  10.107 -0.3774  0.3553  0.1937
 2046W        W 6110   3.844   9.868   0.534  0.0096 -0.0006 -0.0845
 2047W        W 6111   6.987   7.626   1.221  0.2358 -0.1339  0.1082
 2048W        W 6112   4.481   5.320   9.162  0.2515 -0.0850 -0.2731
 2049W        W 6113  10.112   7.512   0.314 -0.0752  0.1063 -0.0230
 2050W        W 6114   2.786   1.091  10.139 -0.1042  0.0152 -0.4126
 2051W        W 6115   0.664   0.297   8.298  0.1161  0.1489  0.1448
 2052W        W 6116   7.625   3.313  10.623  0.4974  0.2375 -0.3849
 2053W        W 6117   6.907   6.495   3.354  0.0655 -0.2906  0.2762
 2054W        W 6118   8.934   8.893   2.891 -0.1400 -0.0439 -0.2315
 2055W        W 6119   9.156   2.966   0.288  0.1056 -0.3506 -0.0219
 2056W        W 6120   3.542   8.167   1.933  0.1668  0.1827 -0.1712
 2057W        W 6121   7.804   4.872   2.777 -0.2982 -0.0865 -0.1124
 2058W        W 6122   6.838   0.315  10.336 -0.2038  0.1265  0.2560
 2059W        W 6123   3.068   6.921  10.885  0.1078  0.1814 -0.0901
 2060W        W 6124   2.552   8.454   9.765 -0.0192  0.0135  0.2418
 2061W        W 6125   7.170   6.102   9.125  0.4545 -0.1839  0.0507
 2062W        W 6126   8.076   5.296   3.045  0.3395  0.2480  0.0880
 2063W        W 6127   7.358   4.615   2.285  0.0276 -0.0760  0.1621
 2064W        W 6128   3.232   8.502   3.494 -0.2061 -0.0358 -0.1143
 2065W        W 6129   4.149   1.853   8.334  0.1584 -0.0145 -0.1249
 2066W        W 6130   6.643   6.656   0.706 -0.0942 -0.0730 -0.0523
 2067W        W 6131  10.501   5.847   1.662  0.2169 -0.0315  0.1059
 2068W        W 6132   4.431   3.303   8.245 -0.0707  0.0319 -0.2243
 2069W        W 6133   6.344   3.310  10.635  0.0445  0.1234 -0.1349
 2070W        W 6134   0.821   5.675   7.933  0.0143  0.1607  0.5096
 2071W        W 6135   6.922   4.975  11.117  0.0544  0.1345 -0.0400
 2072W        W 6136   3.373   7.805   2.287 -0.0688 -0.2936  0.1837
 2073W        W 6137  10.558   0.199   0.510 -0.0101  0.1363  0.0395
 2074W        W 6138   3.841   3.100   3.026 -0.1440 -0.0763  0.1653
 2075W        W 6139   1.335   2.719   3.404 -0.1645 -0.0580 -0.0089
 2076W        W 6140   1.958   2.197   0.992  0.0341  0.1833 -0.0731
 2077W        W 6141   4.920   0.197   2.582  0.0094  0.0232 -0.0253
 2078W        W 6142   6.024   2.214   7.828  0.2293  0.0957  0.1742
 2079W        W 6143   6.243   7.958  10.321 -0.2666 -0.0988 -0.1265
 2080W        W 6144   8.626   7.073   0.816 -0.0005 -0.0818  0.1454
 2081W        W 6145   2.808   5.435   8.468  0.0035  0.1122  0.2250
 2082W        W 6146   0.453   9.915   0.739 -0.1161  0.1893  0.0250
 2083W        W 6147   5.206   9.296   0.957 -0.0987 -0.0708 -0.2632
 2084W        W 6148   2.561   0.774  10.915 -0.2460  0.0355  0.0586
 2085W        W 6149   4.704   1.855  10.666  0.3055  0.1970  0.0579
 2086W        W 6150   2.502   8.827   0.101  0.1130  0.4696 -0.1223
 2087W        W 6151   0.352   7.517  10.280 -0.4246  0.1081  0.0216
 2088W        W 6152   1.033   6.376   0.222  0.2887 -0.3804 -0.0561
 2089W        W 6153  10.741   9.496   0.140  0.1162  0.0145  0.0317
 2090W        W 6154   8.535   0.900  10.640 -0.0978  0.1665  0.3968
 2091W        W 6155   4.354   2.108   8.939  0.0128 -0.0645  0.1460
 2092W        W 6156   1.545   6.383   0.779 -0.2512  0.1607 -0.1881
 2093W        W 6157   1.176   5.398   7.602 -0.0224 -0.0179  0.0245
 2094W        W 6158   4.267   3.776   8.550  0.0356  0.1055 -0.0502
 2095W        W 6159   6.133   6.764   1.940  0.1806 -0.1489  0.0160
 2096W        W 6160   6.177  10.232   1.098 -0.2215 -0.0698  0.1813
 2097W        W 6161   2.840   0.908   0.085  0.1896 -0.0949 -0.4300
 2098W        W 6162   3.431   5.849   0.849  0.0337  0.0609  0.0280
 2099W        W 6163   2.132   7.081  11.217 -0.1644 -0.2225 -0.2641
 2100W        W 6164   8.113   2.701   2.480  0.0693  0.3427  0.0319
 2101W        W 6165   4.897   4.472   1.179 -0.0003 -0.1582  0.1894
 2102W        W 6166   3.571   5.363   7.787  0.5829  0.3695 -0.0317
 2103W        W 6167   2.201   0.258   9.247  0.0398  0.3076 -0.2029
 2104W        W 6168   8.201   2.681   9.408  0.2433  0.5894  0.1882
 2105W        W 6169   3.994   9.045   9.013  0.3465 -0.1237 -0.3343
 2106W        W 6170   4.497   2.337  10.811  0.4860  0.0173 -0.0180
 2107W        W 6171   9.905   3.228   2.030 -0.1688 -0.1385  0.0483
 2108W        W 6172   3.355  10.423  10.323  0.0663  0.4522  0.0616
 2109W        W 6173   5.388   7.869   3.541  0.0340 -0.0823  0.1823
 2110W        W 6174   2.889   5.767  10.042 -0.2209  0.0067 -0.1549
 2111W        W 6175   6.690   9.518   7.643  0.1931  0.2858  0.1266
 2112W        W 6176   8.736   5.794  10.264 -0.2406  0.0991 -0.1473
 2113W        W 6177   5.337   7.264   8.441  0.1301 -0.1167 -0.3589
 2114W        W 6178   8.477   1.443   8.715  0.1242 -0.0234  0.0792
 2115W        W 6179   9.902   0.953   0.132  0.0833 -0.1683  0.3765
 2116W        W 6180   0.596   0.156   4.189  0.2463 -0.0725  0.0585
 2117W        W 6181   1.808   0.268  10.931  0.0781 -0.1025  0.0284
 2118W        W 6182   5.952   6.038   9.186  0.1185  0.1620 -0.1564
 2119W        W 6183   7.338   8.580   8.208 -0.2229 -0.0293  0.0441
 2120W        W 6184   4.759   9.057   7.750 -0.2240 -0.1658 -0.1845
 2121W        W 6185   1.158  10.628   1.353  0.0635  0.1773  0.3260
 2122W        W 6186  10.215   7.121   7.936 -0.0502 -0.1425 -0.0530
 2123W        W 6187   3.605   1.605   2.128  0.3592 -0.1064 -0.0790
 2124W        W 6188   0.167  10.447   9.290 -0.2402 -0.0681 -0.0682
 2125W        W 6189   8.668  10.622   2.967 -0.0412 -0.4357  0.0873
 2126W        W 6190   4.368   4.513   0.840  0.2959  0.1860  0.0203
 2127W        W 6191   2.101   2.117   0.450 -0.0667 -0.2119  0.3140
 2128W        W 6192   6.149   7.829   2.017 -0.1360  0.1227 -0.2182
 2129W        W 6193  10.147   3.912   1.586 -0.2104  0.0151  0.0408
 2130W        W 6194  10.537   3.687  10.404 -0.0427 -0.2089  0.1582
 2131W        W 6195   4.877   2.068   8.932  0.1092  0.2938  0.0710
 2132W        W 6196   8.714   0.733   2.483  0.0697 -0.0025 -0.2191
 2133W        W 6197   3.131  10.315   2.419  0.2466 -0.1487  0.1154
 2134W        W 6198   3.589   4.495   3.031  0.0865  0.0099 -0.1604
 2135W        W 6199   7.676   1.089   9.892 -0.1169 -0.1814  0.0430
 2136W        W 6200   8.407   0.390   1.200  0.0985 -0.0881  0.0980
 2137W        W 6201   7.219   9.173   1.897 -0.2728 -0.2536  0.1676
 2138W        W 6202  10.698   3.946  10.936 -0.2565  0.1992 -0.0964
 2139W        W 6203   4.282  10.289  10.519 -0.0336  0.1146 -0.0876
 2140W        W 6204   1.455   4.654   9.457  0.0113  0.1250  0.1541
 2141W        W 6205   2.932   2.972   9.366 -0.2920  0.0638 -0.2266
 2142W        W 6206   5.704   6.928   3.059 -0.0396  0.0050  0.2860
 2143W        W 6207   0.033   8.309   2.012  0.1039  0.0036  0.0211
 2144W        W 6208  10.042   1.135   7.295  0.0489  0.1405 -0.0876
 2145W        W 6209   0.730   6.963   3.122  0.0540 -0.0774  0.0564
 2146W        W 6210   2.333   6.334   0.812 -0.1127  0.0977  0.0411
 2147W        W 6211   4.667  10.101  10.877  0.0048  0.1105  0.1114
 2148W        W 6212   0.074   7.776   1.681  0.0834 -0.3099  0.2861
 2149W        W 6213   2.337   2.224   8.617  0.1517 -0.1529 -0.1730
 2150W        W 6214   9.822   1.573  10.088 -0.2533 -0.0188 -0.1861
 2151W        W 6215   4.077   0.988   1.587  0.2548 -0.1540  0.0631
 2152W        W 6216  10.319   5.585   8.943 -0.3423 -0.1131  0.3031
 2153W        W 6217   0.445   2.836   8.576 -0.0798  0.2952 -0.0879
 2154W        W 6218   5.920   3.591   9.312  0.4044  0.2072 -0.0693
 2155W        W 6219   5.037   3.823   3.002 -0.1858 -0.2237  0.0176
 2156W        W 6220   0.952   7.481  11.076 -0.2438  0.1594 -0.1459
 2157W        W 6221   4.887   9.557  10.561  0.1619  0.1280  0.2515
 2158W        W 6222   1.403   1.923   9.245 -0.0039  0.1147 -0.0996
 2159W        W 6223   8.824   9.702   1.284  0.1468  0.0472  0.0000
 2160W        W 6224   9.756   9.786  11.168  0.0085 -0.0427  0.0857
 2161W        W 6225   4.539   0.669   8.685  0.0390 -0.0200  0.0541
 2162W        W 6226   5.821   5.836   2.049 -0.2072  0.4334  0.0914
 2163W        W 6227   4.248  10.285   3.043 -0.1207 -0.0278 -0.2009
 2164W        W 6228  10.032  10.747   0.770 -0.0557 -0.1869  0.0260
 2165W        W 6229   2.103   2.239   2.703  0.0009  0.0581 -0.0040
 2166W        W 6230   4.548   5.147  10.484  0.1881  0.1661 -0.0686
 2167W        W 6231   1.889   7.835  10.855  0.1832  0.2359  0.1241
 2168W        W 6232   3.528   5.727  11.323 -0.2706  0.1042  0.1851
 2169W        W 6233   6.381   1.025  10.546  0.2992 -0.2984  0.1354
 2170W        W 6234   0.064  10.545   3.964  0.1892  0.1061  0.1396
 2171W        W 6235   6.283   3.824   1.076 -0.1397 -0.0864 -0.4742
 2172W        W 6236   4.709   2.410   0.167  0.1221 -0.1814  0.1731
 2173W        W 6237   5.253  10.738   9.754  0.1667 -0.5519  0.1362
 2174W        W 6238   1.232   5.310   9.981  0.0998  0.2934  0.2305
 2175W        W 6239   1.242   5.517   1.532 -0.1052 -0.1370  0.1470
 2176W        W 6240   0.434   8.091   0.479  0.0404 -0.1726 -0.0683
 2177W        W 6241   6.327   1.815  10.986  0.0146 -0.0580  0.0050
 2178W        W 6242   0.971  10.086   3.613  0.3037 -0.0181 -0.1150
 2179W        W 6243  10.236   3.641   2.147  0.0176 -0.1455 -0.1565
 2180W        W 6244   9.195   2.213   9.892 -0.1233 -0.3262  0.0017
 2181W        W 6245   3.674   1.305   9.486 -0.0151  0.0777  0.0869
 2182W        W 6246   6.194   2.963   1.336 -0.1299  0.2431  0.0749
 2183W        W 6247   8.307  10.603   1.184 -0.1976 -0.0108  0.0577
 2184W        W 6248   1.012   8.140   9.336 -0.2329 -0.1873 -0.0572
 2185W        W 6249   3.200  10.159   8.415  0.2591 -0.2932 -0.3384
 2186W        W 6250   2.586   1.194   3.299  0.3594 -0.1222  0.2163
 2187W        W 6251   6.353   7.220   3.699 -0.0676  0.0378  0.1085
 2188W        W 6252   8.046   6.551   1.211  0.2038 -0.3043  0.0482
 2189W        W 6253   0.175   0.630  10.931 -0.2091  0.0822  0.0553
 2190W        W 6254   5.530   7.876   2.649  0.1772 -0.1861  0.2045
 2191W        W 6255   9.967   4.535   0.058  0.3605 -0.2839  0.0250
 2192W        W 6256   5.462   5.673  10.265  0.2795  0.2600 -0.1889
 2193W        W 6257   0.974   2.970   2.303 -0.0422  0.0251 -0.1525
 2194W        W 6258   8.265   6.476  11.308 -0.4085 -0.1391 -0.0348
 2195W        W 6259   1.128   6.521   8.710  0.0648 -0.2447  0.2821
 2196W        W 6260   4.657   6.882   8.275  0.3210 -0.0349 -0.0896
 2197W        W 6261   2.928   8.595  10.705  0.0637  0.1971  0.0745
 2198W        W 6262   1.706   7.707   8.832  0.0822 -0.3097 -0.1787
 2199W        W 6263   0.796   9.191  10.273 -0.2972 -0.1451 -0.0222
 2200W        W 6264   4.255   4.177   8.952  0.2188 -0.3296  0.1254
 2201W        W 6265  10.231   1.437   2.856 -0.2647 -0.0179 -0.2011
 2202W        W 6266   0.391   0.238   2.738 -0.0608 -0.2650 -0.1602
 2203W        W 6267   4.315   3.504   1.851  0.0240 -0.2113  0.2691
 2204W        W 6268   8.979   3.793  11.126 -0.5108 -0.1346  0.0382
 2205W        W 6269   4.392   3.978   2.308  0.0597 -0.0494  0.3476
 2206W        W 6270   0.393   7.005   8.200 -0.0764 -0.0728 -0.3165
 2207W        W 6271   3.261   2.986   8.366 -0.2059 -0.0325 -0.0593
 2208W        W 6272   9.296   4.177   2.208 -0.1192  0.0357  0.1719
 2209W        W 6273   9.887   7.073   1.750  0.2638  0.2298 -0.2655
 2210W        W 6274   4.875   8.075   8.981 -0.1168 -0.0526  0.1962
 2211W        W 6275   0.618   0.542  10.143  0.0557  0.0709  0.1014
 2212W        W 6276   9.290   1.628   7.401  0.0376 -0.0162 -0.1152
 2213W        W 6277   6.558   9.903   8.083 -0.0791 -0.0981  0.0878
 2214W        W 6278   6.461   2.050   3.524  0.0998 -0.1765  0.0512
 2215W        W 6279   7.794   8.671   1.279 -0.0373 -0.0109 -0.1073
 2216W        W 6280   6.459   1.501   2.696 -0.0002  0.0531  0.1810
 2217W        W 6281   3.741   3.116   7.491 -0.3299 -0.3506 -0.2490
 2218W        W 6282   2.257   2.887   0.270  0.0658  0.1730  0.0058
 2219W        W 6283   5.036   3.257   8.022  0.0646 -0.0550  0.0712
 2220W        W 6284   9.453   6.226  10.372  0.1200  0.1602  0.0136
 2221W        W 6285   8.786   6.867   8.662 -0.0592 -0.1155  0.5319
 2222W        W 6286   6.833   5.957   1.604  0.1916 -0.0279  0.1250
 2223W        W 6287   3.526  10.070  10.058 -0.2095  0.3446 -0.0587
 2224W        W 6288   9.860   4.726   1.127  0.2221  0.2067  0.3911
 2225W        W 6289   2.870   2.743   8.093 -0.2002 -0.0436  0.1009
 2226W        W 6290   0.493   6.795   0.786 -0.0970 -0.0660  0.0585
 2227W        W 6291   6.098   7.805   8.329  0.0013 -0.1375  0.1132
 2228W        W 6292   8.808   2.367   0.944 -0.2477  0.0075  0.1618
 2229W        W 6293   2.804   9.963  10.603  0.0149 -0.0264  0.1471
 2230W        W 6294   5.115   3.972  10.891  0.1722 -0.2517  0.1806
 2231W        W 6295   3.646   7.705   3.293 -0.0084  0.0139 -0.1274
 2232W        W 6296   9.419   4.354   3.713  0.2811 -0.1387  0.1307
 2233W        W 6297   5.670   1.664   7.461  0.0775  0.0382 -0.1193
 2234W        W 6298   7.857   4.881   0.249 -0.0145 -0.0386 -0.1316
 2235W        W 6299   6.582   6.886   3.340 -0.0725 -0.0046 -0.0822
 2236W        W 6300   2.312   9.639   1.525  0.0927  0.2614  0.0128
 2237W        W 6301   1.392   9.697   1.362  0.0845 -0.0557  0.0443
 2238W        W 6302   2.252   2.508  10.407 -0.2584  0.0926  0.3186
 2239W        W 6303   2.551   3.026   9.024 -0.3205  0.0633 -0.3937
 2240W        W 6304   8.229   6.760   3.290  0.1003  0.0059  0.1451
 2241W        W 6305   2.266   9.675   0.408  0.1543 -0.1453  0.3614
 2242W        W 6306   4.055   6.915   8.643  0.1473  0.0087  0.2298
 2243W        W 6307   1.952   0.139   2.155 -0.0924 -0.1386  0.2008
 2244W        W 6308   7.757   6.462   8.662 -0.1789 -0.1272 -0.0868
 2245W        W 6309   2.424   3.704   0.668  0.1399 -0.0393  0.4215
 2246W        W 6310   2.194   8.856   2.062  0.3148 -0.0073  0.0754
 2247W        W 6311   8.626   6.859  11.260  0.0721 -0.2881  0.1809
 2248W        W 6312   8.129   8.868   9.286 -0.1546 -0.0055 -0.1252
 2249W        W 6313   2.236   8.586   0.660  0.1036  0.1485  0.0632
 2250W        W 6314   4.185   5.615  10.677 -0.2041 -0.4136 -0.0312
 2251W        W 6315   0.012  10.245   8.426 -0.2243  0.1377  0.0139
 2252W        W 6316   8.856   5.692   2.842  0.0535  0.1983  0.1596
 2253W        W 6317   0.971   7.500  10.541  0.4038 -0.2141 -0.1120
 2254W        W 6318   1.140   8.425   0.815  0.0066  0.0241  0.4451
 2255W        W 6319   6.881  10.279   0.934  0.2372  0.1085 -0.2186
 2256W        W 6320   6.191   1.355   8.818 -0.2549  0.0561 -0.0290
 2257W        W 6321   1.844   2.351   1.468 -0.2400  0.1169  0.0567
 2258W        W 6322   1.812  10.314   1.893 -0.0953  0.0200  0.0567
 2259W        W 6323  10.387   3.753   8.438 -0.0564 -0.1876 -0.1409
 2260W        W 6324   7.822   3.766   9.698  0.3359 -0.0280 -0.0986
 2261W        W 6325   0.844   8.994   8.822  0.1187 -0.1050 -0.4113
 2262W        W 6326   7.840   5.254   7.785 -0.2051  0.4707 -0.0885
 2263W        W 6327   4.627  10.689   2.943 -0.0568 -0.1621  0.0580
 2264W        W 6328   0.137   2.938  10.195  0.2571  0.1573 -0.2575
 2265W        W 6329   5.646   7.665   8.454 -0.0611 -0.0300  0.2459
 2266W        W 6330   5.287   5.472   8.889 -0.2029 -0.0755  0.1426
 2267W        W 6331  10.756   7.837   2.636 -0.1837 -0.0403 -0.0120
 2268W        W 6332   4.139   9.140  11.047 -0.1454  0.0907  0.0118
 2269W        W 6333  10.275   2.318   7.893 -0.0208 -0.1151  0.0396
 2270W        W 6334   8.971   1.886   9.284 -0.3440  0.1139  0.2519
 2271W        W 6335   0.101   5.705   2.244 -0.3460  0.2428  0.1717
 2272W        W 6336   4.832   8.510   1.052  0.0175 -0.0850  0.0690
 2273W        W 6337   9.601   0.610   4.209 -0.2008 -0.3160  0.2182
 2274W        W 6338   7.766   2.362  10.655  0.0982  0.1506 -0.1286
 2275W        W 6339   2.667   9.819   8.775  0.3611 -0.0045 -0.1853
 2276W        W 6340   7.115   3.301   8.520 -0.0598 -0.2741 -0.1642
 2277W        W 6341   8.915   1.073   9.356  0.1225 -0.2727 -0.0049
 2278W        W 6342   2.433   5.322   0.678 -0.2736 -0.0977  0.3775
 2279W        W 6343  10.679   6.065  10.571  0.0586 -0.3524 -0.0034
 2280W        W 6344   6.677   7.686  11.104  0.1373  0.1161  0.0520
 2281W        W 6345   8.679   9.478  10.301  0.1723 -0.0361 -0.0453
 2282W        W 6346   5.150   2.022  10.393 -0.1393 -0.2842 -0.0609
 2283W        W 6347   9.349   9.707   2.721 -0.0498  0.1636 -0.2228
 2284W        W 6348   9.795   7.291   9.376  0.0378  0.1650  0.0623
 2285W        W 6349   5.575  10.569   1.682 -0.0946  0.2093 -0.1239
 2286W        W 6350  10.195   9.983  10.975  0.1320  0.0211 -0.0347
 2287W        W 6351   3.558   4.338   7.593  0.0811 -0.1218  0.2362
 2288W        W 6352  10.684   1.229  10.147 -0.0428  0.3275  0.0599
 2289W        W 6353   2.413   0.649   1.866 -0.5507 -0.0024 -0.2206
 2290W        W 6354   5.250   8.136   2.292  0.1419  0.0505  0.0296
 2291W        W 6355  10.566   0.246   2.126  0.1215 -0.3419  0.1118
 2292W        W 6356  10.214   1.949   2.246  0.1927  0.1082 -0.0075
 2293W        W 6357  10.072   0.464   9.663  0.1835  0.2853  0.1868
 2294W        W 6358   3.059   3.810   2.020  0.3096  0.1412 -0.1268
 2295W        W 6359   9.916   8.693   3.460  0.0314  0.3225  0.2234
 2296W        W 6360   3.536   8.212   2.564  0.2607 -0.1463  0.0465
 2297W        W 6361  10.148   2.251   7.363 -0.0512  0.0898  0.0770
 2298W        W 6362   7.498   4.762   1.811 -0.1644  0.0050  0.1540
 2299W        W 6363  10.647   8.617   1.182 -0.1966  0.4633 -0.1148
 2300W        W 6364   6.778   4.401   0.632 -0.3671  0.1348  0.0043
 2301W        W 6365   0.301   9.553   9.407  0.1079 -0.0172 -0.2003
 2302W        W 6366   0.134   2.492   9.714  0.2799 -0.0506  0.3162
 2303W        W 6367   1.682   8.452   3.337 -0.3535  0.0872 -0.0205
 2304W        W 6368   8.009   8.176   2.425  0.2212  0.1865 -0.0928
 2305W        W 6369   5.761   5.021   2.417  0.0720 -0.0549 -0.0774
 2306W        W 6370   2.350   9.108   1.629 -0.1922  0.0993  0.4182
 2307W        W 6371   6.989   4.710   8.778 -0.1751 -0.1756  0.3391
 2308W        W 6372   3.945   8.327   1.157 -0.0564 -0.3474  0.0647
 2309W        W 6373   3.087   3.202  10.156 -0.1789  0.1608  0.1132
 2310W        W 6374   3.339   0.307   7.950  0.0390  0.0203  0.0750
 2311W        W 6375   4.350   4.640  10.234 -0.0310  0.2134  0.0031
 2312W        W 6376   1.930   9.959   8.907  0.2718 -0.0340  0.3169
 2313W        W 6377   9.587   0.353   8.371 -0.0392  0.1014 -0.2490
 2314W        W 6378   4.753   6.416  10.823 -0.1429 -0.0032  0.1624
 2315W        W 6379   3.424   1.754   9.728 -0.2626 -0.2192 -0.1103
 2316W        W 6380   8.605   2.904   2.397 -0.0963  0.3360 -0.0488
 2317W        W 6381   9.243   5.181   9.034  0.0487 -0.1385  0.2836
 2318W        W 6382   6.426   9.503   9.019 -0.1547 -0.0262 -0.1342
 2319W        W 6383   2.206   0.012  10.564  0.0367 -0.0632  0.0749
 2320W        W 6384   0.615   8.699   9.976 -0.2566  0.0058 -0.3035
 2321W        W 6385   2.165   5.198   9.121  0.2227 -0.0188 -0.1193
 2322W        W 6386   8.899   8.427   3.042 -0.2075 -0.2737 -0.0848
 2323W        W 6387   9.945   7.924   2.176 -0.0520  0.0806  0.5182
 2324W        W 6388   5.199   7.859   9.357  0.1583  0.0818  0.3072
 2325W        W 6389   1.528   5.439   3.730 -0.0533 -0.0115  0.1629
 2326W        W 6390   4.413   4.011   1.766  0.1231  0.2870  0.0035
 2327W        W 6391   9.628   0.860   8.631 -0.0630  0.0739  0.0765
 2328W        W 6392   7.884   1.666   3.109 -0.0397 -0.4231 -0.2758
 2329W        W 6393   5.008   9.319   2.422  0.2816  0.0655  0.0026
 2330W        W 6394   6.246   7.511   1.558  0.2760  0.1977  0.1402
 2331W        W 6395   5.785   1.699   8.651  0.1353 -0.0519  0.1413
 2332W        W 6396   9.191   0.359   2.259  0.0206 -0.0622  0.4345
 2333W        W 6397   9.654   2.775   0.329 -0.0163 -0.0481 -0.2200
 2334W        W 6398   9.356   9.865   1.804 -0.1584 -0.0854  0.1997
 2335W        W 6399   4.909   4.067   9.971  0.0567  0.1073  0.0639
 2336W        W 6400   5.969   9.417   0.476 -0.0706  0.0316  0.0546
 2337W        W 6401   1.834   8.907   3.057  0.0185  0.4804  0.1445
 2338W        W 6402   3.006   2.918   1.697 -0.1284 -0.1251 -0.0753
 2339W        W 6403   0.830   9.517   3.471  0.0495 -0.1193  0.0383
 2340W        W 6404   7.702   5.973   1.275 -0.1940  0.1215 -0.2544
 2341W        W 6405   1.526   2.415   9.162 -0.0474 -0.0218 -0.0825
 2342W        W 6406  10.273   1.485   9.687  0.2270  0.0346 -0.1665
 2343W        W 6407   4.171   8.313   7.324 -0.1403 -0.0645 -0.0207
 2344W        W 6408   4.265   6.553  10.577  0.0930  0.1810  0.2494
 2345W        W 6409   6.792   1.417  10.599  0.0334  0.2055  0.2733
 2346W        W 6410   7.808   1.498   4.005 -0.0934  0.1744 -0.0728
 2347W        W 6411   0.461   5.464   8.260 -0.3617 -0.0687 -0.1494
 2348W        W 6412   9.324   1.672   2.701  0.3275  0.0559  0.1008
 2349W        W 6413   8.482   8.961   2.615  0.2772 -0.0634  0.0728
 2350W        W 6414   4.508   1.346   0.674 -0.2080  0.1054 -0.0446
 2351W        W 6415   4.014   8.963   9.748 -0.4050  0.0275  0.0144
 2352W        W 6416   0.326   4.411   3.216 -0.1990  0.1084  0.2125
 2353W        W 6417   7.213   0.340   8.638  0.1920  0.2209  0.2187
 2354W        W 6418   2.396   4.766  10.341 -0.0130 -0.2210 -0.1609
 2355W        W 6419   1.058   3.091   9.238 -0.1385  0.4313 -0.1149
 2356W        W 6420   3.669   1.616   8.269 -0.0596 -0.0615  0.0541
 2357W        W 6421   7.153   5.044   1.977 -0.1381 -0.2991 -0.1987
 2358W        W 6422  10.260   8.756   0.832 -0.1665  0.3760 -0.2379
 2359W        W 6423   3.180   5.041   0.560  0.2282 -0.0220  0.2541
 2360W        W 6424  10.107   4.159   8.616 -0.1651 -0.0690 -0.0637
 2361W        W 6425   7.642   4.658   1.334  0.2231  0.0223  0.2514
 2362W        W 6426   3.103   6.947   1.399  0.0303  0.1025 -0.3700
 2363W        W 6427   5.373   4.643   2.204  0.1765  0.2112  0.2797
 2364W        W 6428   6.577   6.183  11.166 -0.1953  0.2754  0.1732
 2365W        W 6429   3.801   9.962  11.314 -0.3066 -0.2198  0.2044
 2366W        W 6430   1.829   1.789  10.349  0.2392  0.3038 -0.2839
 2367W        W 6431  10.384   7.799   8.821 -0.0231  0.0913 -0.3244
 2368W        W 6432   0.179   0.379   1.025  0.3789 -0.2105 -0.0541
 2369W        W 6433   0.742   6.451   7.526 -0.2617 -0.1058 -0.1298
 2370W        W 6434   5.350   7.802   9.870  0.1947  0.0151  0.1995
 2371W        W 6435   5.916   3.307   2.789  0.3999  0.0948  0.1235
 2372W        W 6436   6.224   7.004   1.408 -0.2384 -0.0366 -0.0730
 2373W        W 6437   2.149   1.083  10.686  0.1122 -0.1783 -0.1762
 2374W        W 6438   9.567   8.571   1.780 -0.0104 -0.4709  0.1067
 2375W        W 6439   0.347   8.341  10.246 -0.1721  0.2260  0.0848
 2376W        W 6440   5.367   7.024   2.166 -0.0084  0.1182  0.0070
 2377W        W 6441   7.214   6.242   1.490 -0.1267  0.0188 -0.0339
 2378W        W 6442   0.953   4.034   8.301  0.0856  0.0053  0.3338
 2379W        W 6443  10.447   6.158   2.260 -0.0226  0.4126 -0.0765
 2380W        W 6444   9.913   1.882   0.732  0.0748  0.1470 -0.3601
 2381W        W 6445   8.117   1.375   0.218 -0.1014  0.0934  0.0964
 2382W        W 6446   7.523   6.150   8.258 -0.1716 -0.0198 -0.0822
 2383W        W 6447   2.738   5.595   1.026 -0.1949  0.0824 -0.0551
 2384W        W 6448   8.196   3.494   1.149  0.1885 -0.0190  0.1129
 2385W        W 6449   7.925   9.818  11.042 -0.1726  0.2847  0.2447
 2386W        W 6450   2.783   8.816   9.502 -0.0512 -0.1328  0.0218
 2387W        W 6451   9.630   4.953  10.007  0.2204  0.3247  0.2020
 2388W        W 6452   1.452   9.149   9.851  0.3437  0.0109 -0.1230
 2389W        W 6453   1.823   7.176   0.717  0.0432 -0.1783 -0.0235
 2390W        W 6454   5.814  10.301   3.425 -0.2050 -0.1221  0.3455
 2391W        W 6455   7.022   6.375   9.720 -0.0084  0.3450  0.3605
 2392W        W 6456   5.964   5.398   9.222  0.0763  0.0799 -0.1693
 2393W        W 6457   8.586   2.960   8.434  0.1099  0.1721 -0.0654
 2394W        W 6458   6.188   6.033   0.370 -0.0561 -0.3163  0.0883
 2395W        W 6459   4.441   4.503   1.481  0.4747  0.2582  0.0166
 2396W        W 6460   0.513   9.284   3.844  0.0196 -0.1017 -0.0279
 2397W        W 6461   4.622   7.589   2.362 -0.0637 -0.2125 -0.0475
 2398W        W 6462   0.561   7.915  10.442 -0.1609 -0.1936 -0.1136
 2399W        W 6463   9.072   8.691   8.433  0.0570  0.1431 -0.2275
 2400W        W 6464  10.159   7.165   2.708 -0.0645  0.1348 -0.1539
 2401W        W 6465   0.265   2.060   0.098  0.4642 -0.0016 -0.0373
 2402W        W 6466  10.676   3.773   0.633  0.3206  0.0943 -0.0654
 2403W        W 6467   0.682   3.051   1.403  0.1235  0.2481 -0.1341
 2404W        W 6468   2.740   5.043   0.985 -0.2013  0.0670 -0.0482
 2405W        W 6469   8.152   5.488  11.297  0.1794 -0.0842  0.1184
 2406W        W 6470   1.189   0.308   8.235 -0.0312 -0.2332 -0.2154
 2407W        W 6471   6.444   6.993   8.528  0.0124 -0.2190 -0.0230
 2408W        W 6472   8.884   0.113  10.694 -0.4177 -0.2010 -0.3791
 2409W        W 6473   4.626   2.797  10.377  0.0229 -0.2072  0.1570
 2410W        W 6474   4.832   5.951   4.274 -0.1050  0.1596  0.0162
 2411W        W 6475  10.389   5.909   0.799  0.0072  0.0107 -0.3044
 2412W        W 6476   2.012   5.718   2.452  0.2491  0.3063 -0.0445
 2413W        W 6477   5.233   5.195   3.184 -0.0459 -0.1182 -0.1837
 2414W        W 6478   2.315   2.444   3.561 -0.0645  0.0670 -0.3495
 2415W        W 6479   3.585   3.683   9.676 -0.0599  0.0696 -0.3101
 2416W        W 6480   1.832   8.261   8.619 -0.0390  0.0296 -0.1026
 2417W        W 6481   4.562   2.084   1.787  0.0756 -0.0228  0.0951
 2418W        W 6482   7.190   4.515   1.356  0.2715  0.0321  0.0985
 2419W        W 6483   3.698   0.696   8.194 -0.0012  0.2070  0.3077
 2420W        W 6484   0.445   4.897   1.116  0.3650 -0.4260 -0.1640
 2421W        W 6485   8.698  10.489   2.057  0.0105  0.2723 -0.1929
 2422W        W 6486   4.805   7.907   0.229 -0.1796  0.0764 -0.0689
 2423W        W 6487   8.043   3.451   1.717 -0.1004 -0.1204  0.4557
 2424W        W 6488   3.800   5.381   8.250 -0.0833 -0.2547 -0.1149
 2425W        W 6489   8.420   2.169   9.387  0.2373  0.1695  0.1466
 2426W        W 6490   5.671   8.534   4.285  0.0416 -0.0253  0.0471
 2427W        W 6491   2.631   8.915   2.510  0.1806 -0.0768 -0.1219
 2428W        W 6492   3.271   2.573   9.067  0.0868 -0.0310  0.1084
 2429W        W 6493   8.295   3.128   1.522 -0.1639  0.0623 -0.0082
 2430W        W 6494   3.045   5.509   0.041 -0.0277  0.1185  0.0798
 2431W        W 6495   7.416   1.604   3.749  0.0676  0.2709 -0.4211
 2432W        W 6496   6.118   1.419   9.368  0.4257  0.0645  0.0194
 2433W        W 6497   2.383   8.323   0.177 -0.0366 -0.2175  0.1787
 2434W        W 6498   5.354   6.507   3.073 -0.3253  0.0422 -0.1241
 2435W        W 6499   0.119   5.264   7.235  0.0823 -0.1406 -0.0529
 2436W        W 6500   2.306  10.203   8.644 -0.1218  0.0411 -0.1442
 2437W        W 6501   4.509   7.459  10.466 -0.0498 -0.0010 -0.1574
 2438W        W 6502   1.606   7.410  11.200 -0.1526  0.0054  0.0082
 2439W        W 6503   9.851   7.994  10.053 -0.1501 -0.1723 -0.2261
 2440W        W 6504   6.502   3.721   0.066  0.0034  0.0194 -0.0938
 2441W        W 6505   0.993   6.272   1.138 -0.1676  0.0564 -0.1553
 2442W        W 6506   5.300   4.148   1.325  0.0867  0.0913 -0.2213
 2443W        W 6507   0.037   6.136   1.952 -0.1331  0.1216 -0.1094
 2444W        W 6508   8.749  10.194   0.304  0.2062  0.2128 -0.0549
 2445W        W 6509   9.358   3.130   8.715  0.3760 -0.0149 -0.3751
 2446W        W 6510  10.072   1.080   9.422 -0.1232  0.4505 -0.0005
 2447W        W 6511   6.948   2.633   3.284 -0.2211 -0.0046  0.1225
 2448W        W 6512   1.254  10.743   3.567  0.2257  0.1611 -0.1080
 2449W        W 6513   6.405   0.508   8.705 -0.1679 -0.1474 -0.0832
 2450W        W 6514   6.552   8.184   2.854  0.0079  0.1997 -0.1623
 2451W        W 6515   1.941  10.087   8.232  0.5153  0.2784 -0.0207
 2452W        W 6516   4.446   1.751   2.772 -0.2024  0.1199 -0.3644
 2453W        W 6517   3.633   3.873  11.050 -0.0367  0.0618  0.1006
 2454W        W 6518   3.548   0.114   1.564 -0.0634 -0.4297  0.4270
 2455W        W 6519   2.762   0.607   2.884 -0.1955  0.0467  0.0812
 2456W        W 6520   7.914   1.812   9.661 -0.1834 -0.1095 -0.2685
 2457W        W 6521   9.550   4.962   1.895  0.0563  0.0493  0.2162
 2458W        W 6522   0.195   6.956   2.134 -0.0441  0.4045 -0.4543
 2459W        W 6523   4.963   9.356   9.325  0.0090  0.0919 -0.0475
 2460W        W 6524   7.331   9.252   2.508 -0.1968 -0.2267 -0.0660
 2461W        W 6525   8.726   1.347   3.134 -0.0627  0.0740 -0.3351
 2462W        W 6526   2.419   5.848   0.702 -0.1267  0.1289  0.0951
 2463W        W 6527   4.254   5.262   9.624 -0.0683 -0.0597  0.0162
 2464W        W 6528   2.751   9.215   1.362  0.0662  0.0583 -0.0204
 2465W        W 6529   1.256   2.151   2.298  0.1935 -0.0099 -0.1444
 2466W        W 6530   0.458   8.690   2.459  0.1431 -0.6285  0.1520
 2467W        W 6531   8.136   8.201   3.545 -0.0982  0.0518  0.0056
 2468W        W 6532   1.233   6.595   3.049 -0.1336 -0.2064  0.0149
 2469W        W 6533   5.264   9.084   9.623  0.1533  0.0651  0.2930
 2470W        W 6534   8.782   3.598   9.913 -0.1281 -0.1906 -0.4436
 2471W        W 6535   4.496   6.250   9.674 -0.2758 -0.1133  0.0701
 2472W        W 6536   7.532   9.465   0.334  0.0024  0.0481 -0.0226
 2473W        W 6537   3.718   6.888   9.507  0.5088  0.0900  0.1481
 2474W        W 6538   3.720   7.499   1.205  0.0820 -0.0607 -0.0279
 2475W        W 6539   8.541   4.568   3.072 -0.6542 -0.0078  0.1134
 2476W        W 6540   4.378   4.273   7.813 -0.3288 -0.3183  0.2455
 2477W        W 6541   6.020   2.864   9.456  0.0161 -0.2508  0.1615
 2478W        W 6542   7.641   4.056   8.353 -0.2353  0.1268 -0.0528
 2479W        W 6543   7.291   0.398  10.172  0.0380  0.0434  0.2983
 2480W        W 6544   2.551   2.584   1.764  0.2188  0.0345  0.0156
 2481W        W 6545   0.699   2.081   8.614 -0.0754 -0.1873  0.0938
 2482W        W 6546   0.535   7.249   0.558  0.1506  0.0403 -0.0298
 2483W        W 6547   1.184   3.591   2.889 -0.1697 -0.2572 -0.0861
 2484W        W 6548   7.278   6.580   8.339 -0.2262  0.2280 -0.0162
 2485W        W 6549  10.620   0.127  11.293  0.1131  0.2232 -0.1793
 2486W        W 6550   0.259   4.573   0.671  0.1307  0.1225 -0.0249
 2487W        W 6551   3.312   7.446  11.168  0.1037 -0.3157  0.1260
 2488W        W 6552   0.279   6.255   2.969 -0.0557  0.2396 -0.1597
 2489W        W 6553   6.159   7.260   2.818 -0.1946 -0.1313 -0.1169
 2490W        W 6554   9.786   1.633  10.603  0.2622  0.0082 -0.0772
 2491W        W 6555   0.212  10.622   8.833  0.2041 -0.3673  0.7027
 2492W        W 6556   8.405   7.010  10.866  0.1780  0.0211  0.0809
 2493W        W 6557   9.058   6.987  10.970  0.0916  0.0059  0.0452
 2494W        W 6558   4.609   1.535   8.319  0.1472  0.1032  0.4049
 2495W        W 6559   2.613   5.222   9.472 -0.0570 -0.4196  0.0078
 2496W        W 6560   5.467   0.003   0.186 -0.4755 -0.0718  0.1697
 2497W        W 6561   9.833   5.712  11.138 -0.2112  0.0130 -0.1796
 2498W        W 6562  10.370   8.243   8.724  0.0884 -0.1724 -0.1210
 2499W        W 6563   3.736   4.562   0.828 -0.0480 -0.1307  0.4256
 2500W        W 6564   2.372   2.557   8.077  0.1658 -0.1858 -0.1279
 2501W        W 6565   1.146   7.888   1.001 -0.2169  0.1725 -0.1620
 2502W        W 6566   0.614  10.063  10.925 -0.1487  0.2790 -0.1451
 2503W        W 6567   8.556   3.512   9.421 -0.4577  0.1216 -0.0871
 2504W        W 6568  10.052   3.680   8.921  0.1058 -0.0439 -0.0769
 2505W        W 6569   8.621   5.284   2.693 -0.2224  0.1621  0.1333
 2506W        W 6570   0.608   9.240  10.886 -0.0874 -0.0768 -0.2074
 2507W        W 6571   8.500   4.331   1.269 -0.1709  0.4070 -0.0116
 2508W        W 6572   0.111   2.205   8.064 -0.0275  0.0895  0.0441
 2509W        W 6573   7.701   2.783   9.362  0.0152  0.3029  0.2162
 2510W        W 6574   7.254   7.960   7.670  0.3745  0.2817  0.0542
 2511W        W 6575   0.284  10.440  11.113  0.2010 -0.1898  0.1455
 2512W        W 6576   3.506   4.920   2.667 -0.0006  0.2138  0.0279
 2513W        W 6577   4.256   5.715   1.992  0.2129  0.3600  0.0219
 2514W        W 6578   7.199   7.099   8.399  0.2661 -0.0010 -0.0414
 2515W        W 6579   5.539  10.025   9.892  0.0297  0.2200  0.2461
 2516W        W 6580   2.708   5.605   0.373 -0.1933  0.2976 -0.0755
 2517W        W 6581   6.944   5.976  10.877  0.0058  0.3069  0.0738
 2518W        W 6582   4.568   4.077  10.781  0.2793 -0.0516 -0.0296
 2519W        W 6583   1.883   3.707   8.050  0.0548  0.0259 -0.0989
 2520W        W 6584   5.968   0.678  10.522  0.1217  0.3150 -0.1254
 2521W        W 6585   4.736   8.903   9.502  0.0849 -0.1643 -0.0338
 2522W        W 6586   7.178   6.874   7.447  0.1650  0.2347  0.0342
 2523W        W 6587   7.118   7.703  10.838 -0.4056 -0.0013  0.2298
 2524W        W 6588   3.328   7.646  10.689  0.1931  0.2109 -0.0530
 2525W        W 6589   4.434   3.798  10.233 -0.1139  0.1438  0.2670
 2526W        W 6590   3.586   8.085   0.827 -0.1211  0.1169 -0.1937
 2527W        W 6591   7.374   0.731   2.366 -0.0510 -0.1152 -0.2290
 2528W        W 6592   6.995   9.276   7.985  0.1991  0.2140 -0.0672
 2529W        W 6593   0.944   9.455   1.075  0.0753 -0.0690 -0.2949
 2530W        W 6594   9.943   5.873   1.759 -0.5396 -0.0301  0.1960
 2531W        W 6595   9.393   7.268   1.478 -0.0129 -0.0574  0.1505
 2532W        W 6596   7.611   8.206   7.826 -0.3934 -0.2133 -0.0291
 2533W        W 6597   9.893   3.652   1.243 -0.1153  0.2127  0.2808
 2534W        W 6598   8.840   8.551   1.908  0.4235  0.1548  0.1804
 2535W        W 6599   5.918   0.509  11.006 -0.0592  0.0453  0.0779
 2536W        W 6600   2.113   5.106  11.071  0.0916 -0.1599 -0.0604
 2537W        W 6601   0.370   3.256  10.947 -0.1726 -0.1926  0.1108
 2538W        W 6602   6.243   6.977   8.035  0.1716  0.1043 -0.0755
 2539W        W 6603  10.380   6.026   8.328 -0.0036 -0.0324  0.0694
 2540W        W 6604   1.027   4.624   1.308  0.0493  0.0571 -0.0669
 2541W        W 6605   8.280   5.641   1.782 -0.0067  0.2000  0.1653
 2542W        W 6606   4.923  10.121   9.033 -0.1646  0.1717  0.5330
 2543W        W 6607   6.698  10.385   2.959 -0.2892 -0.0628 -0.0503
 2544W        W 6608   8.836   8.121  10.230  0.0192  0.2159 -0.0425
 2545W        W 6609   7.882  10.558   0.807 -0.0518  0.3203 -0.0916
 2546W        W 6610  10.656   4.076   9.794 -0.0138 -0.1094 -0.0136
 2547W        W 6611   5.676   6.986   1.761 -0.2840 -0.4098  0.3445
 2548W        W 6612   8.596   5.361   3.684  0.2492 -0.0262 -0.0405
 2549W        W 6613  10.145   8.907   0.328  0.4432 -0.1767 -0.2920
 2550W        W 6614   0.804   4.910  10.750 -0.2188 -0.0771  0.0107
 2551W        W 6615   0.830   7.481   9.313  0.2873 -0.2096 -0.3929
 2552W        W 6616   1.544   4.862   8.912 -0.4450 -0.0027  0.0578
 2553W        W 6617   4.532   5.082   8.715 -0.1152  0.2834  0.1049
 2554W        W 6618   8.665   2.977  10.861  0.1086  0.2163 -0.2140
 2555W        W 6619   0.539   8.620   1.354 -0.1431 -0.0265  0.0697
 2556W        W 6620   9.283   8.985   0.287 -0.0436 -0.0523 -0.0308
 2557W        W 6621   1.109   4.000   9.112  0.1163  0.0192 -0.0834
 2558W        W 6622   7.901   3.932   0.068  0.0772  0.3416 -0.0631
 2559W        W 6623   8.093   7.044  10.458  0.1798 -0.3994 -0.3729
 2560W        W 6624   0.698   6.834   9.908  0.2812  0.0286 -0.2674
 2561W        W 6625   2.407   0.299   2.217 -0.1095  0.5153 -0.2739
 2562W        W 6626   1.465  10.154   3.462 -0.1531  0.0996 -0.1911
 2563W        W 6627   7.424   6.759  10.282 -0.2808  0.0866  0.3270
 2564W        W 6628  10.474   5.141   7.493  0.1914  0.2603 -0.1629
 2565W        W 6629   4.153   0.949  10.479 -0.0989  0.1137 -0.1289
 2566W        W 6630   2.625   9.987   8.190 -0.1318  0.3569  0.1162
 2567W        W 6631   2.429   8.358   1.108  0.3173 -0.0320 -0.0849
 2568W        W 6632   0.485   6.335   1.054 -0.5826  0.0339  0.0710
 2569W        W 6633  10.713   3.564   9.628 -0.2529 -0.0306 -0.2366
 2570W        W 6634   0.796   1.898   2.358 -0.3698 -0.2988 -0.0357
 2571W        W 6635   8.308   4.907   0.809 -0.0658  0.2349  0.0741
 2572W        W 6636   6.997   1.301   1.966 -0.3630  0.0401  0.2547
 2573W        W 6637   7.329   9.865  10.037 -0.5063 -0.1106 -0.1969
 2574W        W 6638   8.666   8.718   1.496 -0.1620  0.3025 -0.1218
 2575W        W 6639  10.573   0.023   0.996  0.0104 -0.1636 -0.0058
 2576W        W 6640  10.517   1.414   1.905 -0.0791 -0.0888  0.1504
 2577W        W 6641   3.527   3.967   2.301  0.2501  0.2797  0.4939
 2578W        W 6642   6.659   3.298   8.853 -0.3657 -0.2195  0.1132
 2579W        W 6643   8.646   4.869   1.249  0.1109 -0.2436  0.3400
 2580W        W 6644   1.848   9.093   7.412  0.2877 -0.1101 -0.1823
 2581W        W 6645   2.298   4.842   0.305 -0.2125 -0.0065  0.0226
 2582W        W 6646   1.734   7.051   0.200  0.0753  0.0319  0.0183
 2583W        W 6647  10.560   0.488   2.578  0.0490  0.1281  0.3065
 2584W        W 6648   3.200   9.311   0.502  0.3532 -0.2685  0.0141
 2585W        W 6649   7.863   8.415  10.118 -0.0793  0.0146  0.1966
 2586W        W 6650   9.553   0.410   8.887  0.0785 -0.1603  0.1073
 2587W        W 6651   4.372   9.940   0.907 -0.5720 -0.2243 -0.0488
 2588W        W 6652  10.449   9.200   3.746 -0.0410 -0.0087 -0.2348
 2589W        W 6653   0.954   9.359   1.910  0.2048  0.4113  0.0437
 2590W        W 6654   2.315   7.840   1.275  0.2853  0.0906  0.2429
 2591W        W 6655   0.270   5.762   1.635  0.2187  0.0078 -0.5581
 2592W        W 6656   8.910   1.409   9.820  0.1146  0.1049 -0.2944
 2593W        W 6657   8.694   1.367  10.602 -0.1198  0.0795  0.0473
 2594W        W 6658   6.946   0.660   3.260  0.2335 -0.1005 -0.1037
 2595W        W 6659   6.091   9.788  10.551  0.1619  0.0256  0.0144
 2596W        W 6660   4.329   7.560   9.730  0.0465 -0.1760  0.0112
 2597W        W 6661  10.498   5.331   2.230 -0.2069 -0.1443  0.2128
 2598W        W 6662   8.605   1.236   0.737  0.0650  0.2115 -0.3367
 2599W        W 6663   8.087   1.230  10.777 -0.5382  0.0580  0.1838
 2600W        W 6664   9.965   3.414   8.462  0.1430  0.0489 -0.1351
 2601W        W 6665   5.781   3.051   2.001  0.1199 -0.0975  0.2713
 2602W        W 6666   7.316   6.301  10.644  0.0243  0.0413 -0.2241
 2603W        W 6667   9.610   5.048   9.329  0.1087 -0.2013  0.1268
 2604W        W 6668   8.494   8.940   0.037 -0.0069 -0.1007  0.1710
 2605W        W 6669   1.041   7.217   9.977 -0.0325 -0.0768 -0.0567
 2606W        W 6670  10.506   3.242   9.341  0.0905 -0.2557  0.1890
 2607W        W 6671   6.937   5.228   9.289  0.2840 -0.0636 -0.0376
 2608W        W 6672   1.641   8.866  10.830 -0.1904 -0.1488  0.0255
 2609W        W 6673   0.584   0.077   3.282 -0.0333  0.1834 -0.0429
 2610W        W 6674   8.439   5.435   0.979  0.0120  0.2639 -0.0417
 2611W        W 6675   2.014   2.588   9.955 -0.1705  0.1815  0.1723
 2612W        W 6676   9.877   2.022   7.824 -0.0657 -0.2580  0.3728
 2613W        W 6677   9.629   4.858   0.252  0.0421 -0.1259 -0.0041
 2614W        W 6678   4.409   1.773   0.955  0.0721  0.2170 -0.4044
 2615W        W 6679   7.712   1.019   8.976 -0.0983 -0.0117 -0.2239
 2616W        W 6680   2.567   0.442   0.759  0.1888 -0.1548 -0.0865
 2617W        W 6681   2.071   0.669  11.126 -0.1975  0.2848  0.1305
 2618W        W 6682   8.532   9.993   8.828  0.2588 -0.1303  0.2083
 2619W        W 6683   7.059   1.653   0.268  0.1402  0.2123 -0.0344
 2620W        W 6684   1.712   5.416   1.796 -0.3352 -0.0474 -0.0712
 2621W        W 6685   7.705   2.789  10.248  0.0026 -0.1529  0.0513
 2622W        W 6686   4.490   8.776   0.067  0.0810  0.2930  0.0129
 2623W        W 6687   4.972   1.196   9.678  0.0726 -0.0133 -0.3261
 2624W        W 6688   4.099   5.117   7.841 -0.1446 -0.1397  0.3123
 2625W        W 6689   6.133   4.133   2.737  0.1361 -0.1684  0.1342
 2626W        W 6690   3.063   7.267  10.487 -0.2725 -0.0603  0.1346
 2627W        W 6691  10.080   8.902   9.757  0.1632  0.0012  0.0328
 2628W        W 6692   7.543   8.332   1.011  0.2184 -0.2654  0.2306
 2629W        W 6693   8.977   7.603  10.230 -0.1293 -0.3808 -0.2974
 2630W        W 6694   3.181   7.356   8.919  0.0599 -0.5018  0.0497
 2631W        W 6695   0.626   5.809   9.637 -0.3015 -0.2740 -0.0348
 2632W        W 6696   9.174  10.729   1.304 -0.2414  0.2190 -0.3008
 2633W        W 6697   4.444   9.452   8.236 -0.1549 -0.1988 -0.0824
 2634W        W 6698   2.646   8.692   1.448  0.3334 -0.2329 -0.1130
 2635W        W 6699   5.016   9.139   1.931 -0.2797 -0.2909  0.3248
 2636W        W 6700   3.612  10.424   2.459  0.0410  0.2121  0.2961
 2637W        W 6701   9.866   6.934   9.044  0.2556  0.1687  0.0489
 2638W        W 6702   7.421   6.629   0.135 -0.0928 -0.3624 -0.1048
 2639W        W 6703   3.568   8.566   9.865  0.1103  0.2893  0.2219
 2640W        W 6704   7.392   8.457   9.957 -0.0066 -0.1110  0.0190
 2641W        W 6705  10.582   9.558  10.962  0.0371  0.3408  0.0460
 2642W        W 6706   6.895   7.260  10.880  0.1983  0.1152  0.3706
 2643W        W 6707   0.767   2.469   0.193 -0.1443 -0.0802  0.0067
 2644W        W 6708   7.638   9.424   3.385 -0.1540 -0.2337 -0.0080
 2645W        W 6709   5.360   1.627   8.965 -0.0992 -0.3343  0.1602
 2646W        W 6710   5.720   5.801   9.775 -0.0888  0.1618  0.0877
 2647W        W 6711   4.651   4.097   0.414  0.1962 -0.2733 -0.1992
 2648W        W 6712   1.082   4.422   9.671 -0.0014 -0.3114  0.0421
 2649W        W 6713   7.195   1.710   8.840  0.0730 -0.0065 -0.0528
 2650W        W 6714   0.363   8.617   2.923 -0.1696  0.0293 -0.0735
 2651W        W 6715   3.742   9.333   0.450 -0.2770  0.0836  0.2495
 2652W        W 6716   6.385   6.517   1.471  0.2277 -0.2061  0.1085
 2653W        W 6717   6.297   1.363   9.871  0.1589  0.0438  0.1055
 2654W        W 6718   0.783   9.752  10.260 -0.2492 -0.1717 -0.1444
 2655W        W 6719   5.056   6.100   1.979  0.1213  0.0089  0.1113
 2656W        W 6720   6.135   8.516   0.137  0.3087  0.1295 -0.1762
 2657W        W 6721   6.578   3.796   1.557 -0.1522 -0.2437 -0.0786
 2658W        W 6722  10.731   8.279   9.925 -0.2012 -0.0426  0.3571
 2659W        W 6723   5.080   5.927   2.511 -0.0464 -0.1759 -0.0229
 2660W        W 6724   5.643   4.618   9.016 -0.1067 -0.2052 -0.3113
 2661W        W 6725   0.992   2.430   7.946  0.2652 -0.1640 -0.3348
 2662W        W 6726   9.303   4.510   8.030  0.0619  0.0355 -0.1167
 2663W        W 6727   1.564   9.308  10.605  0.2484  0.2572  0.0578
 2664W        W 6728   8.570  10.481   9.791  0.0015  0.1682 -0.3452
 2665W        W 6729   8.874   8.176   4.434  0.0554  0.1940  0.0513
 2666W        W 6730   9.484   9.090  10.449 -0.0066 -0.3012 -0.2181
 2667W        W 6731   3.254   8.366  10.413  0.0164  0.0722  0.0106
 2668W        W 6732   8.836   5.221  10.631  0.0405  0.2376  0.1309
 2669W        W 6733   7.111   9.290  11.317 -0.0929 -0.0708  0.0405
 2670W        W 6734   6.185   1.559   3.703  0.1973 -0.3863  0.0030
 2671W        W 6735   7.377   1.376   1.682 -0.2679  0.0985 -0.1016
 2672W        W 6736   4.267   5.131   2.484 -0.1097 -0.1680  0.2001
 2673W        W 6737   1.455   3.720  10.190  0.3124  0.1031 -0.1450
 2674W        W 6738   6.104   6.876  10.484 -0.2776  0.1159  0.1102
 2675W        W 6739   0.258   6.733   3.069  0.3163  0.0012 -0.2184
 2676W        W 6740   3.190   3.328   9.535 -0.1568  0.0534 -0.0439
 2677W        W 6741   7.649   9.768   1.164 -0.2165  0.1282 -0.1654
 2678W        W 6742   5.680   2.582   9.240 -0.3402  0.2031 -0.0529
 2679W        W 6743   3.429   3.051   9.169 -0.2447 -0.3368 -0.2468
 2680W        W 6744   7.039   4.561   8.200  0.4170  0.0242  0.2547
 2681W        W 6745   8.193   6.210   1.522 -0.3088  0.1498  0.1492
 2682W        W 6746   9.253   5.544   8.233 -0.0242 -0.2265  0.1433
 2683W        W 6747   3.955   7.290   8.182 -0.1091  0.2409 -0.0534
 2684W        W 6748   1.883   3.464   8.821 -0.0730  0.2018 -0.0021
 2685W        W 6749   0.202   5.636  10.470  0.0070  0.0320 -0.1414
 2686W        W 6750   8.691   7.643   3.446 -0.0105 -0.0487 -0.1972
 2687W        W 6751   3.282   4.307  11.188 -0.0119 -0.0623  0.0882
 2688W        W 6752   8.548   8.521   3.536  0.2723 -0.1113 -0.0993
 2689W        W 6753   2.237   8.170   2.633  0.0660 -0.0315 -0.0617
 2690W        W 6754   7.006   1.980   0.628  0.2842 -0.1169 -0.0700
 2691W        W 6755   2.076   1.193   1.523  0.1696  0.4458 -0.0357
 2692W        W 6756   0.473   0.490   7.813  0.1391 -0.0359 -0.0471
 2693W        W 6757   8.799   5.646   9.770 -0.0059  0.3322  0.1293
 2694W        W 6758   1.932   5.250   0.273  0.0512 -0.2130  0.1410
 2695W        W 6759   0.594   9.046   0.090 -0.3948 -0.0809 -0.0449
 2696W        W 6760   5.722   6.291  10.967 -0.2018  0.1968 -0.0222
 2697W        W 6761   8.908   7.277   3.173 -0.0484 -0.0174  0.0522
 2698W        W 6762   8.565   6.497   8.904  0.3009 -0.2530  0.1474
 2699W        W 6763  10.560   8.638   1.740  0.0470 -0.2675 -0.1397
 2700W        W 6764  10.290   7.553   2.326  0.1139  0.0280 -0.0612
 2701W        W 6765   4.748   3.046   3.542  0.2994  0.3493 -0.2986
 2702W        W 6766   5.779   5.551  10.623  0.1169 -0.0065  0.1255
 2703W        W 6767   2.299   2.604   9.039  0.0289 -0.0882 -0.2729
 2704W        W 6768   5.967   1.713   9.719 -0.0130  0.0330  0.3342
 2705W        W 6769   8.699   6.155   9.617  0.0913 -0.0682 -0.2347
 2706W        W 6770   1.996   8.002   0.374 -0.1235  0.1482 -0.0255
 2707W        W 6771   6.267   2.193   0.040  0.2328 -0.0734  0.0445
 2708W        W 6772   7.367   1.834   8.018 -0.3309 -0.2436 -0.2904
 2709W        W 6773   9.129   9.542   2.317 -0.2898 -0.0782  0.1930
 2710W        W 6774   5.515   1.497   1.946 -0.3175  0.1971 -0.1576
 2711W        W 6775   1.180   3.399   0.145 -0.3087 -0.1406  0.1999
 2712W        W 6776   2.194   3.894   7.687 -0.1343  0.0327  0.0756
 2713W        W 6777   3.978   4.711   1.753  0.0097 -0.2238  0.0928
 2714W        W 6778   0.449   3.868   0.619 -0.1740 -0.1502  0.0487
 2715W        W 6779   7.406   9.773  11.279  0.2417  0.0722  0.1120
 2716W        W 6780   2.961   2.070   1.186  0.1800  0.0925 -0.0566
 2717W        W 6781   2.099   9.499   8.826  0.1747 -0.2310  0.0911
 2718W        W 6782   3.909   0.749   1.161 -0.0307  0.0019  0.0839
 2719W        W 6783   7.647  10.730   0.159 -0.3420 -0.0621  0.0197
 2720W        W 6784   6.310   3.096   1.798 -0.1339  0.1319 -0.0326
 2721W        W 6785   6.032   8.213   8.041  0.0731 -0.0366  0.0279
 2722W        W 6786   0.719   4.362   2.639  0.0356 -0.1835  0.2524
 2723W        W 6787   4.023   5.243   1.894 -0.2044  0.2886 -0.0897
 2724W        W 6788   3.761   7.184   2.796  0.4049 -0.2150 -0.0086
 2725W        W 6789   3.802   7.141   1.866 -0.0697 -0.1845 -0.0256
 2726W        W 6790   6.896   5.288   8.793  0.1615  0.0301  0.1208
 2727W        W 6791   6.341   4.104   7.705 -0.0153  0.0751  0.1191
 2728W        W 6792   0.800   8.949   2.204 -0.1393 -0.0783  0.1676
 2729W        W 6793  10.023   3.596  10.355  0.0821 -0.0607 -0.1220
 2730W        W 6794   1.973   4.741   9.137  0.0319 -0.1664  0.0027
 2731W        W 6795  10.406   0.829   9.798  0.0221  0.1023 -0.1066
 2732W        W 6796   4.272  10.628  10.883 -0.0468 -0.0216  0.1716
 2733W        W 6797   8.556   3.944  10.211  0.3139 -0.1031  0.2650
 2734W        W 6798   9.025   9.194   7.776 -0.1205 -0.1938 -0.3152
 2735W        W 6799   6.664   1.075  10.040 -0.0559  0.0215 -0.1794
 2736W        W 6800   2.394   6.407   1.329 -0.1414 -0.3537 -0.1614
 2737W        W 6801   9.907   9.101  10.687 -0.2946  0.2544 -0.1194
 2738W        W 6802   0.017   1.958   1.001 -0.0585 -0.3270 -0.0589
 2739W        W 6803   7.628   2.106  11.168 -0.1848 -0.0472 -0.1710
 2740W        W 6804   7.318  10.091   9.559  0.0396 -0.1165  0.0168
 2741W        W 6805   1.624   1.335   3.647  0.1159  0.1048  0.0709
 2742W        W 6806   9.726   8.765   2.466  0.2017 -0.0838  0.2434
 2743W        W 6807   5.771   6.986   9.657 -0.1046  0.0782 -0.0748
 2744W        W 6808   1.893   2.035   2.285  0.0717 -0.3199 -0.0196
 2745W        W 6809   0.452   5.629   9.086 -0.2488 -0.2729 -0.3357
 2746W        W 6810   9.748   1.649   2.984 -0.1975  0.3275 -0.1977
 2747W        W 6811   0.802   4.870   0.282 -0.0211  0.0760 -0.0370
 2748W        W 6812   0.782   5.116  10.267 -0.0188 -0.2573 -0.0118
 2749W        W 6813   6.583   8.969   8.953 -0.1202  0.4905  0.0784
 2750W        W 6814   1.976   9.241   2.767 -0.2422  0.0083  0.1113
 2751W        W 6815   6.431   8.652   3.231  0.3208 -0.0642 -0.1404
 2752W        W 6816  10.269   4.907   0.897  0.0943  0.3652 -0.0043
 2753W        W 6817   3.618   7.722   2.707  0.2361  0.0566 -0.0929
 2754W        W 6818   5.531   4.346   7.295 -0.0474  0.2632 -0.3604
 2755W        W 6819   1.226   9.659   2.263 -0.1109  0.0352 -0.1132
 2756W        W 6820  10.088   7.874  11.292 -0.0205 -0.1037 -0.2507
 2757W        W 6821   2.740   9.760  11.149 -0.0917 -0.0731  0.1423
 2758W        W 6822   5.424   9.574   9.747 -0.1057 -0.1228 -0.0761
 2759W        W 6823  10.406   1.077   0.880  0.1014 -0.0916  0.2282
 2760W        W 6824   6.280   5.564  10.475  0.1352 -0.1902 -0.1381
 2761W        W 6825  10.570   3.503   8.886 -0.1298 -0.3894 -0.1308
 2762W        W 6826   4.969   6.705   2.762  0.2025  0.1590  0.2419
 2763W        W 6827   4.776   5.461   2.544  0.0728 -0.0929  0.2679
 2764W        W 6828   3.373   7.957   8.153  0.0696  0.1463 -0.1733
 2765W        W 6829   6.538  10.126   0.093 -0.1101  0.1523  0.1261
 2766W        W 6830   3.332   4.345   9.332 -0.0493 -0.5046 -0.0324
 2767W        W 6831   0.359   7.056   8.675 -0.4399 -0.1199 -0.0750
 2768W        W 6832   9.215  10.136   2.520 -0.2395  0.4129 -0.0132
 2769W        W 6833  10.126   7.454   1.830 -0.1850 -0.4116 -0.0969
 2770W        W 6834   8.918   5.470   2.378 -0.2392  0.0784 -0.1496
 2771W        W 6835   1.921   9.076   0.682 -0.0993  0.0642  0.1933
 2772W        W 6836   1.455  10.613  10.916  0.0487 -0.0317 -0.1901
 2773W        W 6837   7.426   9.072   1.375  0.2627  0.1129 -0.0147
 2774W        W 6838   8.476   7.507   1.998  0.0653  0.0614  0.0811
 2775W        W 6839   2.759   9.367   0.248 -0.1478 -0.0062  0.2218
 2776W        W 6840   1.568   7.479   2.754 -0.0931 -0.0548 -0.0836
 2777W        W 6841   0.972   2.419  11.055  0.2674 -0.1833 -0.0267
 2778W        W 6842   6.794   0.031   1.615 -0.0282  0.2014 -0.2271
 2779W        W 6843   7.160   5.694   8.857  0.1607 -0.0804  0.2497
 2780W        W 6844   1.810   2.936   8.017  0.0856 -0.4501 -0.1084
 2781W        W 6845   2.153   4.726   0.819 -0.1078  0.0053  0.0114
 2782W        W 6846   7.809   6.567  11.130 -0.2455 -0.0401  0.1484
 2783W        W 6847   6.372   7.482  10.170 -0.0886 -0.0101  0.2555
 2784W        W 6848   9.517   6.801   2.073  0.1580  0.0663 -0.1105
 2785W        W 6849  10.122   0.174  10.975 -0.1713 -0.1628  0.0183
 2786W        W 6850   7.935   5.574   2.140 -0.0182 -0.0307 -0.0518
 2787W        W 6851   6.746   1.592  10.074  0.2056  0.0026 -0.0344
 2788W        W 6852   0.215   6.203   1.442 -0.2913 -0.0453  0.0426
 2789W        W 6853  10.739   8.269   3.562 -0.0192  0.0959 -0.3485
 2790W        W 6854   1.923  10.314   1.406  0.0012  0.2163  0.2189
 2791W        W 6855   6.531   6.829  10.847 -0.0310 -0.2251 -0.0151
 2792W        W 6856   5.838   1.928   3.540 -0.2287  0.1754 -0.1048
 2793W        W 6857   1.042   5.665   1.113 -0.0323  0.2774 -0.0041
 2794W        W 6858   5.352   2.922   2.823  0.0083 -0.1805 -0.0945
 2795W        W 6859   4.652   4.895   0.941  0.3473 -0.0720  0.1172
 2796W        W 6860  10.009   5.261   1.158 -0.2966 -0.0046 -0.0475
 2797W        W 6861   7.389   3.129   3.099 -0.3428  0.0283  0.0655
 2798W        W 6862   8.138   9.372  10.209 -0.1613  0.1539  0.2557
 2799W        W 6863   8.390   9.639   1.710  0.0057 -0.2619  0.0438
 2800W        W 6864   5.434   5.323   0.868  0.0277  0.2373 -0.0417
 2801W        W 6865   3.698   6.250  11.315 -0.1135 -0.0493 -0.4601
 2802W        W 6866   2.323   6.435  10.362  0.1531 -0.0522 -0.1732
 2803W        W 6867   3.551   2.373   0.396  0.1340  0.2209  0.1996
 2804W        W 6868   5.557   1.819   0.840  0.1494 -0.2147  0.2644
 2805W        W 6869   6.219   8.667   8.731 -0.0395 -0.0504 -0.0378
 2806W        W 6870   4.137  10.737   9.785 -0.2810 -0.2776 -0.1841
 2807W        W 6871   6.735   8.574  10.676  0.0381  0.1433 -0.1640
 2808W        W 6872   9.830   9.004   1.535  0.1745  0.2468  0.5207
 2809W        W 6873   5.196   3.056   9.851 -0.2335 -0.0302 -0.3838
 2810W        W 6874  10.227   7.944   2.678 -0.0650 -0.2972 -0.0100
 2811W        W 6875   0.950   2.482   3.178  0.2420 -0.0869 -0.1506
 2812W        W 6876   1.921  10.589   2.800 -0.1452  0.0552 -0.1024
 2813W        W 6877   1.906   5.826   8.499  0.2062 -0.0170 -0.0609
 2814W        W 6878   7.753   3.079   2.700  0.1348 -0.1147 -0.0661
 2815W        W 6879   2.855   3.110  10.834 -0.0811 -0.1259 -0.0792
 2816W        W 6880   8.207   3.041   8.139 -0.2040  0.2569  0.0892
 2817W        W 6881   9.131   4.040   0.208 -0.0901 -0.4132 -0.1979
 2818W        W 6882   7.406   9.596   9.552  0.0405  0.1728  0.0420
 2819W        W 6883   4.722   9.903   2.496  0.1499  0.0588  0.4277
 2820W        W 6884   8.904   8.041   1.963  0.4324  0.3253  0.2366
 2821W        W 6885   0.348   4.786   9.103 -0.0410  0.0976 -0.1540
 2822W        W 6886   3.811   6.692   0.750  0.1868  0.0248 -0.0577
 2823W        W 6887   4.701   9.258   1.535 -0.1516  0.1852 -0.1190
 2824W        W 6888   9.684   3.573   1.735  0.0704  0.2176  0.2701
 2825W        W 6889   6.351   1.875  10.027  0.0711 -0.3266  0.0039
 2826W        W 6890   0.534  10.741   1.748  0.0787 -0.0035 -0.0750
 2827W        W 6891   4.084   4.323   9.981  0.2582  0.0179 -0.3496
 2828W        W 6892   4.742   4.592   8.949  0.4747 -0.3865  0.1024
 2829W        W 6893   7.466   7.777   0.353 -0.0134  0.2812 -0.0189
 2830W        W 6894   8.178   3.350  10.740 -0.1185 -0.0661  0.1568
 2831W        W 6895   7.979   0.884   0.414 -0.0166 -0.1848  0.0050
 2832W        W 6896   0.115   4.221   0.351 -0.0550  0.0628 -0.1369
 2833W        W 6897   8.810   6.794   3.388 -0.2808 -0.0850  0.2609
 2834W        W 6898   4.383   3.498   2.444 -0.1361 -0.1001 -0.0626
 2835W        W 6899   5.877   8.053  11.325  0.1671 -0.0623 -0.0640
 2836W        W 6900   1.374   5.255   0.927 -0.2549  0.1351 -0.0434
 2837W        W 6901   1.393   1.876   0.853 -0.1151 -0.1813 -0.0566
 2838W        W 6902   6.961   5.326   0.812  0.3234  0.2267 -0.2976
 2839W        W 6903   6.166   8.381   2.146  0.1637  0.0987  0.2742
 2840W        W 6904   8.801   1.778   0.765  0.1394 -0.0399  0.2314
 2841W        W 6905   5.042   6.943   9.576 -0.1274  0.5032 -0.1402
 2842W        W 6906   9.432   2.598   8.665 -0.1721  0.2250 -0.2836
 2843W        W 6907   7.442  10.283   2.526 -0.0321  0.0230  0.0237
 2844W        W 6908   7.298   7.222   0.331  0.0612 -0.0270  0.1260
 2845W        W 6909   4.494   7.187   0.691  0.1686  0.0999  0.0968
 2846W        W 6910   8.901   4.719   2.693 -0.1332 -0.0681 -0.2038
 2847W        W 6911   1.426   3.162   9.646 -0.1150 -0.0059  0.0838
 2848W        W 6912   3.910   4.626   8.761  0.0382 -0.0698 -0.0751
 2849W        W 6913   6.402   4.686   0.565 -0.0038 -0.1296 -0.2803
 2850W        W 6914   0.452   2.230  11.018 -0.0317 -0.0989 -0.0371
 2851W        W 6915   8.030   4.295  10.912  0.0672 -0.0678  0.1961
 2852W        W 6916   0.166   5.751   3.077 -0.1523  0.1349 -0.1199
 2853W        W 6917   1.094   2.171   8.905  0.1138  0.0949 -0.0763
 2854W        W 6918  10.170   6.279   7.898 -0.0234 -0.3511 -0.1411
 2855W        W 6919  10.037   9.488   1.978  0.0026  0.1597 -0.1011
 2856W        W 6920   8.612   7.874   9.675  0.0644 -0.0666  0.2318
 2857W        W 6921   3.866   4.140   8.536 -0.3046 -0.2292  0.0608
 2858W        W 6922   1.796   3.447   2.591  0.0074  0.0615  0.2029
 2859W        W 6923   1.841   8.208  10.075  0.1208  0.0928  0.0161
 2860W        W 6924   1.701   2.234  10.210  0.0764 -0.1088  0.1259
 2861W        W 6925   4.163   6.412   2.172 -0.3504 -0.2424  0.4562
 2862W        W 6926   7.116   1.819   1.914  0.1576 -0.1753  0.0575
 2863W        W 6927   2.676   8.028   8.933 -0.0141 -0.0530 -0.0719
 2864W        W 6928   9.749   9.429   4.450 -0.2792  0.2111  0.0013
 2865W        W 6929   1.993   5.052   1.277 -0.2593 -0.0520  0.1174
 2866W        W 6930   5.879   7.526   7.996 -0.0182  0.1797 -0.1406
 2867W        W 6931   0.253   4.117   2.787  0.3869  0.0851 -0.0950
 2868W        W 6932   5.050   6.682   2.242  0.0681  0.1685  0.2084
 2869W        W 6933   5.418   9.840   0.051  0.0217  0.0049 -0.0499
 2870W        W 6934   9.242   0.146   9.521 -0.1763  0.1130 -0.3696
 2871W        W 6935   1.071   2.342   3.715  0.2005 -0.1130 -0.2138
 2872W        W 6936   0.532   0.054  10.285  0.2578  0.0777  0.1314
 2873W        W 6937   0.705   6.399   1.545 -0.1750 -0.1683  0.0889
 2874W        W 6938   9.067  10.027   9.766  0.1075 -0.3215  0.0991
 2875W        W 6939   8.463   2.592   8.958 -0.3424 -0.1062 -0.0621
 2876W        W 6940   7.348   8.596   9.434 -0.0748 -0.4053 -0.2605
 2877W        W 6941   5.228   0.300   0.915  0.1496  0.0265 -0.1686
 2878W        W 6942   4.867   5.745   1.648 -0.2091 -0.1436  0.2373
 2879W        W 6943   9.076   8.641   3.528  0.1966 -0.3702  0.2401
 2880W        W 6944   3.713  10.676   8.984 -0.1782  0.2206  0.4468
 2881W        W 6945   9.346   8.679  10.189 -0.0403  0.0590  0.1120
 2882W        W 6946   4.545   9.647  10.077 -0.0976 -0.4744  0.1751
 2883W        W 6947   4.988   2.216   9.984  0.3879  0.1984 -0.0044
 2884W        W 6948   4.213   9.569   0.347  0.0424  0.0310  0.0594
 2885W        W 6949   7.270   9.369   8.489 -0.0479 -0.1295  0.2931
 2886W        W 6950   3.779   5.356  10.592 -0.4158  0.0079  0.0064
 2887W        W 6951   7.804   5.468   4.181 -0.0784  0.3329 -0.0678
 2888W        W 6952  10.177   5.472  10.855  0.1236  0.0374  0.2728
 2889W        W 6953   8.546   9.251   1.319 -0.1271 -0.0495 -0.1430
 2890W        W 6954  10.427   9.897   1.326 -0.0517  0.0337  0.1485
 2891W        W 6955   0.614   0.172   8.965  0.1621  0.1559 -0.0654
 2892W        W 6956   4.660  10.597  10.431  0.4394 -0.0584  0.0679
 2893W        W 6957   5.354   1.995   2.134 -0.2192  0.0004 -0.1964
 2894W        W 6958   3.092   5.472   0.762 -0.0821  0.0850  0.1744
 2895W        W 6959   7.723   8.763   7.924  0.0871  0.0001  0.0132
 2896W        W 6960   0.941   5.756  10.867 -0.0091  0.2758 -0.0072
 2897W        W 6961   0.563  10.586   2.438  0.3091  0.0367 -0.1206
 2898W        W 6962   2.044   6.258  10.825  0.3624 -0.2477 -0.2586
 2899W        W 6963   1.285   2.892   1.058  0.0354  0.0561 -0.0969
 2900W        W 6964  10.374   4.916   1.834 -0.0152  0.1151  0.3154
 2901W        W 6965   8.334   9.835  10.432  0.0345  0.1425 -0.0501
 2902W        W 6966   3.297   7.555   7.900  0.0050 -0.3527  0.1997
 2903W        W 6967   7.678   8.901  10.990 -0.0678 -0.0883  0.2859
 2904W        W 6968   2.615   3.392   2.388 -0.1872 -0.3024 -0.2501
 2905W        W 6969   3.104   4.746   9.964  0.1125  0.0467 -0.0375
 2906W        W 6970   9.351   3.558   2.114  0.0893  0.1724  0.0918
 2907W        W 6971   1.232   0.522   2.094 -0.0497  0.3111  0.4656
 2908W        W 6972   6.557   9.809   0.535 -0.1789  0.3063  0.1338
 2909W        W 6973  10.252   6.694  10.249 -0.0146 -0.2869 -0.0082
 2910W        W 6974   8.257   1.167   3.233 -0.2783  0.1086  0.3486
 2911W        W 6975   7.662   3.690   9.190  0.1788 -0.6199  0.0821
 2912W        W 6976  10.130   9.891   7.987 -0.2430  0.1809  0.0070
 2913W        W 6977  10.610   4.762   9.072 -0.0816 -0.4389  0.1773
 2914W        W 6978   4.375   5.143   0.009 -0.0039  0.0602 -0.2673
 2915W        W 6979   1.881   4.208   8.065  0.0451  0.0326  0.2610
 2916W        W 6980   1.945   4.329   1.809 -0.0195 -0.0619  0.1916
 2917W        W 6981   6.931   7.681   2.792 -0.0594  0.1137 -0.0159
 2918W        W 6982   7.459   2.162   1.137 -0.2165 -0.0992  0.1318
 2919W        W 6983   1.185   1.093   1.336 -0.0424 -0.1019  0.1898
 2920W        W 6984   8.988   7.344   1.184 -0.4077  0.4098  0.3292
 2921W        W 6985   1.245   2.361   0.972 -0.0239 -0.2562 -0.1721
 2922W        W 6986  10.030   9.900   3.827  0.0668 -0.0531  0.0161
 2923W        W 6987   6.634   3.532   2.336  0.1283 -0.0282  0.2281
 2924W        W 6988   8.862   9.274   0.120 -0.0209  0.0394  0.1289
 2925W        W 6989   1.925   9.334   0.260  0.0787 -0.0192  0.1270
 2926W        W 6990   2.274  10.141   1.717  0.0712 -0.0191 -0.1128
 2927W        W 6991   5.106   5.412   7.617  0.0254 -0.2272 -0.0421
 2928W        W 6992   2.023   8.829   0.241  0.2932  0.1164  0.0076
 2929W        W 6993  10.174   7.383  11.100 -0.1402 -0.3547  0.1155
 2930W        W 6994   3.150   5.254   9.211  0.3403  0.0490 -0.0163
 2931W        W 6995   3.181   4.653   8.509 -0.0406  0.0833  0.2713
 2932W        W 6996   1.602   9.936   7.881 -0.3082  0.0994 -0.0769
 2933W        W 6997   2.938   7.055   2.214  0.1333  0.1239  0.1813
 2934W        W 6998   9.428   7.997   0.065 -0.2340  0.0436 -0.2204
 2935W        W 6999   4.627   5.849   2.807 -0.0937  0.2190 -0.3867
 2936W        W 7000   0.437   4.647   7.910 -0.0340 -0.1319 -0.2760
 2937W        W 7001   8.912   3.658   0.757 -0.2794  0.2578 -0.0105
 2938W        W 7002  10.631   5.759  10.094 -0.0445  0.0944  0.1011
 2939W        W 7003   5.250   8.505   8.904 -0.0255  0.1283  0.2894
 2940W        W 7004   3.126   5.941  11.147  0.2055  0.1541 -0.0016
 2941W        W 7005   2.406   2.137   9.195  0.2929  0.1659  0.2665
 2942W        W 7006   5.335   0.650  10.361  0.0468  0.1797 -0.0189
 2943W        W 7007   9.813   0.439   0.989 -0.4307 -0.1082 -0.0295
 2944W        W 7008   0.730   4.946   1.545  0.0087 -0.0280 -0.0889
 2945W        W 7009   4.764   5.916   9.937  0.2374  0.2486  0.0767
 2946W        W 7010   7.915   3.658   8.622  0.0132  0.1227 -0.3909
 2947W        W 7011   5.866   4.387   9.811 -0.0717 -0.0231 -0.1956
 2948W        W 7012   0.437   5.011   0.625 -0.4419 -0.3247  0.3816
 2949W        W 7013   1.368   5.047   1.644 -0.0406  0.3026 -0.3400
 2950W        W 7014   3.687   9.121   7.615 -0.3161 -0.0847 -0.1792
 2951W        W 7015   6.762   1.172   1.060  0.2302 -0.4188 -0.2646
 2952W        W 7016   1.354   8.047   9.984 -0.0895 -0.1031  0.1460
 2953W        W 7017   5.067   6.050   9.502 -0.1778 -0.0317  0.2155
 2954W        W 7018   0.546   4.709  10.365  0.0369  0.2161 -0.0010
 2955W        W 7019   1.717   0.009   0.055 -0.1291 -0.0160  0.0369
 2956W        W 7020   0.352   1.670   2.349  0.3842 -0.2881  0.1627
 2957W        W 7021   5.522   0.574   1.741  0.1754  0.0016  0.1099
 2958W        W 7022   9.753   2.539   1.195 -0.1402  0.0982 -0.0008
 2959W        W 7023   4.761   9.059   3.195  0.0256 -0.1833 -0.0499
 2960W        W 7024   7.760   6.118   3.395 -0.2998 -0.3724  0.2634
 2961W        W 7025   9.935   1.433   8.610 -0.0910  0.1760 -0.3014
 2962W        W 7026   3.773   9.439  11.290  0.2161  0.4529  0.0379
 2963W        W 7027   3.237   2.962   2.148  0.1259 -0.0745  0.2237
 2964W        W 7028  10.302   7.949   1.642 -0.2416 -0.3011 -0.0959
 2965W        W 7029   6.223  10.501   0.246  0.1210  0.0578  0.0775
 2966W        W 7030   6.622   8.636  11.245  0.0565 -0.0646  0.0931
 2967W        W 7031   3.669   2.575  10.435 -0.2677  0.1107  0.0657
 2968W        W 7032   0.353   7.860   2.187  0.0267  0.0595  0.0703
 2969W        W 7033   5.456   3.613   8.209 -0.0181  0.1864  0.0800
 2970W        W 7034   1.377   5.743   8.590 -0.1051 -0.0293 -0.2953
 2971W        W 7035   8.497   1.171  10.171  0.0310 -0.3493 -0.1286
 2972W        W 7036   9.848   0.840   3.714  0.0872 -0.0917 -0.0846
 2973W        W 7037   9.809   7.942   0.387  0.1013 -0.3451  0.2209
 2974W        W 7038   2.496   7.712   2.460  0.1662 -0.1209  0.3110
 2975W        W 7039   3.904   2.520   2.506 -0.0502  0.2827 -0.0348
 2976W        W 7040   9.080   5.716   0.134  0.3135  0.3159 -0.4131
 2977W        W 7041   1.096   8.485   9.731 -0.1303 -0.2504  0.0104
 2978W        W 7042   2.991   7.247   1.001  0.2330  0.1395  0.0974
 2979W        W 7043   3.125   0.027   1.838 -0.0833 -0.0111 -0.0147
 2980W        W 7044   6.580   6.673  10.363 -0.2991  0.0970  0.0626
 2981W        W 7045   4.386   1.539   3.330  0.1081 -0.0529  0.1434
 2982W        W 7046   6.375   3.055   2.758  0.0990 -0.3718 -0.0470
 2983W        W 7047   3.106   9.368   0.964 -0.1092  0.3286 -0.2862
 2984W        W 7048   3.533   4.689   0.356  0.1952 -0.3790 -0.0563
 2985W        W 7049   3.275   5.212   9.697 -0.0931 -0.1218 -0.2087
 2986W        W 7050   4.706   4.851   2.324 -0.0740  0.0924  0.1735
 2987W        W 7051   4.369   4.559  10.813  0.0553 -0.2680 -0.0587
 2988W        W 7052   7.562   0.143   0.635  0.2163 -0.1846  0.2137
 2989W        W 7053   4.222   5.099  10.862 -0.1237  0.0035 -0.4757
 2990W        W 7054   8.295   9.689   1.242  0.3672  0.3148  0.2214
 2991W        W 7055   1.555   1.601   0.448  0.3037  0.4191  0.0810
 2992W        W 7056   6.109   3.625  11.018 -0.1271  0.0141 -0.0782
 2993W        W 7057  10.409   7.292   8.772  0.3868  0.0793 -0.0755
 2994W        W 7058   5.736   0.277   2.066  0.2036  0.1166  0.0616
 2995W        W 7059   2.685   9.900   3.044 -0.2066 -0.2344  0.1385
 2996W        W 7060   3.071   1.326   9.367  0.2041  0.0990 -0.1196
 2997W        W 7061   8.362   4.046  11.200 -0.0708 -0.0501 -0.0181
 2998W        W 7062  10.537   6.659   2.074 -0.0919 -0.3232  0.2118
 2999W        W 7063   5.039   3.998   0.924  0.0628  0.0771  0.2370
 3000W        W 7064   4.106   7.805   9.085  0.0943  0.0748  0.1568
 3001W        W 7065   5.772   6.559   0.161 -0.2019 -0.0642  0.2109
 3002W        W 7066   1.091   3.512   7.834  0.0123 -0.0443 -0.2308
 3003W        W 7067   6.824   5.611   3.842 -0.1546 -0.1560 -0.1905
 3004W        W 7068  10.061  10.266   9.708  0.1716  0.0592 -0.0340
 3005W        W 7069   6.999   5.442  10.719  0.4571 -0.0432  0.3322
 3006W        W 7070   2.179   3.596   9.805  0.1013 -0.0038  0.1143
 3007W        W 7071   3.754   0.721   0.505 -0.2407 -0.1553 -0.4073
 3008W        W 7072   1.738   4.643  10.299 -0.1070 -0.0951  0.0263
 3009W        W 7073   2.547   0.210  10.170  0.0167  0.0362  0.1038
 3010W        W 7074   3.697   6.352   8.005  0.2291  0.0468 -0.2530
 3011W        W 7075   4.727   1.182   4.251  0.1686 -0.1201  0.4031
 3012W        W 7076   3.493   7.118   0.910  0.2858  0.3248 -0.0931
 3013W        W 7077   0.356   3.405   9.952 -0.2553  0.1911 -0.1163
 3014W        W 7078   1.824   4.108  10.226 -0.1946  0.0341  0.0455
 3015W        W 7079   1.816   3.205   3.019 -0.0392 -0.2163  0.0537
 3016W        W 7080   0.316   9.546   1.524  0.2499  0.1685  0.1819
 3017W        W 7081   9.883   0.807   9.043  0.2572 -0.1445  0.1961
 3018W        W 7082   3.631   9.577  10.256  0.1297  0.2059  0.4008
 3019W        W 7083   0.982   8.927  10.680 -0.1268  0.0919 -0.4327
 3020W        W 7084   9.135   3.527   0.319  0.1962 -0.2621  0.1156
 3021W        W 7085   3.421   5.674   9.350  0.2156 -0.3741  0.2021
 3022W        W 7086   2.050   2.649   0.716  0.0000  0.0463 -0.2766
 3023W        W 7087   2.205   4.636  10.806  0.2334  0.0615  0.0462
 3024W        W 7088   1.329  10.733   2.544  0.1431 -0.0796 -0.0044
 3025W        W 7089   7.697   4.142   8.873  0.1273 -0.0586 -0.0886
 3026W        W 7090   3.774   7.815   9.890 -0.1765 -0.0753 -0.4238
 3027W        W 7091   8.128   8.345   0.318  0.1997 -0.1059 -0.1916
 3028W        W 7092   6.452   1.573   1.118  0.1542  0.1708  0.0362
 3029W        W 7093   6.170   1.389   3.099  0.3776 -0.1192  0.0224
 3030W        W 7094   9.519   6.745   1.555  0.3234  0.4484  0.1578
 3031W        W 7095  10.271   1.304   0.160  0.0104  0.0300  0.0096
 3032W        W 7096  10.401   9.207   2.205  0.1947 -0.0060  0.2240
 3033W        W 7097   5.356   6.432  11.241 -0.1035 -0.0632 -0.0097
 3034W        W 7098   2.023   7.677  11.303 -0.0069  0.0944  0.0469
 3035W        W 7099   1.411   1.717  10.591  0.2501  0.0269  0.1222
 3036W        W 7100   0.674   1.341   2.676 -0.0966  0.1122  0.1728
 3037W        W 7101   1.211  10.629  10.490 -0.0619 -0.1140  0.1028
 3038W        W 7102   7.157   7.495   3.176  0.0289  0.0243  0.1665
 3039W        W 7103   7.655   9.439  10.020 -0.0370 -0.0413  0.1707
 3040W        W 7104   8.497   5.165  11.010  0.0820 -0.0370 -0.3935
 3041W        W 7105   0.365   6.918   9.382 -0.0760  0.1970  0.1397
 3042W        W 7106   1.651   7.770   0.906 -0.1727  0.1064 -0.1703
 3043W        W 7107   1.265   9.134   2.314 -0.1517 -0.0279  0.2986
 3044W        W 7108   5.292   9.299  10.323  0.1224 -0.2900 -0.2181
 3045W        W 7109   4.434   9.174   0.609 -0.1250 -0.4716 -0.2015
 3046W        W 7110   6.216   7.906   3.858 -0.0148  0.3987  0.2729
 3047W        W 7111   9.361   4.499   1.563  0.1742  0.1524 -0.0116
 3048W        W 7112   2.876   7.875   7.965 -0.0096  0.0636 -0.0089
 3049W        W 7113   7.424   4.817  11.199  0.1244 -0.0468  0.1405
 3050W        W 7114   2.594   4.900   2.026 -0.0196 -0.0855 -0.2146
 3051W        W 7115   4.467   8.202  11.111  0.1837 -0.2057  0.0989
 3052W        W 7116   0.949   6.613   3.485 -0.1760  0.0393  0.0381
 3053W        W 7117   4.296   5.754   9.780 -0.1687 -0.3905 -0.2262
 3054W        W 7118   7.193   3.222   1.552 -0.1886  0.2467  0.3255
 3055W        W 7119   7.122   5.372   7.242 -0.0551  0.2134 -0.0146
 3056W        W 7120   4.132   6.947   0.975 -0.1281 -0.2084 -0.0836
 3057W        W 7121   0.009   0.856   1.175  0.2871 -0.0010 -0.1412
 3058W        W 7122   7.054  10.461   1.359 -0.2020 -0.1321 -0.2583
 3059W        W 7123   0.607   6.537   8.814 -0.0868 -0.4317 -0.1612
 3060W        W 7124   2.130   0.878   2.837  0.0872  0.1767 -0.0827
 3061W        W 7125   0.539   1.746   9.617 -0.2349  0.1085  0.0855
 3062W        W 7126   4.413   5.857   3.948  0.3170  0.2368  0.1914
 3063W        W 7127  10.398   4.569   8.539 -0.0026 -0.0348 -0.2159
 3064W        W 7128   3.703   6.176   2.895 -0.1861 -0.0121  0.2028
 3065W        W 7129   7.614  10.399   9.214  0.0085 -0.1832 -0.2602
 3066W        W 7130  10.557   9.438   1.166 -0.1000 -0.4097 -0.2434
 3067W        W 7131   8.540   3.223  11.266 -0.1046  0.0823  0.2803
 3068W        W 7132   6.530   0.530   1.557 -0.1430 -0.0314  0.1245
 3069W        W 7133   3.584   4.384  10.361  0.3451 -0.0494  0.0523
 3070W        W 7134   9.745   4.328   1.827 -0.2084 -0.0585 -0.0269
 3071W        W 7135   9.356  10.686  10.910  0.1772 -0.1526  0.0941
 3072W        W 7136   4.847   9.698  11.079  0.3486 -0.0811  0.0785
 3073W        W 7137  10.494   7.780   3.176 -0.1088  0.3016 -0.2730
 3074W        W 7138   2.860   5.499   3.681 -0.1632  0.1047  0.0635
 3075W        W 7139   0.920   3.585   8.971  0.0940 -0.0510  0.1387
 3076W        W 7140   0.653   1.697   0.300  0.1877 -0.2176  0.3464
 3077W        W 7141   2.731   1.911   1.712 -0.3283  0.0700 -0.0820
 3078W        W 7142   9.551   8.588   0.570 -0.2107  0.0569  0.0392
 3079W        W 7143   9.069   2.216  10.981 -0.3273  0.2329 -0.2038
 3080W        W 7144   8.462   2.194   1.648 -0.0288  0.2187 -0.1902
 3081W        W 7145   9.908   5.770   3.025 -0.0690 -0.0401 -0.0175
 3082W        W 7146   5.728   7.770   9.385  0.0241 -0.0707 -0.1051
 3083W        W 7147   6.911   4.006   0.297  0.1154 -0.1838 -0.2825
 3084W        W 7148   3.165   1.351  10.318 -0.3756  0.1820 -0.3758
 3085W        W 7149   2.322   6.517   1.888  0.2060  0.0865 -0.1874
 3086W        W 7150   3.847  10.068   2.004  0.0110  0.3364  0.0817
 3087W        W 7151   6.871   9.501   1.786  0.1226  0.0496 -0.1600
 3088W        W 7152   8.572   3.389   8.167  0.3641 -0.1214  0.0869
 3089W        W 7153   6.756   0.462   0.431  0.2819 -0.0807  0.2983
 3090W        W 7154   4.620   7.068   3.452  0.2036 -0.0490  0.0699
 3091W        W 7155   8.503   6.568   2.688  0.2696  0.3501 -0.2574
 3092W        W 7156   4.985  10.719   0.170  0.2407 -0.3641  0.2080
 3093W        W 7157   0.917   2.486   2.504  0.1453 -0.0226  0.2581
 3094W        W 7158   5.050   8.241  10.101  0.0317  0.1537 -0.1591
 3095W        W 7159   6.446   5.500   3.570 -0.3986  0.1416  0.1136
 3096W        W 7160   1.454   9.005   7.753 -0.4471 -0.0298 -0.2436
 3097W        W 7161   9.386  10.280   9.421 -0.1697 -0.1247  0.0670
 3098W        W 7162   8.910   2.857   8.799  0.2226 -0.0917  0.1299
 3099W        W 7163   7.132   0.019   0.407  0.0734 -0.3787 -0.2653
 3100W        W 7164   0.473   4.933   8.303 -0.0195  0.1311  0.2547
 3101W        W 7165   1.726   7.592   0.420  0.3858 -0.2710  0.0086
 3102W        W 7166   9.523   3.620   3.015  0.0619 -0.0580  0.2027
 3103W        W 7167   1.448  10.167   1.417 -0.1675 -0.0812 -0.3919
 3104W        W 7168   4.121   8.407   3.235  0.1161  0.1013 -0.0865
 3105W        W 7169   8.179   8.827   3.405  0.2645 -0.0229 -0.0770
 3106W        W 7170   4.724   6.796   9.232  0.2485  0.1129 -0.0624
 3107W        W 7171   3.939   6.466   9.679 -0.2013 -0.4024  0.0113
 3108W        W 7172   2.382   7.983   9.943  0.2169  0.0812 -0.1936
 3109W        W 7173   8.643   1.681  10.157 -0.1812 -0.1548 -0.0889
 3110W        W 7174   3.425   7.206   0.309 -0.2383  0.1544 -0.0470
 3111W        W 7175  10.288   0.529   0.865 -0.0128  0.1973  0.1702
 3112W        W 7176   7.771   4.957   3.391  0.0003  0.0420  0.2588
 3113W        W 7177   9.104   3.174   8.142 -0.0712  0.1396  0.2509
 3114W        W 7178   5.881   6.612   1.468  0.0211 -0.0614  0.3787
 3115W        W 7179   2.045  10.344   0.120 -0.1075 -0.0127 -0.1605
 3116W        W 7180   5.251   9.660   7.637  0.1441  0.4174 -0.1125
 3117W        W 7181   3.240   8.680   8.416  0.0807  0.0351 -0.0858
 3118W        W 7182   4.481   4.010   7.345 -0.1879 -0.0000 -0.5552
 3119W        W 7183   6.509   3.188  10.153 -0.0443  0.0299 -0.2067
 3120W        W 7184   8.733   3.167   3.635 -0.5806  0.1344  0.1526
 3121W        W 7185   1.142   0.736  10.446  0.0955  0.2585  0.0152
 3122W        W 7186   8.290   2.394   0.612  0.1357 -0.1717 -0.0333
 3123W        W 7187   5.542   5.327  11.015 -0.2214  0.0109 -0.0228
 3124W        W 7188   7.549   1.794   2.197  0.1471 -0.1322  0.1684
 3125W        W 7189   7.873   7.227   2.550  0.0094  0.3638  0.0509
 3126W        W 7190   0.070   0.736   0.666  0.4428 -0.0223 -0.3310
 3127W        W 7191   0.365   7.396   1.899  0.0020 -0.0621 -0.0894
 3128W        W 7192   9.487   3.481   8.332 -0.1482  0.1920 -0.1147
 3129W        W 7193   5.642   8.652  10.641 -0.1536 -0.0213  0.1950
 3130W        W 7194   7.923   1.122   2.389 -0.0792 -0.0883  0.0680
 3131W        W 7195   1.999   4.478   2.624 -0.1763 -0.0323 -0.0548
 3132W        W 7196   5.004   4.382   9.584  0.3623 -0.0327  0.0574
 3133W        W 7197   9.762   6.900   2.482 -0.1744 -0.3143  0.1737
 3134W        W 7198   3.983   0.320   2.178  0.0727 -0.0616  0.2740
 3135W        W 7199   5.451   8.664   9.789  0.3629 -0.2824 -0.2762
 3136W        W 7200  10.540   0.482   8.724  0.0954  0.0023 -0.2556
 3137W        W 7201   9.728   5.581   7.255  0.2449 -0.2386 -0.0034
 3138W        W 7202  10.107  10.531   2.712 -0.0899  0.0839 -0.1428
 3139W        W 7203   9.483   7.675  10.086  0.0679  0.2414  0.3611
 3140W        W 7204   0.806   3.226  11.205 -0.1073  0.1258 -0.0872
 3141W        W 7205   3.837   7.098   0.471 -0.1363  0.1352 -0.0870
 3142W        W 7206   5.937   2.181  10.930 -0.1923 -0.1218  0.1688
 3143W        W 7207   5.069  10.554   1.133 -0.0624  0.1149 -0.0233
 3144W        W 7208   5.541   9.526   9.206  0.4563 -0.1029 -0.1218
 3145W        W 7209   6.162   4.763   1.035 -0.0374  0.0270  0.0477
 3146W        W 7210   4.887   9.301   9.961 -0.1803  0.1499 -0.2329
 3147W        W 7211   8.237   0.139   0.705  0.1897  0.1380  0.1692
 3148W        W 7212   0.425   9.937   7.363 -0.0580  0.1359  0.0818
 3149W        W 7213   0.786   1.555   3.161 -0.1474 -0.0268 -0.0959
 3150W        W 7214   9.519   8.006  10.657 -0.0734  0.4090  0.4004
 3151W        W 7215   5.079   4.527   0.147 -0.0407  0.2240  0.0594
 3152W        W 7216   1.666   6.540   2.413  0.1002  0.0781  0.2184
 3153W        W 7217   4.070   6.032   9.390  0.0479  0.2218 -0.3157
 3154W        W 7218   2.883   7.303  10.050 -0.1429  0.1105  0.3424
 3155W        W 7219  10.763   9.582   2.180 -0.0334  0.2696  0.3144
 3156W        W 7220   4.239   9.081   8.544 -0.0085  0.0494  0.0462
 3157W        W 7221   9.611   1.992   8.747 -0.0719 -0.4548  0.1894
 3158W        W 7222   2.867   9.024  10.518  0.0386 -0.2469 -0.1274
 3159W        W 7223   8.891   7.770   3.001 -0.2198  0.3258 -0.1299
 3160W        W 7224   0.034   8.310   0.247  0.3434  0.1605  0.0581
 3161W        W 7225   7.050   9.814   7.859  0.1818  0.2433 -0.0071
 3162W        W 7226   9.913   3.382   9.842  0.0061 -0.0958  0.1158
 3163W        W 7227   9.719   7.981   1.000  0.3264 -0.0638  0.2376
 3164W        W 7228   6.159   3.599  10.137 -0.0528  0.0118  0.1055
 3165W        W 7229   5.747   8.576   8.842 -0.0575 -0.0512  0.1180
 3166W        W 7230   8.895   9.428   8.950 -0.0360  0.1832  0.1034
 3167W        W 7231   5.998   8.785   9.689  0.0029  0.1172 -0.1132
 3168W        W 7232   0.750   3.841  10.000 -0.1244 -0.0940 -0.0316
 3169W        W 7233   3.988   9.389   9.427 -0.1254 -0.2184 -0.0207
 3170W        W 7234   4.641   1.413   1.202 -0.0592 -0.1051 -0.0026
 3171W        W 7235   9.047   8.261   8.084  0.2832 -0.0578  0.0437
 3172W        W 7236   8.473   0.945   0.286 -0.0202 -0.1429 -0.3375
 3173W        W 7237   1.351   6.602   8.277 -0.1700  0.1444 -0.1365
 3174W        W 7238   2.143   7.957   2.140  0.0016  0.0370  0.1120
 3175W        W 7239   9.423   8.497   8.738  0.0055  0.0996 -0.0851
 3176W        W 7240   9.023   3.651   8.216  0.1319 -0.1690  0.1902
 3177W        W 7241   3.593   0.105  10.439  0.1053  0.1922 -0.0201
 3178W        W 7242   3.421  10.399   1.959  0.2146  0.1669 -0.2513
 3179W        W 7243   4.883   0.739   9.930 -0.1435  0.2531  0.3521
 3180W        W 7244  10.279   2.370   2.543  0.3679  0.2567  0.4784
 3181W        W 7245   0.949   1.394   9.537  0.0090  0.2214 -0.1442
 3182W        W 7246   5.594  10.425   9.454  0.0801 -0.2104  0.0263
 3183W        W 7247   5.735   7.003   8.074  0.0065 -0.0943 -0.1744
 3184W        W 7248   4.050  10.344   0.729 -0.1835  0.4103 -0.0677
 3185W        W 7249   4.252   0.547   0.839 -0.0618 -0.0800 -0.0095
 3186W        W 7250   7.513   9.374  10.961  0.2419 -0.2823  0.2426
 3187W        W 7251  10.688   8.294   2.478  0.2346  0.0133  0.0638
 3188W        W 7252   1.510   0.057  10.042 -0.2151 -0.2720 -0.0301
 3189W        W 7253   5.263   4.831   0.529  0.0253  0.3698  0.0326
 3190W        W 7254   3.977   3.634   8.985  0.0588  0.1239  0.0190
 3191W        W 7255   6.371   6.429   8.693  0.2477  0.1117 -0.0864
 3192W        W 7256  10.326   9.785   0.816 -0.0085  0.1789  0.0638
 3193W        W 7257   3.211   7.870   4.037  0.1210  0.2802  0.1751
 3194W        W 7258   5.158   8.765  10.173  0.0404  0.0095  0.4417
 3195W        W 7259   0.042   3.014  11.211 -0.0046 -0.0581  0.2810
 3196W        W 7260   0.474   8.437   7.775 -0.0235 -0.0378 -0.1982
 3197W        W 7261   6.524   0.621   9.234 -0.0998 -0.0913  0.0575
 3198W        W 7262   1.369   9.741  10.691  0.1804  0.2074  0.0349
 3199W        W 7263   4.764   1.122  11.152  0.0591 -0.2373  0.0851
 3200W        W 7264   8.007   4.565   8.627  0.0542  0.3806  0.1852
 3201W        W 7265   5.376   2.633   1.711  0.0937  0.1519 -0.0002
 3202W        W 7266   9.706   6.421   7.725  0.2269 -0.0943 -0.1328
 3203W        W 7267   1.970   4.913   8.642  0.1999 -0.0713  0.1096
 3204W        W 7268   9.193   5.842   9.563  0.1307  0.1105 -0.0555
 3205W        W 7269   1.858   1.691   8.108 -0.1150  0.1680 -0.3034
 3206W        W 7270   6.335   9.997   2.960  0.0755 -0.0429 -0.2409
 3207W        W 7271  10.551   2.195   0.210  0.3651  0.0779  0.7269
 3208W        W 7272   0.880   7.842   8.758 -0.2394  0.0636 -0.0595
 3209W        W 7273   3.658   7.315   9.769 -0.0305  0.5314  0.1551
 3210W        W 7274   5.040   1.500   2.790 -0.0868  0.1152 -0.0919
 3211W        W 7275   0.345   0.719   8.238  0.1633 -0.2218  0.0581
 3212W        W 7276   3.796   0.049   8.037 -0.1171  0.0673  0.0051
 3213W        W 7277   1.455   0.562   0.011  0.0679  0.0285  0.1199
 3214W        W 7278   9.755   2.501   9.646 -0.1095 -0.1355 -0.0704
 3215W        W 7279   7.066   4.185   8.631 -0.1373 -0.1040 -0.1165
 3216W        W 7280   8.547   9.547   2.203  0.0112 -0.0551 -0.1221
 3217W        W 7281   5.204   7.229   0.528  0.2745 -0.0536 -0.1212
 3218W        W 7282   4.044   3.569  11.298 -0.1309 -0.2381 -0.0057
 3219W        W 7283   2.896   2.826  11.264 -0.2386 -0.0347  0.0522
 3220W        W 7284   8.845   6.703   0.581  0.0160  0.1363  0.2490
 3221W        W 7285   4.300   3.269   2.905 -0.2662 -0.0721 -0.0764
 3222W        W 7286   6.912   0.996   8.378  0.0016  0.1379 -0.2186
 3223W        W 7287   6.625   9.908   1.097  0.4267 -0.1604 -0.2387
 3224W        W 7288   6.535   4.813   8.986 -0.1969  0.1077  0.0801
 3225W        W 7289   4.635   9.772   9.251  0.0497  0.2018  0.0209
 3226W        W 7290   2.920   0.012   9.530 -0.0182 -0.3161  0.2195
 3227W        W 7291   5.408   7.545   8.881  0.0143  0.0860 -0.2389
 3228W        W 7292   0.327   6.092   0.156  0.2143 -0.2247  0.0016
 3229W        W 7293   2.046   9.115   1.159  0.1219 -0.1063  0.1197
 3230W        W 7294  10.027   3.062   0.211  0.2129  0.5375  0.1190
 3231W        W 7295   6.676   9.490   8.279 -0.0567 -0.1299  0.0880
 3232W        W 7296   3.700   3.067  10.301  0.1671 -0.1156  0.0361
 3233W        W 7297   8.491   4.497   0.295 -0.3588  0.0613  0.1661
 3234W        W 7298   9.384   4.009  10.785  0.0280  0.3971  0.2703
 3235W        W 7299   7.775  10.724   1.824  0.2065  0.0037 -0.2099
 3236W        W 7300   4.845   2.779   1.941 -0.1825 -0.0826  0.1846
 3237W        W 7301   4.396   2.650   0.751 -0.0507 -0.1718 -0.0926
 3238W        W 7302   1.511   8.750   9.497 -0.3008 -0.0073  0.0469
 3239W        W 7303   4.207   0.160   9.043  0.1910  0.0337 -0.2295
 3240W        W 7304   6.730   7.088   8.176 -0.1859 -0.1367  0.1015
 3241W        W 7305   8.511   0.749  11.153  0.5066 -0.0001  0.0350
 3242W        W 7306   9.716   4.093   1.290  0.1473  0.0579 -0.0699
 3243W        W 7307   1.330   2.530   1.440  0.1147  0.1535  0.1763
 3244W        W 7308   9.382   8.785   1.305 -0.1907 -0.0401 -0.4177
 3245W        W 7309   7.423   9.107   9.583  0.0143  0.3630  0.0684
 3246W        W 7310   2.993   1.691   0.197 -0.2015  0.1184  0.2672
 3247W        W 7311   2.447   9.155  10.239  0.2209  0.4627 -0.1456
 3248W        W 7312   2.155   8.733   2.680 -0.0392 -0.0631 -0.1456
 3249W        W 7313   6.111   9.043   3.744  0.1726 -0.1182 -0.2398
 3250W        W 7314   3.001   3.599   9.907 -0.0069  0.1694 -0.2438
 3251W        W 7315  10.150   0.145  10.457 -0.2040  0.1662 -0.1512
 3252W        W 7316   4.885   0.325   9.615 -0.2621  0.1344 -0.1537
 3253W        W 7317   2.913   8.358   1.087 -0.4770 -0.1802 -0.1992
 3254W        W 7318  10.754   7.420  10.600  0.0227 -0.1519  0.2170
 3255W        W 7319   7.078   0.447   0.800 -0.0278  0.0335 -0.0550
 3256W        W 7320   6.941   9.114   7.535  0.1823  0.1098 -0.0446
 3257W        W 7321   9.200   1.054   1.151 -0.2901 -0.3061 -0.0129
 3258W        W 7322  10.099   9.830   8.477  0.5704  0.1493  0.0545
 3259W        W 7323  10.600   4.785  10.340 -0.0832 -0.1408 -0.1062
 3260W        W 7324   1.514   5.293   3.221  0.1161  0.2555  0.0230
 3261W        W 7325   7.246   6.644   2.974 -0.0256  0.0519 -0.3381
 3262W        W 7326   7.082   2.980   8.854 -0.0885  0.4652  0.2621
 3263W        W 7327   3.239   0.844   8.125  0.0037  0.0234  0.2182
 3264W        W 7328   0.038  10.349  10.155  0.0131  0.2961 -0.2339
 3265W        W 7329   3.880   8.704   7.969  0.2717  0.3102 -0.0115
 3266W        W 7330  10.714   0.041  10.280 -0.0400 -0.1115 -0.0762
 3267W        W 7331   6.310   5.835   1.874  0.0792 -0.0627 -0.3131
 3268W        W 7332   7.830   1.155   1.446 -0.1861 -0.3289 -0.0680
 3269W        W 7333   4.209  10.344   8.438  0.2206 -0.0476  0.1135
 3270W        W 7334   6.970   4.919   1.498 -0.1220  0.2942  0.1833
 3271W        W 7335   4.186   5.020   0.842  0.1982 -0.0362 -0.2682
 3272W        W 7336   3.360   1.858   1.047 -0.0409 -0.0960  0.2591
 3273W        W 7337   3.558   8.160   7.046  0.2752 -0.2543  0.3529
 3274W        W 7338   9.729  10.033   2.736 -0.0970  0.0236 -0.4046
 3275W        W 7339   2.448   4.859   1.344  0.0043 -0.1806  0.0032
 3276W        W 7340   2.117   7.031   7.857  0.2313 -0.1096  0.0127
 3277W        W 7341   4.103   9.604   8.769  0.2791  0.2092  0.0038
 3278W        W 7342   5.076   9.670   8.940  0.0034 -0.0778 -0.0724
 3279W        W 7343   4.519   4.807   7.780  0.1352  0.2091  0.4961
 3280W        W 7344   5.877   9.080   1.504 -0.1190  0.1307  0.3949
 3281W        W 7345   4.453   7.387   3.823  0.1285 -0.1794  0.1267
 3282W        W 7346  10.431   6.571  10.696 -0.0713  0.4959 -0.1505
 3283W        W 7347   9.811   1.446  11.082 -0.1676  0.3296  0.0341
 3284W        W 7348   9.863   8.328  11.301  0.2830  0.2050 -0.1908
 3285W        W 7349   5.546   7.358   3.303  0.0083 -0.2632  0.0288
 3286W        W 7350   1.458   7.429   1.215 -0.1327  0.0404 -0.0786
 3287W        W 7351   1.682   0.842   8.608 -0.0334  0.1041 -0.0760
 3288W        W 7352   8.776   3.744   8.939  0.0626 -0.0364 -0.1666
 3289W        W 7353   0.664   9.073   1.224  0.0821 -0.2179 -0.1965
 3290W        W 7354   9.048   6.998   2.050 -0.0926 -0.0889  0.0848
 3291W        W 7355   1.032   0.631   1.153 -0.2812  0.0034 -0.4437
 3292W        W 7356   9.829   1.041   3.032 -0.1178  0.1527 -0.2238
 3293W        W 7357   2.017   4.981  10.090 -0.0834  0.0294 -0.1521
 3294W        W 7358   8.441   7.238   8.028  0.1662  0.1200 -0.4893
 3295W        W 7359   3.186   2.334   8.014  0.0297 -0.1256 -0.3068
 3296W        W 7360  10.603   9.090   0.740  0.3981 -0.1842  0.0188
 3297W        W 7361   9.547   2.171   0.875  0.2210  0.0059  0.4214
 3298W        W 7362  10.496   6.490   2.954 -0.2312 -0.1962 -0.0234
 3299W        W 7363   8.831  10.104   7.918 -0.0702  0.0282 -0.2304
 3300W        W 7364   4.230   8.699   7.634  0.3448  0.2676 -0.1245
 3301W        W 7365   7.737   9.413   8.639  0.3033  0.1664  0.0202
 3302W        W 7366   0.561   3.826   9.104 -0.4133 -0.3117 -0.1132
 3303W        W 7367   7.296  10.591   7.691  0.1404 -0.2094 -0.1420
 3304W        W 7368   0.050   9.053   9.297 -0.0580  0.2314 -0.2841
 3305W        W 7369   8.077   2.661   8.616  0.0248  0.0331  0.0510
 3306W        W 7370   9.062   2.742   8.286 -0.1999 -0.0059  0.2325
 3307W        W 7371   4.133   7.023   1.514  0.1662  0.1196  0.2188
 3308W        W 7372   7.839   3.067   0.283 -0.4157  0.0331  0.3162
 3309W        W 7373   9.580   7.095  10.775  0.1636 -0.0956 -0.0403
 3310W        W 7374   9.594   1.754   8.296 -0.2370 -0.0048  0.2614
 3311W        W 7375  10.382   4.596   9.896  0.3445  0.0022  0.0880
 3312W        W 7376   9.098   6.428   9.441  0.0784 -0.1430  0.0542
 3313W        W 7377   3.510   3.970   7.893  0.0358 -0.1710  0.1149
 3314W        W 7378  10.375   2.144   1.809  0.3351 -0.2297  0.1225
 3315W        W 7379   8.183   3.640   9.088  0.0455 -0.2340  0.0195
 3316W        W 7380   6.991   7.369   2.344 -0.0669  0.0446  0.1272
 3317W        W 7381   9.591   0.694  10.285 -0.0214 -0.0662  0.1197
 3318W        W 7382   0.781   1.152   1.022 -0.0374 -0.1991 -0.1458
 3319W        W 7383   0.145   3.258   1.242 -0.0219  0.1049 -0.1649
 3320W        W 7384   0.228   1.560  10.506  0.2443  0.0581 -0.0409
 3321W        W 7385   7.598   5.928   8.906 -0.1636  0.1145  0.3210
 3322W        W 7386   3.746   7.135  11.193  0.0741 -0.1504  0.0490
 3323W        W 7387   6.038   1.687   0.275 -0.1244 -0.1732 -0.2244
 3324W        W 7388   6.098   2.671  11.267 -0.0615  0.0442  0.0370
 3325W        W 7389   2.967   5.804  10.565 -0.0995 -0.1533  0.1203
 3326W        W 7390  10.179   5.056  10.152 -0.2068  0.0635  0.0216
 3327W        W 7391   6.524   7.411   1.071  0.1338  0.1818 -0.0001
 3328W        W 7392   3.620   5.327  10.101 -0.1498  0.3230 -0.0567
 3329W        W 7393   2.598   6.639   2.355  0.1078 -0.0857  0.0241
 3330W        W 7394  10.051   5.001  10.628  0.3892  0.0430  0.0006
 3331W        W 7395   6.449   8.592   2.457  0.1219  0.0934 -0.0548
 3332W        W 7396   1.288   9.920   9.954  0.1066  0.5214 -0.0217
 3333W        W 7397   2.380   4.153   8.185 -0.0376 -0.1010  0.1323
 3334W        W 7398   8.536   2.463   5.905  0.0551 -0.0104  0.2865
 3335W        W 7399   0.913   4.682   7.593 -0.1466  0.0768  0.0047
 3336W        W 7400   2.166   1.194   0.658 -0.1953  0.2055  0.2281
 3337W        W 7401   7.519   4.113   9.381  0.0993 -0.0478 -0.2572
 3338W        W 7402   1.299  10.317   9.553  0.3087  0.2834 -0.1048
 3339W        W 7403   9.628  10.085   3.636 -0.3397 -0.0580 -0.1779
 3340W        W 7404   7.627   5.924  10.321  0.2616 -0.1280 -0.0037
 3341W        W 7405   4.295   9.309  10.381  0.2155  0.0618  0.2196
 3342W        W 7406   0.615   9.510   2.981  0.2439  0.2849 -0.0062
 3343W        W 7407  10.064   6.750   3.014  0.2204  0.0690  0.1616
 3344W        W 7408   3.536   9.562   0.816  0.2107 -0.3286  0.3919
 3345W        W 7409   5.147   1.541  11.262 -0.1707 -0.1741 -0.0027
 3346W        W 7410   9.746   2.195   2.501 -0.0531  0.0699  0.1307
 3347W        W 7411   1.396   9.756   0.812  0.1347  0.0338 -0.0275
 3348W        W 7412   5.179   0.561   7.538 -0.1713  0.1799  0.2971
 3349W        W 7413   0.298   2.227  10.063  0.3680  0.1573  0.0540
 3350W        W 7414   2.915   9.899   0.359  0.2093 -0.1469 -0.0588
 3351W        W 7415  10.166   8.259   9.736 -0.3171  0.0261  0.0728
 3352W        W 7416   5.351   0.700   0.682 -0.1388 -0.1820  0.1142
 3353W        W 7417   1.489   0.707   2.836  0.0491 -0.2748 -0.0722
 3354W        W 7418   1.213   7.121   9.057  0.3768  0.0650 -0.1526
 3355W        W 7419   0.741   7.904   1.758  0.0280  0.2069  0.0203
 3356W        W 7420   1.832   7.772   7.247  0.0575  0.0382 -0.1513
 3357W        W 7421   4.714   7.599   2.909 -0.1781 -0.2391 -0.3166
 3358W        W 7422   7.107   7.566   0.042 -0.0014 -0.1988  0.1766
 3359W        W 7423   2.657   5.205  11.267  0.0801  0.2300  0.1066
 3360W        W 7424   4.893   6.481   8.765 -0.1605  0.0639  0.0882
 3361W        W 7425  10.742   2.028  10.908 -0.2015 -0.1471  0.0246
 3362W        W 7426  10.473  10.558   3.064  0.0124 -0.2498  0.0177
 3363W        W 7427   2.963   0.572   0.495  0.0546  0.1881 -0.2747
 3364W        W 7428   8.812   2.192  10.230  0.0372 -0.0890  0.0739
 3365W        W 7429   6.231  10.159   2.038 -0.3223 -0.2078  0.2332
 3366W        W 7430   5.097   6.565   7.694  0.0902 -0.0782 -0.0581
 3367W        W 7431   8.393   6.664  10.286 -0.0649 -0.2289  0.1060
 3368W        W 7432   9.748   9.559  10.526 -0.4461  0.0491 -0.0304
 3369W        W 7433   9.538   8.940   3.611  0.0021  0.2308  0.1852
 3370W        W 7434   0.599   5.507   0.954 -0.2422  0.1620 -0.2147
 3371W        W 7435   8.413   9.080  10.529  0.0513  0.0488 -0.1006
 3372W        W 7436   4.269   2.694   1.303 -0.3223 -0.0253  0.2325
 3373W        W 7437   1.118   6.029   2.763 -0.2242  0.0771  0.1504
 3374W        W 7438   9.192   1.453   9.294 -0.3433  0.0717  0.3397
 3375W        W 7439   0.975  10.403  10.912  0.0507  0.1809  0.0641
 3376W        W 7440   7.166   5.307   9.768 -0.1970 -0.1373 -0.0407
 3377W        W 7441   7.712   6.905   8.394 -0.1125 -0.1733  0.1982
 3378W        W 7442   0.935   5.638   9.282 -0.0202 -0.0789  0.1661
 3379W        W 7443   0.049   3.486   8.332 -0.3290 -0.1270  0.1864
 3380W        W 7444   2.415   4.371   9.041  0.0191 -0.1201 -0.2069
 3381W        W 7445   1.433   0.995   7.763 -0.2892  0.1359  0.2289
 3382W        W 7446   8.858   4.926   4.302 -0.0978  0.3270 -0.1420
 3383W        W 7447   1.118   8.714   2.490 -0.1945 -0.0047 -0.0756
 3384W        W 7448   4.537   9.079   2.171 -0.1425 -0.1291 -0.0673
 3385W        W 7449  10.693   8.230   1.481  0.2135  0.1425  0.1927
 3386W        W 7450   7.914   6.831  10.024 -0.3983  0.0805  0.2714
 3387W        W 7451   5.327   6.366   2.615 -0.1251 -0.0708 -0.1293
 3388W        W 7452   5.672   6.759  10.191 -0.3435 -0.0821  0.1428
 3389W        W 7453   0.934   8.694   0.438  0.0221 -0.0530  0.0387
 3390W        W 7454   7.362   3.174   9.409  0.0088 -0.0619  0.2486
 3391W        W 7455   7.020   9.012   1.030 -0.1351 -0.2396 -0.0408
 3392W        W 7456  10.299   5.542   8.427 -0.1975 -0.2644  0.2156
 3393W        W 7457   3.312   3.976  10.179 -0.1855  0.1012 -0.2444
 3394W        W 7458   5.390   0.192   3.487 -0.0965  0.2418  0.2482
 3395W        W 7459   1.653   2.755   1.798 -0.1425  0.0651 -0.1394
 3396W        W 7460   7.801  10.757   2.344 -0.1801  0.2118  0.1655
 3397W        W 7461   2.775   9.015   8.707 -0.1221 -0.0210 -0.1128
 3398W        W 7462   0.500   2.292   1.082 -0.1860 -0.2610 -0.3865
 3399W        W 7463   9.394  10.681   9.055 -0.1544 -0.0236  0.0543
 3400W        W 7464   7.505   7.404   7.267  0.2393 -0.0065 -0.2768
 3401W        W 7465   2.600   7.013   7.567 -0.0632 -0.6603 -0.0565
 3402W        W 7466   7.411   9.680   1.785 -0.2792 -0.0977  0.0128
 3403W        W 7467   1.717   9.848   0.274 -0.4343 -0.0695  0.0986
 3404W        W 7468   9.561   1.217   8.218 -0.0483  0.0073 -0.0511
 3405W        W 7469   5.294   8.328   8.244 -0.1839  0.3361  0.1059
 3406W        W 7470   0.411   6.530   8.334 -0.0266  0.2571  0.3194
 3407W        W 7471   5.494   5.614   7.407  0.0272  0.1798  0.4465
 3408W        W 7472   2.652   6.697   3.362 -0.4362 -0.0980  0.1067
 3409W        W 7473   0.021   5.748   8.165 -0.0094  0.2888  0.0377
 3410W        W 7474   4.481   6.827   7.400 -0.1042 -0.1313 -0.1642
 3411W        W 7475   2.929   5.587   9.612 -0.2001 -0.2369  0.2310
 3412W        W 7476   7.979   7.164   9.661 -0.1668 -0.0889  0.0051
 3413W        W 7477   0.990   9.165   7.993  0.0095  0.1073 -0.0546
 3414W        W 7478   9.500   3.928   9.478 -0.0641 -0.1504 -0.1462
 3415W        W 7479   4.899   4.311   8.539  0.1357 -0.2293  0.2491
 3416W        W 7480   9.819  10.206   4.235 -0.1987  0.0595 -0.3066
 3417W        W 7481   7.356   1.725   0.780  0.2285  0.1290 -0.1605
 3418W        W 7482   7.663   0.878   0.949 -0.0803 -0.0461 -0.1016
 3419W        W 7483   8.005   0.679   1.388 -0.1691 -0.1700 -0.1826
 3420W        W 7484   2.812   8.822   2.988  0.1617  0.0189  0.0964
 3421W        W 7485   0.366   2.616   2.013 -0.3466 -0.1407 -0.0523
 3422W        W 7486   9.077   2.050   1.893  0.0480 -0.0457 -0.1030
 3423W        W 7487   5.438   0.513  11.244 -0.0328 -0.0476 -0.2047
 3424W        W 7488   6.116   9.300   1.017 -0.3196  0.0418 -0.1993
 3425W        W 7489   3.150   7.087   7.700 -0.2359 -0.0891  0.2669
 3426W        W 7490   0.710  10.376  10.341  0.4236 -0.2297  0.0247
 3427W        W 7491   6.598   1.948   1.385 -0.1314  0.2845 -0.1371
 3428W        W 7492   8.268   9.375   2.747  0.3938 -0.1389 -0.1098
 3429W        W 7493   2.144   8.283  11.081 -0.3060  0.3977  0.1059
 3430W        W 7494   3.171   9.541   1.468 -0.0836  0.1357  0.3909
 3431W        W 7495   5.453   9.099   2.222  0.4752 -0.0459 -0.0047
 3432W        W 7496   7.478   5.772   7.956  0.2128  0.3239  0.2669
 3433W        W 7497   4.584   2.780   9.403  0.2444  0.1983  0.0868
 3434W        W 7498   3.197   8.581   0.653  0.0782 -0.1118 -0.3747
 3435W        W 7499   3.724   8.831   3.360 -0.2262 -0.0066  0.0342
 3436W        W 7500   0.778   7.860   2.893  0.1464  0.0850 -0.3525
 3437W        W 7501   3.377   0.399   9.685 -0.0162 -0.1307 -0.1976
 3438W        W 7502   3.086   2.957   1.209 -0.2076  0.1348 -0.3319
 3439W        W 7503   1.578   5.844   1.565  0.1489 -0.1076  0.0243
 3440W        W 7504   7.210   0.032  11.227 -0.1474 -0.0913 -0.0937
 3441W        W 7505   2.705   2.604  10.749  0.1404 -0.2726  0.2110
 3442W        W 7506   9.191   9.053   8.832 -0.0070  0.1800  0.0102
 3443W        W 7507   6.366   3.739   9.022 -0.3813  0.1049 -0.0953
 3444W        W 7508   8.975   6.656   1.608 -0.1028 -0.0266  0.1012
 3445W        W 7509   0.504   1.679   0.987 -0.0984  0.0171  0.1391
 3446W        W 7510   7.295   7.843   0.910  0.0072 -0.0012 -0.0132
 3447W        W 7511   1.192   5.689   2.021  0.0958 -0.0791  0.3318
 3448W        W 7512  10.544   6.399   9.793 -0.1678  0.1233 -0.3425
 3449W        W 7513   9.746   3.017   9.004  0.1471 -0.0798 -0.2458
 3450W        W 7514   0.258   9.001   1.029 -0.0268  0.2894 -0.3006
 3451W        W 7515   9.614   8.229   3.368 -0.1612 -0.0016 -0.2597
 3452W        W 7516   5.401   1.435   8.342  0.1410 -0.1262 -0.0467
 3453W        W 7517   0.174   0.309   9.927  0.1118  0.2705 -0.0930
 3454W        W 7518   3.747  10.369  10.645  0.2274 -0.4878  0.2205
 3455W        W 7519  10.125   1.956   0.326 -0.0144 -0.0781  0.1267
 3456W        W 7520   3.415   5.655  10.812 -0.1633  0.1921  0.0872
 3457W        W 7521   1.532   2.746  10.056  0.0925  0.0265  0.1018
 3458W        W 7522   0.965   6.155   3.453 -0.0115 -0.3447 -0.1902
 3459W        W 7523   9.016  10.406   8.860  0.1502  0.2859 -0.0045
 3460W        W 7524   9.744   4.408  10.068 -0.0917 -0.3280 -0.2024
 3461W        W 7525   2.800   2.700  10.264 -0.1407  0.1483  0.2396
 3462W        W 7526   2.483   5.127   8.132  0.0193 -0.0946 -0.2207
 3463W        W 7527   0.837   9.486   9.610  0.0729 -0.3354  0.2745
 3464W        W 7528   5.934   8.638   3.477 -0.0608  0.0744  0.1534
 3465W        W 7529   1.277  10.447   0.097  0.0983  0.0740  0.0660
 3466W        W 7530   6.377   6.539   8.213 -0.2044 -0.0135 -0.2770
 3467W        W 7531   2.127   1.693   7.668  0.3739 -0.0269  0.1705
 3468W        W 7532  10.418   1.848   8.345  0.0609  0.1428  0.3152
 3469W        W 7533   3.487   9.302   4.089 -0.1711 -0.1694 -0.3401
 3470W        W 7534   3.243   5.131   1.155  0.1573 -0.1865 -0.1905
 3471W        W 7535   1.559   9.430   4.187  0.3312 -0.4222 -0.0179
 3472W        W 7536   3.930   3.038   9.072  0.1784 -0.1185 -0.2625
 3473W        W 7537   9.020   1.012   3.366  0.0396  0.0839  0.1280
 3474W        W 7538   0.639   7.479   1.408 -0.0355  0.4965 -0.1928
 3475W        W 7539   5.017   0.855   1.308  0.1417 -0.0662 -0.0102
 3476W        W 7540   2.341  10.024   1.194  0.2121 -0.2348  0.0948
 3477W        W 7541   8.903  10.613   9.354  0.4400 -0.0619 -0.1513
 3478W        W 7542   3.379   0.019   9.314  0.1323 -0.3940 -0.1519
 3479W        W 7543   1.609   9.339   8.680  0.1225 -0.0362 -0.1600
 3480W        W 7544   0.967  10.687   8.540  0.0582  0.1233  0.2389
 3481W        W 7545   2.228   6.183   6.849 -0.0580 -0.0263 -0.2155
 3482W        W 7546   0.833   8.915   1.648 -0.0747  0.0780  0.3279
 3483W        W 7547  10.245   2.539   0.997  0.1518 -0.2717 -0.0305
 3484W        W 7548   0.393   6.086   3.500  0.2636 -0.3235  0.2040
 3485W        W 7549   5.924   0.213   8.554  0.0404 -0.2177  0.0719
 3486W        W 7550  10.230   4.099   0.511 -0.3031 -0.1063  0.0223
 3487W        W 7551   9.176   5.944   2.360  0.1476  0.0669 -0.1138
 3488W        W 7552   5.244   9.225   1.472  0.0506  0.0257 -0.2526
 3489W        W 7553   9.389   5.483   2.462  0.1686 -0.1759  0.2039
 3490W        W 7554   5.540   7.275   0.095 -0.1743 -0.1897  0.0898
 3491W        W 7555   4.363   0.607   9.137 -0.0687 -0.0590  0.0387
 3492W        W 7556   4.315   2.906   3.247  0.2219 -0.1594  0.3244
 3493W        W 7557   8.206   2.235   3.277 -0.2335  0.0407  0.0173
 3494W        W 7558   2.906   8.242   9.412  0.0535  0.3526  0.2670
 3495W        W 7559   9.735   4.288   8.310  0.1949 -0.0799 -0.4580
 3496W        W 7560  10.602   3.413   2.455  0.0173 -0.0157  0.3698
 3497W        W 7561   6.242   7.029   9.503 -0.1027 -0.0093  0.0821
 3498W        W 7562   8.843   8.554   2.432 -0.1714  0.3260 -0.1922
 3499W        W 7563   6.134   9.099   3.117  0.1968  0.2229 -0.3013
 3500W        W 7564   4.471   5.166   2.911 -0.2361 -0.0996 -0.0348
 3501W        W 7565   1.075   9.208   3.175 -0.3859  0.5598  0.2146
 3502W        W 7566   7.678   1.463   8.927 -0.1098  0.0072 -0.0945
 3503W        W 7567   2.453   6.339  11.221 -0.2602  0.2418  0.2823
 3504W        W 7568   4.657   6.110   0.810 -0.2826 -0.0107  0.0816
 3505W        W 7569   4.247   9.446   2.375  0.1781 -0.0807  0.0229
 3506W        W 7570   6.771  10.146   9.400  0.2122 -0.2285 -0.0420
 3507W        W 7571   4.552   1.124   8.907  0.0010  0.1672  0.1068
 3508W        W 7572   7.586   7.689   7.926  0.5634  0.5463 -0.1624
 3509W        W 7573   3.574   9.161   9.311 -0.0731 -0.1429 -0.0569
 3510W        W 7574   1.011   1.095   0.555 -0.4640 -0.1168  0.0342
 3511W        W 7575   9.082   9.538  11.005  0.0294  0.3338  0.3840
 3512W        W 7576   3.652   5.458   8.809 -0.1442 -0.1843 -0.3284
 3513W        W 7577  10.223   7.045   2.204  0.3234 -0.1279  0.3630
 3514W        W 7578   4.512   6.482   2.921 -0.0102  0.0149 -0.1570
 3515W        W 7579   6.905   0.446   2.495 -0.0195 -0.0443  0.2538
 3516W        W 7580   4.044   7.403   4.164 -0.0750 -0.1600 -0.3676
 3517W        W 7581  10.345   4.472   9.367 -0.0146 -0.0582  0.1367
 3518W        W 7582   1.995   7.642  10.440  0.3221  0.0015  0.0361
 3519W        W 7583   5.244   7.891   1.810 -0.3204 -0.2587 -0.2479
 3520W        W 7584   6.926  10.295   8.080 -0.0808  0.2139  0.0477
 3521W        W 7585   5.942   4.906   9.436  0.0983 -0.3155 -0.1091
 3522W        W 7586   9.552   2.457  11.089 -0.1793 -0.0107  0.1226
 3523W        W 7587   2.382  10.535   1.483  0.0203 -0.0016  0.1501
 3524W        W 7588   3.358   0.832  11.064  0.0220  0.3128 -0.1222
 3525W        W 7589   3.501   3.225   1.344 -0.3061 -0.0267  0.2842
 3526W        W 7590   5.691   2.877   2.508  0.3129  0.0404  0.1121
 3527W        W 7591  10.735   8.576  10.411  0.1298  0.1181  0.1475
 3528W        W 7592   4.421   6.102  10.823 -0.0257  0.0797 -0.0515
 3529W        W 7593   4.330   3.400   9.771  0.1596  0.1933  0.0140
 3530W        W 7594   1.150   2.948   7.764  0.0907 -0.0024 -0.2930
 3531W        W 7595  10.470   0.871   9.164  0.1398  0.4271  0.0046
 3532W        W 7596   6.493   8.024   2.324 -0.1753 -0.2190 -0.3772
 3533W        W 7597   4.033   7.338  10.090  0.0313 -0.0525 -0.1490
 3534W        W 7598   5.974   5.532   1.674  0.0886  0.0865  0.2635
 3535W        W 7599   2.863   4.169   8.094  0.1378 -0.3969 -0.0561
 3536W        W 7600   4.657   8.244   9.475 -0.0475 -0.1894  0.1462
 3537W        W 7601   2.866   2.903   9.833  0.0605  0.0467  0.1088
 3538W        W 7602   9.303   0.264  10.496 -0.1175  0.0036 -0.2182
 3539W        W 7603   1.127   6.644   9.781 -0.1851  0.2895  0.0460
 3540W        W 7604   3.466   8.423   8.017 -0.1418  0.0861  0.2011
 3541W        W 7605   2.088   9.458   3.369 -0.0883  0.1969  0.0871
 3542W        W 7606   3.708   1.987  10.474 -0.2046 -0.0655 -0.0122
 3543W        W 7607   6.632   1.368   2.257  0.1487  0.1845 -0.2074
 3544W        W 7608   5.346   3.286   0.548 -0.3292 -0.1250 -0.0368
 3545W        W 7609   9.746   1.586   9.566  0.1304 -0.0133 -0.2429
 3546W        W 7610  10.157   7.184  10.177  0.2099  0.0454 -0.2716
 3547W        W 7611  10.357   1.497   2.342  0.2407  0.1417 -0.1218
 3548W        W 7612   1.071   0.844   0.113 -0.1865 -0.1217 -0.0169
 3549W        W 7613   1.167   1.283   2.883  0.1017 -0.0898  0.0166
 3550W        W 7614   3.253   4.786   1.620  0.2245  0.0792 -0.1114
 3551W        W 7615   9.541   1.143   3.397 -0.0617  0.2558 -0.1873
 3552W        W 7616   2.554   7.688   0.500 -0.3667  0.0868 -0.0180
 3553W        W 7617   1.640   5.190  10.831  0.0224 -0.0136  0.2440
 3554W        W 7618   5.626   9.625   3.027 -0.1149  0.2727  0.0166
 3555W        W 7619   6.151   4.275   1.421  0.0827  0.0333  0.2670
 3556W        W 7620   5.452   6.826   2.624 -0.2342  0.3046  0.2681
 3557W        W 7621   4.115   3.666   7.323  0.2591 -0.0500 -0.3692
 3558W        W 7622   7.262   0.512  10.704  0.4530 -0.0987 -0.0746
 3559W        W 7623   3.838   9.930   1.027  0.0909  0.2472 -0.1876
 3560W        W 7624   8.248   5.640   3.895 -0.0936 -0.0284 -0.3278
 3561W        W 7625   9.558   3.226   1.395 -0.1486 -0.0215 -0.1332
 3562W        W 7626   8.415   1.709  10.886  0.5293 -0.0638  0.1136
 3563W        W 7627   4.972   9.742   1.644  0.0752  0.1807 -0.0639
 3564W        W 7628   6.535   9.951   8.767 -0.2088 -0.1159 -0.0810
 3565W        W 7629  10.723   4.209   1.316  0.0379 -0.0259  0.0445
 3566W        W 7630   3.560   7.199  10.748  0.0216  0.0138  0.0337
 3567W        W 7631   5.142   6.130  10.940 -0.2366  0.1306 -0.3740
 3568W        W 7632   3.404   8.736   8.904 -0.2194  0.1910  0.1434
 3569W        W 7633   4.676   9.879   2.964 -0.0526  0.0012  0.1253
 3570W        W 7634  10.154   2.743   3.285  0.1954  0.0661 -0.3483
 3571W        W 7635   6.018   9.976   8.082 -0.1774 -0.0450 -0.0094
 3572W        W 7636   3.702   8.256   9.415 -0.1494  0.2738  0.0782
 3573W        W 7637   9.172  10.706   0.717 -0.0161  0.1228  0.3250
 3574W        W 7638   7.147   9.375   9.946 -0.0835 -0.0137 -0.0432
 3575W        W 7639   6.139   5.232   0.791  0.1182 -0.1950 -0.1989
 3576W        W 7640   9.533   1.963  10.328  0.1238 -0.0164 -0.1923
 3577W        W 7641   9.567   6.138   3.073 -0.0208  0.0898  0.1744
 3578W        W 7642   3.677  10.410   3.093 -0.0429 -0.1436 -0.1310
 3579W        W 7643   9.069   0.140  11.232  0.0779  0.0070  0.0377
 3580W        W 7644  10.585   1.762   8.860 -0.0270 -0.3769 -0.1773
 3581W        W 7645   6.379   6.347   9.335  0.1638 -0.1480 -0.2112
 3582W        W 7646   7.492   7.022   9.758  0.4916  0.3172 -0.0684
 3583W        W 7647   9.619   3.025   9.639 -0.1660 -0.1875 -0.1058
 3584W        W 7648   8.367   9.943   7.869  0.3266  0.1313 -0.0750
 3585W        W 7649   2.275   4.931   2.577 -0.2882 -0.0736 -0.3351
 3586W        W 7650   1.624   0.354   8.470 -0.2207  0.2207 -0.1628
 3587W        W 7651   8.041   1.674   8.558  0.2968 -0.1839  0.0392
 3588W        W 7652   4.979   5.266   0.628 -0.0464  0.1234  0.0608
 3589W        W 7653   8.521   5.949   3.129 -0.1951  0.0469 -0.0264
 3590W        W 7654   4.920   2.923   3.083  0.0523  0.1558 -0.1138
 3591W        W 7655   3.630   0.308  11.001 -0.1330 -0.0106 -0.2358
 3592W        W 7656  10.593   3.434   2.968  0.0283 -0.2883  0.0951
 3593W        W 7657   2.906   9.866   2.143  0.0343 -0.0699  0.1695
 3594W        W 7658   8.555   9.062  10.006  0.0118 -0.0658  0.1749
 3595W        W 7659   6.933   9.348   9.416 -0.3643  0.0129 -0.1047
 3596W        W 7660   7.932   5.937   2.521 -0.3080 -0.1838 -0.1157
 3597W        W 7661   9.547   2.439  10.178 -0.1628 -0.1568  0.0936
 3598W        W 7662   5.058   4.331   2.893 -0.1079 -0.2148 -0.2840
 3599W        W 7663   7.550   8.586   0.487 -0.0686 -0.4936  0.1460
 3600W        W 7664   8.860   7.277   1.655 -0.0639  0.1277 -0.2760
 3601W        W 7665   8.959   8.720  11.317  0.0055 -0.1460 -0.2199
 3602W        W 7666   6.037   1.672   2.585  0.2163  0.2505  0.3149
 3603W        W 7667  10.603   3.350  10.054 -0.2189 -0.1195 -0.1454
 3604W        W 7668   9.296   4.414   2.731  0.1599 -0.2231  0.1553
 3605W        W 7669   7.883   0.393   5.469 -0.3728 -0.1447 -0.1032
 3606W        W 7670  10.526   6.817   7.116 -0.0381 -0.0831 -0.0809
 3607W        W 7671   5.656   4.888   0.940 -0.1832  0.1247 -0.1052
 3608W        W 7672   0.089   4.281  10.292 -0.5201  0.1027  0.2510
 3609W        W 7673   9.628   4.973   7.991  0.0819 -0.0274 -0.1058
 3610W        W 7674   2.992   9.747   7.917 -0.0956 -0.1397 -0.2660
 3611W        W 7675   7.972   5.570   8.744 -0.1465  0.3030  0.1242
 3612W        W 7676  10.266   3.018   2.920  0.0568  0.1721 -0.0425
 3613W        W 7677   7.560   0.033   9.568 -0.1241 -0.1552  0.2573
 3614W        W 7678   8.779   4.499   0.867  0.1371  0.1357  0.2236
 3615W        W 7679   5.783  10.371   0.082 -0.1559  0.2519  0.0366
 3616W        W 7680   0.167   9.194  10.622  0.1852  0.0002 -0.0952
 3617W        W 7681   1.779  10.400   8.619 -0.2886  0.2676  0.0785
 3618W        W 7682   9.104  10.502   9.819 -0.0754  0.3568 -0.3444
 3619W        W 7683   4.526  10.633   1.485 -0.1322  0.0232 -0.0828
 3620W        W 7684   9.165   7.692   1.616 -0.1228  0.1160  0.1219
 3621W        W 7685   6.917   0.481  11.122  0.0094 -0.2012 -0.1492
 3622W        W 7686   8.183   4.307   2.844  0.2434 -0.0187 -0.3006
 3623W        W 7687  10.431   8.911   8.261 -0.0588  0.0351 -0.0464
 3624W        W 7688   7.010   8.507   0.270 -0.0900 -0.0626  0.0827
 3625W        W 7689   7.092   8.612   1.843 -0.0020  0.3062  0.2260
 3626W        W 7690   6.113   4.995   8.340 -0.3545 -0.0763 -0.1418
 3627W        W 7691   7.320   5.480  10.296  0.2517  0.0916  0.0353
 3628W        W 7692   5.190   4.932   1.071  0.1669  0.0700 -0.1544
 3629W        W 7693   8.505   8.436   0.734  0.0941  0.0204 -0.0138
 3630W        W 7694   0.565   9.962   9.372  0.1385  0.1924  0.2064
 3631W        W 7695   3.789   5.535   9.659  0.0193 -0.0358 -0.0070
 3632W        W 7696   0.346   4.643   0.133  0.3745  0.1334 -0.0234
 3633W        W 7697   3.842   4.261   1.601 -0.3709  0.1971  0.0190
 3634W        W 7698   6.628   1.563   3.179 -0.0617  0.1231  0.1969
 3635W        W 7699   3.998   4.115   7.463  0.4230 -0.2524 -0.1544
 3636W        W 7700   4.658   2.998   9.849  0.1190  0.3256 -0.0751
 3637W        W 7701   3.709   7.671   1.901 -0.1207  0.3849  0.0185
 3638W        W 7702   8.124   6.478   1.939 -0.2258 -0.0450 -0.1454
 3639W        W 7703   3.703   9.254   8.615  0.2845  0.1607  0.0639
 3640W        W 7704   8.039   6.313   7.118 -0.1472 -0.0464 -0.0015
 3641W        W 7705   0.021   5.324   9.060 -0.0619  0.0174 -0.3128
 3642W        W 7706   6.904   7.489  10.412  0.3378 -0.3892  0.1011
 3643W        W 7707   5.110   1.098  10.708 -0.0172  0.1850 -0.0931
 3644W        W 7708   8.140   6.014   2.092  0.1507 -0.0954 -0.0857
 3645W        W 7709   9.070   9.982  10.286  0.2380 -0.1027 -0.0350
 3646W        W 7710   1.337   2.714   0.556 -0.2224 -0.2114  0.2120
 3647W        W 7711   1.455   0.520  10.149  0.1684 -0.0898 -0.2746
 3648W        W 7712   4.914   7.363   8.147 -0.0126  0.1821  0.0494
 3649W        W 7713   3.796   8.707   9.322  0.0150 -0.3253  0.1060
 3650W        W 7714   6.897   2.212   1.063  0.1418  0.1681  0.3291
 3651W        W 7715   9.796   1.177  10.364  0.0670  0.1543 -0.2269
 3652W        W 7716   7.793  10.315   9.705  0.4945 -0.1474 -0.3220
 3653W        W 7717   2.631   2.713   3.099 -0.2683 -0.0394  0.0485
 3654W        W 7718   6.557   5.258   2.672  0.0086  0.0040  0.0113
 3655W        W 7719   1.299   2.793   8.769  0.0962  0.2262  0.0520
 3656W        W 7720   3.974   3.572   3.058 -0.0367 -0.0572 -0.0768
 3657W        W 7721   8.914   7.205   8.129 -0.0289  0.2650  0.0199
 3658W        W 7722   1.701   4.861   2.512  0.0179 -0.3066 -0.2050
 3659W        W 7723   7.060   8.610   0.778  0.0001 -0.0457  0.0372
 3660W        W 7724   9.175   6.507   3.226  0.5136  0.3065  0.0543
 3661W        W 7725   6.944   4.138   3.019  0.0721  0.0836 -0.1431
 3662W        W 7726   7.138  10.740   8.177  0.2550  0.1135  0.1924
 3663W        W 7727   5.549   2.871   0.845  0.0430  0.2631 -0.2589
 3664W        W 7728   6.984   6.245   2.907  0.0862  0.1131 -0.1262
 3665W        W 7729   2.271   6.637   8.335 -0.1170 -0.0705 -0.1927
 3666W        W 7730  10.661   9.061   8.804  0.2779 -0.0284  0.1487
 3667W        W 7731   1.136   1.839  10.189  0.1267 -0.0162 -0.2498
 3668W        W 7732   7.274  10.725   2.336 -0.1740  0.0030 -0.0936
 3669W        W 7733   3.256   0.842   2.219  0.0488  0.0220  0.1205
 3670W        W 7734   3.523   9.439   3.531 -0.1776 -0.1759 -0.1102
 3671W        W 7735   3.802   7.421   8.905  0.0675 -0.1344 -0.1387
 3672W        W 7736   5.135   2.291   3.971 -0.3387  0.1139  0.1430
 3673W        W 7737   6.704   5.266   3.180  0.2276 -0.1797  0.2150
 3674W        W 7738   6.681   0.630   9.793 -0.1429  0.1117  0.1237
 3675W        W 7739   1.818   3.450   9.311  0.2693  0.1153  0.1900
 3676W        W 7740   7.047   3.939   1.711  0.2285  0.1333  0.1799
 3677W        W 7741   3.763  10.471   1.112 -0.2600 -0.0511  0.2574
 3678W        W 7742   9.861   6.709   8.120 -0.0769 -0.0515  0.2215
 3679W        W 7743  10.609   9.873   8.698 -0.1291  0.0808 -0.2499
 3680W        W 7744   3.257   3.240   3.042 -0.1630  0.0810  0.1033
 3681W        W 7745   0.421   1.214   9.553 -0.2608  0.1352 -0.3709
 3682W        W 7746   9.013   0.206   8.952  0.1021  0.1109 -0.2664
 3683W        W 7747   5.366   4.024   2.049 -0.0126 -0.3194  0.1960
 3684W        W 7748   2.826   0.958   9.069 -0.3018  0.2825  0.1334
 3685W        W 7749   3.081   2.334   2.505  0.3319 -0.0647 -0.1023
 3686W        W 7750   7.680   4.382  11.275  0.0178 -0.0477  0.0815
 3687W        W 7751   7.471   4.592   0.420  0.1433 -0.1401  0.0461
 3688W        W 7752   4.092   4.693  11.247 -0.1485  0.1039  0.0898
 3689W        W 7753   4.167   4.509   2.237 -0.0150 -0.0642  0.3761
 3690W        W 7754   7.928   7.424   7.662  0.0691  0.0661 -0.0468
 3691W        W 7755   3.870   1.741   1.069 -0.1752 -0.2837 -0.0678
 3692W        W 7756  10.229   3.175   8.922 -0.0744 -0.2169 -0.0223
 3693W        W 7757   6.956   1.749   2.789  0.0365  0.0989  0.1231
 3694W        W 7758   3.879   5.991   3.376  0.0629  0.0602 -0.0827
 3695W        W 7759   9.443  10.252   2.109 -0.4246  0.2489  0.2726
 3696W        W 7760   6.791   3.809   7.755  0.0087 -0.0160  0.0364
 3697W        W 7761   3.272   2.849   0.279  0.0942  0.1817  0.0537
 3698W        W 7762   6.909   2.867  10.161 -0.1177 -0.0162  0.1100
 3699W        W 7763   3.096   1.513   8.885 -0.3030 -0.0409  0.1268
 3700W        W 7764   2.434   5.863   8.742  0.1438  0.2444  0.3573
 3701W        W 7765   9.064   8.089   8.933  0.1399 -0.2071  0.0908
 3702W        W 7766   4.810   6.064  11.309  0.4036  0.0058 -0.1156
 3703W        W 7767   7.064   2.726   2.372 -0.0696 -0.2437  0.1597
 3704W        W 7768   6.873   3.467   1.866 -0.2186  0.0761  0.0077
 3705W        W 7769   9.186   3.530   1.616 -0.1395  0.0863  0.0808
 3706W        W 7770  10.524   7.734  10.942  0.0877  0.5122  0.0178
 3707W        W 7771   6.119   8.679   7.807 -0.0684 -0.1582 -0.2654
 3708W        W 7772   7.919  10.707  10.638 -0.0306  0.1427 -0.0002
 3709W        W 7773  10.437   6.858   0.401 -0.0379  0.0021  0.1351
 3710W        W 7774   3.460   9.955   8.048 -0.0546 -0.1072  0.1519
 3711W        W 7775   8.557   3.392  10.380 -0.2178 -0.0733  0.0121
 3712W        W 7776   4.535   5.474  10.096  0.1292  0.2022 -0.2111
 3713W        W 7777  10.637   7.408   2.786  0.2381  0.1036 -0.0367
 3714W        W 7778   1.094   6.146   2.229  0.1177  0.0624 -0.1104
 3715W        W 7779   7.085   9.470   3.350  0.0090  0.0509  0.0563
 3716W        W 7780   5.478   4.220   8.634 -0.0419  0.2402 -0.2763
 3717W        W 7781   9.388   2.431   1.685 -0.0323 -0.0763  0.0005
 3718W        W 7782  10.329   3.145  11.189  0.0937  0.3531  0.1401
 3719W        W 7783   9.683   1.292   9.044  0.1795 -0.0597 -0.0432
 3720W        W 7784   7.150  10.321   8.954  0.0127  0.0530 -0.0616
 3721W        W 7785   5.444   0.240   8.847 -0.0224  0.3502 -0.1651
 3722W        W 7786   5.623   4.935   8.560 -0.1914 -0.2118 -0.0020
 3723W        W 7787   0.750   8.038   7.983  0.0024  0.1611  0.0163
 3724W        W 7788   1.294   4.764   0.664  0.1670  0.1265  0.0919
 3725W        W 7789   2.088   2.619   3.097 -0.2707  0.1656 -0.0217
 3726W        W 7790   8.506   3.645   1.914  0.0506  0.2453 -0.1439
 3727W        W 7791   5.763   2.007   2.987 -0.0082  0.0922  0.0950
 3728W        W 7792   0.880   7.287   2.734 -0.2425  0.1179  0.0225
 3729W        W 7793   6.515  10.294   8.386  0.6798 -0.1636 -0.2012
 3730W        W 7794  10.136  10.462  10.893  0.0489 -0.0109 -0.0219
 3731W        W 7795   7.436   0.657   9.202  0.0029  0.0517  0.0739
 3732W        W 7796  10.749   5.354   3.253  0.1002 -0.2214  0.0494
 3733W        W 7797   9.549   7.150   0.959 -0.0295  0.0006 -0.0300
 3734W        W 7798   2.683   4.594   0.772  0.0320 -0.0134  0.1378
 3735W        W 7799   7.262   4.541   2.744 -0.1811  0.1921  0.2286
 3736W        W 7800   1.735  10.416   7.815 -0.1441 -0.1093  0.1567
 3737W        W 7801   2.409   6.256   3.123 -0.1446 -0.1873  0.1392
 3738W        W 7802   4.437   7.819   8.134  0.1004 -0.0042  0.0664
 3739W        W 7803   9.791   6.718   8.620  0.3412  0.3469  0.0637
 3740W        W 7804   1.771   8.482   0.568  0.3750 -0.3319  0.2229
 3741W        W 7805   4.526   0.168   8.601  0.0124 -0.0645 -0.1950
 3742W        W 7806   7.222   6.212   8.651 -0.2369 -0.1074  0.1336
 3743W        W 7807   9.982   0.541   1.896 -0.0012 -0.0207 -0.0189
 3744W        W 7808   0.299   6.072  10.209 -0.1912  0.0332  0.2677
 3745W        W 7809   4.946  10.323   2.899 -0.0906  0.2842 -0.1014
 3746W        W 7810   9.218   5.307   1.949 -0.2118  0.0513 -0.1118
 3747W        W 7811   7.582   3.718  10.301 -0.0534  0.2315 -0.0947
 3748W        W 7812   7.116   8.073   8.148 -0.1026  0.1203  0.2128
 3749W        W 7813   2.230   2.073  10.252 -0.1672  0.2003 -0.1756
 3750W        W 7814   9.256   6.155  10.924  0.2609  0.3359  0.0589
 3751W        W 7815   0.410   1.318  10.063 -0.1289 -0.3342 -0.1651
 3752W        W 7816   3.063   2.970   0.728  0.0979  0.0636  0.1891
 3753W        W 7817   2.322   6.882   0.880  0.1574 -0.1963  0.0947
 3754W        W 7818   6.337   7.336   8.886 -0.0769  0.2538  0.0371
 3755W        W 7819   8.768   2.403   2.480 -0.1043  0.0909  0.1504
 3756W        W 7820   6.333   8.234   8.481  0.0306 -0.0738 -0.0751
 3757W        W 7821   5.529   3.159  10.526  0.0541 -0.3495  0.4612
 3758W        W 7822   7.847   5.290   1.733 -0.0125  0.1941 -0.2681
 3759W        W 7823   6.924   5.496   1.787 -0.0954  0.2530 -0.0777
 3760W        W 7824   5.303   8.863   2.676  0.1381 -0.2101 -0.1144
 3761W        W 7825   9.798   7.543   0.785 -0.1247 -0.0910 -0.0673
 3762W        W 7826   9.827   4.966   3.129  0.0192 -0.2048 -0.1044
 3763W        W 7827   1.685   9.723  10.295 -0.2254  0.2368  0.0934
 3764W        W 7828  10.717   1.671   1.501  0.1036  0.4205 -0.2815
 3765W        W 7829   6.151   2.704   2.477 -0.2073  0.1742  0.0270
 3766W        W 7830  10.542   7.610   9.235 -0.0573  0.0829 -0.0190
 3767W        W 7831   2.420   6.066   1.736  0.1434 -0.0363 -0.0408
 3768W        W 7832   7.030   1.080   2.459 -0.0507  0.3052  0.0906
 3769W        W 7833   3.179   2.885   3.832  0.1060 -0.1981  0.0148
 3770W        W 7834   2.623   0.457  11.315  0.0873  0.1339  0.1746
 3771W        W 7835   3.166   1.302   1.002 -0.0278 -0.2959 -0.2102
 3772W        W 7836   4.095  10.015   3.974 -0.4662  0.0140  0.2062
 3773W        W 7837   8.387   2.529   2.066 -0.1398 -0.1989  0.2256
 3774W        W 7838   8.767   1.949   9.737  0.0531  0.1396  0.0958
 3775W        W 7839   4.479   2.147  10.260  0.0600  0.0628 -0.0536
 3776W        W 7840   9.279   4.340   9.826 -0.1617 -0.0361 -0.2806
 3777W        W 7841   7.874   7.148  10.935 -0.0802  0.0132  0.2097
 3778W        W 7842   5.685   5.344   8.243  0.1114  0.1820 -0.0940
 3779W        W 7843   5.802   9.524   8.309 -0.0677  0.2220  0.4590
 3780W        W 7844   3.122   6.589   8.792 -0.2450 -0.0176  0.0729
 3781W        W 7845   1.042   3.978   7.701 -0.1421 -0.1941 -0.0832
 3782W        W 7846   2.376   1.635   0.646  0.4578 -0.1495  0.2397
 3783W        W 7847   8.683   3.490  10.835  0.1975 -0.4404  0.0368
 3784W        W 7848   1.424  10.751   8.765  0.1056  0.3518  0.0861
 3785W        W 7849   8.213   6.168   7.721  0.1738 -0.0706 -0.2010
 3786W        W 7850   1.760   1.424  10.694 -0.2041 -0.2285  0.0319
 3787W        W 7851  10.439   8.281  11.233 -0.1770 -0.1451 -0.1372
 3788W        W 7852   8.582   3.105   1.947 -0.1795  0.0279 -0.2665
 3789W        W 7853   3.627   0.589   2.451  0.1666  0.1951  0.3319
 3790W        W 7854  10.402  10.556   2.251  0.0336 -0.0562 -0.0503
 3791W        W 7855   0.805   9.079   4.226  0.2809 -0.3012  0.1415
 3792W        W 7856   1.938   7.194   1.831  0.1519 -0.1606  0.1903
 3793W        W 7857   5.334   7.292  10.884  0.0277 -0.2309 -0.2160
 3794W        W 7858   1.019  10.156   9.169  0.0129  0.1309 -0.0905
 3795W        W 7859  10.229   5.748  10.381  0.0071  0.1103  0.1166
 3796W        W 7860   4.769   0.269   1.245 -0.1170  0.1070 -0.0175
 3797W        W 7861   1.631   3.836   2.922 -0.1722  0.2794  0.1327
 3798W        W 7862   4.664   3.052   0.520  0.1787 -0.2543  0.2333
 3799W        W 7863   8.767   6.156   0.630  0.0610  0.3010  0.0765
 3800W        W 7864   4.821   6.818   0.414 -0.0075  0.1835  0.0649
 3801W        W 7865   1.178   2.885   0.019 -0.0316 -0.2259  0.0171
 3802W        W 7866   6.002   7.928   1.226  0.0698 -0.5662  0.1033
 3803W        W 7867   2.749   2.166  10.300 -0.1959 -0.1293 -0.3523
 3804W        W 7868   4.127   8.233   8.672  0.3304 -0.2836 -0.0210
 3805W        W 7869  10.475   9.719   3.944 -0.2717  0.2900  0.0740
 3806W        W 7870   8.935   8.189  11.175 -0.0633 -0.0695 -0.2910
 3807W        W 7871   0.456   9.413   8.183 -0.0002  0.0755  0.1833
 3808W        W 7872   7.564   6.367   1.084  0.0570 -0.0152 -0.1158
 3809W        W 7873   4.687   2.499   3.256  0.1050  0.2635 -0.0490
 3810W        W 7874   4.383   8.889   8.034  0.2503  0.0733  0.0795
 3811W        W 7875   5.685   5.112   0.543 -0.2043 -0.0107 -0.1406
 3812W        W 7876   1.175  10.096  10.406  0.1471  0.0888  0.2310
 3813W        W 7877   2.115   0.251   1.691  0.0320  0.1699 -0.4065
 3814W        W 7878   6.256   2.447   8.600 -0.1924 -0.0694 -0.1096
 3815W        W 7879   1.647   7.922   7.704  0.1085  0.2577  0.1776
 3816W        W 7880   1.663   3.101   0.822  0.3174 -0.0018  0.1450
 3817W        W 7881   7.989   2.867   5.952  0.1081  0.2152  0.0233
 3818W        W 7882   5.180   8.001   0.987 -0.2395  0.3626 -0.1497
 3819W        W 7883   8.768   4.879  11.323 -0.0666  0.2184 -0.2463
 3820W        W 7884   1.600   3.840   9.060 -0.3240 -0.0390  0.0839
 3821W        W 7885   3.219   9.189   7.412 -0.2334 -0.0250 -0.0276
 3822W        W 7886   8.852   4.961   3.240 -0.0009  0.1818 -0.0338
 3823W        W 7887   2.996   7.821   2.690 -0.0464 -0.1772  0.1708
 3824W        W 7888   7.421   2.713   2.860 -0.2974 -0.1384 -0.1542
 3825W        W 7889   9.441   9.479   0.116 -0.0541 -0.1126  0.2677
 3826W        W 7890   6.556   2.946   3.235 -0.2685 -0.1396  0.0330
 3827W        W 7891   8.617   0.204   9.765 -0.0187  0.3281  0.0986
 3828W        W 7892   2.902   6.357   9.183 -0.2667  0.0320  0.0743
 3829W        W 7893   6.022   2.590   0.496 -0.0183 -0.0715  0.0869
 3830W        W 7894   0.014   5.826   9.205  0.3981 -0.0847  0.3257
 3831W        W 7895   7.694   5.103   2.168 -0.2862 -0.0221  0.0157
 3832W        W 7896   3.100   4.965   0.002  0.3785 -0.1641 -0.3161
 3833W        W 7897   6.612   8.306   0.573 -0.0310 -0.1133  0.3241
 3834W        W 7898   6.965   5.383   1.286  0.4371  0.0252 -0.0408
 3835W        W 7899   5.561   4.436  10.185  0.1240 -0.2951  0.2319
 3836W        W 7900   6.899  10.601  10.282  0.0811  0.1754  0.0399
 3837W        W 7901   5.458   9.202   0.443  0.1218  0.0740  0.1046
 3838W        W 7902   1.402   0.529   8.956 -0.2088 -0.3048 -0.0160
 3839W        W 7903   7.314   3.740   1.301  0.1175 -0.1231 -0.1301
 3840W        W 7904   7.844   3.768  10.852 -0.0126  0.0892  0.0499
 3841W        W 7905  10.141   0.229   0.281 -0.1753 -0.1501 -0.0265
 3842W        W 7906   9.541   0.654   1.333 -0.0797 -0.1162 -0.0455
 3843W        W 7907   0.257   0.361   8.620 -0.3454  0.0546  0.1472
 3844W        W 7908   3.006   3.301   0.055 -0.1775  0.1673  0.2657
 3845W        W 7909   1.103   5.490  10.395  0.0093  0.0475 -0.0784
 3846W        W 7910  10.348   6.983   1.693  0.0012  0.0131  0.3514
 3847W        W 7911   2.011   1.713   2.678 -0.0651  0.2136 -0.0316
 3848W        W 7912  10.136   8.729   2.175  0.0091  0.2644  0.1444
 3849W        W 7913   8.149   8.600   2.594  0.1077  0.1542  0.5007
 3850W        W 7914   3.373   4.190  10.720  0.0407 -0.1189 -0.0467
 3851W        W 7915   4.046   6.081   8.349 -0.0030  0.0892  0.1889
 3852W        W 7916   3.236   3.736   1.262  0.0737 -0.2954  0.1523
 3853W        W 7917   7.090   2.723   1.519 -0.1662  0.0252  0.1344
 3854W        W 7918   0.290   1.084   8.650 -0.0771  0.1833 -0.0063
 3855W        W 7919   6.274   8.342  10.972  0.1267 -0.3033 -0.1312
 3856W        W 7920   8.727   0.051   8.510  0.0284 -0.1023 -0.1454
 3857W        W 7921   8.110   5.126  10.227  0.0272 -0.0596 -0.3736
 3858W        W 7922   6.988   5.122  10.232  0.1341  0.0737  0.0695
 3859W        W 7923   4.905   9.986   1.124 -0.0294  0.3801 -0.0609
 3860W        W 7924   5.889   4.016  10.192  0.2307  0.0908 -0.0223
 3861W        W 7925   0.575   5.639  11.227 -0.0720  0.2000 -0.0594
 3862W        W 7926   2.927   2.507   0.276  0.1413  0.2356  0.2849
 3863W        W 7927   8.160   2.233   2.360  0.0179 -0.1379 -0.0942
 3864W        W 7928   7.160   9.863   0.979 -0.1013  0.2389 -0.1487
 3865W        W 7929   4.489   9.187   3.621  0.1522 -0.0969 -0.0110
 3866W        W 7930   2.017   5.198   2.140 -0.2034  0.2710  0.1317
 3867W        W 7931   7.276   7.960   3.257 -0.1373  0.1961 -0.1810
 3868W        W 7932   7.743   2.541   1.004  0.1531  0.1485 -0.2278
 3869W        W 7933   8.796   4.275   8.957  0.1294 -0.1405 -0.1246
 3870W        W 7934   7.550   1.088   3.137  0.0050 -0.2998 -0.3849
 3871W        W 7935   9.752   6.970   9.841  0.2460 -0.1789 -0.1495
 3872W        W 7936   2.721   9.522   0.730 -0.1404  0.0766  0.3208
 3873W        W 7937   4.985   9.640   8.429  0.3443 -0.0995  0.0365
 3874W        W 7938   7.448   0.019   1.404  0.3697 -0.1596 -0.0726
 3875W        W 7939   9.063   9.158  10.100 -0.2294  0.1356 -0.0582
 3876W        W 7940   5.582   7.983   8.075 -0.1025  0.0078 -0.1325
 3877W        W 7941   9.878   0.649   2.643 -0.4878  0.3114  0.4178
 3878W        W 7942   8.780   4.040   8.502  0.0007  0.0460 -0.2919
 3879W        W 7943   0.572   6.092   1.891 -0.1833  0.2967 -0.0919
 3880W        W 7944  10.296   1.869  10.695  0.0552  0.3304  0.2189
 3881W        W 7945   4.016   0.224  11.260  0.0608  0.1812  0.0323
 3882W        W 7946   5.923   1.256   7.842 -0.1349  0.1999 -0.0515
 3883W        W 7947   9.852   6.790  11.039 -0.3747 -0.0620  0.1046
 3884W        W 7948   1.175   9.178   1.382  0.1024  0.3387  0.1717
 3885W        W 7949   3.585   7.609   0.705 -0.0569 -0.3095 -0.4855
 3886W        W 7950   7.536   3.584   1.752  0.2280  0.0461  0.4524
 3887W        W 7951   7.559   3.600   2.549  0.1423 -0.1926 -0.4643
 3888W        W 7952   5.261   7.656  11.310 -0.2078  0.0409  0.0838
 3889W        W 7953  10.270   4.063  10.799 -0.1591 -0.2839  0.0889
 3890W        W 7954   4.145   9.529   0.875 -0.0511 -0.0417 -0.0026
 3891W        W 7955  10.022   3.601   3.147 -0.4262 -0.3507  0.1236
 3892W        W 7956   0.101   4.760   9.938  0.3852  0.1303  0.1638
 3893W        W 7957   4.929   5.377  11.217  0.3578  0.0589 -0.0437
 3894W        W 7958   5.587   4.114  10.590  0.1425 -0.1351  0.2173
 3895W        W 7959   4.738   2.268   2.204 -0.1162 -0.0935  0.2553
 3896W        W 7960   2.402   0.706   3.224 -0.0923 -0.1281  0.2772
 3897W        W 7961   9.023   4.358   9.392  0.0305  0.3345  0.1306
 3898W        W 7962  10.563   2.301   9.161 -0.3412  0.1290  0.2459
 3899W        W 7963   1.749   4.862   3.012  0.0746  0.1504 -0.1160
 3900W        W 7964   1.069   4.618   1.901  0.4125 -0.1020 -0.1912
 3901W        W 7965  10.206   5.628   2.574 -0.2035  0.1180  0.3730
 3902W        W 7966   7.557   4.433   3.613 -0.1076 -0.2226 -0.1526
 3903W        W 7967   6.736   0.879   0.626  0.1394 -0.2716  0.4032
 3904W        W 7968  10.641   9.463  10.335 -0.2182 -0.6045  0.1437
 3905W        W 7969   6.568   1.087   9.536  0.1316 -0.2161  0.0095
 3906W        W 7970   0.767   6.532   2.032 -0.2014 -0.0110 -0.2170
 3907W        W 7971   6.698   6.096   9.958  0.2434  0.2682 -0.0093
 3908W        W 7972   0.464   7.588   2.673 -0.1432 -0.3033  0.0835
 3909W        W 7973   4.381   3.731   2.892  0.0391 -0.1119 -0.4742
 3910W        W 7974   8.294  10.263   1.560  0.2379  0.0359 -0.2158
 3911W        W 7975   1.066   2.079   0.404  0.1132  0.1942 -0.0395
 3912W        W 7976   6.844  10.446   2.394 -0.1638  0.0243  0.0860
 3913W        W 7977   5.545   1.914   9.934 -0.0612  0.0838  0.2370
 3914W        W 7978   7.381   0.996   6.289 -0.1278 -0.2900 -0.2359
 3915W        W 7979   7.723   4.665  10.816 -0.3826  0.0019 -0.1357
 3916W        W 7980   7.044   6.050   0.125  0.1205  0.3388  0.2389
 3917W        W 7981   1.590   2.921   7.524  0.1069  0.3431  0.0333
 3918W        W 7982   5.471   0.729   9.052 -0.0743  0.2019  0.2930
 3919W        W 7983   6.547   1.839   3.992 -0.0500  0.1351  0.0145
 3920W        W 7984   2.392   5.644   9.314 -0.2270 -0.1828 -0.0298
 3921W        W 7985   8.711   2.713  11.288 -0.0046  0.3923 -0.0924
 3922W        W 7986   8.073   5.296   9.796 -0.1624 -0.0748  0.1949
 3923W        W 7987  10.095   6.233   0.069  0.1468  0.3217 -0.2154
 3924W        W 7988   2.517  10.529  11.322  0.2285  0.0650 -0.0503
 3925W        W 7989   7.099   5.846   9.833  0.1130  0.0897  0.2210
 3926W        W 7990   2.956   2.490   0.808 -0.0418  0.2289  0.1347
 3927W        W 7991   0.814   6.113   8.659 -0.0353  0.1345  0.2199
 3928W        W 7992   7.057   1.801   9.662  0.0591  0.3002 -0.1595
 3929W        W 7993   2.653   9.747   7.569  0.1218 -0.4730 -0.1691
 3930W        W 7994   6.685   6.880   1.187  0.1430  0.2365 -0.4330
 3931W        W 7995   0.006  10.584   3.472  0.0303  0.0675  0.1303
 3932W        W 7996   3.041   2.933   3.358  0.0645 -0.2305 -0.1580
 3933W        W 7997   6.736   0.113   9.885 -0.3429  0.0975 -0.1823
 3934W        W 7998   3.158   6.307   0.164  0.0585  0.1585 -0.1242
 3935W        W 7999   7.172   3.520   9.050  0.1202  0.2727 -0.0466
 3936W        W 8000   1.726   0.398   9.676 -0.5128  0.0309 -0.2623
 3937W        W 8001   9.295   3.205  10.084 -0.1117  0.1522  0.0685
 3938W        W 8002   4.522   5.636   8.359  0.0928 -0.3425  0.0778
 3939W        W 8003   5.068   6.829  10.931 -0.0475 -0.2760 -0.3089
 3940W        W 8004   9.320   0.276   3.190  0.1649 -0.0465  0.4343
 3941W        W 8005   4.119   7.957   9.590 -0.0983  0.4061  0.3355
 3942W        W 8006   8.410   5.827   0.709 -0.1416  0.1809  0.0068
 3943W        W 8007   3.816   3.261   1.746  0.0645 -0.4193  0.1328
 3944W        W 8008   3.993   0.506   8.712  0.1844  0.0207  0.0250
 3945W        W 8009  10.690   4.996   0.558 -0.0557 -0.1023 -0.2111
 3946W        W 8010   3.694   2.238   8.940  0.1053 -0.0507 -0.3518
 3947W        W 8011   9.421   1.225  10.787 -0.2244 -0.2288  0.1668
 3948W        W 8012   7.527   1.611   0.009 -0.2163  0.2455  0.1605
 3949W        W 8013   3.642   2.546   8.270 -0.1357 -0.2325  0.2106
 3950W        W 8014   3.582   8.614   1.628 -0.1156  0.1544 -0.3717
 3951W        W 8015   5.658   6.721   3.493 -0.0418 -0.0781 -0.0136
 3952W        W 8016   5.943   5.812   2.768 -0.1087  0.0758  0.1807
 3953W        W 8017   6.579   3.837   0.634 -0.2467 -0.3014 -0.1324
 3954W        W 8018   5.239   5.039  10.013 -0.1105 -0.1486  0.1272
 3955W        W 8019   9.773  10.750   8.746  0.3868 -0.0560  0.0827
 3956W        W 8020   0.137   2.502   0.290  0.0730 -0.0292  0.5412
 3957W        W 8021   8.864   4.483   1.580  0.0907 -0.1458  0.2492
 3958W        W 8022   9.063   7.908   9.800  0.0784  0.1411  0.0393
 3959W        W 8023   7.145   4.316   9.660 -0.2492 -0.0481  0.0789
 3960W        W 8024   1.211   7.383   2.385  0.1481  0.2079 -0.0433
 3961W        W 8025   9.415   1.657  11.321 -0.2445  0.0536  0.0659
 3962W        W 8026   5.167  10.325   8.170 -0.0282  0.0638  0.1084
 3963W        W 8027   4.536   1.070   7.645 -0.0694 -0.2284 -0.2126
 3964W        W 8028  10.086   1.892   8.702 -0.2657 -0.1758 -0.0984
 3965W        W 8029   1.891   3.059   9.635  0.4526  0.0433 -0.2159
 3966W        W 8030   7.789   2.884  10.713 -0.0954  0.0599 -0.2436
 3967W        W 8031   6.793   3.956   2.096 -0.0603 -0.4006  0.1020
 3968W        W 8032   1.384  10.480   8.251  0.0764 -0.3686  0.1205
 3969W        W 8033   2.696   4.628  11.236  0.3766  0.3957 -0.1097
 3970W        W 8034   7.932   6.451   8.131  0.3268 -0.2629 -0.2276
 3971W        W 8035   3.281   4.080   8.318 -0.1128 -0.2968 -0.3094
 3972W        W 8036   6.615   1.855   2.156  0.1929 -0.2023 -0.1823
 3973W        W 8037   8.541   0.358   8.946 -0.2907 -0.3245  0.0080
 3974W        W 8038   5.651   8.654   9.324 -0.1734 -0.2535  0.3577
 3975W        W 8039   6.334   3.043   8.389  0.2505  0.0386 -0.1099
 3976W        W 8040   3.272   1.299   8.265 -0.1701  0.2679  0.0175
 3977W        W 8041   2.010   4.495   1.296 -0.1169 -0.1268  0.2754
 3978W        W 8042   9.012   3.262  11.240 -0.1183 -0.0186  0.2803
 3979W        W 8043   4.305   1.807   9.323  0.2012  0.2174 -0.1393
 3980W        W 8044   6.100   5.939  10.774 -0.1648 -0.2030  0.0010
 3981W        W 8045   1.019   2.776  10.244 -0.3878 -0.1646 -0.0853
 3982W        W 8046   3.499   1.172   1.844  0.0063  0.2942 -0.0309
 3983W        W 8047   5.712   9.551   1.440 -0.1651 -0.1031 -0.4637
 3984W        W 8048   9.733  10.646  10.613 -0.0625  0.2170 -0.0685
 3985W        W 8049   4.460   2.563   2.843 -0.0499  0.0190 -0.0512
 3986W        W 8050   9.507   6.232   9.765 -0.1488 -0.0822  0.0009
 3987W        W 8051   6.352   9.737  10.114 -0.3927  0.0224  0.1990
 3988W        W 8052   2.018   6.244   2.155  0.0360 -0.1736  0.0343
 3989W        W 8053   1.604   0.722   2.322 -0.1927 -0.0537  0.0464
 3990W        W 8054   9.911   2.131   9.274 -0.2103  0.0884 -0.0426
 3991W        W 8055   4.154   0.364   0.425  0.1604  0.5255  0.0825
 3992W        W 8056   7.211   7.157   9.298 -0.2791 -0.0119  0.0621
 3993W        W 8057   6.814   2.355  11.080  0.0977  0.4152  0.1742
 3994W        W 8058   1.079   7.656   1.424  0.6404 -0.0225  0.0573
 3995W        W 8059   7.449   9.952  10.800  0.1928 -0.0549  0.4761
 3996W        W 8060   0.410   4.168  11.178  0.0809 -0.0262  0.1302
 3997W        W 8061   0.010   3.074   0.452 -0.2288 -0.0458  0.0782
 3998W        W 8062   3.273   0.178   8.813 -0.4681  0.2518  0.0291
 3999W        W 8063   3.713   6.868   1.297 -0.1274 -0.2270  0.2270
 4000W        W 8064   0.084   1.459   2.804 -0.1901  0.0766  0.0228
 4001W        W 8065   2.016   9.026  10.486  0.0459 -0.2098  0.1573
 4002W        W 8066   4.080  10.160   2.478  0.0521 -0.1353  0.3053
 4003W        W 8067   5.940   1.207   1.682 -0.0098  0.0882 -0.1784
 4004W        W 8068   3.870   5.977   8.941  0.0593 -0.4690  0.2545
 4005W        W 8069   7.329   2.654   8.396 -0.2059  0.0300  0.2055
 4006W        W 8070   5.384   7.463   7.934 -0.0312  0.3574  0.1313
 4007W        W 8071   3.802   2.586   9.949 -0.1420 -0.0001 -0.1401
 4008W        W 8072   8.530   7.242  10.345  0.3120  0.1711 -0.2056
 4009W        W 8073   2.438   5.441   2.340 -0.1625 -0.0726  0.0061
 4010W        W 8074   4.308  10.616   2.225  0.2987 -0.4018 -0.0089
 4011W        W 8075   0.866   2.551   0.690 -0.1042  0.1038  0.0206
 4012W        W 8076   1.738   6.642   3.041  0.0777  0.1477 -0.2464
 4013W        W 8077   7.751  10.001   3.446  0.3918  0.3716  0.2071
 4014W        W 8078   0.010   1.557   0.133 -0.1886  0.0645 -0.0059
 4015W        W 8079   5.240   2.827   8.821  0.3812 -0.1871 -0.0688
 4016W        W 8080  10.138   5.533   9.960 -0.1277 -0.0694  0.1613
 4017W        W 8081   6.134   7.188  10.930  0.0695  0.1756  0.0862
 4018W        W 8082   6.468   9.154   7.371 -0.0006  0.0162 -0.0145
 4019W        W 8083   6.359   9.023   2.188 -0.3294 -0.2094  0.0013
 4020W        W 8084   6.619   9.359   1.250  0.1615 -0.1814  0.2180
 4021W        W 8085   6.122  10.354  11.000  0.1169  0.2161  0.0967
 4022W        W 8086   2.259   6.348   0.367 -0.0848 -0.0799  0.0425
 4023W        W 8087   3.716   3.711   0.975 -0.3366 -0.2349  0.1192
 4024W        W 8088   4.088   9.822  10.292 -0.0901  0.2251 -0.2000
 4025W        W 8089   9.289   5.004   0.767 -0.2740 -0.3578  0.1586
 4026W        W 8090   7.116  10.174  10.408  0.2432  0.0834 -0.1288
 4027W        W 8091   0.789   7.886  10.867  0.1089  0.0340 -0.0806
 4028W        W 8092   7.974   1.718   2.527 -0.0640  0.1015  0.4172
 4029W        W 8093   1.623   9.924   2.158 -0.0382 -0.0687 -0.2191
 4030W        W 8094   1.231   1.766   2.940 -0.1016  0.1356  0.0582
 4031W        W 8095   6.365   8.186   3.408 -0.1452 -0.0532  0.2378
 4032W        W 8096   0.849   1.266   8.573  0.0177 -0.1279 -0.1959
 4033W        W 8097   6.205   9.546   1.409 -0.1461 -0.1343 -0.1055
 4034W        W 8098   5.587   5.191   9.688 -0.0591 -0.1740 -0.1493
 4035W        W 8099   5.568   6.815   9.217  0.1308 -0.2548 -0.1752
 4036W        W 8100   6.120   0.192   2.447 -0.0538 -0.1166 -0.0288
 4037W        W 8101   6.675   5.013   8.454 -0.0145  0.0518 -0.6751
 4038W        W 8102   4.347   2.879   8.811 -0.1009 -0.0974  0.1477
 4039W        W 8103  10.258  10.498   0.399  0.0013 -0.0449  0.4105
 4040W        W 8104   1.139   3.346   2.059 -0.2806 -0.4221  0.0478
 4041W        W 8105   2.506   7.429  11.274 -0.1005  0.1962 -0.2401
 4042W        W 8106   6.422   9.184   1.657 -0.0642  0.0559  0.1558
 4043W        W 8107   8.175   9.137   8.593 -0.3789 -0.1182  0.1960
 4044W        W 8108  10.616   9.169   3.246 -0.0438  0.2800 -0.2775
 4045W        W 8109   4.007   4.141   1.125 -0.1911  0.0690 -0.1520
 4046W        W 8110   0.139  10.127   9.742 -0.0637 -0.0974 -0.0900
 4047W        W 8111   4.516   4.022   8.212 -0.4273 -0.1007 -0.0150
 4048W        W 8112   2.291   1.951   1.937 -0.1335  0.0048  0.2199
 4049W        W 8113   4.539   7.986   3.540 -0.0250 -0.1516  0.0210
 4050W        W 8114   0.205   0.886   2.828  0.0643  0.0893 -0.0595
 4051W        W 8115   4.643   8.517   2.309 -0.0414  0.1225 -0.1229
 4052W        W 8116   8.591   2.387  10.881 -0.1192  0.0404 -0.1505
 4053W        W 8117   5.516   5.905   3.488  0.0089  0.0971 -0.0714
 4054W        W 8118   0.713   3.109   7.263 -0.1651  0.1425 -0.0806
 4055W        W 8119   4.923   4.513   7.942 -0.1490 -0.0119  0.0696
 4056W        W 8120   2.816   1.308  11.114  0.0593 -0.0441  0.3720
 4057W        W 8121   5.743   0.125   9.628 -0.0253 -0.3341  0.2678
 4058W        W 8122   3.343   6.882   2.777  0.3818 -0.3010 -0.0443
 4059W        W 8123   5.240   6.040   9.999  0.1280  0.3935 -0.0794
 4060W        W 8124   8.221   3.019  10.264 -0.0530  0.1725  0.1163
 4061W        W 8125   1.779   2.492   2.282 -0.1236  0.0518  0.0782
 4062W        W 8126   6.698   4.247   8.932 -0.1786 -0.0122 -0.0818
 4063W        W 8127   2.566   2.996   1.486  0.0635  0.1925 -0.2090
 4064W        W 8128   2.739   9.245   7.572  0.3058 -0.2192 -0.0666
 4065W        W 8129   9.058  10.226  10.859  0.0078 -0.0424 -0.4516
 4066W        W 8130   1.721   0.034   7.519  0.0556 -0.1273  0.2776
 4067W        W 8131   4.071  10.265   3.553  0.0035  0.0104 -0.1262
 4068W        W 8132   2.305   9.252   2.312 -0.1204 -0.1397  0.2157
 4069W        W 8133   0.730  10.455   0.031 -0.0997 -0.0663 -0.2617
 4070W        W 8134   2.984   4.778   9.441  0.0913 -0.0404 -0.2425
 4071W        W 8135   3.106   6.502   3.041  0.0184 -0.0857 -0.2756
 4072W        W 8136   3.736   6.834   8.218  0.0091 -0.3081 -0.1936
 4073W        W 8137   3.727   1.724  10.926  0.0826 -0.0684  0.2008
 4074W        W 8138   3.302   9.499   1.998 -0.1367  0.2189  0.1897
 4075W        W 8139   5.087   2.853  10.610 -0.0543 -0.1867  0.0270
 4076W        W 8140   1.114   8.277   3.156  0.0500  0.0587 -0.0234
 4077W        W 8141   3.573   1.669   0.137  0.0651  0.0972  0.0059
 4078W        W 8142   6.803   6.207   8.353  0.3192  0.0134 -0.1317
 4079W        W 8143   0.575   9.830   3.888  0.0376  0.0256  0.0042
 4080W        W 8144   8.692   9.824  11.186 -0.0956 -0.1036 -0.1776
 4081W        W 8145   9.891   9.381   8.637 -0.0490 -0.1844  0.1606
 4082W        W 8146   9.023   4.624   3.753  0.2888 -0.3852 -0.1622
 4083W        W 8147   1.181  10.277   2.314 -0.0564 -0.3360 -0.1551
 4084W        W 8148   9.333   6.232   1.496 -0.1857  0.0413 -0.2106
 4085W        W 8149   5.658   5.545   3.096  0.0845  0.3090  0.0590
 4086W        W 8150   5.660   6.102   2.398 -0.0423  0.0235  0.1368
 4087W        W 8151   9.937   7.235   1.319  0.0616  0.3137  0.0221
 4088W        W 8152   9.200   8.379   0.261 -0.2625  0.1030 -0.2155
 4089W        W 8153   3.923   6.058  10.549  0.0338  0.1125  0.0406
 4090W        W 8154   0.757   7.052   7.215  0.2748 -0.2010  0.2100
 4091W        W 8155   9.144   6.714   2.470 -0.1782 -0.1079  0.1059
 4092W        W 8156   2.411  10.515   0.588 -0.1458  0.0597  0.0262
 4093W        W 8157   9.486   4.522   9.270 -0.2980 -0.0313 -0.1376
 4094W        W 8158   5.502   5.161  10.507 -0.1249 -0.0260  0.1551
 4095W        W 8159   1.681   0.688  10.739  0.0394 -0.1041 -0.0176
 4096W        W 8160  10.048   4.139   2.928 -0.2161  0.0174  0.0147
 4097W        W 8161   6.469   5.673   2.996 -0.0787 -0.0449 -0.0391
 4098W        W 8162  10.176   0.888   3.356  0.1144  0.1408 -0.1064
 4099W        W 8163   1.864   8.400   2.288  0.2098  0.1125  0.0230
 4100W        W 8164   4.090   4.774   2.887  0.0599  0.1542 -0.4969
 4101W        W 8165   2.163   2.059   8.113  0.1221 -0.2125 -0.1354
 4102W        W 8166   9.425  10.246   0.865 -0.0775 -0.4342 -0.0395
 4103W        W 8167   1.801   0.838   0.206  0.3118 -0.0363 -0.1463
 4104W        W 8168   9.619   9.772   4.106  0.2556 -0.0425  0.2488
 4105W        W 8169   8.037   4.090  10.340 -0.2030 -0.1590  0.3208
 4106W        W 8170   8.285   0.791   2.182  0.0722  0.1473 -0.0840
 4107W        W 8171   1.303   3.887   0.143  0.1031  0.0667  0.2142
 4108W        W 8172   2.181   8.772   8.284 -0.1584  0.0006 -0.5039
 4109W        W 8173   2.688   8.202  10.427 -0.1021 -0.2151 -0.2429
 4110W        W 8174  10.196   9.020   2.603  0.2083 -0.1141 -0.1403
 4111W        W 8175   6.477   3.970   3.144  0.3760  0.0513  0.1707
 4112W        W 8176   3.134   3.724   3.024 -0.0776  0.2860 -0.0613
 4113W        W 8177   0.514   5.307   1.839  0.2657  0.1266 -0.0995
 4114W        W 8178   2.020   6.129   9.467 -0.1014  0.1300 -0.4373
 4115W        W 8179   4.361   7.874   2.104  0.0939  0.1725  0.0253
 4116W        W 8180   3.498   5.990   1.601 -0.1063  0.0750 -0.0805
 4117W        W 8181  10.012   3.337   9.277 -0.4784 -0.2383  0.0485
 4118W        W 8182   2.503   7.954   8.407 -0.2301  0.1360 -0.0836
 4119W        W 8183   4.791   7.797  10.041  0.2160 -0.1373 -0.0842
 4120W        W 8184   5.110  10.442  10.193 -0.0546 -0.2701 -0.0670
 4121W        W 8185   4.523   8.869  10.078  0.1168  0.1799  0.0661
 4122W        W 8186   2.802  10.281   1.338  0.0732  0.0699  0.1865
 4123W        W 8187   4.590   8.424   3.345 -0.2007  0.0767 -0.4377
 4124W        W 8188   2.821   3.704   0.987 -0.1296  0.2617  0.1733
 4125W        W 8189   8.472   1.149   9.646  0.0373  0.0367  0.0458
 4126W        W 8190   6.171   5.790  11.218 -0.2595  0.0380 -0.1933
 4127W        W 8191   4.765   0.439   1.716  0.1142 -0.1892  0.1903
 4128W        W 8192   7.122   0.386   9.649 -0.0876 -0.2049 -0.1602
 4129W        W 8193   0.557   7.399   3.162 -0.1073 -0.3247  0.0643
 4130W        W 8194  10.338   7.318   9.721  0.2513  0.0473 -0.3304
 4131W        W 8195   9.007   3.787  10.424  0.2861 -0.0650  0.1157
 4132W        W 8196   8.015   2.288   9.109  0.0787 -0.3094  0.0523
 4133W        W 8197   4.555   3.307  10.278 -0.0109  0.0312  0.0310
 4134W        W 8198   6.103   1.771   0.811  0.0480 -0.0503  0.2679
 4135W        W 8199   2.405   3.066   8.012  0.0144  0.0376  0.0921
 4136W        W 8200   6.553   7.640   0.384 -0.1526 -0.0332 -0.2023
 4137W        W 8201   4.997   8.723   1.555  0.1248 -0.1084  0.0544
 4138W        W 8202   0.577   2.691  10.057  0.2149 -0.0362  0.1973
 4139W        W 8203   5.389   6.798   0.804 -0.1777 -0.0680 -0.4656
 4140W        W 8204   2.716   2.981   0.393  0.0792  0.1566 -0.0014
 4141W        W 8205   4.006   3.816   2.556 -0.2712  0.0942 -0.6506
 4142W        W 8206   3.270  10.587   2.812  0.0798  0.1382 -0.3496
 4143W        W 8207   8.152   0.923   9.878 -0.0944  0.0231  0.3717
 4144W        W 8208   5.693   8.030   2.187 -0.2386 -0.0715  0.0466
 4145W        W 8209   5.900   8.614   8.283  0.0393  0.0733  0.2115
 4146W        W 8210   2.844   3.442   9.217  0.0785 -0.1743  0.1693
 4147W        W 8211   7.197   0.479   0.278  0.3203 -0.1854  0.0556
 4148W        W 8212   9.239   3.887   2.604  0.2761 -0.1607 -0.1537
 4149W        W 8213   6.782   8.927   0.298 -0.1116 -0.1615  0.1906
 4150W        W 8214   6.734   3.300  11.117  0.1013 -0.0846 -0.1309
 4151W        W 8215   1.563   2.276   8.575  0.3329  0.0066 -0.0340
 4152W        W 8216   2.874   8.594   8.967  0.0328 -0.3886 -0.1091
 4153W        W 8217   1.131   7.602   3.128  0.1442 -0.4378  0.2659
 4154W        W 8218   8.847   9.582   9.852  0.0767  0.1862 -0.1063
 4155W        W 8219   7.082   8.023  10.429 -0.0793  0.0827 -0.1638
 4156W        W 8220   0.582   0.724   8.872  0.2602  0.3023 -0.0474
 4157W        W 8221   1.990   5.739   8.987 -0.3016 -0.0432  0.2005
 4158W        W 8222   1.519   3.669   2.220 -0.0417 -0.0942  0.0608
 4159W        W 8223   0.759   8.326   8.408 -0.0282  0.1132  0.0209
 4160W        W 8224   3.357   6.862  10.418 -0.0230 -0.0738  0.0139
 4161W        W 8225  10.331   3.650  11.093  0.2322  0.1363 -0.2127
 4162W        W 8226   2.590   3.493   7.747 -0.0471 -0.1210 -0.2668
 4163W        W 8227   7.904  10.188   3.044 -0.1386  0.0554  0.1022
 4164W        W 8228   2.753   8.296   2.770 -0.0381  0.1477  0.0241
 4165W        W 8229   2.810   3.915  10.214 -0.2478  0.0029 -0.0938
 4166W        W 8230   0.593   6.698  10.921  0.1271 -0.1788 -0.1795
 4167W        W 8231   4.613   7.278   9.999 -0.0082  0.1128  0.2829
 4168W        W 8232   0.732   5.093   2.640  0.1802 -0.0196  0.1675
 4169W        W 8233   9.829   1.020   9.826  0.0561  0.3594  0.3142
 4170W        W 8234  10.667   9.407   8.453 -0.1147  0.0369 -0.0628
 4171W        W 8235   4.313  10.284  10.050 -0.2226 -0.1008 -0.2453
 4172W        W 8236   5.247   8.330   0.600  0.0639 -0.1457 -0.1148
 4173W        W 8237   7.773   3.288  10.120 -0.1148  0.1717 -0.0862
 4174W        W 8238   5.583   8.965   1.086 -0.2708  0.1018 -0.2513
 4175W        W 8239   1.376   8.260   9.032  0.0153  0.1532 -0.1003
 4176W        W 8240   4.829   8.105   8.467  0.2104  0.1782  0.0463
 4177W        W 8241   5.703   0.644   9.463 -0.3428  0.0088  0.2201
 4178W        W 8242   1.318   9.275   9.341 -0.1663 -0.2990 -0.1219
 4179W        W 8243   3.360   1.559   0.561 -0.0688 -0.0483 -0.2603
 4180W        W 8244   4.049   1.780   8.882  0.1680  0.2870 -0.2521
 4181W        W 8245   1.227  10.386   3.923 -0.4410  0.0335  0.0149
 4182W        W 8246   9.682   4.586   7.593 -0.3016  0.1474  0.1233
 4183W        W 8247   6.111   7.862  10.860 -0.2144 -0.0189 -0.0012
 4184W        W 8248   0.037   7.746   3.594 -0.2020  0.1080  0.1702
 4185W        W 8249   0.641   5.385   7.465 -0.3397  0.1155  0.0987
 4186W        W 8250   3.660   6.022   9.687  0.1315 -0.1745 -0.0843
 4187W        W 8251   5.543   6.205   9.568  0.0274  0.3132  0.4252
 4188W        W 8252   0.202   7.024  10.067 -0.2040  0.0107 -0.0868
 4189W        W 8253   9.977   5.494   9.363 -0.1216  0.0086 -0.2585
 4190W        W 8254   5.239   6.928   8.865  0.2962  0.1538  0.0930
 4191W        W 8255   5.756   7.327   1.356 -0.3163 -0.1145 -0.0584
 4192W        W 8256  10.247   9.428   3.023  0.2609 -0.0599 -0.3492
 4193W        W 8257   0.775   1.100  10.451 -0.0612 -0.1898 -0.1481
 4194W        W 8258   2.748   1.666  10.276 -0.1987  0.0039 -0.0988
 4195W        W 8259   5.323   0.036   2.998  0.1684 -0.1581  0.1252
 4196W        W 8260  10.381   9.987  10.003 -0.0640 -0.1564 -0.3537
 4197W        W 8261   7.408   0.317   2.613  0.1937  0.1094  0.1066
 4198W        W 8262   2.133   5.204   9.625 -0.0236 -0.0561 -0.0350
 4199W        W 8263   1.106   9.519   8.960  0.4110  0.1258  0.0514
 4200W        W 8264   2.360   4.577   1.712 -0.1131  0.0236 -0.0371
 4201W        W 8265   3.855   0.820   1.984 -0.1377  0.0871  0.3197
 4202W        W 8266   4.983   7.659   8.619 -0.2607 -0.2388 -0.0370
 4203W        W 8267   3.140   2.364   3.924 -0.0597 -0.1706  0.0791
 4204W        W 8268   4.497   0.332   2.317  0.0701  0.1802  0.1046
 4205W        W 8269   5.250   1.883   2.995  0.0224  0.2163  0.1542
 4206W        W 8270   5.609   2.846  10.128 -0.0397  0.0794  0.3083
 4207W        W 8271   9.114  10.342   1.723 -0.1345  0.1622  0.1119
 4208W        W 8272   8.907   2.694   2.024  0.0784  0.2941  0.1187
 4209W        W 8273   3.106   4.886   2.060 -0.4750 -0.3231  0.2535
 4210W        W 8274   9.378   9.580   3.660 -0.1148 -0.0072 -0.0180
 4211W        W 8275   6.535   9.514   2.851 -0.0759  0.1038 -0.2631
 4212W        W 8276   8.127   3.131   8.615  0.2892 -0.0254  0.0641
 4213W        W 8277   1.304   7.078  10.994 -0.0363 -0.1283  0.1468
 4214W        W 8278   3.365   6.112   9.033 -0.1746 -0.0206 -0.0929
 4215W        W 8279   1.478   1.788   8.739 -0.1690  0.0511  0.0026
 4216W        W 8280   8.372   3.902   1.496  0.0151  0.2011  0.0556
 4217W        W 8281   3.024   0.422   8.424  0.0814  0.0926 -0.4867
 4218W        W 8282   6.615   5.817   0.240  0.0233 -0.2463 -0.0750
 4219W        W 8283   0.853   8.332   8.913  0.1791 -0.1905  0.0148
 4220W        W 8284   8.282   8.024  10.967 -0.0346 -0.2261  0.1896
 4221W        W 8285   5.349   8.699   0.268 -0.0528  0.0531  0.1796
 4222W        W 8286   4.866   1.593  10.255 -0.0173  0.2431 -0.0950
 4223W        W 8287  10.090   8.621   1.625 -0.0078 -0.0470 -0.2610
 4224W        W 8288   8.416   8.612   3.023 -0.2074  0.1159 -0.0136
 4225W        W 8289   3.325   0.571  10.585 -0.0522 -0.3624 -0.0981
 4226W        W 8290   7.738   1.930   3.533 -0.0374  0.1828 -0.1682
 4227W        W 8291   8.572   0.570   0.764  0.2545  0.1351 -0.4091
 4228W        W 8292   8.842   3.448   7.747 -0.2637  0.0974  0.0444
 4229W        W 8293  10.377  10.748   3.807 -0.1593  0.3290  0.1847
 4230W        W 8294   3.720   2.064   9.458  0.1222 -0.0597  0.2922
 4231W        W 8295   2.782  10.275   8.916 -0.0622 -0.0652  0.0684
 4232W        W 8296  10.142   4.098   2.280  0.1171  0.0890 -0.0138
 4233W        W 8297   4.699   2.006   8.485 -0.4476 -0.0986 -0.3838
 4234W        W 8298   3.976   9.036   0.763 -0.4114  0.2664  0.0145
 4235W        W 8299   5.346   7.163   9.908 -0.2584 -0.0836  0.1141
 4236W        W 8300   1.913  10.223   3.147  0.1762 -0.1179 -0.0621
 4237W        W 8301   7.464   9.912   2.866 -0.0770 -0.0382  0.1601
 4238W        W 8302   5.727   8.766   0.652 -0.1495 -0.1725 -0.0739
 4239W        W 8303   5.810   8.186   8.499 -0.0447  0.2502 -0.0975
 4240W        W 8304   9.169   4.795   9.505  0.1765  0.1059 -0.2205
 4241W        W 8305   8.937   1.337   8.885  0.1031  0.0029  0.0684
 4242W        W 8306   1.764  10.102   9.425 -0.1000 -0.0587 -0.0098
 4243W        W 8307   5.942   7.664   2.465 -0.0870 -0.0971 -0.2506
 4244W        W 8308   4.894   2.595   0.891 -0.0541  0.3407 -0.1286
 4245W        W 8309   1.153   6.642   1.619 -0.2819 -0.1968  0.1432
 4246W        W 8310   2.196   0.201   0.747 -0.0742  0.0222 -0.0590
 4247W        W 8311   2.432   6.999   9.740 -0.3387 -0.2310  0.0218
 4248W        W 8312   0.566   5.359   3.112 -0.1711 -0.0034 -0.0630
 4249W        W 8313   6.654   4.372   9.857 -0.1886  0.1842  0.2477
 4250W        W 8314   5.943   9.823   2.253 -0.0088  0.1229  0.1447
 4251W        W 8315   7.999   3.985   2.538 -0.1968 -0.0427 -0.0970
 4252W        W 8316   3.796   1.153  11.169  0.3514  0.1915 -0.0145
 4253W        W 8317   1.984   7.630   3.271 -0.0188 -0.1766 -0.0621
 4254W        W 8318   3.820   9.586   1.934  0.1516  0.0796 -0.2617
 4255W        W 8319   0.170   5.673   8.655  0.0789 -0.0056 -0.1355
 4256W        W 8320   2.895   7.749  10.380 -0.0474  0.1083 -0.0570
 4257W        W 8321   2.146  10.547   7.486  0.0474 -0.0806 -0.1679
 4258W        W 8322   6.926   5.928   0.621 -0.3093 -0.2581 -0.1358
 4259W        W 8323   2.087   1.324  10.242  0.1280  0.0239 -0.1274
 4260W        W 8324   5.241   5.599  10.736  0.0668 -0.0067 -0.2160
 4261W        W 8325   5.469   0.889   9.845  0.0647 -0.1582 -0.2483
 4262W        W 8326   5.478   4.659   9.645  0.0903 -0.0171  0.1876
 4263W        W 8327   9.486   2.977  11.245  0.0019  0.1456 -0.0186
 4264W        W 8328   0.506   8.787  10.555 -0.1449 -0.1733  0.0397
 4265W        W 8329   9.975   2.168   8.320  0.1399 -0.1040 -0.0214
 4266W        W 8330   5.847   2.427   0.951 -0.0224  0.2534 -0.2791
 4267W        W 8331   0.678   0.326   1.416  0.0890  0.2416 -0.0775
 4268W        W 8332   5.668  10.569  10.043  0.1102 -0.0337  0.0095
 4269W        W 8333   6.157   4.546   1.929 -0.2985  0.2187  0.1526
 4270W        W 8334   4.438   3.545   1.369 -0.0630 -0.3357  0.0495
 4271W        W 8335  10.023   4.769   2.294 -0.1053 -0.1162 -0.0784
 4272W        W 8336   4.231   1.858   1.409  0.0384  0.0790 -0.2129
 4273W        W 8337   3.691   6.752  10.012  0.1330  0.0764  0.0622
 4274W        W 8338   3.210   1.731  11.058 -0.1059  0.2592  0.1397
 4275W        W 8339   9.330   9.133   2.612 -0.0037  0.0229 -0.0337
 4276W        W 8340   9.842   8.534   2.931  0.0732 -0.1298  0.0154
 4277W        W 8341   9.721   7.674   1.716  0.3333 -0.1792 -0.2054
 4278W        W 8342   5.582   0.848  10.839 -0.1111 -0.1899 -0.0021
 4279W        W 8343   2.818   9.430   2.389  0.0858  0.0103 -0.1541
 4280W        W 8344   0.594   7.786   0.111  0.2587 -0.0431 -0.2708
 4281W        W 8345   3.234   4.504   7.994  0.2903  0.0822  0.1395
 4282W        W 8346   9.881   4.565   9.562 -0.2193 -0.2856 -0.0598
 4283W        W 8347   9.548   7.436   4.106 -0.1737 -0.1086  0.0361
 4284W        W 8348   8.506   1.241  11.152 -0.2230  0.1199  0.2374
 4285W        W 8349   8.664   3.662   0.228  0.2614 -0.2952  0.0024
 4286W        W 8350   8.662   2.666   4.654  0.0991 -0.1328  0.1430
 4287W        W 8351   8.863   4.027   1.803 -0.3880 -0.0387 -0.2723
 4288W        W 8352   6.200   5.460   8.178 -0.1177 -0.2409  0.3021
 4289W        W 8353   7.896   6.626   0.302  0.0546 -0.0726 -0.1613
 4290W        W 8354   9.089   3.230   1.193 -0.0710 -0.1218 -0.0479
 4291W        W 8355   7.557   1.218   8.492  0.2102  0.3129 -0.2326
 4292W        W 8356   2.464   7.356   0.982 -0.1403 -0.1257  0.4022
 4293W        W 8357  10.314   5.986   9.750 -0.0156 -0.1569  0.1372
 4294W        W 8358   8.816   1.597   2.004 -0.1067 -0.1667 -0.1290
 4295W        W 8359   8.547   5.977   8.766  0.2295  0.0000  0.0004
 4296W        W 8360   7.369   3.057   9.937 -0.2824  0.1863  0.0089
 4297W        W 8361   2.385   3.401  10.819  0.1966  0.0886  0.0407
 4298W        W 8362   5.655   1.498   1.225  0.2115 -0.1521 -0.1112
 4299W        W 8363   1.322   2.241   2.795  0.0278  0.0862 -0.0234
 4300W        W 8364   7.104   1.082   0.345 -0.1838  0.0706 -0.3907
 4301W        W 8365   2.894   8.051   9.893 -0.1749  0.1877  0.0475
 4302W        W 8366   8.452   0.031   3.560  0.1341  0.0945  0.2548
 4303W        W 8367   2.949   0.430   2.073 -0.0124  0.1171 -0.0026
 4304W        W 8368   4.313   6.080   0.084 -0.0109 -0.0072  0.0336
 4305W        W 8369   6.321   0.085  10.984  0.0067 -0.1630 -0.0403
 4306W        W 8370   3.041   8.023   0.647 -0.3305 -0.1881  0.0268
 4307W        W 8371  10.459   6.087   8.852 -0.2152 -0.1958  0.1640
 4308W        W 8372   5.794   3.865   8.933 -0.2024 -0.1313 -0.1644
 4309W        W 8373   3.393   3.571   9.157 -0.1205 -0.0792  0.1629
 4310W        W 8374   0.935   5.179   1.189 -0.0472  0.1221 -0.0281
 4311W        W 8375   9.075   8.505  10.754  0.1515  0.0591 -0.0257
 4312W        W 8376   8.853   5.664  10.906 -0.2195 -0.3130 -0.0772
 4313W        W 8377   8.532   8.039   1.022  0.1626  0.3428 -0.5037
 4314W        W 8378   5.530   8.129   3.975  0.2975  0.2747  0.1282
 4315W        W 8379   1.420  10.406   2.928  0.1721 -0.0711  0.0894
 4316W        W 8380   8.281   3.875   9.791 -0.0591  0.0389  0.1019
 4317W        W 8381   3.955   3.813  10.005 -0.1197  0.0800 -0.2431
 4318W        W 8382   8.805   5.379   8.147  0.1680 -0.1642 -0.0655
 4319W        W 8383   7.252   2.415   0.014  0.1044 -0.1496 -0.0560
 4320W        W 8384   0.468   1.304   0.112 -0.1742  0.1936 -0.1702
 4321W        W 8385   5.782   7.580  11.090 -0.0506 -0.1061 -0.3336
 4322W        W 8386   8.279   4.393   0.722 -0.1709  0.0832  0.1932
 4323W        W 8387  10.219   7.671  10.089  0.1081 -0.2629  0.2046
 4324W        W 8388   2.265   4.019   1.604  0.0312 -0.2419  0.2205
 4325W        W 8389   7.374   4.784  10.363  0.2344 -0.1078 -0.0228
 4326W        W 8390   9.844   3.329  11.183 -0.1903 -0.2452  0.1755
 4327W        W 8391   3.817   7.750  10.474  0.0384  0.1175  0.0245
 4328W        W 8392   3.002   0.243   0.871  0.3940  0.2161 -0.2228
 4329W        W 8393   6.056   7.514   0.951 -0.1879 -0.0378 -0.0242
 4330W        W 8394   3.917   9.928   3.113  0.0631 -0.0029 -0.2910
 4331W        W 8395   0.267   3.460   9.214 -0.1454  0.3362 -0.0453
 4332W        W 8396   5.385   1.414   7.855 -0.1563  0.0921 -0.1800
 4333W        W 8397   6.420   9.916  11.000 -0.2788 -0.1111  0.0069
 4334W        W 8398   7.767   3.561   0.448 -0.1311 -0.0922  0.0645
 4335W        W 8399   8.138   8.132  10.459  0.0569  0.0287 -0.2594
 4336W        W 8400   6.033   7.141  10.077 -0.1043  0.0987  0.0283
 4337W        W 8401   1.375   0.371   1.354  0.0398 -0.1206  0.3100
 4338W        W 8402   8.765  10.334   2.587 -0.0664 -0.0540 -0.0243
 4339W        W 8403   3.002   3.419   3.476  0.0205 -0.0399 -0.2510
 4340W        W 8404   2.228   0.301   3.483 -0.0984  0.0078 -0.0715
 4341W        W 8405   8.140   8.443   7.796  0.0678  0.0242  0.1887
 4342W        W 8406   1.198   5.886  11.275  0.1110  0.1671  0.1069
 4343W        W 8407   6.856   4.569   9.360  0.3241 -0.2649  0.1888
 4344W        W 8408   9.427   6.488   8.323 -0.0602 -0.0427 -0.0429
 4345W        W 8409   8.371   0.643  10.226  0.2382  0.1338  0.0498
 4346W        W 8410   3.739   6.398   9.243 -0.1277 -0.0031  0.1602
 4347W        W 8411   6.369   6.383  10.740  0.1598 -0.0023 -0.0246
 4348W        W 8412   1.348   2.465   0.108  0.1458  0.1112 -0.1636
 4349W        W 8413   4.683   6.824  10.596 -0.1100 -0.0791 -0.0667
 4350W        W 8414   4.485   9.204   9.185  0.2492  0.4691 -0.6314
 4351W        W 8415   5.436   1.379   9.823  0.3739 -0.2494 -0.0139
 4352W        W 8416   0.742   2.208   9.809  0.0638 -0.2424  0.0263
 4353W        W 8417   7.953   4.289   9.864  0.2221  0.2963  0.1873
 4354W        W 8418   3.254   1.900   8.210  0.1282  0.3190 -0.1797
 4355W        W 8419   6.948   9.933   1.554  0.1299  0.0116  0.3453
 4356W        W 8420   9.331   7.926   7.925 -0.2595 -0.2402 -0.1472
 4357W        W 8421   0.157   7.551   1.227 -0.0735  0.3130 -0.0136
 4358W        W 8422   1.745   4.304   9.316 -0.0371 -0.3797  0.0344
 4359W        W 8423   9.647   0.384  10.800 -0.0512 -0.1380  0.1320
 4360W        W 8424   5.343   9.246   8.269 -0.1591  0.2716 -0.0747
 4361W        W 8425   4.785   8.201   0.607 -0.0219 -0.0444 -0.1933
 4362W        W 8426   9.087   9.784   4.005  0.1677  0.2213  0.0027
 4363W        W 8427   7.195  10.349   2.960  0.1977  0.1745  0.0021
 4364W        W 8428   9.925   9.494   9.128  0.3343 -0.2859  0.1742
 4365W        W 8429   4.412   5.562  11.098  0.0786 -0.2219  0.1366
 4366W        W 8430   0.713   3.032   0.854 -0.2113  0.0227  0.2811
 4367W        W 8431   4.991   0.211  10.669  0.0663 -0.1593 -0.1249
 4368W        W 8432   2.479   5.271   2.872 -0.1414  0.1004 -0.3179
 4369W        W 8433   9.389   1.827  10.804  0.0763  0.4073 -0.0802
 4370W        W 8434   6.883   8.133  11.133 -0.2368  0.0049  0.1303
 4371W        W 8435  10.548   6.918   7.592  0.2279  0.1167 -0.2639
 4372W        W 8436   3.003  10.010  10.119 -0.2849 -0.0675 -0.4263
 4373W        W 8437   8.594   2.074   2.115 -0.1021  0.1333 -0.0321
 4374W        W 8438   7.897   8.713   0.043 -0.2388 -0.0087  0.1004
 4375W        W 8439   4.576   0.929   1.046  0.2249 -0.2394  0.0169
 4376W        W 8440   4.759   6.766   1.676 -0.0208  0.0127 -0.0469
 4377W        W 8441   5.291  10.420   2.089  0.1126 -0.2608  0.2743
 4378W        W 8442   0.574   7.794   3.491  0.2888 -0.2922 -0.0452
 4379W        W 8443   3.880   3.584   2.090  0.1693  0.0156  0.2997
 4380W        W 8444   4.509   0.851   0.485 -0.0043  0.2851 -0.0292
 4381W        W 8445   0.310   3.344   0.712  0.0936 -0.2223 -0.0712
 4382W        W 8446   5.266   0.139   1.927 -0.0788  0.0755  0.0653
 4383W        W 8447   1.368   7.380   0.676  0.2584 -0.2026 -0.1727
 4384W        W 8448  10.329   0.064   7.963 -0.2930  0.2655  0.1452
 4385W        W 8449   2.801   8.025   1.500 -0.0621 -0.0342  0.2179
 4386W        W 8450   2.526   6.469   8.807  0.1900  0.1468 -0.1724
 4387W        W 8451   1.962   8.737   9.713  0.2308 -0.2625  0.1231
 4388W        W 8452   7.615   8.634  10.488  0.2465  0.1471 -0.0746
 4389W        W 8453   7.994   4.763   2.351 -0.1282  0.2360  0.1210
 4390W        W 8454   7.356   0.375   2.056 -0.0146 -0.3118  0.1542
 4391W        W 8455   5.065   3.326   2.620 -0.1310  0.0510 -0.1693
 4392W        W 8456   4.769  10.604  11.091  0.1770 -0.0408  0.0132
 4393W        W 8457   0.850   0.061   2.858 -0.1560  0.0621 -0.0602
 4394W        W 8458   0.238   0.661   2.383 -0.0259 -0.0356  0.2458
 4395W        W 8459   5.098   3.140   0.127  0.1251 -0.0819  0.2541
 4396W        W 8460   6.600   2.607   0.203 -0.1300  0.0697 -0.0043
 4397W        W 8461   3.198   7.886   1.121 -0.1161  0.0333 -0.2560
 4398W        W 8462   1.498   3.706   1.014  0.0112 -0.0795 -0.1204
 4399W        W 8463   4.548   6.849   8.799  0.1477  0.1605  0.1207
 4400W        W 8464   6.025   7.336   8.463 -0.0370 -0.1908 -0.2187
 4401W        W 8465   9.599   7.037   0.423 -0.0441  0.2347 -0.2193
 4402W        W 8466   2.147   7.683   0.838  0.0585  0.0941  0.0505
 4403W        W 8467  10.172   5.337   3.123  0.0597  0.2128  0.3252
 4404W        W 8468   2.056   6.043   0.066 -0.2278 -0.4742  0.2623
 4405W        W 8469   3.625   5.871   8.561 -0.0711  0.0775  0.1379
 4406W        W 8470   8.984   3.188   9.627  0.1160 -0.2142 -0.1479
 4407W        W 8471   8.140   3.091   9.089 -0.2514  0.3154  0.0519
 4408W        W 8472   6.877   1.447   1.463 -0.1589  0.1509  0.1368
 4409W        W 8473  10.229   6.040  10.796  0.2719  0.2124 -0.1591
 4410W        W 8474   1.690   8.093   1.958 -0.1408 -0.0009 -0.2395
 4411W        W 8475   9.500   5.572   9.265 -0.2505  0.0510 -0.0660
 4412W        W 8476   0.337   6.553   1.832 -0.1318  0.0648  0.1002
 4413W        W 8477  10.054   7.933   3.217  0.2784 -0.0148 -0.0130
 4414W        W 8478   6.333   9.648   9.535  0.0194  0.0597 -0.0574
 4415W        W 8479   6.882   4.755  10.614  0.0328  0.1379  0.3895
 4416W        W 8480  10.751   9.046   1.454  0.1275  0.0146  0.1269
 4417W        W 8481   8.580   1.637   4.174  0.0550 -0.3290 -0.2757
 4418W        W 8482   0.500   8.308   2.172 -0.1646  0.0138  0.2785
 4419W        W 8483   1.292   8.881   1.863 -0.3161  0.1241 -0.1369
 4420W        W 8484   0.550   3.689  11.152  0.1872  0.0347  0.0857
 4421W        W 8485   4.965   0.286   3.149  0.1204  0.0653 -0.0359
 4422W        W 8486   6.904   9.944   2.537  0.4518  0.0648 -0.0277
 4423W        W 8487   3.314   0.818   0.267  0.2958  0.0432 -0.0515
 4424W        W 8488   2.931  10.242  11.184 -0.1736  0.3217  0.0720
 4425W        W 8489   0.704   9.904   0.178  0.2310  0.2385  0.2127
 4426W        W 8490   7.146   8.690  11.158 -0.0713  0.0198 -0.0802
 4427W        W 8491  10.510   5.062  10.849  0.0052  0.1286 -0.2099
 4428W        W 8492   7.704   3.371   1.350  0.0962  0.0997  0.0575
 4429W        W 8493   9.947   8.514   8.860  0.0833  0.0422 -0.2262
 4430W        W 8494  10.098   5.708   7.968  0.1329  0.0682  0.0480
 4431W        W 8495   4.379   9.921   3.362 -0.3150 -0.0347 -0.1046
 4432W        W 8496   9.298   6.013   8.928 -0.2523  0.0847  0.0155
 4433W        W 8497  10.727  10.004  11.030  0.0852  0.0521  0.1485
 4434W        W 8498   0.549   1.809   1.441 -0.0280 -0.0933  0.0187
 4435W        W 8499   8.299   6.256   0.457 -0.1035 -0.2647 -0.0634
 4436W        W 8500   1.832   3.269  10.732  0.0995  0.2207 -0.0478
 4437W        W 8501   1.065   0.582   9.878  0.0085 -0.3787 -0.0260
 4438W        W 8502   9.334   9.506   9.912  0.1009  0.2142 -0.0314
 4439W        W 8503   7.671   4.327   2.595 -0.2798 -0.3561  0.3074
 4440W        W 8504  10.332   6.672   3.475  0.3249 -0.1294  0.2355
 4441W        W 8505   0.847   4.304  10.457  0.1462  0.0096  0.2757
 4442W        W 8506   1.764   5.350   8.679 -0.1978  0.2445 -0.1409
 4443W        W 8507   0.664   4.376   9.996  0.0340  0.0204  0.0636
 4444W        W 8508   5.444   6.102  10.532  0.0969 -0.1350  0.0446
 4445W        W 8509   6.579   0.520   2.887  0.3270  0.4000  0.2569
 4446W        W 8510   9.785   8.548   7.718  0.0028 -0.3474  0.1195
 4447W        W 8511   0.270   8.353  10.743 -0.5310  0.1950  0.2428
 4448W        W 8512   9.646   9.106   0.551 -0.1859  0.2180 -0.3069
 4449W        W 8513   7.986   6.961   7.951 -0.0726  0.2443 -0.0670
 4450W        W 8514   7.121   9.138   6.990  0.0550 -0.0531  0.3938
 4451W        W 8515   9.997   7.714   1.290 -0.0509  0.0124  0.1214
 4452W        W 8516   9.695   5.407   1.758 -0.1436  0.1260  0.0717
 4453W        W 8517   2.793   2.516   1.296 -0.0087  0.3047  0.0789
 4454W        W 8518   7.694  10.242   1.961 -0.0407  0.1995 -0.0870
 4455W        W 8519   2.306   3.455   1.645 -0.1762  0.0779 -0.2364
 4456W        W 8520   5.577  10.144   8.930  0.1550 -0.0491 -0.1882
 4457W        W 8521   8.689   1.522   9.277 -0.1404  0.1999  0.0296
 4458W        W 8522   3.835   5.856   0.343 -0.0205 -0.2545 -0.1387
 4459W        W 8523   5.734   9.175   2.681  0.0145 -0.1911 -0.2652
 4460W        W 8524   5.699  10.496   1.145 -0.0162  0.2403  0.0878
 4461W        W 8525   1.567   4.472   0.113 -0.1615  0.1615  0.0611
 4462W        W 8526   7.895   2.524   1.962 -0.3267  0.0221  0.0499
 4463W        W 8527   4.211   1.654  10.796 -0.0695  0.3641 -0.0101
 4464W        W 8528   3.419   9.000   0.784 -0.1513 -0.0158  0.1597
 4465W        W 8529   8.393   5.574  10.641 -0.0036  0.3858 -0.1923
 4466W        W 8530   5.319   3.773   2.541 -0.0851  0.0579  0.4058
 4467W        W 8531   7.141   9.806   9.188 -0.0212  0.1426 -0.2617
 4468W        W 8532   9.403   5.853   1.907  0.0594 -0.1399 -0.1553
 4469W        W 8533   2.417   1.620   9.463 -0.1875  0.1432  0.1949
 4470W        W 8534   0.461  10.499   9.900 -0.0086 -0.0776 -0.2354
 4471W        W 8535   5.246  10.037   8.589 -0.2555  0.1949 -0.4636
 4472W        W 8536   6.965   5.413   2.351 -0.1017  0.0338 -0.0043
 4473W        W 8537   7.038   7.015  11.224 -0.0708  0.1551 -0.0562
 4474W        W 8538   5.190   6.909   3.468 -0.1636 -0.1359  0.0646
 4475W        W 8539   9.115  10.014   3.560 -0.5807  0.1096 -0.1456
 4476W        W 8540   4.163   6.389   0.927  0.0827 -0.0870 -0.0180
 4477W        W 8541   6.457   1.513   1.740  0.1389  0.4760 -0.1821
 4478W        W 8542   8.430  10.391   3.835  0.1964  0.1704 -0.2732
 4479W        W 8543   3.721   4.268   3.687 -0.0136 -0.1071 -0.0171
 4480W        W 8544   6.259   4.235   8.207  0.3297 -0.0669 -0.0221
 4481W        W 8545   0.274  10.306  10.594 -0.0311 -0.0459 -0.2939
 4482W        W 8546   1.718   3.966   8.456  0.1972  0.0853  0.1810
 4483W        W 8547   2.589   1.381   0.325 -0.4726  0.0227 -0.1024
 4484W        W 8548   8.783   8.740   9.364  0.0259  0.1647  0.3858
 4485W        W 8549   9.241  10.756   2.775  0.1459  0.1361 -0.0422
 4486W        W 8550  10.238   4.378   0.984  0.0542  0.0513 -0.4398
 4487W        W 8551   5.875   4.112   2.163 -0.3109 -0.0085  0.2998
 4488W        W 8552   1.762   1.472   8.999 -0.0718 -0.1234  0.1023
 4489W        W 8553   9.146   7.612   7.607 -0.1381  0.1943 -0.0689
 4490W        W 8554   0.608   5.481   0.368 -0.1352 -0.2615 -0.3459
 4491W        W 8555   6.634   4.039   2.560  0.2066  0.1009 -0.1994
 4492W        W 8556   3.561   3.115   9.792  0.0483  0.1468  0.1531
 4493W        W 8557   7.930   1.682   1.457 -0.1186  0.0487 -0.1158
 4494W        W 8558   1.613  10.648   1.062 -0.0684  0.3082  0.2645
 4495W        W 8559   4.062   8.807  10.232 -0.0128 -0.2048  0.2392
 4496W        W 8560   5.245   5.460   3.665 -0.0238 -0.3180  0.0928
 4497W        W 8561  10.172  10.742   9.519 -0.1961  0.4527 -0.1893
 4498W        W 8562   1.143   2.088   8.349  0.2211  0.0162 -0.0187
 4499W        W 8563  10.182   7.012   8.442 -0.1159 -0.0307  0.0524
 4500W        W 8564   0.381   5.916  10.817 -0.0704  0.0944  0.2831
 4501W        W 8565   4.068   7.658   8.541  0.0123 -0.5429  0.4045
 4502W        W 8566   0.217   0.622   1.561 -0.2675 -0.1728 -0.1539
 4503W        W 8567   5.568   6.304   3.769  0.0373  0.1538  0.0205
 4504W        W 8568   1.025   5.058   3.242  0.3002  0.1487 -0.1554
 4505W        W 8569   1.915   6.272   1.585 -0.0379  0.3505 -0.0158
 4506W        W 8570   7.493   5.579   8.529 -0.0012 -0.3533 -0.0224
 4507W        W 8571   3.077   4.194   9.800 -0.0402 -0.1362 -0.2169
 4508W        W 8572   7.196   6.346   0.614 -0.0330 -0.0585  0.1586
 4509W        W 8573   9.117   6.337   2.766 -0.4161  0.0895  0.0639
 4510W        W 8574   0.625  10.669  10.727  0.5106  0.1437  0.0689
 4511W        W 8575   9.190   5.212   7.319 -0.0910 -0.2971  0.1496
 4512W        W 8576   2.408   4.158   0.826 -0.0275  0.0598  0.0612
 4513W        W 8577   0.877   2.759   1.740 -0.0913 -0.3661 -0.0445
 4514W        W 8578   9.801   8.542   9.879 -0.2231  0.0852 -0.2841
 4515W        W 8579   0.132   0.051   4.454  0.2636 -0.1279 -0.1677
 4516W        W 8580  10.490   1.533   3.527 -0.1418 -0.1522  0.0283
 4517W        W 8581   5.133   5.302   1.766  0.2173 -0.1660  0.1859
 4518W        W 8582   7.455   8.126   9.097 -0.0254 -0.1514 -0.0920
 4519W        W 8583  10.013   6.321   9.522 -0.0829 -0.3368  0.0989
 4520W        W 8584   4.830  10.160   0.021  0.1349  0.3730 -0.3374
 4521W        W 8585   4.562   1.664   7.843  0.0455  0.3869  0.2029
 4522W        W 8586   9.108   7.107   0.658  0.1578 -0.0724 -0.2390
 4523W        W 8587   3.031   3.558  10.520  0.1369  0.2506  0.1980
 4524W        W 8588   2.830   8.379   3.243 -0.2012  0.2569 -0.0288
 4525W        W 8589   2.288   1.023   0.081 -0.0333  0.1749  0.3222
 4526W        W 8590  10.662   6.890   2.610 -0.1051 -0.2462 -0.0360
 4527W        W 8591   4.476  10.377   3.877  0.1406 -0.1020  0.3153
 4528W        W 8592   1.461   8.953  10.305 -0.1096  0.4363  0.1563
 4529W        W 8593   7.751   3.208   0.798 -0.0372 -0.0921 -0.1712
 4530W        W 8594   0.840  10.065   9.841  0.1797 -0.2443 -0.2096
 4531W        W 8595   9.569  10.345   1.500 -0.1668  0.0211 -0.0479
 4532W        W 8596   5.875   1.817   2.104  0.2199 -0.0098 -0.0586
 4533W        W 8597   7.869   8.304   8.754 -0.2811  0.1927  0.3675
 4534W        W 8598   5.712   4.870  10.073 -0.2247  0.1564 -0.1401
 4535W        W 8599   6.339   8.007   9.832 -0.1794 -0.0923  0.3035
 4536W        W 8600   8.635   6.111   2.606  0.1157 -0.0447 -0.3619
 4537W        W 8601   5.658  10.296   8.083 -0.2488  0.1062 -0.5058
 4538W        W 8602   0.250   6.371   9.378 -0.2833  0.5583 -0.1612
 4539W        W 8603   2.799   6.873   2.808  0.3217  0.2661  0.0879
 4540W        W 8604   8.472   4.025   2.229  0.1440 -0.1297 -0.0087
 4541W        W 8605   1.389   6.948   2.668  0.1875  0.1547 -0.3178
 4542W        W 8606   5.834   7.837   7.189  0.0694 -0.0940  0.1407
 4543W        W 8607   1.966   8.099   3.203 -0.2146  0.1833  0.0101
 4544W        W 8608   8.548   2.474   9.770 -0.3216  0.0483 -0.3191
 4545W        W 8609   0.105   7.442  11.132 -0.1745  0.0527 -0.1293
 4546W        W 8610   4.724  10.063  10.404  0.0283 -0.0999  0.1240
 4547W        W 8611   0.586   5.386  10.695  0.2960  0.1103  0.2218
 4548W        W 8612   7.685   3.549   3.048 -0.1698  0.2546  0.2078
 4549W        W 8613   8.237   1.241   6.056 -0.1791 -0.0576  0.0787
 4550W        W 8614   9.021   6.345   8.670  0.1367  0.0185 -0.1902
 4551W        W 8615   3.111   7.345   2.523 -0.0579 -0.1529  0.1388
 4552W        W 8616   7.834   9.498   1.651  0.0006 -0.2529 -0.0164
 4553W        W 8617   8.607  10.194   1.187  0.1369  0.2614  0.0203
 4554W        W 8618   0.123   7.895  11.318  0.0791  0.1171 -0.2371
 4555W        W 8619   0.291   5.269   2.422  0.0967 -0.0829  0.0728
 4556W        W 8620   6.519   8.764   0.804 -0.2633 -0.1217 -0.2527
 4557W        W 8621   5.399  10.641  10.564  0.0858 -0.1903  0.1344
 4558W        W 8622   3.187   7.997   3.499 -0.2430 -0.1693 -0.1422
 4559W        W 8623   8.355   7.472  11.231 -0.1705 -0.0820  0.0785
 4560W        W 8624   9.816   5.084   0.749  0.1808  0.0774  0.1893
 4561W        W 8625   3.393   9.632   7.647 -0.1027 -0.0218 -0.2911
 4562W        W 8626   4.523   1.331   9.386  0.0362 -0.2921 -0.0172
 4563W        W 8627   7.221   9.021   9.052  0.1680  0.0308  0.1048
 4564W        W 8628   3.061   8.500   9.820 -0.1143 -0.1683 -0.1462
 4565W        W 8629   8.605   6.697   9.394  0.2174  0.4143 -0.0091
 4566W        W 8630   2.314   5.952   7.649  0.0443  0.0579 -0.0714
 4567W        W 8631   4.462   0.041   9.452  0.0203 -0.2200  0.2391
 4568W        W 8632   9.337   0.759   8.179  0.2458  0.1089 -0.1577
 4569W        W 8633   1.857   1.963   1.722  0.1887  0.1440 -0.3151
 4570W        W 8634   1.192   2.582   2.077 -0.0230 -0.2223 -0.1819
 4571W        W 8635   5.271   2.479   2.163 -0.1635 -0.1883 -0.1225
 4572W        W 8636   6.395   6.638   2.524 -0.1968 -0.0156 -0.0714
 4573W        W 8637   3.027   7.513   0.572 -0.2359 -0.1216  0.0249
 4574W        W 8638   2.877   5.817   9.191 -0.1951 -0.2297  0.2378
 4575W        W 8639   3.785   4.803  10.544  0.1941 -0.3669 -0.0132
 4576W        W 8640   4.970   0.789   0.175 -0.2202 -0.1917 -0.1363
 4577W        W 8641  10.282   3.701   9.925  0.0983  0.0967 -0.0634
 4578W        W 8642  10.411   8.236   9.273  0.0037  0.0411 -0.3364
 4579W        W 8643  10.295   5.789  11.273 -0.7045 -0.0489  0.2115
 4580W        W 8644   5.212   4.642   9.236 -0.1907 -0.1441 -0.2707
 4581W        W 8645   2.059   1.475   0.213  0.3418  0.0793  0.2389
 4582W        W 8646   6.947   0.793  10.414  0.2903 -0.0380  0.3061
 4583W        W 8647   6.393   4.574   9.466  0.0011 -0.0188  0.0016
 4584W        W 8648   1.944   5.665   9.564 -0.0618  0.1263 -0.5454
 4585W        W 8649   3.500   9.490   8.207 -0.1744 -0.0811  0.1704
 4586W        W 8650   2.389   5.620   9.805  0.0373  0.1278 -0.0881
 4587W        W 8651   5.315   1.147   8.779 -0.0316  0.0211  0.0639
 4588W        W 8652   8.474   8.100   7.979  0.3579  0.0597 -0.0181
 4589W        W 8653   4.452   2.689   2.325  0.1205 -0.1642 -0.0716
 4590W        W 8654   7.876   9.873   7.897 -0.2926  0.1140 -0.3665
 4591W        W 8655  10.753   6.780   8.523  0.0428 -0.1552  0.3786
 4592W        W 8656   9.422   7.762   2.352  0.2467  0.0567 -0.1781
 4593W        W 8657   0.841   2.617   1.182 -0.1959 -0.3000 -0.1232
 4594W        W 8658   1.288   3.832   8.665 -0.2297  0.2779 -0.5026
 4595W        W 8659   1.176   1.333   3.399  0.0310  0.0271  0.2050
 4596W        W 8660   0.687   2.587  10.654 -0.3649 -0.0138 -0.3288
 4597W        W 8661  10.538   5.516   1.257 -0.3990  0.0218 -0.2107
 4598W        W 8662   4.342   8.721   0.868  0.1055  0.3106  0.4674
 4599W        W 8663   5.531   9.638   8.692  0.1815 -0.0470 -0.0217
 4600W        W 8664   4.204   6.628  10.083  0.0834 -0.1033 -0.1830
 4601W        W 8665   6.702   9.426   2.366  0.0993  0.0331  0.1180
 4602W        W 8666   2.672   6.900  10.218  0.0499  0.2777 -0.0058
 4603W        W 8667   0.358   7.146   2.777 -0.0191  0.3216 -0.2896
 4604W        W 8668   7.687   5.560   9.427  0.0667 -0.0697 -0.1387
 4605W        W 8669   9.202   9.827   7.669 -0.2300 -0.0492  0.1073
 4606W        W 8670   7.980   2.571   8.135 -0.0665  0.3128 -0.1520
 4607W        W 8671   7.981   2.770   0.641 -0.0664  0.5199  0.1059
 4608W        W 8672   8.720  10.674   0.408 -0.1686  0.2773  0.2026
 4609W        W 8673   3.687  10.333   8.324  0.0748 -0.3582  0.2535
 4610W        W 8674   6.085   4.139   9.340  0.0343 -0.0727  0.0214
 4611W        W 8675   4.166   7.930  10.162 -0.1765  0.0197 -0.2494
 4612W        W 8676   2.813   2.165   8.381  0.0422  0.0621 -0.1072
 4613W        W 8677   3.864   6.024   2.357  0.2115 -0.0001  0.0419
 4614W        W 8678   4.741   4.253   6.463  0.3407 -0.0075  0.0170
 4615W        W 8679  10.649  10.737   9.682 -0.1727  0.0000 -0.2307
 4616W        W 8680   6.193   2.221   2.237  0.1191 -0.2724  0.1271
 4617W        W 8681   7.285   2.059  10.774  0.1647  0.2093 -0.1014
 4618W        W 8682   8.169   4.715   1.218  0.0885 -0.0249  0.1859
 4619W        W 8683   6.414   5.244  10.107 -0.1744  0.0213  0.0327
 4620W        W 8684   7.333   8.158   8.577 -0.1969  0.5215  0.1083
 4621W        W 8685   6.491   2.439   3.070 -0.1700 -0.1245  0.0073
 4622W        W 8686   1.988   0.363   7.730 -0.0766 -0.2331  0.1176
 4623W        W 8687   8.744   6.157   1.614  0.0308 -0.0950  0.0120
 4624W        W 8688   5.990   0.406   0.858  0.1968 -0.2896 -0.1362
 4625W        W 8689   1.452   9.426   1.893  0.1932 -0.0155 -0.0211
 4626W        W 8690  10.007   2.438   8.792 -0.1422 -0.1755  0.2190
 4627W        W 8691  10.719   4.563   1.833  0.0287 -0.0452 -0.0624
 4628W        W 8692  10.722   6.030   2.681  0.1143 -0.0661  0.0818
 4629W        W 8693   8.283   4.514   9.085  0.0605 -0.0609 -0.1631
 4630W        W 8694   9.823   9.576   0.392 -0.0508  0.2768 -0.0542
 4631W        W 8695   3.128   8.510   4.152 -0.1296  0.1591 -0.2071
 4632W        W 8696   8.671  10.232  10.427 -0.3377 -0.1830  0.0463
 4633W        W 8697   2.359   1.614   1.573  0.1432 -0.2253  0.0423
 4634W        W 8698   2.395   4.218   2.777  0.1871 -0.0693  0.0264
 4635W        W 8699   0.525   8.009   7.476 -0.2664  0.1575  0.1613
 4636W        W 8700   4.486   8.403   3.804 -0.2051 -0.2560 -0.1555
 4637W        W 8701   3.172   5.427  10.321  0.0555 -0.1193 -0.2214
 4638W        W 8702   9.967   6.653   1.523 -0.1205 -0.1611  0.1432
 4639W        W 8703   5.926   6.945   2.464  0.2334 -0.0347 -0.4301
 4640W        W 8704   0.583   3.132   1.986  0.1599  0.3544 -0.3349
 4641W        W 8705   5.270   2.230   2.622  0.0498 -0.2677 -0.1531
 4642W        W 8706  10.075  10.328   8.612  0.1332 -0.3357 -0.1762
 4643W        W 8707   4.213   1.265   2.162  0.2898  0.2992  0.1050
 4644W        W 8708   4.156   3.299   8.636  0.0836  0.3480  0.0814
 4645W        W 8709   6.019   9.392  10.908  0.2062  0.0253  0.0254
 4646W        W 8710   2.553  10.054   0.762 -0.1096 -0.2722 -0.0269
 4647W        W 8711   5.846   0.879   0.627  0.2645 -0.0292  0.1499
 4648W        W 8712  10.119   9.091   7.831  0.2512  0.1774 -0.3389
 4649W        W 8713   0.036   0.019   1.660 -0.0735 -0.1226  0.1505
 4650W        W 8714   9.698   0.961   1.679 -0.0532  0.1459  0.2116
 4651W        W 8715   8.833   0.220   3.264 -0.2318 -0.2661 -0.2427
 4652W        W 8716   1.674  10.449   2.374 -0.1616 -0.0691  0.0098
 4653W        W 8717   9.668   5.315  10.861  0.0900 -0.3011 -0.2781
 4654W        W 8718   6.822   0.945   1.543  0.2289  0.0550  0.3089
 4655W        W 8719   3.019  10.661   3.273 -0.2704  0.1490 -0.1026
 4656W        W 8720   2.420   6.069   2.390 -0.3992  0.1662 -0.3674
 4657W        W 8721   6.318   4.560   3.684 -0.0980  0.0809  0.0161
 4658W        W 8722   8.276   5.834   9.878 -0.3768  0.1479 -0.0318
 4659W        W 8723   4.666   6.424   2.050 -0.1455 -0.3280  0.0554
 4660W        W 8724   8.947   9.094  10.595  0.1048  0.0581  0.4418
 4661W        W 8725   7.772   1.769  10.668 -0.0106 -0.4864  0.2505
 4662W        W 8726   8.214   9.451   3.333  0.2397  0.4147 -0.1107
 4663W        W 8727  10.393   9.128  11.281 -0.0907  0.3673  0.1119
 4664W        W 8728   6.743   1.027   3.544  0.0702 -0.1112 -0.1999
 4665W        W 8729   5.348   1.037   0.342 -0.0062 -0.2796 -0.2830
 4666W        W 8730   8.044   1.442   9.963 -0.2909 -0.0499  0.1786
 4667W        W 8731   0.256   3.614   2.755 -0.1196 -0.0369 -0.5245
 4668W        W 8732   7.135   1.537   2.408  0.0738 -0.0261 -0.0367
 4669W        W 8733   5.656   0.870   2.807  0.1704 -0.2889  0.0942
 4670W        W 8734   7.828   9.765  10.418 -0.0805 -0.1217  0.2756
 4671W        W 8735  10.025  10.149   2.345 -0.1026 -0.1900 -0.1318
 4672W        W 8736  10.167   8.499   8.391 -0.1391 -0.5664  0.0750
 4673W        W 8737  10.725   2.555   1.326  0.0106  0.0253  0.3089
 4674W        W 8738   7.720   9.821   8.367 -0.2927 -0.0768 -0.1446
 4675W        W 8739   9.383   3.937   1.690  0.1161  0.1146 -0.0796
 4676W        W 8740  10.464   8.663   9.593 -0.0453  0.4440 -0.1205
 4677W        W 8741   4.119   7.567   1.611 -0.1723  0.1994  0.0871
 4678W        W 8742   2.107   6.726   3.395 -0.2230  0.2825  0.0598
 4679W        W 8743   3.624   6.564   2.451  0.0166 -0.2514  0.2974
 4680W        W 8744   1.135   5.921   8.206 -0.2292 -0.1112  0.0784
 4681W        W 8745   0.384   0.566   3.283  0.1382 -0.0744  0.2904
 4682W        W 8746   5.539   3.095   8.004  0.2110 -0.0388 -0.1003
 4683W        W 8747   3.974   6.093   1.798 -0.1158 -0.2116 -0.0566
 4684W        W 8748   9.217   1.522   0.851 -0.3970  0.1261  0.0045
 4685W        W 8749   0.301   0.338   0.556 -0.1077 -0.0459  0.0575
 4686W        W 8750   4.582   1.596  11.134  0.1910  0.0985 -0.0395
 4687W        W 8751   2.009   5.603  11.170  0.1152 -0.0351 -0.0248
 4688W        W 8752   2.109   7.412  10.861  0.0413  0.2146  0.1460
 4689W        W 8753   8.883   6.555   8.232  0.0522  0.0143  0.1252
 4690W        W 8754   6.809   6.674   8.508  0.1015  0.0029  0.2974
 4691W        W 8755   2.226   8.084  10.432 -0.0184  0.0132 -0.0668
 4692W        W 8756  10.075   0.649  10.200  0.1723 -0.0329  0.1581
 4693W        W 8757   9.887   9.835   9.864 -0.0738  0.2091 -0.2911
 4694W        W 8758   7.267   5.023   8.532 -0.2506  0.0225 -0.1893
 4695W        W 8759   6.966   0.825   9.359  0.2766 -0.1636 -0.0021
 4696W        W 8760   6.473   7.799   8.715  0.0175 -0.0165  0.3600
 4697W        W 8761   3.319   6.479   8.298 -0.2671  0.3485 -0.1752
 4698W        W 8762   3.642   1.328   0.901 -0.3229 -0.1518 -0.0230
 4699W        W 8763   7.024   5.603  11.255 -0.2888  0.0528  0.1147
 4700W        W 8764   7.096   9.563   2.816 -0.1637 -0.0640 -0.1995
 4701W        W 8765   3.880   0.849   3.590 -0.0201 -0.1079 -0.0787
 4702W        W 8766   3.581   0.397   0.796  0.0691  0.1706 -0.1500
 4703W        W 8767   6.039   8.839  10.244  0.0881 -0.0050  0.0097
 4704W        W 8768   2.831  10.550  10.336 -0.1576  0.0001  0.0969
 4705W        W 8769  10.186   5.437   1.624 -0.1459 -0.0385  0.0815
 4706W        W 8770   6.663   5.758   1.179 -0.4071 -0.0124 -0.3653
 4707W        W 8771   4.269   8.327   4.206 -0.3190  0.0522 -0.1984
 4708W        W 8772   9.311   9.250   9.414  0.1261  0.3032 -0.2182
 4709W        W 8773   0.457   8.661   3.510 -0.0710 -0.2631  0.2311
 4710W        W 8774   9.338   7.330   9.542 -0.2294 -0.2898 -0.4199
 4711W        W 8775   6.633   4.351   1.645 -0.0287 -0.0662 -0.1720
 4712W        W 8776   0.788   9.074   2.704 -0.1109 -0.0311 -0.4126
 4713W        W 8777   8.209   8.642   8.789  0.0046 -0.1973  0.0922
 4714W        W 8778   8.714   8.362   9.792  0.2424  0.4416 -0.0024
 4715W        W 8779   6.979   1.455   9.233 -0.1988 -0.0930 -0.0436
 4716W        W 8780   8.884   7.684   9.331  0.1207 -0.3783  0.2338
 4717W        W 8781   1.042   3.763   2.351 -0.3037  0.1612 -0.6226
 4718W        W 8782   7.526   3.921   2.124  0.1190 -0.2136  0.1150
 4719W        W 8783   5.836   1.765   9.139 -0.4130  0.1497  0.0421
 4720W        W 8784   7.857   9.503   2.535  0.0513 -0.1831 -0.4065
 4721W        W 8785   3.607   5.833   8.018  0.0446  0.0873 -0.3872
 4722W        W 8786   8.453   4.443  10.719  0.0259 -0.2335 -0.1332
 4723W        W 8787   7.257   3.200   2.619  0.2615  0.1801 -0.1068
 4724W        W 8788   9.667   1.556   0.994 -0.1462  0.2142 -0.4824
 4725W        W 8789   6.616   4.539   1.111 -0.0002 -0.0892  0.0229
 4726W        W 8790   0.314   0.292   2.056 -0.1200 -0.0271  0.3707
 4727W        W 8791   6.414   2.517   1.042  0.1178 -0.2844 -0.0140
 4728W        W 8792   0.660   3.831   8.617 -0.0316  0.0971 -0.1564
 4729W        W 8793   7.339   3.548   0.674  0.0700  0.2360 -0.1735
 4730W        W 8794   7.107   6.658   1.046 -0.2794  0.1180 -0.2682
 4731W        W 8795   2.849   1.925   2.670  0.0744  0.0440 -0.2915
 4732W        W 8796   3.675   3.347   7.077 -0.0589 -0.1250 -0.0852
 4733W        W 8797  10.544   6.572   1.563  0.2461  0.2985 -0.0026
 4734W        W 8798   9.346   5.650  11.033  0.1291 -0.4172  0.2460
 4735W        W 8799   5.158   3.815   8.631 -0.0234 -0.1537 -0.0696
 4736W        W 8800   2.612   1.389   9.058  0.0416 -0.0087 -0.0790
 4737W        W 8801   2.100   2.820   7.630  0.0528  0.0186  0.2724
 4738W        W 8802   0.457   2.635   8.059 -0.0956 -0.3462  0.0398
 4739W        W 8803   4.591   2.333   1.307 -0.4324 -0.0998 -0.0499
 4740W        W 8804   6.128   2.313   2.779  0.5032  0.1912 -0.1077
 4741W        W 8805   8.827   8.145   3.849 -0.0617 -0.3022 -0.0101
 4742W        W 8806   2.563   1.258  10.575  0.0182 -0.0854  0.1742
 4743W        W 8807   9.681   1.800   3.459  0.2243 -0.1541 -0.0969
 4744W        W 8808   7.662   6.540   9.646 -0.1215  0.0097 -0.2351
 4745W        W 8809   6.147   2.715   9.928  0.1334  0.2890 -0.1464
 4746W        W 8810   8.770   6.026   8.287 -0.0562  0.1528 -0.0586
 4747W        W 8811   6.968   3.516   0.198 -0.1172 -0.1717  0.0680
 4748W        W 8812   5.914   1.099   1.058  0.2821 -0.1601 -0.2568
 4749W        W 8813   2.144   6.797   2.264  0.1726 -0.0425 -0.1271
 4750W        W 8814   1.232   8.722   8.189 -0.1793  0.2785  0.1750
 4751W        W 8815   8.946   5.704   8.622 -0.0857  0.3100  0.2366
 4752W        W 8816   3.895   0.262   1.162 -0.2447 -0.0904 -0.1105
 4753W        W 8817   5.530   1.928   0.358  0.1530  0.0078  0.1124
 4754W        W 8818   8.845   0.307   1.458 -0.2653  0.1093  0.1228
 4755W        W 8819   1.085   8.099  10.511  0.1976 -0.0630  0.1482
 4756W        W 8820   5.819   7.950   7.656  0.1862 -0.5029 -0.0908
 4757W        W 8821   3.482   3.508  10.255 -0.0742  0.1310  0.2570
 4758W        W 8822   5.918   0.645   1.421 -0.0440  0.0580  0.0315
 4759W        W 8823   6.674   5.765   8.597  0.0960  0.0872 -0.0765
 4760W        W 8824   9.277   2.558   0.610  0.0660  0.0523 -0.0504
 4761W        W 8825   4.244   6.683   3.384 -0.3002 -0.2064 -0.3194
 4762W        W 8826  10.124   3.329  10.752 -0.0155 -0.0867  0.2574
 4763W        W 8827   7.470   1.230   2.131  0.2129 -0.1185 -0.1713
 4764W        W 8828   3.225   1.961   8.767 -0.3758 -0.0041 -0.1049
 4765W        W 8829  10.225   3.729   2.724  0.0254 -0.0015 -0.0517
 4766W        W 8830   7.225   4.114   2.426  0.3040  0.3013 -0.0369
 4767W        W 8831   6.980   7.938   9.031 -0.2678  0.1225  0.1459
 4768W        W 8832   7.040   7.575   0.576  0.0175  0.1857 -0.2027
 4769W        W 8833   6.702   0.129   3.258 -0.0364  0.0547  0.5541
 4770W        W 8834   6.314   3.875  10.504 -0.1880  0.2245 -0.0070
 4771W        W 8835   3.460   2.206  10.823 -0.1018  0.1053 -0.0538
 4772W        W 8836   8.962   0.592   0.098 -0.1204 -0.1645 -0.1195
 4773W        W 8837   4.623   4.272  10.362  0.0992 -0.1021  0.2422
 4774W        W 8838   3.879  10.460  11.102 -0.2051  0.3343  0.0459
 4775W        W 8839   7.036   2.049   2.375  0.1636 -0.1659  0.0328
 4776W        W 8840   2.523   4.337   0.316 -0.0965  0.0425  0.0319
 4777W        W 8841   9.272   9.990   9.019 -0.1104  0.1266  0.1564
 4778W        W 8842   4.598   1.088  10.288  0.3436  0.0533 -0.0329
 4779W        W 8843   4.786   7.292  10.872  0.1876 -0.2015 -0.1587
 4780W        W 8844   1.242   1.214  10.491 -0.1877 -0.3658  0.0951
 4781W        W 8845   0.318   8.516   8.243 -0.0405 -0.2345  0.0730
 4782W        W 8846   9.532   2.940   8.233  0.0345 -0.1081 -0.0379
 4783W        W 8847   0.271   2.401   8.481  0.0387  0.1435  0.2842
 4784W        W 8848   9.485   1.121   9.478  0.0859 -0.2317  0.2619
 4785W        W 8849  10.048   5.406   7.608  0.0847  0.1231 -0.2721
 4786W        W 8850   2.828   2.076  11.264 -0.1962 -0.3843  0.1557
 4787W        W 8851   3.679   3.823   0.305  0.1974  0.0177 -0.2185
 4788W        W 8852   1.036   6.574   9.189  0.5673  0.3557 -0.0170
 4789W        W 8853   1.712  10.102   0.955 -0.4076  0.2421  0.0001
 4790W        W 8854   5.446   4.778   2.686 -0.0785  0.3663  0.0217
 4791W        W 8855   9.692   6.082   8.056 -0.0954  0.1543  0.3562
 4792W        W 8856  10.238   7.984   8.267 -0.0815 -0.0170  0.0410
 4793W        W 8857   4.552   6.450   0.326  0.1775 -0.0515  0.0498
 4794W        W 8858   6.852   9.048   8.468 -0.0608  0.1319  0.0162
 4795W        W 8859   4.057   1.014   0.756 -0.4411  0.1264 -0.0948
 4796W        W 8860   8.777   8.551   8.924 -0.1079 -0.1748  0.0792
 4797W        W 8861   7.576   2.668   0.251 -0.0453 -0.1280  0.0571
 4798W        W 8862   9.126   4.624   0.359  0.1860  0.3504  0.3247
 4799W        W 8863   9.349   7.963   2.987 -0.4593 -0.0565 -0.2305
 4800W        W 8864   0.475   3.360   8.704  0.0914 -0.1775 -0.1105
 4801W        W 8865   5.013   0.150  10.174  0.0290 -0.4502  0.1151
 4802W        W 8866   4.319   9.771   9.626 -0.0479  0.0949 -0.3540
 4803W        W 8867   7.987  10.114   0.560  0.2938  0.0433 -0.0880
 4804W        W 8868   0.037   7.888  10.394 -0.2060 -0.0437  0.0601
 4805W        W 8869   8.842   8.385   1.144 -0.1353 -0.0955 -0.3203
 4806W        W 8870   1.978   1.748   1.275 -0.0813 -0.2316  0.1575
 4807W        W 8871   8.972   7.897   1.211 -0.0361 -0.3155  0.2490
 4808W        W 8872  10.116   7.766   9.523  0.2373 -0.0632  0.2317
 4809W        W 8873   2.200   0.177   9.773  0.1668 -0.2244 -0.0280
 4810W        W 8874   1.937   2.184   8.990  0.0440 -0.0763 -0.2224
 4811W        W 8875   7.955   7.308   8.790 -0.1034  0.1385 -0.4925
 4812W        W 8876   2.686   8.933   1.991  0.0539  0.0466  0.0485
 4813W        W 8877   1.949   5.615  10.593 -0.2568 -0.2498 -0.0089
 4814W        W 8878   0.313  10.747   1.241 -0.0477 -0.0776 -0.3329
 4815W        W 8879   5.203   0.517   4.009 -0.1531  0.0144  0.4663
 4816W        W 8880   7.925   8.025   0.011  0.2350 -0.1007  0.0443
 4817W        W 8881   6.091   1.652   1.446 -0.2739 -0.0229 -0.1606
 4818W        W 8882   2.234   9.395   9.795  0.2125 -0.1027  0.1623
 4819W        W 8883  10.628   0.672  10.236 -0.0962 -0.1594 -0.0286
 4820W        W 8884   3.531   9.117   2.841  0.1639 -0.2032 -0.3632
 4821W        W 8885   9.312   7.172   2.428  0.0815 -0.1665  0.0075
 4822W        W 8886   2.738   0.489   8.858  0.2111 -0.0564 -0.0722
 4823W        W 8887   5.927   9.986   1.565  0.1055  0.3061  0.2234
 4824W        W 8888   3.092   3.721   7.806  0.0311 -0.3480  0.1061
 4825W        W 8889   8.412   7.635   2.881 -0.1909  0.0294  0.1040
 4826W        W 8890   3.308   8.072   3.000  0.1098 -0.0132  0.1461
 4827W        W 8891  10.388   9.073  10.194 -0.0225  0.0490 -0.0470
 4828W        W 8892   3.382   7.790   0.314 -0.0469 -0.3066 -0.0787
 4829W        W 8893   7.864   8.425   8.222  0.1170 -0.2440  0.1161
 4830W        W 8894   7.332   5.669   0.492  0.1642 -0.2319  0.0054
 4831W        W 8895   0.163   7.000   0.340  0.2971 -0.1725 -0.0792
 4832W        W 8896   9.213   8.967   0.891  0.2535 -0.0033  0.0920
 4833W        W 8897  10.604   1.903   2.577 -0.1265  0.0976 -0.0276
 4834W        W 8898   0.548   2.184   0.558  0.0461  0.3364 -0.1181
 4835W        W 8899   7.104   1.226  10.209 -0.0414 -0.2528 -0.1831
 4836W        W 8900   1.430   2.744   2.511 -0.1283 -0.0364 -0.3803
 4837W        W 8901   1.705   7.008   8.146 -0.0058  0.3060  0.1503
 4838W        W 8902   4.353   0.732   9.938 -0.1854  0.1588  0.1166
 4839W        W 8903  10.670   5.456   2.712 -0.0496 -0.0732  0.3072
 4840W        W 8904  10.066   9.300   0.809 -0.0903 -0.1744  0.0742
 4841W        W 8905   7.333  10.587  10.002 -0.0383  0.1707  0.1495
 4842W        W 8906  10.485  10.404  11.222  0.0996  0.0157  0.0189
 4843W        W 8907   3.260   1.772  10.558 -0.1001  0.1448 -0.1304
 4844W        W 8908   8.405  10.746   9.260  0.1233 -0.1429 -0.0279
 4845W        W 8909   7.375   9.515  10.394  0.0593  0.1265 -0.1521
 4846W        W 8910   5.720   7.683   1.770 -0.0655 -0.0106  0.0941
 4847W        W 8911   0.642   4.697   9.541  0.0629  0.0152  0.1130
 4848W        W 8912   7.940   1.243   2.855 -0.0350 -0.1377  0.0119
 4849W        W 8913   9.681  10.635   9.616 -0.0709 -0.0942  0.0372
 4850W        W 8914   6.054   3.219   9.848  0.2781  0.5657 -0.0139
 4851W        W 8915   2.093   3.367  11.320 -0.5057 -0.2330 -0.2487
 4852W        W 8916   3.605   1.571   8.769 -0.1985  0.1747  0.0286
 4853W        W 8917   4.335   7.791   0.150 -0.1137 -0.1071 -0.0085
 4854W        W 8918   3.171   3.368   0.962 -0.1836  0.1340  0.2784
 4855W        W 8919   1.650   6.287   0.241 -0.1936  0.0229 -0.1712
 4856W        W 8920   7.623   5.384   2.796  0.3340  0.0335  0.1427
 4857W        W 8921   9.951  10.084   0.698 -0.3305  0.2256  0.1779
 4858W        W 8922   3.599   7.718   9.413  0.0698 -0.2732  0.3435
 4859W        W 8923   1.216   9.466  10.208  0.4244 -0.1538 -0.1474
 4860W        W 8924   1.745   0.078   8.104  0.1050  0.0466 -0.0732
 4861W        W 8925   0.471   7.942   1.258  0.2964 -0.0215 -0.1462
 4862W        W 8926   1.558   3.018   9.143  0.3728  0.0185  0.2019
 4863W        W 8927   8.883   7.051  10.082 -0.2854  0.0202 -0.1005
 4864W        W 8928   3.429   8.526   1.125 -0.3951 -0.0555 -0.0320
 4865W        W 8929   2.120   0.942   8.345  0.0527  0.0573  0.0128
 4866W        W 8930   2.500   7.874   2.933  0.0631 -0.3745 -0.0958
 4867W        W 8931   5.667   8.418   7.815  0.3018  0.4573  0.0385
 4868W        W 8932   6.515   8.068   9.377  0.1994  0.0825 -0.0949
 4869W        W 8933   2.246   5.312   8.596 -0.1820 -0.0840  0.0717
 4870W        W 8934   5.713   6.300  10.042  0.1525  0.1951 -0.0414
 4871W        W 8935  10.649   5.206   9.950 -0.0463 -0.1719  0.1301
 4872W        W 8936   8.379   9.657   9.254 -0.0400  0.3134  0.0418
 4873W        W 8937   3.041   2.365   9.882  0.3886 -0.1493 -0.1367
 4874W        W 8938   1.233   4.631   3.042 -0.2247 -0.1445  0.0175
 4875W        W 8939   9.389   0.657  11.132 -0.3670 -0.1018 -0.0627
 4876W        W 8940   1.801   0.014   3.206  0.4454  0.2100 -0.1238
 4877W        W 8941   7.919   5.166   0.669  0.1089 -0.2393  0.0844
 4878W        W 8942   6.144   5.309   3.287 -0.1055  0.0101 -0.0836
 4879W        W 8943   9.776   4.108   0.808 -0.1307  0.0490  0.0307
 4880W        W 8944   6.680   9.198   9.872 -0.2318  0.2760  0.0927
 4881W        W 8945   6.303   1.929   3.073 -0.1000  0.1060 -0.3288
 4882W        W 8946   3.049  10.352   9.339  0.3041  0.1200 -0.0313
 4883W        W 8947   7.288   0.865   1.359 -0.2011  0.1438  0.0940
 4884W        W 8948   7.857   3.840   1.406  0.3409  0.0657 -0.4600
 4885W        W 8949   1.971   5.961   7.216 -0.0919 -0.0506  0.3264
 4886W        W 8950   0.796   2.925   0.363 -0.1394 -0.2244 -0.2390
 4887W        W 8951   4.932  10.604   9.405 -0.2039  0.2801 -0.3766
 4888W        W 8952   6.920   7.013   8.872  0.1981 -0.4467 -0.1291
 4889W        W 8953   2.742   1.190   2.328  0.0419 -0.0312 -0.0945
 4890W        W 8954   2.695   3.108   8.422 -0.2559 -0.0006 -0.1004
 4891W        W 8955   2.629   4.407  10.005  0.1344 -0.2329  0.1702
 4892W        W 8956   0.397   2.724   0.624 -0.1279  0.0409 -0.2583
 4893W        W 8957   4.383   8.289   0.300 -0.0143  0.2935 -0.2704
 4894W        W 8958   9.049   5.271  11.114 -0.2849 -0.0556  0.4362
 4895W        W 8959  10.662   8.775   2.291  0.1083  0.1937  0.2078
 4896W        W 8960   7.985   2.212   1.385  0.2212 -0.1317 -0.1037
 4897W        W 8961   7.321   0.869   1.860 -0.0563 -0.2533  0.4852
 4898W        W 8962   4.134   5.554   8.665  0.0486  0.1719  0.0158
 4899W        W 8963   5.162   0.637  10.863 -0.1972  0.1670  0.0541
 4900W        W 8964   5.110   9.229   8.731 -0.0196  0.1160  0.1193
 4901W        W 8965   8.773   0.814   8.777  0.4884 -0.0955  0.0560
 4902W        W 8966   7.093   5.349   2.876 -0.0388  0.0896  0.1939
 4903W        W 8967   2.157   0.999   8.845 -0.0434 -0.1682  0.3252
 4904W        W 8968   9.989   1.110   2.538 -0.1173  0.0679  0.3185
 4905W        W 8969   3.512   5.055   8.462 -0.1751 -0.1785 -0.3388
 4906W        W 8970   9.241   6.787   1.102  0.3006  0.3682  0.0303
 4907W        W 8971   8.973   6.590   7.319 -0.1963 -0.1610  0.0963
 4908W        W 8972  10.095   2.981   9.612  0.0618 -0.3163  0.4120
 4909W        W 8973   8.370   7.581  10.004  0.3314  0.2172 -0.3595
 4910W        W 8974   7.481   0.829  10.288 -0.0014 -0.2542 -0.0895
 4911W        W 8975   5.241   1.064   2.594  0.0010 -0.0764 -0.1254
 4912W        W 8976   8.934   7.572   0.728  0.0432 -0.0030 -0.1392
 4913W        W 8977   3.967   9.409   2.853  0.0954  0.1158  0.1565
 4914W        W 8978   3.218   9.441   9.968  0.0554 -0.4680 -0.2486
 4915W        W 8979   8.621   1.108   8.392  0.2665  0.2915  0.2688
 4916W        W 8980   8.936  10.297   0.733  0.0408  0.1522  0.0646
 4917W        W 8981   9.106   2.766  10.959 -0.4405 -0.1926  0.3211
 4918W        W 8982   8.771   9.531   3.445 -0.0337  0.0316 -0.0295
 4919W        W 8983   7.441   7.609  10.451 -0.0987 -0.4901  0.0842
 4920W        W 8984   9.130   4.082   0.751 -0.1016 -0.2235  0.2468
 4921W        W 8985   4.458  10.130   8.841 -0.2052 -0.0963 -0.3482
 4922W        W 8986   4.382  10.599   3.424 -0.1975 -0.3154  0.0699
 4923W        W 8987   0.884   9.664   0.580 -0.4089  0.5152 -0.0045
 4924W        W 8988   4.788   6.293   2.538 -0.2198  0.0733  0.0456
 4925W        W 8989   2.223   5.606   0.337  0.1287 -0.0591 -0.1371
 4926W        W 8990   3.336   8.536  11.011  0.1118 -0.1948  0.1768
 4927W        W 8991   7.870   0.325   4.239  0.1836 -0.3637 -0.2385
 4928W        W 8992   2.598   5.925   7.175  0.1383 -0.0873  0.2365
 4929W        W 8993   6.356   7.461   8.107 -0.2050 -0.1572  0.0384
 4930W        W 8994   0.644   1.284   9.026 -0.2846  0.2450  0.1214
 4931W        W 8995   1.433   5.663  10.775  0.2377  0.1831  0.0510
 4932W        W 8996   1.652   4.598  10.893  0.2349  0.1572 -0.0380
 4933W        W 8997  10.270   8.346   3.314 -0.0562 -0.2535 -0.1258
 4934W        W 8998   7.250  10.618   0.941 -0.0586 -0.4559 -0.0904
 4935W        W 8999   8.582   2.030  11.195 -0.2239  0.1970 -0.1208
 4936W        W 9000  10.421   1.859   9.303 -0.0621 -0.4029  0.3955
 4937W        W 9001   2.109   1.568   2.224 -0.1896 -0.0586 -0.0056
 4938W        W 9002  10.461   8.678   9.016  0.1021  0.0342 -0.1353
 4939W        W 9003   3.875   3.380   0.501  0.1138 -0.1606 -0.2013
 4940W        W 9004   9.731   7.375  10.398  0.1470  0.1596  0.1315
 4941W        W 9005   8.706   2.800   1.221  0.0503 -0.0198  0.2378
 4942W        W 9006   6.185   2.422   9.421  0.0535  0.2340  0.1409
 4943W        W 9007  10.507   7.269   0.142 -0.1481 -0.3367 -0.0363
 4944W        W 9008   1.176   7.754   7.803 -0.5386  0.3571  0.0396
 4945W        W 9009   5.925   2.776   8.821  0.0680 -0.2550 -0.0593
 4946W        W 9010   5.627   3.131   9.634  0.1037  0.1080  0.0447
 4947W        W 9011   4.805   3.313   9.537 -0.1136 -0.3352  0.2099
 4948W        W 9012   6.052   1.169   0.282 -0.1820 -0.1871 -0.2985
 4949W        W 9013  10.705   4.726   1.075  0.0082 -0.2621  0.2447
 4950W        W 9014   0.080   0.571   9.087  0.3360 -0.1483 -0.5343
 4951W        W 9015   1.889   1.839   9.410  0.0324  0.1341 -0.0501
 4952W        W 9016   5.803   2.302   0.103 -0.1452 -0.0868  0.0343
 4953W        W 9017   9.840   4.111  10.430 -0.0448 -0.1226 -0.0545
 4954W        W 9018   0.085   5.000   2.056  0.0610  0.3472  0.0599
 4955W        W 9019   3.478   7.025   8.590  0.0560 -0.2681 -0.2246
 4956W        W 9020   3.399   3.727   6.817 -0.1871  0.2793  0.1474
 4957W        W 9021   9.482   0.688   0.786  0.2962  0.0808  0.2129
 4958W        W 9022   2.222   3.189   1.202 -0.0135 -0.0559 -0.1001
 4959W        W 9023   2.455   4.770   9.339  0.0686  0.0311  0.1480
 4960W        W 9024   4.601   0.831  10.758  0.2250 -0.0258  0.2170
 4961W        W 9025   0.021   9.312   7.912 -0.0780  0.2660  0.1216
 4962W        W 9026   1.222  10.222   1.024 -0.2611 -0.0244  0.4214
 4963W        W 9027   7.101   0.075   2.903 -0.0906  0.2418 -0.0016
 4964W        W 9028   1.399   8.354   2.671 -0.2803 -0.0524 -0.3964
 4965W        W 9029   4.769   9.506   3.419 -0.0090  0.1791 -0.0329
 4966W        W 9030   3.592   6.399  10.405  0.1510  0.0616 -0.0053
 4967W        W 9031   7.308   6.624   9.317 -0.1126 -0.0674  0.0454
 4968W        W 9032   7.761   7.617  10.883 -0.1308 -0.1736 -0.0733
 4969W        W 9033   5.070   1.724   9.807  0.1946  0.1661  0.2664
 4970W        W 9034  10.585   5.648  10.783 -0.3928  0.3102  0.1864
 4971W        W 9035   0.512   2.496   1.541 -0.1849 -0.2963  0.2811
 4972W        W 9036  10.124   7.260   3.976 -0.2940  0.2406 -0.0056
 4973W        W 9037   1.570   4.176   7.234  0.1706 -0.2251 -0.2270
 4974W        W 9038   1.685   7.908   3.582  0.4804  0.0535  0.1068
 4975W        W 9039   1.037   4.346   0.004 -0.0099  0.0202 -0.2743
 4976W        W 9040  10.540   6.383   9.257  0.0625 -0.0340 -0.0820
 4977W        W 9041   9.783   9.982   9.296 -0.3000 -0.1080  0.1376
 4978W        W 9042   7.404   0.011  10.505 -0.1808 -0.2385 -0.4784
 4979W        W 9043   7.597   0.535   1.626  0.0496  0.1733  0.1462
 4980W        W 9044   4.662   0.877   9.455  0.5413 -0.0277  0.0432
 4981W        W 9045   4.618   4.133   2.820  0.0767  0.2498  0.1490
 4982W        W 9046   0.622   5.876   1.297 -0.1119  0.1701 -0.2477
 4983W        W 9047   3.492   3.852   8.718  0.2867  0.0344  0.0998
 4984W        W 9048   8.710   6.960   1.334 -0.0808 -0.0717  0.0254
 4985W        W 9049   4.224   1.713  10.282 -0.0655  0.0397 -0.1981
 4986W        W 9050   0.769   3.368   2.626 -0.0078 -0.0892 -0.2357
 4987W        W 9051   3.528  10.410   9.599 -0.5411 -0.0873 -0.0179
 4988W        W 9052   2.749   6.190   7.552 -0.4415  0.0643 -0.0597
 4989W        W 9053   6.399   2.790  10.460  0.0276  0.1944  0.1404
 4990W        W 9054   7.576   3.783   7.939  0.1635  0.2711 -0.0490
 4991W        W 9055   4.754   4.896  10.975  0.3452  0.1696  0.0177
 4992W        W 9056   9.698  10.539   2.474 -0.0935 -0.2104 -0.0907
 4993W        W 9057   1.044   0.184   1.736 -0.1218 -0.1619 -0.0365
 4994W        W 9058   5.731   1.995  10.383  0.3175  0.4198  0.0879
 4995W        W 9059   1.100   6.669  10.797  0.3591  0.1688 -0.5584
 4996W        W 9060   7.686   8.929   1.834  0.0882  0.0909 -0.1070
 4997W        W 9061   6.464  10.388  10.103  0.1404 -0.1092 -0.0719
 4998W        W 9062   3.552  10.025   2.751  0.0944 -0.0445  0.0556
 4999W        W 9063   8.292   7.423   1.538  0.1516  0.2892 -0.2761
 5000W        W 9064   4.181   1.201   0.226 -0.3900  0.3541 -0.1108
 5001W        W 9065   0.130  10.074   4.138  0.1705  0.3441  0.1518
 5002W        W 9066   9.821   6.079   3.694  0.0342  0.0431 -0.2488
 5003W        W 9067   5.070   2.227   1.742  0.0841  0.0627 -0.1174
 5004W        W 9068   1.344   7.510  10.246  0.1308  0.3096 -0.0436
 5005W        W 9069   0.570   4.138   7.919 -0.0497 -0.2342 -0.4160
 5006W        W 9070   2.889   3.409   8.123 -0.1169  0.2208  0.1943
 5007W        W 9071   1.958   9.937  10.817 -0.1117  0.0103 -0.1068
 5008W        W 9072   3.274   4.819  10.447  0.0859  0.1809  0.0122
 5009W        W 9073   5.604   5.620   0.408  0.0653 -0.2044 -0.0236
 5010W        W 9074   7.536   5.308   9.015  0.0813 -0.1187 -0.2284
 5011W        W 9075   0.932   7.620   0.566  0.4981 -0.0297  0.2014
 5012W        W 9076   4.052  10.047  10.891  0.0305  0.1889  0.3756
 5013W        W 9077   8.466   6.169   1.113  0.0325 -0.2003  0.3302
 5014W        W 9078   4.671   3.552   0.755 -0.0918 -0.1297  0.2690
 5015W        W 9079   6.371   9.586   3.330 -0.0373 -0.1065 -0.1370
 5016W        W 9080   6.749   2.851   1.885 -0.0667  0.1086  0.0402
 5017W        W 9081   1.216   4.904   8.009 -0.0488  0.0142  0.6086
 5018W        W 9082   5.198   8.373  10.555  0.2255 -0.0396 -0.2667
 5019W        W 9083   4.374   4.432   8.547 -0.2566  0.0443 -0.1194
 5020W        W 9084   4.544   9.262   0.009  0.0578 -0.0201 -0.1429
 5021W        W 9085   9.155   1.375   2.254 -0.0505 -0.2248 -0.1417
 5022W        W 9086   9.373   7.619   0.985  0.3988  0.3521 -0.0600
 5023W        W 9087   2.175   1.314   2.996 -0.0020  0.1414 -0.1514
 5024W        W 9088   4.947   1.296   1.584 -0.5747 -0.1677 -0.2882
 5025W        W 9089   4.024   8.096   1.689 -0.0417  0.0786  0.0137
 5026W        W 9090   4.283   1.188  11.073 -0.1519 -0.2121  0.3104
 5027W        W 9091   1.476   4.555   1.545 -0.0765  0.0571 -0.3313
 5028W        W 9092   2.847   5.537   3.081  0.2372  0.0713 -0.1871
 5029W        W 9093   1.284   9.198  10.995  0.0103 -0.1503  0.0871
 5030W        W 9094   0.232   4.894   1.563  0.1862 -0.3991 -0.3826
 5031W        W 9095   5.374   7.390   9.407 -0.2027  0.0456  0.1313
 5032W        W 9096   0.796   5.365   9.708  0.1266  0.0623  0.1354
 5033W        W 9097   3.627   1.681   3.069  0.1968  0.0915  0.1011
 5034W        W 9098   5.751   2.254   2.457 -0.0788 -0.1279 -0.0705
 5035W        W 9099   8.275   8.654   9.817 -0.1433  0.1461 -0.1507
 5036W        W 9100   3.639   0.267   0.315 -0.2440 -0.0953  0.1684
 5037W        W 9101   2.019  10.046  10.058  0.0535  0.0240 -0.3431
 5038W        W 9102   7.624   2.824   2.260  0.2943 -0.0483 -0.3158
 5039W        W 9103   0.857   9.444   8.494  0.2453 -0.0802 -0.0595
 5040W        W 9104   1.597   3.732  10.829 -0.1426 -0.0004 -0.1615
 5041W        W 9105   2.493   1.298   8.576 -0.2723  0.2514  0.2457
 5042W        W 9106   4.985   7.451   3.417 -0.1702 -0.1332  0.2490
 5043W        W 9107   5.027   4.849   1.923 -0.2658  0.2053  0.2385
 5044W        W 9108   3.777   3.070   8.339 -0.0213 -0.2658  0.0138
 5045W        W 9109   3.895   3.329   9.467 -0.0170  0.1591  0.3682
 5046W        W 9110   1.687   5.428   1.308 -0.0041 -0.1889  0.2114
 5047W        W 9111   4.173   5.743   7.930 -0.0194 -0.2868 -0.1962
 5048W        W 9112   2.448   8.393   9.238  0.4267  0.4024 -0.3359
 5049W        W 9113   2.448   9.134  10.771  0.2885 -0.1926  0.0335
 5050W        W 9114   3.676   2.023   0.705 -0.2346  0.0363  0.0578
 5051W        W 9115   4.471   0.976   2.858 -0.0982 -0.0928 -0.1350
 5052W        W 9116   5.828   3.812   9.744 -0.0855  0.0596  0.1321
 5053W        W 9117   7.945   0.993  10.317  0.0786 -0.0724 -0.1209
 5054W        W 9118   8.187   1.798   3.878 -0.3238  0.3641  0.2045
 5055W        W 9119   4.391  10.032   0.407 -0.2994 -0.1982 -0.1932
 5056W        W 9120   0.663   7.450   7.574  0.3249  0.1459  0.4705
 5057W        W 9121   1.494  10.208   0.546 -0.0668 -0.4461  0.1947
 5058W        W 9122  10.433   1.399  10.557 -0.2349 -0.1512  0.2073
 5059W        W 9123   5.271   9.699   1.248  0.2337  0.1021  0.1115
 5060W        W 9124   3.116   4.307   2.193  0.0885 -0.1253 -0.2833
 5061W        W 9125   8.013   9.677   2.057 -0.0456 -0.1240 -0.2778
 5062W        W 9126   1.198   9.889   0.220 -0.1858 -0.0890  0.3007
 5063W        W 9127   8.293   0.115   1.652  0.1049 -0.0864  0.1280
 5064W        W 9128   3.810   9.713   2.488  0.0039 -0.0701  0.1267
 5065W        W 9129   8.390   8.177   2.111 -0.2492  0.0006 -0.4254
 5066W        W 9130   0.072   6.012   9.702 -0.0025  0.0904  0.2962
 5067W        W 9131   2.279   9.554   9.325  0.4374  0.1579  0.0396
 5068W        W 9132   3.563   3.036   0.827 -0.0228 -0.0823  0.0434
 5069W        W 9133   3.339   6.676   1.029  0.2336  0.1229  0.1029
 5070W        W 9134   0.001   2.514   3.509 -0.0111 -0.0105 -0.0572
 5071W        W 9135   5.496   9.067   8.971 -0.0344 -0.2110 -0.0908
 5072W        W 9136   7.295   2.438  10.432  0.1371  0.2001 -0.1617
 5073W        W 9137   4.198   8.942   2.549  0.0106 -0.0232 -0.0359
 5074W        W 9138   5.134   4.229  10.413  0.0778 -0.3289  0.2297
 5075W        W 9139   3.855   8.545   0.691  0.3204  0.0316  0.1148
 5076W        W 9140   3.296   4.801   7.495 -0.0975 -0.0998  0.1759
 5077W        W 9141   5.218   4.075   0.016  0.4133 -0.2493  0.0622
 5078W        W 9142   5.122   9.950  10.779 -0.0168  0.3317  0.1578
 5079W        W 9143   1.212   5.404   7.013  0.2929 -0.2682 -0.0523
 5080W        W 9144   8.035   9.373   9.068  0.0573  0.1047 -0.2143
 5081W        W 9145   8.789   3.105  10.049  0.0447  0.4058 -0.2266
 5082W        W 9146   4.890   1.892   2.486 -0.0319 -0.0774  0.1648
 5083W        W 9147   4.730   9.550   2.025 -0.0506  0.0762  0.0873
 5084W        W 9148   8.096   9.507   4.274  0.1955  0.2205 -0.0812
 5085W        W 9149  10.570   3.893   0.130  0.0376 -0.0907  0.2455
 5086W        W 9150   7.242   8.200   0.569  0.1367 -0.2154 -0.2810
 5087W        W 9151   0.196   0.807   9.805  0.0507 -0.1642  0.1022
 5088W        W 9152   2.927   0.062   1.375  0.2682  0.2325  0.0537
 5089W        W 9153   7.068   7.040   3.339 -0.0149  0.3268 -0.1580
 5090W        W 9154   9.444   6.210   0.971  0.2046  0.0824 -0.0745
 5091W        W 9155   3.323   0.503   1.237 -0.0869  0.1575 -0.2459
 5092W        W 9156   0.725   9.941   8.845  0.1765  0.0034 -0.1416
 5093W        W 9157   0.007   0.847   7.880  0.0616  0.0911  0.0453
 5094W        W 9158   3.922   8.559  10.937  0.0268  0.1039 -0.0653
 5095W        W 9159   3.396   2.769   7.899  0.2240 -0.3346 -0.1092
 5096W        W 9160   7.987   7.767   9.679 -0.3868  0.0487 -0.1356
 5097W        W 9161   6.246   0.281   8.147 -0.3999  0.0032  0.0452
 5098W        W 9162   5.983   0.133  10.577  0.1134  0.2747  0.1564
 5099W        W 9163   2.493  10.542   9.355  0.2849 -0.0858  0.0306
 5100W        W 9164   3.086   9.888   2.669 -0.1495  0.1590 -0.1050
 5101W        W 9165   8.692   5.292   1.841  0.0469  0.2307  0.1350
 5102W        W 9166   5.261   4.935  11.082 -0.1425 -0.0168 -0.0188
 5103W        W 9167   9.648   4.732  10.463  0.1978  0.1881 -0.1101
 5104W        W 9168   9.733   8.405  10.347  0.0213 -0.2249 -0.0834
 5105W        W 9169   3.067   7.893   8.672 -0.1516  0.2275 -0.0544
 5106W        W 9170   8.452   6.587   1.549 -0.0441 -0.0510  0.1185
 5107W        W 9171   0.457   1.781   2.814  0.2505  0.2550  0.3432
 5108W        W 9172   7.266   4.538   0.858 -0.0096  0.0310  0.1712
 5109W        W 9173   0.673   0.890   2.290 -0.4320  0.1959  0.0324
 5110W        W 9174   6.574   8.033  10.677 -0.0601 -0.2285 -0.0184
 5111W        W 9175   8.033   7.665  10.381  0.2007 -0.4168 -0.2419
 5112W        W 9176   9.469   6.598  10.719 -0.0786  0.2565  0.1019
 5113W        W 9177   1.735   3.059   0.314 -0.0061  0.0582 -0.1343
 5114W        W 9178   3.579  10.154   9.205  0.1327  0.2487  0.0182
 5115W        W 9179   1.299   9.166   3.777 -0.1837 -0.1830 -0.0343
 5116W        W 9180   5.575   0.959   8.076 -0.0070  0.0694  0.0562
 5117W        W 9181   0.596   9.070   9.285 -0.2982  0.1988 -0.1340
 5118W        W 9182   1.237   7.107   3.142  0.1262 -0.0648  0.1254
 5119W        W 9183   2.384   3.605   8.185  0.0154  0.1063  0.1926
 5120W        W 9184   3.114   0.771   9.982 -0.0698 -0.3127 -0.1126
 5121W        W 9185   1.927   8.170   1.479 -0.1303 -0.0639  0.1104
 5122W        W 9186   3.761   8.447   7.535  0.0240  0.1218 -0.0939
 5123W        W 9187   3.738   1.630  10.086 -0.1970  0.1049  0.1341
 5124W        W 9188   6.818   4.959   2.372 -0.2173  0.1092 -0.0844
 5125W        W 9189   2.136  10.156   2.325  0.2437 -0.0158  0.0228
 5126W        W 9190   2.213   0.502   8.742 -0.0159  0.0704  0.0754
 5127W        W 9191   3.552   6.891   7.389 -0.0833 -0.1238 -0.0075
 5128W        W 9192   5.423   2.204  10.831 -0.0435 -0.0247 -0.0989
 5129W        W 9193   5.766   4.744   8.057 -0.0962  0.0528  0.0732
 5130W        W 9194   8.077   7.283   7.167  0.0238  0.0259  0.0628
 5131W        W 9195   9.180   7.707   8.605 -0.2506  0.0664 -0.0302
 5132W        W 9196   7.301   4.438   9.033 -0.1951 -0.0502 -0.1186
 5133W        W 9197   1.009   5.499   2.929  0.0854  0.1278 -0.0352
 5134W        W 9198   9.248   5.560   1.485  0.0199  0.2085 -0.4878
 5135W        W 9199   5.867   7.106   3.735 -0.1394 -0.3890  0.0876
 5136W        W 9200   7.535   7.180   1.687  0.3316 -0.4128 -0.0221
 5137W        W 9201   8.830   8.231   9.361  0.1162  0.2204 -0.1426
 5138W        W 9202   9.240   5.336   9.586 -0.3041  0.1971  0.0266
 5139W        W 9203  10.638   8.348   8.168 -0.0816  0.4237  0.0518
 5140W        W 9204   5.690   8.242   0.438 -0.0603 -0.1692  0.3012
 5141W        W 9205   6.318   5.760  10.021 -0.2954 -0.0536  0.0391
 5142W        W 9206   3.471   8.960   8.055 -0.2719 -0.1038  0.0301
 5143W        W 9207   6.737   0.193   9.417  0.2298 -0.2662 -0.0343
 5144W        W 9208   0.295   1.535   1.884 -0.2926  0.0563  0.0361
 5145W        W 9209   0.629   9.527   9.041 -0.3537 -0.0321  0.1951
 5146W        W 9210   3.337   2.175   0.003  0.0722 -0.2972 -0.1067
 5147W        W 9211   2.814   7.019   8.539  0.1231  0.1113  0.1606
 5148W        W 9212   7.261   1.231   3.482 -0.3818 -0.1974 -0.2407
 5149W        W 9213   3.519   3.069   2.613 -0.2234 -0.3543 -0.1362
 5150W        W 9214   6.232   6.591   3.021 -0.1781  0.1650 -0.0587
 5151W        W 9215   2.319   8.487   3.104 -0.2262 -0.2860  0.0515
 5152W        W 9216   9.359   9.857  10.780  0.1411 -0.0132  0.0587
 5153W        W 9217   4.602   3.785  11.196  0.1040 -0.1046  0.5251
 5154W        W 9218   8.222   0.401   3.297 -0.2135  0.2250 -0.2064
 5155W        W 9219   4.540   8.223  10.110  0.0037  0.0585  0.2399
 5156W        W 9220   2.365   1.669   9.983  0.1885 -0.0372 -0.2479
 5157W        W 9221   8.989  10.021   3.028  0.1819  0.0925 -0.0454
 5158W        W 9222   7.998   3.910   1.961  0.1229  0.1525  0.0318
 5159W        W 9223   0.389   9.195   9.739  0.1806 -0.2713 -0.1034
 5160W        W 9224   5.337   7.471   1.184 -0.2162  0.1821 -0.0034
 5161W        W 9225   1.186   7.228   0.216  0.1194 -0.0115  0.0791
 5162W        W 9226   1.723   8.581   8.168 -0.1123  0.0576  0.0362
 5163W        W 9227   9.794   5.327   3.476  0.3749 -0.0753  0.0550
 5164W        W 9228   5.155   8.358   9.370  0.0344 -0.0691 -0.2170
 5165W        W 9229  10.018   2.624  10.094  0.1331 -0.2872  0.0459
 5166W        W 9230   2.807   6.441   8.407 -0.4202  0.3350  0.0947
 5167W        W 9231   9.532   0.666   9.366 -0.1482 -0.1264 -0.2968
 5168W        W 9232   1.861   8.020   4.036 -0.3620  0.0675 -0.0203
 5169W        W 9233   6.151   0.930   9.139  0.2741 -0.1294  0.0184
 5170W        W 9234   3.299  10.413  10.892  0.2417 -0.0615 -0.0347
 5171W        W 9235   0.965   3.683   3.856  0.0240  0.0536 -0.3125
 5172W        W 9236   3.207   0.522   9.171 -0.2564 -0.2396 -0.0200
 5173W        W 9237   6.368   4.238   0.303 -0.0199  0.3633 -0.2226
 5174W        W 9238   8.706   4.149   2.671 -0.2488 -0.1305  0.1519
 5175W        W 9239   7.947   5.406   8.263  0.0958 -0.1067 -0.2057
 5176W        W 9240   1.431   5.138   0.410  0.0901  0.0563 -0.1876
 5177W        W 9241   2.269   1.434   8.102 -0.0059  0.1905  0.2849
 5178W        W 9242   9.954   8.259   3.718 -0.1307 -0.3185 -0.1290
 5179W        W 9243   9.142   2.026   1.163  0.1729 -0.2065  0.0572
 5180W        W 9244   0.379   9.849   2.178 -0.1992 -0.2169 -0.3468
 5181W        W 9245   5.465   0.020   2.440  0.1035 -0.1638  0.0831
 5182W        W 9246   6.417   9.859   2.423 -0.1769  0.0227  0.0021
 5183W        W 9247   2.756  10.170   9.713 -0.0974 -0.1740  0.0968
 5184W        W 9248   1.962   1.441   8.511  0.0381  0.2426  0.4706
 5185W        W 9249   7.944   8.260   9.660  0.0747 -0.0583 -0.2322
 5186W        W 9250   2.328   5.366   1.224 -0.1575 -0.0106  0.1063
 5187W        W 9251   4.479   5.876   7.146 -0.1547  0.2325 -0.1585
 5188W        W 9252   2.098   7.574   9.962 -0.4205 -0.0543  0.3301
 5189W        W 9253   6.607   7.382   3.115 -0.2669 -0.0535  0.2738
 5190W        W 9254   7.240  10.199   2.062  0.1913  0.0979 -0.0887
 5191W        W 9255   8.493   6.638   0.944  0.4556 -0.0420 -0.2502
 5192W        W 9256   1.159   0.935   2.407  0.0802  0.2443  0.3812
 5193W        W 9257   7.870   9.304   1.186 -0.2368  0.0193  0.2168
 5194W        W 9258   8.437   0.785   8.007  0.2819  0.1012 -0.0533
 5195W        W 9259   6.694   4.982   9.687  0.0142  0.3779 -0.0070
 5196W        W 9260   4.816   9.062   8.234 -0.1992  0.0539  0.2145
 5197W        W 9261   6.906   3.152   0.694 -0.2850 -0.2236  0.0468
 5198W        W 9262   7.764   6.326   9.184 -0.2496 -0.1081  0.0276
 5199W        W 9263   6.370   0.683  10.205  0.2085  0.0256 -0.1421
 5200W        W 9264   5.877   6.426  10.555  0.0455  0.0727 -0.0586
 5201W        W 9265   3.213   2.485   8.555 -0.2052 -0.0467 -0.0486
 5202W        W 9266   1.586   6.232   8.626  0.1569  0.0456 -0.0754
 5203W        W 9267   9.437   9.471   8.996  0.3748 -0.4194  0.1547
 5204W        W 9268   3.759   0.838   9.781  0.0202 -0.0842  0.0719
 5205W        W 9269   1.384   8.794   3.511 -0.1516 -0.1581  0.0348
 5206W        W 9270   6.929   3.293   9.805 -0.3375 -0.2111  0.0905
 5207W        W 9271   8.316   1.438   2.159  0.1604 -0.2493  0.0586
 5208W        W 9272  10.169   5.134   2.633  0.2084  0.1022 -0.2822
 5209W        W 9273   2.927   5.981   1.611  0.2113 -0.1167 -0.0948
 5210W        W 9274   0.926   9.478   0.045  0.0214  0.4343 -0.3318
 5211W        W 9275   0.630   8.679   0.842  0.2301 -0.1928 -0.2014
 5212W        W 9276   0.481   5.557  10.073  0.2099 -0.1564  0.2522
 5213W        W 9277   9.454   3.081   1.876 -0.0191  0.1970  0.0658
 5214W        W 9278   6.023   3.035   0.833 -0.1291 -0.3138 -0.0210
 5215W        W 9279   2.330   5.582   8.196  0.1440 -0.2362 -0.2404
 5216W        W 9280   8.868   7.788   8.081  0.2004 -0.0823  0.0433
 5217W        W 9281   8.457   8.185   8.898  0.2398  0.1777  0.0129
 5218W        W 9282   1.259   5.285   8.940  0.1049  0.0351 -0.0093
 5219W        W 9283   3.393   6.500   9.652 -0.0581 -0.1374 -0.0885
 5220W        W 9284   1.331  10.377   1.842  0.3406  0.0161  0.0898
 5221W        W 9285   6.519   5.689  10.879 -0.1531  0.1480  0.2596
 5222W        W 9286   0.519   5.939   8.318  0.0546 -0.2276 -0.1417
 5223W        W 9287   9.295   2.861   9.099 -0.4220  0.0030 -0.1834
 5224W        W 9288   0.472   7.446  10.751  0.0052  0.1629  0.0269
 5225W        W 9289   5.222   8.516  11.036 -0.0023 -0.2723 -0.0009
 5226W        W 9290   9.338   8.387   0.993 -0.0763 -0.1487  0.2903
 5227W        W 9291   7.617   4.168   0.628 -0.0349 -0.2074 -0.0862
 5228W        W 9292   2.046   3.648  10.321 -0.2407 -0.2650  0.0648
 5229W        W 9293   4.883   7.531   0.952 -0.2829 -0.0233  0.1394
 5230W        W 9294   8.669  10.296   3.378  0.2384  0.0468 -0.0003
 5231W        W 9295   6.181   2.018  10.494  0.0247  0.0134  0.1670
 5232W        W 9296   2.306   1.426  11.078 -0.0892  0.1211 -0.0462
 5233W        W 9297   6.012   8.989   9.082 -0.0524  0.0925  0.0513
 5234W        W 9298   9.172   2.354  10.518 -0.1131  0.0321 -0.2397
 5235W        W 9299   9.135   1.529  10.463 -0.2832 -0.3271 -0.0340
 5236W        W 9300   9.513   7.865   3.762  0.2672 -0.1666 -0.0531
 5237W        W 9301   7.268   9.926   3.329  0.2315  0.1232 -0.1175
 5238W        W 9302   9.678   5.080   2.410 -0.0325 -0.1157  0.2429
 5239W        W 9303   7.841   7.271   1.302  0.1884 -0.1829 -0.0141
 5240W        W 9304   2.857   7.673  10.920 -0.1279 -0.0933 -0.0328
 5241W        W 9305  10.509   9.071   7.540 -0.0784  0.1558 -0.0387
 5242W        W 9306   0.588   3.527   8.221  0.0228  0.3083 -0.2165
 5243W        W 9307   7.863   4.532   9.418 -0.1833  0.1414 -0.0075
 5244W        W 9308   2.934   9.439  10.799 -0.0336  0.1870 -0.1522
 5245W        W 9309   1.301   6.608   2.130  0.1640  0.2524  0.1564
 5246W        W 9310   2.714   3.242   3.024 -0.2365  0.0314 -0.1131
 5247W        W 9311   0.686   4.782   2.122  0.0566 -0.4660  0.0592
 5248W        W 9312   5.515   9.539   2.451 -0.1279  0.1322  0.0199
 5249W        W 9313   6.416  10.714   2.015  0.1499  0.4167  0.4149
 5250W        W 9314   8.357   7.259   8.512  0.2514 -0.1317 -0.1499
 5251W        W 9315   3.344   4.102   2.762  0.3666 -0.3399  0.1588
 5252W        W 9316   3.546   5.182   0.008  0.2163  0.3441  0.1846
 5253W        W 9317   8.644   5.637   1.441 -0.0517 -0.1620  0.0556
 5254W        W 9318   9.134   5.118   0.298  0.1205 -0.1529  0.1547
 5255W        W 9319   0.275   1.558   9.159 -0.1106  0.2210  0.2739
 5256W        W 9320   7.190   5.983   1.955  0.2692 -0.1140 -0.0239
 5257W        W 9321   3.843   9.143  10.542 -0.0821 -0.0827  0.0307
 5258W        W 9322   1.420   4.037   9.575  0.1456  0.0306  0.1722
 5259W        W 9323   4.082   2.270   7.466 -0.1372  0.0140  0.0516
 5260W        W 9324   4.023   1.795   9.720 -0.0495  0.1906  0.1804
 5261W        W 9325   4.993   5.873   3.384  0.0301 -0.0232 -0.0839
 5262W        W 9326   0.797   8.435  10.834  0.0811  0.2940  0.1749
 5263W        W 9327   6.448   4.799   1.448  0.0222 -0.0592  0.0695
 5264W        W 9328   8.889   7.434   2.636  0.1429 -0.0319  0.2838
 5265W        W 9329   4.423   2.529  10.010 -0.0430  0.0435  0.1703
 5266W        W 9330  10.331   3.767   9.416  0.0929 -0.0111  0.1617
 5267W        W 9331   8.158   9.447  10.792  0.3431 -0.5798 -0.2931
 5268W        W 9332   1.280   0.879   8.301  0.0436  0.0874 -0.0327
 5269W        W 9333   4.991   8.929   0.028 -0.0800 -0.0843  0.2001
 5270W        W 9334   9.041   1.516   0.410  0.4841 -0.2032 -0.1210
 5271W        W 9335   5.989   2.209   9.972  0.0820  0.4323  0.1213
 5272W        W 9336   0.048   6.917   3.578 -0.0635 -0.1947 -0.1624
 5273W        W 9337   5.709  10.144   1.938 -0.1663  0.1477 -0.2599
 5274W        W 9338   5.036   7.722  10.735  0.0268  0.2881  0.0268
 5275W        W 9339   8.015   7.896   7.838 -0.1571 -0.0331  0.1439
 5276W        W 9340   3.886   0.488  10.528  0.1416 -0.3721  0.1916
 5277W        W 9341   8.279   2.023   9.978 -0.2590 -0.3785  0.3716
 5278W        W 9342  10.067  10.703   3.361 -0.0288 -0.0004 -0.4010
 5279W        W 9343   3.696   4.795  10.048 -0.1410  0.1905  0.0081
 5280W        W 9344   4.381   8.608   9.634 -0.2538  0.0803 -0.0874
 5281W        W 9345   8.536   5.449   8.876  0.2087  0.0902 -0.0087
 5282W        W 9346   7.871   6.395  10.264  0.1431 -0.2996 -0.1136
 5283W        W 9347   6.607   3.885   8.314 -0.4838  0.1863 -0.2077
 5284W        W 9348   0.516   4.857   3.942  0.0355  0.2314 -0.2338
 5285W        W 9349   3.154   2.409   1.910 -0.0667  0.0517  0.1259
 5286W        W 9350   6.826   2.861   8.382 -0.0887 -0.1969  0.1616
 5287W        W 9351   8.553   8.269   2.715 -0.0767 -0.2055  0.1012
 5288W        W 9352   0.403   9.801   3.423  0.2360  0.0901  0.1330
 5289W        W 9353   2.856   9.043   9.963 -0.0444 -0.1221  0.2222
 5290W        W 9354   9.023   4.500   3.156 -0.0647  0.2030 -0.1144
 5291W        W 9355   3.133   3.851   9.435 -0.1109 -0.0176 -0.1670
 5292W        W 9356   4.656  10.164   1.512 -0.1856  0.0654  0.1362
 5293W        W 9357   9.130   9.348   0.564  0.2189 -0.2724 -0.4166
 5294W        W 9358   6.297   3.395   3.202  0.2137 -0.0090 -0.0328
 5295W        W 9359  10.434  10.274   4.017  0.2189  0.0795 -0.2088
 5296W        W 9360   1.077   0.895   8.833  0.1331 -0.0052  0.1898
 5297W        W 9361   4.240   8.935   3.132 -0.0823 -0.0928 -0.1069
 5298W        W 9362   6.251   4.445  10.187 -0.0081  0.1582  0.0770
 5299W        W 9363   2.359   9.346  11.255 -0.1647 -0.0626  0.3461
 5300W        W 9364   6.949   7.804   9.542 -0.0490  0.0446  0.2558
 5301W        W 9365   8.336   1.929   1.146 -0.2285  0.0752  0.0722
 5302W        W 9366   5.798   7.749   3.075 -0.3957  0.0707 -0.1776
 5303W        W 9367   3.481   6.701   0.372  0.0496  0.0840  0.0431
 5304W        W 9368   4.073   2.275   1.606  0.1227 -0.2591  0.1935
 5305W        W 9369   6.045   9.099   8.123  0.0110  0.1531  0.1306
 5306W        W 9370   0.203   8.171   0.913 -0.1552  0.0553  0.0683
 5307W        W 9371   5.321   3.094   1.842  0.1114  0.4254 -0.1467
 5308W        W 9372   3.165   1.827  10.086  0.0688  0.3985 -0.4365
 5309W        W 9373   2.494   6.614   9.325  0.2355  0.2050  0.0200
 5310W        W 9374  10.433   4.144   8.124 -0.1804 -0.0823  0.0166
 5311W        W 9375   8.562   8.211   1.581 -0.4397 -0.3987  0.2294
 5312W        W 9376   7.913   5.827   3.011 -0.0416  0.1178  0.0229
 5313W        W 9377   3.293   4.269   1.519  0.3598 -0.0477 -0.2681
 5314W        W 9378   2.976   0.533   1.575  0.2057 -0.1230 -0.2553
 5315W        W 9379   7.994   9.145   3.754 -0.0814  0.0211 -0.2747
 5316W        W 9380   3.100   8.792   0.184  0.2245 -0.0875  0.0070
 5317W        W 9381  10.226   3.827   3.722  0.1699  0.0770  0.1389
 5318W        W 9382   9.767   0.167   9.243 -0.1630  0.4343 -0.0373
 5319W        W 9383   7.108   8.591  10.314  0.0607 -0.0170  0.0871
 5320W        W 9384   5.515  10.246   2.575  0.1793  0.0015 -0.0961
 5321W        W 9385   6.659   2.549   9.385  0.2801  0.4835  0.2413
 5322W        W 9386   6.740   5.595   9.111 -0.1233 -0.3067  0.1848
 5323W        W 9387   5.748   1.391   2.870  0.2590 -0.1587  0.3599
 5324W        W 9388   6.850   2.244   3.745  0.1383 -0.0802  0.1852
 5325W        W 9389   0.860  10.324   2.763 -0.2711  0.3341  0.2373
 5326W        W 9390   9.881   9.302  11.223 -0.0843  0.3138 -0.2931
 5327W        W 9391   3.210   3.806   0.186 -0.2901  0.0536  0.1751
 5328W        W 9392   3.317   2.763  10.134 -0.2444  0.2332  0.1045
 5329W        W 9393   4.544   5.601   0.786  0.0177  0.0343 -0.0998
 5330W        W 9394   1.641  10.070  11.160 -0.4733 -0.1737 -0.2286
 5331W        W 9395   2.744   7.824   4.232  0.0933  0.2220 -0.0898
 5332W        W 9396  10.439   4.967   9.577 -0.0731 -0.0466  0.2358
 5333W        W 9397   6.497   1.625   9.080  0.1111 -0.1434  0.1025
 5334W        W 9398   8.956   5.763   7.856  0.5467  0.0232  0.1507
 5335W        W 9399   8.973   0.337   0.538 -0.0738 -0.1284 -0.1108
 5336W        W 9400   1.300   9.767   9.450  0.0879  0.2309  0.1456
 5337W        W 9401   9.720   7.131   2.990 -0.2326  0.2073 -0.2349
 5338W        W 9402  10.039   7.011   0.158  0.0793 -0.0434  0.0537
 5339W        W 9403   1.493   7.612   8.121 -0.0016  0.2050 -0.0242
 5340W        W 9404   1.575   3.494   8.405 -0.3017  0.1624 -0.3261
 5341W        W 9405   0.236   6.658   1.316 -0.1812  0.1028  0.1653
 5342W        W 9406   2.830   0.939   7.666  0.0230 -0.0175 -0.0858
 5343W        W 9407   5.812   3.620  10.506  0.0456 -0.0667 -0.0777
 5344W        W 9408   2.485   1.521   2.602 -0.0819 -0.1611  0.0287
 5345W        W 9409   8.795   2.835   9.286  0.1558  0.1983  0.0255
 5346W        W 9410   6.533   7.546   9.676  0.1191  0.1234 -0.1552
 5347W        W 9411   5.833   9.268   9.502  0.1641  0.0779  0.1571
 5348W        W 9412   4.091   3.947  10.876 -0.3151 -0.1719 -0.0226
 5349W        W 9413   8.466   0.337   2.808  0.1362 -0.2642  0.0323
 5350W        W 9414   8.245  10.098   9.620 -0.0257 -0.0125 -0.2160
 5351W        W 9415   9.611  10.701   1.018  0.1544  0.0601 -0.3998
 5352W        W 9416   0.301   1.982   8.864 -0.1128 -0.0045 -0.1691
 5353W        W 9417   6.896   0.075  10.786 -0.2283 -0.2556  0.0063
 5354W        W 9418   8.823   4.111  10.800  0.0613  0.0266 -0.0633
 5355W        W 9419   7.976   2.680   3.480 -0.1157  0.2043 -0.2897
 5356W        W 9420   0.863  10.509   1.986  0.1830  0.0151 -0.1038
 5357W        W 9421   8.056   0.992  11.208 -0.0867  0.2737 -0.2352
 5358W        W 9422   8.697   8.954   0.535  0.0942 -0.3172  0.3105
 5359W        W 9423   7.313   9.095   3.604 -0.0387 -0.0330 -0.1781
 5360W        W 9424   3.790   7.398   2.369 -0.0357 -0.2187  0.0652
 5361W        W 9425  10.123   5.718   3.492 -0.2698 -0.2040 -0.2859
 5362W        W 9426  10.448  10.279   9.372 -0.2693 -0.0035 -0.1383
 5363W        W 9427   0.853   9.614  10.684 -0.0430  0.0244  0.3704
 5364W        W 9428   0.021   5.257   8.344  0.1621 -0.2576 -0.1730
 5365W        W 9429   5.678   8.480  11.166 -0.1421  0.1397  0.0744
 5366W        W 9430   6.458   2.258   9.018  0.0428  0.0406 -0.5826
 5367W        W 9431   8.062  10.194   9.160 -0.2319  0.2154 -0.0682
 5368W        W 9432  10.680   3.255   7.677 -0.1941  0.0894  0.0192
 5369W        W 9433   3.178   9.963   8.952 -0.1069  0.0192 -0.2128
 5370W        W 9434  10.052   9.453   1.360  0.0017 -0.1216  0.1648
 5371W        W 9435   6.364   6.819   9.031  0.1608  0.1835  0.1717
 5372W        W 9436   2.663   4.609   2.426  0.0755  0.0837  0.0135
 5373W        W 9437   3.172   4.407   7.173  0.1884  0.0763 -0.1167
 5374W        W 9438   7.590   8.857   3.220 -0.0890 -0.1977 -0.0444
 5375W        W 9439   1.850   9.205   9.550  0.0913  0.1345  0.3261
 5376W        W 9440  10.108   9.175   3.402  0.0828 -0.1093 -0.1324
 5377W        W 9441   0.543   7.332   9.821  0.3933 -0.0024  0.1462
 5378W        W 9442   2.275   5.974  10.073  0.5128 -0.4538  0.1112
 5379W        W 9443   9.751   3.673  10.816  0.2700  0.0038  0.0840
 5380W        W 9444   6.083   7.026   0.093 -0.0409  0.1188  0.0228
 5381W        W 9445  10.176   0.409   3.577 -0.0180  0.0408 -0.0771
 5382W        W 9446   8.527   7.159   4.260 -0.2959  0.1701 -0.1301
 5383W        W 9447  10.060   8.723  11.092  0.4229  0.0466 -0.0260
 5384W        W 9448   2.309   3.050  10.012 -0.3462 -0.0475 -0.3086
 5385W        W 9449  10.415   5.415   0.806 -0.1958 -0.1607 -0.0076
 5386W        W 9450   1.528   2.289   1.893 -0.6248  0.2239 -0.2707
 5387W        W 9451   0.368   1.191   8.155  0.2627 -0.2884  0.0438
 5388W        W 9452   0.990   5.439   0.041 -0.0101  0.0463  0.1467
 5389W        W 9453   9.719   4.765  11.047 -0.1032  0.0186 -0.0841
 5390W        W 9454   1.031   1.740   8.676  0.1196 -0.0104  0.1246
 5391W        W 9455   7.183   3.367  10.276  0.0915  0.0916 -0.0518
 5392W        W 9456   2.019  10.224   3.866  0.0922 -0.1493  0.3029
 5393W        W 9457   5.783   0.352   2.789 -0.0035 -0.0759  0.1376
 5394W        W 9458   5.720   4.449   2.967 -0.0257  0.0730 -0.1232
 5395W        W 9459   9.357   8.293   7.592  0.3109 -0.1881  0.0648
 5396W        W 9460   8.181   5.728   3.396  0.0149  0.1217 -0.0882
 5397W        W 9461   0.978  10.160   1.590 -0.1399 -0.0221  0.2153
 5398W        W 9462   0.946   6.512   0.692  0.3063  0.1514 -0.0013
 5399W        W 9463   2.121   8.790  11.056 -0.2440  0.0246 -0.0356
 5400W        W 9464   5.022   3.651   0.389  0.1635 -0.0426 -0.2589
 5401W        W 9465   9.273   5.017  10.707 -0.0576  0.0795  0.4269
 5402W        W 9466   4.919   6.016  10.502 -0.4167 -0.1396 -0.2191
 5403W        W 9467   5.420   6.390   1.247  0.1372 -0.0194 -0.1079
 5404W        W 9468   9.520   5.241  11.286  0.0101  0.0852 -0.0475
 5405W        W 9469  10.670   0.021   2.625  0.0375 -0.0991  0.0138
 5406W        W 9470   8.081   3.859   3.120  0.1087 -0.0991  0.4018
 5407W        W 9471   9.600   0.215   0.593  0.1149  0.2290  0.2685
 5408W        W 9472   4.503   1.632   8.832 -0.0609  0.3724 -0.0197
 5409W        W 9473   8.241   0.932   0.931 -0.1487 -0.0448  0.0196
 5410W        W 9474   6.976   2.225  10.061  0.1738 -0.0181  0.0355
 5411W        W 9475   1.135   4.316   0.531  0.0635 -0.2280 -0.0142
 5412W        W 9476   7.566   2.895   1.345 -0.0160  0.0898  0.2454
 5413W        W 9477   9.407   2.368   3.438  0.1334 -0.0087  0.0084
 5414W        W 9478   5.406  10.138   1.530  0.2193  0.0438  0.0524
 5415W        W 9479   0.427   8.716   8.704 -0.1153  0.0292 -0.0124
 5416W        W 9480   3.371   1.125   8.953  0.0255  0.0053 -0.0428
 5417W        W 9481   2.647   8.456  11.107  0.2052 -0.1007  0.1432
 5418W        W 9482   6.511   5.617   0.736  0.0695  0.1320  0.0155
 5419W        W 9483   2.619   8.580   8.348 -0.0412  0.1087 -0.1226
 5420W        W 9484   3.505   0.667   8.753  0.0934  0.2502  0.1282
 5421W        W 9485   7.555   2.458   1.562  0.1339 -0.1166  0.1670
 5422W        W 9486   0.401  10.519   2.952  0.0793  0.1225 -0.1121
 5423W        W 9487   6.435   1.008   8.553  0.1945 -0.3406 -0.1463
 5424W        W 9488  10.117   4.505   8.120  0.2018  0.1497 -0.2210
 5425W        W 9489   9.316   7.475   2.934  0.2930 -0.1087  0.3224
 5426W        W 9490   5.273   8.149   0.150  0.2466  0.0533  0.0427
 5427W        W 9491  10.528   6.962   1.245 -0.0905 -0.2692 -0.0399
 5428W        W 9492   5.178   0.740   9.506  0.1178 -0.0702  0.1989
 5429W        W 9493   4.715  10.527   9.865 -0.0139  0.0876 -0.3002
 5430W        W 9494   5.935   0.653   8.718  0.0959 -0.2881 -0.0236
 5431W        W 9495  10.504   5.389   7.965  0.1219  0.1084  0.2118
 5432W        W 9496   3.849   0.036   0.706  0.0346 -0.1127  0.0725
 5433W        W 9497   4.051   1.570  11.270  0.0055 -0.0967 -0.0676
 5434W        W 9498   0.793   0.789   8.436 -0.0365  0.4826  0.0371
 5435W        W 9499   1.749   0.382   0.440 -0.1219  0.1737 -0.1641
 5436W        W 9500   5.292   5.663   8.396 -0.0847  0.1468 -0.2304
 5437W        W 9501   6.701   9.417   0.261  0.0665 -0.1994  0.0765
 5438W        W 9502   2.114   4.460  10.001 -0.2456 -0.3182 -0.0779
 5439W        W 9503   8.659   4.953   2.249 -0.2435 -0.0776 -0.2380
 5440W        W 9504   2.433   9.833   2.134 -0.0170  0.1579  0.2143
 5441W        W 9505   2.013   3.010   1.582 -0.1901 -0.1128  0.1046
 5442W        W 9506   1.966   5.052   8.181 -0.1838  0.2643 -0.0025
 5443W        W 9507   9.242   1.362   3.087 -0.0165 -0.0199 -0.1504
 5444W        W 9508   8.397   1.698   1.665 -0.0699 -0.2453 -0.3209
 5445W        W 9509   3.766   5.105   1.376 -0.2014  0.2158  0.2938
 5446W        W 9510  10.332   2.420   9.590 -0.0640  0.1432 -0.1735
 5447W        W 9511   6.504  10.738  10.517 -0.0184  0.1850 -0.4458
 5448W        W 9512   2.454   1.801   0.049 -0.0855  0.1060  0.0955
 5449W        W 9513   9.230   7.548   3.484  0.1185 -0.0988  0.0775
 5450W        W 9514   4.750   9.075   1.001  0.0922 -0.3059  0.1974
 5451W        W 9515   7.550  10.228   1.027 -0.0998 -0.3615  0.0337
 5452W        W 9516   5.937   7.619   8.889  0.1544 -0.0720  0.1429
 5453W        W 9517   9.042   6.169  10.001  0.2038 -0.1037 -0.1328
 5454W        W 9518   7.428   6.323  10.030  0.1648  0.0346  0.3981
 5455W        W 9519   5.168   1.704  10.800  0.2816 -0.1263 -0.2958
 5456W        W 9520   0.789   6.251  10.636  0.1365  0.0343 -0.3027
 5457W        W 9521   3.939   6.411  10.908 -0.2814 -0.1512  0.0656
 5458W        W 9522  10.329   0.556   8.223  0.2491 -0.1623  0.0140
 5459W        W 9523  10.072   7.122  10.683  0.0083  0.1392  0.2323
 5460W        W 9524   7.467   8.344   0.024  0.0296  0.2852  0.2281
 5461W        W 9525   4.159   7.811  10.878 -0.0040  0.0639  0.0507
 5462W        W 9526   9.326   6.593  10.049 -0.0996 -0.1377  0.1613
 5463W        W 9527   5.550   4.280   9.342  0.1519  0.1062 -0.0228
 5464W        W 9528   1.987  10.518  10.910 -0.4711  0.4362  0.1345
 5465W        W 9529   3.304   5.476   8.284 -0.3626  0.2189 -0.0314
 5466W        W 9530   2.288   7.329   1.531 -0.2721 -0.0712  0.0324
 5467W        W 9531   8.834   4.622   9.872 -0.0831 -0.0576  0.1402
 5468W        W 9532   0.330  10.713   8.317  0.1031  0.1315  0.3660
 5469W        W 9533  10.689   7.102   8.161 -0.0403 -0.3234 -0.1810
 5470W        W 9534   2.884   7.267   1.707 -0.2042 -0.0533 -0.1068
 5471W        W 9535   1.623   9.115   8.227 -0.1766  0.1586  0.0377
 5472W        W 9536   8.108  10.157   1.030 -0.0070  0.0363  0.0169
 5473W        W 9537   8.207   7.456   3.964  0.5807 -0.1370  0.1509
 5474W        W 9538   5.627   7.439  10.200  0.1312  0.1761  0.1061
 5475W        W 9539   7.412   5.229   1.530  0.0399  0.3145  0.1764
 5476W        W 9540   6.842   1.704   3.592 -0.2316  0.3708  0.0569
 5477W        W 9541   6.278   4.980   2.368  0.2220  0.2724 -0.0954
 5478W        W 9542   7.723   4.813   9.036 -0.0519  0.0098  0.4263
 5479W        W 9543   1.076   2.774   9.737 -0.0356 -0.1350  0.2785
 5480W        W 9544   8.138   4.060   8.242 -0.0370 -0.2093  0.0138
 5481W        W 9545  10.546   0.332   1.376  0.2047 -0.1167 -0.0510
 5482W        W 9546   6.402   3.322   0.494  0.0860 -0.3046 -0.2424
 5483W        W 9547   8.488  10.570  10.722 -0.1185  0.1118  0.2572
 5484W        W 9548   3.309   6.169  10.087  0.1067  0.1801 -0.2052
 5485W        W 9549   9.543   1.774   9.139  0.0113 -0.0207 -0.1971
 5486W        W 9550   9.062   5.075   1.540 -0.3807 -0.2243 -0.2388
 5487W        W 9551   4.267   9.711  11.186  0.1170  0.0328  0.2463
 5488W        W 9552   4.665   2.187   0.633 -0.0449  0.2540  0.3048
 5489W        W 9553  10.501   6.903   9.949 -0.0726 -0.3785 -0.0748
 5490W        W 9554   5.880   9.385   3.505 -0.0858 -0.2802 -0.2349
 5491W        W 9555  10.498   9.589   1.730  0.1767 -0.2383 -0.0262
 5492W        W 9556   6.504   0.923   1.924 -0.1379 -0.2740 -0.0549
 5493W        W 9557   7.988   4.900   8.114  0.2319 -0.1614  0.2824
 5494W        W 9558   5.708   8.822   3.091  0.0116  0.0348 -0.0999
 5495W        W 9559   1.893   1.166  11.130 -0.0727 -0.3136 -0.1412
 5496W        W 9560   7.935   8.497   3.055  0.0859  0.0915  0.1456
 5497W        W 9561   6.929   7.837   8.531  0.2364  0.1650  0.0637
 5498W        W 9562   6.366   3.577   1.916  0.3102 -0.0219 -0.0987
 5499W        W 9563  10.013   7.961  10.513 -0.2847  0.4882 -0.0608
 5500W        W 9564   9.366   9.773   9.488  0.0516 -0.1809 -0.1377
 5501W        W 9565   7.392   5.808  10.787  0.0425 -0.2100  0.1637
 5502W        W 9566   9.053   2.643  10.024 -0.2108  0.1192 -0.1143
 5503W        W 9567   2.413  10.093  10.956 -0.1922 -0.0529 -0.1907
 5504W        W 9568   5.142   6.416  10.292  0.1604 -0.2268 -0.3100
 5505W        W 9569   0.328   2.565   9.039 -0.2319 -0.0593 -0.1768
 5506W        W 9570   9.360   5.695   2.945  0.1616 -0.0154 -0.2930
 5507W        W 9571   3.816   9.385   1.226 -0.3899 -0.2636  0.0265
 5508W        W 9572   7.468   1.715   2.796 -0.0865 -0.4132  0.0533
 5509W        W 9573   3.907   3.098  11.188 -0.2551  0.2103  0.2324
 5510W        W 9574   3.513   3.407   7.988 -0.3215  0.2938 -0.5875
 5511W        W 9575   3.454   3.433   2.294 -0.1692 -0.1804 -0.1502
 5512W        W 9576   0.558   3.878   2.443  0.0399 -0.0832 -0.3464
 5513W        W 9577   4.526   0.331  10.925  0.0583 -0.0280 -0.2250
 5514W        W 9578   7.294   3.203   1.042 -0.1980 -0.0513  0.2998
 5515W        W 9579   3.390   8.716   2.524  0.3767 -0.0206  0.1388
 5516W        W 9580   5.051   0.739   2.954  0.1191  0.0437 -0.0683
 5517W        W 9581   9.171   0.561   8.615 -0.1185  0.1199 -0.1696
 5518W        W 9582   5.389   8.813   8.514 -0.2151  0.1503 -0.1052
 5519W        W 9583   9.019   6.696   9.030 -0.0396  0.3247 -0.2903
 5520W        W 9584   0.686   1.399   2.179  0.0896 -0.1015 -0.1064
 5521W        W 9585   7.962   2.840   9.827  0.1615  0.1234  0.2286
 5522W        W 9586   1.583   1.457   1.341 -0.1557 -0.0078  0.0012
 5523W        W 9587   2.862   8.052   2.225  0.0443  0.1912 -0.0832
 5524W        W 9588   1.310   6.632   3.882  0.0842  0.0275 -0.0460
 5525W        W 9589   8.104  10.657   8.429 -0.2570  0.2643  0.2217
 5526W        W 9590  10.012   7.057   0.736  0.2563  0.0497  0.0203
 5527W        W 9591   4.597   5.002   9.930  0.1525  0.1051  0.0492
 5528W        W 9592   7.877   0.279   9.213 -0.3490 -0.3260 -0.3534
 5529W        W 9593   4.999  10.451  10.697 -0.5510  0.2879 -0.5176
 5530W        W 9594   7.957   1.328   9.452 -0.1582  0.2232  0.1320
 5531W        W 9595   5.955   6.142   7.441 -0.1677  0.0782 -0.2314
 5532W        W 9596   8.023   4.770   9.819  0.3464  0.0660 -0.1068
 5533W        W 9597  10.155   8.967   8.681 -0.0672  0.4353  0.0102
 5534W        W 9598   5.742   2.130   9.491 -0.2478  0.1923 -0.1648
 5535W        W 9599   5.894   2.135   0.558  0.0372  0.1541  0.3300
 5536W        W 9600   2.452   7.473  10.333 -0.2796 -0.0890 -0.2345
 5537W        W 9601   5.203   6.990  10.479  0.2167  0.2805  0.2082
 5538W        W 9602   3.113   2.555   7.544 -0.1291  0.2918 -0.0291
 5539W        W 9603   1.384   4.354   8.935 -0.1116  0.0027  0.2501
 5540W        W 9604  10.680   9.176   9.793 -0.0540 -0.1436  0.0545
 5541W        W 9605   3.994   4.086   0.646  0.0807 -0.0077 -0.0372
 5542W        W 9606   2.010   2.912  10.391 -0.1533  0.2081 -0.1342
 5543W        W 9607  10.302   4.520   1.451  0.0567  0.0197  0.1524
 5544W        W 9608   5.827   8.184  10.566  0.2514 -0.0592  0.0590
 5545W        W 9609   8.886   3.227   3.179 -0.3423  0.0809  0.0994
 5546W        W 9610   2.427   7.781  10.741 -0.1237  0.1713  0.4504
 5547W        W 9611   2.475   8.831   1.009  0.1689 -0.3164  0.0999
 5548W        W 9612   7.382   2.360   2.043 -0.1826  0.0951 -0.2357
 5549W        W 9613   8.503   6.967   1.900 -0.3980  0.0106  0.2411
 5550W        W 9614   4.150   2.896   2.686 -0.0303  0.1807  0.1935
 5551W        W 9615   6.587   8.273  10.232 -0.1032 -0.1860 -0.1418
 5552W        W 9616   4.987   7.276   9.099 -0.1413 -0.2986 -0.2161
 5553W        W 9617   8.088   7.746   0.423  0.0818  0.2051 -0.1403
 5554W        W 9618   2.818   9.300   9.464  0.1419 -0.1898  0.1627
 5555W        W 9619   9.302   1.965   3.783 -0.0403 -0.0537  0.1418
 5556W        W 9620   5.093   5.122   8.508  0.3125 -0.0462  0.1330
 5557W        W 9621   3.044   4.401  10.366  0.3128 -0.0135  0.0523
 5558W        W 9622   0.165   5.324  10.971 -0.0774  0.1088  0.0063
 5559W        W 9623   4.953   7.164   1.416  0.5829  0.0500 -0.0732
 5560W        W 9624   1.412   6.439  10.437  0.1079 -0.1811  0.1368
 5561W        W 9625   1.573   7.923  10.481  0.0714 -0.3608  0.1794
 5562W        W 9626   4.201   8.326   9.230  0.0301  0.2637 -0.1051
 5563W        W 9627   6.601   6.025   3.412 -0.3904 -0.1330  0.1331
 5564W        W 9628   1.486   7.456   3.417  0.1816 -0.1219  0.0907
 5565W        W 9629   1.996   5.645   0.886 -0.0120 -0.1269  0.0609
 5566W        W 9630   1.593   8.889   1.434 -0.0362 -0.0824  0.0382
 5567W        W 9631  10.162   4.562  10.394 -0.1828  0.2672 -0.3995
 5568W        W 9632   2.184   6.757  10.872  0.0009  0.1057  0.1282
 5569W        W 9633   0.918   8.408   1.848  0.0339 -0.0743 -0.1862
 5570W        W 9634   9.705   9.044   2.019 -0.2463  0.2630  0.1061
 5571W        W 9635   8.310  10.046   0.082  0.2455 -0.3157 -0.3219
 5572W        W 9636   9.526   9.771   0.769  0.1044  0.1136  0.0397
 5573W        W 9637   7.949   9.874   9.948 -0.0624 -0.1909  0.2272
 5574W        W 9638   2.231   3.077   3.266  0.2899 -0.4678 -0.0008
 5575W        W 9639   5.284   9.967   9.369 -0.0015  0.0564 -0.1113
 5576W        W 9640   1.588   5.176   7.843 -0.1602  0.2871  0.1122
 5577W        W 9641   3.748   5.372   2.378  0.1505  0.2434 -0.0338
 5578W        W 9642   1.876   9.174  10.030  0.0614  0.1295  0.2531
 5579W        W 9643   3.391   2.961  11.150 -0.0296  0.1839  0.2144
 5580W        W 9644   5.259   3.567  10.698  0.0419  0.0103 -0.1758
 5581W        W 9645   2.840   6.931   9.076  0.1942 -0.1774  0.0399
 5582W        W 9646  10.211   1.194  10.989  0.1115  0.0498 -0.1413
 5583W        W 9647   1.593   6.119   2.932  0.0677 -0.0334  0.0361
 5584W        W 9648   5.317   0.544   2.528 -0.1565  0.3493 -0.0612
 5585W        W 9649   2.041   8.226   9.637 -0.1013 -0.0558  0.0689
 5586W        W 9650   8.329   6.864   0.491  0.0188  0.1418 -0.1005
 5587W        W 9651   0.048   3.898   2.293 -0.2432 -0.1485  0.2594
 5588W        W 9652   0.412   9.983   2.891  0.2272 -0.0989 -0.0386
 5589W        W 9653   1.556   2.688   2.956  0.0473  0.1250  0.0828
 5590W        W 9654   6.889   4.119  10.708 -0.2642 -0.2016 -0.1168
 5591W        W 9655   2.216   0.537   0.267  0.1232  0.0458  0.2501
 5592W        W 9656   9.220   5.723  10.543 -0.1538 -0.1541  0.0568
 5593W        W 9657   3.361   3.348   0.500 -0.2242 -0.1290  0.2110
 5594W        W 9658   1.611   7.426   9.326 -0.0804 -0.0142  0.3481
 5595W        W 9659   7.733   0.479   3.770  0.3887 -0.0446  0.0062
 5596W        W 9660   2.534   2.469   9.894  0.1088  0.0403 -0.1562
 5597W        W 9661   3.409   3.348  10.750 -0.0817  0.0010 -0.2153
 5598W        W 9662   6.063   6.723   7.233 -0.1627  0.3090 -0.2642
 5599W        W 9663   3.276   7.517   2.973 -0.0302  0.2693  0.2381
 5600W        W 9664   2.676   3.970   7.294  0.1257 -0.0326 -0.1356
 5601W        W 9665   5.300   1.054  11.216  0.3192  0.1202  0.1619
 5602W        W 9666   8.411   4.535   2.436 -0.0139  0.1316 -0.1256
 5603W        W 9667   2.095   3.379   7.749  0.3049 -0.1527  0.2330
 5604W        W 9668   4.046   5.157   8.934  0.1506  0.0714  0.1039
 5605W        W 9669   3.437   5.464   0.398  0.1375  0.1428 -0.1981
 5606W        W 9670   5.183   4.132   6.850 -0.1587 -0.4615 -0.1241
 5607W        W 9671  10.005   0.493   8.723 -0.1408  0.0213  0.1036
 5608W        W 9672   8.834   9.162   9.579 -0.0483  0.1602 -0.0656
 5609W        W 9673   8.050   0.385   9.794 -0.4744 -0.3449  0.0755
 5610W        W 9674   2.782   1.408   1.801  0.3168 -0.0339 -0.2183
 5611W        W 9675   5.230  10.568   0.636  0.3647 -0.3549  0.2038
 5612W        W 9676   0.631   6.168   2.590  0.1944 -0.0605  0.1768
 5613W        W 9677   4.216   6.553   8.253 -0.1644 -0.2021 -0.0912
 5614W        W 9678   0.265   5.938   6.837 -0.0014 -0.2552 -0.0851
 5615W        W 9679  10.473   9.656   3.396 -0.0314 -0.0186  0.1197
 5616W        W 9680   8.374   4.422   9.620  0.2439  0.1505 -0.1531
 5617W        W 9681   7.252   3.442  11.097  0.1270  0.2646 -0.0757
 5618W        W 9682   8.140   7.793   8.801  0.2048  0.0983 -0.2817
 5619W        W 9683   6.692   8.790  10.197 -0.2543 -0.1695  0.4048
 5620W        W 9684  10.016   8.069   9.115  0.0449 -0.1124 -0.3177
 5621W        W 9685   3.092   9.724   3.297 -0.1996 -0.1518 -0.1054
 5622W        W 9686   1.154   3.638   9.821 -0.1378 -0.0943 -0.4053
 5623W        W 9687   0.900   8.169   1.368 -0.0352 -0.0523 -0.0040
 5624W        W 9688   1.554   2.114   8.093  0.0724  0.0585  0.3182
 5625W        W 9689   5.940   1.590  10.171 -0.0731 -0.0954  0.1254
 5626W        W 9690   8.295  10.526   2.593 -0.3416  0.0005  0.1289
 5627W        W 9691   0.119   4.760   8.600 -0.1848 -0.2037  0.2855
 5628W        W 9692   6.021   9.445   4.035 -0.1021 -0.2341  0.0198
 5629W        W 9693   2.021   0.736   0.662  0.3451 -0.0526  0.1012
 5630W        W 9694   1.628   9.534   2.446  0.1868 -0.0239 -0.2485
 5631W        W 9695   2.489   2.983  10.471  0.0121  0.1043 -0.2696
 5632W        W 9696   3.652   2.321   1.851 -0.2652  0.2583 -0.2237
 5633W        W 9697   3.159   4.671  10.884  0.3898  0.2595 -0.1185
 5634W        W 9698   7.448   2.199   3.022 -0.0921 -0.2280 -0.3691
 5635W        W 9699   4.022   5.529   9.258 -0.2477  0.3990 -0.1189
 5636W        W 9700   6.311   1.523  10.550 -0.1942  0.1119 -0.1417
 5637W        W 9701   3.452   4.356   8.809 -0.0765  0.0105 -0.1402
 5638W        W 9702   1.262   8.616  11.052  0.1952 -0.0716  0.4688
 5639W        W 9703   2.527   3.117  11.213  0.0219 -0.1382  0.1788
 5640W        W 9704   3.211   6.827   3.453  0.0012 -0.0503 -0.2175
 5641W        W 9705  10.701   0.487   9.555 -0.0821  0.1742  0.0105
 5642W        W 9706   2.530  10.155  10.162  0.0985  0.2941 -0.4049
 5643W        W 9707   5.404   2.353   0.600 -0.0025  0.4119 -0.2680
 5644W        W 9708   3.239   9.838   3.780  0.2851 -0.2365 -0.0364
 5645W        W 9709   2.579   0.889   0.522 -0.0215  0.1098  0.1524
 5646W        W 9710   4.171   5.431   1.137  0.0725  0.0066 -0.2611
 5647W        W 9711   5.056   8.601   3.201  0.2143  0.0928 -0.0938
 5648W        W 9712   1.552   8.834   0.936 -0.3807  0.0018 -0.0402
 5649W        W 9713   1.650   3.565  11.305  0.0148  0.0396 -0.2078
 5650W        W 9714   2.633   0.161   1.766 -0.1211  0.3141  0.1205
 5651W        W 9715  10.394   7.442   3.587 -0.0053  0.0418  0.4947
 5652W        W 9716   1.612   6.908   1.447 -0.1473  0.1008 -0.0303
 5653W        W 9717  10.709   4.257   0.807  0.1661  0.2596  0.1181
 5654W        W 9718   3.155   0.213   3.684  0.1667  0.0807  0.1652
 5655W        W 9719  10.635   9.936  10.504  0.2249 -0.2155  0.0972
 5656W        W 9720   4.025   4.544   0.439 -0.1017  0.2689 -0.0554
 5657W        W 9721   5.623   7.796   0.898 -0.4414 -0.2926 -0.0961
 5658W        W 9722   7.562   7.026   2.892 -0.1978 -0.1051 -0.0444
 5659W        W 9723   1.446   9.968   9.034 -0.2524 -0.1616 -0.0463
 5660W        W 9724   3.758   0.891  10.777  0.2382  0.3625  0.4000
 5661W        W 9725   9.265   2.568   1.140  0.0220  0.0701  0.2869
 5662W        W 9726  10.258   0.809   2.903 -0.0174 -0.0048 -0.0475
 5663W        W 9727   6.815   0.874   4.718  0.0049 -0.0518 -0.1588
 5664W        W 9728   7.515   4.413   3.093  0.1187  0.0935 -0.1913
 5665W        W 9729   9.617   8.959   8.587  0.1895 -0.1553  0.2758
 5666W        W 9730  10.614   2.567   1.844 -0.1645 -0.2552  0.0136
 5667W        W 9731   5.877   8.113   3.413 -0.0747 -0.1382  0.1691
 5668W        W 9732   8.375   7.710   8.214 -0.0037  0.0977  0.2093
 5669W        W 9733   7.128   8.451   8.937  0.1871  0.0872  0.2109
 5670W        W 9734   7.474   6.077   9.525  0.2590  0.0996  0.0132
 5671W        W 9735   0.446   1.758  11.007  0.2943 -0.1109  0.1263
 5672W        W 9736   1.769   9.860   1.697  0.1250 -0.1526  0.1121
 5673W        W 9737   6.595   1.602   9.568 -0.1759 -0.1224 -0.0165
 5674W        W 9738   9.816   0.888  10.811  0.0885  0.1123 -0.0344
 5675W        W 9739   8.332   4.962   3.361 -0.1615 -0.0256  0.0499
 5676W        W 9740   0.170   9.064   0.362  0.1861 -0.0203 -0.0056
 5677W        W 9741   1.918   8.949   3.556 -0.0981 -0.1862  0.0691
 5678W        W 9742   9.020   4.085   8.027 -0.2026 -0.0475  0.0153
 5679W        W 9743   4.638   6.299   9.163 -0.0368  0.3248 -0.3659
 5680W        W 9744   0.478   3.769  10.610  0.2519  0.1292  0.1059
 5681W        W 9745   8.806   1.379   1.189 -0.2865 -0.0526 -0.3081
 5682W        W 9746   7.259   8.820   8.650 -0.3317  0.0436  0.2175
 5683W        W 9747   8.385   5.232   1.456  0.2659  0.1349 -0.2220
 5684W        W 9748   1.096  10.453  10.006  0.1205  0.2048  0.1649
 5685W        W 9749   4.159   4.263   9.477 -0.0227 -0.1216  0.1178
 5686W        W 9750   9.647   0.073   2.066 -0.0835 -0.3216  0.0692
 5687W        W 9751   5.137   2.109   9.507  0.0517  0.0313 -0.0066
 5688W        W 9752   5.206   3.698   7.795  0.1095  0.0505 -0.0475
 5689W        W 9753   0.002   9.546   0.667  0.0798 -0.1111  0.0316
 5690W        W 9754   4.763   1.323   0.275  0.0553  0.1019  0.0667
 5691W        W 9755   4.512   7.547   8.774 -0.0632  0.2566 -0.0822
 5692W        W 9756   9.264   0.978   1.971 -0.0812  0.1260 -0.0491
 5693W        W 9757   0.493   5.028   9.866  0.3568  0.0864 -0.0685
 5694W        W 9758   7.527   4.196  10.463  0.0635 -0.0541  0.0034
 5695W        W 9759   8.048   2.233   3.737 -0.0027 -0.0389 -0.2606
 5696W        W 9760   2.816   2.278   8.866  0.2542  0.2467  0.1153
 5697W        W 9761   6.565   1.045   3.040  0.2004 -0.1379  0.1631
 5698W        W 9762   7.507   8.886   0.909  0.0705 -0.0332  0.1346
 5699W        W 9763   2.216   2.726   7.110  0.0333  0.0816 -0.2845
 5700W        W 9764   8.123   2.932   2.006 -0.1937 -0.2521  0.1267
 5701W        W 9765   7.491   1.285   0.652 -0.0421  0.0666  0.0051
 5702W        W 9766   3.202   2.350  10.390 -0.1014  0.0252 -0.0498
 5703W        W 9767   8.040   6.915   1.579  0.0689  0.1766  0.1562
 5704W        W 9768   1.139   4.517  10.824 -0.3335  0.3551 -0.4805
 5705W        W 9769   3.316   7.378   2.028  0.1037  0.2183 -0.0763
 5706W        W 9770   3.746   1.844   1.607 -0.1026 -0.0230  0.1528
 5707W        W 9771   1.885   6.717   0.507  0.3059  0.0634 -0.0707
 5708W        W 9772   0.860   6.863   8.478 -0.0375  0.1419  0.0369
 5709W        W 9773   7.787   8.518   9.163 -0.2208 -0.1682  0.1182
 5710W        W 9774   7.011   1.262   2.961  0.0290  0.1373  0.4081
 5711W        W 9775  10.543   4.872   2.416 -0.3311 -0.0734  0.1023
 5712W        W 9776   0.512   8.179  11.166 -0.0798 -0.0058  0.0672
 5713W        W 9777   4.915   7.419   1.938 -0.2694  0.1108  0.1080
 5714W        W 9778   6.572   7.160  10.448 -0.1268  0.4738  0.0278
 5715W        W 9779   5.865  10.585   2.666  0.1296 -0.4498  0.3529
 5716W        W 9780   4.727   0.078   0.809 -0.0132 -0.1047  0.0921
 5717W        W 9781   3.146   3.759  11.001  0.0395  0.0250 -0.0336
 5718W        W 9782  10.474   4.541   0.382 -0.4738 -0.2815  0.1016
 5719W        W 9783   5.862   1.694  10.766  0.2905 -0.1155 -0.0132
 5720W        W 9784   7.981   8.103   0.963 -0.0711  0.0542  0.2788
 5721W        W 9785   2.037   8.896   7.850 -0.3027 -0.1258 -0.3264
 5722W        W 9786   9.720   7.565   0.051  0.1837  0.0182  0.0522
 5723W        W 9787   5.270  10.520   9.035 -0.2895  0.2978  0.1056
 5724W        W 9788   7.529   9.401   9.093  0.0551 -0.0583 -0.2476
 5725W        W 9789   7.096   5.999   1.076  0.2458 -0.1557 -0.1139
 5726W        W 9790  10.611  10.720   8.474 -0.3469  0.1312  0.1493
 5727W        W 9791   3.870   2.078  11.279  0.0907 -0.0285 -0.2274
 5728W        W 9792   8.777   9.376   2.690  0.0626  0.3058 -0.1119
 5729W        W 9793   3.639   6.416   7.500  0.1959 -0.0932 -0.0340
 5730W        W 9794   5.682   6.583   2.188 -0.0431  0.0407 -0.0578
 5731W        W 9795   3.898   4.294   8.028  0.0804 -0.0386  0.3339
 5732W        W 9796   6.674   0.198   7.906  0.2238 -0.2018 -0.1754
 5733W        W 9797   6.756   2.883   1.098 -0.1679  0.0479 -0.0221
 5734W        W 9798   3.518   0.503  10.132  0.0825  0.1877 -0.0210
 5735W        W 9799  10.026   1.595   9.173  0.2560 -0.2640  0.0602
 5736W        W 9800   3.749   2.857   0.290 -0.4585  0.0758 -0.0812
 5737W        W 9801   5.091   2.549  11.006 -0.1575  0.0969 -0.0768
 5738W        W 9802   5.306  10.178   0.364 -0.2240  0.1338  0.1233
 5739W        W 9803   5.843   5.411   8.697  0.1280 -0.1286 -0.2475
 5740W        W 9804   9.394   1.345   9.956  0.0172 -0.0974  0.0215
 5741W        W 9805   3.889   6.701   0.073 -0.3773  0.1251  0.0586
 5742W        W 9806   4.538   6.127   8.202 -0.0196  0.1170 -0.2043
 5743W        W 9807   9.637   4.367   8.817  0.1485 -0.1173 -0.0216
 5744W        W 9808   6.282   8.391   1.506  0.2227 -0.0033  0.1021
 5745W        W 9809   4.997   0.051   8.748  0.1198 -0.2407  0.0825
 5746W        W 9810   1.504   8.433   1.203  0.0569 -0.0363  0.0921
 5747W        W 9811   2.185   9.868   7.890 -0.4127  0.1297  0.1826
 5748W        W 9812   2.668   1.064   2.787  0.1686 -0.0332  0.0383
 5749W        W 9813   2.693   8.467   0.635  0.0996  0.1568  0.0714
 5750W        W 9814   2.813   7.580   1.327 -0.4074  0.3151  0.1325
 5751W        W 9815   3.195   2.548  11.017  0.0537 -0.1865  0.2810
 5752W        W 9816   9.007   2.882   0.839  0.2345 -0.0745 -0.3316
 5753W        W 9817  10.067   7.568   8.533  0.2059 -0.0714 -0.2646
 5754W        W 9818   3.229   7.795   1.668  0.2606  0.0417 -0.1320
 5755W        W 9819   7.439   9.050   8.156 -0.1584 -0.2038 -0.1042
 5756W        W 9820   9.096   4.730   1.135 -0.1358  0.1207 -0.0102
 5757W        W 9821   7.656   8.477   2.662 -0.1914 -0.2899 -0.1416
 5758W        W 9822   2.119   9.838  11.281 -0.2469  0.0084 -0.0500
 5759W        W 9823   1.901   1.585   0.831 -0.2029  0.0385  0.1573
 5760W        W 9824   6.684   7.269   1.517 -0.1527  0.0688  0.2368
 5761W        W 9825  10.343   1.717  10.128  0.4201  0.2036  0.0330
 5762W        W 9826  10.662   5.933   0.387 -0.0094  0.0296 -0.0165
 5763W        W 9827   0.776   8.567  11.304  0.1633 -0.1646 -0.1944
 5764W        W 9828   5.557   8.375  10.184 -0.1468 -0.1630  0.3633
 5765W        W 9829   6.496   8.719   8.299 -0.2848 -0.0322  0.1443
 5766W        W 9830   8.480   2.813   0.760  0.0093 -0.1452 -0.2424
 5767W        W 9831   0.005   7.202   9.071  0.1631  0.3890  0.0222
 5768W        W 9832   3.049   1.226   3.632  0.2229  0.0963  0.0360
 5769W        W 9833   6.036   5.749   7.101  0.0438 -0.1904  0.1093
 5770W        W 9834   8.367   8.729   2.134 -0.1490 -0.1487  0.1247
 5771W        W 9835   9.877   0.596   0.516  0.1327 -0.1729  0.0181
 5772W        W 9836   2.529   7.009   8.066  0.1322 -0.2093 -0.3705
 5773W        W 9837   0.820   5.643   1.681  0.0603 -0.0591  0.4242
 5774W        W 9838   4.751   0.338   9.095  0.1334  0.4508  0.0697
 5775W        W 9839   9.352   5.320   3.257  0.0440 -0.0767  0.1140
 5776W        W 9840   1.590   4.430   9.889  0.0219  0.3610 -0.0131
 5777W        W 9841   5.460   7.588   2.189  0.1755 -0.1774  0.5145
 5778W        W 9842   8.176   4.087   8.801 -0.1477  0.3319 -0.1435
 5779W        W 9843   7.362   8.748   2.275  0.1917 -0.3438 -0.0029
 5780W        W 9844   1.412   9.451   0.313  0.1122  0.0461  0.1125
 5781W        W 9845   9.851   7.459   9.862  0.0738  0.0462  0.4433
 5782W        W 9846   8.138   2.176   8.613  0.2289  0.4917 -0.1152
 5783W        W 9847   0.228   2.114   9.370  0.2050  0.0916  0.0926
 5784W        W 9848   7.826   2.582  11.122  0.0757 -0.2815 -0.2325
 5785W        W 9849   7.496   4.139   1.676  0.0697 -0.1551  0.1817
 5786W        W 9850   4.013   3.335   7.891 -0.1266  0.0183 -0.3874
 5787W        W 9851   8.231   6.789   8.471  0.3314  0.0397  0.2231
 5788W        W 9852   1.649   1.285   2.322  0.1884  0.1156 -0.2968
 5789W        W 9853   7.399   5.106   0.572 -0.1005 -0.0842  0.2161
 5790W        W 9854   6.325   5.697   9.388 -0.2158 -0.0121 -0.0748
 5791W        W 9855   0.592   7.216   2.295 -0.0441 -0.3134 -0.2104
 5792W        W 9856   9.144   1.978   8.391  0.0313 -0.0305 -0.1545
 5793W        W 9857   3.999   6.987   7.302  0.0747  0.0662 -0.0611
 5794W        W 9858   7.274   1.039  10.739  0.5538 -0.0296  0.0524
 5795W        W 9859   0.588   0.684   9.388  0.1524 -0.0171 -0.0200
 5796W        W 9860   6.184   5.627   1.196  0.2334  0.2078  0.1606
 5797W        W 9861   4.716   3.238   2.130 -0.2518  0.2331 -0.2029
 5798W        W 9862   5.878   4.007   0.600 -0.3268 -0.1061 -0.0340
 5799W        W 9863  10.591   3.250  10.727  0.1290 -0.1474  0.0146
 5800W        W 9864   5.242   9.071   3.117 -0.1447  0.0856 -0.3033
 5801W        W 9865   2.837   7.578   2.086  0.1180  0.2182 -0.0951
 5802W        W 9866   4.101   0.443   2.726  0.0956 -0.2402  0.3361
 5803W        W 9867   4.068   9.026   0.219  0.1257  0.2398 -0.0609
 5804W        W 9868   5.374   8.036   8.660 -0.0429 -0.3415 -0.1218
 5805W        W 9869   0.393   1.184  10.873  0.3121 -0.0802 -0.0136
 5806W        W 9870   6.476   3.278   0.966 -0.0241 -0.3716 -0.1857
 5807W        W 9871   1.675   0.184   9.168 -0.1692  0.0143 -0.0825
 5808W        W 9872   9.547   5.096   1.206 -0.1937  0.2244 -0.1048
 5809W        W 9873   6.574   6.013  10.506  0.0721 -0.2621  0.1446
 5810W        W 9874   7.139   7.496   1.734 -0.0877 -0.1655  0.3371
 5811W        W 9875   4.286   9.441   1.889 -0.0257 -0.1633  0.1432
 5812W        W 9876   7.466   8.991  10.127  0.2024  0.2069  0.0947
 5813W        W 9877   3.595   0.980  10.331  0.0409 -0.2832  0.0809
 5814W        W 9878   9.145   4.672   8.888  0.2678 -0.1208  0.1383
 5815W        W 9879   5.468   5.965   2.923  0.2256 -0.3316  0.0140
 5816W        W 9880   2.979   8.209   8.332  0.2500  0.2044 -0.0049
 5817W        W 9881   5.335   8.492   1.180  0.2147 -0.1491 -0.1660
 5818W        W 9882   5.205   3.058   9.335 -0.3367  0.2171  0.1558
 5819W        W 9883   9.612   5.985   0.309 -0.0398  0.1425 -0.2239
 5820W        W 9884   1.902   8.641   9.212 -0.1727  0.1995 -0.2559
 5821W        W 9885  10.682   1.424   8.113  0.1456  0.1546 -0.0469
 5822W        W 9886   0.798   6.815   1.229 -0.1899  0.1105  0.0302
 5823W        W 9887   2.476   4.844   9.847 -0.3469 -0.4526  0.2146
 5824W        W 9888  10.305   0.690  11.193 -0.2877 -0.1023 -0.2213
 5825W        W 9889   0.670   7.401   8.028 -0.2325  0.1058 -0.0199
 5826W        W 9890   4.382   6.499  11.150  0.0220  0.0137 -0.0386
 5827W        W 9891   6.341   5.518   7.662 -0.1058  0.1190  0.0317
 5828W        W 9892   7.480   5.300   8.140  0.1726  0.0614 -0.0322
 5829W        W 9893   2.946   5.264  10.866 -0.1338  0.0673  0.0631
 5830W        W 9894   2.424   5.500  10.919 -0.2251  0.2108  0.1680
 5831W        W 9895   3.298   8.985   3.734 -0.1588  0.0072  0.2322
 5832W        W 9896   8.846   1.464   2.652 -0.1851  0.2922 -0.4606
 5833W        W 9897   4.093   2.301   8.140 -0.2827  0.0969 -0.0650
 5834W        W 9898   8.985   7.255   8.833 -0.0231 -0.2527  0.1955
 5835W        W 9899   0.837   9.952   3.127  0.1487  0.0966 -0.2507
 5836W        W 9900   7.788   8.100   1.424  0.1862 -0.0457  0.0444
 5837W        W 9901   3.994   7.384   9.419  0.0210  0.2056  0.1843
 5838W        W 9902   5.442   0.537   3.107  0.0780  0.3439  0.2854
 5839W        W 9903   0.171   7.527   0.314  0.1605 -0.0782 -0.0754
 5840W        W 9904   4.055   7.503   3.085 -0.0121 -0.4806  0.1889
 5841W        W 9905  10.393   9.112  10.794  0.0052 -0.2001  0.0380
 5842W        W 9906   6.149  10.336   9.309 -0.3977 -0.1879  0.1799
 5843W        W 9907   8.428   1.141   2.680 -0.2986  0.1419  0.0141
 5844W        W 9908   7.081   4.003   9.133 -0.2659 -0.2920 -0.0367
 5845W        W 9909   5.230   4.102   0.526 -0.1368  0.1738 -0.1788
 5846W        W 9910   1.976   5.491   7.849 -0.0671 -0.2469 -0.2353
 5847W        W 9911   1.540   3.537   0.521  0.0267 -0.0524  0.0147
 5848W        W 9912   2.467   7.001   1.965  0.0274  0.1072  0.1420
 5849W        W 9913   1.833   0.905   9.765 -0.0606 -0.0607  0.2834
 5850W        W 9914   5.476   8.449   3.495 -0.0814  0.1974 -0.1861
 5851W        W 9915   2.062   8.641   1.337 -0.0042 -0.1208 -0.2053
 5852W        W 9916   1.889   4.146  10.753 -0.0263  0.2001  0.0126
 5853W        W 9917   6.058   8.782   1.813 -0.0561  0.2220 -0.1504
 5854W        W 9918   0.893   1.411  10.072 -0.1660 -0.2557  0.2476
 5855W        W 9919   3.197   5.568   1.746 -0.0046  0.0615 -0.4596
 5856W        W 9920   4.909   0.379  11.242 -0.0348  0.0011  0.1203
 5857W        W 9921   6.771   3.615   9.323 -0.0523  0.0494  0.0556
 5858W        W 9922   6.574   7.108   2.616 -0.2375 -0.1193  0.1576
 5859W        W 9923   3.049   5.061   8.739  0.1390 -0.4091  0.0372
 5860W        W 9924   3.550   4.730  11.191  0.1662  0.1375  0.0845
 5861W        W 9925   5.062   2.352   8.602 -0.2019  0.2689  0.2963
 5862W        W 9926   5.093   4.354   1.778  0.0186 -0.0802 -0.2556
 5863W        W 9927   1.833   4.797   0.449  0.3703  0.2567 -0.1216
 5864W        W 9928   3.912  10.207   8.855  0.3284 -0.2529 -0.3529
 5865W        W 9929  10.079   5.815   0.402 -0.1617 -0.0705 -0.3692
 5866W        W 9930  10.731  10.327   1.241  0.0019 -0.2360 -0.0029
 5867W        W 9931  10.750   9.668   9.832  0.3728 -0.0822  0.0339
 5868W        W 9932   7.105   4.592   7.666 -0.1512  0.1250 -0.0202
 5869W        W 9933   9.015   5.907   1.198 -0.2618 -0.0609  0.1618
 5870W        W 9934   1.846   6.698   1.055  0.1691  0.0773  0.1381
 5871W        W 9935   9.214   3.032   7.658 -0.1359 -0.1621 -0.1928
 5872W        W 9936   6.079   9.525   2.876 -0.1276  0.0879  0.0530
 5873W        W 9937   8.138   4.993   8.879  0.0050  0.0742  0.0850
 5874W        W 9938   3.948  10.278   7.885 -0.0424  0.1049  0.0376
 5875W        W 9939  10.578   2.800   9.858 -0.0802  0.0556  0.2877
 5876W        W 9940   0.822   8.432   2.768 -0.0056  0.4812  0.0774
 5877W        W 9941   9.614   3.375   0.314 -0.4605  0.1769 -0.3280
 5878W        W 9942   1.950   5.451   3.330 -0.2123 -0.0016 -0.1897
 5879W        W 9943   8.898   7.293  11.290  0.2031 -0.0429  0.0217
 5880W        W 9944   8.653   0.705   3.163  0.2043  0.0449 -0.0714
 5881W        W 9945   6.055   6.681  11.018  0.0340  0.0185  0.2433
 5882W        W 9946   6.922   9.040   1.561 -0.0045  0.0631 -0.0326
 5883W        W 9947   0.637   6.749   2.678 -0.3122 -0.0214  0.0580
 5884W        W 9948   1.567   1.727   3.370  0.0356  0.2310  0.1786
 5885W        W 9949   0.916   0.737   7.943 -0.3473 -0.2095  0.1059
 5886W        W 9950  10.646   7.394  10.124  0.1643 -0.0701  0.1242
 5887W        W 9951  10.668   8.234   3.063  0.0663 -0.0617  0.0343
 5888W        W 9952   6.863   3.862   9.813  0.0762  0.3036  0.2580
 5889W        W 9953   9.039   7.947  10.637  0.5709 -0.0832 -0.2065
 5890W        W 9954   9.385   7.521   0.416  0.2764  0.1124  0.0252
 5891W        W 9955   1.145   6.087   1.611 -0.1483 -0.2040 -0.3541
 5892W        W 9956   1.702   3.270  10.191  0.0691  0.1488  0.1012
 5893W        W 9957   6.305   9.057   0.011  0.0042 -0.0893 -0.0221
 5894W        W 9958   9.300   2.828  10.457  0.0399  0.0148  0.1492
 5895W        W 9959   6.104   4.983  10.487  0.0448 -0.2858 -0.0932
 5896W        W 9960   5.953   9.453   8.819  0.1153  0.0349  0.0179
 5897W        W 9961   3.446  10.467   7.244  0.2234  0.0173  0.0965
 5898W        W 9962   7.439   7.480   2.622 -0.2018 -0.3509 -0.0100
 5899W        W 9963   2.909   1.701   3.102  0.2232 -0.0492  0.2119
 5900W        W 9964   3.956   5.912  11.046  0.1160  0.3817 -0.0260
 5901W        W 9965   9.978   9.775   3.349 -0.1684 -0.2276  0.1515
 5902W        W 9966  10.226   9.412   8.273 -0.1329 -0.0238 -0.2910
 5903W        W 9967   2.477   2.494   0.430  0.1548 -0.1518 -0.1537
 5904W        W 9968   4.357  10.232  11.289 -0.0007 -0.5541 -0.2090
 5905W        W 9969   8.101   4.518   3.245 -0.0616 -0.2560  0.1118
 5906W        W 9970   1.914   1.425   9.767  0.0414  0.1597 -0.0904
 5907W        W 9971   9.398   8.078   1.898  0.0693 -0.2037 -0.0682
 5908W        W 9972   4.629   4.783   9.422  0.0316  0.1447 -0.0135
 5909W        W 9973   0.870  10.526   8.081 -0.1281 -0.0533 -0.0878
 5910W        W 9974   9.723   7.907   7.653 -0.0824 -0.1648 -0.0843
 5911W        W 9975   9.840   8.162   1.749  0.0623  0.5339  0.4271
 5912W        W 9976   0.744   1.587  10.571 -0.3903  0.0157 -0.2099
 5913W        W 9977   6.100   0.672   2.497 -0.1536 -0.0176  0.1367
 5914W        W 9978   1.294   8.476   0.163  0.1791 -0.0604 -0.0503
 5915W        W 9979   0.250   1.183   2.423  0.0972 -0.0897  0.2323
 5916W        W 9980   5.063   0.583   2.079  0.0687  0.1320  0.1008
 5917W        W 9981   4.137   0.942   9.396  0.5348 -0.1581 -0.2904
 5918W        W 9982   5.111   6.466   9.298  0.2090 -0.2828 -0.2349
 5919W        W 9983   8.667   4.769   8.002 -0.3291  0.2340  0.1585
 5920W        W 9984   1.846   0.764   7.983 -0.1368 -0.0524 -0.0000
 5921W        W 9985   0.965   4.129   3.648  0.1924  0.1271 -0.3125
 5922W        W 9986   4.057   6.329   0.457 -0.2751 -0.1115  0.1206
 5923W        W 9987   1.161   4.840  11.174  0.1713 -0.1986 -0.2386
 5924W        W 9988   5.061   9.166   3.677 -0.0763  0.0093  0.3332
 5925W        W 9989   6.623   2.448   2.378  0.2014 -0.3100 -0.0764
 5926W        W 9990   0.137   5.868   0.981 -0.0094  0.0472  0.1714
 5927W        W 9991   7.964   7.650   2.667  0.0492  0.1105  0.6224
 5928W        W 9992   6.442   9.982   1.583 -0.0548  0.1787 -0.0957
 5929W        W 9993   2.246   1.125   2.441  0.3568 -0.1019 -0.2622
 5930W        W 9994   9.483   3.800   0.544  0.1461  0.1122  0.0229
 5931W        W 9995   6.236   6.547   1.025  0.0446  0.0533 -0.1311
 5932W        W 9996   7.354   6.209  11.110 -0.0715 -0.1109  0.0698
 5933W        W 9997   5.808   8.924   0.169 -0.1397  0.1745  0.1587
 5934W        W 9998   4.798   5.791   0.385 -0.0050  0.0334  0.1609
 5935W        W 9999   6.347  10.112   9.733 -0.0141 -0.1144  0.1445
 5936W        W10000   7.132   4.112   3.513 -0.0574  0.0905  0.2260
 5937W        W10001   1.178   0.716  10.942  0.0493 -0.1923 -0.0033
 5938W        W10002   4.501   1.776   2.175 -0.1859 -0.1706 -0.0764
 5939W        W10003  10.026   6.424   9.026  0.2986 -0.0655 -0.2661
 5940W        W10004  10.711   6.322   1.034  0.0125  0.0451  0.4124
 5941W        W10005   6.829   2.497   0.678 -0.1153 -0.1088 -0.0086
 5942W        W10006   4.506   4.576   0.310 -0.2299  0.0415  0.3620
 5943W        W10007   8.998   1.003  10.275 -0.3586 -0.4938 -0.2106
 5944W        W10008   9.852   8.811   8.177 -0.3534 -0.0006  0.1852
 5945W        W10009   1.605   4.831   1.080 -0.1796  0.2751 -0.2423
 5946W        W10010   1.774  10.292   7.277 -0.1976 -0.0172  0.2327
 5947W        W10011   9.420   4.511   0.814  0.0672 -0.1305 -0.1313
 5948W        W10012   9.252   3.511  10.807 -0.0337 -0.1894 -0.0854
 5949W        W10013   9.388   6.927   4.154 -0.2543 -0.2712 -0.0156
 5950W        W10014   6.565   4.520   8.460  0.0793 -0.0794 -0.1390
 5951W        W10015   4.339   6.178   2.535  0.1155  0.2338 -0.3296
 5952W        W10016   7.105   6.927   7.933 -0.0874 -0.2208  0.2172
 5953W        W10017   8.498   8.007   0.093  0.1282  0.1276  0.3083
 5954W        W10018   1.563   7.413  10.644  0.2156  0.1967 -0.2255
 5955W        W10019   1.160   7.183   8.187  0.1119 -0.2561 -0.0156
 5956W        W10020   8.231   8.606  10.584 -0.1818 -0.0225 -0.1966
 5957W        W10021   2.340   9.052   9.346 -0.1124 -0.0420 -0.0143
 5958W        W10022   6.579   1.735   0.671  0.4000 -0.2667 -0.3713
 5959W        W10023   7.496   9.424   0.903 -0.2273  0.0808 -0.2039
 5960W        W10024   8.830   0.503  10.377 -0.1116  0.0735  0.1576
 5961W        W10025   4.836   4.944   1.446 -0.0844 -0.0001  0.0348
 5962W        W10026   3.059   9.090   9.134 -0.1138 -0.1881 -0.3108
 5963W        W10027   8.333   4.909   2.794 -0.1765  0.0695  0.0573
 5964W        W10028   7.981  10.647   8.973 -0.1456  0.0091  0.0470
 5965W        W10029   4.550   2.041   3.573  0.2538  0.0351 -0.3279
 5966W        W10030   3.386   9.103   1.348  0.1933  0.0351 -0.2916
 5967W        W10031   7.788   7.328  10.173  0.5735  0.2816  0.1835
 5968W        W10032   6.739   6.312   1.209 -0.0429 -0.5601  0.1072
 5969W        W10033   0.373   8.154   2.685 -0.1569 -0.3525 -0.2577
 5970W        W10034   2.816   3.883   8.515  0.0865  0.0389 -0.1620
 5971W        W10035   3.722   7.618  10.992 -0.3305 -0.1474  0.0269
 5972W        W10036   7.779   9.188  10.490 -0.0249  0.0795 -0.1703
 5973W        W10037  10.444   1.638   0.545 -0.5107  0.1180  0.0391
 5974W        W10038   2.810   1.581   1.274 -0.2278  0.1989  0.3111
 5975W        W10039   7.791   7.164   0.524 -0.1908 -0.0522  0.2430
 5976W        W10040   9.886   0.815   8.086  0.0110  0.2677 -0.0497
 5977W        W10041   1.098  10.705   9.191 -0.1135 -0.0506  0.1403
 5978W        W10042   1.736   0.259   2.651  0.2568  0.3125  0.5222
 5979W        W10043   1.601   5.551   0.621 -0.0864 -0.2065  0.0344
 5980W        W10044   0.026   0.557   0.165  0.1401 -0.3350 -0.1217
 5981W        W10045  10.454   2.369  10.067 -0.2006  0.1817 -0.1251
 5982W        W10046  10.422   2.910  10.321  0.1553 -0.0894  0.3115
 5983W        W10047   3.543   9.080   1.801  0.1301  0.2949 -0.2687
 5984W        W10048   4.602   3.552   7.164  0.2354  0.0125 -0.1116
 5985W        W10049   0.876   0.608   0.669 -0.0971 -0.0644  0.4695
 5986W        W10050   9.777   8.385   2.197 -0.1798  0.0870 -0.3558
 5987W        W10051   2.572   0.228   8.401 -0.0720  0.1606 -0.1861
 5988W        W10052   9.464   9.038   9.827 -0.0634  0.1471 -0.3832
 5989W        W10053   9.438   1.499   8.652 -0.0351 -0.0333 -0.4923
 5990W        W10054   4.823   0.785   2.510 -0.2168 -0.0258 -0.1398
 5991W        W10055   8.266   4.717  11.206  0.0672 -0.1754 -0.1519
 5992W        W10056   8.021   2.747   1.527 -0.0000  0.2386  0.1167
 5993W        W10057   5.461   0.655   1.217  0.1627 -0.0465  0.1026
 5994W        W10058   4.136   1.354   8.592  0.0775  0.0862  0.0708
 5995W        W10059   7.295   6.560   2.098 -0.0004  0.0430 -0.0263
 5996W        W10060   5.545   5.141   1.416  0.0905 -0.0569 -0.2335
 5997W        W10061   1.279   4.396   7.919 -0.0849 -0.1985 -0.3250
 5998W        W10062   9.161   6.202   8.006  0.3106  0.2910  0.2266
 5999W        W10063   4.364  10.434   7.563  0.2233 -0.0677 -0.0393
 6000W        W10064   6.028   3.550   0.248 -0.0142  0.2229 -0.0438
 6001W        W10065   7.619   0.386   3.079 -0.1956  0.0853  0.0740
 6002W        W10066   8.405   9.513   0.075  0.0885  0.1987 -0.2249
 6003W        W10067   5.623   4.820   0.099  0.0010  0.0909  0.2312
 6004W        W10068   2.639   0.204  10.645 -0.0766 -0.2157  0.2280
 6005W        W10069   8.683   1.263   3.729  0.3885 -0.1331  0.0272
 6006W        W10070   0.741   9.840   8.117  0.0694  0.3914 -0.1358
 6007W        W10071  10.719   8.567   8.626 -0.1218  0.3345  0.4239
 6008W        W10072   8.883   1.543  11.022 -0.0799 -0.1206  0.1774
 6009W        W10073   2.418   8.621  10.617 -0.0425  0.2590 -0.1535
 6010W        W10074   7.414   5.342  11.099  0.1600  0.0270  0.0010
 6011W        W10075   2.261   3.290   2.748  0.0039  0.0981 -0.1423
 6012W        W10076   8.216   1.285   3.782  0.1268  0.0658  0.5169
 6013W        W10077   3.721   2.936  10.770  0.5123 -0.0002 -0.3824
 6014W        W10078  10.377   6.756   8.852  0.0558 -0.1509 -0.2701
 6015W        W10079   0.497   1.296   0.635 -0.4854  0.2182  0.0122
 6016W        W10080  10.002   2.146  10.253 -0.0996 -0.0208 -0.1529
 6017W        W10081   3.220   8.815  10.201  0.3125  0.0518  0.0902
 6018W        W10082   8.281   0.293   2.314  0.3859  0.0515 -0.2031
 6019W        W10083   6.928   0.712   8.807  0.3864 -0.0427  0.3685
 6020W        W10084   9.638   9.301   3.308  0.0859 -0.0902  0.1393
 6021W        W10085   5.454   2.141   9.033  0.1254 -0.1104 -0.2329
 6022W        W10086   8.266   2.717  10.667 -0.0640  0.3069  0.1015
 6023W        W10087   6.997   6.524  11.251  0.4389 -0.0052  0.1031
 6024W        W10088   0.127   9.168  11.146 -0.2190  0.1538 -0.1981
 6025W        W10089   6.569   2.496   9.902 -0.1286 -0.2355 -0.1349
 6026W        W10090   7.631   7.865   2.357  0.2374 -0.3194  0.1061
 6027W        W10091   3.272  10.460   1.467  0.1365  0.1420  0.3072
 6028W        W10092   3.021   1.171   0.474  0.0165  0.1203 -0.0547
 6029W        W10093   5.395   7.252   3.804  0.1315 -0.2980 -0.2181
 6030W        W10094   6.378   5.183   9.327 -0.0710 -0.0852 -0.0163
 6031W        W10095   2.167   7.117   9.257  0.2738 -0.1586  0.2775
 6032W        W10096   6.772   1.966   8.733 -0.2082  0.1233  0.2037
 6033W        W10097   5.921   6.634   8.905 -0.1813  0.0838  0.4034
 6034W        W10098   8.310   3.242   7.640 -0.0990  0.1137  0.0012
 6035W        W10099   5.997   2.441  10.370 -0.0103 -0.0613 -0.1817
 6036W        W10100   1.815   0.439   0.991  0.3010  0.2775 -0.0804
 6037W        W10101   0.397   6.601   3.481 -0.1508  0.0008 -0.0347
 6038W        W10102   8.938   5.551   3.370 -0.0986  0.0848 -0.1724
 6039W        W10103   4.408   3.400   3.432 -0.0353 -0.0172  0.2221
 6040W        W10104   9.885   9.890   1.194  0.0113 -0.0023  0.3982
 6041W        W10105   4.764   6.121   3.781 -0.0580  0.1076  0.0215
 6042W        W10106  10.116   5.106  11.167  0.2284  0.1086 -0.0593
 6043W        W10107   3.177   5.949   8.342  0.0395  0.0494 -0.1062
 6044W        W10108   2.066   7.609   9.270 -0.0633  0.0162  0.0147
 6045W        W10109   9.432   5.510   0.957 -0.1228 -0.0879  0.0933
 6046W        W10110  10.233   8.470   2.607 -0.0398 -0.2347  0.0909
 6047W        W10111   5.010   8.394   2.659 -0.2143  0.1581  0.0304
 6048W        W10112   0.273   9.130   2.351 -0.1242 -0.1295  0.0646
 6049W        W10113   2.892   4.585   8.963  0.2130 -0.2845  0.0706
 6050W        W10114   9.854   6.213   1.365  0.0905 -0.1512  0.0740
 6051W        W10115   3.327  10.200   0.165 -0.1259  0.1391  0.0333
 6052W        W10116   4.612   3.399   0.194 -0.0630  0.1082  0.0663
 6053W        W10117   4.893   8.460   0.125  0.1246 -0.0766 -0.2307
 6054W        W10118   8.621   6.002   2.104 -0.1491 -0.3747  0.0678
 6055W        W10119   8.640   2.101   0.368  0.0835  0.1126  0.1173
 6056W        W10120   4.421   9.718  10.633  0.1655 -0.0172 -0.0883
 6057W        W10121   4.679   1.415   3.757 -0.2918 -0.2022  0.0763
 6058W        W10122   2.016   3.851   1.992  0.0103  0.0523 -0.2230
 6059W        W10123   1.423   2.938  10.505  0.0853  0.1117  0.0509
 6060W        W10124   8.540   4.786   1.790 -0.1269 -0.1322 -0.0785
 6061W        W10125  10.279   0.934   8.582 -0.0416 -0.0456  0.3778
 6062W        W10126   4.353   7.225   2.566  0.2061 -0.0182 -0.0726
 6063W        W10127   2.000   7.634   7.930 -0.0626  0.0498 -0.3022
 6064W        W10128   7.561   3.421   8.367 -0.0007 -0.2537  0.0398
 6065W        W10129   8.062   5.896   8.328 -0.0452 -0.0670  0.0918
 6066W        W10130   0.244   2.936   1.647 -0.2373  0.1558 -0.1352
 6067W        W10131   1.660  10.456   4.209  0.0754  0.0507 -0.1543
 6068W        W10132   0.435   5.327   1.379 -0.1226 -0.0919 -0.3190
 6069W        W10133   0.389   3.778   9.606  0.1929  0.3741  0.1346
 6070W        W10134   7.401   2.898   0.681  0.2660  0.3888  0.1404
 6071W        W10135   4.868   2.601   2.585  0.2085  0.0297 -0.0520
 6072W        W10136   5.311   2.554   1.168  0.0344  0.2970  0.1778
 6073W        W10137   4.843   6.688   3.225  0.0278  0.2055 -0.2403
 6074W        W10138   9.116   8.359   1.564  0.0155  0.3455 -0.1912
 6075W        W10139   2.697   7.148   0.591  0.0698 -0.2886 -0.0575
 6076W        W10140   3.952   6.757   7.750  0.0445  0.0563  0.1615
 6077W        W10141   7.263   4.796   9.398 -0.0978 -0.1408  0.0250
 6078W        W10142   9.004   0.567   9.301 -0.0692  0.2250  0.0279
 6079W        W10143   3.902   5.239   2.834  0.1463  0.1114 -0.2188
 6080W        W10144   6.657   4.720  10.199  0.0156  0.0033  0.0824
 6081W        W10145   3.229   7.564   9.764  0.1122  0.0781 -0.0976
 6082W        W10146   9.272   7.621  11.100  0.0087 -0.2246  0.0719
 6083W        W10147   4.708   8.542   9.006  0.0912  0.1613 -0.0097
 6084W        W10148  10.335   1.152   1.380  0.3395 -0.1392  0.0651
 6085W        W10149   1.998   6.211   2.713  0.1710 -0.0153 -0.1136
 6086W        W10150   9.841   4.019   3.420 -0.0171 -0.1115 -0.1727
 6087W        W10151   4.415   0.032   8.138 -0.1314 -0.0160  0.2165
 6088W        W10152  10.027   5.202   2.131 -0.0555  0.0054 -0.1305
 6089W        W10153   7.206   0.310   7.785 -0.0066 -0.0594 -0.1857
 6090W        W10154   6.373   2.404  10.880 -0.1215  0.1817  0.3990
 6091W        W10155   1.801   7.239  10.226  0.0233 -0.0107  0.2989
 6092W        W10156   3.974   2.272  10.776 -0.0080  0.2551 -0.0708
 6093W        W10157   8.095   7.747   1.246 -0.1370  0.0234 -0.1394
 6094W        W10158  10.554   4.081   2.648 -0.2591 -0.2097 -0.0820
 6095W        W10159   8.557   8.069   3.254 -0.0083  0.0382  0.3332
 6096W        W10160   1.547   6.082   2.451  0.1397  0.2842 -0.0859
 6097W        W10161   8.032  10.402   3.472  0.1849  0.0668  0.1776
 6098W        W10162   2.936   9.423   2.870 -0.3181 -0.2278 -0.1713
 6099W        W10163   7.173   1.137   8.956 -0.0965  0.0694 -0.2384
 6100W        W10164   9.759   9.339  10.094 -0.0768 -0.1380  0.2076
 6101W        W10165   6.895   1.963   9.221  0.2587 -0.0171  0.0104
 6102W        W10166   5.232   7.136   3.001 -0.1311  0.1685 -0.1564
 6103W        W10167  10.272   5.742   2.103  0.3815  0.3554 -0.1727
 6104W        W10168   8.296   3.402   9.935  0.0212 -0.1598  0.1746
 6105W        W10169   5.243   5.556   9.807 -0.0581  0.0821  0.2068
 6106W        W10170   6.490   0.367   0.887  0.0789 -0.1329  0.1335
 6107W        W10171   7.440   4.065  10.986 -0.0528  0.1100 -0.1331
 6108W        W10172   1.176   5.390   8.132  0.0479  0.1996  0.1703
 6109W        W10173   8.477   4.976   9.803 -0.1362 -0.2233 -0.1357
 6110W        W10174   5.590   4.317   0.274 -0.1156  0.0559  0.0490
 6111W        W10175   3.834   7.528   0.145  0.3052 -0.0983 -0.1029
 6112W        W10176   0.189   5.210   0.194 -0.0747  0.5006  0.2636
 6113W        W10177   2.166   7.372   0.431 -0.0887 -0.0835  0.0581
 6114W        W10178  10.386  10.160   3.435  0.0840  0.1536 -0.2770
 6115W        W10179   5.132  10.224   9.752 -0.0044  0.0739 -0.0160
 6116W        W10180   2.204   2.909   8.595  0.1450  0.3433  0.1999
 6117W        W10181   4.153   4.283   2.748  0.0375  0.0373  0.0796
 6118W        W10182   9.388   4.290  11.220  0.1551  0.4235 -0.0593
 6119W        W10183   4.116   2.331   0.441  0.0819 -0.2730  0.0280
 6120W        W10184  10.505   5.397   0.294  0.2047 -0.0387  0.0795
 6121W        W10185   0.878   4.247   8.722 -0.3614 -0.0076 -0.3603
 6122W        W10186   2.164   7.400   8.856 -0.2141  0.4525  0.1127
 6123W        W10187   5.535   1.769   2.525  0.1753 -0.0641 -0.2905
 6124W        W10188  10.121   5.768   1.150  0.4304 -0.3102 -0.2594
 6125W        W10189   6.001   6.261   1.813 -0.2521  0.0228  0.0956
 6126W        W10190   8.194   9.613   8.266 -0.0187  0.2472  0.1439
 6127W        W10191   6.792   3.043   9.292  0.2906  0.0811 -0.0495
 6128W        W10192   4.922   5.448   8.118  0.1703 -0.0942  0.1536
 6129W        W10193  10.281   2.451  10.548  0.1476 -0.2398 -0.1562
 6130W        W10194   2.098   2.444   1.871 -0.0661 -0.2696  0.1869
 6131W        W10195   4.889   8.600   8.476 -0.2429  0.2067 -0.1355
 6132W        W10196   1.260   6.802   1.044 -0.0460  0.0885  0.0276
 6133W        W10197   2.448   1.697   3.190  0.0545  0.1660  0.1720
 6134W        W10198   6.248   1.947   9.345 -0.0324  0.2950  0.0496
 6135W        W10199   2.845   9.513  10.306  0.0642 -0.0482 -0.0671
 6136W        W10200   7.390   1.728   9.326 -0.1638 -0.4184 -0.1562
 6137W        W10201   3.334   9.487   2.555  0.0002 -0.2851 -0.1371
 6138W        W10202   9.783   9.389   9.581  0.0826  0.3437  0.1054
 6139W        W10203   1.818   8.567   1.796  0.0452 -0.1258 -0.2996
 6140W        W10204   2.236   5.647   1.943  0.1878 -0.0716 -0.1520
 6141W        W10205   5.839   5.372  10.166  0.0255  0.0005 -0.1036
 6142W        W10206   4.802   4.101   1.475  0.2731 -0.1262  0.0804
 6143W        W10207   6.596   8.177   1.884  0.2019  0.1511 -0.2444
 6144W        W10208   7.906   9.246   8.187 -0.0385  0.0356 -0.1877
 6145W        W10209   0.940   6.299  10.121 -0.0040 -0.0269 -0.0183
 6146W        W10210   3.807   0.468   7.745 -0.2222 -0.0573 -0.1014
 6147W        W10211   1.266   7.455   8.636 -0.1165 -0.1206  0.0381
 6148W        W10212   6.348   6.136   2.856 -0.0860  0.0863 -0.3792
 6149W        W10213   8.935   1.029   8.026  0.2011  0.0152 -0.0637
 6150W        W10214   7.411   7.306  11.033  0.2906 -0.1652  0.2252
 6151W        W10215  10.052   7.052   3.493 -0.0006  0.0815 -0.2564
 6152W        W10216   7.568   7.431   2.111 -0.2476  0.2588  0.0478
 6153W        W10217   9.290   2.241   2.300  0.2059 -0.2088  0.0921
 6154W        W10218   3.534   9.838   8.616  0.0454  0.0729 -0.2342
 6155W        W10219   8.631   9.890   7.463 -0.1214 -0.3042  0.1399
 6156W        W10220  10.112   1.951   9.723 -0.3342 -0.2148  0.0360
 6157W        W10221   2.703   2.519   9.304 -0.0549 -0.1974 -0.2248
 6158W        W10222   2.148  10.523  10.115 -0.1297 -0.2865 -0.1251
 6159W        W10223   7.947   9.967   1.624 -0.1516 -0.0211 -0.2298
 6160W        W10224   9.232   6.545  11.182 -0.0180  0.0951 -0.2968
 6161W        W10225   6.632  10.413   8.989  0.2694  0.0679  0.0898
 6162W        W10226   9.840   7.584   2.697 -0.1905 -0.0461  0.0348
 6163W        W10227   3.114   6.066   9.599  0.1622 -0.0505 -0.1654
 6164W        W10228   9.833   9.280   2.439  0.0221  0.0947  0.0171
 6165W        W10229   9.153   4.980   8.127  0.2010 -0.0939  0.1092
 6166W        W10230   4.529   6.700   2.460 -0.0786  0.0099 -0.3720
 6167W        W10231   1.060   7.130   1.472 -0.1092 -0.1427 -0.0508
 6168W        W10232   8.789   3.274   1.570  0.1302 -0.1293 -0.2493
 6169W        W10233   3.081   6.398  10.513  0.1998  0.4369  0.2482
 6170W        W10234   9.297   5.997   8.424 -0.0874 -0.2544  0.2810
 6171W        W10235  10.562  10.316   1.828 -0.2385 -0.0784  0.2217
 6172W        W10236   7.196   6.170   7.854  0.0050 -0.2810  0.2189
 6173W        W10237   8.307   8.564   1.200 -0.0642 -0.1719 -0.0079
 6174W        W10238   9.090   0.324   9.977  0.2738 -0.0952  0.0375
 6175W        W10239   6.896   8.846   9.388 -0.1098 -0.2765  0.3107
 6176W        W10240   1.193   0.862   3.264  0.0444  0.2299  0.2764
 6177W        W10241   3.497   6.645  10.969  0.1700  0.0697 -0.1265
 6178W        W10242   4.522   2.472   8.461 -0.3602 -0.0029  0.1150
 6179W        W10243   3.500   2.822   1.766 -0.1668  0.2205  0.0464
 6180W        W10244   2.127   0.437   8.277  0.1825  0.2736  0.0145
 6181W        W10245  10.389   3.154   8.477 -0.0353  0.0259 -0.1904
 6182W        W10246   3.674   2.024   2.344  0.0183 -0.1855 -0.2360
 6183W        W10247   9.995   7.585   9.054  0.0360  0.2638  0.0561
 6184W        W10248   0.917   2.915   2.819 -0.2079  0.2382  0.0118
 6185W        W10249   0.710  10.755   0.512  0.1182  0.0147 -0.0668
 6186W        W10250   6.434   0.518   3.374 -0.0555 -0.0320 -0.0198
 6187W        W10251   0.284   3.903   1.098  0.0850  0.1247 -0.1268
 6188W        W10252   6.346   4.935   7.540  0.0579  0.1901 -0.2941
 6189W        W10253   9.944   6.623   0.540  0.0510  0.0464  0.1681
 6190W        W10254   9.438   3.597  11.271 -0.0940  0.0696 -0.0050
 6191W        W10255   3.964   9.553  10.781 -0.0340 -0.0155  0.0169
 6192W        W10256   6.595   4.760   0.136  0.0172 -0.0428  0.4832
 6193W        W10257   9.266   0.727  10.653 -0.1085 -0.2839  0.1200
 6194W        W10258   0.080   1.478   0.970 -0.0857 -0.2393  0.0841
 6195W        W10259   8.862   3.363   8.551  0.1262 -0.0894 -0.0224
 6196W        W10260   7.900   3.144   3.242  0.0024  0.2603 -0.0692
 6197W        W10261   5.030   9.466   2.871 -0.1767 -0.2566 -0.0075
 6198W        W10262   8.341   4.478  10.178  0.1129 -0.0223 -0.3399
 6199W        W10263  10.672   4.462  10.681 -0.2248 -0.3268 -0.1966
 6200W        W10264   9.630   9.761   8.365 -0.0509 -0.0188 -0.0291
 6201W        W10265  10.572   2.957   0.928  0.0476 -0.2666  0.0154
 6202W        W10266   7.481   4.737   7.962  0.2915 -0.2764  0.1644
 6203W        W10267   7.258   6.655   4.071 -0.0122 -0.0948 -0.4139
 6204W        W10268  10.740  10.535   7.983 -0.0141 -0.0634 -0.1914
 6205W        W10269   3.025   7.781   9.245 -0.1182  0.1993 -0.1682
 6206W        W10270   7.914   5.243   1.262 -0.3684  0.2390  0.1442
 6207W        W10271   8.867   4.407   2.253 -0.1091 -0.2617 -0.0819
 6208W        W10272   1.128   4.738   2.465  0.0638  0.0781 -0.0982
 6209W        W10273  10.213   5.978   9.243  0.2126  0.1642 -0.2013
 6210W        W10274   8.772   2.382   8.508 -0.1502 -0.2364  0.1968
 6211W        W10275   8.638   6.150  10.715 -0.3280 -0.2895 -0.4582
 6212W        W10276   6.924   2.329   2.793 -0.0120 -0.1360  0.2103
 6213W        W10277   1.424   1.168  10.980  0.3195  0.1545  0.4022
 6214W        W10278   1.213  10.000   2.712 -0.0469 -0.3377  0.2211
 6215W        W10279   4.462   0.344  10.423  0.0195 -0.3236  0.2836
 6216W        W10280   0.946   9.121   7.500 -0.2865 -0.0025  0.2675
 6217W        W10281  10.012   8.613   9.369  0.0739 -0.1182 -0.1220
 6218W        W10282   1.407   8.446  10.439  0.1216  0.4831  0.0087
 6219W        W10283   8.760  10.021   1.653 -0.2340  0.0617  0.0026
 6220W        W10284   9.271   4.161   8.477  0.2075  0.1755 -0.2591
 6221W        W10285   5.457   2.345  10.167 -0.0833  0.1388  0.0397
 6222W        W10286   4.287   7.395  11.099 -0.0145 -0.3023  0.0477
 6223W        W10287   1.331   0.258   3.095 -0.0023  0.2910  0.2136
 6224W        W10288   2.445   3.038   2.032  0.1455  0.0183 -0.1361
 6225W        W10289   4.169   0.696   3.224 -0.1354 -0.1612 -0.0109
 6226W        W10290   0.496  10.239   1.912 -0.1252 -0.1399  0.2327
 6227W        W10291   5.625   2.487   2.907  0.0800  0.0061 -0.1259
 6228W        W10292   4.593  10.364   0.975  0.0357 -0.1366 -0.1069
 6229W        W10293   9.538   9.956  10.261 -0.2994 -0.1372 -0.2844
 6230W        W10294   1.099   4.202   1.710 -0.0502  0.2032 -0.2578
 6231W        W10295   2.211   2.129   9.708 -0.0370 -0.0883 -0.0336
 6232W        W10296   3.082   3.768   2.512 -0.0788  0.2557  0.2527
 6233W        W10297   1.750   7.591   2.199  0.0382  0.0008  0.2319
 6234W        W10298   9.674   0.193   1.537  0.2697 -0.0418  0.1949
 6235W        W10299   6.870   0.078   2.111  0.1629 -0.1700 -0.3527
 6236W        W10300   0.261   0.392  10.506  0.0505 -0.0136 -0.2235
 6237W        W10301   5.464  10.205  10.400 -0.0652  0.2725  0.1845
 6238W        W10302   4.021   3.859   3.496 -0.0539 -0.0381 -0.1413
 6239W        W10303   0.025   1.101   3.981 -0.0650 -0.0387 -0.2688
 6240W        W10304   2.360   6.960   8.794  0.5115  0.2591  0.3081
 6241W        W10305  10.355   7.957   3.632 -0.0144 -0.2674 -0.0036
 6242W        W10306  10.151   1.052   1.909  0.0664  0.0911  0.1580
 6243W        W10307   4.997   1.512   8.642  0.3547 -0.0128 -0.1368
 6244W        W10308   4.526   2.859   0.043 -0.0685  0.1510  0.1097
 6245W        W10309   5.465   5.943   0.834 -0.0304  0.1317 -0.1661
 6246W        W10310   5.308   5.285   0.182  0.0237  0.1238 -0.2575
 6247W        W10311   9.543   1.160   0.538  0.0363  0.1462 -0.1142
 6248W        W10312   9.859   1.932  11.215  0.0579 -0.1717 -0.2056
 6249W        W10313  10.495  10.169   7.706 -0.1618  0.1461  0.3686
 6250W        W10314   9.239   3.829   9.946  0.1314 -0.0910  0.3378
 6251W        W10315   2.815   8.994  11.078 -0.1632  0.1030  0.1084
 6252W        W10316   0.727   0.543   1.933 -0.2142  0.2690  0.1018
 6253W        W10317   9.886   4.104   9.242 -0.0443  0.0046 -0.1808
 6254W        W10318   0.954   2.304   7.430 -0.1283  0.2145 -0.0540
 6255W        W10319   7.661   9.348   2.107  0.2255  0.2092  0.0938
 6256W        W10320   8.989   3.205  10.516  0.2197 -0.0599 -0.2073
 6257W        W10321   7.899   2.037   0.887  0.1566 -0.1174  0.0304
 6258W        W10322   1.260   9.540   8.262  0.3018 -0.2093 -0.0185
 6259W        W10323   6.095   9.319  10.363  0.0267 -0.0501  0.1609
 6260W        W10324   7.135   9.430   1.281 -0.1471 -0.1213 -0.1749
 6261W        W10325   7.476  10.363   3.371  0.1196 -0.0302  0.0840
 6262W        W10326   8.509   1.803   2.495  0.2134  0.2335  0.1017
 6263W        W10327  10.537  10.361   8.858 -0.3758 -0.1250 -0.3337
 6264W        W10328   9.936  10.460   3.802 -0.3381 -0.3881  0.1930
 6265W        W10329   3.406   1.678   2.602 -0.3926 -0.2228  0.1744
 6266W        W10330   1.685   3.023   8.562 -0.0450 -0.2956  0.5018
 6267W        W10331   5.991   2.842  10.787 -0.0831 -0.2072 -0.0769
 6268W        W10332   0.144   6.791  11.193  0.0407 -0.1503  0.0372
 6269W        W10333   7.554   4.568   9.773  0.3232  0.1242 -0.3051
 6270W        W10334   0.172   8.984  10.195  0.1051  0.1406 -0.0736
 6271W        W10335  10.169   9.418  10.397 -0.1427  0.0660  0.0561
 6272W        W10336   8.504   9.171   9.159  0.1829  0.0573  0.2911
 6273W        W10337   0.853   0.155   0.986  0.1585  0.2441 -0.1146
 6274W        W10338   2.216  10.635   8.370  0.2002  0.1279 -0.1616
 6275W        W10339   6.852   2.320   1.938 -0.0780 -0.5489 -0.0400
 6276W        W10340  10.211   0.425   9.192 -0.1246  0.0146  0.2788
 6277W        W10341   6.508   5.379   1.558 -0.0695  0.1574 -0.0904
 6278W        W10342   0.318   5.724   7.256 -0.1926  0.2137  0.3216
 6279W        W10343  10.419   5.802   2.990  0.1199 -0.0207  0.0281
 6280W        W10344   4.554   0.984   1.552  0.2424  0.3198 -0.3134
 6281W        W10345   1.564   9.346   1.042 -0.4013  0.0396  0.1175
 6282W        W10346   9.000   4.105   1.257  0.1330 -0.6598 -0.1582
 6283W        W10347   6.080   7.963   0.602  0.0098  0.3386  0.2040
 6284W        W10348   6.325   3.222   9.221  0.0380 -0.1072  0.0459
 6285W        W10349   9.840   1.450   1.466 -0.1517  0.2675 -0.1217
 6286W        W10350   9.721   7.763   8.200  0.3110 -0.1338  0.4849
 6287W        W10351   9.959   2.549   2.860 -0.0151  0.1633 -0.1018
 6288W        W10352   6.205   5.542   0.352 -0.0273  0.4253 -0.1818
 6289W        W10353   0.193   5.563   9.607  0.1320  0.0233  0.0696
 6290W        W10354  10.275   6.621  11.216 -0.0252  0.1014  0.0283
 6291W        W10355   9.388   1.449   1.809  0.2600  0.2209  0.2145
 6292W        W10356   5.586   8.163   9.081  0.1959  0.2418 -0.0101
 6293W        W10357  10.543   2.292   8.654  0.0764 -0.1063  0.3049
 6294W        W10358   8.299   8.592   7.374  0.1194 -0.1942 -0.2839
 6295W        W10359   3.249   6.722   9.241 -0.0647 -0.0095  0.1156
 6296W        W10360   2.500   6.508   9.894 -0.1453 -0.3385  0.0642
 6297W        W10361   1.874   2.374  11.071  0.3832 -0.0713 -0.0380
 6298W        W10362   4.189   2.932  10.083 -0.3190 -0.1695 -0.1971
 6299W        W10363   0.072   7.377   2.347 -0.1910  0.2394 -0.0225
 6300W        W10364   0.193   5.101   9.455  0.1671 -0.1378 -0.2829
 6301W        W10365   1.529  10.436   9.122 -0.3713 -0.0096 -0.1228
 6302W        W10366   7.955   6.000   9.575 -0.0601 -0.0116  0.2663
 6303W        W10367   8.225   9.811   2.479 -0.0786 -0.3625 -0.0638
 6304W        W10368   1.799   8.830   8.666 -0.2162  0.1269  0.0583
 6305W        W10369  10.368   2.335   3.032 -0.0384  0.0245 -0.2084
 6306W        W10370   7.634   2.017   1.759  0.0264 -0.1026 -0.1427
 6307W        W10371   2.342   0.418   2.750 -0.0155  0.0066 -0.0270
 6308W        W10372   2.711   9.427   3.278 -0.0798  0.2505  0.0964
 6309W        W10373   6.267   0.233   0.414 -0.0781  0.0614 -0.0761
 6310W        W10374   4.835   6.260   7.403 -0.2206 -0.3643  0.0280
 6311W        W10375   5.269   3.544   2.072  0.0516  0.1762  0.0323
 6312W        W10376   3.049   1.133   1.527 -0.2148  0.1056  0.0960
 6313W        W10377   6.297  10.316   2.533  0.0886 -0.1039 -0.3608
 6314W        W10378  10.283   8.816   3.049  0.2089  0.2968  0.2140
 6315W        W10379   0.120   0.120   3.134  0.1253 -0.0854 -0.1544
 6316W        W10380   4.786   3.982   7.823  0.1542  0.0002 -0.1590
 6317W        W10381   3.720   4.034   9.156 -0.1997  0.1198  0.0334
 6318W        W10382   4.725   7.913   7.733  0.2046 -0.2776 -0.1556
 6319W        W10383   9.475   8.157   9.247 -0.1025  0.4072  0.0621
 6320W        W10384   1.589   4.523   3.472 -0.1100 -0.1647 -0.1895
 6321W        W10385   8.474   7.740   4.335  0.1416  0.3235 -0.0686
 6322W        W10386   0.836   8.188   9.991  0.0165  0.1494  0.2888
 6323W        W10387   6.351   1.075   8.061  0.0811 -0.2216 -0.0241
 6324W        W10388   2.591   4.584   3.454  0.0176  0.1184 -0.0774
 6325W        W10389   3.067   8.865   1.678 -0.1687 -0.4362  0.3721
 6326W        W10390   2.469   7.922  11.256  0.0030 -0.1218 -0.3174
 6327W        W10391   8.622   8.293  10.648  0.1171 -0.4719  0.1118
 6328W        W10392   7.832   9.008   4.332 -0.1835  0.5094 -0.0327
 6329W        W10393   1.013   8.641   1.305 -0.1297 -0.0428  0.1067
 6330W        W10394   6.454   6.140   7.306 -0.1097  0.0113  0.2133
 6331W        W10395   9.566   6.180   9.286  0.1601  0.0949 -0.2757
 6332W        W10396   3.478   2.480   2.295  0.1198  0.0311  0.3180
 6333W        W10397   6.133  10.638   0.804  0.2009 -0.0155 -0.0816
 6334W        W10398   6.840   6.495  10.780 -0.2641 -0.0866  0.0477
 6335W        W10399  10.401   0.288  10.007 -0.0433 -0.0470  0.3729
 6336W        W10400   0.900   6.316   8.093  0.0431  0.0081 -0.0895
 6337W        W10401   8.985   3.726   9.484 -0.0833  0.2031  0.1807
 6338W        W10402   8.442   0.828   3.615  0.0100 -0.2258  0.1236
 6339W        W10403   5.685   6.424   0.655 -0.0112  0.1083 -0.1007
 6340W        W10404   7.561   8.753   3.951 -0.3070  0.1993  0.1794
 6341W        W10405   9.100  10.220   1.225  0.1150  0.0684  0.0572
 6342W        W10406   6.921   7.965   0.251 -0.0864 -0.0064 -0.0008
 6343W        W10407   0.147   7.678   7.564  0.3423  0.1407  0.0824
 6344W        W10408   6.622   3.001   2.328 -0.1807 -0.0147 -0.1411
 6345W        W10409   0.444   2.010   1.903  0.0714  0.0729 -0.0345
 6346W        W10410  10.417   4.911   8.106  0.2202 -0.0240 -0.0638
 6347W        W10411  10.309   9.399   0.389 -0.0644 -0.0414 -0.2744
 6348W        W10412  10.356   6.136   1.301 -0.0097 -0.0242  0.2545
 6349W        W10413   7.545   5.622   9.877 -0.0366 -0.3368  0.2673
 6350W        W10414   4.092   3.748   9.503  0.0086 -0.2189  0.1904
 6351W        W10415   4.770   8.741   0.538  0.2485  0.4318  0.0970
 6352W        W10416   5.174   2.844   8.292 -0.0547  0.0928  0.0747
 6353W        W10417   3.904   3.719   1.505 -0.0766 -0.2997  0.0138
 6354W        W10418   4.703   7.066   2.213  0.1700  0.1353  0.1309
 6355W        W10419   9.495   2.607   2.651 -0.3062  0.1590  0.0813
 6356W        W10420   7.245   2.666   9.181 -0.1032  0.4814 -0.1178
 6357W        W10421   2.034   5.770   2.989 -0.1851  0.2124  0.2238
 6358W        W10422   5.792  10.761   3.190 -0.0297  0.0469  0.3036
 6359W        W10423   0.504   0.837   0.423 -0.0819  0.0141 -0.1256
 6360W        W10424   1.009   2.941  10.750 -0.1418 -0.1779 -0.0218
 6361W        W10425   9.610   2.682   3.169 -0.1232 -0.0418 -0.1382
 6362W        W10426   2.385   2.253  10.819  0.2723  0.1052 -0.1281
 6363W        W10427   9.886  10.338  10.232 -0.1451  0.1536  0.0171
 6364W        W10428   2.725   2.132   3.269 -0.2849  0.0256  0.1172
 6365W        W10429   8.948   7.741   0.205  0.0753  0.1758  0.0555
 6366W        W10430   3.522   8.264   8.519  0.0055  0.1304 -0.0960
 6367W        W10431   9.897  10.546  11.268  0.0442  0.0847 -0.3553
 6368W        W10432   4.816   4.942   0.184  0.1987  0.0797  0.1400
 6369W        W10433   4.790   1.271   3.146  0.5164 -0.2531  0.0408
 6370W        W10434  10.465   7.895   1.185  0.3056  0.3371  0.0559
 6371W        W10435   9.980   2.787  11.052  0.0723 -0.1374  0.2422
 6372W        W10436   9.775   5.660   2.168  0.3341 -0.1863 -0.2488
 6373W        W10437   2.727   4.065   2.405  0.2586  0.0100  0.1076
 6374W        W10438   4.760   5.441   9.679 -0.2081 -0.3606  0.3223
 6375W        W10439   2.276   5.227   1.745 -0.2097  0.0543  0.0032
 6376W        W10440   9.397   8.342  11.048  0.1475  0.3305 -0.1676
 6377W        W10441   7.728   8.968   2.485  0.1500 -0.2105  0.0814
 6378W        W10442   6.546   0.479  10.744 -0.0430 -0.2929  0.1250
 6379W        W10443   1.544   6.958   9.444 -0.0032 -0.3658 -0.0462
 6380W        W10444   7.472   7.184   8.835 -0.4036  0.1176  0.0514
 6381W        W10445   4.206   7.707   2.656 -0.1276 -0.1101 -0.1934
 6382W        W10446  10.050   3.087   3.811  0.0817  0.2584  0.3934
 6383W        W10447   7.673   3.027   1.771 -0.2640  0.0177  0.1467
 6384W        W10448   5.120   9.736   3.791 -0.0641 -0.1851 -0.0497
 6385W        W10449   5.702   7.039   8.796  0.4890 -0.1028  0.0483
 6386W        W10450   1.897   4.243   8.780  0.1467 -0.1812  0.2649
 6387W        W10451   6.898   8.367   2.277  0.1540 -0.0789 -0.0342
 6388W        W10452   0.695   8.910   8.316  0.0199 -0.2219  0.4777
 6389W        W10453   4.039   2.161  10.114  0.1248 -0.0321  0.1076
 6390W        W10454   1.852   3.948   2.440 -0.0179 -0.0783  0.0165
 6391W        W10455  10.154   4.603   3.105 -0.3099 -0.0066 -0.1758
 6392W        W10456   0.150   8.635   0.712  0.1906 -0.3041 -0.3815
 6393W        W10457   6.994   5.739   3.217 -0.1318 -0.1062 -0.2410
 6394W        W10458   0.300   9.650  10.682  0.0525 -0.4667 -0.0646
 6395W        W10459   7.128   5.489   7.761 -0.0490  0.4750  0.3544
 6396W        W10460   8.252   6.996   1.156 -0.2123 -0.2308  0.0121
 6397W        W10461   6.241   7.621  11.301  0.1261  0.1835 -0.0505
 6398W        W10462   0.160   9.977   0.286 -0.3337  0.0108 -0.4051
 6399W        W10463  10.510  10.463  10.571 -0.0881 -0.1620 -0.0839
 6400W        W10464   1.866   0.667   9.232 -0.2190 -0.1707 -0.2372
 6401W        W10465   4.337   8.791  10.657  0.0510  0.1867  0.2314
 6402W        W10466   5.786   9.091   8.535 -0.1209 -0.2689  0.3159
 6403W        W10467   8.649   5.407   0.098  0.1629 -0.1286 -0.1526
 6404W        W10468   8.634   8.496   0.275 -0.2933 -0.0457 -0.2721
 6405W        W10469   7.144   7.938   2.376 -0.0971  0.2166 -0.0146
 6406W        W10470   7.792   3.356   2.163  0.2961 -0.1212  0.2260
 6407W        W10471   7.999   5.806   0.398  0.0439  0.2838 -0.2970
 6408W        W10472   3.868   6.834  10.541  0.0109  0.2503  0.1625
 6409W        W10473   0.276   3.096   8.061 -0.1794 -0.2240  0.1376
 6410W        W10474   8.815   5.542   7.371  0.3366  0.1517  0.0591
 6411W        W10475  10.659   1.299   8.647  0.0502 -0.0862  0.0985
 6412W        W10476   5.909   6.427   2.701  0.0147  0.1746 -0.1257
 6413W        W10477   3.365   8.554   3.022  0.0111 -0.3083 -0.0902
 6414W        W10478   1.575   5.679  10.068 -0.2469 -0.1897 -0.0265
 6415W        W10479   0.231   6.704   7.431 -0.1044  0.1524  0.1419
 6416W        W10480   6.810   8.204   3.685 -0.0494 -0.0174  0.1347
 6417W        W10481   2.081   0.635   2.378 -0.1906  0.0193 -0.0907
 6418W        W10482   2.023   0.305  10.198 -0.1631 -0.0435  0.3203
 6419W        W10483  10.252   4.601  10.938  0.1437 -0.1474  0.0363
 6420W        W10484   2.637   2.948   2.622  0.2920  0.2130 -0.1554
 6421W        W10485   7.959   1.649  11.123 -0.1744 -0.0479 -0.0239
 6422W        W10486   2.184   1.695   8.954 -0.0321 -0.2278 -0.0860
 6423W        W10487   7.865   8.406  10.926 -0.1115  0.2222 -0.0565
 6424W        W10488   3.278  10.710   8.333  0.2228  0.2061 -0.4629
 6425W        W10489   1.645   6.882   7.636 -0.0251 -0.0394 -0.0931
 6426W        W10490   2.607   5.612   1.646 -0.2017  0.1067 -0.1998
 6427W        W10491   1.406   2.100  11.025 -0.0549  0.2053  0.2937
 6428W        W10492   0.131   2.007   7.625  0.0112  0.0525 -0.3334
 6429W        W10493   6.695   0.848   0.102 -0.0388 -0.2657  0.0130
 6430W        W10494   6.901   4.800   2.922  0.2552  0.2912  0.1448
 6431W        W10495   9.512   0.357   2.671  0.0802 -0.1074 -0.4458
 6432W        W10496   4.271   9.767   2.773  0.1186 -0.1993  0.3020
 6433W        W10497  10.025   5.242   8.084  0.3234  0.1170 -0.1928
 6434W        W10498   3.836   8.778   8.543  0.2395  0.0654  0.3734
 6435W        W10499   2.290   1.667  10.519 -0.1489  0.1700  0.0710
 6436W        W10500   8.678   4.882   8.934  0.0055 -0.1542  0.1342
 6437W        W10501   1.694   6.615  10.841  0.5603  0.0872  0.0599
 6438W        W10502   7.237   9.128   0.521  0.1683 -0.1032 -0.2361
 6439W        W10503   6.597   0.854   2.457 -0.2868 -0.3872 -0.1795
 6440W        W10504   3.456   4.236   0.547 -0.1476 -0.0772 -0.1139
 6441W        W10505   7.606   2.527   8.804 -0.2106 -0.3014 -0.2203
 6442W        W10506   1.982   2.499   9.403 -0.2351 -0.3950 -0.2519
 6443W        W10507   5.296   6.703   0.349 -0.1205 -0.0712 -0.2941
 6444W        W10508   5.972   3.078  10.317  0.1281  0.0891  0.2647
 6445W        W10509   7.844   1.703   0.528  0.0129 -0.3021  0.0305
 6446W        W10510   9.051   1.972   0.102 -0.1189 -0.1605 -0.1157
 6447W        W10511   5.646   2.117   1.260  0.0650  0.2819  0.1023
 6448W        W10512   4.994   9.231  10.939  0.1316 -0.2012  0.0288
 6449W        W10513   7.588   6.840   1.188 -0.0250  0.1642 -0.1212
 6450W        W10514   1.219   0.008   9.674  0.0247 -0.1704 -0.1801
 6451W        W10515  10.242   8.300   1.250  0.2165  0.0214 -0.1337
 6452W        W10516   5.173   1.517   1.151  0.3556  0.2340  0.3202
 6453W        W10517   9.210   1.537   8.081  0.0837 -0.0879 -0.1194
 6454W        W10518   3.769   8.896   1.183 -0.1933 -0.1041 -0.0742
 6455W        W10519   6.575   7.918   1.363  0.3611 -0.0478 -0.3499
 6456W        W10520   5.941   4.549   0.579 -0.2366 -0.1899 -0.1138
 6457W        W10521   7.273   5.057  10.720 -0.2748 -0.0523 -0.1973
 6458W        W10522   6.020  10.108  10.096  0.1324 -0.0942 -0.1972
 6459W        W10523   4.826   8.846   2.625  0.1375 -0.0028  0.1602
 6460W        W10524   8.736   4.934   0.533 -0.1184  0.1392 -0.2113
 6461W        W10525   2.650   4.512  10.663 -0.3211 -0.0760  0.2169
 6462W        W10526   1.696   0.494   1.856 -0.0464 -0.1655  0.1266
 6463W        W10527   8.056   1.736   9.116 -0.1213 -0.2794 -0.1875
 6464W        W10528   8.826   7.185   9.334 -0.2371 -0.2449 -0.3559
 6465W        W10529   7.555   2.286   9.304  0.0988  0.0557  0.1131
 6466W        W10530   9.780   1.671   2.448  0.0109 -0.2347 -0.2912
 6467W        W10531   3.473   4.759   9.599  0.2351 -0.0167 -0.2243
 6468W        W10532   7.513   4.051   9.943  0.2767 -0.0321 -0.0943
 6469W        W10533   3.157   5.881   0.413  0.3073  0.3888 -0.0217
 6470W        W10534   4.971  10.497   2.432 -0.0049  0.2018  0.2987
 6471W        W10535   4.996   3.130   0.920  0.3672 -0.1748  0.2633
 6472W        W10536   0.826   3.419  10.776  0.1028 -0.0191  0.1839
 6473W        W10537   6.880   2.690  10.719 -0.1921  0.0684 -0.2990
 6474W        W10538   9.552  10.088   0.360 -0.2027  0.1626  0.3848
 6475W        W10539   1.402   8.056   0.490  0.1681 -0.1462 -0.3382
 6476W        W10540   0.704   6.134  11.142  0.0316  0.0295 -0.0768
 6477W        W10541   0.600   2.136   8.147  0.0308  0.2014  0.2432
 6478W        W10542   1.013   8.773   9.289  0.0519 -0.2345 -0.0811
 6479W        W10543   0.201   4.795  10.996  0.1277 -0.2009  0.5452
 6480W        W10544   3.585   2.248   3.212 -0.2401  0.0863 -0.0304
 6481W        W10545   5.598   9.011   3.655 -0.0248  0.0734 -0.0736
 6482W        W10546   3.276   3.564   8.375  0.2726  0.2748  0.1433
 6483W        W10547   4.064   5.138  10.077 -0.1355  0.2630 -0.1747
 6484W        W10548   6.975   1.284   9.714  0.3621  0.0999  0.3550
 6485W        W10549  10.215   4.154  11.285 -0.2356  0.2079  0.0172
 6486W        W10550   1.149   3.803   0.608  0.3566 -0.1139 -0.3435
 6487W        W10551   5.814   9.998   8.533 -0.3634 -0.0330 -0.3257
 6488W        W10552   8.491   2.604   3.630  0.0699 -0.1082  0.1116
 6489W        W10553   3.943   0.342  10.023 -0.2136 -0.3226  0.3283
 6490W        W10554   8.875   4.403  11.251  0.1090  0.0794 -0.1499
 6491W        W10555   1.043   3.510   8.348 -0.1723 -0.3168  0.0799
 6492W        W10556   3.169   2.048   3.527 -0.0496  0.2159 -0.1578
 6493W        W10557   0.991   0.181  10.134  0.1461  0.0009 -0.1912
 6494W        W10558   4.352   9.484   3.131  0.0127 -0.1070 -0.1478
 6495W        W10559   9.182   4.781  10.292  0.0525 -0.1775 -0.0010
 6496W        W10560   6.678   6.253   7.865  0.0077 -0.0603  0.1047
 6497W        W10561   4.556   4.428   9.777  0.0401 -0.0284 -0.3038
 6498W        W10562   0.006  10.444   0.331  0.1444 -0.1994  0.1460
 6499W        W10563   2.255   4.235   2.238  0.0467 -0.2348  0.1596
 6500W        W10564   6.281   0.738   0.492 -0.0713  0.1015  0.1321
 6501W        W10565   2.428  10.699   3.085 -0.3039 -0.1283  0.4949
 6502W        W10566  10.136   4.136   9.705 -0.0558 -0.2126 -0.1150
 6503W        W10567   1.269   9.868   1.825  0.0065 -0.1725  0.0744
 6504W        W10568   5.179   7.795   0.562  0.2262 -0.0880 -0.1702
 6505W        W10569   0.888   9.001   3.596  0.0271  0.0099 -0.1414
 6506W        W10570   9.398   3.481   9.619 -0.0775  0.3149  0.2903
 6507W        W10571   3.644   8.146  10.772 -0.0354 -0.0693  0.0316
 6508W        W10572   4.601   6.691   0.843 -0.1766 -0.3903 -0.0378
 6509W        W10573   9.873   9.930   1.824  0.3942 -0.3549  0.0275
 6510W        W10574   6.519   9.598  10.585 -0.1264 -0.0979 -0.0747
 6511W        W10575   4.364   2.184   2.522  0.0149  0.3674  0.0277
 6512W        W10576   4.931   4.907   7.529  0.0454  0.0299 -0.0595
 6513W        W10577   9.842   4.171   7.836  0.0778  0.0777 -0.1810
 6514W        W10578   0.006   3.490  11.180  0.0576  0.1330 -0.0591
 6515W        W10579   5.561   2.469   8.662  0.1453  0.0032  0.1125
 6516W        W10580   8.528   2.027   8.882  0.0799 -0.0970  0.1265
 6517W        W10581   8.267   7.488  10.759 -0.2461  0.2293 -0.2061
 6518W        W10582   5.164   9.901   3.126 -0.5293 -0.1498 -0.2159
 6519W        W10583   7.334   8.436   3.082  0.0112 -0.2817 -0.1147
 6520W        W10584   0.693   2.235   9.239 -0.1652  0.3006 -0.1636
 6521W        W10585   6.209   3.814   2.341 -0.1591 -0.3015 -0.2535
 6522W        W10586   7.374   5.071   7.604 -0.1095  0.0825  0.0709
 6523W        W10587   0.276  10.116   8.859 -0.1289  0.1123 -0.0950
 6524W        W10588   4.110   2.863   9.579  0.1540  0.0563 -0.0361
 6525W        W10589   2.814   0.111   2.839  0.0040 -0.0153 -0.4158
 6526W        W10590   1.641   1.103   3.191 -0.0434 -0.1431  0.0674
 6527W        W10591   6.351   6.034   8.297  0.2686  0.0006  0.0086
 6528W        W10592   6.354   5.400   8.804 -0.0279  0.0875 -0.1749
 6529W        W10593   3.259   2.242   9.450 -0.1646 -0.0965  0.0619
 6530W        W10594   4.288   5.606   0.262  0.1800  0.0579 -0.0645
 6531W        W10595   0.749   5.191   9.213 -0.1685  0.0602 -0.2275
 6532W        W10596   4.639   7.925   1.114  0.1491  0.1575  0.0538
 6533W        W10597   1.530   4.560   2.088 -0.4239 -0.0943  0.2030
 6534W        W10598   2.425   7.089   3.579 -0.0863 -0.1242 -0.2508
 6535W        W10599   0.027   9.107   1.912  0.0512 -0.1686 -0.3929
 6536W        W10600   8.460   9.875   0.796 -0.0629 -0.2235  0.0537
 6537W        W10601   6.860   4.427   2.331 -0.1523 -0.1366  0.2370
 6538W        W10602   1.679   4.944  11.271 -0.2005  0.0066 -0.2513
 6539W        W10603   5.123   0.395   8.111  0.2806 -0.0025 -0.2509
 6540W        W10604   9.137   6.850   9.633 -0.0331 -0.1629 -0.2205
 6541W        W10605   3.285   9.996   1.227  0.4172 -0.1780 -0.1856
 6542W        W10606   3.623   9.638   9.076 -0.0081  0.0083 -0.0881
 6543W        W10607   1.406   6.531  11.232  0.2471  0.2201 -0.1424
 6544W        W10608   3.145   9.490   8.868  0.2444  0.1034 -0.2905
 6545W        W10609   1.531   7.866   1.412 -0.0092  0.2018  0.0829
 6546W        W10610   0.736   3.906   1.934 -0.1019  0.1511  0.1039
 6547W        W10611   4.824   9.425   4.079 -0.0956 -0.2445 -0.2681
 6548W        W10612  10.657   0.376   3.540  0.0174  0.3456  0.0953
 6549W        W10613   0.822   9.902   1.054  0.0420 -0.0742  0.0211
 6550W        W10614   1.302   1.589   8.291 -0.4479  0.1942 -0.4562
 6551W        W10615   3.177   0.295   0.058 -0.1501 -0.1687  0.1886
 6552W        W10616   4.673   1.358  10.686  0.1955  0.1990  0.1670
 6553W        W10617   7.177   3.092   2.085 -0.1810  0.0906 -0.1286
 6554W        W10618   6.555   6.000   4.071 -0.0077 -0.1422  0.1952
 6555W        W10619   4.053   1.193   9.930  0.3928  0.0531  0.2178
 6556W        W10620   7.135  10.075   7.453 -0.0177 -0.0417 -0.1515
 6557W        W10621   9.827   7.347   2.237  0.0120  0.2692  0.0658
 6558W        W10622   0.885   7.682  10.066  0.0628  0.1506 -0.1134
 6559W        W10623   5.344   4.677   7.633 -0.5574 -0.2693 -0.0244
 6560W        W10624   9.240   4.745  11.136 -0.0889  0.2140 -0.0007
 6561W        W10625   4.773   5.510   8.783 -0.2685 -0.4773 -0.0893
 6562W        W10626   7.597   0.221  10.999 -0.1385  0.0078  0.1427
 6563W        W10627  10.396   9.974   0.373 -0.1021 -0.0885  0.0099
 6564W        W10628   0.664   3.990   1.416  0.1617  0.0917  0.1028
 6565W        W10629   9.525   3.526   9.073  0.0130  0.0318  0.0156
 6566W        W10630   2.762   6.833   3.914  0.0696 -0.1514  0.1067
 6567W        W10631   6.661   1.959  10.657 -0.1053 -0.0306  0.1422
 6568W        W10632   3.896   1.372  10.508  0.1300 -0.0935 -0.1095
 6569W        W10633  10.660   8.715   2.761  0.1230  0.2039  0.0554
 6570W        W10634   0.436   4.256   9.490 -0.0716 -0.0003  0.1824
 6571W        W10635   2.820   4.006   1.433 -0.0706  0.0900  0.0240
 6572W        W10636  10.617  10.658   7.538  0.2586 -0.0024 -0.0182
 6573W        W10637   7.126   6.670   7.031 -0.1037  0.0103  0.1290
 6574W        W10638   8.130   2.135  10.992 -0.1096 -0.1962  0.2256
 6575W        W10639   9.347   7.617   9.102  0.2063 -0.0332 -0.0534
 6576W        W10640   5.924   5.718   0.749  0.0341 -0.0319 -0.2366
 6577W        W10641   4.070   3.436  10.283  0.2097 -0.0758  0.2289
 6578W        W10642   0.838   4.008   9.525  0.2467 -0.2490 -0.1707
 6579W        W10643   8.558   0.140  11.090 -0.2335  0.1952 -0.1170
 6580W        W10644  10.196   9.981   2.856 -0.2056 -0.2725  0.0241
 6581W        W10645   6.503   6.120   0.822  0.2918 -0.1662  0.3750
 6582W        W10646   2.770   9.882   1.648  0.1667 -0.0411 -0.0827
 6583W        W10647   0.849   9.898   2.046  0.2465 -0.0064 -0.1390
 6584W        W10648   2.007   1.578   3.437 -0.1214 -0.3246  0.2643
 6585W        W10649   4.473   7.536   3.345  0.1947 -0.6405 -0.0383
 6586W        W10650   6.045   7.563   9.812  0.1225 -0.2378  0.3184
 6587W        W10651   9.725   9.972   8.812  0.0064  0.1557 -0.2376
 6588W        W10652   4.960   1.756   1.810 -0.1597  0.2450 -0.2079
 6589W        W10653  10.221   0.979  10.524  0.3641  0.1373  0.0119
 6590W        W10654   8.339   2.894   0.281 -0.0848 -0.1199 -0.1041
 6591W        W10655   1.727   2.033   2.970 -0.5575 -0.2561 -0.1974
 6592W        W10656   9.875   5.565   0.756 -0.0429  0.0198 -0.0208
 6593W        W10657   1.168   3.380   1.183 -0.0580  0.1073  0.0302
 6594W        W10658   2.232   6.120   8.184 -0.1123 -0.2529  0.0931
 6595W        W10659  10.440   2.683   0.027  0.2696  0.0090 -0.1222
 6596W        W10660   4.761  10.138   1.986 -0.2490 -0.0649  0.2203
 6597W        W10661   5.132   3.301   8.535 -0.1799 -0.3232  0.0257
 6598W        W10662   1.033   0.954   9.351  0.0130  0.0331  0.0534
 6599W        W10663   9.032   6.436  10.492  0.3555 -0.1640 -0.1466
 6600W        W10664   0.786   3.463   9.445  0.2694 -0.0406  0.0259
 6601W        W10665   0.900   2.559   8.514 -0.3158  0.2651  0.0154
 6602W        W10666   3.644   8.944  11.138  0.1223 -0.0948  0.2526
 6603W        W10667   5.019   7.866   8.108  0.1758  0.0260  0.0846
 6604W        W10668   3.182   2.076   0.526  0.2961 -0.3707 -0.0279
 6605W        W10669   5.191   2.545   9.249  0.2201 -0.0272 -0.2607
 6606W        W10670   2.883   1.506   9.796 -0.1327 -0.1894  0.0577
 6607W        W10671   2.512   9.619  10.720 -0.0089  0.0167  0.1187
 6608W        W10672   7.588   0.635   0.487 -0.1494  0.0966 -0.0115
 6609W        W10673   1.616   9.268   3.386  0.0375  0.0749 -0.4969
 6610W        W10674   5.964   2.226   8.966 -0.2582 -0.0515  0.0174
 6611W        W10675   3.660   1.082   8.532  0.2725 -0.1798  0.2946
 6612W        W10676   8.387   8.448  11.191  0.2158  0.0670 -0.0894
 6613W        W10677  10.740   5.340   1.719  0.2469  0.1706 -0.0437
 6614W        W10678   9.646   2.579   2.142  0.1170  0.0010 -0.2458
 6615W        W10679   2.263   2.647   1.322  0.2147 -0.0710 -0.1415
 6616W        W10680   4.745   2.746   8.058  0.2987  0.2177  0.1895
 6617W        W10681   7.814   1.359   3.501 -0.3838  0.2544 -0.1415
 6618W        W10682   7.966   0.805   9.443  0.1080  0.2423 -0.1368
 6619W        W10683   3.785   3.598   8.391  0.0686 -0.0951 -0.0042
 6620W        W10684   2.508   4.372   1.302  0.1089 -0.0045  0.1303
 6621W        W10685   9.948   6.462  10.554  0.3382 -0.1491  0.0281
 6622W        W10686   5.423   0.421   9.822 -0.1349 -0.1137  0.0421
 6623W        W10687   2.760   1.971   9.841 -0.3618 -0.0672  0.2820
 6624W        W10688   5.263   1.465   0.583 -0.2592  0.0831 -0.3120
 6625W        W10689   3.785   5.570   1.537  0.0287 -0.0390 -0.0723
 6626W        W10690   0.446   1.341   1.418 -0.0270  0.4842 -0.1296
 6627W        W10691  10.264   9.834   9.536  0.1995 -0.0735 -0.1174
 6628W        W10692   2.070  10.514   9.107  0.2040  0.2868 -0.2679
 6629W        W10693   7.697   2.350   2.472  0.0380  0.0706 -0.0611
 6630W        W10694   9.107   8.111   3.494 -0.2503  0.1272  0.2260
 6631W        W10695   7.351   2.545  10.909  0.0358 -0.2121 -0.3129
 6632W        W10696   6.342   4.118   1.969  0.1525  0.1777  0.1672
 6633W        W10697  10.284   1.605   1.091  0.3327  0.0260  0.1050
 6634W        W10698   7.385   1.167   9.428  0.0463  0.0045  0.0421
 6635W        W10699   6.488   6.013   8.992  0.3105  0.1327  0.4859
 6636W        W10700   3.009   3.487   8.775 -0.0935  0.1148 -0.2474
 6637W        W10701   3.560   3.617   2.775 -0.1376 -0.0483  0.0488
 6638W        W10702   4.091   1.406   2.928 -0.0643  0.0193 -0.2140
 6639W        W10703   8.445   5.621   8.385  0.1225 -0.1334  0.1409
 6640W        W10704  10.507   2.769  10.846  0.0713  0.0022  0.0536
 6641W        W10705   4.149   8.172   2.588  0.2396 -0.1353  0.2516
 6642W        W10706   9.215   6.302   7.003 -0.0150 -0.1261 -0.4977
 6643W        W10707   8.842   0.545   3.600 -0.0527 -0.1427 -0.0973
 6644W        W10708   7.195   0.825   9.858  0.3796 -0.5187  0.1466
 6645W        W10709   0.533   2.791   2.524 -0.1464  0.1931  0.3822
 6646W        W10710   7.531   7.652   3.562  0.1668 -0.1752 -0.1085
 6647W        W10711   4.667   2.797  10.861  0.2242  0.1134 -0.2604
 6648W        W10712   7.295   9.005  10.680 -0.0154  0.0262 -0.2278
 6649W        W10713   4.164  10.674   2.689 -0.0099 -0.0153  0.0753
 6650W        W10714   0.416   6.013   7.855 -0.0126 -0.0518  0.1861
 6651W        W10715   8.306   6.266   9.286  0.1652 -0.0691  0.0426
 6652W        W10716   7.724   5.264  10.513  0.1252 -0.2451 -0.1304
 6653W        W10717   3.666   1.156   8.009 -0.1277  0.0836 -0.2174
 6654W        W10718   0.791   3.906   0.212 -0.1659  0.2074  0.0870
 6655W        W10719   5.931   0.183   0.035 -0.1591  0.2095 -0.2349
 6656W        W10720   5.630   4.409   1.798 -0.1633  0.0433 -0.2674
 6657W        W10721   0.749   3.460   0.466  0.0551  0.1007  0.1582
 6658W        W10722   2.617   3.288   0.817 -0.2211  0.1716 -0.0797
 6659W        W10723   0.311   0.156   3.719 -0.1046  0.0719 -0.0315
 6660W        W10724   9.226   3.712   8.707  0.0599  0.0826  0.0763
 6661W        W10725   5.295   3.742   1.605  0.1227 -0.0748  0.1940
 6662W        W10726   7.728   5.370   0.225 -0.0569  0.1940 -0.1182
 6663W        W10727   5.686   7.747   0.303  0.3947 -0.0399 -0.1083
 6664W        W10728   4.234   3.112   0.337 -0.1156 -0.0626  0.0769
 6665W        W10729   8.896   7.425   9.754 -0.4264 -0.1735 -0.2193
 6666W        W10730   9.448   8.000   1.401  0.0002  0.0042  0.0434
 6667W        W10731   0.730   5.714   2.269  0.1076  0.2446 -0.2847
 6668W        W10732  10.697   4.437   2.301  0.3106  0.0149  0.1137
 6669W        W10733   0.722   6.386   9.667  0.3006 -0.1717 -0.0772
 6670W        W10734   0.754   1.784   9.093 -0.1245 -0.2067 -0.0877
 6671W        W10735   7.321   3.653   9.584  0.0693  0.0101 -0.1127
 6672W        W10736   8.411   1.117   9.137  0.0263  0.0723 -0.0626
 6673W        W10737   3.389   7.323   1.535 -0.1602 -0.1679 -0.0032
 6674W        W10738   2.638   7.006   1.308  0.0428 -0.1906 -0.3152
 6675W        W10739   7.993   0.404   1.915  0.2762  0.1948  0.1518
 6676W        W10740   4.578   9.964   8.389  0.3705  0.3164  0.2793
 6677W        W10741  10.585   4.950   0.035 -0.0080 -0.2255 -0.1425
 6678W        W10742   4.266   7.328   0.315 -0.0143 -0.0315 -0.2949
 6679W        W10743   7.415   0.676   3.439  0.2945 -0.2175 -0.0308
 6680W        W10744   3.674   9.193   2.304  0.1809 -0.0319  0.0914
 6681W        W10745  10.122   2.676   9.216  0.0173  0.3395 -0.0961
 6682W        W10746   4.148   2.256   9.581  0.2419 -0.1388 -0.3110
 6683W        W10747   8.137   7.016   0.047  0.2142  0.0959  0.0427
 6684W        W10748   4.919   2.053  11.088  0.0548  0.1259 -0.0804
 6685W        W10749   5.911   3.775   8.397  0.3364 -0.1926 -0.1220
 6686W        W10750   0.275   1.094   3.342 -0.1888 -0.2297  0.1811
 6687W        W10751   7.324   6.717   1.542  0.0259 -0.1500  0.0385
 6688W        W10752   9.722   3.924   2.120  0.0499  0.0637  0.0128
 6689W        W10753   5.570   8.388   2.600  0.1681  0.4206 -0.2836
 6690W        W10754   4.485   5.140   0.484 -0.1341 -0.1000  0.0267
 6691W        W10755   6.073  10.388   3.834 -0.1587  0.2489 -0.1914
 6692W        W10756   7.440  10.218   1.529 -0.0490  0.0015  0.4941
 6693W        W10757   9.243   0.840   9.819 -0.3119 -0.2093 -0.2584
 6694W        W10758   0.308   4.328   8.937 -0.0146 -0.1751 -0.0434
 6695W        W10759   4.837   4.527   0.680 -0.1498  0.0441  0.2138
 6696W        W10760   8.985   3.192   2.216  0.1284  0.0147 -0.3733
 6697W        W10761   4.081   1.897   1.985 -0.1602  0.2098  0.1096
 6698W        W10762   2.712   0.095   0.354 -0.1882 -0.1358  0.0859
 6699W        W10763   6.000   4.076  10.813 -0.1527 -0.2738  0.2343
 6700W        W10764   2.903   3.501   0.508 -0.1912 -0.2505  0.1857
 6701W        W10765   0.278   9.085   2.880  0.0078 -0.3191 -0.0595
 6702W        W10766   2.790   0.573   7.994 -0.2690 -0.1277 -0.3207
 6703W        W10767   4.599   1.370   2.447  0.1100 -0.1164  0.0221
 6704W        W10768   0.026  10.143   0.754  0.2193 -0.1337  0.0170
 6705W        W10769   2.306   0.728  10.173 -0.0386 -0.0085  0.0549
 6706W        W10770   8.482   3.901   0.947  0.1156 -0.3202  0.1161
 6707W        W10771   5.043   6.046   8.955 -0.5547  0.3550  0.0155
 6708W        W10772   2.820   6.573   1.078  0.1108  0.0234  0.0034
 6709W        W10773   2.200   0.520  10.642 -0.0004  0.2009 -0.1397
 6710W        W10774   4.596   9.323   2.711  0.1117 -0.1449 -0.0993
 6711W        W10775   4.735   1.118   2.030  0.3419 -0.0426 -0.0262
 6712W        W10776   4.886   1.734   0.810  0.2287 -0.1338  0.3200
 6713W        W10777   2.458  10.444   7.044  0.0799 -0.1298  0.1424
 6714W        W10778   6.903   8.168   0.996  0.1798  0.0542  0.1336
 6715W        W10779   7.810   6.184  10.769  0.1428  0.0523 -0.2927
 6716W        W10780   8.819   9.799  10.640 -0.0608  0.1015 -0.5006
 6717W        W10781   7.551   6.462   7.312 -0.1759 -0.0897  0.0176
 6718W        W10782   1.453   9.621  11.174  0.0459  0.0743 -0.2427
 6719W        W10783   2.385   3.700   1.179  0.0048 -0.1761  0.0303
 6720W        W10784   4.638   2.159   7.932  0.0340 -0.3836  0.0339
 6721W        W10785   1.777   9.608   3.032 -0.0772 -0.1345 -0.2795
 6722W        W10786   8.099   7.735   2.149 -0.0134 -0.1898 -0.0711
 6723W        W10787   6.479   6.368   1.916  0.0296 -0.0781 -0.2257
 6724W        W10788   5.540   6.604   8.436 -0.0175 -0.2312 -0.2825
 6725W        W10789   5.429   6.635   9.769 -0.1655 -0.0925 -0.2759
 6726W        W10790   5.706   6.023   1.387 -0.0037  0.1452  0.2308
 6727W        W10791   5.090   7.065   0.063 -0.0569 -0.1728  0.0450
 6728W        W10792   6.184   8.934   0.515  0.0965  0.1508 -0.0683
 6729W        W10793   0.099   2.542  11.101  0.1148  0.2057 -0.0798
 6730W        W10794  10.379   4.157  10.264  0.0070  0.2437 -0.0618
 6731W        W10795   9.018   0.757   1.527  0.4677  0.1459  0.1784
 6732W        W10796   4.507   3.058   1.677 -0.1164  0.1957 -0.3650
 6733W        W10797   8.985   0.446   2.848  0.2420 -0.0302 -0.0637
 6734W        W10798   6.985   6.450  10.240 -0.2732  0.0656 -0.0740
 6735W        W10799   5.063   8.724   7.994 -0.2173  0.1945 -0.0896
 6736W        W10800   5.566   1.080  10.412 -0.0720 -0.0939  0.2166
 6737W        W10801   1.763   8.534  11.303  0.2033  0.0215  0.1952
 6738W        W10802   0.849   2.024  10.744 -0.2032 -0.2987 -0.1521
 6739W        W10803   6.079   8.162   8.940 -0.2192  0.1702  0.2641
 6740W        W10804   0.523   2.448   2.924 -0.1412  0.2800 -0.1987
 6741W        W10805   0.382   4.422   1.289  0.0606  0.0042  0.0087
 6742W        W10806   0.233   8.681  11.185 -0.0504 -0.5309 -0.2648
 6743W        W10807   5.731   0.850   2.160  0.3510  0.0008  0.2260
 6744W        W10808   2.362   3.443   9.266  0.0161  0.0881 -0.2168
 6745W        W10809   8.498  10.034  10.022 -0.2611  0.2206  0.4103
 6746W        W10810   7.949   2.574   2.983  0.2762 -0.0303  0.0233
 6747W        W10811   2.807   4.484   1.760 -0.0784 -0.0558  0.1139
 6748W        W10812   9.772   2.780   1.686  0.1275 -0.2529  0.0508
 6749W        W10813   6.478  10.081  10.506 -0.0115 -0.3603 -0.0065
 6750W        W10814   2.456  10.732   8.792 -0.3105 -0.0260 -0.1408
 6751W        W10815   4.166   0.650  10.921 -0.1938 -0.2453  0.2166
 6752W        W10816   9.816   2.106  10.791  0.1680  0.2353 -0.2279
 6753W        W10817   2.957   9.266   8.064  0.0047 -0.0817 -0.1154
 6754W        W10818   3.756   6.762   3.118 -0.1868  0.2074  0.1544
 6755W        W10819   4.357   1.479   1.768  0.1202 -0.4529  0.2700
 6756W        W10820   7.284   0.846  11.206 -0.1766 -0.2235  0.1849
 6757W        W10821   8.818   5.485   0.590 -0.2429  0.4010 -0.2307
 6758W        W10822   2.263   5.608   6.936  0.2337  0.1801  0.1250
 6759W        W10823   2.061   9.491  10.541  0.1175 -0.1605 -0.2485
 6760W        W10824   6.168   9.787   0.889  0.0180  0.1858 -0.0482
 6761W        W10825   2.553   9.360   8.500 -0.3211 -0.0659  0.2118
 6762W        W10826   0.959   8.481   3.589  0.1762  0.1090  0.1999
 6763W        W10827   6.270   6.969   0.828 -0.0859 -0.2154 -0.0254
 6764W        W10828   5.567   8.865   8.015  0.1856  0.0244  0.1469
 6765W        W10829   1.127   2.345   9.467 -0.1131 -0.4142 -0.1783
 6766W        W10830   7.795   3.461  11.263  0.1932 -0.2169 -0.0615
 6767W        W10831  10.444   7.440   1.451  0.0146 -0.2359  0.0561
 6768W        W10832   8.190   3.952   0.531 -0.0039 -0.0760 -0.2867
 6769W        W10833   9.100   9.149   3.526  0.1582 -0.0750  0.3812
 6770W        W10834   3.635   0.121   2.706 -0.2178 -0.0459  0.0141
 6771W        W10835   0.563   8.241   3.215  0.0508  0.0976 -0.1361
 6772W        W10836   3.131   4.611   2.612  0.1569  0.1255  0.3254
 6773W        W10837   2.183  10.269  10.540 -0.0214  0.0248  0.0050
 6774W        W10838   2.772   6.102   8.051  0.1744  0.1800  0.0236
 6775W        W10839   5.790   7.968  10.020  0.0286  0.6195 -0.0789
 6776W        W10840   1.133   5.427   2.456 -0.1549  0.0068 -0.1410
 6777W        W10841   2.653   1.813   8.835  0.0474  0.1090 -0.3002
 6778W        W10842   2.044   3.041   9.146  0.0395 -0.0534  0.1486
 6779W        W10843   5.421   9.743   8.136  0.1435  0.2450 -0.0893
 6780W        W10844   1.829   6.645  10.356 -0.0384 -0.0272 -0.0088
 6781W        W10845   2.839   5.231   9.952 -0.3107  0.4520 -0.0273
 6782W        W10846   8.575   3.300   8.925 -0.0519 -0.0928 -0.0044
 6783W        W10847   6.670   4.388   3.368  0.1906 -0.1664 -0.3025
 6784W        W10848   8.232   8.825   8.196 -0.1298 -0.0416 -0.3219
 6785W        W10849   0.790   5.112   3.640 -0.0949 -0.0851 -0.1460
 6786W        W10850   4.351   4.350   3.215  0.1374 -0.1155  0.0143
 6787W        W10851  10.278   4.313   3.570  0.0954 -0.1530 -0.0118
 6788W        W10852   5.676   7.349   0.642  0.0726  0.3346  0.0431
 6789W        W10853   0.317   6.071   8.913  0.0195 -0.3581  0.3788
 6790W        W10854   5.622   3.399  10.056 -0.0837  0.0985  0.0666
 6791W        W10855   3.895   2.678   0.769 -0.2128 -0.0694 -0.1566
 6792W        W10856   2.106   3.921   9.171  0.2636  0.1858  0.0137
 6793W        W10857   9.629   3.161  10.733 -0.0402  0.2742  0.1140
 6794W        W10858   7.100   1.318  11.196  0.0047  0.2115  0.2357
 6795W        W10859   4.966   9.192   0.475  0.1081 -0.2125  0.2396
 6796W        W10860   4.014   3.280   1.254  0.0130  0.1786  0.2213
 6797W        W10861   2.838   4.061  10.724  0.0422  0.1638 -0.0726
 6798W        W10862   2.528   5.036  10.807  0.3941  0.2862  0.2032
 6799W        W10863   5.851   7.264   9.218 -0.0220  0.0337  0.0005
 6800W        W10864   9.067   6.015   3.259 -0.0289  0.2572 -0.0096
 6801W        W10865   1.699   5.741   0.200 -0.0032  0.1357 -0.0304
 6802W        W10866  10.686   1.160   9.597 -0.3116  0.0331  0.1498
 6803W        W10867   4.013   4.660   1.227  0.1084 -0.1139 -0.2211
 6804W        W10868   1.329   4.074   3.222  0.2634 -0.1974  0.1470
 6805W        W10869   7.116   7.011   1.932  0.2693 -0.1794  0.5881
 6806W        W10870  10.587   8.752   0.256  0.0380 -0.2797 -0.1917
 6807W        W10871   9.912   5.347   8.720 -0.1551 -0.0264  0.0763
 6808W        W10872   6.556  10.758   2.672  0.0329  0.1303 -0.1451
 6809W        W10873   5.837   3.137   7.202 -0.0719  0.0472 -0.1783
 6810W        W10874   6.298   4.862  11.018  0.0592 -0.0859  0.0184
 6811W        W10875   1.545   9.956   8.557 -0.0778 -0.2040  0.1168
 6812W        W10876   9.385   7.062   9.168  0.3265  0.2995 -0.1425
 6813W        W10877   2.616   4.592   8.209  0.2856 -0.2965  0.0497
 6814W        W10878   3.555   5.028   3.168 -0.1482 -0.0832  0.0188
 6815W        W10879   9.003   3.346   9.161 -0.1401  0.1535 -0.1853
 6816W        W10880   4.371   0.484   1.376 -0.1054  0.1861  0.2234
 6817W        W10881   0.817   4.639   0.857 -0.0292 -0.1662  0.0647
 6818W        W10882   2.937   2.166  10.768  0.0803 -0.4414  0.1367
 6819W        W10883   1.354   6.975   8.576 -0.0235 -0.1683  0.0992
 6820W        W10884   0.080   7.871   8.938 -0.4441 -0.1108  0.1443
 6821W        W10885   0.635   3.230   7.734  0.0711 -0.0095  0.2062
 6822W        W10886   1.323   3.149   3.006 -0.0817 -0.0632 -0.1942
 6823W        W10887   0.869   4.082  10.895  0.0695  0.1346  0.0461
 6824W        W10888   4.966   8.126  11.019 -0.2237 -0.1675  0.2014
 6825W        W10889   5.036   0.991   8.389 -0.0054 -0.3469  0.0315
 6826W        W10890   5.545   9.700  10.503 -0.0983 -0.0338  0.0542
 6827W        W10891   4.377   3.221  11.081  0.0684 -0.1213  0.2910
 6828W        W10892   0.481   9.178   1.812 -0.1903  0.1392 -0.1393
 6829W        W10893   3.709   2.242   1.277 -0.1075  0.0250 -0.0952
 6830W        W10894   4.227   3.097   2.180 -0.0302 -0.2124 -0.0707
 6831W        W10895   6.365   2.624   8.119  0.0157  0.0720 -0.1660
 6832W        W10896   8.492   5.380  10.102 -0.1456  0.0201 -0.0916
 6833W        W10897   9.957   6.631   2.068 -0.1110  0.1828 -0.0507
 6834W        W10898   1.418   7.947   8.484  0.1486 -0.1230  0.0211
 6835W        W10899  10.687   6.166   7.974  0.3191 -0.4118  0.0008
 6836W        W10900   0.148   1.884   8.424 -0.2388 -0.0325  0.1963
 6837W        W10901   2.814   8.437   1.831  0.1194 -0.0781 -0.1168
 6838W        W10902   8.150   1.936   0.154 -0.1270  0.2816 -0.3220
 6839W        W10903   6.947   9.464   0.742 -0.0055  0.1823  0.1535
 6840W        W10904   7.661   9.862   9.101 -0.0348 -0.0186  0.0269
 6841W        W10905   8.790   8.066   8.497 -0.0925  0.1005 -0.0575
 6842W        W10906   3.417   1.698   9.214  0.2546  0.0915  0.1906
 6843W        W10907   6.872   6.655   1.679 -0.0621  0.2658 -0.0504
 6844W        W10908   2.512   4.244   7.731 -0.1293  0.3780 -0.2479
 6845W        W10909   5.821   8.138   1.743 -0.2710 -0.1508  0.0812
 6846W        W10910   6.159   7.137   3.268 -0.2249 -0.0371  0.2722
 6847W        W10911   7.134   4.798   9.889 -0.1066 -0.1686  0.1085
 6848W        W10912  10.537   8.206  10.749 -0.0296  0.0001  0.0709
 6849W        W10913   5.661   9.902   7.711  0.0640 -0.3302 -0.1892
 6850W        W10914   8.250   5.390   7.543 -0.1583  0.1828 -0.2617
 6851W        W10915  10.676   0.989   2.119 -0.3030  0.0671 -0.1750
 6852W        W10916   0.801   1.665   8.214 -0.0822 -0.3878 -0.2986
 6853W        W10917   3.036   6.576  10.042 -0.3533  0.1243 -0.1327
 6854W        W10918   6.779   5.567  10.276  0.0313 -0.0314  0.2761
 6855W        W10919   4.023   1.647   2.431  0.0098  0.0069  0.1849
 6856W        W10920   9.733   7.980   8.708  0.4845  0.0789  0.4021
 6857W        W10921   1.866   2.497   7.916  0.1463  0.1312 -0.2369
 6858W        W10922   9.834   0.495  11.316  0.1484  0.0006  0.0747
 6859W        W10923   0.181   3.378  10.426  0.0113  0.2630  0.1869
 6860W        W10924   4.204   5.639   2.520 -0.5100 -0.0985 -0.4455
 6861W        W10925   1.436   6.340   3.482  0.0460  0.2160  0.0156
 6862W        W10926   4.609   8.672   1.882 -0.1516 -0.4124 -0.0234
 6863W        W10927   5.612   9.406   7.339  0.2247 -0.1785 -0.1622
 6864W        W10928   9.867   6.056   0.831 -0.2457  0.2254 -0.1067
 6865W        W10929   2.313  10.205   2.773  0.0719  0.0404  0.1209
 6866W        W10930   9.983   1.555   1.995 -0.3649 -0.3110  0.4062
 6867W        W10931  10.185   7.410   3.127 -0.1454  0.2353  0.0182
 6868W        W10932   2.813   3.968   0.486 -0.0783 -0.1971  0.0213
 6869W        W10933   2.844   5.110   1.559  0.2050  0.0745  0.1276
 6870W        W10934   4.957   6.471   8.239 -0.2467 -0.0549 -0.1871
 6871W        W10935   3.802   8.445   8.926 -0.1391 -0.0611 -0.2157
 6872W        W10936   5.075   6.338   0.633 -0.0503  0.0595 -0.0802
 6873W        W10937   5.558   5.355   1.993 -0.1026  0.3638 -0.1403
 6874W        W10938   8.126   0.717   8.982  0.1358 -0.1321 -0.1043
 6875W        W10939   3.677   2.071   8.437 -0.0796  0.1164 -0.0414
 6876W        W10940   2.475   7.793   1.804 -0.0008  0.1707 -0.1607
 6877W        W10941   1.470   9.198   2.849  0.3100 -0.2205 -0.2829
 6878W        W10942   2.367   3.488   8.718  0.1097  0.3111  0.1416
 6879W        W10943   0.031   1.625   9.537  0.1475  0.2980 -0.0215
 6880W        W10944   8.536   7.765  10.484 -0.2047  0.1901 -0.0578
 6881W        W10945   6.585   7.177  11.276 -0.0600  0.0618  0.0863
 6882W        W10946   1.527   5.679   9.120  0.4070  0.1856  0.3788
 6883W        W10947   4.428   8.533   2.859 -0.0322  0.1254  0.0166
 6884W        W10948   1.836   4.059   0.040 -0.0720 -0.0529 -0.2568
 6885W        W10949   3.525   4.487   1.975  0.1099 -0.0341 -0.1108
 6886W        W10950   6.907   9.243  10.426  0.3148 -0.3973  0.0806
 6887W        W10951   9.803   3.919   0.149 -0.0637  0.2708 -0.1292
 6888W        W10952   2.728   5.535   7.971 -0.2595  0.1967  0.1231
 6889W        W10953   1.045   1.865   9.634  0.1152 -0.4032  0.2978
 6890W        W10954   5.490   8.213   9.660  0.1618 -0.2411 -0.0258
 6891W        W10955   0.902   6.950   9.457 -0.2844  0.0453 -0.2471
 6892W        W10956   8.916   5.764   1.834  0.2901  0.1702 -0.3333
 6893W        W10957   2.147   3.771  11.007  0.4963 -0.0043 -0.0186
 6894W        W10958   7.510   4.583   8.517 -0.2157  0.1447 -0.0491
 6895W        W10959   1.218   7.893   2.601 -0.2392  0.0603  0.2325
 6896W        W10960   6.163   2.145   1.265 -0.0357 -0.2249  0.0393
 6897W        W10961   5.208   5.497   1.322 -0.1415  0.2373 -0.0955
 6898W        W10962   4.152   1.364   8.080  0.3041 -0.2731  0.0441
 6899W        W10963   2.771   4.304   9.396 -0.1774  0.2672  0.2057
 6900W        W10964   8.907   8.099   0.715 -0.0809 -0.3039 -0.2784
 6901W        W10965   6.896  10.543   8.594  0.1800  0.1591  0.0753
 6902W        W10966  10.079   3.050   8.127  0.2985 -0.0739  0.5951
 6903W        W10967   3.228   6.054   2.656 -0.0613  0.0690 -0.2010
 6904W        W10968   6.274   1.282   0.730 -0.0123 -0.1112 -0.1021
 6905W        W10969   6.914   1.808  11.107  0.1518  0.0260 -0.0868
 6906W        W10970   9.443   5.573   8.756  0.0157  0.1942  0.1057
 6907W        W10971   1.651   5.489   8.218 -0.0824 -0.0190 -0.1742
 6908W        W10972   7.483   2.585   9.727 -0.2167 -0.3906  0.0430
 6909W        W10973   8.836   1.897  10.681 -0.0293 -0.2546 -0.1391
 6910W        W10974   1.530   2.704   9.558 -0.2623  0.2060  0.1762
 6911W        W10975   7.370   9.869   8.721 -0.0398  0.0425 -0.0358
 6912W        W10976   5.893   1.158   9.652 -0.0863 -0.0407 -0.3375
 6913W        W10977  10.193   6.512   0.988  0.2262  0.1447  0.0188
 6914W        W10978   4.570   6.817   9.727 -0.0809  0.2380  0.0430
 6915W        W10979   0.994   1.356   0.113 -0.6473  0.0860 -0.1643
 6916W        W10980   5.184   5.921   3.872  0.0719 -0.1664 -0.1518
 6917W        W10981   5.667   7.100  10.632  0.1589 -0.0592  0.0335
 6918W        W10982   3.286   9.977   1.774 -0.1110  0.0050 -0.1849
 6919W        W10983   6.308   7.244   2.215  0.5641 -0.0609 -0.3520
 6920W        W10984   9.783   2.634  10.602  0.1038  0.2474  0.0025
 6921W        W10985   5.506   4.018   3.081  0.1717 -0.0111  0.1710
 6922W        W10986   7.749   5.905   1.744  0.1395 -0.1457  0.0682
 6923W        W10987   2.191   2.705  10.831  0.0920  0.0054 -0.1245
 6924W        W10988   7.573   7.512   9.711  0.1398  0.0489 -0.0309
 6925W        W10989   0.891   2.228   1.909 -0.2490 -0.1207  0.0752
 6926W        W10990   6.106   8.390  10.045 -0.3302 -0.1879 -0.0594
 6927W        W10991   3.939   6.157  10.084 -0.0250  0.1291  0.2447
 6928W        W10992   6.678   4.118  10.246 -0.2234 -0.3864 -0.2782
 6929W        W10993   2.327   0.640   9.665  0.0514  0.0888 -0.0598
 6930W        W10994   7.831   4.664   0.789 -0.3170 -0.0243  0.2235
 6931W        W10995   1.382   1.011   1.963 -0.1785  0.0634  0.0301
 6932W        W10996   7.625  10.425  10.995  0.1586 -0.0719  0.0245
 6933W        W10997   8.872   4.418  10.357  0.0294 -0.0086 -0.0547
 6934W        W10998  10.544   7.092  10.941 -0.2182 -0.1269 -0.1244
 6935W        W10999   2.930   8.244   0.217 -0.1505 -0.1687  0.0187
 6936W        W11000   1.917   9.296  10.974 -0.2060 -0.2165  0.0539
 6937W        W11001   5.716  10.060  10.817  0.0279 -0.3259 -0.0922
 6938W        W11002   9.621   9.486   1.636 -0.0279  0.1190 -0.1001
 6939W        W11003   4.566   3.149   1.135 -0.1873  0.0865  0.1030
 6940W        W11004   1.342   8.739   2.989  0.0536  0.1030  0.2207
 6941W        W11005   0.443   1.563   8.658 -0.1932 -0.2354  0.0215
 6942W        W11006   9.180   9.337   1.276  0.0330  0.1933  0.0268
 6943W        W11007   8.209   8.982   0.932  0.0102 -0.0200 -0.2103
 6944W        W11008   4.147   3.016   3.818  0.0597  0.1463 -0.1007
 6945W        W11009   9.182   9.032  11.039  0.2900  0.3050  0.3114
 6946W        W11010   9.751   5.835   9.647  0.0485 -0.1383 -0.0557
 6947W        W11011   9.033   1.852   2.366  0.1220 -0.1704 -0.1411
 6948W        W11012   4.158   6.984   2.983  0.5218 -0.2158 -0.1683
 6949W        W11013   8.896  10.585   8.020  0.0758  0.2065  0.1585
 6950W        W11014   8.732   2.139   4.680 -0.0180  0.1682 -0.1302
 6951W        W11015   5.194   9.911   2.113  0.0845 -0.2213  0.0904
 6952W        W11016   7.530   2.068   9.815  0.2409 -0.4861  0.1782
 6953W        W11017   9.683   6.902  10.318 -0.0463  0.4779  0.2299
 6954W        W11018   4.260   2.960   7.605 -0.0370 -0.0534 -0.2271
 6955W        W11019   8.811   9.707   0.405 -0.1500  0.0628 -0.3555
 6956W        W11020   2.514   5.939   1.285 -0.1986 -0.0537  0.2487
 6957W        W11021   2.560   6.583   7.275  0.0214 -0.1750 -0.0989
 6958W        W11022   7.896  10.296   2.469 -0.0737  0.1724  0.0763
 6959W        W11023   1.332   3.358   8.862  0.2291 -0.4910  0.0171
 6960W        W11024   2.441   3.844  10.532 -0.0644  0.0802 -0.3338
 6961W        W11025  10.656   7.239   0.696 -0.1369  0.0161 -0.2440
 6962W        W11026   2.136   6.672   2.771 -0.1780  0.1670 -0.0511
 6963W        W11027   1.501   6.230   9.990  0.1661 -0.1066  0.0351
 6964W        W11028   0.238   7.819   3.116  0.0730 -0.3063  0.0469
 6965W        W11029   5.589   2.696  11.096  0.1542 -0.2069  0.1508
 6966W        W11030   2.064   4.550  11.320  0.0374  0.0765  0.0517
 6967W        W11031   3.492   4.853   9.008  0.1183 -0.1402  0.2646
 6968W        W11032   4.850   6.598  11.301  0.0172 -0.2509  0.0658
 6969W        W11033   8.515   7.798   2.417 -0.0794 -0.0375 -0.0406
 6970W        W11034   9.351   0.772   0.300  0.1941  0.1462  0.2666
 6971W        W11035   0.723   0.882   3.567 -0.1145 -0.1489  0.2099
 6972W        W11036   2.231   3.934   8.586 -0.3301 -0.0919 -0.0753
 6973W        W11037   2.373   7.083   3.128  0.2399 -0.0510  0.0776
 6974W        W11038   2.134   6.818  10.012  0.5025  0.0993 -0.0675
 6975W        W11039   6.949   6.750   2.493  0.1051  0.0592  0.0465
 6976W        W11040   3.116   6.946   0.589  0.1984  0.1264  0.0537
 6977W        W11041   3.801   2.594   9.319  0.1359 -0.1557 -0.2482
 6978W        W11042   6.787   7.442   9.234  0.5950 -0.0162  0.2281
 6979W        W11043   9.607   1.957   2.069  0.2522 -0.0765  0.2136
 6980W        W11044  10.355   8.571  10.056  0.1254 -0.2429  0.1021
 6981W        W11045   2.705   4.755   7.794 -0.0218 -0.1012  0.0835
 6982W        W11046  10.247   8.683  10.559  0.0896  0.1634 -0.0129
 6983W        W11047   1.954   1.971  10.841 -0.0406 -0.0063 -0.2605
 6984W        W11048   5.986   6.796   8.436 -0.2880 -0.3208  0.0108
 6985W        W11049   6.089   8.130   2.585  0.1638  0.0453 -0.0646
 6986W        W11050   7.129  10.217  11.257 -0.1370  0.2144 -0.1357
 6987W        W11051   3.272   2.021   2.935 -0.1748 -0.0464 -0.0332
 6988W        W11052   6.587   8.347   7.958  0.1845  0.0925 -0.0074
 6989W        W11053   1.071   3.858  10.525 -0.1636 -0.0897 -0.0968
 6990W        W11054  10.277   3.386   1.688 -0.0719  0.0817  0.0575
 6991W        W11055   2.892   5.640   2.564 -0.0434 -0.1121 -0.0697
 6992W        W11056   2.168   4.604   7.907 -0.0810 -0.1609  0.0673
 6993W        W11057   7.690   6.200   2.156  0.1976 -0.0042 -0.2962
 6994W        W11058   2.028   6.304   8.632 -0.0087  0.1321  0.0991
 6995W        W11059   5.424   3.752   9.347 -0.2635  0.1714  0.1341
 6996W        W11060   5.277   1.916   8.532 -0.1143  0.1947  0.4944
 6997W        W11061   3.587   3.720   7.462 -0.1584 -0.4458  0.0743
 6998W        W11062   8.909   1.011   2.849 -0.0635  0.0494  0.1519
 6999W        W11063  10.358   6.235  10.258 -0.0882 -0.2058  0.3828
 7000W        W11064   9.506   7.074  11.275  0.0319 -0.1543  0.4043
 7001W        W11065   4.690   0.382   0.361 -0.0930 -0.0342  0.2109
 7002W        W11066   3.094  10.376   0.889 -0.0578 -0.2621  0.0827
 7003W        W11067   4.413   5.937  10.328  0.0372 -0.0638 -0.1879
 7004W        W11068   2.397   7.926   7.904  0.0478  0.1282  0.1883
 7005W        W11069   7.183  10.450  10.778 -0.0129  0.1939  0.0875
 7006W        W11070   3.519   6.172  10.841  0.1272 -0.0759  0.1613
 7007W        W11071   5.695   0.945   3.387 -0.1290  0.2497 -0.0366
 7008W        W11072   4.265   4.671   9.064  0.3028 -0.2435  0.1794
 7009W        W11073   3.232   1.273   0.042  0.2966  0.2488 -0.2224
 7010W        W11074   2.841   4.131  11.232  0.2208  0.1873 -0.3065
 7011W        W11075   8.429  10.387   0.731 -0.1889 -0.1010 -0.2681
 7012W        W11076   6.237   3.159  11.210  0.0065 -0.0483 -0.0789
 7013W        W11077   2.637   6.037   9.651  0.1570  0.3094  0.1784
 7014W        W11078   8.508   9.096   3.154  0.3357 -0.2958 -0.3119
 7015W        W11079   2.881   6.638   7.910 -0.2772 -0.1524  0.1299
 7016W        W11080   2.452   7.532   3.366  0.0863  0.2867 -0.1356
 7017W        W11081   1.804   9.591   9.217 -0.0542 -0.3586  0.3373
 7018W        W11082   1.989   7.713   1.741 -0.0790  0.2642 -0.1883
 7019W        W11083   9.230   4.462  10.691  0.1591  0.4396 -0.3511
 7020W        W11084   7.835   3.249   9.592  0.4004 -0.3176  0.0200
 7021W        W11085   6.991   2.754   9.676 -0.1934  0.0771 -0.2244
 7022W        W11086   7.238   1.763  10.259  0.1257  0.1771  0.0566
 7023W        W11087   0.516   6.606  10.387 -0.1556  0.2211 -0.0724
 7024W        W11088   9.221   6.624   7.825  0.0457  0.2028 -0.1991
 7025W        W11089   6.273   0.264   9.586  0.1836  0.1451  0.1651
 7026W        W11090   7.486   4.181   1.179  0.1002  0.1574  0.0963
 7027W        W11091   8.389   7.741   9.209 -0.0610 -0.0899 -0.0472
 7028W        W11092   9.761   5.845   8.982  0.0246 -0.1934  0.1571
 7029W        W11093   6.585   2.331  10.371  0.2840 -0.0684 -0.1523
 7030W        W11094   2.748   2.322   7.816 -0.1963 -0.3648  0.0581
 7031W        W11095   8.628   3.252   1.040  0.2736  0.1586  0.0774
 7032W        W11096   7.261  10.636   1.845 -0.2559  0.3196 -0.0390
 7033W        W11097   7.946   6.169   0.794  0.0236 -0.0020  0.2366
 7034W        W11098   3.454   6.260   3.405 -0.0367 -0.0833 -0.2508
 7035W        W11099   2.755   0.634  10.395  0.0398 -0.0919 -0.1902
 7036W        W11100   6.904   4.110   1.204  0.0146 -0.2785  0.0784
 7037W        W11101   0.415   1.030   1.917 -0.0516 -0.2319  0.0317
 7038W        W11102   5.618   2.578  10.574 -0.1738  0.0726 -0.0048
 7039W        W11103   4.111   9.886   1.634 -0.1555 -0.0801 -0.0786
 7040W        W11104   3.930   3.318   2.551  0.2099 -0.0788 -0.2238
 7041W        W11105   2.546   4.881   8.707  0.3923 -0.0427  0.1194
 7042W        W11106   5.375   3.496   2.998 -0.1960 -0.0175 -0.4158
 7043W        W11107   3.332   1.836   3.950 -0.0895 -0.1708  0.0380
 7044W        W11108   5.055  10.504   1.688 -0.3264  0.1289  0.1654
 7045W        W11109   4.215   6.094   3.042  0.1491 -0.2797  0.0711
 7046W        W11110   1.521   5.632   2.790  0.0606 -0.1973  0.1712
 7047W        W11111   1.162   4.628  10.221 -0.2780  0.2092  0.1979
 7048W        W11112   7.322   6.773  10.855 -0.2138  0.1267  0.0884
 7049W        W11113   9.866  10.261   3.218 -0.2133 -0.0307  0.3160
 7050W        W11114   5.423  10.368   3.114 -0.2922  0.0357  0.0167
 7051W        W11115  10.289   8.312   2.071 -0.1544 -0.0099 -0.2528
 7052W        W11116   8.786   7.377  10.726 -0.0771 -0.3592  0.3343
 7053W        W11117   7.898   4.726  10.316  0.1202  0.2952  0.0618
 7054W        W11118   4.467   9.273   9.750 -0.0854  0.3582  0.2085
 7055W        W11119   0.436   8.722   1.953  0.0666  0.0080 -0.2008
 7056W        W11120   2.691   7.393   2.819 -0.0124  0.0023  0.0552
 7057W        W11121   5.404   4.631  10.663  0.0819  0.0589  0.2799
 7058W        W11122   5.874   3.960   1.696  0.4242  0.0392 -0.1873
 7059W        W11123   6.297   4.233   0.805  0.2622 -0.0505  0.0013
 7060W        W11124  10.400   8.118  10.234  0.2258  0.0350  0.2612
 7061W        W11125   2.023   9.521   1.989  0.1541  0.0937  0.1011
 7062W        W11126   5.241   8.934  10.633  0.2038  0.0974 -0.2857
 7063W        W11127   6.070   6.639   9.910  0.1389 -0.0088 -0.0641
 7064W        W11128   3.918   3.453  10.812 -0.0871  0.2921  0.0021
 7065W        W11129   1.145   1.464   2.389 -0.1504  0.1371  0.2819
 7066W        W11130   4.786   4.747   8.374  0.1282 -0.0378 -0.2362
 7067W        W11131   3.143   4.809   6.935 -0.2272  0.0002  0.0807
 7068W        W11132   5.300  10.335  11.163 -0.0928  0.0662 -0.0371
 7069W        W11133   2.649   7.525   8.696 -0.0853 -0.1311 -0.0173
 7070W        W11134   9.346   6.915   8.673  0.0449 -0.4411 -0.0359
 7071W        W11135   7.655  10.682   2.918  0.0751 -0.0116  0.1323
 7072W        W11136   6.779   5.834   2.170 -0.0520  0.1911 -0.1938
 7073W        W11137   9.695   3.910   8.720  0.0216 -0.1133 -0.2269
 7074W        W11138   1.471   0.842   1.041 -0.1008  0.1013 -0.0856
 7075W        W11139   8.062   5.263   2.548 -0.2271  0.1267  0.2842
 7076W        W11140   9.087   6.879   0.196 -0.2466  0.0899  0.1494
 7077W        W11141   7.670   7.989  10.064 -0.0371  0.2685 -0.1335
 7078W        W11142   4.044   9.425   9.998 -0.0627  0.0501  0.1927
 7079W        W11143  10.692   7.757   0.747 -0.1129 -0.1013 -0.0487
 7080W        W11144   1.155   3.243   0.675 -0.1751  0.0218 -0.2564
 7081W        W11145   0.743   9.192   0.584  0.1901  0.2325 -0.1547
 7082W        W11146   0.351   7.103   1.161  0.1882  0.0071  0.0703
 7083W        W11147   1.832   8.376   2.837 -0.0076  0.5549 -0.0004
 7084W        W11148   1.633   4.082   1.432 -0.0843 -0.2235  0.3823
 7085W        W11149   8.781   6.866  10.556  0.0132  0.0820  0.0168
 7086W        W11150   1.453   1.244   0.168 -0.1278  0.3657  0.2153
 7087W        W11151   6.180   9.415   2.429 -0.1038  0.0512  0.1141
 7088W        W11152   1.630   5.416   2.316 -0.0237 -0.1120 -0.2065
 7089W        W11153   6.594   7.119   0.464  0.0937 -0.1705  0.2137
 7090W        W11154   4.143   0.469   8.162 -0.1199  0.1254  0.0780
 7091W        W11155   9.339   7.035   3.303 -0.1293 -0.0049 -0.2822
 7092W        W11156   3.269   9.276  10.428  0.1146  0.2136  0.0435
 7093W        W11157   5.025   5.139  10.656 -0.5020  0.0169 -0.0401
 7094W        W11158   2.604   5.915   3.798  0.2603  0.1195 -0.0381
 7095W        W11159   0.417   5.662   2.632 -0.0223  0.0168  0.1405
 7096W        W11160   9.533  10.556   4.462  0.0055 -0.0801  0.2993
 7097W        W11161   5.760   0.186   1.309  0.3752  0.0517  0.2755
 7098W        W11162   9.209  10.749   8.546 -0.0469 -0.1450  0.0921
 7099W        W11163   6.162   8.777   7.263 -0.0333  0.0941 -0.0920
 7100W        W11164   4.683   9.646   0.281 -0.2611 -0.1434  0.0588
 7101W        W11165   3.291   0.041   2.312  0.2723 -0.0442  0.2285
 7102W        W11166   6.063  10.501   8.294 -0.2845  0.1628 -0.1231
 7103W        W11167   0.553   3.049  10.505  0.4211  0.1588  0.2076
 7104W        W11168   1.706   1.488   2.952 -0.1309  0.2014 -0.0889
 7105W        W11169  10.247   0.751   2.269  0.0482 -0.2068  0.1529
 7106W        W11170   4.071   1.376   9.210  0.2715  0.0074 -0.1245
 7107W        W11171   3.325   0.897   9.516  0.2828 -0.0786  0.1344
 7108W        W11172   5.061   4.939   9.594  0.0856  0.0537 -0.0612
 7109W        W11173   0.658   6.982   1.740  0.3036  0.2565  0.0425
 7110W        W11174   1.372   1.237   8.657 -0.0702 -0.0919  0.1576
 7111W        W11175   8.770   0.157   3.939 -0.1848 -0.0502 -0.0185
 7112W        W11176   5.054   4.549  10.024  0.1224 -0.2313  0.0148
 7113W        W11177   7.952   5.728   7.784  0.0436  0.0143 -0.1760
 7114W        W11178   9.400   8.345   3.808  0.0321 -0.2275 -0.0533
 7115W        W11179   3.509   1.626   7.790 -0.0592 -0.3215  0.3933
 7116W        W11180   6.654   2.092   9.623 -0.0096  0.0606 -0.0111
 7117W        W11181   6.798   4.224   7.990  0.0168 -0.0706 -0.1279
 7118W        W11182   8.113   8.048   2.928  0.2126 -0.1318  0.1098
 7119W        W11183   9.265   0.932   9.002 -0.0461 -0.3252  0.0289
 7120W        W11184   3.429   9.439  10.897 -0.2638  0.0232  0.3136
 7121W        W11185   5.722   9.972   1.039 -0.0920  0.0088 -0.0461
 7122W        W11186   7.918   5.686  10.743 -0.0185 -0.3623  0.1128
 7123W        W11187   8.756   0.111   2.472 -0.1887 -0.1102 -0.0873
 7124W        W11188   3.645   8.232   3.440  0.1111 -0.0734  0.0303
 7125W        W11189   0.882   7.290   0.976 -0.2328 -0.0440 -0.0650
 7126W        W11190   4.834   8.145   1.924  0.4593  0.2178  0.0736
 7127W        W11191   5.137   6.369   3.517  0.0035 -0.2151 -0.2615
 7128W        W11192   6.508   9.431  11.048 -0.3778  0.1734  0.2866
 7129W        W11193   7.612   3.192   8.937  0.0752 -0.1512 -0.1003
 7130W        W11194   9.821   3.124   2.831  0.2572  0.1189  0.0772
 7131W        W11195   8.919   5.290   1.051  0.1687  0.1172 -0.2171
 7132W        W11196   4.518   8.261   1.460  0.0168 -0.2033 -0.1617
 7133W        W11197   0.765   9.864   2.536 -0.0736  0.1263  0.2122
 7134W        W11198   2.858   0.896   1.935  0.1943 -0.1647  0.0633
 7135W        W11199  10.709   1.492  10.955 -0.0929 -0.1750  0.0467
 7136W        W11200   1.164   7.870   3.539 -0.0890  0.2881  0.0854
 7137W        W11201   6.039   3.547   0.760 -0.3145 -0.0429 -0.1527
 7138W        W11202   8.668   8.646  10.225 -0.3467  0.2845  0.0553
 7139W        W11203   1.507   4.083   1.970 -0.0675 -0.0703  0.0307
 7140W        W11204   3.364   7.183   9.396 -0.1068  0.0031 -0.0026
 7141W        W11205   9.948  10.417   1.962 -0.1869  0.1762  0.1830
 7142W        W11206   3.318   8.563   9.414  0.0547 -0.0400 -0.0924
 7143W        W11207   8.944   5.192   8.603 -0.2418  0.1183  0.0083
 7144W        W11208   1.708   0.028  10.537 -0.1482 -0.1799  0.2818
 7145W        W11209   1.577   7.968  11.321  0.3450 -0.0660  0.0178
 7146W        W11210   9.925   4.967   1.546 -0.1148 -0.0555 -0.0305
 7147W        W11211   6.839   2.164   0.239  0.0066  0.2155 -0.0500
 7148W        W11212  10.306   1.103   8.113  0.3209  0.0664 -0.1147
 7149W        W11213   9.354   3.751   1.040 -0.0653  0.2346  0.1637
 7150W        W11214   2.971   6.484   1.566 -0.0315 -0.1019 -0.0811
 7151W        W11215   3.024   7.465   8.299  0.2733  0.3916 -0.0519
 7152W        W11216   8.949   5.084   9.932  0.2702 -0.0540  0.0016
 7153W        W11217   0.767   0.428   7.417 -0.1545 -0.0463  0.1396
 7154W        W11218   3.551   7.858   8.855 -0.1565  0.0746 -0.3729
 7155W        W11219   9.238   5.266  10.277  0.1215 -0.3519  0.1832
 7156W        W11220   1.999   6.540  11.274 -0.0229  0.2222  0.1287
 7157W        W11221   0.371   2.065  10.568 -0.0136  0.0671 -0.3253
 7158W        W11222   7.576   1.069   3.839 -0.2802  0.1317  0.2173
 7159W        W11223   4.795   5.089   3.475  0.1884 -0.1576 -0.0865
 7160W        W11224   6.051   8.736   1.090  0.1375 -0.0388  0.3369
 7161W        W11225   7.864   8.136   1.922 -0.1411 -0.0356 -0.1537
 7162W        W11226   0.748   7.364   8.520  0.2562  0.0912 -0.2753
 7163W        W11227   9.308   7.455   8.233 -0.0484  0.3832 -0.0361
 7164W        W11228   7.930   0.177   1.243  0.0243 -0.1739  0.0332
 7165W        W11229   8.592   6.234   4.057 -0.1142  0.1742  0.3182
 7166W        W11230   1.721   9.005   2.134  0.2086 -0.1346  0.0578
 7167W        W11231   0.272  10.217   2.502  0.0195  0.1947  0.5064
 7168W        W11232   2.057   4.244   0.476 -0.1791  0.0237  0.2362
 7169W        W11233   5.459   1.183   9.375 -0.4025  0.0621 -0.1415
 7170W        W11234   2.373   1.758   8.418  0.1257 -0.1712  0.1596
 7171W        W11235   2.718   0.981   9.554 -0.2529 -0.1841  0.0796
 7172W        W11236   2.678   8.684  10.192  0.1337 -0.1821 -0.1645
 7173W        W11237   0.865   1.172   1.752  0.0095 -0.0127 -0.3168
 7174W        W11238   9.212   6.967  10.440  0.0953  0.1590 -0.2340
 7175W        W11239   0.867   1.227  10.948 -0.0318  0.1422  0.2104
 7176W        W11240   0.699   0.665   2.719  0.1425 -0.2308  0.2504
 7177W        W11241   1.789   7.116   2.331 -0.1031 -0.1388  0.0533
 7178W        W11242   7.952  10.354   8.021 -0.0713 -0.0555 -0.0224
 7179W        W11243   4.404   3.214   9.239  0.1758 -0.0072 -0.1868
 7180W        W11244   4.321   0.176   1.805 -0.3606  0.1006 -0.1244
 7181W        W11245   5.778   6.303   3.233  0.0483  0.1920 -0.2002
 7182W        W11246   5.968   6.129   0.985 -0.1945  0.0648 -0.0227
 7183W        W11247   1.763   7.931   2.558 -0.2232 -0.1961 -0.2056
 7184W        W11248   2.285   9.501   0.964  0.2618 -0.0652  0.0899
 7185W        W11249   6.248   1.062   3.437 -0.1226  0.1166  0.3111
 7186W        W11250   1.595   3.487   7.721 -0.1842  0.0802 -0.0649
 7187W        W11251   7.212   2.637   1.048 -0.1940  0.1089  0.0354
 7188W        W11252   0.458  10.330   0.455 -0.0561 -0.0827  0.2882
 7189W        W11253   8.077   1.157   8.665  0.3076  0.1506 -0.0364
 7190W        W11254   5.999   5.453   2.281 -0.0693 -0.0779 -0.3626
 7191W        W11255   7.955   9.268  11.317  0.1418 -0.1391 -0.0770
 7192W        W11256   1.329   0.326  10.735  0.0450 -0.0470  0.0092
 7193W        W11257   1.618   5.216  10.317 -0.1225  0.1252 -0.1769
 7194W        W11258   1.421   0.077   2.072 -0.1205  0.0885 -0.0698
 7195W        W11259   3.214   9.804  11.144 -0.2682 -0.1193 -0.1598
 7196W        W11260   8.244   8.238   8.449  0.0682  0.1886  0.0503
 7197W        W11261   2.089   3.388   2.146 -0.0066 -0.1272  0.2911
 7198W        W11262   2.450   8.416   2.180 -0.2413 -0.3550  0.1854
 7199W        W11263   4.781   7.420   0.297  0.2717 -0.0822 -0.1031
 7200W        W11264   8.293   1.893   0.619  0.1554  0.2384  0.1504
 7201W        W11265   9.731   6.313  11.067 -0.1926  0.1469  0.0643
 7202W        W11266   4.204   6.729   9.250 -0.2579  0.1478 -0.2441
 7203W        W11267   1.522   1.299   9.445 -0.1988 -0.2079  0.1875
 7204W        W11268   3.308   5.844   3.139 -0.0004 -0.1949 -0.2569
 7205W        W11269   0.770   4.380   9.189 -0.0639  0.2187  0.3540
 7206W        W11270   3.127  10.486   9.912 -0.1975 -0.0734  0.2208
 7207W        W11271   7.493   7.575   8.403  0.1674  0.2711 -0.1873
 7208W        W11272   1.274   9.673   3.649 -0.0640  0.3464  0.1294
 7209W        W11273   5.671   2.216   1.841  0.2227 -0.1621 -0.1164
 7210W        W11274   3.449   1.013   1.248 -0.2594  0.2210 -0.1497
 7211W        W11275   0.620   4.450   3.637  0.0897  0.2951 -0.1643
 7212W        W11276   8.977   8.789   9.838  0.1446 -0.0003 -0.1668
 7213W        W11277   4.890   3.931   1.931  0.0154 -0.1036 -0.0157
 7214W        W11278   2.588   1.845   7.971  0.0044 -0.1187 -0.1237
 7215W        W11279   4.997   6.642   1.242 -0.0643 -0.0958  0.0874
 7216W        W11280   3.046   2.979   8.856  0.2307 -0.0070  0.0536
 7217W        W11281   1.817   6.714   1.915 -0.0998 -0.1859 -0.1396
 7218W        W11282   6.731   4.502  11.059 -0.0734 -0.2039  0.0302
 7219W        W11283   5.719   6.021   0.127 -0.0374  0.2955 -0.1860
 7220W        W11284   1.297   1.444   1.732 -0.2730 -0.2412 -0.2808
 7221W        W11285   3.178   2.819  10.598 -0.1610  0.2424  0.0836
 7222W        W11286  10.347  10.548  10.072  0.1374 -0.1785  0.0079
 7223W        W11287   9.740   5.439  10.363 -0.1623 -0.1439 -0.0238
 7224W        W11288   1.637   6.076   8.145  0.1661 -0.0729  0.1898
 7225W        W11289   6.345   2.228   0.532 -0.0579  0.3885  0.0087
 7226W        W11290   7.397   4.961   3.092 -0.0921 -0.0611  0.0066
 7227W        W11291   3.598   9.918  10.815 -0.2160 -0.0731  0.2175
 7228W        W11292  10.044   0.175   2.392  0.0570 -0.2179  0.0766
 7229W        W11293  10.658   0.569   3.061  0.0937 -0.0947 -0.1822
 7230W        W11294   2.630   7.179  10.791  0.0163  0.1432 -0.1218
 7231W        W11295   8.375   9.588   9.798 -0.1338 -0.3163 -0.1464
 7232W        W11296   6.857   0.686   1.148  0.3205  0.1930  0.0565
 7233W        W11297  10.415   2.117   0.719  0.0228 -0.1245 -0.1396
 7234W        W11298   0.372   8.202   8.701 -0.0233  0.0688 -0.2943
 7235W        W11299   9.759  10.146  10.762  0.0870  0.0493 -0.0812
 7236W        W11300   7.031   6.810   9.920 -0.2438 -0.1082 -0.2082
 7237W        W11301   0.421   3.150   0.186 -0.0688  0.0285 -0.1008
 7238W        W11302   0.909   0.455   3.310 -0.0200 -0.0427 -0.0331
 7239W        W11303   9.357   7.979   0.590  0.1904  0.0789 -0.2090
 7240W        W11304   0.254   3.600   0.260 -0.0049  0.2324  0.1218
 7241W        W11305   7.226   4.527  10.845 -0.1464 -0.0191 -0.1913
 7242W        W11306  10.219   1.730   1.597 -0.4469  0.1179  0.1130
 7243W        W11307  10.268   9.114   1.748  0.1188 -0.2189 -0.0046
 7244W        W11308   6.914   1.732   1.101  0.3689 -0.0407 -0.0762
 7245W        W11309   1.047   9.915   8.477 -0.1146  0.3519  0.1988
 7246W        W11310   5.632   9.098  10.005 -0.0130 -0.0431  0.0721
 7247W        W11311   2.668   0.390   9.342 -0.0075  0.2862  0.3430
 7248W        W11312   7.739   3.707   0.915  0.2039 -0.2090  0.0167
 7249W        W11313   5.873   9.313   1.962  0.1114 -0.0909 -0.2062
 7250W        W11314   5.761   1.201   8.945  0.1060 -0.0706 -0.1229
 7251W        W11315   5.509   7.980  10.963 -0.1211  0.0010  0.0623
 7252W        W11316   8.660   4.852  10.284  0.2973  0.0945 -0.2576
 7253W        W11317   9.096   2.814   2.511 -0.0797 -0.2041 -0.1151
 7254W        W11318   2.654   6.649   0.582 -0.1822  0.3741  0.0411
 7255W        W11319   4.768   1.819   3.139  0.1530  0.1303 -0.2885
 7256W        W11320   3.860   0.682   0.027 -0.0645  0.1674 -0.2501
 7257W        W11321   0.005   4.503   8.187  0.0329 -0.1224  0.3447
 7258W        W11322   5.479   2.181   7.676 -0.0239 -0.1343 -0.0612
 7259W        W11323   6.120   6.288  11.257 -0.2742  0.2976  0.1992
 7260W        W11324   9.720   5.387   2.807 -0.1282 -0.0268 -0.0502
 7261W        W11325   0.023   9.944   9.233  0.0253  0.2193 -0.0268
 7262W        W11326   2.570   7.400   9.179 -0.0788 -0.0497 -0.0330
 7263W        W11327   7.298   8.311  10.799  0.0252 -0.0936 -0.2678
 7264W        W11328   5.229   4.059   8.167 -0.2782 -0.1948 -0.1441
 7265W        W11329  10.328   1.776  11.185 -0.3796 -0.2169  0.0747
 7266W        W11330   9.258   9.544   8.057 -0.3849  0.1784 -0.0643
 7267W        W11331   4.179   2.183   3.877  0.3260  0.1934 -0.1701
 7268W        W11332   5.130   1.512   2.240 -0.0016  0.0097  0.0752
 7269W        W11333   3.727   2.108   4.193  0.1060  0.3353 -0.3390
 7270W        W11334   6.386   8.301   1.010  0.1528 -0.0342 -0.3518
 7271W        W11335   5.350   4.548   8.206  0.1352  0.1561 -0.0605
 7272W        W11336   2.608   3.449  10.181  0.1227  0.0374 -0.3746
 7273W        W11337   6.771   5.987   9.469  0.0176  0.0022  0.0230
 7274W        W11338   7.232   8.622   1.308 -0.3139 -0.1135  0.1772
 7275W        W11339   6.605   1.102   9.035 -0.2672 -0.0857 -0.0619
 7276W        W11340   1.694   9.681   9.793 -0.1943  0.3656  0.0187
 7277W        W11341   5.030  10.225   3.860  0.0652  0.0020  0.1086
 7278W        W11342   8.848   0.740   2.021  0.3608  0.0033 -0.1098
 7279W        W11343   0.447   0.823   0.939 -0.1165 -0.0817  0.3417
 7280W        W11344   4.554   9.243  10.827  0.2752  0.0755 -0.1330
 7281W        W11345   7.364   1.670   3.274  0.3496 -0.0894  0.2198
 7282W        W11346   5.316   9.502   3.390  0.0143 -0.1513 -0.2315
 7283W        W11347  10.600   9.787   2.666 -0.3037 -0.3697 -0.0951
 7284W        W11348   0.373   3.578   1.613  0.2057 -0.1315 -0.1748
 7285W        W11349   2.911   7.251   0.141  0.0574  0.0204 -0.2707
 7286W        W11350   1.074   0.128  11.172 -0.2710  0.1305 -0.1327
 7287W        W11351   9.510   4.723   8.429  0.4243 -0.0665 -0.1274
 7288W        W11352   3.811   6.637   1.972  0.0746  0.0881  0.1233
 7289W        W11353   6.962   8.229   9.911  0.0670 -0.1368  0.2564
 7290W        W11354   5.475   4.231   2.580 -0.2531 -0.1732 -0.0697
 7291W        W11355   7.286   1.322   1.155 -0.0916  0.0603 -0.2000
 7292W        W11356   5.742  10.316   0.665 -0.1074  0.0122 -0.1197
 7293W        W11357   1.340   3.865   8.129  0.2348 -0.0901  0.0363
 7294W        W11358  10.149   6.767   9.628  0.1585  0.2212 -0.2069
 7295W        W11359   3.768   4.059   3.039 -0.1518 -0.0227 -0.1688
 7296W        W11360   6.496   3.031   9.678  0.0444 -0.3938  0.0505
 7297W        W11361   0.991   7.460   1.932 -0.1471  0.0927 -0.0941
 7298W        W11362  10.673   2.763   7.919  0.2447  0.1035 -0.0828
 7299W        W11363   0.252   5.138  10.390  0.1331  0.0865  0.2026
 7300W        W11364   3.218   9.049   9.661  0.0239  0.0076 -0.1916
 7301W        W11365   1.947   3.538   0.915 -0.0974 -0.1818 -0.0819
 7302W        W11366  10.128   4.599   8.932  0.2282 -0.0735  0.2273
 7303W        W11367   7.769   4.414   2.070 -0.0468 -0.0063 -0.1173
 7304W        W11368   5.406   1.552  10.350 -0.1256 -0.1223 -0.0069
 7305W        W11369   4.173   8.326  10.565  0.2334  0.0474  0.0319
 7306W        W11370   4.938   6.452   9.794  0.1397 -0.1344  0.0307
 7307W        W11371   5.659   9.451   0.949  0.3116 -0.3492  0.2586
 7308W        W11372   8.276   1.112   1.767  0.2158  0.4852 -0.1115
 7309W        W11373   5.799  10.694  10.968  0.4517  0.3635  0.0251
 7310W        W11374   3.945   9.202   8.124  0.1989  0.2163  0.0549
 7311W        W11375   2.615   1.992   0.466 -0.1869 -0.2425 -0.1717
 7312W        W11376   6.195   4.821   9.871 -0.1440 -0.1263  0.2181
 7313ION    NA+11377   5.935   8.911  11.005 -0.0213  0.0427  0.2231
 7314ION    NA+11378   2.590   0.912   1.483  0.1065  0.0017  0.0161
 7315ION    NA+11379   1.230   0.726   7.345 -0.1001  0.3030  0.0538
 7316ION    NA+11380  10.080   6.687   7.593  0.1960  0.0646  0.0707
 7317ION    NA+11381   9.016   8.598   0.645  0.1309 -0.0806 -0.0403
 7318ION    NA+11382   1.025   5.766   9.968 -0.0763  0.3895  0.3599
 7319ION    NA+11383   7.124   7.136   1.355  0.1728 -0.2530  0.0640
 7320ION    NA+11384   4.034   2.809   1.798 -0.0464  0.2489  0.1278
 7321ION    NA+11385  10.677   2.019  10.408 -0.2162  0.1877  0.0491
 7322ION    NA+11386   7.455   6.790   0.589  0.3104 -0.2795 -0.1765
 7323ION    NA+11387   8.193   4.945   9.354 -0.3151 -0.0459  0.1994
 7324ION    NA+11388   9.680   4.159   2.549  0.3100  0.1425 -0.1514
 7325ION    NA+11389   5.686   8.546   2.093  0.0792  0.2550 -0.1284
 7326ION    NA+11390   9.043   5.125   3.689  0.0516  0.0002  0.2082
 7327ION    NA+11391   4.645   5.353   2.027  0.4373  0.1584 -0.3208
 7328ION    NA+11392  10.032   2.808   2.418  0.6328  0.0418  0.0658
 7329ION    NA+11393   5.134   3.589  11.234  0.2975 -0.0464  0.0067
 7330ION    NA+11394   4.958   6.313   1.568 -0.1970 -0.0682 -0.1154
 7331ION    NA+11395   6.362   9.055   2.716  0.2614 -0.0747  0.1788
 7332ION    NA+11396   6.305   1.510   8.309 -0.1167 -0.2194  0.3380
 7333ION    NA+11397  10.584   7.374   7.709 -0.0410 -0.1151  0.0754
 7334ION    NA+11398   3.345   5.725   9.854  0.4026 -0.1746  0.3397
 7335ION    NA+11399   5.013   4.503  10.948 -0.3733 -0.0599 -0.0159
 7336ION    NA+11400   9.132   0.103   1.803  0.1348 -0.2476 -0.1730
 7337ION    NA+11401   6.702   7.271   7.709  0.0176 -0.1472 -0.0251
 7338ION    NA+11402   8.175   6.884   2.273 -0.0331 -0.0607  0.0008
 7339ION    NA+11403   2.883   7.214   9.541  0.4274 -0.1519  0.3328
 7340ION    NA+11404   7.141   3.898  10.276 -0.0759  0.0182  0.3030
 7341ION    NA+11405  10.215   7.899   0.720 -0.0609  0.1137  0.3147
 7342ION    NA+11406   5.879   9.858   9.478  0.3163  0.0130  0.0007
 7343ION    NA+11407   9.175   5.815   0.643 -0.0647 -0.0446  0.0941
 7344ION    NA+11408   1.340   0.268   0.831 -0.1362  0.0508 -0.1226
 7345ION    NA+11409   3.438   0.699   1.689  0.1707 -0.3405  0.0257
 7346ION    NA+11410   8.800   5.218   9.390 -0.1243 -0.2864 -0.0485
 7347ION    NA+11411   0.419   9.249   8.686 -0.0092  0.0480 -0.0908
 7348ION    NA+11412   4.261   5.070   7.362 -0.2414  0.1982  0.0406
 7349ION    NA+11413   1.293   3.265   2.552 -0.0330 -0.1376  0.0561
 7350ION    NA+11414   1.567   1.458  10.112 -0.2833 -0.1034  0.0280
 7351ION    NA+11415   0.046   8.718   7.828 -0.0126  0.0124  0.0469
 7352ION    NA+11416  10.604   7.841   2.126  0.2150  0.1517  0.2503
 7353ION    NA+11417   9.634   2.141   2.962 -0.3633  0.2885 -0.2140
 7354ION    NA+11418   3.918   0.930   8.947  0.0048  0.0081 -0.1295
 7355ION    NA+11419   1.331   2.337  10.538 -0.0046 -0.0895  0.1696
 7356ION    NA+11420   2.167   0.057   0.248  0.0403  0.0916  0.0293
 7357ION    NA+11421   7.480   5.758   0.014 -0.1722  0.1436  0.1938
 7358ION    NA+11422   9.911   2.390   0.675 -0.3359 -0.1377  0.0047
 7359ION    NA+11423   8.939  10.073   2.113 -0.0405  0.2480 -0.1325
 7360ION    NA+11424   4.581   7.207   9.428  0.0941 -0.1349  0.0035
 7361ION    NA+11425   1.624   8.897   4.095 -0.0213  0.0408 -0.1786
 7362ION    NA+11426   8.374   5.909  11.058  0.0228  0.0414 -0.2868
 7363ION    NA+11427   7.139   5.319   3.436 -0.1351 -0.2233  0.0571
 7364ION    NA+11428   3.317   8.656   2.036  0.0267  0.0625  0.0676
 7365ION    NA+11429   4.231   4.123   0.118 -0.1444 -0.3302  0.2146
 7366ION    NA+11430  10.518   9.449   9.398 -0.3982 -0.3182  0.1005
 7367ION    NA+11431   0.287   3.445   7.393  0.0289 -0.0703  0.2665
 7368ION    NA+11432   8.611   9.276  10.969  0.1519  0.6727 -0.0764
 7369ION    NA+11433   1.031   1.596   0.566  0.1121  0.3939 -0.0661
 7370ION    NA+11434   0.896   2.146   1.386  0.0669 -0.1953 -0.0768
 7371ION    NA+11435   1.847   2.164   3.692 -0.1833 -0.0836  0.0343
 7372ION    NA+11436   1.550   8.605   9.949 -0.1475 -0.0251  0.1048
 7373ION    NA+11437   1.867   2.938  11.154 -0.1117 -0.1938  0.0380
 7374ION    NA+11438   9.194   0.811   2.487 -0.1814  0.0911 -0.1389
 7375ION    NA+11439   3.513   4.171   1.070  0.0036 -0.0635 -0.0318
 7376ION    NA+11440   1.562   1.030   9.059  0.2759  0.1644  0.4728
 7377ION    NA+11441   0.197  10.643   0.762  0.1706 -0.0014  0.0861
 7378ION    NA+11442   8.894   3.658   3.469 -0.3484  0.3624  0.2777
 7379ION    NA+11443   7.832   9.388   7.618  0.0655 -0.0723 -0.3818
 7380ION    NA+11444   2.277   2.649   2.358 -0.0934 -0.0934 -0.1033
 7381ION    NA+11445   5.738   4.186   3.465 -0.1187 -0.2743  0.1398
 7382ION    NA+11446   5.948   8.414   2.983 -0.0631 -0.1459 -0.0001
 7383ION    NA+11447   4.054   0.006  10.430  0.0847  0.1381 -0.1726
 7384ION    NA+11448   5.420   6.774   3.919 -0.1621 -0.2279 -0.1469
 7385ION    NA+11449   5.009   8.201   1.441  0.2848  0.3848 -0.0800
 7386ION    NA+11450   1.525   5.872   1.007 -0.1829 -0.1925 -0.0017
 7387ION    NA+11451   2.454   7.896   9.409  0.0102 -0.0646  0.2665
 7388ION    NA+11452   7.007   6.145   3.756  0.1867 -0.1520 -0.1053
 7389ION    NA+11453   7.857   7.632   1.683 -0.0591 -0.1229  0.2898
 7390ION    CL-11454   0.183   3.818   8.740 -0.0553 -0.1649 -0.1501
 7391ION    CL-11455   7.700   5.070   9.495  0.0305  0.1478  0.1322
 7392ION    CL-11456  10.278   9.483   9.904  0.0290 -0.1941 -0.0610
 7393ION    CL-11457   0.122   9.524   8.917  0.1516  0.2288 -0.1167
 7394ION    CL-11458   9.551   2.242   0.275  0.3954 -0.1155 -0.0809
 7395ION    CL-11459   2.504   7.433   3.938 -0.0077  0.0990  0.2014
 7396ION    CL-11460   5.438   8.174   3.083 -0.2545  0.2719 -0.1185
 7397ION    CL-11461   6.835   2.013   3.156  0.1401 -0.2073 -0.2075
 7398ION    CL-11462   8.669   4.747   9.395 -0.2453 -0.1689 -0.1074
 7399ION    CL-11463  10.130   1.900   2.720  0.2511  0.0259 -0.2221
 7400ION    CL-11464   7.039   8.147   2.832  0.0475  0.0155  0.1075
 7401ION    CL-11465   5.577   3.766  11.025 -0.2550  0.1811 -0.0686
 7402ION    CL-11466   9.164   0.099   3.673 -0.0371 -0.1145 -0.1528
 7403ION    CL-11467   7.997   6.051  11.299 -0.0141  0.0250 -0.2735
 7404ION    CL-11468   8.046   7.257   1.929  0.1747 -0.3099 -0.0027
 7405ION    CL-11469   9.477   5.482   0.448  0.0226 -0.0928  0.2677
 7406ION    CL-11470   6.998   7.106   0.778  0.1215 -0.0650 -0.2173
 7407ION    CL-11471   1.848  10.589   0.617  0.0362  0.2395  0.2682
 7408ION    CL-11472   6.769   7.364   8.583  0.2970  0.1330 -0.1283
 7409ION    CL-11473   5.464   5.260   2.738 -0.0729  0.0664  0.2887
 7410ION    CL-11474   8.734   8.860   1.031  0.0786 -0.0795  0.0812
 7411ION    CL-11475   6.320   9.189   8.560  0.0465 -0.3349 -0.4006
 7412ION    CL-11476   8.449   7.050   2.866 -0.2806 -0.1246  0.0402
 7413ION    CL-11477   1.338   6.015   0.504  0.1210 -0.0334  0.0411
 7414ION    CL-11478   0.218   7.535   8.060  0.1417  0.1494  0.0767
 7415ION    CL-11479   9.069   0.453   1.047  0.2696 -0.1323  0.0612
 7416ION    CL-11480   9.796   9.526   2.869  0.3970 -0.1548 -0.3643
 7417ION    CL-11481   5.780   3.799   2.670 -0.0828  0.2100  0.2473
 7418ION    CL-11482   4.243   5.565   3.051  0.1405 -0.0782  0.0146
 7419ION    CL-11483   0.129  10.574   2.174  0.3302 -0.1459 -0.1193
 7420ION    CL-11484   3.490   2.762   3.169 -0.0285 -0.2396 -0.1881
 7421ION    CL-11485   8.632   8.788  10.852  0.3993  0.1810 -0.4021
 7422ION    CL-11486   2.294   0.140  11.054  0.3708 -0.1596  0.2866
 7423ION    CL-11487   7.089   4.421  10.172  0.0938  0.0988  0.0176
 7424ION    CL-11488   1.557   8.285   9.558 -0.0246  0.1285 -0.0022
 7425ION    CL-11489   2.911   0.684   1.063  0.3085 -0.1792  0.2849
 7426ION    CL-11490   6.115   9.914   9.053  0.0876  0.1844  0.2711
 7427ION    CL-11491   6.508   1.747   0.146  0.1880  0.2165 -0.3935
 7428ION    CL-11492   3.705   4.285   0.123  0.0467  0.2683 -0.1267
 7429ION    CL-11493   3.610   5.072   0.683 -0.0401  0.0066  0.0190
 7430ION    CL-11494   1.766   2.535  10.613  0.0696 -0.1626  0.0128
 7431ION    CL-11495   1.926   2.947   2.622  0.0913  0.1183 -0.2018
 7432ION    CL-11496   7.929   6.762   0.769  0.1462 -0.0760 -0.1125
 7433ION    CL-11497   3.825  10.440  10.152  0.2033  0.1129  0.2257
 7434ION    CL-11498   7.499   7.657   1.348 -0.0498 -0.4263  0.1526
 7435ION    CL-11499   0.657  10.452   0.997 -0.0405 -0.0068 -0.0596
 7436ION    CL-11500   1.190   1.398   9.089 -0.0403 -0.1826 -0.0289
 7437ION    CL-11501   7.956   7.459   9.287 -0.2355 -0.1252  0.2977
 7438ION    CL-11502   3.772   2.998   2.171  0.0173 -0.2104 -0.0161
 7439ION    CL-11503   7.601   6.205   2.854  0.2046  0.1239 -0.2603
 7440ION    CL-11504   5.521   8.900   1.808 -0.0576 -0.0315 -0.1856
 7441ION    CL-11505   1.343   1.030   9.926 -0.3803 -0.2578 -0.3586
 7442ION    CL-11506   6.619   2.397   1.511  0.1186 -0.2037 -0.1101
 7443ION    CL-11507   3.117   9.082   2.272 -0.0195 -0.2946 -0.0827
 7444ION    CL-11508   4.156   0.878   8.476  0.1864  0.1572 -0.0780
 7445ION    CL-11509   4.675   4.283  11.231  0.0346 -0.1130  0.2352
 7446ION    CL-11510   8.443   0.335  10.635 -0.2480 -0.0457  0.0278
 7447ION    CL-11511   0.894   1.945   0.937 -0.0511 -0.1680 -0.1044
 7448ION    CL-11512   7.749   6.698  10.641 -0.0577  0.0841 -0.3541
 7449ION    CL-11513   7.821  10.224   8.661  0.1033  0.1051  0.0042
 7450ION    CL-11514   6.765   3.625  10.371 -0.0181 -0.2610  0.0638
 7451ION    CL-11515   4.284   6.812   0.441  0.2866 -0.1460 -0.0090
 7452ION    CL-11516   8.404   9.375   0.528  0.1325  0.0808  0.0191
 7453ION    CL-11517   2.595   7.573   9.731 -0.3341 -0.2530  0.0072
 7454ION    CL-11518   9.655   5.924   2.582  0.3543  0.0078  0.0010
 7455ION    CL-11519   3.723   0.535   3.060  0.1350 -0.0102 -0.0951
 7456ION    CL-11520   5.383   8.380   1.713 -0.0502 -0.3475  0.0581
 7457ION    CL-11521   5.961   8.791   2.455  0.0919  0.1677 -0.1650
 7458ION    CL-11522   8.487   4.502   8.612  0.0078  0.2912  0.0071
 7459ION    CL-11523   6.301   7.811   3.090  0.1415  0.0437  0.0319
 7460ION    CL-11524   9.206   3.991   3.094  0.0725 -0.1858  0.1448
 7461ION    CL-11525   3.569   5.762  10.342  0.1208  0.1658 -0.2797
 7462ION    CL-11526   9.770   4.631   2.722 -0.0248 -0.0210 -0.0875
 7463ION    CL-11527   6.518   5.143   1.064  0.3628 -0.0956 -0.0812
 7464ION    CL-11528   1.770   2.727   1.154  0.1488 -0.1880 -0.2906
 7465ION    CL-11529   0.417   7.671   0.796 -0.1046  0.0398  0.0956
 7466ION    CL-11530   7.143   3.647   2.230 -0.2341  0.3779 -0.3472
  10.76423  10.76423  11.32556
