Generated by CHARMM-GUI FF-Converter
2605
    1AUC    AUC    1   4.175   4.172   4.172
    2AUC    AUC    2   4.420   4.172   4.020
    3AUC    AUC    3   4.420   4.172   4.324
    4AUC    AUC    4   3.929   4.172   4.020
    5AUC    AUC    5   3.929   4.172   4.324
    6AUC    AUC    6   4.023   4.417   4.172
    7AUC    AUC    7   4.327   4.417   4.172
    8AUC    AUC    8   4.023   3.926   4.172
    9AUC    AUC    9   4.327   3.926   4.172
   10AUC    AUC   10   4.175   4.020   4.417
   11AUC    AUC   11   4.175   4.323   4.417
   12AUC    AUC   12   4.175   4.020   3.927
   13AUC    AUC   13   4.175   4.323   3.927
   14AUC    AUC   14   4.666   4.172   3.869
   15AUC    AUC   15   4.666   4.172   4.172
   16AUC    AUC   16   4.666   4.172   4.475
   17AUC    AUC   17   3.684   4.172   3.869
   18AUC    AUC   18   3.684   4.172   4.172
   19AUC    AUC   19   3.684   4.172   4.475
   20AUC    AUC   20   3.871   4.662   4.172
   21AUC    AUC   21   4.175   4.662   4.172
   22AUC    AUC   22   4.478   4.662   4.172
   23AUC    AUC   23   3.871   3.681   4.172
   24AUC    AUC   24   4.175   3.681   4.172
   25AUC    AUC   25   4.478   3.681   4.172
   26AUC    AUC   26   4.175   3.868   4.663
   27AUC    AUC   27   4.175   4.172   4.663
   28AUC    AUC   28   4.175   4.475   4.663
   29AUC    AUC   29   4.175   3.868   3.681
   30AUC    AUC   30   4.175   4.172   3.681
   31AUC    AUC   31   4.175   4.475   3.681
   32AUC    AUC   32   4.420   4.020   4.569
   33AUC    AUC   33   4.420   4.323   4.569
   34AUC    AUC   34   4.420   4.020   3.775
   35AUC    AUC   35   4.420   4.323   3.775
   36AUC    AUC   36   3.929   4.020   4.569
   37AUC    AUC   37   3.929   4.323   4.569
   38AUC    AUC   38   3.929   4.020   3.775
   39AUC    AUC   39   3.929   4.323   3.775
   40AUC    AUC   40   4.572   4.417   4.020
   41AUC    AUC   41   4.572   4.417   4.324
   42AUC    AUC   42   3.778   4.417   4.020
   43AUC    AUC   43   3.778   4.417   4.324
   44AUC    AUC   44   4.572   3.926   4.020
   45AUC    AUC   45   4.572   3.926   4.324
   46AUC    AUC   46   3.778   3.926   4.020
   47AUC    AUC   47   3.778   3.926   4.324
   48AUC    AUC   48   4.023   4.569   4.417
   49AUC    AUC   49   4.327   4.569   4.417
   50AUC    AUC   50   4.023   3.775   4.417
   51AUC    AUC   51   4.327   3.775   4.417
   52AUC    AUC   52   4.023   4.569   3.927
   53AUC    AUC   53   4.327   4.569   3.927
   54AUC    AUC   54   4.023   3.775   3.927
   55AUC    AUC   55   4.327   3.775   3.927
   56AUSL   AUS   56   4.584   4.172   4.752
   57AUSL   AUS   57   4.440   3.755   4.682
   58AUL    AUL   58   4.666   3.868   4.966
   59THSLK  H11   59   4.560   3.370   4.784
   59THSLK  H13   60   4.441   3.430   4.915
   59THSLK   C1   61   4.548   3.443   4.874
   59THSLK   S1   62   4.572   3.623   4.815
   60ETHY    C1   63   4.654   3.395   4.993
   60ETHY   H11   64   4.762   3.406   4.953
   60ETHY   H13   65   4.642   3.465   5.084
   60ETHY    C2   66   4.632   3.238   5.043
   60ETHY   H21   67   4.647   3.167   4.953
   60ETHY   H23   68   4.525   3.225   5.083
   61ETHY    C1   69   4.740   3.199   5.162
   61ETHY   H11   70   4.848   3.213   5.121
   61ETHY   H13   71   4.726   3.272   5.251
   61ETHY    C2   72   4.728   3.043   5.220
   61ETHY   H21   73   4.746   2.968   5.134
   61ETHY   H23   74   4.622   3.026   5.263
   62ETHY    C1   75   4.840   3.020   5.339
   62ETHY   H11   76   4.945   3.041   5.295
   62ETHY   H13   77   4.821   3.099   5.423
   62ETHY    C2   78   4.841   2.870   5.408
   62ETHY   H21   79   4.864   2.790   5.328
   62ETHY   H23   80   4.738   2.848   5.455
   63ETHY    C1   81   4.957   2.866   5.526
   63ETHY   H11   82   5.059   2.891   5.478
   63ETHY   H13   83   4.933   2.949   5.604
   63ETHY    C2   84   4.971   2.722   5.607
   63ETHY   H21   85   4.999   2.639   5.531
   63ETHY   H23   86   4.871   2.696   5.656
   64ETHY    C1   87   5.090   2.733   5.723
   64ETHY   H11   88   5.189   2.762   5.671
   64ETHY   H13   89   5.061   2.819   5.795
   64ETHY    C2   90   5.113   2.594   5.810
   64ETHY   H21   91   5.144   2.510   5.738
   64ETHY   H23   92   5.014   2.565   5.861
   65ETHY    C1   93   5.231   2.613   5.926
   65ETHY   H11   94   5.328   2.646   5.872
   65ETHY   H13   95   5.199   2.701   5.995
   65ETHY    C2   96   5.261   2.478   6.018
   65ETHY   H22   97   5.343   2.501   6.095
   65ETHY   H21   98   5.295   2.393   5.950
   65ETHY   H23   99   5.165   2.447   6.072
   66THSLK  H11  100   4.801   3.965   5.026
   66THSLK  H13  101   4.645   3.977   5.128
   66THSLK   C1  102   4.733   4.038   5.085
   66THSLK   S1  103   4.666   4.172   4.966
   67ETHY    C1  104   4.821   4.098   5.213
   67ETHY   H11  105   4.911   4.159   5.172
   67ETHY   H13  106   4.754   4.170   5.274
   67ETHY    C2  107   4.879   3.980   5.315
   67ETHY   H21  108   4.949   3.910   5.256
   67ETHY   H23  109   4.791   3.919   5.357
   68ETHY    C1  110   4.964   4.048   5.440
   68ETHY   H11  111   5.051   4.110   5.397
   68ETHY   H13  112   4.893   4.120   5.498
   68ETHY    C2  113   5.027   3.939   5.549
   68ETHY   H21  114   5.101   3.868   5.495
   68ETHY   H23  115   4.942   3.876   5.595
   69ETHY    C1  116   5.106   4.021   5.669
   69ETHY   H11  117   5.189   4.086   5.620
   69ETHY   H13  118   5.030   4.093   5.719
   69ETHY    C2  119   5.175   3.928   5.786
   69ETHY   H21  120   5.254   3.858   5.739
   69ETHY   H23  121   5.094   3.864   5.838
   70ETHY    C1  122   5.247   4.027   5.898
   70ETHY   H11  123   5.326   4.092   5.844
   70ETHY   H13  124   5.166   4.097   5.942
   70ETHY    C2  125   5.322   3.949   6.024
   70ETHY   H21  126   5.405   3.880   5.983
   70ETHY   H23  127   5.244   3.884   6.080
   71ETHY    C1  128   5.387   4.060   6.129
   71ETHY   H11  129   5.462   4.125   6.070
   71ETHY   H13  130   5.301   4.128   6.167
   71ETHY    C2  131   5.464   3.993   6.259
   71ETHY   H21  132   5.550   3.926   6.222
   71ETHY   H23  133   5.389   3.927   6.318
   72ETHY    C1  134   5.526   4.110   6.362
   72ETHY   H11  135   5.597   4.176   6.299
   72ETHY   H13  136   5.437   4.177   6.395
   72ETHY    C2  137   5.605   4.051   6.495
   72ETHY   H22  138   5.643   4.138   6.559
   72ETHY   H21  139   5.694   3.987   6.461
   72ETHY   H23  140   5.534   3.986   6.557
   73AUSL   AUS  141   4.338   4.020   4.846
   74AUSL   AUS  142   4.011   4.323   4.846
   75AUL    AUL  143   4.175   4.172   5.154
   76THSLK  H11  144   4.499   3.787   5.128
   76THSLK  H13  145   4.324   3.821   5.186
   76THSLK   C1  146   4.430   3.868   5.174
   76THSLK   S1  147   4.420   4.020   5.060
   77ETHY    C1  148   4.487   3.900   5.327
   77ETHY   H11  149   4.593   3.946   5.319
   77ETHY   H13  150   4.418   3.978   5.378
   77ETHY    C2  151   4.495   3.766   5.426
   77ETHY   H21  152   4.566   3.688   5.379
   77ETHY   H23  153   4.390   3.720   5.436
   78ETHY    C1  154   4.552   3.807   5.576
   78ETHY   H11  155   4.656   3.855   5.565
   78ETHY   H13  156   4.481   3.887   5.622
   78ETHY    C2  157   4.564   3.681   5.683
   78ETHY   H21  158   4.637   3.602   5.642
   78ETHY   H23  159   4.460   3.632   5.698
   79ETHY    C1  160   4.619   3.738   5.828
   79ETHY   H11  161   4.722   3.789   5.811
   79ETHY   H13  162   4.545   3.819   5.866
   79ETHY    C2  163   4.637   3.624   5.948
   79ETHY   H21  164   4.713   3.544   5.915
   79ETHY   H23  165   4.535   3.573   5.968
   80ETHY    C1  166   4.690   3.699   6.086
   80ETHY   H11  167   4.790   3.752   6.062
   80ETHY   H13  168   4.613   3.780   6.115
   80ETHY    C2  169   4.713   3.599   6.216
   80ETHY   H21  170   4.792   3.520   6.190
   80ETHY   H23  171   4.614   3.546   6.241
   81ETHY    C1  172   4.764   3.688   6.347
   81ETHY   H11  173   4.862   3.742   6.318
   81ETHY   H13  174   4.684   3.768   6.369
   81ETHY    C2  175   4.790   3.598   6.483
   81ETHY   H21  176   4.872   3.519   6.462
   81ETHY   H23  177   4.692   3.544   6.512
   82ETHY    C1  178   4.839   3.694   6.612
   82ETHY   H11  179   4.935   3.750   6.578
   82ETHY   H13  180   4.756   3.773   6.629
   82ETHY    C2  181   4.868   3.611   6.753
   82ETHY   H22  182   4.900   3.684   6.835
   82ETHY   H21  183   4.951   3.534   6.736
   82ETHY   H23  184   4.773   3.557   6.786
   83THSLK  H11  185   4.011   4.162   5.239
   83THSLK  H13  186   3.830   4.134   5.198
   83THSLK   C1  187   3.911   4.216   5.216
   83THSLK   S1  188   3.929   4.323   5.060
   84ETHY    C1  189   3.867   4.300   5.353
   84ETHY   H11  190   3.947   4.381   5.374
   84ETHY   H13  191   3.766   4.353   5.334
   84ETHY    C2  192   3.852   4.205   5.489
   84ETHY   H21  193   3.953   4.153   5.511
   84ETHY   H23  194   3.772   4.124   5.469
   85ETHY    C1  195   3.807   4.296   5.619
   85ETHY   H11  196   3.886   4.378   5.637
   85ETHY   H13  197   3.706   4.348   5.595
   85ETHY    C2  198   3.788   4.211   5.761
   85ETHY   H21  199   3.888   4.161   5.790
   85ETHY   H23  200   3.708   4.129   5.747
   86ETHY    C1  201   3.741   4.314   5.881
   86ETHY   H11  202   3.821   4.397   5.892
   86ETHY   H13  203   3.642   4.365   5.849
   86ETHY    C2  204   3.717   4.246   6.030
   86ETHY   H21  205   3.816   4.198   6.067
   86ETHY   H23  206   3.636   4.164   6.023
   87ETHY    C1  207   3.669   4.363   6.136
   87ETHY   H11  208   3.750   4.445   6.140
   87ETHY   H13  209   3.571   4.411   6.095
   87ETHY    C2  210   3.640   4.311   6.291
   87ETHY   H21  211   3.737   4.266   6.335
   87ETHY   H23  212   3.558   4.229   6.289
   88ETHY    C1  213   3.590   4.438   6.385
   88ETHY   H11  214   3.673   4.520   6.383
   88ETHY   H13  215   3.494   4.483   6.338
   88ETHY    C2  216   3.559   4.397   6.542
   88ETHY   H21  217   3.655   4.355   6.590
   88ETHY   H23  218   3.477   4.316   6.545
   89ETHY    C1  219   3.507   4.530   6.631
   89ETHY   H11  220   3.589   4.611   6.624
   89ETHY   H13  221   3.412   4.572   6.578
   89ETHY    C2  222   3.473   4.497   6.790
   89ETHY   H22  223   3.438   4.593   6.843
   89ETHY   H21  224   3.567   4.458   6.842
   89ETHY   H23  225   3.391   4.418   6.797
   90AUSL   AUS  226   4.338   4.323   4.846
   91AUSL   AUS  227   4.685   4.436   4.588
   92AUL    AUL  228   4.666   4.475   4.966
   93THSLK  H11  229   4.339   4.535   5.175
   93THSLK  H13  230   4.520   4.547   5.128
   93THSLK   C1  231   4.439   4.477   5.172
   93THSLK   S1  232   4.420   4.323   5.060
   94ETHY    C1  233   4.483   4.442   5.329
   94ETHY   H11  234   4.403   4.373   5.376
   94ETHY   H13  235   4.584   4.386   5.328
   94ETHY    C2  236   4.498   4.577   5.425
   94ETHY   H21  237   4.397   4.633   5.429
   94ETHY   H23  238   4.578   4.647   5.380
   95ETHY    C1  239   4.543   4.535   5.579
   95ETHY   H11  240   4.463   4.463   5.623
   95ETHY   H13  241   4.644   4.478   5.573
   95ETHY    C2  242   4.562   4.662   5.684
   95ETHY   H21  243   4.462   4.719   5.694
   95ETHY   H23  244   4.642   4.735   5.643
   96ETHY    C1  245   4.609   4.604   5.831
   96ETHY   H11  246   4.528   4.530   5.869
   96ETHY   H13  247   4.708   4.546   5.818
   96ETHY    C2  248   4.632   4.719   5.949
   96ETHY   H21  249   4.534   4.776   5.968
   96ETHY   H23  250   4.713   4.793   5.915
   97ETHY    C1  251   4.681   4.643   6.088
   97ETHY   H11  252   4.599   4.567   6.119
   97ETHY   H13  253   4.778   4.584   6.066
   97ETHY    C2  254   4.709   4.743   6.217
   97ETHY   H21  255   4.613   4.801   6.243
   97ETHY   H23  256   4.791   4.820   6.188
   98ETHY    C1  257   4.760   4.655   6.348
   98ETHY   H11  258   4.677   4.577   6.373
   98ETHY   H13  259   4.855   4.597   6.318
   98ETHY    C2  260   4.791   4.745   6.483
   98ETHY   H21  261   4.695   4.801   6.514
   98ETHY   H23  262   4.873   4.823   6.458
   99ETHY    C1  263   4.843   4.650   6.611
   99ETHY   H11  264   4.760   4.571   6.630
   99ETHY   H13  265   4.938   4.593   6.575
   99ETHY    C2  266   4.876   4.733   6.750
   99ETHY   H22  267   4.912   4.661   6.831
   99ETHY   H21  268   4.782   4.788   6.786
   99ETHY   H23  269   4.959   4.811   6.730
  100THSLK  H11  270   5.039   4.449   4.757
  100THSLK  H13  271   4.927   4.433   4.906
  100THSLK   C1  272   4.965   4.507   4.824
  100THSLK   S1  273   4.817   4.569   4.721
  101ETHY    C1  274   5.051   4.627   4.901
  101ETHY   H11  275   5.091   4.701   4.821
  101ETHY   H13  276   4.979   4.685   4.971
  101ETHY    C2  277   5.179   4.572   4.991
  101ETHY   H21  278   5.253   4.516   4.921
  101ETHY   H23  279   5.141   4.498   5.071
  102ETHY    C1  280   5.258   4.697   5.065
  102ETHY   H11  281   5.295   4.771   4.984
  102ETHY   H13  282   5.183   4.753   5.133
  102ETHY    C2  283   5.389   4.653   5.157
  102ETHY   H21  284   5.467   4.600   5.091
  102ETHY   H23  285   5.355   4.580   5.240
  103ETHY    C1  286   5.455   4.788   5.226
  103ETHY   H11  287   5.486   4.861   5.141
  103ETHY   H13  288   5.373   4.840   5.290
  103ETHY    C2  289   5.587   4.762   5.323
  103ETHY   H21  290   5.672   4.714   5.261
  103ETHY   H23  291   5.559   4.691   5.409
  104ETHY    C1  292   5.638   4.907   5.384
  104ETHY   H11  293   5.663   4.978   5.296
  104ETHY   H13  294   5.550   4.954   5.444
  104ETHY    C2  295   5.770   4.899   5.484
  104ETHY   H21  296   5.859   4.856   5.426
  104ETHY   H23  297   5.746   4.830   5.573
  105ETHY    C1  298   5.808   5.051   5.540
  105ETHY   H11  299   5.829   5.119   5.448
  105ETHY   H13  300   5.716   5.093   5.596
  105ETHY    C2  301   5.939   5.055   5.641
  105ETHY   H21  302   6.031   5.015   5.584
  105ETHY   H23  303   5.918   4.987   5.732
  106ETHY    C1  304   5.970   5.210   5.695
  106ETHY   H11  305   5.987   5.277   5.601
  106ETHY   H13  306   5.874   5.248   5.748
  106ETHY    C2  307   6.101   5.223   5.797
  106ETHY   H22  308   6.114   5.332   5.829
  106ETHY   H21  309   6.195   5.188   5.743
  106ETHY   H23  310   6.084   5.158   5.889
  107AUSL   AUS  311   4.584   4.172   3.592
  108AUSL   AUS  312   4.440   4.588   3.662
  109AUL    AUL  313   4.666   4.475   3.378
  110THSLK  H11  314   4.659   3.965   3.230
  110THSLK  H13  315   4.820   3.977   3.324
  110THSLK   C1  316   4.741   4.038   3.265
  110THSLK   S1  317   4.666   4.172   3.378
  111ETHY    C1  318   4.817   4.098   3.129
  111ETHY   H11  319   4.740   4.159   3.067
  111ETHY   H13  320   4.902   4.170   3.161
  111ETHY    C2  321   4.882   3.980   3.031
  111ETHY   H21  322   4.798   3.910   2.995
  111ETHY   H23  323   4.959   3.919   3.091
  112ETHY    C1  324   4.956   4.048   2.899
  112ETHY   H11  325   4.878   4.110   2.840
  112ETHY   H13  326   5.039   4.120   2.936
  112ETHY    C2  327   5.025   3.939   2.794
  112ETHY   H21  328   4.944   3.868   2.752
  112ETHY   H23  329   5.105   3.876   2.850
  113ETHY    C1  330   5.097   4.021   2.670
  113ETHY   H11  331   5.016   4.086   2.617
  113ETHY   H13  332   5.176   4.093   2.715
  113ETHY    C2  333   5.171   3.928   2.555
  113ETHY   H21  334   5.094   3.858   2.506
  113ETHY   H23  335   5.254   3.864   2.605
  114ETHY    C1  336   5.239   4.027   2.441
  114ETHY   H11  337   5.155   4.092   2.395
  114ETHY   H13  338   5.314   4.097   2.494
  114ETHY    C2  339   5.318   3.949   2.318
  114ETHY   H21  340   5.244   3.880   2.262
  114ETHY   H23  341   5.403   3.884   2.362
  115ETHY    C1  342   5.383   4.060   2.213
  115ETHY   H11  343   5.297   4.125   2.172
  115ETHY   H13  344   5.455   4.128   2.272
  115ETHY    C2  345   5.465   3.993   2.086
  115ETHY   H21  346   5.393   3.926   2.025
  115ETHY   H23  347   5.551   3.927   2.126
  116ETHY    C1  348   5.529   4.110   1.985
  116ETHY   H11  349   5.441   4.176   1.949
  116ETHY   H13  350   5.599   4.177   2.049
  116ETHY    C2  351   5.613   4.051   1.854
  116ETHY   H22  352   5.653   4.138   1.792
  116ETHY   H21  353   5.543   3.987   1.790
  116ETHY   H23  354   5.700   3.986   1.890
  117THSLK  H11  355   4.688   4.612   3.331
  117THSLK  H13  356   4.811   4.677   3.455
  117THSLK   C1  357   4.712   4.701   3.401
  117THSLK   S1  358   4.572   4.720   3.530
  118ETHY    C1  359   4.737   4.835   3.306
  118ETHY   H11  360   4.640   4.861   3.250
  118ETHY   H13  361   4.764   4.925   3.375
  118ETHY    C2  362   4.859   4.816   3.195
  118ETHY   H21  363   4.833   4.729   3.124
  118ETHY   H23  364   4.958   4.791   3.250
  119ETHY    C1  365   4.880   4.954   3.106
  119ETHY   H11  366   4.780   4.980   3.053
  119ETHY   H13  367   4.905   5.041   3.178
  119ETHY    C2  368   5.000   4.947   2.991
  119ETHY   H21  369   4.975   4.863   2.915
  119ETHY   H23  370   5.101   4.923   3.042
  120ETHY    C1  371   5.009   5.092   2.913
  120ETHY   H11  372   4.906   5.115   2.865
  120ETHY   H13  373   5.031   5.175   2.992
  120ETHY    C2  374   5.124   5.103   2.794
  120ETHY   H21  375   5.103   5.024   2.712
  120ETHY   H23  376   5.229   5.082   2.839
  121ETHY    C1  377   5.121   5.255   2.729
  121ETHY   H11  378   5.015   5.274   2.687
  121ETHY   H13  379   5.140   5.331   2.814
  121ETHY    C2  380   5.231   5.282   2.609
  121ETHY   H21  381   5.211   5.210   2.521
  121ETHY   H23  382   5.338   5.264   2.649
  122ETHY    C1  383   5.218   5.439   2.555
  122ETHY   H11  384   5.110   5.456   2.517
  122ETHY   H13  385   5.236   5.510   2.645
  122ETHY    C2  386   5.324   5.478   2.434
  122ETHY   H21  387   5.304   5.409   2.343
  122ETHY   H23  388   5.432   5.461   2.471
  123ETHY    C1  389   5.307   5.638   2.386
  123ETHY   H11  390   5.196   5.652   2.352
  123ETHY   H13  391   5.324   5.704   2.479
  123ETHY    C2  392   5.409   5.685   2.264
  123ETHY   H22  393   5.391   5.795   2.238
  123ETHY   H21  394   5.390   5.620   2.171
  123ETHY   H23  395   5.518   5.671   2.297
  124AUSL   AUS  396   4.338   4.020   3.498
  125AUSL   AUS  397   4.685   3.907   3.756
  126AUL    AUL  398   4.666   3.868   3.378
  127THSLK  H11  399   4.765   3.550   3.515
  127THSLK  H13  400   4.882   3.531   3.659
  127THSLK   C1  401   4.857   3.597   3.567
  127THSLK   S1  402   4.817   3.775   3.623
  128ETHY    C1  403   4.985   3.585   3.461
  128ETHY   H11  404   4.962   3.649   3.367
  128ETHY   H13  405   5.080   3.629   3.512
  128ETHY    C2  406   5.018   3.430   3.412
  128ETHY   H21  407   4.926   3.386   3.359
  128ETHY   H23  408   5.042   3.365   3.505
  129ETHY    C1  409   5.147   3.426   3.309
  129ETHY   H11  410   5.123   3.493   3.217
  129ETHY   H13  411   5.239   3.472   3.363
  129ETHY    C2  412   5.190   3.275   3.254
  129ETHY   H21  413   5.101   3.229   3.196
  129ETHY   H23  414   5.216   3.207   3.344
  130ETHY    C1  415   5.321   3.289   3.154
  130ETHY   H11  416   5.293   3.360   3.067
  130ETHY   H13  417   5.407   3.338   3.214
  130ETHY    C2  418   5.377   3.147   3.090
  130ETHY   H21  419   5.294   3.097   3.026
  130ETHY   H23  420   5.407   3.074   3.175
  131ETHY    C1  421   5.509   3.178   2.995
  131ETHY   H11  422   5.477   3.253   2.912
  131ETHY   H13  423   5.589   3.231   3.061
  131ETHY    C2  424   5.578   3.046   2.923
  131ETHY   H21  425   5.501   2.995   2.855
  131ETHY   H23  426   5.611   2.971   3.005
  132ETHY    C1  427   5.710   3.093   2.834
  132ETHY   H11  428   5.675   3.170   2.755
  132ETHY   H13  429   5.785   3.146   2.905
  132ETHY    C2  430   5.787   2.968   2.757
  132ETHY   H21  431   5.713   2.917   2.685
  132ETHY   H23  432   5.822   2.892   2.836
  133ETHY    C1  433   5.920   3.022   2.671
  133ETHY   H11  434   5.882   3.102   2.595
  133ETHY   H13  435   5.991   3.076   2.746
  133ETHY    C2  436   6.003   2.903   2.590
  133ETHY   H22  437   6.092   2.949   2.535
  133ETHY   H21  438   5.934   2.852   2.515
  133ETHY   H23  439   6.041   2.825   2.665
  134THSLK  H11  440   4.339   3.808   3.169
  134THSLK  H13  441   4.520   3.796   3.216
  134THSLK   C1  442   4.439   3.867   3.173
  134THSLK   S1  443   4.420   4.020   3.284
  135ETHY    C1  444   4.483   3.901   3.015
  135ETHY   H11  445   4.403   3.970   2.969
  135ETHY   H13  446   4.584   3.957   3.016
  135ETHY    C2  447   4.498   3.766   2.919
  135ETHY   H21  448   4.397   3.710   2.915
  135ETHY   H23  449   4.578   3.696   2.964
  136ETHY    C1  450   4.543   3.808   2.766
  136ETHY   H11  451   4.463   3.880   2.722
  136ETHY   H13  452   4.644   3.866   2.771
  136ETHY    C2  453   4.562   3.681   2.660
  136ETHY   H21  454   4.462   3.624   2.650
  136ETHY   H23  455   4.642   3.608   2.701
  137ETHY    C1  456   4.609   3.739   2.513
  137ETHY   H11  457   4.528   3.814   2.475
  137ETHY   H13  458   4.708   3.798   2.526
  137ETHY    C2  459   4.632   3.625   2.395
  137ETHY   H21  460   4.534   3.567   2.376
  137ETHY   H23  461   4.713   3.550   2.429
  138ETHY    C1  462   4.681   3.700   2.256
  138ETHY   H11  463   4.599   3.777   2.225
  138ETHY   H13  464   4.778   3.759   2.278
  138ETHY    C2  465   4.709   3.600   2.127
  138ETHY   H21  466   4.613   3.543   2.101
  138ETHY   H23  467   4.791   3.523   2.156
  139ETHY    C1  468   4.760   3.688   1.996
  139ETHY   H11  469   4.677   3.766   1.971
  139ETHY   H13  470   4.855   3.746   2.026
  139ETHY    C2  471   4.791   3.598   1.861
  139ETHY   H21  472   4.695   3.542   1.830
  139ETHY   H23  473   4.873   3.521   1.886
  140ETHY    C1  474   4.843   3.693   1.734
  140ETHY   H11  475   4.760   3.772   1.714
  140ETHY   H13  476   4.938   3.750   1.769
  140ETHY    C2  477   4.876   3.610   1.594
  140ETHY   H22  478   4.912   3.682   1.513
  140ETHY   H21  479   4.782   3.556   1.558
  140ETHY   H23  480   4.959   3.533   1.614
  141AUSL   AUS  481   4.338   4.323   3.498
  142AUSL   AUS  482   4.011   4.020   3.498
  143AUL    AUL  483   4.175   4.172   3.190
  144THSLK  H11  484   3.784   3.818   3.230
  144THSLK  H13  485   3.962   3.790   3.181
  144THSLK   C1  486   3.877   3.868   3.182
  144THSLK   S1  487   3.929   4.020   3.284
  145ETHY    C1  488   3.839   3.902   3.023
  145ETHY   H11  489   3.752   3.979   3.021
  145ETHY   H13  490   3.931   3.950   2.972
  145ETHY    C2  491   3.792   3.769   2.935
  145ETHY   H21  492   3.699   3.722   2.983
  145ETHY   H23  493   3.878   3.691   2.936
  146ETHY    C1  494   3.758   3.810   2.779
  146ETHY   H11  495   3.673   3.890   2.779
  146ETHY   H13  496   3.852   3.859   2.732
  146ETHY    C2  497   3.710   3.684   2.681
  146ETHY   H21  498   3.614   3.637   2.723
  146ETHY   H23  499   3.794   3.604   2.678
  147ETHY    C1  500   3.682   3.742   2.528
  147ETHY   H11  501   3.600   3.824   2.535
  147ETHY   H13  502   3.780   3.791   2.489
  147ETHY    C2  503   3.634   3.629   2.417
  147ETHY   H21  504   3.535   3.580   2.452
  147ETHY   H23  505   3.714   3.546   2.408
  148ETHY    C1  506   3.613   3.703   2.271
  148ETHY   H11  507   3.534   3.787   2.283
  148ETHY   H13  508   3.713   3.753   2.240
  148ETHY    C2  509   3.564   3.603   2.148
  148ETHY   H21  510   3.463   3.555   2.175
  148ETHY   H23  511   3.642   3.519   2.133
  149ETHY    C1  512   3.549   3.690   2.007
  149ETHY   H11  513   3.473   3.775   2.025
  149ETHY   H13  514   3.652   3.739   1.984
  149ETHY    C2  515   3.502   3.600   1.877
  149ETHY   H21  516   3.398   3.554   1.899
  149ETHY   H23  517   3.578   3.516   1.859
  150ETHY    C1  518   3.491   3.694   1.738
  150ETHY   H11  519   3.416   3.780   1.760
  150ETHY   H13  520   3.595   3.742   1.720
  150ETHY    C2  521   3.442   3.611   1.602
  150ETHY   H22  522   3.438   3.682   1.513
  150ETHY   H21  523   3.339   3.566   1.619
  150ETHY   H23  524   3.517   3.527   1.580
  151THSLK  H11  525   4.406   4.131   3.118
  151THSLK  H13  526   4.583   4.166   3.169
  151THSLK   C1  527   4.482   4.215   3.140
  151THSLK   S1  528   4.420   4.323   3.284
  152ETHY    C1  529   4.506   4.298   2.997
  152ETHY   H11  530   4.407   4.348   2.965
  152ETHY   H13  531   4.584   4.382   3.015
  152ETHY    C2  532   4.560   4.203   2.872
  152ETHY   H21  533   4.482   4.120   2.851
  152ETHY   H23  534   4.660   4.153   2.902
  153ETHY    C1  535   4.583   4.292   2.735
  153ETHY   H11  536   4.483   4.343   2.707
  153ETHY   H13  537   4.661   4.376   2.758
  153ETHY    C2  538   4.637   4.207   2.603
  153ETHY   H21  539   4.560   4.125   2.576
  153ETHY   H23  540   4.738   4.156   2.628
  154ETHY    C1  541   4.658   4.310   2.476
  154ETHY   H11  542   4.556   4.362   2.454
  154ETHY   H13  543   4.733   4.392   2.507
  154ETHY    C2  544   4.712   4.241   2.335
  154ETHY   H21  545   4.636   4.162   2.299
  154ETHY   H23  546   4.814   4.190   2.354
  155ETHY    C1  547   4.728   4.359   2.220
  155ETHY   H11  548   4.625   4.411   2.206
  155ETHY   H13  549   4.802   4.439   2.260
  155ETHY    C2  550   4.782   4.307   2.073
  155ETHY   H21  551   4.707   4.230   2.030
  155ETHY   H23  552   4.885   4.256   2.085
  156ETHY    C1  553   4.796   4.436   1.969
  156ETHY   H11  554   4.692   4.487   1.960
  156ETHY   H13  555   4.869   4.512   2.015
  156ETHY    C2  556   4.849   4.395   1.818
  156ETHY   H21  557   4.775   4.321   1.770
  156ETHY   H23  558   4.952   4.344   1.826
  157ETHY    C1  559   4.863   4.529   1.718
  157ETHY   H11  560   4.759   4.580   1.715
  157ETHY   H13  561   4.936   4.603   1.771
  157ETHY    C2  562   4.916   4.497   1.564
  157ETHY   H22  563   4.923   4.594   1.505
  157ETHY   H21  564   4.842   4.426   1.513
  157ETHY   H23  565   5.019   4.448   1.569
  158AUSL   AUS  566   3.766   4.172   4.752
  159AUSL   AUS  567   3.910   4.588   4.682
  160AUL    AUL  568   3.684   4.475   4.966
  161THSLK  H11  569   3.691   3.965   5.115
  161THSLK  H13  570   3.530   3.977   5.020
  161THSLK   C1  571   3.608   4.038   5.079
  161THSLK   S1  572   3.684   4.172   4.966
  162ETHY    C1  573   3.533   4.098   5.215
  162ETHY   H11  574   3.610   4.159   5.277
  162ETHY   H13  575   3.448   4.170   5.183
  162ETHY    C2  576   3.468   3.980   5.313
  162ETHY   H21  577   3.552   3.910   5.349
  162ETHY   H23  578   3.391   3.919   5.253
  163ETHY    C1  579   3.393   4.048   5.445
  163ETHY   H11  580   3.471   4.110   5.504
  163ETHY   H13  581   3.310   4.120   5.408
  163ETHY    C2  582   3.324   3.939   5.550
  163ETHY   H21  583   3.406   3.868   5.592
  163ETHY   H23  584   3.245   3.876   5.494
  164ETHY    C1  585   3.253   4.021   5.674
  164ETHY   H11  586   3.333   4.086   5.727
  164ETHY   H13  587   3.173   4.093   5.629
  164ETHY    C2  588   3.178   3.928   5.789
  164ETHY   H21  589   3.256   3.858   5.838
  164ETHY   H23  590   3.096   3.864   5.739
  165ETHY    C1  591   3.110   4.027   5.903
  165ETHY   H11  592   3.194   4.092   5.949
  165ETHY   H13  593   3.035   4.097   5.850
  165ETHY    C2  594   3.031   3.949   6.026
  165ETHY   H21  595   3.105   3.880   6.082
  165ETHY   H23  596   2.947   3.884   5.982
  166ETHY    C1  597   2.967   4.060   6.131
  166ETHY   H11  598   3.053   4.125   6.172
  166ETHY   H13  599   2.895   4.128   6.072
  166ETHY    C2  600   2.885   3.993   6.258
  166ETHY   H21  601   2.957   3.926   6.319
  166ETHY   H23  602   2.799   3.927   6.218
  167ETHY    C1  603   2.821   4.110   6.359
  167ETHY   H11  604   2.909   4.176   6.395
  167ETHY   H13  605   2.751   4.177   6.295
  167ETHY    C2  606   2.737   4.051   6.490
  167ETHY   H22  607   2.697   4.138   6.553
  167ETHY   H21  608   2.807   3.987   6.555
  167ETHY   H23  609   2.650   3.986   6.454
  168THSLK  H11  610   3.905   4.769   5.030
  168THSLK  H13  611   3.768   4.645   5.057
  168THSLK   C1  612   3.795   4.744   5.003
  168THSLK   S1  613   3.778   4.720   4.815
  169ETHY    C1  614   3.699   4.864   5.066
  169ETHY   H11  615   3.725   4.964   5.015
  169ETHY   H13  616   3.588   4.840   5.043
  169ETHY    C2  617   3.715   4.883   5.231
  169ETHY   H21  618   3.825   4.911   5.255
  169ETHY   H23  619   3.689   4.784   5.284
  170ETHY    C1  620   3.616   5.003   5.286
  170ETHY   H11  621   3.642   5.102   5.231
  170ETHY   H13  622   3.506   4.975   5.260
  170ETHY    C2  623   3.624   5.031   5.450
  170ETHY   H21  624   3.731   5.063   5.479
  170ETHY   H23  625   3.596   4.935   5.507
  171ETHY    C1  626   3.517   5.151   5.490
  171ETHY   H11  627   3.544   5.246   5.429
  171ETHY   H13  628   3.411   5.118   5.457
  171ETHY    C2  629   3.512   5.192   5.650
  171ETHY   H21  630   3.616   5.230   5.684
  171ETHY   H23  631   3.483   5.100   5.713
  172ETHY    C1  632   3.399   5.312   5.672
  172ETHY   H11  633   3.428   5.402   5.606
  172ETHY   H13  634   3.297   5.272   5.634
  172ETHY    C2  635   3.381   5.364   5.828
  172ETHY   H21  636   3.481   5.407   5.866
  172ETHY   H23  637   3.351   5.275   5.895
  173ETHY    C1  638   3.263   5.482   5.834
  173ETHY   H11  639   3.294   5.568   5.764
  173ETHY   H13  640   3.165   5.436   5.794
  173ETHY    C2  641   3.236   5.542   5.986
  173ETHY   H21  642   3.334   5.589   6.026
  173ETHY   H23  643   3.205   5.455   6.056
  174ETHY    C1  644   3.115   5.658   5.986
  174ETHY   H11  645   3.148   5.741   5.912
  174ETHY   H13  646   3.020   5.608   5.943
  174ETHY    C2  647   3.083   5.724   6.135
  174ETHY   H22  648   2.999   5.801   6.125
  174ETHY   H21  649   3.177   5.774   6.176
  174ETHY   H23  650   3.050   5.641   6.207
  175AUSL   AUS  651   4.011   4.020   4.846
  176AUSL   AUS  652   3.665   3.907   4.588
  177AUL    AUL  653   3.684   3.868   4.966
  178THSLK  H11  654   3.409   3.568   4.636
  178THSLK  H13  655   3.301   3.721   4.628
  178THSLK   C1  656   3.379   3.665   4.693
  178THSLK   S1  657   3.532   3.775   4.721
  179ETHY    C1  658   3.302   3.618   4.834
  179ETHY   H11  659   3.377   3.560   4.900
  179ETHY   H13  660   3.268   3.712   4.891
  179ETHY    C2  661   3.169   3.521   4.808
  179ETHY   H21  662   3.201   3.425   4.753
  179ETHY   H23  663   3.093   3.578   4.742
  180ETHY    C1  664   3.097   3.481   4.951
  180ETHY   H11  665   3.174   3.425   5.017
  180ETHY   H13  666   3.066   3.578   5.006
  180ETHY    C2  667   2.962   3.384   4.937
  180ETHY   H21  668   2.991   3.285   4.887
  180ETHY   H23  669   2.882   3.438   4.873
  181ETHY    C1  670   2.901   3.355   5.088
  181ETHY   H11  671   2.984   3.304   5.152
  181ETHY   H13  672   2.876   3.456   5.138
  181ETHY    C2  673   2.765   3.260   5.093
  181ETHY   H21  674   2.789   3.156   5.048
  181ETHY   H23  675   2.681   3.309   5.032
  182ETHY    C1  676   2.717   3.243   5.251
  182ETHY   H11  677   2.805   3.195   5.311
  182ETHY   H13  678   2.697   3.348   5.294
  182ETHY    C2  679   2.582   3.150   5.274
  182ETHY   H21  680   2.601   3.043   5.234
  182ETHY   H23  681   2.494   3.196   5.215
  183ETHY    C1  682   2.545   3.144   5.436
  183ETHY   H11  683   2.635   3.100   5.492
  183ETHY   H13  684   2.528   3.252   5.473
  183ETHY    C2  685   2.410   3.054   5.470
  183ETHY   H21  686   2.428   2.945   5.435
  183ETHY   H23  687   2.320   3.097   5.414
  184ETHY    C1  688   2.377   3.053   5.635
  184ETHY   H11  689   2.471   3.012   5.689
  184ETHY   H13  690   2.363   3.164   5.667
  184ETHY    C2  691   2.244   2.964   5.678
  184ETHY   H22  692   2.229   2.970   5.791
  184ETHY   H21  693   2.259   2.855   5.648
  184ETHY   H23  694   2.151   3.006   5.625
  185THSLK  H11  695   3.943   3.783   5.152
  185THSLK  H13  696   3.767   3.833   5.117
  185THSLK   C1  697   3.867   3.870   5.160
  185THSLK   S1  698   3.929   4.020   5.060
  186ETHY    C1  699   3.843   3.901   5.322
  186ETHY   H11  700   3.943   3.937   5.369
  186ETHY   H13  701   3.765   3.986   5.333
  186ETHY    C2  702   3.790   3.769   5.408
  186ETHY   H21  703   3.867   3.684   5.401
  186ETHY   H23  704   3.690   3.732   5.364
  187ETHY    C1  705   3.766   3.809   5.568
  187ETHY   H11  706   3.866   3.847   5.611
  187ETHY   H13  707   3.689   3.895   5.574
  187ETHY    C2  708   3.712   3.684   5.664
  187ETHY   H21  709   3.789   3.598   5.663
  187ETHY   H23  710   3.612   3.645   5.623
  188ETHY    C1  711   3.692   3.739   5.818
  188ETHY   H11  712   3.794   3.781   5.856
  188ETHY   H13  713   3.616   3.827   5.816
  188ETHY    C2  714   3.638   3.628   5.928
  188ETHY   H21  715   3.714   3.541   5.935
  188ETHY   H23  716   3.536   3.586   5.893
  189ETHY    C1  717   3.622   3.701   6.075
  189ETHY   H11  718   3.725   3.745   6.106
  189ETHY   H13  719   3.547   3.789   6.064
  189ETHY    C2  720   3.568   3.602   6.197
  189ETHY   H21  721   3.642   3.516   6.213
  189ETHY   H23  722   3.465   3.558   6.169
  190ETHY    C1  723   3.554   3.689   6.338
  190ETHY   H11  724   3.658   3.734   6.364
  190ETHY   H13  725   3.480   3.777   6.320
  190ETHY    C2  726   3.500   3.601   6.467
  190ETHY   H21  727   3.575   3.515   6.488
  190ETHY   H23  728   3.397   3.556   6.442
  191ETHY    C1  729   3.487   3.695   6.605
  191ETHY   H11  730   3.591   3.742   6.626
  191ETHY   H13  731   3.414   3.782   6.581
  191ETHY    C2  732   3.434   3.613   6.740
  191ETHY   H22  733   3.427   3.685   6.829
  191ETHY   H21  734   3.507   3.529   6.765
  191ETHY   H23  735   3.331   3.568   6.720
  192AUSL   AUS  736   3.766   4.172   3.592
  193AUSL   AUS  737   3.910   3.755   3.662
  194AUL    AUL  738   3.684   3.868   3.378
  195THSLK  H11  739   3.548   3.965   3.318
  195THSLK  H13  740   3.705   3.977   3.216
  195THSLK   C1  741   3.617   4.038   3.260
  195THSLK   S1  742   3.684   4.172   3.378
  196ETHY    C1  743   3.529   4.098   3.131
  196ETHY   H11  744   3.439   4.159   3.172
  196ETHY   H13  745   3.596   4.170   3.070
  196ETHY    C2  746   3.470   3.980   3.029
  196ETHY   H21  747   3.401   3.910   3.088
  196ETHY   H23  748   3.559   3.919   2.987
  197ETHY    C1  749   3.386   4.048   2.904
  197ETHY   H11  750   3.298   4.110   2.947
  197ETHY   H13  751   3.456   4.120   2.846
  197ETHY    C2  752   3.323   3.939   2.795
  197ETHY   H21  753   3.249   3.868   2.849
  197ETHY   H23  754   3.408   3.876   2.749
  198ETHY    C1  755   3.244   4.021   2.676
  198ETHY   H11  756   3.161   4.086   2.724
  198ETHY   H13  757   3.319   4.093   2.625
  198ETHY    C2  758   3.174   3.928   2.558
  198ETHY   H21  759   3.096   3.858   2.605
  198ETHY   H23  760   3.256   3.864   2.506
  199ETHY    C1  761   3.102   4.027   2.446
  199ETHY   H11  762   3.024   4.092   2.500
  199ETHY   H13  763   3.183   4.097   2.402
  199ETHY    C2  764   3.028   3.949   2.320
  199ETHY   H21  765   2.945   3.880   2.361
  199ETHY   H23  766   3.106   3.884   2.264
  200ETHY    C1  767   2.963   4.060   2.215
  200ETHY   H11  768   2.888   4.125   2.274
  200ETHY   H13  769   3.048   4.128   2.177
  200ETHY    C2  770   2.886   3.993   2.085
  200ETHY   H21  771   2.799   3.926   2.123
  200ETHY   H23  772   2.961   3.927   2.027
  201ETHY    C1  773   2.824   4.110   1.983
  201ETHY   H11  774   2.752   4.176   2.045
  201ETHY   H13  775   2.913   4.177   1.949
  201ETHY    C2  776   2.745   4.051   1.850
  201ETHY   H22  777   2.707   4.138   1.785
  201ETHY   H21  778   2.656   3.987   1.883
  201ETHY   H23  779   2.816   3.986   1.788
  202THSLK  H11  780   3.546   3.527   3.576
  202THSLK  H13  781   3.680   3.398   3.597
  202THSLK   C1  782   3.645   3.486   3.531
  202THSLK   S1  783   3.778   3.623   3.530
  203ETHY    C1  784   3.609   3.424   3.380
  203ETHY   H11  785   3.572   3.510   3.312
  203ETHY   H13  786   3.705   3.380   3.334
  203ETHY    C2  787   3.492   3.305   3.383
  203ETHY   H21  788   3.395   3.349   3.426
  203ETHY   H23  789   3.528   3.218   3.451
  204ETHY    C1  790   3.464   3.247   3.231
  204ETHY   H11  791   3.430   3.335   3.163
  204ETHY   H13  792   3.563   3.206   3.188
  204ETHY    C2  793   3.349   3.128   3.221
  204ETHY   H21  794   3.248   3.168   3.260
  204ETHY   H23  795   3.381   3.038   3.286
  205ETHY    C1  796   3.333   3.079   3.064
  205ETHY   H11  797   3.304   3.172   3.000
  205ETHY   H13  798   3.437   3.042   3.027
  205ETHY    C2  799   3.222   2.960   3.036
  205ETHY   H21  800   3.117   2.996   3.068
  205ETHY   H23  801   3.250   2.866   3.098
  206ETHY    C1  802   3.222   2.923   2.875
  206ETHY   H11  803   3.197   3.019   2.815
  206ETHY   H13  804   3.329   2.890   2.845
  206ETHY    C2  805   3.116   2.804   2.830
  206ETHY   H21  806   3.008   2.836   2.855
  206ETHY   H23  807   3.140   2.707   2.888
  207ETHY    C1  808   3.129   2.776   2.666
  207ETHY   H11  809   3.106   2.875   2.611
  207ETHY   H13  810   3.238   2.745   2.643
  207ETHY    C2  811   3.027   2.658   2.610
  207ETHY   H21  812   2.918   2.689   2.631
  207ETHY   H23  813   3.049   2.559   2.665
  208ETHY    C1  814   3.046   2.633   2.445
  208ETHY   H11  815   3.027   2.735   2.393
  208ETHY   H13  816   3.157   2.605   2.427
  208ETHY    C2  817   2.947   2.517   2.381
  208ETHY   H22  818   2.967   2.507   2.269
  208ETHY   H21  819   2.837   2.546   2.397
  208ETHY   H23  820   2.967   2.417   2.432
  209AUSL   AUS  821   4.011   4.323   3.498
  210AUSL   AUS  822   3.665   4.436   3.756
  211AUL    AUL  823   3.684   4.475   3.378
  212THSLK  H11  824   3.487   4.467   3.395
  212THSLK  H13  825   3.588   4.623   3.381
  212THSLK   C1  826   3.498   4.575   3.436
  212THSLK   S1  827   3.532   4.569   3.623
  213ETHY    C1  828   3.362   4.660   3.393
  213ETHY   H11  829   3.270   4.612   3.445
  213ETHY   H13  830   3.372   4.769   3.431
  213ETHY    C2  831   3.333   4.663   3.230
  213ETHY   H21  832   3.320   4.556   3.190
  213ETHY   H23  833   3.424   4.711   3.176
  214ETHY    C1  834   3.197   4.751   3.195
  214ETHY   H11  835   3.107   4.704   3.251
  214ETHY   H13  836   3.211   4.859   3.236
  214ETHY    C2  837   3.159   4.762   3.034
  214ETHY   H21  838   3.140   4.656   2.991
  214ETHY   H23  839   3.246   4.811   2.976
  215ETHY    C1  840   3.023   4.854   3.016
  215ETHY   H11  841   2.937   4.805   3.077
  215ETHY   H13  842   3.043   4.959   3.062
  215ETHY    C2  843   2.970   4.875   2.861
  215ETHY   H21  844   2.945   4.773   2.814
  215ETHY   H23  845   3.053   4.926   2.798
  216ETHY    C1  846   2.835   4.971   2.862
  216ETHY   H11  847   2.754   4.920   2.928
  216ETHY   H13  848   2.863   5.072   2.912
  216ETHY    C2  849   2.770   5.003   2.713
  216ETHY   H21  850   2.738   4.904   2.663
  216ETHY   H23  851   2.849   5.055   2.647
  217ETHY    C1  852   2.637   5.102   2.730
  217ETHY   H11  853   2.561   5.049   2.799
  217ETHY   H13  854   2.671   5.199   2.782
  217ETHY    C2  855   2.563   5.140   2.587
  217ETHY   H21  856   2.527   5.043   2.536
  217ETHY   H23  857   2.639   5.193   2.518
  218ETHY    C1  858   2.432   5.242   2.610
  218ETHY   H11  859   2.359   5.187   2.683
  218ETHY   H13  860   2.471   5.337   2.665
  218ETHY    C2  861   2.352   5.285   2.472
  218ETHY   H22  862   2.264   5.354   2.497
  218ETHY   H21  863   2.312   5.191   2.420
  218ETHY   H23  864   2.424   5.339   2.401
  219THSLK  H11  865   3.851   4.126   3.143
  219THSLK  H13  866   4.025   4.178   3.099
  219THSLK   C1  867   3.920   4.218   3.126
  219THSLK   S1  868   3.929   4.323   3.284
  220ETHY    C1  869   3.862   4.299   2.992
  220ETHY   H11  870   3.756   4.339   3.016
  220ETHY   H13  871   3.931   4.390   2.971
  220ETHY    C2  872   3.854   4.206   2.855
  220ETHY   H21  873   3.784   4.116   2.874
  220ETHY   H23  874   3.960   4.165   2.830
  221ETHY    C1  875   3.798   4.294   2.727
  221ETHY   H11  876   3.693   4.335   2.753
  221ETHY   H13  877   3.869   4.384   2.710
  221ETHY    C2  878   3.786   4.210   2.584
  221ETHY   H21  879   3.713   4.122   2.596
  221ETHY   H23  880   3.890   4.169   2.554
  222ETHY    C1  881   3.731   4.312   2.466
  222ETHY   H11  882   3.628   4.355   2.499
  222ETHY   H13  883   3.805   4.401   2.457
  222ETHY    C2  884   3.713   4.245   2.315
  222ETHY   H21  885   3.637   4.158   2.320
  222ETHY   H23  886   3.815   4.203   2.279
  223ETHY    C1  887   3.660   4.361   2.210
  223ETHY   H11  888   3.559   4.403   2.250
  223ETHY   H13  889   3.737   4.448   2.209
  223ETHY    C2  890   3.637   4.310   2.054
  223ETHY   H21  891   3.557   4.226   2.052
  223ETHY   H23  892   3.736   4.268   2.012
  224ETHY    C1  893   3.586   4.437   1.960
  224ETHY   H11  894   3.488   4.479   2.005
  224ETHY   H13  895   3.666   4.521   1.965
  224ETHY    C2  896   3.560   4.398   1.802
  224ETHY   H21  897   3.478   4.316   1.796
  224ETHY   H23  898   3.657   4.356   1.756
  225ETHY    C1  899   3.511   4.531   1.712
  225ETHY   H11  900   3.414   4.572   1.762
  225ETHY   H13  901   3.593   4.612   1.722
  225ETHY    C2  902   3.482   4.499   1.552
  225ETHY   H22  903   3.449   4.595   1.499
  225ETHY   H21  904   3.399   4.421   1.542
  225ETHY   H23  905   3.577   4.459   1.503
  226AUSL   AUS  906   4.755   4.581   4.172
  227AUSL   AUS  907   4.685   4.436   3.756
  228AUL    AUL  908   4.969   4.662   3.869
  229THSLK  H11  909   4.940   4.424   3.454
  229THSLK  H13  910   5.048   4.464   3.601
  229THSLK   C1  911   4.971   4.508   3.528
  229THSLK   S1  912   4.817   4.569   3.623
  230ETHY    C1  913   5.048   4.627   3.439
  230ETHY   H11  914   4.973   4.671   3.363
  230ETHY   H13  915   5.081   4.711   3.511
  230ETHY    C2  916   5.181   4.572   3.356
  230ETHY   H21  917   5.149   4.490   3.282
  230ETHY   H23  918   5.257   4.527   3.430
  231ETHY    C1  919   5.253   4.696   3.272
  231ETHY   H11  920   5.175   4.741   3.199
  231ETHY   H13  921   5.284   4.778   3.348
  231ETHY    C2  922   5.388   4.652   3.185
  231ETHY   H21  923   5.359   4.573   3.106
  231ETHY   H23  924   5.467   4.608   3.256
  232ETHY    C1  925   5.449   4.786   3.110
  232ETHY   H11  926   5.366   4.831   3.041
  232ETHY   H13  927   5.474   4.866   3.191
  232ETHY    C2  928   5.584   4.761   3.018
  232ETHY   H21  929   5.561   4.686   2.934
  232ETHY   H23  930   5.669   4.719   3.084
  233ETHY    C1  931   5.632   4.906   2.952
  233ETHY   H11  932   5.545   4.948   2.889
  233ETHY   H13  933   5.652   4.980   3.039
  233ETHY    C2  934   5.768   4.899   2.857
  233ETHY   H21  935   5.748   4.828   2.768
  233ETHY   H23  936   5.856   4.858   2.919
  234ETHY    C1  937   5.805   5.050   2.801
  234ETHY   H11  938   5.714   5.090   2.741
  234ETHY   H13  939   5.822   5.120   2.892
  234ETHY    C2  940   5.939   5.055   2.704
  234ETHY   H21  941   5.922   4.988   2.612
  234ETHY   H23  942   6.030   5.015   2.763
  235ETHY    C1  943   5.973   5.211   2.652
  235ETHY   H11  944   5.878   5.250   2.597
  235ETHY   H13  945   5.986   5.277   2.747
  235ETHY    C2  946   6.106   5.225   2.554
  235ETHY   H22  947   6.121   5.334   2.525
  235ETHY   H21  948   6.091   5.161   2.460
  235ETHY   H23  949   6.199   5.187   2.610
  236THSLK  H11  950   5.182   4.551   4.088
  236THSLK  H13  951   5.180   4.563   4.275
  236THSLK   C1  952   5.155   4.620   4.177
  236THSLK   S1  953   4.969   4.662   4.172
  237ETHY    C1  954   5.256   4.753   4.170
  237ETHY   H11  955   5.234   4.811   4.072
  237ETHY   H13  956   5.232   4.823   4.259
  237ETHY    C2  957   5.417   4.715   4.173
  237ETHY   H21  958   5.443   4.647   4.083
  237ETHY   H23  959   5.441   4.657   4.271
  238ETHY    C1  960   5.510   4.851   4.168
  238ETHY   H11  961   5.485   4.909   4.070
  238ETHY   H13  962   5.483   4.919   4.258
  238ETHY    C2  963   5.675   4.825   4.171
  238ETHY   H21  964   5.706   4.761   4.080
  238ETHY   H23  965   5.703   4.769   4.268
  239ETHY    C1  966   5.753   4.970   4.167
  239ETHY   H11  967   5.721   5.027   4.070
  239ETHY   H13  968   5.718   5.034   4.258
  239ETHY    C2  969   5.919   4.963   4.170
  239ETHY   H21  970   5.957   4.904   4.078
  239ETHY   H23  971   5.953   4.909   4.266
  240ETHY    C1  972   5.980   5.117   4.167
  240ETHY   H11  973   5.941   5.170   4.072
  240ETHY   H13  974   5.938   5.174   4.259
  240ETHY    C2  975   6.145   5.127   4.170
  240ETHY   H21  976   6.188   5.074   4.078
  240ETHY   H23  977   6.185   5.075   4.265
  241ETHY    C1  978   6.192   5.287   4.170
  241ETHY   H11  979   6.148   5.337   4.075
  241ETHY   H13  980   6.145   5.338   4.262
  241ETHY    C2  981   6.355   5.309   4.173
  241ETHY   H21  982   6.402   5.260   4.079
  241ETHY   H23  983   6.399   5.259   4.267
  242ETHY    C1  984   6.396   5.472   4.174
  242ETHY   H11  985   6.347   5.520   4.080
  242ETHY   H13  986   6.345   5.519   4.267
  242ETHY    C2  987   6.559   5.503   4.176
  242ETHY   H22  988   6.576   5.616   4.178
  242ETHY   H21  989   6.608   5.458   4.083
  242ETHY   H23  990   6.605   5.456   4.270
  243AUSL   AUS  991   4.849   4.335   4.020
  244AUSL   AUS  992   4.849   4.008   4.324
  245AUL    AUL  993   5.156   4.172   4.172
  246THSLK  H11  994   5.220   4.248   3.913
  246THSLK  H13  995   5.252   4.265   4.097
  246THSLK   C1  996   5.228   4.324   4.000
  246THSLK   S1  997   5.063   4.417   4.020
  247ETHY    C1  998   5.359   4.423   3.969
  247ETHY   H11  999   5.339   4.482   3.872
  247ETHY   H13 1000   5.371   4.498   4.056
  247ETHY    C2 1001   5.502   4.340   3.951
  247ETHY   H21 1002   5.493   4.266   3.863
  247ETHY   H23 1003   5.524   4.280   4.048
  248ETHY    C1 1004   5.627   4.445   3.922
  248ETHY   H11 1005   5.604   4.505   3.826
  248ETHY   H13 1006   5.634   4.519   4.011
  248ETHY    C2 1007   5.776   4.373   3.903
  248ETHY   H21 1008   5.773   4.301   3.813
  248ETHY   H23 1009   5.803   4.313   3.998
  249ETHY    C1 1010   5.890   4.490   3.877
  249ETHY   H11 1011   5.859   4.551   3.783
  249ETHY   H13 1012   5.889   4.562   3.968
  249ETHY    C2 1013   6.045   4.436   3.856
  249ETHY   H21 1014   6.050   4.367   3.764
  249ETHY   H23 1015   6.078   4.376   3.949
  250ETHY    C1 1016   6.145   4.566   3.834
  250ETHY   H11 1017   6.108   4.626   3.742
  250ETHY   H13 1018   6.136   4.635   3.927
  250ETHY    C2 1019   6.305   4.529   3.812
  250ETHY   H21 1020   6.316   4.463   3.717
  250ETHY   H23 1021   6.344   4.470   3.903
  251ETHY    C1 1022   6.393   4.669   3.793
  251ETHY   H11 1023   6.350   4.727   3.703
  251ETHY   H13 1024   6.378   4.734   3.888
  251ETHY    C2 1025   6.555   4.644   3.770
  251ETHY   H21 1026   6.570   4.581   3.675
  251ETHY   H23 1027   6.597   4.586   3.860
  252ETHY    C1 1028   6.638   4.788   3.755
  252ETHY   H11 1029   6.590   4.846   3.666
  252ETHY   H13 1030   6.618   4.850   3.851
  252ETHY    C2 1031   6.801   4.772   3.731
  252ETHY   H22 1032   6.850   4.876   3.722
  252ETHY   H21 1033   6.820   4.713   3.634
  252ETHY   H23 1034   6.848   4.716   3.819
  253THSLK  H11 1035   5.139   3.693   4.256
  253THSLK  H13 1036   5.116   3.707   4.442
  253THSLK   C1 1037   5.156   3.762   4.348
  253THSLK   S1 1038   5.063   3.926   4.324
  254ETHY    C1 1039   5.321   3.779   4.367
  254ETHY   H11 1040   5.364   3.832   4.274
  254ETHY   H13 1041   5.341   3.845   4.460
  254ETHY    C2 1042   5.401   3.634   4.387
  254ETHY   H21 1043   5.384   3.568   4.295
  254ETHY   H23 1044   5.359   3.580   4.480
  255ETHY    C1 1045   5.563   3.659   4.408
  255ETHY   H11 1046   5.604   3.715   4.315
  255ETHY   H13 1047   5.579   3.727   4.500
  255ETHY    C2 1048   5.654   3.522   4.429
  255ETHY   H21 1049   5.643   3.453   4.337
  255ETHY   H23 1050   5.616   3.465   4.522
  256ETHY    C1 1051   5.812   3.563   4.450
  256ETHY   H11 1052   5.847   3.623   4.357
  256ETHY   H13 1053   5.820   3.634   4.542
  256ETHY    C2 1054   5.917   3.437   4.473
  256ETHY   H21 1055   5.915   3.367   4.381
  256ETHY   H23 1056   5.886   3.377   4.567
  257ETHY    C1 1057   6.070   3.497   4.494
  257ETHY   H11 1058   6.098   3.560   4.401
  257ETHY   H13 1059   6.069   3.569   4.586
  257ETHY    C2 1060   6.188   3.384   4.519
  257ETHY   H21 1061   6.194   3.314   4.428
  257ETHY   H23 1062   6.162   3.321   4.613
  258ETHY    C1 1063   6.335   3.459   4.541
  258ETHY   H11 1064   6.358   3.523   4.447
  258ETHY   H13 1065   6.326   3.530   4.632
  258ETHY    C2 1066   6.461   3.354   4.567
  258ETHY   H21 1067   6.471   3.285   4.476
  258ETHY   H23 1068   6.438   3.290   4.661
  259ETHY    C1 1069   6.605   3.436   4.591
  259ETHY   H11 1070   6.623   3.502   4.497
  259ETHY   H13 1071   6.590   3.507   4.681
  259ETHY    C2 1072   6.736   3.338   4.617
  259ETHY   H22 1073   6.830   3.402   4.632
  259ETHY   H21 1074   6.752   3.270   4.527
  259ETHY   H23 1075   6.719   3.274   4.710
  260AUSL   AUS 1076   4.849   4.335   4.324
  261AUSL   AUS 1077   4.591   4.682   4.437
  262AUL    AUL 1078   4.969   4.662   4.475
  263THSLK  H11 1079   4.974   4.769   4.585
  263THSLK  H13 1080   4.889   4.746   4.750
  263THSLK   C1 1081   4.893   4.813   4.656
  263THSLK   S1 1082   4.724   4.814   4.569
  264ETHY    C1 1083   4.946   4.964   4.704
  264ETHY   H11 1084   4.954   5.032   4.612
  264ETHY   H13 1085   4.869   5.009   4.778
  264ETHY    C2 1086   5.095   4.961   4.780
  264ETHY   H21 1087   5.174   4.919   4.707
  264ETHY   H23 1088   5.090   4.893   4.873
  265ETHY    C1 1089   5.140   5.113   4.826
  265ETHY   H11 1090   5.144   5.181   4.732
  265ETHY   H13 1091   5.059   5.155   4.898
  265ETHY    C2 1092   5.287   5.123   4.903
  265ETHY   H21 1093   5.370   5.085   4.832
  265ETHY   H23 1094   5.286   5.057   4.998
  266ETHY    C1 1095   5.316   5.280   4.945
  266ETHY   H11 1096   5.314   5.345   4.848
  266ETHY   H13 1097   5.230   5.316   5.014
  266ETHY    C2 1098   5.460   5.308   5.023
  266ETHY   H21 1099   5.548   5.277   4.955
  266ETHY   H23 1100   5.464   5.246   5.120
  267ETHY    C1 1101   5.471   5.469   5.059
  267ETHY   H11 1102   5.464   5.529   4.960
  267ETHY   H13 1103   5.380   5.498   5.125
  267ETHY    C2 1104   5.609   5.515   5.138
  267ETHY   H21 1105   5.701   5.490   5.072
  267ETHY   H23 1106   5.618   5.456   5.237
  268ETHY    C1 1107   5.606   5.678   5.170
  268ETHY   H11 1108   5.595   5.734   5.069
  268ETHY   H13 1109   5.512   5.700   5.234
  268ETHY    C2 1110   5.739   5.734   5.249
  268ETHY   H21 1111   5.833   5.714   5.184
  268ETHY   H23 1112   5.751   5.678   5.349
  269ETHY    C1 1113   5.729   5.898   5.279
  269ETHY   H11 1114   5.714   5.952   5.177
  269ETHY   H13 1115   5.632   5.915   5.342
  269ETHY    C2 1116   5.859   5.963   5.358
  269ETHY   H22 1117   5.843   6.075   5.375
  269ETHY   H21 1118   5.954   5.948   5.295
  269ETHY   H23 1119   5.873   5.911   5.459
  270THSLK  H11 1120   5.247   4.252   4.265
  270THSLK  H13 1121   5.218   4.260   4.450
  270THSLK   C1 1122   5.226   4.324   4.354
  270THSLK   S1 1123   5.063   4.417   4.324
  271ETHY    C1 1124   5.360   4.423   4.370
  271ETHY   H11 1125   5.371   4.487   4.274
  271ETHY   H13 1126   5.342   4.494   4.460
  271ETHY    C2 1127   5.502   4.340   4.396
  271ETHY   H21 1128   5.522   4.270   4.306
  271ETHY   H23 1129   5.492   4.276   4.491
  272ETHY    C1 1130   5.629   4.445   4.413
  272ETHY   H11 1131   5.637   4.510   4.317
  272ETHY   H13 1132   5.607   4.515   4.502
  272ETHY    C2 1133   5.776   4.373   4.439
  272ETHY   H21 1134   5.803   4.305   4.350
  272ETHY   H23 1135   5.772   4.309   4.535
  273ETHY    C1 1136   5.891   4.490   4.457
  273ETHY   H11 1137   5.892   4.555   4.360
  273ETHY   H13 1138   5.861   4.559   4.545
  273ETHY    C2 1139   6.046   4.436   4.484
  273ETHY   H21 1140   6.080   4.371   4.395
  273ETHY   H23 1141   6.048   4.372   4.580
  274ETHY    C1 1142   6.146   4.566   4.501
  274ETHY   H11 1143   6.140   4.630   4.404
  274ETHY   H13 1144   6.108   4.631   4.589
  274ETHY    C2 1145   6.305   4.529   4.529
  274ETHY   H21 1146   6.347   4.468   4.441
  274ETHY   H23 1147   6.314   4.466   4.625
  275ETHY    C1 1148   6.394   4.669   4.546
  275ETHY   H11 1149   6.382   4.731   4.449
  275ETHY   H13 1150   6.349   4.730   4.634
  275ETHY    C2 1151   6.555   4.644   4.575
  275ETHY   H21 1152   6.600   4.585   4.487
  275ETHY   H23 1153   6.567   4.581   4.671
  276ETHY    C1 1154   6.637   4.788   4.593
  276ETHY   H11 1155   6.620   4.850   4.497
  276ETHY   H13 1156   6.587   4.846   4.681
  276ETHY    C2 1157   6.800   4.772   4.622
  276ETHY   H22 1158   6.848   4.875   4.634
  276ETHY   H21 1159   6.849   4.717   4.535
  276ETHY   H23 1160   6.816   4.712   4.718
  277AUSL   AUS 1161   3.595   4.581   4.172
  278AUSL   AUS 1162   3.665   4.436   4.588
  279AUL    AUL 1163   3.381   4.662   4.475
  280THSLK  H11 1164   3.585   4.601   4.968
  280THSLK  H13 1165   3.467   4.458   4.941
  280THSLK   C1 1166   3.493   4.567   4.907
  280THSLK   S1 1167   3.532   4.569   4.721
  281ETHY    C1 1168   3.364   4.664   4.951
  281ETHY   H11 1169   3.388   4.773   4.920
  281ETHY   H13 1170   3.270   4.629   4.894
  281ETHY    C2 1171   3.332   4.661   5.114
  281ETHY   H21 1172   3.424   4.698   5.173
  281ETHY   H23 1173   3.308   4.553   5.147
  282ETHY    C1 1174   3.202   4.758   5.150
  282ETHY   H11 1175   3.227   4.866   5.115
  282ETHY   H13 1176   3.110   4.721   5.090
  282ETHY    C2 1177   3.160   4.763   5.310
  282ETHY   H21 1178   3.248   4.804   5.373
  282ETHY   H23 1179   3.134   4.657   5.347
  283ETHY    C1 1180   3.029   4.862   5.329
  283ETHY   H11 1181   3.056   4.968   5.289
  283ETHY   H13 1182   2.942   4.821   5.263
  283ETHY    C2 1183   2.973   4.879   5.484
  283ETHY   H21 1184   3.056   4.924   5.551
  283ETHY   H23 1185   2.943   4.775   5.526
  284ETHY    C1 1186   2.841   4.979   5.483
  284ETHY   H11 1187   2.873   5.081   5.438
  284ETHY   H13 1188   2.761   4.933   5.413
  284ETHY    C2 1189   2.772   5.006   5.631
  284ETHY   H21 1190   2.849   5.055   5.701
  284ETHY   H23 1191   2.739   4.905   5.677
  285ETHY    C1 1192   2.640   5.105   5.615
  285ETHY   H11 1193   2.675   5.205   5.566
  285ETHY   H13 1194   2.565   5.055   5.543
  285ETHY    C2 1195   2.563   5.139   5.757
  285ETHY   H21 1196   2.636   5.192   5.829
  285ETHY   H23 1197   2.528   5.041   5.806
  286ETHY    C1 1198   2.429   5.238   5.733
  286ETHY   H11 1199   2.467   5.335   5.681
  286ETHY   H13 1200   2.359   5.184   5.659
  286ETHY    C2 1201   2.346   5.277   5.872
  286ETHY   H22 1202   2.257   5.344   5.846
  286ETHY   H21 1203   2.416   5.333   5.944
  286ETHY   H23 1204   2.309   5.182   5.922
  287THSLK  H11 1205   3.385   4.903   4.088
  287THSLK  H13 1206   3.375   4.895   4.275
  287THSLK   C1 1207   3.335   4.847   4.177
  287THSLK   S1 1208   3.381   4.662   4.172
  288ETHY    C1 1209   3.171   4.878   4.170
  288ETHY   H11 1210   3.129   4.833   4.072
  288ETHY   H13 1211   3.120   4.826   4.259
  288ETHY    C2 1212   3.134   5.040   4.173
  288ETHY   H21 1213   3.182   5.093   4.083
  288ETHY   H23 1214   3.175   5.087   4.271
  289ETHY    C1 1215   2.970   5.062   4.168
  289ETHY   H11 1216   2.929   5.014   4.070
  289ETHY   H13 1217   2.921   5.007   4.258
  289ETHY    C2 1218   2.920   5.221   4.171
  289ETHY   H21 1219   2.963   5.277   4.080
  289ETHY   H23 1220   2.958   5.271   4.268
  290ETHY    C1 1221   2.755   5.226   4.167
  290ETHY   H11 1222   2.718   5.172   4.070
  290ETHY   H13 1223   2.714   5.167   4.258
  290ETHY    C2 1224   2.687   5.377   4.170
  290ETHY   H21 1225   2.723   5.438   4.078
  290ETHY   H23 1226   2.720   5.433   4.266
  291ETHY    C1 1227   2.522   5.363   4.167
  291ETHY   H11 1228   2.492   5.305   4.072
  291ETHY   H13 1229   2.490   5.300   4.259
  291ETHY    C2 1230   2.439   5.506   4.170
  291ETHY   H21 1231   2.468   5.569   4.078
  291ETHY   H23 1232   2.468   5.565   4.265
  292ETHY    C1 1233   2.276   5.477   4.170
  292ETHY   H11 1234   2.250   5.416   4.075
  292ETHY   H13 1235   2.250   5.412   4.262
  292ETHY    C2 1236   2.182   5.613   4.173
  292ETHY   H21 1237   2.206   5.677   4.079
  292ETHY   H23 1238   2.208   5.675   4.267
  293ETHY    C1 1239   2.019   5.577   4.174
  293ETHY   H11 1240   1.997   5.512   4.080
  293ETHY   H13 1241   1.999   5.510   4.267
  293ETHY    C2 1242   1.918   5.708   4.176
  293ETHY   H22 1243   1.809   5.674   4.178
  293ETHY   H21 1244   1.936   5.772   4.083
  293ETHY   H23 1245   1.939   5.771   4.270
  294AUSL   AUS 1246   3.501   4.335   4.020
  295AUSL   AUS 1247   3.758   4.682   3.907
  296AUL    AUL 1248   3.381   4.662   3.869
  297THSLK  H11 1249   3.211   4.461   3.782
  297THSLK  H13 1250   3.234   4.620   3.877
  297THSLK   C1 1251   3.194   4.512   3.884
  297THSLK   S1 1252   3.287   4.417   4.020
  298ETHY    C1 1253   3.029   4.522   3.908
  298ETHY   H11 1254   2.985   4.415   3.914
  298ETHY   H13 1255   3.008   4.575   4.009
  298ETHY    C2 1256   2.949   4.604   3.788
  298ETHY   H21 1257   2.966   4.551   3.687
  298ETHY   H23 1258   2.990   4.712   3.781
  299ETHY    C1 1259   2.786   4.611   3.819
  299ETHY   H11 1260   2.745   4.503   3.828
  299ETHY   H13 1261   2.771   4.664   3.922
  299ETHY    C2 1262   2.696   4.692   3.706
  299ETHY   H21 1263   2.706   4.640   3.603
  299ETHY   H23 1264   2.733   4.801   3.696
  300ETHY    C1 1265   2.537   4.692   3.752
  300ETHY   H11 1266   2.502   4.582   3.764
  300ETHY   H13 1267   2.530   4.743   3.857
  300ETHY    C2 1268   2.432   4.769   3.650
  300ETHY   H21 1269   2.434   4.718   3.546
  300ETHY   H23 1270   2.464   4.880   3.638
  301ETHY    C1 1271   2.279   4.761   3.713
  301ETHY   H11 1272   2.251   4.650   3.727
  301ETHY   H13 1273   2.281   4.811   3.818
  301ETHY    C2 1274   2.162   4.834   3.623
  301ETHY   H21 1275   2.156   4.784   3.519
  301ETHY   H23 1276   2.188   4.946   3.609
  302ETHY    C1 1277   2.015   4.821   3.699
  302ETHY   H11 1278   1.992   4.708   3.715
  302ETHY   H13 1279   2.024   4.870   3.804
  302ETHY    C2 1280   1.889   4.891   3.618
  302ETHY   H21 1281   1.878   4.840   3.515
  302ETHY   H23 1282   1.912   5.003   3.602
  303ETHY    C1 1283   1.745   4.875   3.701
  303ETHY   H11 1284   1.727   4.761   3.718
  303ETHY   H13 1285   1.760   4.924   3.806
  303ETHY    C2 1286   1.613   4.942   3.626
  303ETHY   H22 1287   1.520   4.927   3.690
  303ETHY   H21 1288   1.597   4.892   3.524
  303ETHY   H23 1289   1.631   5.054   3.610
  304THSLK  H11 1290   3.661   4.870   3.529
  304THSLK  H13 1291   3.729   5.004   3.640
  304THSLK   C1 1292   3.640   4.931   3.625
  304THSLK   S1 1293   3.626   4.814   3.775
  305ETHY    C1 1294   3.504   5.024   3.598
  305ETHY   H11 1295   3.414   4.954   3.580
  305ETHY   H13 1296   3.483   5.088   3.691
  305ETHY    C2 1297   3.518   5.125   3.466
  305ETHY   H21 1298   3.536   5.062   3.371
  305ETHY   H23 1299   3.608   5.196   3.482
  306ETHY    C1 1300   3.380   5.215   3.446
  306ETHY   H11 1301   3.291   5.143   3.432
  306ETHY   H13 1302   3.362   5.276   3.543
  306ETHY    C2 1303   3.383   5.320   3.318
  306ETHY   H21 1304   3.397   5.261   3.219
  306ETHY   H23 1305   3.470   5.394   3.330
  307ETHY    C1 1306   3.240   5.403   3.313
  307ETHY   H11 1307   3.153   5.327   3.304
  307ETHY   H13 1308   3.227   5.459   3.414
  307ETHY    C2 1309   3.225   5.513   3.190
  307ETHY   H21 1310   3.233   5.460   3.088
  307ETHY   H23 1311   3.310   5.592   3.198
  308ETHY    C1 1312   3.078   5.588   3.202
  308ETHY   H11 1313   2.995   5.507   3.197
  308ETHY   H13 1314   3.072   5.639   3.306
  308ETHY    C2 1315   3.047   5.702   3.086
  308ETHY   H21 1316   3.050   5.653   2.982
  308ETHY   H23 1317   3.128   5.785   3.091
  309ETHY    C1 1318   2.898   5.771   3.112
  309ETHY   H11 1319   2.819   5.686   3.110
  309ETHY   H13 1320   2.898   5.818   3.218
  309ETHY    C2 1321   2.856   5.887   3.002
  309ETHY   H21 1322   2.854   5.840   2.897
  309ETHY   H23 1323   2.935   5.971   3.004
  310ETHY    C1 1324   2.706   5.953   3.035
  310ETHY   H11 1325   2.630   5.865   3.036
  310ETHY   H13 1326   2.711   5.996   3.143
  310ETHY    C2 1327   2.657   6.070   2.929
  310ETHY   H22 1328   2.554   6.109   2.960
  310ETHY   H21 1329   2.650   6.026   2.823
  310ETHY   H23 1330   2.732   6.156   2.929
  311AUSL   AUS 1331   3.501   4.335   4.324
  312AUSL   AUS 1332   3.501   4.008   4.020
  313AUL    AUL 1333   3.193   4.172   4.172
  314THSLK  H11 1334   3.102   4.052   4.142
  314THSLK  H13 1335   3.131   3.883   4.217
  314THSLK   C1 1336   3.123   3.941   4.117
  314THSLK   S1 1337   3.287   3.926   4.020
  315ETHY    C1 1338   2.990   3.882   4.036
  315ETHY   H11 1339   2.979   3.939   3.936
  315ETHY   H13 1340   3.007   3.770   4.012
  315ETHY    C2 1341   2.848   3.896   4.122
  315ETHY   H21 1342   2.828   4.008   4.144
  315ETHY   H23 1343   2.858   3.839   4.222
  316ETHY    C1 1344   2.721   3.834   4.036
  316ETHY   H11 1345   2.713   3.891   3.935
  316ETHY   H13 1346   2.743   3.722   4.012
  316ETHY    C2 1347   2.574   3.843   4.112
  316ETHY   H21 1348   2.547   3.953   4.132
  316ETHY   H23 1349   2.578   3.786   4.212
  317ETHY    C1 1350   2.458   3.775   4.014
  317ETHY   H11 1351   2.457   3.832   3.913
  317ETHY   H13 1352   2.489   3.665   3.993
  317ETHY    C2 1353   2.304   3.775   4.075
  317ETHY   H21 1354   2.269   3.883   4.094
  317ETHY   H23 1355   2.302   3.717   4.175
  318ETHY    C1 1356   2.203   3.701   3.966
  318ETHY   H11 1357   2.210   3.759   3.866
  318ETHY   H13 1358   2.242   3.593   3.948
  318ETHY    C2 1359   2.044   3.692   4.012
  318ETHY   H21 1360   2.003   3.799   4.027
  318ETHY   H23 1361   2.036   3.634   4.111
  319ETHY    C1 1362   1.956   3.615   3.895
  319ETHY   H11 1363   1.968   3.673   3.795
  319ETHY   H13 1364   2.001   3.509   3.880
  319ETHY    C2 1365   1.795   3.600   3.930
  319ETHY   H21 1366   1.749   3.705   3.943
  319ETHY   H23 1367   1.783   3.542   4.029
  320ETHY    C1 1368   1.712   3.519   3.809
  320ETHY   H11 1369   1.729   3.578   3.710
  320ETHY   H13 1370   1.763   3.415   3.796
  320ETHY    C2 1371   1.550   3.500   3.836
  320ETHY   H22 1372   1.502   3.444   3.749
  320ETHY   H21 1373   1.500   3.603   3.846
  320ETHY   H23 1374   1.533   3.442   3.933
  321THSLK  H11 1375   3.238   4.608   4.485
  321THSLK  H13 1376   3.201   4.441   4.562
  321THSLK   C1 1377   3.192   4.503   4.465
  321THSLK   S1 1378   3.287   4.417   4.324
  322ETHY    C1 1379   3.029   4.526   4.434
  322ETHY   H11 1380   3.018   4.590   4.338
  322ETHY   H13 1381   2.980   4.423   4.416
  322ETHY    C2 1382   2.948   4.602   4.558
  322ETHY   H21 1383   2.994   4.706   4.576
  322ETHY   H23 1384   2.958   4.540   4.654
  323ETHY    C1 1385   2.788   4.619   4.521
  323ETHY   H11 1386   2.778   4.681   4.423
  323ETHY   H13 1387   2.743   4.514   4.502
  323ETHY    C2 1388   2.696   4.694   4.638
  323ETHY   H21 1389   2.736   4.801   4.656
  323ETHY   H23 1390   2.702   4.634   4.736
  324ETHY    C1 1391   2.539   4.701   4.587
  324ETHY   H11 1392   2.535   4.759   4.487
  324ETHY   H13 1393   2.502   4.593   4.567
  324ETHY    C2 1394   2.433   4.773   4.692
  324ETHY   H21 1395   2.465   4.883   4.711
  324ETHY   H23 1396   2.433   4.716   4.793
  325ETHY    C1 1397   2.281   4.770   4.627
  325ETHY   H11 1398   2.284   4.825   4.525
  325ETHY   H13 1399   2.253   4.659   4.606
  325ETHY    C2 1400   2.162   4.838   4.720
  325ETHY   H21 1401   2.187   4.949   4.738
  325ETHY   H23 1402   2.157   4.783   4.821
  326ETHY    C1 1403   2.016   4.825   4.643
  326ETHY   H11 1404   2.024   4.878   4.540
  326ETHY   H13 1405   1.994   4.712   4.623
  326ETHY    C2 1406   1.889   4.890   4.727
  326ETHY   H21 1407   1.909   5.002   4.744
  326ETHY   H23 1408   1.881   4.837   4.829
  327ETHY    C1 1409   1.744   4.871   4.645
  327ETHY   H11 1410   1.757   4.922   4.541
  327ETHY   H13 1411   1.729   4.758   4.626
  327ETHY    C2 1412   1.612   4.934   4.723
  327ETHY   H22 1413   1.518   4.917   4.660
  327ETHY   H21 1414   1.626   5.047   4.738
  327ETHY   H23 1415   1.599   4.884   4.824
  328AUSL   AUS 1416   4.755   3.763   4.172
  329AUSL   AUS 1417   4.685   3.907   4.588
  330AUL    AUL 1418   4.969   3.681   4.475
  331THSLK  H11 1419   4.965   3.441   4.088
  331THSLK  H13 1420   4.975   3.448   4.275
  331THSLK   C1 1421   5.015   3.496   4.177
  331THSLK   S1 1422   4.969   3.681   4.172
  332ETHY    C1 1423   5.178   3.465   4.170
  332ETHY   H11 1424   5.220   3.510   4.072
  332ETHY   H13 1425   5.230   3.517   4.259
  332ETHY    C2 1426   5.216   3.303   4.173
  332ETHY   H21 1427   5.167   3.250   4.083
  332ETHY   H23 1428   5.175   3.256   4.271
  333ETHY    C1 1429   5.380   3.281   4.168
  333ETHY   H11 1430   5.421   3.329   4.070
  333ETHY   H13 1431   5.428   3.336   4.258
  333ETHY    C2 1432   5.430   3.122   4.171
  333ETHY   H21 1433   5.387   3.066   4.080
  333ETHY   H23 1434   5.392   3.072   4.268
  334ETHY    C1 1435   5.595   3.117   4.167
  334ETHY   H11 1436   5.631   3.171   4.070
  334ETHY   H13 1437   5.636   3.177   4.258
  334ETHY    C2 1438   5.662   2.966   4.170
  334ETHY   H21 1439   5.627   2.906   4.078
  334ETHY   H23 1440   5.629   2.911   4.266
  335ETHY    C1 1441   5.827   2.980   4.167
  335ETHY   H11 1442   5.858   3.038   4.072
  335ETHY   H13 1443   5.860   3.043   4.259
  335ETHY    C2 1444   5.910   2.837   4.170
  335ETHY   H21 1445   5.882   2.774   4.078
  335ETHY   H23 1446   5.882   2.778   4.265
  336ETHY    C1 1447   6.074   2.866   4.170
  336ETHY   H11 1448   6.100   2.928   4.075
  336ETHY   H13 1449   6.099   2.931   4.262
  336ETHY    C2 1450   6.167   2.730   4.173
  336ETHY   H21 1451   6.144   2.666   4.079
  336ETHY   H23 1452   6.142   2.669   4.267
  337ETHY    C1 1453   6.331   2.767   4.174
  337ETHY   H11 1454   6.352   2.831   4.080
  337ETHY   H13 1455   6.350   2.833   4.267
  337ETHY    C2 1456   6.432   2.635   4.176
  337ETHY   H22 1457   6.541   2.670   4.178
  337ETHY   H21 1458   6.414   2.571   4.083
  337ETHY   H23 1459   6.411   2.572   4.270
  338THSLK  H11 1460   4.863   3.525   4.696
  338THSLK  H13 1461   4.761   3.562   4.848
  338THSLK   C1 1462   4.851   3.598   4.785
  338THSLK   S1 1463   4.817   3.775   4.721
  339ETHY    C1 1464   4.988   3.585   4.879
  339ETHY   H11 1465   5.080   3.619   4.818
  339ETHY   H13 1466   4.978   3.654   4.971
  339ETHY    C2 1467   5.016   3.430   4.934
  339ETHY   H21 1468   5.030   3.359   4.844
  339ETHY   H23 1469   4.926   3.394   4.996
  340ETHY    C1 1470   5.153   3.425   5.028
  340ETHY   H11 1471   5.243   3.463   4.965
  340ETHY   H13 1472   5.138   3.497   5.118
  340ETHY    C2 1473   5.191   3.275   5.089
  340ETHY   H21 1474   5.210   3.202   5.002
  340ETHY   H23 1475   5.103   3.236   5.153
  341ETHY    C1 1476   5.327   3.287   5.182
  341ETHY   H11 1477   5.413   3.330   5.116
  341ETHY   H13 1478   5.307   3.363   5.267
  341ETHY    C2 1479   5.379   3.146   5.251
  341ETHY   H21 1480   5.405   3.069   5.168
  341ETHY   H23 1481   5.296   3.102   5.318
  342ETHY    C1 1482   5.514   3.177   5.341
  342ETHY   H11 1483   5.595   3.223   5.272
  342ETHY   H13 1484   5.487   3.256   5.422
  342ETHY    C2 1485   5.580   3.046   5.418
  342ETHY   H21 1486   5.612   2.967   5.339
  342ETHY   H23 1487   5.501   2.999   5.488
  343ETHY    C1 1488   5.713   3.092   5.507
  343ETHY   H11 1489   5.789   3.141   5.435
  343ETHY   H13 1490   5.679   3.173   5.583
  343ETHY    C2 1491   5.786   2.969   5.588
  343ETHY   H21 1492   5.822   2.890   5.512
  343ETHY   H23 1493   5.710   2.920   5.659
  344ETHY    C1 1494   5.918   3.023   5.677
  344ETHY   H11 1495   5.991   3.075   5.602
  344ETHY   H13 1496   5.879   3.104   5.750
  344ETHY    C2 1497   5.998   2.904   5.761
  344ETHY   H22 1498   6.085   2.950   5.819
  344ETHY   H21 1499   6.038   2.826   5.688
  344ETHY   H23 1500   5.926   2.854   5.835
  345AUSL   AUS 1501   4.849   4.008   4.020
  346AUSL   AUS 1502   4.591   3.661   3.907
  347AUL    AUL 1503   4.969   3.681   3.869
  348THSLK  H11 1504   5.111   3.697   3.922
  348THSLK  H13 1505   5.149   3.702   4.105
  348THSLK   C1 1506   5.158   3.762   4.006
  348THSLK   S1 1507   5.063   3.926   4.020
  349ETHY    C1 1508   5.320   3.779   3.972
  349ETHY   H11 1509   5.332   3.836   3.872
  349ETHY   H13 1510   5.370   3.841   4.056
  349ETHY    C2 1511   5.401   3.634   3.960
  349ETHY   H21 1512   5.355   3.571   3.874
  349ETHY   H23 1513   5.391   3.576   4.059
  350ETHY    C1 1514   5.562   3.660   3.928
  350ETHY   H11 1515   5.571   3.720   3.829
  350ETHY   H13 1516   5.607   3.724   4.013
  350ETHY    C2 1517   5.654   3.522   3.913
  350ETHY   H21 1518   5.614   3.457   3.826
  350ETHY   H23 1519   5.647   3.460   4.011
  351ETHY    C1 1520   5.811   3.564   3.884
  351ETHY   H11 1521   5.814   3.627   3.787
  351ETHY   H13 1522   5.848   3.630   3.972
  351ETHY    C2 1523   5.917   3.437   3.867
  351ETHY   H21 1524   5.885   3.372   3.777
  351ETHY   H23 1525   5.916   3.373   3.963
  352ETHY    C1 1526   6.069   3.498   3.840
  352ETHY   H11 1527   6.066   3.564   3.745
  352ETHY   H13 1528   6.097   3.565   3.930
  352ETHY    C2 1529   6.187   3.384   3.821
  352ETHY   H21 1530   6.163   3.318   3.730
  352ETHY   H23 1531   6.192   3.317   3.915
  353ETHY    C1 1532   6.334   3.459   3.798
  353ETHY   H11 1533   6.326   3.527   3.705
  353ETHY   H13 1534   6.355   3.526   3.890
  353ETHY    C2 1535   6.461   3.354   3.778
  353ETHY   H21 1536   6.441   3.289   3.685
  353ETHY   H23 1537   6.469   3.286   3.871
  354ETHY    C1 1538   6.606   3.436   3.757
  354ETHY   H11 1539   6.593   3.506   3.666
  354ETHY   H13 1540   6.621   3.503   3.851
  354ETHY    C2 1541   6.738   3.338   3.736
  354ETHY   H22 1542   6.832   3.402   3.723
  354ETHY   H21 1543   6.723   3.274   3.642
  354ETHY   H23 1544   6.751   3.270   3.827
  355THSLK  H11 1545   4.618   3.315   3.687
  355THSLK  H13 1546   4.708   3.286   3.848
  355THSLK   C1 1547   4.714   3.341   3.746
  355THSLK   S1 1548   4.724   3.529   3.775
  356ETHY    C1 1549   4.843   3.277   3.662
  356ETHY   H11 1550   4.851   3.330   3.559
  356ETHY   H13 1551   4.940   3.299   3.721
  356ETHY    C2 1552   4.833   3.113   3.638
  356ETHY   H21 1553   4.738   3.090   3.577
  356ETHY   H23 1554   4.826   3.059   3.740
  357ETHY    C1 1555   4.966   3.058   3.556
  357ETHY   H11 1556   4.973   3.113   3.454
  357ETHY   H13 1557   5.060   3.083   3.617
  357ETHY    C2 1558   4.966   2.894   3.525
  357ETHY   H21 1559   4.875   2.866   3.461
  357ETHY   H23 1560   4.961   2.836   3.625
  358ETHY    C1 1561   5.105   2.854   3.445
  358ETHY   H11 1562   5.110   2.916   3.347
  358ETHY   H13 1563   5.196   2.886   3.511
  358ETHY    C2 1564   5.122   2.694   3.407
  358ETHY   H21 1565   5.036   2.661   3.338
  358ETHY   H23 1566   5.120   2.630   3.504
  359ETHY    C1 1567   5.268   2.672   3.330
  359ETHY   H11 1568   5.269   2.739   3.236
  359ETHY   H13 1569   5.352   2.709   3.401
  359ETHY    C2 1570   5.301   2.517   3.285
  359ETHY   H21 1571   5.220   2.479   3.212
  359ETHY   H23 1572   5.301   2.449   3.379
  360ETHY    C1 1573   5.450   2.510   3.212
  360ETHY   H11 1574   5.448   2.580   3.120
  360ETHY   H13 1575   5.529   2.549   3.286
  360ETHY    C2 1576   5.494   2.358   3.162
  360ETHY   H21 1577   5.416   2.319   3.086
  360ETHY   H23 1578   5.495   2.287   3.254
  361ETHY    C1 1579   5.645   2.358   3.091
  361ETHY   H11 1580   5.642   2.432   3.002
  361ETHY   H13 1581   5.720   2.400   3.169
  361ETHY    C2 1582   5.697   2.209   3.038
  361ETHY   H22 1583   5.801   2.218   2.992
  361ETHY   H21 1584   5.624   2.169   2.960
  361ETHY   H23 1585   5.701   2.136   3.126
  362AUSL   AUS 1586   3.595   3.763   4.172
  363AUSL   AUS 1587   3.665   3.907   3.756
  364AUL    AUL 1588   3.381   3.681   3.869
  365THSLK  H11 1589   3.311   3.703   3.726
  365THSLK  H13 1590   3.422   3.556   3.694
  365THSLK   C1 1591   3.385   3.657   3.650
  365THSLK   S1 1592   3.532   3.775   3.623
  366ETHY    C1 1593   3.299   3.622   3.511
  366ETHY   H11 1594   3.259   3.720   3.466
  366ETHY   H13 1595   3.370   3.573   3.434
  366ETHY    C2 1596   3.170   3.519   3.536
  366ETHY   H21 1597   3.097   3.568   3.611
  366ETHY   H23 1598   3.209   3.420   3.581
  367ETHY    C1 1599   3.092   3.488   3.394
  367ETHY   H11 1600   3.055   3.588   3.349
  367ETHY   H13 1601   3.167   3.441   3.320
  367ETHY    C2 1602   2.961   3.386   3.407
  367ETHY   H21 1603   2.882   3.432   3.477
  367ETHY   H23 1604   2.995   3.285   3.450
  368ETHY    C1 1605   2.895   3.363   3.257
  368ETHY   H11 1606   2.864   3.467   3.214
  368ETHY   H13 1607   2.977   3.319   3.187
  368ETHY    C2 1608   2.763   3.263   3.251
  368ETHY   H21 1609   2.678   3.307   3.316
  368ETHY   H23 1610   2.791   3.159   3.292
  369ETHY    C1 1611   2.712   3.250   3.094
  369ETHY   H11 1612   2.687   3.356   3.055
  369ETHY   H13 1613   2.800   3.209   3.031
  369ETHY    C2 1614   2.580   3.153   3.071
  369ETHY   H21 1615   2.490   3.195   3.130
  369ETHY   H23 1616   2.603   3.046   3.109
  370ETHY    C1 1617   2.542   3.148   2.909
  370ETHY   H11 1618   2.521   3.256   2.873
  370ETHY   H13 1619   2.634   3.107   2.852
  370ETHY    C2 1620   2.411   3.053   2.874
  370ETHY   H21 1621   2.319   3.094   2.929
  370ETHY   H23 1622   2.431   2.945   2.910
  371ETHY    C1 1623   2.379   3.050   2.709
  371ETHY   H11 1624   2.363   3.160   2.675
  371ETHY   H13 1625   2.475   3.011   2.656
  371ETHY    C2 1626   2.249   2.957   2.665
  371ETHY   H22 1627   2.236   2.961   2.552
  371ETHY   H21 1628   2.154   2.997   2.716
  371ETHY   H23 1629   2.266   2.849   2.698
  372THSLK  H11 1630   3.168   3.792   4.088
  372THSLK  H13 1631   3.170   3.780   4.275
  372THSLK   C1 1632   3.195   3.723   4.177
  372THSLK   S1 1633   3.381   3.681   4.172
  373ETHY    C1 1634   3.094   3.590   4.170
  373ETHY   H11 1635   3.116   3.532   4.072
  373ETHY   H13 1636   3.117   3.521   4.259
  373ETHY    C2 1637   2.932   3.629   4.173
  373ETHY   H21 1638   2.907   3.696   4.083
  373ETHY   H23 1639   2.909   3.686   4.271
  374ETHY    C1 1640   2.839   3.492   4.168
  374ETHY   H11 1641   2.864   3.434   4.070
  374ETHY   H13 1642   2.867   3.424   4.258
  374ETHY    C2 1643   2.675   3.518   4.171
  374ETHY   H21 1644   2.644   3.582   4.080
  374ETHY   H23 1645   2.647   3.575   4.268
  375ETHY    C1 1646   2.597   3.373   4.167
  375ETHY   H11 1647   2.629   3.317   4.070
  375ETHY   H13 1648   2.632   3.310   4.258
  375ETHY    C2 1649   2.431   3.380   4.170
  375ETHY   H21 1650   2.393   3.439   4.078
  375ETHY   H23 1651   2.396   3.435   4.266
  376ETHY    C1 1652   2.370   3.227   4.167
  376ETHY   H11 1653   2.409   3.173   4.072
  376ETHY   H13 1654   2.412   3.169   4.259
  376ETHY    C2 1655   2.205   3.216   4.170
  376ETHY   H21 1656   2.161   3.270   4.078
  376ETHY   H23 1657   2.165   3.268   4.265
  377ETHY    C1 1658   2.158   3.057   4.170
  377ETHY   H11 1659   2.201   3.006   4.075
  377ETHY   H13 1660   2.205   3.005   4.262
  377ETHY    C2 1661   1.994   3.034   4.173
  377ETHY   H21 1662   1.948   3.084   4.079
  377ETHY   H23 1663   1.951   3.084   4.267
  378ETHY    C1 1664   1.954   2.872   4.174
  378ETHY   H11 1665   2.002   2.823   4.080
  378ETHY   H13 1666   2.005   2.824   4.267
  378ETHY    C2 1667   1.791   2.840   4.176
  378ETHY   H22 1668   1.773   2.727   4.178
  378ETHY   H21 1669   1.742   2.885   4.083
  378ETHY   H23 1670   1.744   2.887   4.270
  379AUSL   AUS 1671   3.501   4.008   4.324
  380AUSL   AUS 1672   3.758   3.661   4.437
  381AUL    AUL 1673   3.381   3.681   4.475
  382THSLK  H11 1674   3.448   3.416   4.428
  382THSLK  H13 1675   3.373   3.544   4.542
  382THSLK   C1 1676   3.452   3.459   4.535
  382THSLK   S1 1677   3.626   3.529   4.569
  383ETHY    C1 1678   3.405   3.338   4.640
  383ETHY   H11 1679   3.481   3.251   4.633
  383ETHY   H13 1680   3.406   3.379   4.748
  383ETHY    C2 1681   3.254   3.277   4.608
  383ETHY   H21 1682   3.251   3.233   4.501
  383ETHY   H23 1683   3.176   3.363   4.615
  384ETHY    C1 1684   3.214   3.159   4.717
  384ETHY   H11 1685   3.293   3.074   4.711
  384ETHY   H13 1686   3.218   3.204   4.824
  384ETHY    C2 1687   3.063   3.091   4.695
  384ETHY   H21 1688   3.058   3.042   4.591
  384ETHY   H23 1689   2.982   3.173   4.702
  385ETHY    C1 1690   3.038   2.977   4.812
  385ETHY   H11 1691   3.122   2.898   4.805
  385ETHY   H13 1692   3.047   3.029   4.916
  385ETHY    C2 1693   2.892   2.899   4.806
  385ETHY   H21 1694   2.882   2.843   4.705
  385ETHY   H23 1695   2.806   2.976   4.814
  386ETHY    C1 1696   2.883   2.791   4.931
  386ETHY   H11 1697   2.971   2.717   4.921
  386ETHY   H13 1698   2.896   2.850   5.030
  386ETHY    C2 1699   2.742   2.705   4.939
  386ETHY   H21 1700   2.729   2.643   4.842
  386ETHY   H23 1701   2.653   2.777   4.949
  387ETHY    C1 1702   2.746   2.603   5.070
  387ETHY   H11 1703   2.838   2.533   5.059
  387ETHY   H13 1704   2.761   2.667   5.166
  387ETHY    C2 1705   2.610   2.511   5.089
  387ETHY   H21 1706   2.596   2.445   4.995
  387ETHY   H23 1707   2.518   2.580   5.100
  388ETHY    C1 1708   2.619   2.412   5.224
  388ETHY   H11 1709   2.714   2.346   5.211
  388ETHY   H13 1710   2.637   2.481   5.316
  388ETHY    C2 1711   2.487   2.316   5.249
  388ETHY   H22 1712   2.502   2.253   5.343
  388ETHY   H21 1713   2.472   2.246   5.159
  388ETHY   H23 1714   2.394   2.381   5.262
  389THSLK  H11 1715   3.130   3.906   4.125
  389THSLK  H13 1716   3.098   4.063   4.222
  389THSLK   C1 1717   3.122   3.950   4.232
  389THSLK   S1 1718   3.287   3.926   4.324
  390ETHY    C1 1719   2.991   3.878   4.306
  390ETHY   H11 1720   3.011   3.764   4.316
  390ETHY   H13 1721   2.979   3.922   4.412
  390ETHY    C2 1722   2.848   3.899   4.224
  390ETHY   H21 1723   2.857   3.853   4.118
  390ETHY   H23 1724   2.826   4.012   4.214
  391ETHY    C1 1725   2.723   3.826   4.305
  391ETHY   H11 1726   2.746   3.713   4.316
  391ETHY   H13 1727   2.715   3.872   4.411
  391ETHY    C2 1728   2.574   3.841   4.232
  391ETHY   H21 1729   2.577   3.792   4.127
  391ETHY   H23 1730   2.547   3.953   4.220
  392ETHY    C1 1731   2.460   3.766   4.325
  392ETHY   H11 1732   2.490   3.654   4.337
  392ETHY   H13 1733   2.461   3.814   4.430
  392ETHY    C2 1734   2.305   3.771   4.267
  392ETHY   H21 1735   2.300   3.719   4.164
  392ETHY   H23 1736   2.271   3.881   4.255
  393ETHY    C1 1737   2.205   3.693   4.373
  393ETHY   H11 1738   2.242   3.584   4.386
  393ETHY   H13 1739   2.214   3.745   4.477
  393ETHY    C2 1740   2.045   3.689   4.331
  393ETHY   H21 1741   2.034   3.634   4.230
  393ETHY   H23 1742   2.006   3.797   4.319
  394ETHY    C1 1743   1.957   3.611   4.447
  394ETHY   H11 1744   1.999   3.504   4.459
  394ETHY   H13 1745   1.972   3.667   4.548
  394ETHY    C2 1746   1.795   3.601   4.415
  394ETHY   H21 1747   1.780   3.543   4.316
  394ETHY   H23 1748   1.752   3.708   4.403
  395ETHY    C1 1749   1.712   3.523   4.537
  395ETHY   H11 1750   1.759   3.417   4.549
  395ETHY   H13 1751   1.732   3.581   4.635
  395ETHY    C2 1752   1.548   3.508   4.512
  395ETHY   H22 1753   1.500   3.454   4.600
  395ETHY   H21 1754   1.529   3.448   4.416
  395ETHY   H23 1755   1.502   3.612   4.501
  396AUSL   AUS 1756   4.175   4.752   4.581
  397AUSL   AUS 1757   3.758   4.682   4.437
  398AUL    AUL 1758   3.871   4.966   4.663
  399THSLK  H11 1759   3.732   4.989   4.721
  399THSLK  H13 1760   3.642   4.858   4.819
  399THSLK   C1 1761   3.636   4.924   4.725
  399THSLK   S1 1762   3.626   4.814   4.569
  400ETHY    C1 1763   3.506   5.027   4.744
  400ETHY   H11 1764   3.499   5.096   4.651
  400ETHY   H13 1765   3.409   4.965   4.751
  400ETHY    C2 1766   3.517   5.123   4.880
  400ETHY   H21 1767   3.612   5.188   4.874
  400ETHY   H23 1768   3.524   5.056   4.973
  401ETHY    C1 1769   3.384   5.221   4.893
  401ETHY   H11 1770   3.377   5.287   4.798
  401ETHY   H13 1771   3.289   5.155   4.898
  401ETHY    C2 1772   3.384   5.321   5.025
  401ETHY   H21 1773   3.475   5.392   5.021
  401ETHY   H23 1774   3.389   5.258   5.122
  402ETHY    C1 1775   3.244   5.411   5.025
  402ETHY   H11 1776   3.240   5.471   4.926
  402ETHY   H13 1777   3.154   5.338   5.027
  402ETHY    C2 1778   3.227   5.517   5.152
  402ETHY   H21 1779   3.314   5.593   5.150
  402ETHY   H23 1780   3.230   5.459   5.252
  403ETHY    C1 1781   3.082   5.595   5.137
  403ETHY   H11 1782   3.081   5.650   5.034
  403ETHY   H13 1783   2.998   5.515   5.136
  403ETHY    C2 1784   3.049   5.705   5.256
  403ETHY   H21 1785   3.130   5.787   5.256
  403ETHY   H23 1786   3.049   5.652   5.358
  404ETHY    C1 1787   2.900   5.774   5.229
  404ETHY   H11 1788   2.901   5.824   5.125
  404ETHY   H13 1789   2.821   5.689   5.227
  404ETHY    C2 1790   2.856   5.886   5.343
  404ETHY   H21 1791   2.933   5.971   5.343
  404ETHY   H23 1792   2.855   5.836   5.447
  405ETHY    C1 1793   2.704   5.950   5.311
  405ETHY   H11 1794   2.708   5.996   5.205
  405ETHY   H13 1795   2.629   5.861   5.308
  405ETHY    C2 1796   2.653   6.064   5.420
  405ETHY   H22 1797   2.549   6.101   5.391
  405ETHY   H21 1798   2.726   6.152   5.421
  405ETHY   H23 1799   2.649   6.017   5.525
  406THSLK  H11 1800   4.395   5.050   4.759
  406THSLK  H13 1801   4.287   4.974   4.891
  406THSLK   C1 1802   4.286   5.042   4.798
  406THSLK   S1 1803   4.175   4.966   4.663
  407ETHY    C1 1804   4.239   5.195   4.847
  407ETHY   H11 1805   4.239   5.265   4.756
  407ETHY   H13 1806   4.131   5.189   4.889
  407ETHY    C2 1807   4.337   5.260   4.964
  407ETHY   H21 1808   4.444   5.269   4.924
  407ETHY   H23 1809   4.338   5.191   5.057
  408ETHY    C1 1810   4.283   5.410   5.009
  408ETHY   H11 1811   4.280   5.478   4.916
  408ETHY   H13 1812   4.174   5.400   5.049
  408ETHY    C2 1813   4.373   5.485   5.127
  408ETHY   H21 1814   4.481   5.500   5.089
  408ETHY   H23 1815   4.376   5.420   5.222
  409ETHY    C1 1816   4.305   5.632   5.162
  409ETHY   H11 1817   4.301   5.695   5.065
  409ETHY   H13 1818   4.196   5.614   5.198
  409ETHY    C2 1819   4.383   5.721   5.278
  409ETHY   H21 1820   4.491   5.744   5.243
  409ETHY   H23 1821   4.388   5.661   5.377
  410ETHY    C1 1822   4.301   5.862   5.302
  410ETHY   H11 1823   4.295   5.919   5.201
  410ETHY   H13 1824   4.192   5.836   5.334
  410ETHY    C2 1825   4.365   5.964   5.416
  410ETHY   H21 1826   4.472   5.994   5.384
  410ETHY   H23 1827   4.371   5.909   5.517
  411ETHY    C1 1828   4.271   6.100   5.431
  411ETHY   H11 1829   4.265   6.151   5.327
  411ETHY   H13 1830   4.164   6.067   5.460
  411ETHY    C2 1831   4.327   6.208   5.542
  411ETHY   H21 1832   4.432   6.243   5.511
  411ETHY   H23 1833   4.333   6.157   5.645
  412ETHY    C1 1834   4.226   6.342   5.554
  412ETHY   H11 1835   4.219   6.389   5.448
  412ETHY   H13 1836   4.120   6.303   5.581
  412ETHY    C2 1837   4.275   6.456   5.663
  412ETHY   H22 1838   4.201   6.543   5.665
  412ETHY   H21 1839   4.379   6.496   5.634
  412ETHY   H23 1840   4.281   6.410   5.768
  413AUSL   AUS 1841   4.023   4.845   4.336
  414AUSL   AUS 1842   4.327   4.845   4.008
  415AUL    AUL 1843   4.175   5.153   4.172
  416THSLK  H11 1844   4.222   5.218   4.434
  416THSLK  H13 1845   4.161   5.165   4.603
  416THSLK   C1 1846   4.127   5.198   4.498
  416THSLK   S1 1847   4.023   5.060   4.417
  417ETHY    C1 1848   4.046   5.343   4.514
  417ETHY   H11 1849   4.012   5.379   4.409
  417ETHY   H13 1850   3.952   5.327   4.579
  417ETHY    C2 1851   4.138   5.463   4.583
  417ETHY   H21 1852   4.232   5.483   4.518
  417ETHY   H23 1853   4.173   5.429   4.688
  418ETHY    C1 1854   4.051   5.603   4.598
  418ETHY   H11 1855   4.016   5.636   4.492
  418ETHY   H13 1856   3.957   5.582   4.662
  418ETHY    C2 1857   4.133   5.730   4.666
  418ETHY   H21 1858   4.225   5.757   4.602
  418ETHY   H23 1859   4.169   5.701   4.772
  419ETHY    C1 1860   4.033   5.861   4.675
  419ETHY   H11 1861   3.996   5.887   4.568
  419ETHY   H13 1862   3.940   5.832   4.738
  419ETHY    C2 1863   4.099   5.998   4.742
  419ETHY   H21 1864   4.189   6.032   4.679
  419ETHY   H23 1865   4.134   5.976   4.850
  420ETHY    C1 1866   3.984   6.117   4.745
  420ETHY   H11 1867   3.948   6.136   4.637
  420ETHY   H13 1868   3.893   6.079   4.807
  420ETHY    C2 1869   4.033   6.262   4.809
  420ETHY   H21 1870   4.121   6.303   4.747
  420ETHY   H23 1871   4.069   6.245   4.918
  421ETHY    C1 1872   3.908   6.370   4.808
  421ETHY   H11 1873   3.872   6.383   4.699
  421ETHY   H13 1874   3.820   6.325   4.870
  421ETHY    C2 1875   3.946   6.519   4.871
  421ETHY   H21 1876   4.032   6.565   4.809
  421ETHY   H23 1877   3.982   6.506   4.980
  422ETHY    C1 1878   3.815   6.623   4.869
  422ETHY   H11 1879   3.779   6.630   4.758
  422ETHY   H13 1880   3.730   6.572   4.929
  422ETHY    C2 1881   3.845   6.774   4.929
  422ETHY   H22 1882   3.750   6.838   4.924
  422ETHY   H21 1883   3.928   6.824   4.868
  422ETHY   H23 1884   3.880   6.766   5.038
  423THSLK  H11 1885   4.521   5.112   3.771
  423THSLK  H13 1886   4.560   5.159   3.948
  423THSLK   C1 1887   4.477   5.160   3.867
  423THSLK   S1 1888   4.327   5.060   3.927
  424ETHY    C1 1889   4.443   5.320   3.832
  424ETHY   H11 1890   4.362   5.324   3.750
  424ETHY   H13 1891   4.401   5.371   3.927
  424ETHY    C2 1892   4.575   5.406   3.779
  424ETHY   H21 1893   4.617   5.358   3.683
  424ETHY   H23 1894   4.657   5.404   3.860
  425ETHY    C1 1895   4.534   5.564   3.749
  425ETHY   H11 1896   4.451   5.565   3.668
  425ETHY   H13 1897   4.492   5.610   3.846
  425ETHY    C2 1898   4.659   5.660   3.695
  425ETHY   H21 1899   4.701   5.618   3.596
  425ETHY   H23 1900   4.743   5.661   3.774
  426ETHY    C1 1901   4.603   5.813   3.672
  426ETHY   H11 1902   4.516   5.809   3.594
  426ETHY   H13 1903   4.559   5.852   3.772
  426ETHY    C2 1904   4.715   5.923   3.618
  426ETHY   H21 1905   4.757   5.889   3.516
  426ETHY   H23 1906   4.801   5.931   3.694
  427ETHY    C1 1907   4.642   6.071   3.602
  427ETHY   H11 1908   4.553   6.060   3.528
  427ETHY   H13 1909   4.598   6.101   3.705
  427ETHY    C2 1910   4.740   6.193   3.550
  427ETHY   H21 1911   4.782   6.167   3.446
  427ETHY   H23 1912   4.828   6.206   3.624
  428ETHY    C1 1913   4.655   6.335   3.541
  428ETHY   H11 1914   4.566   6.320   3.468
  428ETHY   H13 1915   4.612   6.359   3.646
  428ETHY    C2 1916   4.744   6.465   3.489
  428ETHY   H21 1917   4.785   6.443   3.384
  428ETHY   H23 1918   4.832   6.481   3.561
  429ETHY    C1 1919   4.652   6.605   3.484
  429ETHY   H11 1920   4.561   6.585   3.414
  429ETHY   H13 1921   4.610   6.622   3.591
  429ETHY    C2 1922   4.734   6.740   3.433
  429ETHY   H22 1923   4.664   6.830   3.434
  429ETHY   H21 1924   4.773   6.723   3.327
  429ETHY   H23 1925   4.822   6.760   3.503
  430AUSL   AUS 1926   4.327   4.845   4.336
  431AUSL   AUS 1927   4.440   4.588   4.682
  432AUL    AUL 1928   4.478   4.966   4.663
  433THSLK  H11 1929   4.803   4.660   4.902
  433THSLK  H13 1930   4.670   4.618   5.026
  433THSLK   C1 1931   4.705   4.698   4.949
  433THSLK   S1 1932   4.572   4.720   4.815
  434ETHY    C1 1933   4.741   4.837   5.034
  434ETHY   H11 1934   4.778   4.917   4.960
  434ETHY   H13 1935   4.644   4.875   5.085
  434ETHY    C2 1936   4.857   4.815   5.151
  434ETHY   H21 1937   4.955   4.779   5.102
  434ETHY   H23 1938   4.822   4.735   5.226
  435ETHY    C1 1939   4.886   4.957   5.232
  435ETHY   H11 1940   4.920   5.037   5.156
  435ETHY   H13 1941   4.787   4.993   5.280
  435ETHY    C2 1942   5.001   4.947   5.352
  435ETHY   H21 1943   5.102   4.916   5.306
  435ETHY   H23 1944   4.969   4.869   5.430
  436ETHY    C1 1945   5.016   5.095   5.424
  436ETHY   H11 1946   5.046   5.173   5.343
  436ETHY   H13 1947   4.913   5.126   5.467
  436ETHY    C2 1948   5.127   5.104   5.547
  436ETHY   H21 1949   5.232   5.078   5.506
  436ETHY   H23 1950   5.100   5.029   5.630
  437ETHY    C1 1951   5.128   5.258   5.609
  437ETHY   H11 1952   5.153   5.331   5.523
  437ETHY   H13 1953   5.020   5.282   5.646
  437ETHY    C2 1954   5.234   5.284   5.733
  437ETHY   H21 1955   5.341   5.263   5.697
  437ETHY   H23 1956   5.209   5.211   5.820
  438ETHY    C1 1957   5.221   5.440   5.786
  438ETHY   H11 1958   5.243   5.511   5.697
  438ETHY   H13 1959   5.112   5.459   5.820
  438ETHY    C2 1960   5.323   5.478   5.911
  438ETHY   H21 1961   5.432   5.462   5.877
  438ETHY   H23 1962   5.301   5.408   6.000
  439ETHY    C1 1963   5.304   5.636   5.961
  439ETHY   H11 1964   5.323   5.704   5.869
  439ETHY   H13 1965   5.193   5.650   5.992
  439ETHY    C2 1966   5.403   5.682   6.086
  439ETHY   H22 1967   5.382   5.791   6.114
  439ETHY   H21 1968   5.512   5.671   6.055
  439ETHY   H23 1969   5.383   5.616   6.177
  440THSLK  H11 1970   4.565   5.148   4.415
  440THSLK  H13 1971   4.506   5.115   4.590
  440THSLK   C1 1972   4.474   5.158   4.487
  440THSLK   S1 1973   4.327   5.060   4.417
  441ETHY    C1 1974   4.444   5.321   4.508
  441ETHY   H11 1975   4.414   5.367   4.406
  441ETHY   H13 1976   4.356   5.334   4.581
  441ETHY    C2 1977   4.574   5.406   4.567
  441ETHY   H21 1978   4.663   5.396   4.494
  441ETHY   H23 1979   4.606   5.361   4.669
  442ETHY    C1 1980   4.537   5.566   4.587
  442ETHY   H11 1981   4.504   5.609   4.485
  442ETHY   H13 1982   4.446   5.574   4.660
  442ETHY    C2 1983   4.659   5.660   4.647
  442ETHY   H21 1984   4.749   5.657   4.574
  442ETHY   H23 1985   4.693   5.620   4.750
  443ETHY    C1 1986   4.605   5.816   4.663
  443ETHY   H11 1987   4.570   5.853   4.559
  443ETHY   H13 1988   4.514   5.815   4.734
  443ETHY    C2 1989   4.716   5.924   4.722
  443ETHY   H21 1990   4.807   5.930   4.651
  443ETHY   H23 1991   4.752   5.890   4.826
  444ETHY    C1 1992   4.644   6.073   4.733
  444ETHY   H11 1993   4.606   6.104   4.628
  444ETHY   H13 1994   4.552   6.064   4.803
  444ETHY    C2 1995   4.741   6.194   4.791
  444ETHY   H21 1996   4.832   6.207   4.721
  444ETHY   H23 1997   4.779   6.166   4.896
  445ETHY    C1 1998   4.656   6.336   4.799
  445ETHY   H11 1999   4.617   6.361   4.693
  445ETHY   H13 2000   4.564   6.320   4.868
  445ETHY    C2 2001   4.743   6.465   4.856
  445ETHY   H21 2002   4.833   6.483   4.786
  445ETHY   H23 2003   4.782   6.440   4.962
  446ETHY    C1 2004   4.651   6.604   4.863
  446ETHY   H11 2005   4.610   6.624   4.757
  446ETHY   H13 2006   4.560   6.581   4.932
  446ETHY    C2 2007   4.732   6.738   4.919
  446ETHY   H22 2008   4.661   6.828   4.922
  446ETHY   H21 2009   4.820   6.761   4.850
  446ETHY   H23 2010   4.771   6.718   5.025
  447AUSL   AUS 2011   4.175   3.592   4.581
  448AUSL   AUS 2012   4.591   3.661   4.437
  449AUL    AUL 2013   4.478   3.377   4.663
  450THSLK  H11 2014   4.043   3.179   4.574
  450THSLK  H13 2015   3.955   3.261   4.717
  450THSLK   C1 2016   4.059   3.227   4.678
  450THSLK   S1 2017   4.175   3.377   4.663
  451ETHY    C1 2018   4.114   3.108   4.781
  451ETHY   H11 2019   4.217   3.071   4.744
  451ETHY   H13 2020   4.127   3.154   4.887
  451ETHY    C2 2021   4.011   2.977   4.793
  451ETHY   H21 2022   3.999   2.929   4.689
  451ETHY   H23 2023   3.908   3.013   4.831
  452ETHY    C1 2024   4.072   2.865   4.899
  452ETHY   H11 2025   4.176   2.831   4.861
  452ETHY   H13 2026   4.085   2.915   5.002
  452ETHY    C2 2027   3.978   2.729   4.919
  452ETHY   H21 2028   3.965   2.675   4.817
  452ETHY   H23 2029   3.873   2.760   4.957
  453ETHY    C1 2030   4.050   2.628   5.028
  453ETHY   H11 2031   4.156   2.601   4.988
  453ETHY   H13 2032   4.063   2.686   5.128
  453ETHY    C2 2033   3.969   2.488   5.060
  453ETHY   H21 2034   3.958   2.426   4.963
  453ETHY   H23 2035   3.864   2.512   5.101
  454ETHY    C1 2036   4.054   2.401   5.172
  454ETHY   H11 2037   4.160   2.380   5.130
  454ETHY   H13 2038   4.066   2.466   5.267
  454ETHY    C2 2039   3.986   2.256   5.216
  454ETHY   H21 2040   3.977   2.188   5.123
  454ETHY   H23 2041   3.881   2.275   5.260
  455ETHY    C1 2042   4.081   2.182   5.330
  455ETHY   H11 2043   4.187   2.166   5.286
  455ETHY   H13 2044   4.091   2.253   5.422
  455ETHY    C2 2045   4.022   2.036   5.382
  455ETHY   H21 2046   4.015   1.964   5.292
  455ETHY   H23 2047   3.917   2.051   5.427
  456ETHY    C1 2048   4.121   1.967   5.498
  456ETHY   H11 2049   4.227   1.957   5.452
  456ETHY   H13 2050   4.129   2.043   5.586
  456ETHY    C2 2051   4.070   1.820   5.555
  456ETHY   H22 2052   4.143   1.781   5.634
  456ETHY   H21 2053   4.064   1.745   5.469
  456ETHY   H23 2054   3.966   1.831   5.602
  457THSLK  H11 2055   4.689   3.284   4.509
  457THSLK  H13 2056   4.620   3.324   4.678
  457THSLK   C1 2057   4.710   3.343   4.607
  457THSLK   S1 2058   4.724   3.529   4.569
  458ETHY    C1 2059   4.845   3.277   4.677
  458ETHY   H11 2060   4.936   3.293   4.607
  458ETHY   H13 2061   4.866   3.332   4.777
  458ETHY    C2 2062   4.832   3.114   4.709
  458ETHY   H21 2063   4.813   3.057   4.610
  458ETHY   H23 2064   4.742   3.096   4.780
  459ETHY    C1 2065   4.969   3.056   4.781
  459ETHY   H11 2066   5.059   3.076   4.710
  459ETHY   H13 2067   4.988   3.115   4.879
  459ETHY    C2 2068   4.967   2.894   4.817
  459ETHY   H21 2069   4.953   2.832   4.720
  459ETHY   H23 2070   4.879   2.871   4.889
  460ETHY    C1 2071   5.110   2.852   4.889
  460ETHY   H11 2072   5.197   2.878   4.817
  460ETHY   H13 2073   5.123   2.917   4.985
  460ETHY    C2 2074   5.124   2.693   4.933
  460ETHY   H21 2075   5.116   2.626   4.839
  460ETHY   H23 2076   5.040   2.665   5.007
  461ETHY    C1 2077   5.272   2.670   5.006
  461ETHY   H11 2078   5.354   2.702   4.931
  461ETHY   H13 2079   5.278   2.741   5.098
  461ETHY    C2 2080   5.302   2.516   5.056
  461ETHY   H21 2081   5.300   2.445   4.965
  461ETHY   H23 2082   5.221   2.483   5.131
  462ETHY    C1 2083   5.452   2.509   5.128
  462ETHY   H11 2084   5.531   2.544   5.052
  462ETHY   H13 2085   5.452   2.583   5.218
  462ETHY    C2 2086   5.493   2.358   5.183
  462ETHY   H21 2087   5.495   2.285   5.094
  462ETHY   H23 2088   5.414   2.322   5.259
  463ETHY    C1 2089   5.644   2.358   5.257
  463ETHY   H11 2090   5.720   2.398   5.179
  463ETHY   H13 2091   5.639   2.435   5.344
  463ETHY    C2 2092   5.693   2.211   5.314
  463ETHY   H22 2093   5.796   2.221   5.363
  463ETHY   H21 2094   5.699   2.136   5.227
  463ETHY   H23 2095   5.618   2.172   5.391
  464AUSL   AUS 2096   4.023   3.498   4.336
  465AUSL   AUS 2097   3.910   3.755   4.682
  466AUL    AUL 2098   3.871   3.377   4.663
  467THSLK  H11 2099   3.829   3.159   4.311
  467THSLK  H13 2100   3.790   3.209   4.487
  467THSLK   C1 2101   3.873   3.167   4.418
  467THSLK   S1 2102   4.023   3.284   4.417
  468ETHY    C1 2103   3.907   3.012   4.470
  468ETHY   H11 2104   3.988   2.966   4.401
  468ETHY   H13 2105   3.948   3.017   4.578
  468ETHY    C2 2106   3.774   2.911   4.469
  468ETHY   H21 2107   3.733   2.902   4.362
  468ETHY   H23 2108   3.692   2.954   4.537
  469ETHY    C1 2109   3.816   2.760   4.524
  469ETHY   H11 2110   3.899   2.717   4.456
  469ETHY   H13 2111   3.858   2.769   4.631
  469ETHY    C2 2112   3.691   2.650   4.527
  469ETHY   H21 2113   3.649   2.635   4.421
  469ETHY   H23 2114   3.607   2.689   4.596
  470ETHY    C1 2115   3.747   2.506   4.586
  470ETHY   H11 2116   3.833   2.470   4.517
  470ETHY   H13 2117   3.791   2.524   4.692
  470ETHY    C2 2118   3.635   2.384   4.597
  470ETHY   H21 2119   3.593   2.361   4.492
  470ETHY   H23 2120   3.549   2.417   4.666
  471ETHY    C1 2121   3.708   2.249   4.659
  471ETHY   H11 2122   3.796   2.220   4.589
  471ETHY   H13 2123   3.752   2.276   4.763
  471ETHY    C2 2124   3.609   2.117   4.676
  471ETHY   H21 2125   3.567   2.087   4.573
  471ETHY   H23 2126   3.521   2.144   4.746
  472ETHY    C1 2127   3.695   1.991   4.742
  472ETHY   H11 2128   3.784   1.967   4.671
  472ETHY   H13 2129   3.738   2.025   4.844
  472ETHY    C2 2130   3.606   1.853   4.764
  472ETHY   H21 2131   3.565   1.818   4.662
  472ETHY   H23 2132   3.517   1.877   4.834
  473ETHY    C1 2133   3.698   1.730   4.832
  473ETHY   H11 2134   3.788   1.712   4.761
  473ETHY   H13 2135   3.740   1.771   4.932
  473ETHY    C2 2136   3.616   1.589   4.857
  473ETHY   H22 2137   3.686   1.511   4.904
  473ETHY   H21 2138   3.576   1.548   4.757
  473ETHY   H23 2139   3.527   1.607   4.927
  474THSLK  H11 2140   3.662   3.409   4.739
  474THSLK  H13 2141   3.538   3.543   4.783
  474THSLK   C1 2142   3.638   3.493   4.815
  474THSLK   S1 2143   3.778   3.623   4.815
  475ETHY    C1 2144   3.612   3.421   4.963
  475ETHY   H11 2145   3.710   3.369   4.997
  475ETHY   H13 2146   3.586   3.502   5.041
  475ETHY    C2 2147   3.490   3.307   4.961
  475ETHY   H21 2148   3.517   3.224   4.886
  475ETHY   H23 2149   3.392   3.357   4.928
  476ETHY    C1 2150   3.470   3.241   5.112
  476ETHY   H11 2151   3.570   3.192   5.145
  476ETHY   H13 2152   3.445   3.326   5.187
  476ETHY    C2 2153   3.350   3.126   5.123
  476ETHY   H21 2154   3.374   3.038   5.052
  476ETHY   H23 2155   3.249   3.173   5.091
  477ETHY    C1 2156   3.341   3.072   5.278
  477ETHY   H11 2157   3.444   3.029   5.309
  477ETHY   H13 2158   3.319   3.163   5.347
  477ETHY    C2 2159   3.225   2.957   5.307
  477ETHY   H21 2160   3.247   2.863   5.243
  477ETHY   H23 2161   3.121   2.998   5.279
  478ETHY    C1 2162   3.228   2.916   5.468
  478ETHY   H11 2163   3.335   2.878   5.494
  478ETHY   H13 2164   3.209   3.012   5.530
  478ETHY    C2 2165   3.119   2.801   5.514
  478ETHY   H21 2166   3.138   2.703   5.456
  478ETHY   H23 2167   3.012   2.838   5.489
  479ETHY    C1 2168   3.132   2.773   5.677
  479ETHY   H11 2169   3.240   2.738   5.699
  479ETHY   H13 2170   3.114   2.872   5.733
  479ETHY    C2 2171   3.026   2.659   5.734
  479ETHY   H21 2172   3.045   2.559   5.681
  479ETHY   H23 2173   2.918   2.693   5.712
  480ETHY    C1 2174   3.043   2.636   5.899
  480ETHY   H11 2175   3.153   2.606   5.919
  480ETHY   H13 2176   3.026   2.739   5.950
  480ETHY    C2 2177   2.941   2.523   5.965
  480ETHY   H22 2178   2.959   2.515   6.078
  480ETHY   H21 2179   2.959   2.421   5.916
  480ETHY   H23 2180   2.832   2.554   5.946
  481AUSL   AUS 2181   4.327   3.498   4.336
  482AUSL   AUS 2182   4.023   3.498   4.008
  483AUL    AUL 2183   4.175   3.190   4.172
  484THSLK  H11 2184   3.785   3.209   3.879
  484THSLK  H13 2185   3.844   3.148   4.046
  484THSLK   C1 2186   3.875   3.164   3.935
  484THSLK   S1 2187   4.023   3.284   3.927
  485ETHY    C1 2188   3.905   3.013   3.870
  485ETHY   H11 2189   3.935   3.026   3.759
  485ETHY   H13 2190   3.994   2.965   3.926
  485ETHY    C2 2191   3.775   2.910   3.878
  485ETHY   H21 2192   3.686   2.955   3.820
  485ETHY   H23 2193   3.744   2.896   3.988
  486ETHY    C1 2194   3.813   2.762   3.812
  486ETHY   H11 2195   3.846   2.778   3.702
  486ETHY   H13 2196   3.903   2.718   3.871
  486ETHY    C2 2197   3.690   2.651   3.815
  486ETHY   H21 2198   3.600   2.690   3.754
  486ETHY   H23 2199   3.657   2.632   3.924
  487ETHY    C1 2200   3.744   2.509   3.749
  487ETHY   H11 2201   3.780   2.530   3.640
  487ETHY   H13 2202   3.836   2.473   3.810
  487ETHY    C2 2203   3.634   2.385   3.744
  487ETHY   H21 2204   3.543   2.417   3.680
  487ETHY   H23 2205   3.598   2.361   3.850
  488ETHY    C1 2206   3.706   2.252   3.677
  488ETHY   H11 2207   3.743   2.280   3.571
  488ETHY   H13 2208   3.798   2.224   3.741
  488ETHY    C2 2209   3.609   2.118   3.664
  488ETHY   H21 2210   3.518   2.143   3.597
  488ETHY   H23 2211   3.570   2.089   3.769
  489ETHY    C1 2212   3.694   1.992   3.598
  489ETHY   H11 2213   3.733   2.025   3.494
  489ETHY   H13 2214   3.786   1.971   3.666
  489ETHY    C2 2215   3.606   1.853   3.581
  489ETHY   H21 2216   3.516   1.873   3.512
  489ETHY   H23 2217   3.567   1.820   3.685
  490ETHY    C1 2218   3.699   1.729   3.516
  490ETHY   H11 2219   3.740   1.767   3.414
  490ETHY   H13 2220   3.790   1.714   3.587
  490ETHY    C2 2221   3.618   1.586   3.495
  490ETHY   H22 2222   3.689   1.508   3.451
  490ETHY   H21 2223   3.530   1.601   3.424
  490ETHY   H23 2224   3.579   1.549   3.596
  491THSLK  H11 2225   4.172   3.103   4.326
  491THSLK  H13 2226   4.135   3.142   4.506
  491THSLK   C1 2227   4.220   3.126   4.429
  491THSLK   S1 2228   4.327   3.284   4.417
  492ETHY    C1 2229   4.305   2.990   4.476
  492ETHY   H11 2230   4.390   2.971   4.400
  492ETHY   H13 2231   4.352   3.009   4.580
  492ETHY    C2 2232   4.211   2.853   4.485
  492ETHY   H21 2233   4.165   2.831   4.381
  492ETHY   H23 2234   4.125   2.870   4.561
  493ETHY    C1 2235   4.301   2.723   4.534
  493ETHY   H11 2236   4.387   2.707   4.458
  493ETHY   H13 2237   4.347   2.747   4.637
  493ETHY    C2 2238   4.217   2.580   4.547
  493ETHY   H21 2239   4.173   2.551   4.444
  493ETHY   H23 2240   4.131   2.592   4.623
  494ETHY    C1 2241   4.320   2.461   4.598
  494ETHY   H11 2242   4.407   2.452   4.522
  494ETHY   H13 2243   4.365   2.493   4.700
  494ETHY    C2 2244   4.252   2.311   4.617
  494ETHY   H21 2245   4.210   2.274   4.516
  494ETHY   H23 2246   4.166   2.316   4.693
  495ETHY    C1 2247   4.368   2.206   4.671
  495ETHY   H11 2248   4.455   2.204   4.593
  495ETHY   H13 2249   4.411   2.246   4.771
  495ETHY    C2 2250   4.317   2.050   4.695
  495ETHY   H21 2251   4.278   2.007   4.595
  495ETHY   H23 2252   4.231   2.050   4.772
  496ETHY    C1 2253   4.443   1.957   4.751
  496ETHY   H11 2254   4.529   1.961   4.673
  496ETHY   H13 2255   4.482   2.004   4.849
  496ETHY    C2 2256   4.403   1.799   4.779
  496ETHY   H21 2257   4.367   1.751   4.680
  496ETHY   H23 2258   4.318   1.795   4.856
  497ETHY    C1 2259   4.534   1.712   4.837
  497ETHY   H11 2260   4.619   1.721   4.759
  497ETHY   H13 2261   4.570   1.764   4.934
  497ETHY    C2 2262   4.502   1.552   4.867
  497ETHY   H22 2263   4.596   1.500   4.907
  497ETHY   H21 2264   4.469   1.500   4.771
  497ETHY   H23 2265   4.418   1.543   4.945
  498AUSL   AUS 2266   4.175   4.752   3.763
  499AUSL   AUS 2267   4.591   4.682   3.907
  500AUL    AUL 2268   4.478   4.966   3.681
  501THSLK  H11 2269   4.307   4.975   3.464
  501THSLK  H13 2270   4.395   5.066   3.602
  501THSLK   C1 2271   4.291   5.047   3.554
  501THSLK   S1 2272   4.175   4.966   3.681
  502ETHY    C1 2273   4.236   5.192   3.493
  502ETHY   H11 2274   4.133   5.176   3.443
  502ETHY   H13 2275   4.222   5.266   3.581
  502ETHY    C2 2276   4.338   5.261   3.382
  502ETHY   H21 2277   4.351   5.190   3.292
  502ETHY   H23 2278   4.442   5.279   3.430
  503ETHY    C1 2279   4.278   5.406   3.328
  503ETHY   H11 2280   4.174   5.387   3.281
  503ETHY   H13 2281   4.264   5.476   3.419
  503ETHY    C2 2282   4.372   5.484   3.216
  503ETHY   H21 2283   4.384   5.418   3.122
  503ETHY   H23 2284   4.477   5.505   3.261
  504ETHY    C1 2285   4.300   5.627   3.175
  504ETHY   H11 2286   4.194   5.604   3.132
  504ETHY   H13 2287   4.286   5.691   3.271
  504ETHY    C2 2288   4.381   5.719   3.063
  504ETHY   H21 2289   4.392   5.660   2.964
  504ETHY   H23 2290   4.486   5.745   3.103
  505ETHY    C1 2291   4.296   5.858   3.035
  505ETHY   H11 2292   4.190   5.829   2.998
  505ETHY   H13 2293   4.284   5.914   3.136
  505ETHY    C2 2294   4.363   5.962   2.926
  505ETHY   H21 2295   4.373   5.909   2.824
  505ETHY   H23 2296   4.469   5.992   2.962
  506ETHY    C1 2297   4.269   6.098   2.910
  506ETHY   H11 2298   4.163   6.064   2.876
  506ETHY   H13 2299   4.259   6.147   3.015
  506ETHY    C2 2300   4.327   6.209   2.803
  506ETHY   H21 2301   4.335   6.161   2.699
  506ETHY   H23 2302   4.433   6.242   2.836
  507ETHY    C1 2303   4.228   6.344   2.793
  507ETHY   H11 2304   4.122   6.307   2.763
  507ETHY   H13 2305   4.221   6.388   2.901
  507ETHY    C2 2306   4.280   6.460   2.687
  507ETHY   H22 2307   4.207   6.549   2.688
  507ETHY   H21 2308   4.285   6.417   2.582
  507ETHY   H23 2309   4.384   6.497   2.718
  508THSLK  H11 2310   4.902   4.738   3.610
  508THSLK  H13 2311   4.976   4.784   3.776
  508THSLK   C1 2312   4.897   4.815   3.697
  508THSLK   S1 2313   4.724   4.814   3.775
  509ETHY    C1 2314   4.944   4.963   3.635
  509ETHY   H11 2315   4.868   4.995   3.555
  509ETHY   H13 2316   4.943   5.041   3.721
  509ETHY    C2 2317   5.096   4.961   3.567
  509ETHY   H21 2318   5.098   4.886   3.480
  509ETHY   H23 2319   5.174   4.929   3.646
  510ETHY    C1 2320   5.136   5.112   3.510
  510ETHY   H11 2321   5.057   5.144   3.432
  510ETHY   H13 2322   5.132   5.187   3.598
  510ETHY    C2 2323   5.286   5.123   3.440
  510ETHY   H21 2324   5.292   5.051   3.349
  510ETHY   H23 2325   5.367   5.092   3.516
  511ETHY    C1 2326   5.312   5.278   3.390
  511ETHY   H11 2327   5.228   5.307   3.316
  511ETHY   H13 2328   5.303   5.348   3.483
  511ETHY    C2 2329   5.458   5.307   3.317
  511ETHY   H21 2330   5.468   5.242   3.222
  511ETHY   H23 2331   5.544   5.280   3.390
  512ETHY    C1 2332   5.467   5.468   3.277
  512ETHY   H11 2333   5.378   5.492   3.206
  512ETHY   H13 2334   5.454   5.530   3.374
  512ETHY    C2 2335   5.608   5.514   3.203
  512ETHY   H21 2336   5.621   5.455   3.104
  512ETHY   H23 2337   5.697   5.490   3.272
  513ETHY    C1 2338   5.604   5.677   3.170
  513ETHY   H11 2339   5.512   5.698   3.103
  513ETHY   H13 2340   5.589   5.733   3.270
  513ETHY    C2 2341   5.740   5.734   3.096
  513ETHY   H21 2342   5.754   5.680   2.996
  513ETHY   H23 2343   5.831   5.713   3.163
  514ETHY    C1 2344   5.730   5.899   3.068
  514ETHY   H11 2345   5.635   5.918   3.004
  514ETHY   H13 2346   5.713   5.951   3.171
  514ETHY    C2 2347   5.863   5.965   2.994
  514ETHY   H22 2348   5.848   6.077   2.979
  514ETHY   H21 2349   5.878   5.915   2.891
  514ETHY   H23 2350   5.956   5.947   3.058
  515AUSL   AUS 2351   4.023   4.845   4.008
  516AUSL   AUS 2352   3.910   4.588   3.662
  517AUL    AUL 2353   3.871   4.966   3.681
  518THSLK  H11 2354   4.178   5.168   3.756
  518THSLK  H13 2355   4.215   5.227   3.929
  518THSLK   C1 2356   4.129   5.201   3.856
  518THSLK   S1 2357   4.023   5.060   3.927
  519ETHY    C1 2358   4.045   5.342   3.826
  519ETHY   H11 2359   3.960   5.319   3.751
  519ETHY   H13 2360   3.998   5.379   3.925
  519ETHY    C2 2361   4.139   5.464   3.763
  519ETHY   H21 2362   4.185   5.430   3.663
  519ETHY   H23 2363   4.225   5.488   3.837
  520ETHY    C1 2364   4.049   5.601   3.738
  520ETHY   H11 2365   3.962   5.575   3.666
  520ETHY   H13 2366   4.002   5.633   3.839
  520ETHY    C2 2367   4.133   5.730   3.676
  520ETHY   H21 2368   4.177   5.702   3.573
  520ETHY   H23 2369   4.219   5.758   3.747
  521ETHY    C1 2370   4.030   5.858   3.659
  521ETHY   H11 2371   3.943   5.827   3.589
  521ETHY   H13 2372   3.985   5.883   3.763
  521ETHY    C2 2373   4.098   5.997   3.598
  521ETHY   H21 2374   4.140   5.976   3.492
  521ETHY   H23 2375   4.184   6.031   3.667
  522ETHY    C1 2376   3.981   6.115   3.590
  522ETHY   H11 2377   3.895   6.076   3.523
  522ETHY   H13 2378   3.939   6.131   3.697
  522ETHY    C2 2379   4.033   6.260   3.531
  522ETHY   H21 2380   4.072   6.247   3.424
  522ETHY   H23 2381   4.118   6.301   3.597
  523ETHY    C1 2382   3.907   6.369   3.532
  523ETHY   H11 2383   3.821   6.325   3.467
  523ETHY   H13 2384   3.868   6.379   3.640
  523ETHY    C2 2385   3.947   6.519   3.474
  523ETHY   H21 2386   3.983   6.509   3.365
  523ETHY   H23 2387   4.032   6.562   3.539
  524ETHY    C1 2388   3.816   6.624   3.479
  524ETHY   H11 2389   3.731   6.575   3.417
  524ETHY   H13 2390   3.780   6.629   3.590
  524ETHY    C2 2391   3.848   6.777   3.423
  524ETHY   H22 2392   3.753   6.841   3.431
  524ETHY   H21 2393   3.881   6.771   3.314
  524ETHY   H23 2394   3.931   6.824   3.485
  525THSLK  H11 2395   3.789   4.651   3.285
  525THSLK  H13 2396   3.909   4.790   3.323
  525THSLK   C1 2397   3.802   4.751   3.343
  525THSLK   S1 2398   3.778   4.720   3.530
  526ETHY    C1 2399   3.695   4.861   3.277
  526ETHY   H11 2400   3.587   4.823   3.294
  526ETHY   H13 2401   3.708   4.962   3.331
  526ETHY    C2 2402   3.717   4.885   3.114
  526ETHY   H21 2403   3.703   4.786   3.058
  526ETHY   H23 2404   3.825   4.923   3.095
  527ETHY    C1 2405   3.609   4.997   3.056
  527ETHY   H11 2406   3.502   4.959   3.077
  527ETHY   H13 2407   3.624   5.096   3.114
  527ETHY    C2 2408   3.622   5.030   2.894
  527ETHY   H21 2409   3.604   4.934   2.833
  527ETHY   H23 2410   3.728   5.070   2.870
  528ETHY    C1 2411   3.510   5.144   2.853
  528ETHY   H11 2412   3.405   5.103   2.879
  528ETHY   H13 2413   3.529   5.239   2.917
  528ETHY    C2 2414   3.509   5.189   2.693
  528ETHY   H21 2415   3.486   5.097   2.627
  528ETHY   H23 2416   3.612   5.232   2.664
  529ETHY    C1 2417   3.393   5.305   2.671
  529ETHY   H11 2418   3.290   5.261   2.703
  529ETHY   H13 2419   3.416   5.395   2.741
  529ETHY    C2 2420   3.378   5.362   2.516
  529ETHY   H21 2421   3.351   5.274   2.445
  529ETHY   H23 2422   3.479   5.407   2.482
  530ETHY    C1 2423   3.260   5.478   2.509
  530ETHY   H11 2424   3.161   5.431   2.546
  530ETHY   H13 2425   3.289   5.563   2.582
  530ETHY    C2 2426   3.237   5.542   2.358
  530ETHY   H21 2427   3.206   5.458   2.286
  530ETHY   H23 2428   3.336   5.589   2.321
  531ETHY    C1 2429   3.118   5.661   2.359
  531ETHY   H11 2430   3.021   5.612   2.400
  531ETHY   H13 2431   3.151   5.742   2.435
  531ETHY    C2 2432   3.089   5.730   2.211
  531ETHY   H22 2433   3.007   5.809   2.221
  531ETHY   H21 2434   3.054   5.649   2.137
  531ETHY   H23 2435   3.184   5.779   2.171
  532AUSL   AUS 2436   4.175   3.592   3.763
  533AUSL   AUS 2437   3.758   3.661   3.907
  534AUL    AUL 2438   3.871   3.377   3.681
  535THSLK  H11 2439   3.376   3.535   3.822
  535THSLK  H13 2440   3.461   3.398   3.917
  535THSLK   C1 2441   3.456   3.452   3.815
  535THSLK   S1 2442   3.626   3.529   3.775
  536ETHY    C1 2443   3.403   3.341   3.702
  536ETHY   H11 2444   3.396   3.393   3.599
  536ETHY   H13 2445   3.480   3.256   3.694
  536ETHY    C2 2446   3.255   3.275   3.738
  536ETHY   H21 2447   3.176   3.359   3.743
  536ETHY   H23 2448   3.260   3.222   3.840
  537ETHY    C1 2449   3.210   3.165   3.622
  537ETHY   H11 2450   3.206   3.219   3.519
  537ETHY   H13 2451   3.291   3.082   3.617
  537ETHY    C2 2452   3.063   3.093   3.648
  537ETHY   H21 2453   2.979   3.173   3.650
  537ETHY   H23 2454   3.064   3.037   3.749
  538ETHY    C1 2455   3.033   2.985   3.526
  538ETHY   H11 2456   3.035   3.042   3.425
  538ETHY   H13 2457   3.120   2.907   3.525
  538ETHY    C2 2458   2.890   2.902   3.536
  538ETHY   H21 2459   2.802   2.977   3.534
  538ETHY   H23 2460   2.886   2.843   3.635
  539ETHY    C1 2461   2.879   2.798   3.408
  539ETHY   H11 2462   2.886   2.860   3.310
  539ETHY   H13 2463   2.970   2.726   3.412
  539ETHY    C2 2464   2.740   2.707   3.403
  539ETHY   H21 2465   2.649   2.777   3.396
  539ETHY   H23 2466   2.732   2.644   3.500
  540ETHY    C1 2467   2.744   2.606   3.271
  540ETHY   H11 2468   2.755   2.671   3.176
  540ETHY   H13 2469   2.838   2.539   3.280
  540ETHY    C2 2470   2.610   2.510   3.256
  540ETHY   H21 2471   2.517   2.577   3.245
  540ETHY   H23 2472   2.599   2.445   3.351
  541ETHY    C1 2473   2.621   2.409   3.123
  541ETHY   H11 2474   2.636   2.477   3.030
  541ETHY   H13 2475   2.718   2.345   3.136
  541ETHY    C2 2476   2.490   2.309   3.100
  541ETHY   H22 2477   2.507   2.244   3.008
  541ETHY   H21 2478   2.396   2.372   3.086
  541ETHY   H23 2479   2.477   2.242   3.192
  542THSLK  H11 2480   3.955   3.254   3.648
  542THSLK  H13 2481   4.063   3.169   3.776
  542THSLK   C1 2482   4.064   3.223   3.673
  542THSLK   S1 2483   4.175   3.377   3.681
  543ETHY    C1 2484   4.111   3.110   3.559
  543ETHY   H11 2485   4.111   3.160   3.455
  543ETHY   H13 2486   4.219   3.076   3.583
  543ETHY    C2 2487   4.013   2.976   3.553
  543ETHY   H21 2488   3.905   3.009   3.526
  543ETHY   H23 2489   4.012   2.925   3.656
  544ETHY    C1 2490   4.067   2.869   3.439
  544ETHY   H11 2491   4.069   2.922   3.336
  544ETHY   H13 2492   4.176   2.838   3.466
  544ETHY    C2 2493   3.976   2.730   3.424
  544ETHY   H21 2494   3.869   2.758   3.393
  544ETHY   H23 2495   3.974   2.675   3.525
  545ETHY    C1 2496   4.044   2.633   3.309
  545ETHY   H11 2497   4.049   2.692   3.209
  545ETHY   H13 2498   4.153   2.609   3.341
  545ETHY    C2 2499   3.966   2.490   3.281
  545ETHY   H21 2500   3.859   2.510   3.245
  545ETHY   H23 2501   3.962   2.428   3.379
  546ETHY    C1 2502   4.049   2.405   3.165
  546ETHY   H11 2503   4.054   2.470   3.069
  546ETHY   H13 2504   4.158   2.388   3.203
  546ETHY    C2 2505   3.984   2.258   3.125
  546ETHY   H21 2506   3.877   2.273   3.084
  546ETHY   H23 2507   3.979   2.192   3.220
  547ETHY    C1 2508   4.078   2.184   3.010
  547ETHY   H11 2509   4.084   2.253   2.918
  547ETHY   H13 2510   4.186   2.172   3.053
  547ETHY    C2 2511   4.023   2.035   2.963
  547ETHY   H21 2512   3.917   2.047   2.918
  547ETHY   H23 2513   4.017   1.966   3.055
  548ETHY    C1 2514   4.123   1.965   2.849
  548ETHY   H11 2515   4.131   2.039   2.759
  548ETHY   H13 2516   4.229   1.958   2.896
  548ETHY    C2 2517   4.074   1.816   2.795
  548ETHY   H22 2518   4.149   1.776   2.718
  548ETHY   H21 2519   3.971   1.824   2.747
  548ETHY   H23 2520   4.069   1.744   2.884
  549AUSL   AUS 2521   4.327   3.498   4.008
  550AUSL   AUS 2522   4.440   3.755   3.662
  551AUL    AUL 2523   4.478   3.377   3.681
  552THSLK  H11 2524   4.128   3.139   3.860
  552THSLK  H13 2525   4.189   3.097   4.032
  552THSLK   C1 2526   4.223   3.124   3.924
  552THSLK   S1 2527   4.327   3.284   3.927
  553ETHY    C1 2528   4.303   2.991   3.863
  553ETHY   H11 2529   4.337   3.014   3.755
  553ETHY   H13 2530   4.397   2.971   3.928
  553ETHY    C2 2531   4.211   2.852   3.862
  553ETHY   H21 2532   4.118   2.869   3.796
  553ETHY   H23 2533   4.177   2.828   3.969
  554ETHY    C1 2534   4.298   2.725   3.802
  554ETHY   H11 2535   4.334   2.751   3.695
  554ETHY   H13 2536   4.392   2.710   3.868
  554ETHY    C2 2537   4.216   2.580   3.796
  554ETHY   H21 2538   4.124   2.591   3.727
  554ETHY   H23 2539   4.181   2.551   3.901
  555ETHY    C1 2540   4.317   2.463   3.736
  555ETHY   H11 2541   4.354   2.496   3.631
  555ETHY   H13 2542   4.410   2.456   3.805
  555ETHY    C2 2543   4.251   2.312   3.723
  555ETHY   H21 2544   4.161   2.315   3.651
  555ETHY   H23 2545   4.215   2.276   3.827
  556ETHY    C1 2546   4.366   2.208   3.665
  556ETHY   H11 2547   4.402   2.247   3.562
  556ETHY   H13 2548   4.456   2.209   3.737
  556ETHY    C2 2549   4.316   2.051   3.646
  556ETHY   H21 2550   4.228   2.047   3.571
  556ETHY   H23 2551   4.280   2.009   3.747
  557ETHY    C1 2552   4.442   1.958   3.589
  557ETHY   H11 2553   4.478   2.003   3.488
  557ETHY   H13 2554   4.529   1.966   3.665
  557ETHY    C2 2555   4.403   1.799   3.566
  557ETHY   H21 2556   4.318   1.791   3.489
  557ETHY   H23 2557   4.368   1.754   3.666
  558ETHY    C1 2558   4.535   1.711   3.511
  558ETHY   H11 2559   4.571   1.761   3.412
  558ETHY   H13 2560   4.620   1.723   3.589
  558ETHY    C2 2561   4.504   1.550   3.485
  558ETHY   H22 2562   4.599   1.498   3.448
  558ETHY   H21 2563   4.422   1.538   3.407
  558ETHY   H23 2564   4.470   1.501   3.583
  559THSLK  H11 2565   4.445   3.418   3.448
  559THSLK  H13 2566   4.582   3.371   3.566
  559THSLK   C1 2567   4.555   3.440   3.477
  559THSLK   S1 2568   4.572   3.623   3.530
  560ETHY    C1 2569   4.651   3.397   3.348
  560ETHY   H11 2570   4.624   3.463   3.257
  560ETHY   H13 2571   4.762   3.415   3.376
  560ETHY    C2 2572   4.634   3.237   3.303
  560ETHY   H21 2573   4.525   3.217   3.273
  560ETHY   H23 2574   4.661   3.169   3.393
  561ETHY    C1 2575   4.734   3.201   3.176
  561ETHY   H11 2576   4.708   3.271   3.088
  561ETHY   H13 2577   4.844   3.223   3.208
  561ETHY    C2 2578   4.726   3.044   3.123
  561ETHY   H21 2579   4.619   3.020   3.087
  561ETHY   H23 2580   4.753   2.972   3.209
  562ETHY    C1 2581   4.833   3.023   2.998
  562ETHY   H11 2582   4.805   3.098   2.914
  562ETHY   H13 2583   4.939   3.050   3.036
  562ETHY    C2 2584   4.838   2.871   2.933
  562ETHY   H21 2585   4.734   2.844   2.890
  562ETHY   H23 2586   4.867   2.795   3.014
  563ETHY    C1 2587   4.951   2.869   2.812
  563ETHY   H11 2588   4.921   2.948   2.732
  563ETHY   H13 2589   5.053   2.900   2.857
  563ETHY    C2 2590   4.969   2.723   2.735
  563ETHY   H21 2591   4.869   2.692   2.687
  563ETHY   H23 2592   4.999   2.643   2.812
  564ETHY    C1 2593   5.086   2.735   2.618
  564ETHY   H11 2594   5.055   2.817   2.543
  564ETHY   H13 2595   5.185   2.768   2.669
  564ETHY    C2 2596   5.113   2.594   2.535
  564ETHY   H21 2597   5.016   2.562   2.482
  564ETHY   H23 2598   5.144   2.512   2.610
  565ETHY    C1 2599   5.234   2.612   2.420
  565ETHY   H11 2600   5.202   2.698   2.350
  565ETHY   H13 2601   5.330   2.647   2.476
  565ETHY    C2 2602   5.267   2.476   2.332
  565ETHY   H22 2603   5.351   2.497   2.257
  565ETHY   H21 2604   5.173   2.443   2.276
  565ETHY   H23 2605   5.300   2.391   2.402
   8.34969   8.34322   8.34414   0.00000   0.00000   0.00000   0.00000   0.00000   0.00000
