Protein in INSANE! Membrane UpperLeaflet>POPC=1.0 LowerLeaflet>POPC=1.0
11125
    1AU     AUC    1   8.067   6.571   6.558  0.0464  0.0664  0.0289
    1AU     AUC    2   8.135   6.718   6.658  0.0777 -0.0045 -0.0238
    1AU     AUC    3   8.147   6.575   6.707 -0.0058 -0.0692 -0.1046
    1AU     AUC    4   7.975   6.583   6.438  0.0567  0.1018  0.0491
    1AU     AUC    5   8.006   6.427   6.504 -0.0258  0.0139  0.0279
    1AU     AUC    6   7.905   6.540   6.566 -0.0127  0.1314  0.0810
    1AU     AUC    7   7.966   6.633   6.709 -0.0319  0.0091 -0.1129
    1AU     AUC    8   8.156   6.509   6.425 -0.0211 -0.0562 -0.0302
    1AU     AUC    9   8.235   6.606   6.585  0.0604 -0.0977 -0.1226
    1AU     AUC   10   8.165   6.450   6.600  0.0163 -0.0173  0.0238
    1AU     AUC   11   8.009   6.464   6.696 -0.0160  0.0821  0.1016
    1AU     AUC   12   8.125   6.699   6.465 -0.0031  0.0424  0.0163
    1AU     AUC   13   7.958   6.698   6.537 -0.0929  0.0445 -0.0095
    1AU     AUC   14   8.132   6.854   6.709 -0.0669  0.1073 -0.0230
    1AU     AUC   15   8.192   6.720   6.837 -0.0261 -0.0542  0.0587
    1AU     AUC   16   8.217   6.548   6.862 -0.0077 -0.0638  0.0501
    1AU     AUC   17   7.937   6.587   6.277  0.0307  0.1032 -0.0080
    1AU     AUC   18   7.933   6.386   6.325  0.0091  0.1177  0.0452
    1AU     AUC   19   7.984   6.299   6.441 -0.0821  0.0561  0.0285
    1AU     AUC   20   7.752   6.516   6.580  0.0928  0.0356 -0.0703
    1AU     AUC   21   7.758   6.582   6.712  0.0318 -0.0330  0.1031
    1AU     AUC   22   7.893   6.685   6.821 -0.0062 -0.0233  0.0752
    1AU     AUC   23   8.224   6.479   6.323  0.0284  0.0215  0.0442
    1AU     AUC   24   8.360   6.530   6.415  0.0216  0.1063  0.0644
    1AU     AUC   25   8.395   6.631   6.555 -0.0013 -0.0278 -0.0854
    1AU     AUC   26   8.237   6.305   6.633  0.1035 -0.0273  0.1171
    1AU     AUC   27   8.112   6.306   6.721 -0.0284 -0.0383  0.0424
    1AU     AUC   28   7.977   6.362   6.772  0.0050 -0.0150 -0.0833
    1AU     AUC   29   8.161   6.793   6.374 -0.0519  0.0936 -0.0262
    1AU     AUC   30   8.038   6.851   6.426 -0.1070  0.0024 -0.0193
    1AU     AUC   31   7.879   6.827   6.529  0.0841  0.0171 -0.0222
    1AU     AUC   32   8.265   6.379   6.756 -0.0568  0.0255  0.0580
    1AU     AUC   33   8.081   6.436   6.875 -0.0370 -0.0253  0.0159
    1AU     AUC   34   8.183   6.882   6.538  0.0728  0.0412  0.0611
    1AU     AUC   35   7.984   6.892   6.608  0.0342 -0.0726 -0.0747
    1AU     AUC   36   8.097   6.256   6.516  0.0022 -0.0285  0.1231
    1AU     AUC   37   7.939   6.294   6.669 -0.0150 -0.0724  0.1115
    1AU     AUC   38   8.066   6.760   6.299  0.0688  0.0611 -0.0280
    1AU     AUC   39   7.872   6.740   6.385 -0.0398  0.0246 -0.0202
    1AU     AUC   40   8.031   6.832   6.775 -0.0279 -0.0027 -0.0099
    1AU     AUC   41   8.014   6.659   6.905 -0.0828 -0.0874 -0.0210
    1AU     AUC   42   7.797   6.551   6.365  0.0623 -0.0311  0.0279
    1AU     AUC   43   7.821   6.358   6.521 -0.0135  0.0173 -0.0005
    1AU     AUC   44   8.305   6.811   6.663 -0.0579  0.0492  0.0427
    1AU     AUC   45   8.385   6.550   6.757  0.0504  0.0899  0.1147
    1AU     AUC   46   8.051   6.536   6.260  0.0234  0.0186 -0.1339
    1AU     AUC   47   8.131   6.378   6.305  0.0387  0.1259  0.0522
    1AU     AUC   48   7.816   6.369   6.692  0.0196 -0.0887  0.0634
    1AU     AUC   49   7.913   6.516   6.843 -0.1161 -0.0252 -0.0436
    1AU     AUC   50   8.268   6.357   6.479  0.0849  0.0308 -0.0145
    1AU     AUC   51   8.364   6.446   6.603  0.0050  0.0266 -0.0065
    1AU     AUC   52   7.754   6.703   6.555 -0.1045  0.0202 -0.0439
    1AU     AUC   53   7.849   6.771   6.697 -0.0487 -0.0434 -0.0097
    1AU     AUC   54   8.228   6.649   6.317  0.0994  0.0630  0.0272
    1AU     AUC   55   8.316   6.746   6.453 -0.0347 -0.0186 -0.0156
    1AU    AUSL   56   8.204   6.456   6.942  0.0390 -0.0406 -0.0455
    1AU    AUSL   57   8.526   6.296   6.844  0.0132  0.0239 -0.0097
    1AU     AUL   58   8.300   6.000   6.903 -0.0881  0.0073 -0.0398
    1AU       S   59   9.010   6.178   6.956 -0.0396  0.1423 -0.1003
    1AU     LIG   60   9.005   5.663   6.948  0.0148  0.2213  0.1413
    1AU     LIG   61   9.388   5.466   6.846  0.3159  0.5102  0.0633
    1AU     LIG   62   9.769   5.414   6.718 -0.2345  0.2897  0.4394
    1AU     LIG   63  10.204   5.586   6.740 -0.1366 -0.3752  0.1574
    1AU       S   64   8.579   6.260   7.467 -0.1022 -0.0999 -0.1325
    1AU     LIG   65   8.700   6.257   7.847  0.0269 -0.0266 -0.1277
    1AU     LIG   66   8.964   6.003   7.902  0.1784  0.1506 -0.0871
    1AU     LIG   67   9.307   5.753   7.803  0.0723 -0.2604  0.0418
    1AU     LIG   68   9.356   5.820   7.382 -0.1249  0.0315 -0.2169
    1AU    AUSL   69   8.253   6.239   6.772  0.0199  0.0472 -0.0207
    1AU    AUSL   70   7.997   6.168   6.769 -0.0253  0.0297  0.0254
    1AU     AUL   71   7.977   6.000   7.101 -0.0581 -0.0762 -0.0311
    1AU       S   72   8.687   5.993   7.249  0.1304  0.2494  0.1450
    1AU     LIG   73   8.527   5.550   7.180 -0.3277  0.0969  0.0470
    1AU     LIG   74   8.842   5.241   7.192  0.0852 -0.1395 -0.1821
    1AU     LIG   75   9.269   5.331   7.318 -0.1945  0.0936 -0.1248
    1AU     LIG   76   9.661   5.439   7.266 -0.0560  0.0033 -0.1065
    1AU       S   77   8.025   5.535   6.866  0.1245 -0.0036 -0.2300
    1AU     LIG   78   8.200   5.186   7.075  0.0835 -0.1175  0.0859
    1AU     LIG   79   8.307   4.783   7.091  0.1010  0.1828  0.1033
    1AU     LIG   80   8.408   4.319   6.891  0.0797 -0.2294 -0.1305
    1AU     LIG   81   8.712   3.993   6.666  0.0681  0.1349 -0.7307
    1AU    AUSL   82   8.165   6.201   7.041 -0.0776 -0.0367 -0.0048
    1AU    AUSL   83   8.079   6.424   7.186  0.0306  0.0087 -0.0170
    1AU     AUL   84   8.369   6.564   7.132  0.0240 -0.0130 -0.0320
    1AU       S   85   8.259   5.914   7.514 -0.1835  0.1769  0.2737
    1AU     LIG   86   8.197   5.436   7.557  0.0335 -0.2301  0.1496
    1AU     LIG   87   8.141   4.983   7.531 -0.0796  0.2356 -0.0378
    1AU     LIG   88   7.679   4.799   7.568 -0.4419 -0.2442 -0.0672
    1AU     LIG   89   7.368   4.918   7.374  0.2218  0.1979  0.2737
    1AU       S   90   8.043   6.354   7.608  0.3012  0.1410  0.0781
    1AU     LIG   91   8.179   6.159   7.926 -0.1030  0.1726  0.2925
    1AU     LIG   92   8.496   5.841   8.052  0.0557  0.0661 -0.3102
    1AU     LIG   93   8.575   5.489   8.370  0.0802  0.0472  0.3502
    1AU     LIG   94   8.657   5.385   8.871 -0.1724 -0.3627  0.2465
    1AU    AUSL   95   8.053   7.191   6.653  0.0330  0.0205 -0.0059
    1AU    AUSL   96   7.823   7.107   6.759  0.0360 -0.1256 -0.0414
    1AU     AUL   97   8.088   7.189   6.964 -0.0072 -0.0591  0.0967
    1AU       S   98   8.027   7.633   6.700  0.0757 -0.0419 -0.0876
    1AU     LIG   99   8.003   8.069   6.549 -0.1337  0.2521  0.0491
    1AU     LIG  100   7.807   8.456   6.780 -0.1789 -0.3949 -0.1031
    1AU     LIG  101   8.078   8.916   6.851 -0.0612 -0.2843  0.1054
    1AU     LIG  102   8.462   9.054   6.536  0.3042  0.3938  0.1167
    1AU       S  103   7.591   7.508   6.860 -0.3154  0.0729 -0.3640
    1AU     LIG  104   7.573   7.871   6.670 -0.1010 -0.2075  0.0708
    1AU     LIG  105   7.465   8.235   6.428  0.1518  0.0642  0.3223
    1AU     LIG  106   7.091   8.448   6.249  0.2608 -0.0692 -0.0801
    1AU     LIG  107   6.761   8.229   5.986  0.1807 -0.1713  0.1497
    1AU    AUSL  108   8.117   7.154   6.385 -0.0579  0.0379  0.1361
    1AU    AUSL  109   8.243   7.001   6.567 -0.0607 -0.0105  0.0523
    1AU     AUL  110   8.287   7.110   6.717  0.0196  0.0862 -0.0507
    1AU       S  111   8.544   7.519   6.648 -0.1007 -0.0740  0.0436
    1AU     LIG  112   8.914   7.770   6.455 -0.1100 -0.2251 -0.1845
    1AU     LIG  113   9.395   7.717   6.397  0.2144 -0.0949  0.0418
    1AU     LIG  114   9.813   7.758   6.406  0.1006  0.1264 -0.0246
    1AU     LIG  115  10.130   8.017   6.483  0.1851 -0.4156  0.2308
    1AU       S  116   8.098   7.643   6.342 -0.0454 -0.1091  0.1505
    1AU     LIG  117   8.359   7.900   6.266  0.3378 -0.3506 -0.0820
    1AU     LIG  118   8.603   8.288   6.294  0.0197 -0.0763  0.2817
    1AU     LIG  119   8.769   8.630   6.322 -0.4169 -0.0560 -0.4052
    1AU     LIG  120   8.998   9.079   6.471  0.4074 -0.2595  0.0631
    1AU    AUSL  121   7.928   6.984   6.516 -0.0290 -0.0961 -0.0515
    1AU    AUSL  122   8.085   6.900   6.270  0.0775 -0.0066  0.0094
    1AU     AUL  123   7.800   7.115   6.488 -0.0761  0.0503  0.0293
    1AU       S  124   7.919   7.313   5.791  0.3050 -0.5124 -0.3165
    1AU     LIG  125   8.118   7.760   5.865  0.5151 -0.2289 -0.2274
    1AU     LIG  126   8.471   8.087   5.790  0.0455  0.2017 -0.1482
    1AU     LIG  127   8.717   8.361   5.551 -0.1958  0.3536  0.0241
    1AU     LIG  128   8.939   8.554   5.265 -0.1355  0.2998 -0.0989
    1AU       S  129   7.810   7.614   6.360  0.0950 -0.0396 -0.1186
    1AU     LIG  130   7.633   7.913   6.054 -0.0441 -0.2661  0.0755
    1AU     LIG  131   7.603   8.434   5.963  0.2451  0.0289 -0.0997
    1AU     LIG  132   7.460   8.720   6.392  0.0825 -0.1728  0.1745
    1AU     LIG  133   7.582   8.955   6.732 -0.2905  0.0301 -0.3000
    1AU    AUSL  134   7.994   6.151   6.497 -0.0276  0.0446  0.0239
    1AU    AUSL  135   7.727   6.306   6.774  0.0169 -0.0610  0.0218
    1AU     AUL  136   8.032   6.065   6.833 -0.0111  0.0166 -0.0875
    1AU       S  137   7.970   5.560   6.524 -0.2984 -0.2009 -0.0760
    1AU     LIG  138   7.879   5.157   6.199 -0.0247 -0.2400 -0.0825
    1AU     LIG  139   7.757   4.724   6.101  0.4531  0.1690 -0.0168
    1AU     LIG  140   7.241   4.642   6.105 -0.0120  0.0662 -0.0992
    1AU     LIG  141   6.899   4.389   6.083 -0.1367  0.2140 -0.3599
    1AU       S  142   7.245   5.901   6.897 -0.0407  0.4041 -0.4095
    1AU     LIG  143   6.956   5.608   6.795 -0.0310  0.4175  0.3473
    1AU     LIG  144   7.003   5.190   6.688  0.2964  0.3574 -0.2263
    1AU     LIG  145   7.132   4.922   6.920 -0.1892 -0.2733  0.0420
    1AU     LIG  146   7.386   4.580   6.992  0.1858  0.0735 -0.3063
    1AU    AUSL  147   8.181   5.995   6.616 -0.0739 -0.0172 -0.0023
    1AU    AUSL  148   8.180   6.031   6.312  0.0471 -0.0579 -0.0453
    1AU     AUL  149   8.429   6.079   6.644 -0.0433  0.0811  0.0120
    1AU       S  150   8.374   5.670   6.160  0.4573  0.2888 -0.0011
    1AU     LIG  151   8.356   5.244   6.247  0.0817  0.2071 -0.1153
    1AU     LIG  152   8.292   4.884   6.477  0.1904 -0.0367  0.0968
    1AU     LIG  153   7.796   4.792   6.693  0.0409  0.2240  0.1662
    1AU     LIG  154   7.781   4.907   7.086  0.2858  0.1502 -0.0162
    1AU       S  155   8.209   5.525   6.632  0.1299  0.0723  0.1567
    1AU     LIG  156   8.599   5.209   6.698  0.1039 -0.0050  0.0103
    1AU     LIG  157   9.029   5.128   6.641 -0.0378 -0.0778  0.0761
    1AU     LIG  158   9.238   4.739   6.586  0.1419 -0.0585 -0.4423
    1AU     LIG  159   9.583   4.568   6.372 -0.1601 -0.2230 -0.1463
    1AU    AUSL  160   7.873   6.864   6.069 -0.0146 -0.0268 -0.0350
    1AU    AUSL  161   8.140   6.816   6.016  0.1059 -0.0852 -0.0239
    1AU     AUL  162   8.194   7.105   6.114 -0.0391 -0.0158  0.0343
    1AU       S  163   7.795   7.133   5.709  0.0039  0.2185 -0.2755
    1AU     LIG  164   7.513   7.033   5.410  0.1524  0.1178  0.0060
    1AU     LIG  165   7.066   7.006   5.186 -0.0365  0.0762  0.0982
    1AU     LIG  166   6.888   7.193   4.806  0.1695 -0.1512  0.0591
    1AU     LIG  167   7.037   7.424   4.484  0.2211  0.0201  0.2367
    1AU       S  168   8.243   6.881   5.642 -0.1429 -0.0071  0.5692
    1AU     LIG  169   8.151   7.198   5.359  0.1198 -0.1719  0.0059
    1AU     LIG  170   7.794   7.268   5.057 -0.0490  0.1888 -0.3797
    1AU     LIG  171   7.902   7.428   4.667 -0.1706 -0.2630 -0.0917
    1AU     LIG  172   7.980   7.882   4.536  0.2051  0.1267 -0.1887
    1AU    AUSL  173   7.888   7.080   6.237 -0.0924 -0.0065 -0.0332
    1AU    AUSL  174   7.661   6.697   6.105 -0.0325 -0.0387  0.0503
    1AU     AUL  175   7.577   7.006   6.355 -0.0026  0.0171  0.0587
    1AU       S  176   7.368   6.822   5.806  0.0646 -0.1524 -0.0744
    1AU     LIG  177   7.022   6.710   5.585 -0.2424  0.0676  0.3073
    1AU     LIG  178   6.580   6.608   5.673 -0.2303  0.2293  0.0826
    1AU     LIG  179   6.312   6.561   5.980  0.1524  0.1259  0.3937
    1AU     LIG  180   5.843   6.643   6.173  0.0802 -0.3608 -0.3464
    1AU       S  181   7.704   7.349   5.911 -0.0896  0.0989  0.0613
    1AU     LIG  182   7.318   7.529   6.179 -0.0818  0.0117  0.1327
    1AU     LIG  183   6.889   7.624   5.934 -0.0639 -0.1496 -0.1047
    1AU     LIG  184   6.466   7.711   6.100 -0.3105  0.3070  0.0329
    1AU     LIG  185   6.095   7.770   5.815  0.0919 -0.0095 -0.0935
    1AU    AUSL  186   8.029   6.917   7.066 -0.0404  0.0245  0.1326
    1AU    AUSL  187   8.064   6.958   6.795 -0.0009 -0.0291  0.0305
    1AU     AUL  188   7.691   6.761   7.058 -0.0086 -0.0535 -0.0074
    1AU       S  189   7.727   7.520   7.077 -0.0736 -0.0651  0.0542
    1AU     LIG  190   7.769   7.929   7.119  0.1141  0.0421 -0.3059
    1AU     LIG  191   8.115   8.194   7.242  0.1309 -0.0573  0.1493
    1AU     LIG  192   8.443   7.960   7.449  0.1957 -0.3458  0.0388
    1AU     LIG  193   8.527   7.597   7.667 -0.2582  0.2438  0.2907
    1AU       S  194   8.155   7.103   7.529  0.0043 -0.1216 -0.0668
    1AU     LIG  195   7.936   7.506   7.512 -0.3934 -0.0671 -0.1552
    1AU     LIG  196   7.958   7.936   7.640  0.2750  0.3063  0.2191
    1AU     LIG  197   8.123   8.124   8.019  0.4683  0.0230  0.2294
    1AU     LIG  198   8.004   8.463   8.373 -0.1254 -0.1012 -0.1588
    1AU    AUSL  199   8.275   6.994   6.966 -0.0182  0.0247 -0.0436
    1AU    AUSL  200   8.471   6.804   7.008 -0.0883  0.0185 -0.0010
    1AU     AUL  201   8.141   6.714   7.216 -0.0102 -0.0220 -0.0350
    1AU       S  202   8.377   7.238   7.355 -0.4663  0.3306  0.3340
    1AU     LIG  203   8.702   7.575   7.192  0.1388 -0.2099  0.2846
    1AU     LIG  204   8.688   7.946   6.947 -0.0542  0.3882  0.0400
    1AU     LIG  205   8.426   8.304   6.849  0.1108  0.5853 -0.0549
    1AU     LIG  206   8.280   8.557   6.553 -0.0906 -0.1510 -0.1516
    1AU       S  207   8.843   6.861   7.308  0.1994 -0.2915 -0.0906
    1AU     LIG  208   8.924   7.245   7.488  0.0270  0.1983  0.0142
    1AU     LIG  209   9.394   7.365   7.435 -0.0667 -0.1310 -0.0151
    1AU     LIG  210   9.816   7.255   7.290 -0.1333  0.2294  0.0163
    1AU     LIG  211  10.294   7.240   7.023 -0.2373 -0.2336 -0.2108
    1AU    AUSL  212   8.205   6.726   6.947 -0.1611 -0.0758 -0.0009
    1AU    AUSL  213   7.952   6.659   7.003 -0.0463 -0.0996 -0.0170
    1AU     AUL  214   7.841   6.556   7.141  0.0316 -0.0270  0.0052
    1AU       S  215   7.878   6.585   7.636  0.2400 -0.5442 -0.0910
    1AU     LIG  216   7.446   6.604   7.770  0.2553 -0.2401  0.3217
    1AU     LIG  217   7.088   6.643   7.831  0.0573 -0.4034  0.0340
    1AU     LIG  218   6.864   6.256   7.655  0.2889  0.2162 -0.3231
    1AU     LIG  219   6.407   6.113   7.525 -0.0546  0.1392 -0.4257
    1AU       S  220   8.395   7.038   7.515  0.0252  0.3417 -0.3818
    1AU     LIG  221   8.327   6.676   7.833 -0.0032 -0.0951 -0.2720
    1AU     LIG  222   8.311   6.784   8.222  0.3199  0.2944 -0.3572
    1AU     LIG  223   8.394   6.838   8.643 -0.0414  0.1562 -0.3593
    1AU     LIG  224   8.755   6.874   8.999  0.4718  0.0922 -0.0468
    1AU    AUSL  225   7.702   6.289   6.450  0.0430  0.0304 -0.0354
    1AU    AUSL  226   7.765   6.078   6.627  0.0766  0.0704 -0.0027
    1AU     AUL  227   7.635   6.256   6.305  0.0223 -0.0472  0.0239
    1AU       S  228   7.467   5.721   6.623 -0.0294  0.3097  0.2421
    1AU     LIG  229   7.518   5.334   6.474 -0.2124 -0.2952 -0.1911
    1AU     LIG  230   7.382   4.912   6.481  0.2186 -0.2201 -0.3154
    1AU     LIG  231   7.372   4.396   6.522  0.1540  0.1453 -0.0936
    1AU     LIG  232   7.200   4.138   6.534  0.2748 -0.1867 -0.3047
    1AU       S  233   7.223   5.970   6.249  0.0363  0.0056  0.0938
    1AU     LIG  234   7.088   5.559   6.239  0.0813 -0.1313 -0.1891
    1AU     LIG  235   7.162   5.133   6.120 -0.1159 -0.1312 -0.3372
    1AU     LIG  236   7.390   4.960   5.785  0.2361  0.1075  0.0341
    1AU     LIG  237   7.661   4.925   5.589 -0.2156 -0.1707 -0.3191
    1AU    AUSL  238   7.720   6.518   6.296 -0.0531  0.0286 -0.0514
    1AU    AUSL  239   7.540   6.717   6.380 -0.0292 -0.0134  0.0756
    1AU     AUL  240   7.746   6.443   6.111  0.0112  0.0377 -0.0944
    1AU       S  241   7.236   6.378   5.950  0.2450 -0.1049  0.5060
    1AU     LIG  242   6.792   6.418   6.099  0.0376  0.5709  0.1738
    1AU     LIG  243   6.527   6.731   6.412  0.0060 -0.0162 -0.1247
    1AU     LIG  244   6.612   7.149   6.596 -0.1709  0.0062 -0.0835
    1AU     LIG  245   6.514   7.546   6.607  0.5155  0.1530  0.2372
    1AU       S  246   7.053   6.803   6.175  0.0730  0.0875  0.1406
    1AU     LIG  247   6.706   6.972   6.004 -0.1541  0.0678 -0.1726
    1AU     LIG  248   6.359   7.123   6.117 -0.1461 -0.1631 -0.2005
    1AU     LIG  249   6.084   7.329   6.249  0.4133  0.0836 -0.4265
    1AU     LIG  250   5.710   7.608   6.167 -0.0242  0.2066  0.2410
    1AU    AUSL  251   7.801   6.032   6.342 -0.0729  0.0266 -0.0497
    1AU    AUSL  252   8.004   6.367   6.013 -0.0373  0.0341  0.0438
    1AU     AUL  253   7.726   6.163   6.057  0.0375 -0.0804 -0.0478
    1AU       S  254   8.106   6.137   5.630 -0.1255  0.5374  0.4555
    1AU     LIG  255   7.894   6.250   5.289  0.3874 -0.1977 -0.5967
    1AU     LIG  256   7.913   6.210   4.914  0.1300  0.0780 -0.0628
    1AU     LIG  257   7.956   6.253   4.485  0.1530  0.2089 -0.2165
    1AU     LIG  258   8.226   6.179   4.217  0.2724 -0.2870  0.3740
    1AU       S  259   7.710   5.669   6.125  0.1562  0.2089 -0.0289
    1AU     LIG  260   7.933   5.463   5.811 -0.2121 -0.2234 -0.1539
    1AU     LIG  261   8.214   5.128   5.762  0.4950 -0.2921  0.2083
    1AU     LIG  262   8.157   4.751   5.630  0.2528 -0.1183 -0.1004
    1AU     LIG  263   7.917   4.413   5.618 -0.2940 -0.1888 -0.1011
    1AU    AUSL  264   8.634   6.772   6.755  0.0326  0.0699  0.0767
    1AU    AUSL  265   8.441   6.575   6.844 -0.0232 -0.0155  0.0639
    1AU     AUL  266   8.606   6.540   6.988 -0.0382 -0.0293  0.0561
    1AU       S  267   9.029   6.906   6.902  0.2791  0.0325  0.2072
    1AU     LIG  268   9.454   7.105   7.000 -0.1590  0.1259  0.0605
    1AU     LIG  269   9.819   7.120   6.810  0.1119 -0.2040  0.0424
    1AU     LIG  270  10.072   7.280   6.611 -0.4601 -0.2707 -0.0515
    1AU     LIG  271  10.242   7.534   6.223  0.3069  0.0994 -0.3011
    1AU       S  272   9.043   6.456   7.136  0.1833  0.2686 -0.4112
    1AU     LIG  273   9.321   6.708   7.341  0.0417 -0.1780  0.1437
    1AU     LIG  274   9.673   6.865   7.578 -0.2225 -0.0581 -0.1956
    1AU     LIG  275  10.171   6.840   7.382 -0.1039 -0.1339 -0.0935
    1AU     LIG  276  10.558   6.955   7.380  0.0353 -0.1562 -0.2352
    1AU    AUSL  277   8.363   6.835   6.749 -0.0845  0.0581 -0.0299
    1AU    AUSL  278   8.517   6.942   6.546 -0.0962  0.0135  0.0306
    1AU     AUL  279   8.521   7.071   6.886  0.0776  0.0048  0.0307
    1AU       S  280   8.933   6.941   7.133  0.1783 -0.2331  0.1478
    1AU     LIG  281   9.112   7.467   7.003  0.1190  0.1304  0.1300
    1AU     LIG  282   9.156   7.859   6.856  0.0214 -0.1112 -0.1692
    1AU     LIG  283   9.606   8.099   6.804  0.0543  0.1078  0.1067
    1AU     LIG  284   9.929   8.142   7.022  0.3076  0.2524 -0.0508
    1AU       S  285   8.801   7.293   6.553 -0.2381 -0.6100 -0.1535
    1AU     LIG  286   9.203   7.273   6.561  0.1112 -0.3546 -0.4389
    1AU     LIG  287   9.609   7.257   6.375  0.0075  0.2464  0.0525
    1AU     LIG  288   9.847   6.897   6.351 -0.0828  0.0984  0.1136
    1AU     LIG  289  10.147   6.541   6.319 -0.2827 -0.0863  0.0265
    1AU    AUSL  290   8.196   6.307   6.191 -0.0126  0.0394 -0.0494
    1AU    AUSL  291   7.978   6.616   6.154  0.0181  0.1001 -0.0233
    1AU     AUL  292   7.938   6.599   5.979 -0.0612 -0.0975 -0.0674
    1AU       S  293   8.133   6.624   5.510  0.0168  0.1851  0.5388
    1AU     LIG  294   8.360   6.468   5.102 -0.4900 -0.1939 -0.2141
    1AU     LIG  295   8.422   6.225   4.704 -0.4030 -0.0674  0.3845
    1AU     LIG  296   8.659   5.920   4.420 -0.0534  0.1749 -0.2505
    1AU     LIG  297   8.975   5.696   4.512  0.5382  0.3802  0.3169
    1AU       S  298   8.295   6.025   5.745 -0.2476  0.2034 -0.0493
    1AU     LIG  299   8.686   6.025   5.539  0.0049 -0.0789  0.0950
    1AU     LIG  300   9.092   5.924   5.400 -0.0320 -0.1347 -0.1697
    1AU     LIG  301   9.465   6.176   5.459  0.0186  0.0225 -0.0465
    1AU     LIG  302   9.578   6.658   5.418 -0.0409  0.0213  0.0272
    1AU    AUSL  303   7.915   6.288   6.271  0.0434  0.0993  0.0718
    1AU    AUSL  304   8.423   6.170   6.271  0.0127 -0.0532 -0.0485
    1AU     AUL  305   8.005   6.127   6.179 -0.0007 -0.0282  0.0762
    1AU       S  306   8.603   5.791   6.121 -0.0271  0.3752 -0.3501
    1AU     LIG  307   8.928   5.688   5.813 -0.1378 -0.1249 -0.3096
    1AU     LIG  308   9.228   5.344   5.798 -0.1534 -0.1321  0.2664
    1AU     LIG  309   9.515   5.096   5.667 -0.1199  0.1144 -0.1044
    1AU     LIG  310   9.996   4.954   5.558  0.0351 -0.1648 -0.1698
    1AU       S  311   8.053   5.938   5.694 -0.2147 -0.1844  0.1107
    1AU     LIG  312   7.624   5.914   5.554 -0.0819  0.1182 -0.2704
    1AU     LIG  313   7.195   5.954   5.667 -0.2727  0.2674  0.0605
    1AU     LIG  314   6.799   5.861   5.899  0.0905 -0.2974  0.0022
    1AU     LIG  315   6.479   6.114   5.795 -0.1261  0.0413 -0.1547
    1AU    AUSL  316   7.660   6.371   7.035  0.0446 -0.0339  0.0067
    1AU    AUSL  317   7.501   6.237   6.631 -0.0309 -0.0313 -0.0392
    1AU     AUL  318   7.758   6.025   6.903 -0.0036 -0.0423  0.0161
    1AU       S  319   7.111   6.100   6.736 -0.4359  0.0549  0.0335
    1AU     LIG  320   6.781   6.012   6.523 -0.0941 -0.1580 -0.1423
    1AU     LIG  321   6.544   6.019   6.274 -0.2627 -0.4656  0.3113
    1AU     LIG  322   6.044   6.092   6.156  0.0123 -0.3660 -0.3690
    1AU     LIG  323   5.651   6.150   6.344 -0.1018  0.1028  0.1814
    1AU       S  324   7.304   6.292   7.306  0.0301  0.1821  0.2317
    1AU     LIG  325   6.862   5.938   7.182  0.0291 -0.3134  0.2188
    1AU     LIG  326   6.574   5.498   7.238 -0.1021  0.1345  0.0940
    1AU     LIG  327   6.108   5.254   7.142 -0.1686 -0.4516  0.2438
    1AU     LIG  328   5.993   5.366   6.764  0.3082  0.0403 -0.1673
    1AU    AUSL  329   7.494   6.466   6.804 -0.0503  0.0019 -0.0250
    1AU    AUSL  330   7.552   6.741   6.793  0.0229 -0.1291  0.0390
    1AU     AUL  331   7.461   6.439   6.427 -0.0232 -0.0388 -0.0417
    1AU       S  332   7.107   6.427   7.105 -0.2821  0.3507 -0.1007
    1AU     LIG  333   6.682   6.449   7.262 -0.2842 -0.5279 -0.2110
    1AU     LIG  334   6.396   6.682   7.428 -0.1090 -0.0479 -0.1464
    1AU     LIG  335   6.196   6.849   7.788 -0.0738 -0.2675 -0.0577
    1AU     LIG  336   6.232   6.922   8.260  0.0612  0.0940  0.3369
    1AU       S  337   7.105   6.877   6.904 -0.2771 -0.0549 -0.0375
    1AU     LIG  338   6.668   6.914   7.063  0.0156  0.3092 -0.0750
    1AU     LIG  339   6.285   6.733   6.923 -0.2611  0.0834 -0.2606
    1AU     LIG  340   6.197   6.350   6.581 -0.0479  0.3202 -0.0097
    1AU     LIG  341   5.922   6.010   6.751 -0.3938 -0.2676  0.0879
    1AU    AUSL  342   7.739   6.571   6.867  0.0111  0.0245  0.0750
    1AU    AUSL  343   7.941   6.379   6.944  0.1355  0.1079  0.0247
    1AU     AUL  344   7.889   6.254   7.018  0.0028  0.0640  0.0288
    1AU       S  345   7.772   6.212   7.535  0.4806 -0.1502  0.3293
    1AU     LIG  346   7.764   5.813   7.739 -0.1776  0.0041 -0.1913
    1AU     LIG  347   8.038   5.578   7.977  0.0225 -0.2285  0.1413
    1AU     LIG  348   7.976   5.538   8.434  0.2650 -0.0599  0.0095
    1AU     LIG  349   7.838   5.585   8.745 -0.0066  0.2090  0.1765
    1AU       S  350   7.286   6.585   7.279  0.1412 -0.0371 -0.2771
    1AU     LIG  351   7.071   6.951   7.429  0.0140 -0.0123  0.3622
    1AU     LIG  352   6.649   7.153   7.522  0.1730  0.0634 -0.2910
    1AU     LIG  353   6.477   7.509   7.745 -0.3113 -0.1446 -0.0151
    1AU     LIG  354   6.534   7.984   7.774  0.0881  0.0670 -0.1276
    1AU    AUSL  355   8.490   6.342   6.577  0.0208 -0.0949 -0.0402
    1AU    AUSL  356   8.671   6.504   6.702 -0.0254  0.0639 -0.0445
    1AU     AUL  357   8.428   6.306   6.990  0.0092  0.0193 -0.0016
    1AU       S  358   8.997   6.070   6.254  0.0071 -0.0697 -0.3387
    1AU     LIG  359   9.278   5.971   6.585  0.0802 -0.2156 -0.2346
    1AU     LIG  360   9.649   5.866   6.966  0.2977  0.0570  0.1059
    1AU     LIG  361  10.169   5.900   7.069  0.2539  0.2366 -0.3011
    1AU     LIG  362  10.662   5.993   7.070 -0.3858  0.0247 -0.2443
    1AU       S  363   9.149   6.447   6.805  0.1018  0.0663  0.1686
    1AU     LIG  364   9.606   6.624   6.894 -0.0783 -0.1417  0.2879
    1AU     LIG  365  10.086   6.729   6.814 -0.1179  0.0479 -0.1626
    1AU     LIG  366  10.413   6.962   6.621 -0.0690 -0.1990  0.0649
    1AU     LIG  367  10.550   7.177   6.361  0.0608 -0.2843 -0.1519
    1AU    AUSL  368   8.406   6.438   6.330  0.0461 -0.0853 -0.0719
    1AU    AUSL  369   8.265   6.223   6.489 -0.0447  0.0713  0.0843
    1AU     AUL  370   8.649   6.237   6.602 -0.0550  0.1096  0.0550
    1AU       S  371   8.891   6.192   6.037 -0.4832  0.2414 -0.0945
    1AU     LIG  372   9.419   5.957   6.038 -0.1234  0.0420  0.0748
    1AU     LIG  373   9.802   5.927   5.765 -0.3807 -0.5824 -0.0072
    1AU     LIG  374  10.100   6.273   5.574 -0.0679 -0.2639  0.1245
    1AU     LIG  375  10.243   6.689   5.810  0.0514  0.0192 -0.0493
    1AU       S  376   8.642   5.733   6.344  0.0249  0.5756  0.0764
    1AU     LIG  377   8.914   5.347   6.203 -0.1510 -0.0093  0.0495
    1AU     LIG  378   8.821   4.870   6.295  0.1504 -0.0763 -0.0228
    1AU     LIG  379   8.607   4.408   6.340  0.1165  0.1371  0.1178
    1AU     LIG  380   8.289   4.034   6.405 -0.1467 -0.2185 -0.2257
    1AU    AUSL  381   8.670   6.476   6.401  0.0185  0.0287 -0.0555
    1AU    AUSL  382   8.530   6.650   6.217 -0.0393 -0.2062  0.0249
    1AU     AUL  383   8.456   6.385   6.089  0.0802 -0.0019  0.0138
    1AU       S  384   8.846   6.748   5.982  0.3746  0.0765 -0.2159
    1AU     LIG  385   9.224   6.530   5.800  0.0408  0.3205  0.2428
    1AU     LIG  386   9.673   6.444   5.851 -0.1777  0.2005  0.2360
    1AU     LIG  387   9.942   6.185   6.118  0.0040  0.2293 -0.0121
    1AU     LIG  388   9.754   5.845   6.438 -0.2618  0.1400  0.1500
    1AU       S  389   9.041   6.361   6.242 -0.0785 -0.1613 -0.3000
    1AU     LIG  390   9.557   6.353   6.406  0.2215 -0.0019  0.1021
    1AU     LIG  391   9.933   6.283   6.668  0.2699 -0.1362  0.3518
    1AU     LIG  392  10.386   6.307   6.783  0.1273 -0.0201  0.1842
    1AU     LIG  393  10.673   6.126   6.522 -0.0393  0.1250  0.0057
    1AU    AUSL  394   7.691   6.842   6.577  0.0279 -0.0125  0.0861
    1AU    AUSL  395   7.811   6.839   6.827 -0.0617  0.1080  0.0611
    1AU     AUL  396   7.814   6.975   6.907 -0.0526 -0.0449  0.0373
    1AU       S  397   7.103   6.967   6.628  0.4115  0.1492 -0.0951
    1AU     LIG  398   7.107   7.317   6.612  0.0792 -0.0384 -0.2901
    1AU     LIG  399   6.941   7.675   6.429 -0.0992 -0.2651 -0.1651
    1AU     LIG  400   6.572   8.076   6.454  0.2579 -0.5001 -0.0957
    1AU     LIG  401   6.467   8.498   6.429 -0.2074  0.1193  0.1804
    1AU       S  402   7.397   7.269   7.049 -0.0564  0.0920 -0.2225
    1AU     LIG  403   7.182   7.727   6.964 -0.1758  0.4819 -0.1942
    1AU     LIG  404   7.093   8.096   6.697  0.1594  0.1044 -0.2024
    1AU     LIG  405   7.093   8.574   6.772 -0.0505  0.0780  0.4553
    1AU     LIG  406   7.066   8.977   6.773  0.3969 -0.1692 -0.1616
    1AU    AUSL  407   7.634   6.565   6.598  0.0057 -0.0732 -0.0276
    1AU    AUSL  408   7.784   6.823   6.323 -0.1787 -0.0543 -0.0491
    1AU     AUL  409   7.624   6.964   6.637  0.0306 -0.0067 -0.0075
    1AU       S  410   7.030   6.680   6.657 -0.2736  0.0123  0.6149
    1AU     LIG  411   6.697   6.459   6.783  0.0475 -0.1608  0.3571
    1AU     LIG  412   6.470   5.952   6.877 -0.3180  0.2141 -0.3817
    1AU     LIG  413   6.407   5.605   6.626  0.0288 -0.3324 -0.4615
    1AU     LIG  414   6.651   5.381   6.310  0.2840 -0.0380 -0.2584
    1AU       S  415   7.271   7.078   5.977 -0.3790 -0.1356 -0.2965
    1AU     LIG  416   7.213   7.313   5.678 -0.1826 -0.0803  0.0667
    1AU     LIG  417   6.993   7.668   5.464 -0.2735 -0.1466  0.0232
    1AU     LIG  418   6.750   7.880   5.115  0.0618 -0.1216  0.2880
    1AU     LIG  419   6.404   8.068   4.999 -0.3098  0.0008 -0.1306
    1AU    AUSL  420   8.354   6.818   6.336 -0.0351  0.0183 -0.0212
    1AU    AUSL  421   8.261   6.613   6.166  0.0435 -0.1089 -0.0489
    1AU     AUL  422   8.216   6.532   6.038 -0.1108 -0.1308 -0.0187
    1AU       S  423   8.415   6.539   5.608 -0.1216 -0.0631 -0.0193
    1AU     LIG  424   8.831   6.481   5.461  0.0830 -0.2009 -0.0903
    1AU     LIG  425   9.105   6.615   5.319  0.1084  0.0801 -0.0794
    1AU     LIG  426   9.212   6.695   4.799  0.0737  0.1263 -0.0215
    1AU     LIG  427   9.122   6.953   4.511  0.0522  0.0010  0.2913
    1AU       S  428   8.855   7.019   6.073  0.3247  0.1713  0.0722
    1AU     LIG  429   9.124   7.414   6.088  0.1498 -0.2341  0.4656
    1AU     LIG  430   9.259   7.534   5.812 -0.0386 -0.5616  0.1223
    1AU     LIG  431   8.996   7.813   5.521  0.1271 -0.0321 -0.0844
    1AU     LIG  432   8.696   8.042   5.157  0.2742  0.6123 -0.1191
    1AU    AUSL  433   8.500   6.666   6.523  0.0085  0.0367  0.0011
    1AU    AUSL  434   8.375   7.095   6.349  0.0173  0.0728  0.0859
    1AU     AUL  435   8.364   6.881   6.191 -0.0590 -0.0883  0.0356
    1AU       S  436   8.996   6.882   6.286  0.4622  0.3237  0.2033
    1AU     LIG  437   9.388   6.842   6.210  0.3049  0.1201 -0.2555
    1AU     LIG  438   9.490   7.029   5.938  0.2623  0.2805  0.0538
    1AU     LIG  439   9.799   6.885   5.755 -0.3409 -0.1618 -0.3506
    1AU     LIG  440  10.096   7.040   5.473  0.0489  0.1020 -0.1366
    1AU       S  441   8.600   7.405   6.322 -0.1070 -0.1352  0.0036
    1AU     LIG  442   8.761   7.684   6.019 -0.0739  0.1195  0.0832
    1AU     LIG  443   9.044   7.945   6.037 -0.1439  0.0621 -0.2899
    1AU     LIG  444   9.126   8.242   6.327  0.0562 -0.1365 -0.1822
    1AU     LIG  445   8.988   8.297   6.696 -0.0090  0.3974  0.0696
    2POPC   NC3  446   7.163   2.421   8.403 -0.2868  0.1315 -0.3258
    2POPC   PO4  447   7.396   2.036   8.593  0.2173 -0.0095 -0.1655
    2POPC   GL1  448   7.434   2.147   8.151  0.1181  0.2279 -0.0602
    2POPC   GL2  449   7.195   2.171   7.893 -0.2698 -0.1504 -0.1652
    2POPC   C1A  450   7.550   1.843   7.888 -0.0752  0.3769  0.1523
    2POPC   D2A  451   7.943   1.707   7.678  0.0267 -0.1181 -0.1939
    2POPC   C3A  452   8.069   1.817   7.290  0.0531  0.2238  0.0851
    2POPC   C4A  453   8.228   1.997   6.924  0.1205  0.0263 -0.1897
    2POPC   C1B  454   7.096   2.537   7.577  0.0468  0.1176  0.2902
    2POPC   C2B  455   7.308   2.457   7.280 -0.1622 -0.0436 -0.0481
    2POPC   C3B  456   7.608   2.374   6.964  0.1899 -0.0130 -0.0901
    2POPC   C4B  457   7.904   2.288   6.624  0.1409 -0.3188 -0.3907
    3POPC   NC3  458   1.066   9.728   8.277 -0.0262  0.0192  0.1906
    3POPC   PO4  459   1.284   9.393   8.045 -0.0606  0.1978  0.1583
    3POPC   GL1  460   1.167   9.239   7.737  0.1856 -0.1740  0.4854
    3POPC   GL2  461   1.178   8.864   7.632 -0.2580 -0.1880  0.0260
    3POPC   C1A  462   0.927   9.267   7.415  0.2166  0.0652  0.0285
    3POPC   D2A  463   0.795   9.161   6.982  0.0760  0.1734 -0.1608
    3POPC   C3A  464   0.620   9.372   6.653 -0.1223  0.2129 -0.0075
    3POPC   C4A  465   0.921   9.566   6.336 -0.1883 -0.0586  0.1535
    3POPC   C1B  466   1.099   8.783   7.222  0.2801  0.1989 -0.1012
    3POPC   C2B  467   0.875   8.631   6.885 -0.0518  0.0399  0.1274
    3POPC   C3B  468   0.654   8.878   6.572  0.2480  0.1614 -0.2857
    3POPC   C4B  469   0.253   9.021   6.624  0.1511 -0.0164 -0.2021
    4POPC   NC3  470   8.558   1.239   8.927  0.0789 -0.1614  0.1459
    4POPC   PO4  471   8.846   1.452   8.691  0.0661 -0.1049 -0.2474
    4POPC   GL1  472   8.726   1.732   8.358 -0.1094 -0.0753 -0.3341
    4POPC   GL2  473   8.698   2.136   8.271  0.2193 -0.1866 -0.5520
    4POPC   C1A  474   8.988   1.960   7.931  0.3269  0.1899 -0.0988
    4POPC   D2A  475   9.052   1.847   7.587 -0.0581 -0.2337 -0.3035
    4POPC   C3A  476   9.022   1.467   7.492  0.2156 -0.0052  0.1356
    4POPC   C4A  477   9.391   1.352   7.275  0.3183  0.2380  0.2105
    4POPC   C1B  478   8.584   2.268   7.903  0.2391  0.0924 -0.3280
    4POPC   C2B  479   8.941   2.318   7.533  0.1617 -0.2663 -0.2090
    4POPC   C3B  480   9.117   2.195   7.106 -0.1751  0.1324 -0.0718
    4POPC   C4B  481   8.934   2.429   6.800 -0.0987 -0.0092  0.1567
    5POPC   NC3  482   3.613   7.578   8.651  0.0079 -0.0901  0.2307
    5POPC   PO4  483   3.539   7.519   8.203 -0.3363 -0.2491 -0.0787
    5POPC   GL1  484   3.504   7.558   7.901 -0.2183  0.0907 -0.1700
    5POPC   GL2  485   3.862   7.606   7.835  0.2438 -0.0646 -0.2678
    5POPC   C1A  486   3.393   7.356   7.523 -0.0292 -0.4273  0.0101
    5POPC   D2A  487   3.103   7.301   7.174  0.3807  0.1303  0.0289
    5POPC   C3A  488   2.716   7.318   7.299  0.0566 -0.1117  0.1317
    5POPC   C4A  489   2.360   7.467   7.191 -0.3662  0.1023  0.2621
    5POPC   C1B  490   3.849   7.824   7.418 -0.0316 -0.4518 -0.0217
    5POPC   C2B  491   3.844   8.054   7.016 -0.1812  0.2115 -0.0960
    5POPC   C3B  492   3.895   8.386   6.818  0.1889 -0.1620 -0.2224
    5POPC   C4B  493   3.784   8.771   6.585  0.0640  0.1932 -0.1023
    6POPC   NC3  494   4.562   2.456   8.582  0.0267 -0.0881  0.1569
    6POPC   PO4  495   4.639   2.562   8.178  0.2326  0.2496  0.1538
    6POPC   GL1  496   4.668   2.753   7.732 -0.1006 -0.1963 -0.1002
    6POPC   GL2  497   4.897   2.640   7.698  0.2610 -0.1697  0.3603
    6POPC   C1A  498   4.531   2.636   7.312  0.0103  0.1663 -0.1297
    6POPC   D2A  499   4.578   2.357   6.882  0.0838 -0.1100 -0.0158
    6POPC   C3A  500   4.699   2.469   6.469 -0.3332 -0.1682  0.0889
    6POPC   C4A  501   4.631   2.782   6.127 -0.1370  0.0080 -0.1983
    6POPC   C1B  502   4.989   2.580   7.212 -0.2158 -0.0272 -0.0298
    6POPC   C2B  503   5.075   2.547   6.810  0.3407 -0.1544  0.0639
    6POPC   C3B  504   5.260   2.404   6.466  0.1275  0.1515  0.2896
    6POPC   C4B  505   5.192   2.304   6.024 -0.0233  0.1996 -0.1987
    7POPC   NC3  506   1.270   3.777   8.661  0.0986 -0.0878  0.1157
    7POPC   PO4  507   1.688   3.793   8.587 -0.1871  0.0300  0.2553
    7POPC   GL1  508   1.583   4.053   8.180  0.1170  0.0741 -0.0177
    7POPC   GL2  509   1.429   3.903   8.022  0.0659  0.1713 -0.2718
    7POPC   C1A  510   1.624   4.331   7.925  0.1358  0.1188 -0.0123
    7POPC   D2A  511   1.733   4.518   7.518 -0.0868  0.1665 -0.4556
    7POPC   C3A  512   1.700   4.674   7.080 -0.1173 -0.0200  0.0438
    7POPC   C4A  513   1.471   4.971   6.808 -0.3178  0.1666 -0.0377
    7POPC   C1B  514   1.338   4.059   7.650 -0.4437  0.1018  0.1339
    7POPC   C2B  515   1.304   4.279   7.320  0.0245 -0.0213  0.1761
    7POPC   C3B  516   1.252   4.487   6.837 -0.0587  0.0051 -0.0117
    7POPC   C4B  517   0.963   4.839   6.722 -0.1664  0.0345  0.2040
    8POPC   NC3  518   0.251   3.940   8.090  0.0238  0.1222  0.4869
    8POPC   PO4  519   0.201   3.488   8.231 -0.2756  0.1325  0.2722
    8POPC   GL1  520   0.135   3.483   7.826  0.0013  0.4454 -0.0566
    8POPC   GL2  521   0.281   3.697   7.593  0.2466 -0.2383  0.2426
    8POPC   C1A  522  -0.094   3.332   7.477  0.3332 -0.1675 -0.0609
    8POPC   D2A  523  -0.280   3.520   7.223 -0.2007  0.0733 -0.1901
    8POPC   C3A  524  -0.127   3.297   6.965 -0.0497 -0.4580  0.1525
    8POPC   C4A  525  -0.071   3.056   6.662  0.2483 -0.3945 -0.1007
    8POPC   C1B  526   0.166   4.019   7.411 -0.3127  0.4129  0.0958
    8POPC   C2B  527   0.337   4.398   7.237 -0.2620  0.1341 -0.0167
    8POPC   C3B  528   0.678   4.464   6.932  0.0008 -0.1614  0.0538
    8POPC   C4B  529   0.891   4.279   6.521  0.3643  0.1303  0.2776
    9POPC   NC3  530   7.798   9.075   9.811 -0.1185  0.2163 -0.1277
    9POPC   PO4  531   7.524   9.198   9.426  0.1912  0.0401 -0.1735
    9POPC   GL1  532   7.487   9.140   8.961  0.0289 -0.4621  0.0233
    9POPC   GL2  533   7.393   9.330   8.656  0.3006 -0.1391 -0.1487
    9POPC   C1A  534   7.678   8.912   8.604 -0.1334  0.1853  0.0566
    9POPC   D2A  535   7.660   8.790   8.186 -0.1295  0.0521 -0.0635
    9POPC   C3A  536   7.773   8.915   7.696  0.1563 -0.0089  0.0441
    9POPC   C4A  537   7.897   8.979   7.324  0.1224 -0.0913  0.0953
    9POPC   C1B  538   7.457   9.308   8.210 -0.0101  0.1123  0.1634
    9POPC   C2B  539   7.520   9.417   7.840  0.2226  0.2736 -0.1282
    9POPC   C3B  540   7.336   9.152   7.486 -0.1975 -0.2741  0.0096
    9POPC   C4B  541   7.387   8.791   7.155  0.0376 -0.1907 -0.1071
   10POPC   NC3  542   2.772   1.991   7.994  0.1334 -0.1914 -0.1993
   10POPC   PO4  543   3.191   1.817   8.141  0.1244  0.0761 -0.3403
   10POPC   GL1  544   3.145   1.591   7.722  0.1828  0.0539  0.1987
   10POPC   GL2  545   2.954   1.498   7.774  0.3641 -0.1578 -0.1156
   10POPC   C1A  546   3.257   1.494   7.271  0.2737  0.2545 -0.3048
   10POPC   D2A  547   3.105   1.747   7.025  0.1678 -0.1268  0.0229
   10POPC   C3A  548   3.157   2.157   6.872  0.1070  0.1671 -0.0619
   10POPC   C4A  549   3.002   2.383   6.603 -0.2096 -0.1996 -0.0756
   10POPC   C1B  550   2.856   1.172   7.387 -0.0538  0.0692 -0.0313
   10POPC   C2B  551   3.008   0.721   7.150 -0.0679 -0.1607  0.0271
   10POPC   C3B  552   2.945   0.303   7.258 -0.1862  0.2019 -0.0937
   10POPC   C4B  553   2.577   0.086   7.058  0.0238  0.3687 -0.1241
   11POPC   NC3  554   1.773   1.231   8.255 -0.4516 -0.0970  0.0631
   11POPC   PO4  555   2.030   1.578   8.247  0.0807 -0.3696 -0.2514
   11POPC   GL1  556   1.920   1.792   7.839 -0.2700 -0.4113  0.0165
   11POPC   GL2  557   2.207   1.990   7.850  0.2554  0.3982 -0.1625
   11POPC   C1A  558   1.842   2.094   7.512 -0.4673  0.0403 -0.0062
   11POPC   D2A  559   1.810   2.488   7.442 -0.1749 -0.0055  0.4137
   11POPC   C3A  560   1.803   2.597   6.992 -0.0138 -0.4224  0.0288
   11POPC   C4A  561   1.699   2.664   6.620  0.1749 -0.0202  0.2913
   11POPC   C1B  562   2.385   1.999   7.475  0.1571 -0.0386  0.1715
   11POPC   C2B  563   2.108   2.062   7.039 -0.2047 -0.1249 -0.0868
   11POPC   C3B  564   1.989   2.134   6.634 -0.3812 -0.3227  0.1441
   11POPC   C4B  565   1.759   2.234   6.305  0.1423  0.2161 -0.0240
   12POPC   NC3  566   6.244   9.864   8.780  0.0335  0.3047  0.0774
   12POPC   PO4  567   6.225   9.684   8.363  0.0094 -0.3076 -0.0098
   12POPC   GL1  568   6.587   9.792   8.074  0.2900 -0.0384  0.1105
   12POPC   GL2  569   6.623  10.111   8.030  0.1651  0.1668  0.2345
   12POPC   C1A  570   6.719   9.590   7.647  0.1204 -0.4128  0.1774
   12POPC   D2A  571   6.666   9.337   7.213  0.2235 -0.1235 -0.0051
   12POPC   C3A  572   6.671   9.486   6.821  0.2325 -0.2513 -0.2084
   12POPC   C4A  573   6.710   9.603   6.477 -0.3854  0.0674 -0.0007
   12POPC   C1B  574   6.657  10.091   7.554 -0.1937  0.1062 -0.1553
   12POPC   C2B  575   6.582  10.332   7.232 -0.1733  0.1075  0.0691
   12POPC   C3B  576   6.208  10.365   7.005 -0.3286  0.2705 -0.0305
   12POPC   C4B  577   6.107  10.495   6.724 -0.0455  0.2295  0.3884
   13POPC   NC3  578   2.754   1.614   8.309 -0.2828  0.2572 -0.2113
   13POPC   PO4  579   2.531   1.513   8.032  0.0979 -0.0986 -0.0284
   13POPC   GL1  580   2.329   1.483   7.624 -0.3574 -0.1242 -0.2567
   13POPC   GL2  581   2.021   1.298   7.771 -0.1751 -0.1873  0.0228
   13POPC   C1A  582   2.384   1.122   7.325  0.1513 -0.0513 -0.1409
   13POPC   D2A  583   2.435   0.993   6.828  0.0756 -0.2090 -0.2432
   13POPC   C3A  584   2.843   0.877   6.707  0.3204 -0.2614  0.1161
   13POPC   C4A  585   3.192   0.798   6.347 -0.0127 -0.1945 -0.1297
   13POPC   C1B  586   1.785   1.148   7.395 -0.1517 -0.3670  0.5088
   13POPC   C2B  587   2.029   1.115   7.028  0.3209  0.2388  0.2055
   13POPC   C3B  588   1.946   1.243   6.644  0.2522  0.1021  0.0608
   13POPC   C4B  589   1.658   1.095   6.374  0.0917 -0.0028  0.2413
   14POPC   NC3  590   4.339   3.393   8.772 -0.1083 -0.0774 -0.3807
   14POPC   PO4  591   4.046   3.745   8.635 -0.1064 -0.1203  0.0920
   14POPC   GL1  592   3.979   3.784   8.133 -0.0347 -0.3608  0.1392
   14POPC   GL2  593   3.814   3.559   7.924 -0.1464  0.0426  0.0864
   14POPC   C1A  594   3.793   4.150   7.925 -0.1232 -0.0486  0.1043
   14POPC   D2A  595   3.765   4.524   7.720 -0.2013  0.1297  0.1200
   14POPC   C3A  596   3.770   4.569   7.320 -0.1060  0.1799  0.2090
   14POPC   C4A  597   3.992   4.533   6.835  0.4716  0.2249 -0.0862
   14POPC   C1B  598   3.889   3.715   7.559  0.2199  0.0953 -0.2151
   14POPC   C2B  599   4.354   3.552   7.315  0.0171 -0.2400  0.2559
   14POPC   C3B  600   4.784   3.694   7.348  0.1021 -0.0356  0.0161
   14POPC   C4B  601   4.904   4.112   7.375  0.0122 -0.0471  0.2944
   15POPC   NC3  602   6.697   8.973   8.508  0.4028  0.0760  0.1101
   15POPC   PO4  603   6.684   8.510   8.752  0.1105  0.1880  0.1218
   15POPC   GL1  604   6.738   8.520   8.342  0.2706 -0.0541 -0.2043
   15POPC   GL2  605   6.558   8.797   8.088  0.1250  0.0494  0.0187
   15POPC   C1A  606   6.872   8.400   7.938  0.2274 -0.3124 -0.1707
   15POPC   D2A  607   6.756   8.416   7.576 -0.3694  0.0076  0.2081
   15POPC   C3A  608   7.039   8.260   7.301 -0.0727  0.4234 -0.0308
   15POPC   C4A  609   7.382   8.274   7.065 -0.0326  0.4193 -0.0567
   15POPC   C1B  610   6.337   8.609   7.802  0.0147  0.0271 -0.1602
   15POPC   C2B  611   6.072   8.300   7.583  0.1021 -0.1571 -0.1712
   15POPC   C3B  612   5.688   8.144   7.783 -0.0600 -0.0466  0.0650
   15POPC   C4B  613   5.508   7.806   7.998 -0.2201 -0.1630  0.0625
   16POPC   NC3  614   2.607   3.579   8.851 -0.0773 -0.0507 -0.0310
   16POPC   PO4  615   2.490   3.235   8.381  0.1597  0.1797  0.3153
   16POPC   GL1  616   2.447   3.261   8.024  0.3052 -0.0470  0.0018
   16POPC   GL2  617   2.195   3.338   7.872 -0.0709 -0.2618 -0.3890
   16POPC   C1A  618   2.554   2.987   7.624  0.3292 -0.1732  0.0200
   16POPC   D2A  619   2.342   2.994   7.233  0.0159  0.1150  0.1693
   16POPC   C3A  620   2.301   3.078   6.777 -0.0986  0.0370 -0.0623
   16POPC   C4A  621   2.034   2.929   6.436 -0.2395  0.0766 -0.0733
   16POPC   C1B  622   2.034   3.483   7.403 -0.1605  0.0157 -0.4220
   16POPC   C2B  623   1.794   3.623   7.105  0.1053 -0.0670  0.0654
   16POPC   C3B  624   1.336   3.742   7.089 -0.0137  0.0267  0.2069
   16POPC   C4B  625   0.980   4.021   6.943  0.0330 -0.2255  0.3509
   17POPC   NC3  626   0.232   9.236   8.159 -0.2191  0.1671  0.3248
   17POPC   PO4  627  -0.068   9.602   8.124 -0.2704  0.1479 -0.0457
   17POPC   GL1  628  -0.458   9.643   7.951 -0.0341  0.0951  0.0505
   17POPC   GL2  629  -0.565   9.959   7.921  0.0531 -0.2736  0.3453
   17POPC   C1A  630  -0.574   9.528   7.552 -0.2837 -0.3477  0.0536
   17POPC   D2A  631  -0.784   9.402   7.176  0.2235  0.0762  0.0122
   17POPC   C3A  632  -0.557   9.164   6.712 -0.0993  0.0395  0.0917
   17POPC   C4A  633  -0.591   8.797   6.377  0.1167 -0.1515 -0.0493
   17POPC   C1B  634  -0.232   9.985   7.695  0.2364 -0.0685 -0.1139
   17POPC   C2B  635   0.219  10.080   7.556  0.4838 -0.4192  0.1624
   17POPC   C3B  636   0.425  10.194   7.093 -0.0043  0.0396 -0.0925
   17POPC   C4B  637   0.363  10.522   6.768 -0.2299 -0.0109  0.1906
   18POPC   NC3  638   7.025   0.142   8.285  0.2828 -0.2017  0.1325
   18POPC   PO4  639   7.329   0.443   8.300 -0.1590  0.0542  0.1207
   18POPC   GL1  640   7.394   0.300   7.909  0.3737 -0.2467  0.1402
   18POPC   GL2  641   7.067   0.276   7.710 -0.0628 -0.0153  0.0165
   18POPC   C1A  642   7.596   0.367   7.501  0.1464 -0.1378 -0.0591
   18POPC   D2A  643   7.528   0.261   7.144 -0.1932 -0.3422  0.3202
   18POPC   C3A  644   7.424  -0.175   6.985  0.0095 -0.0951 -0.1925
   18POPC   C4A  645   7.239  -0.599   6.998 -0.0648 -0.0095  0.0293
   18POPC   C1B  646   7.122   0.417   7.289 -0.0826 -0.1215 -0.1347
   18POPC   C2B  647   7.139   0.465   6.878 -0.2525  0.1191 -0.1408
   18POPC   C3B  648   7.204   0.379   6.417 -0.2551 -0.0252 -0.2155
   18POPC   C4B  649   7.176   0.743   6.235 -0.1581 -0.2163 -0.0375
   19POPC   NC3  650   5.862   3.743   8.565  0.0840 -0.2919  0.1345
   19POPC   PO4  651   5.823   3.400   8.423 -0.0981  0.0340  0.0484
   19POPC   GL1  652   5.859   3.230   7.952  0.1893  0.0076  0.0306
   19POPC   GL2  653   5.584   3.252   7.690  0.0130 -0.3752  0.0808
   19POPC   C1A  654   6.110   3.104   7.707 -0.3293  0.1757 -0.0048
   19POPC   D2A  655   6.433   3.096   7.465  0.0638 -0.0246  0.1201
   19POPC   C3A  656   6.388   3.173   7.031 -0.0901  0.1999 -0.0701
   19POPC   C4A  657   6.394   3.146   6.649  0.1451  0.2210 -0.1446
   19POPC   C1B  658   5.715   3.509   7.468  0.0647 -0.2590  0.1147
   19POPC   C2B  659   5.702   3.931   7.134 -0.0232  0.0055  0.4525
   19POPC   C3B  660   5.477   4.058   6.704  0.0077 -0.1438 -0.1483
   19POPC   C4B  661   5.252   4.453   6.572 -0.0782 -0.0638  0.0256
   20POPC   NC3  662   4.186   5.072   8.376  0.0193  0.0831 -0.0341
   20POPC   PO4  663   4.474   4.687   8.240  0.0141 -0.0255  0.1551
   20POPC   GL1  664   4.602   4.665   7.841 -0.0036  0.2310 -0.0550
   20POPC   GL2  665   4.401   4.918   7.807 -0.0098 -0.2626 -0.1749
   20POPC   C1A  666   4.555   4.450   7.456  0.0074  0.2714  0.1559
   20POPC   D2A  667   4.431   4.298   7.092 -0.2599  0.2617 -0.1368
   20POPC   C3A  668   4.465   3.869   6.914 -0.3390  0.2061  0.2449
   20POPC   C4A  669   4.280   3.457   6.695  0.1176  0.4627 -0.3784
   20POPC   C1B  670   4.183   4.871   7.460  0.1547  0.1147 -0.3262
   20POPC   C2B  671   4.300   4.912   7.073  0.3629 -0.3009  0.1816
   20POPC   C3B  672   4.125   4.949   6.650  0.3065 -0.0203  0.1368
   20POPC   C4B  673   3.691   5.013   6.437 -0.2589 -0.1070 -0.0934
   21POPC   NC3  674   2.030   3.429   8.324  0.0449  0.0629  0.1008
   21POPC   PO4  675   1.638   3.380   8.020  0.2156 -0.6593  0.2051
   21POPC   GL1  676   1.344   3.252   7.608 -0.2992  0.0404  0.1312
   21POPC   GL2  677   1.086   3.517   7.791 -0.0543  0.1976 -0.2475
   21POPC   C1A  678   1.306   3.213   7.120  0.2827  0.2615 -0.1225
   21POPC   D2A  679   1.374   3.340   6.690 -0.2739 -0.1588  0.0619
   21POPC   C3A  680   1.553   3.144   6.430  0.3059 -0.0511  0.2562
   21POPC   C4A  681   1.877   3.206   6.058 -0.2797 -0.2419 -0.1172
   21POPC   C1B  682   0.821   3.406   7.403 -0.2725 -0.0647 -0.2399
   21POPC   C2B  683   0.894   3.492   6.912  0.0551 -0.0188 -0.4375
   21POPC   C3B  684   0.743   3.735   6.542 -0.0753  0.0792  0.0276
   21POPC   C4B  685   0.837   3.966   6.140  0.1632  0.1333  0.0790
   22POPC   NC3  686   2.254   1.105   8.265 -0.2784  0.2152 -0.0307
   22POPC   PO4  687   1.925   0.769   8.216 -0.0261  0.0631 -0.3445
   22POPC   GL1  688   1.565   0.835   7.940 -0.1049 -0.0357 -0.0202
   22POPC   GL2  689   1.455   1.151   7.891 -0.3585  0.1912 -0.0766
   22POPC   C1A  690   1.308   0.879   7.488 -0.0964 -0.1725 -0.2252
   22POPC   D2A  691   1.279   0.620   7.176  0.1392  0.0975  0.0262
   22POPC   C3A  692   1.180   0.771   6.838  0.1684 -0.1793 -0.0991
   22POPC   C4A  693   1.119   1.012   6.518  0.2902 -0.3420  0.0933
   22POPC   C1B  694   1.499   1.507   7.671 -0.1810 -0.0535 -0.2091
   22POPC   C2B  695   1.578   1.656   7.240 -0.2811 -0.0253 -0.1464
   22POPC   C3B  696   1.690   1.746   6.844 -0.2839  0.0287 -0.2094
   22POPC   C4B  697   1.788   1.754   6.381 -0.1043  0.1555 -0.0348
   23POPC   NC3  698   3.309   4.891   8.537 -0.1150 -0.2501  0.1349
   23POPC   PO4  699   3.746   4.951   8.263  0.2154  0.0304 -0.0882
   23POPC   GL1  700   3.896   4.997   7.893 -0.1523  0.2977  0.2436
   23POPC   GL2  701   4.051   5.273   7.857 -0.1810 -0.0978 -0.2988
   23POPC   C1A  702   3.586   5.040   7.510 -0.1357 -0.1315 -0.3141
   23POPC   D2A  703   3.358   4.764   7.323 -0.0375 -0.1039 -0.3214
   23POPC   C3A  704   2.993   4.482   7.313 -0.1585 -0.2778 -0.0819
   23POPC   C4A  705   2.619   4.377   7.499 -0.0692  0.0750  0.0019
   23POPC   C1B  706   3.980   5.284   7.330  0.0292  0.0376  0.0761
   23POPC   C2B  707   4.015   5.452   6.931 -0.1819 -0.0998  0.0154
   23POPC   C3B  708   4.077   5.869   6.658 -0.3173  0.2750 -0.0959
   23POPC   C4B  709   4.347   6.070   6.490  0.0653  0.2318 -0.2720
   24POPC   NC3  710   6.142   5.480   8.593 -0.0414 -0.0621  0.3235
   24POPC   PO4  711   5.687   5.725   8.542 -0.4045 -0.0198  0.0287
   24POPC   GL1  712   5.798   5.745   8.043 -0.1892 -0.1671 -0.3275
   24POPC   GL2  713   5.631   5.480   7.919  0.0319 -0.0533  0.1492
   24POPC   C1A  714   5.727   5.990   7.773 -0.0716 -0.0683  0.0846
   24POPC   D2A  715   5.908   6.312   7.479 -0.1812  0.5661  0.0118
   24POPC   C3A  716   5.868   6.448   7.084  0.2513  0.0451  0.1240
   24POPC   C4A  717   5.785   6.597   6.683  0.0040  0.0017 -0.2491
   24POPC   C1B  718   5.459   5.660   7.592  0.2219  0.1390 -0.1126
   24POPC   C2B  719   5.161   5.420   7.452 -0.0330 -0.1990  0.1907
   24POPC   C3B  720   5.099   5.352   7.131 -0.0469 -0.2287  0.0311
   24POPC   C4B  721   4.726   5.097   6.780  0.0550  0.0693 -0.1001
   25POPC   NC3  722   6.522   0.802   8.678  0.2435 -0.1144  0.0837
   25POPC   PO4  723   6.915   1.002   8.431  0.0165  0.2351  0.1306
   25POPC   GL1  724   7.071   1.026   7.946  0.1656  0.2551 -0.0573
   25POPC   GL2  725   6.856   1.148   7.782  0.3601 -0.0883 -0.1202
   25POPC   C1A  726   7.337   1.304   7.772  0.2017  0.2469  0.0437
   25POPC   D2A  727   7.358   1.545   7.494 -0.0483  0.1347  0.2372
   25POPC   C3A  728   7.649   1.461   7.229 -0.1110  0.1618  0.1778
   25POPC   C4A  729   7.778   1.195   6.984  0.2009 -0.1122  0.0404
   25POPC   C1B  730   6.890   1.349   7.482 -0.2059  0.2426 -0.0174
   25POPC   C2B  731   7.037   1.614   7.102 -0.2493  0.0096 -0.0236
   25POPC   C3B  732   7.329   1.537   6.813  0.3516  0.0672  0.1242
   25POPC   C4B  733   7.589   1.467   6.601  0.1401  0.0341 -0.1588
   26POPC   NC3  734   0.899   4.654   8.815 -0.0979  0.0267  0.0531
   26POPC   PO4  735   1.222   4.964   8.708 -0.0386 -0.1747 -0.1770
   26POPC   GL1  736   1.022   5.298   8.402 -0.1334 -0.1225 -0.1724
   26POPC   GL2  737   0.790   5.569   8.457 -0.1715 -0.1171  0.1597
   26POPC   C1A  738   0.850   5.384   7.942 -0.0157 -0.0235 -0.0255
   26POPC   D2A  739   0.880   5.288   7.518  0.2038  0.2987  0.3751
   26POPC   C3A  740   1.021   5.663   7.267 -0.2987  0.0558 -0.1485
   26POPC   C4A  741   1.228   5.841   6.903 -0.2492 -0.0056 -0.0103
   26POPC   C1B  742   0.661   5.798   8.158  0.1951 -0.2716 -0.0387
   26POPC   C2B  743   0.324   6.123   7.942 -0.0591 -0.2152 -0.0621
   26POPC   C3B  744   0.519   6.239   7.599 -0.1546  0.1352  0.0271
   26POPC   C4B  745   0.498   6.455   7.228 -0.1446  0.1121 -0.0807
   27POPC   NC3  746   1.323   0.547   8.809 -0.2377 -0.1930  0.0294
   27POPC   PO4  747   1.140   0.758   8.471 -0.1492 -0.0552  0.1852
   27POPC   GL1  748   0.997   0.842   7.991 -0.0719  0.0500 -0.2941
   27POPC   GL2  749   0.643   0.977   7.796  0.2505 -0.2227 -0.0983
   27POPC   C1A  750   0.920   0.595   7.598 -0.1842 -0.0262  0.2151
   27POPC   D2A  751   0.691   0.679   7.183 -0.2783  0.0649  0.1062
   27POPC   C3A  752   0.514   0.926   7.236  0.0887 -0.1474 -0.4120
   27POPC   C4A  753   0.462   1.342   7.105 -0.1688 -0.0031 -0.1320
   27POPC   C1B  754   0.297   1.199   7.633  0.1690  0.0585 -0.1590
   27POPC   C2B  755  -0.023   1.315   7.477  0.4624 -0.0741 -0.3510
   27POPC   C3B  756  -0.023   1.220   7.116 -0.3939  0.0447 -0.1293
   27POPC   C4B  757   0.108   1.418   6.732  0.0902  0.1054  0.0659
   28POPC   NC3  758   1.503   7.339   8.637  0.5126 -0.0265  0.2593
   28POPC   PO4  759   1.780   7.194   8.385 -0.2473 -0.0367 -0.2777
   28POPC   GL1  760   1.726   7.196   7.904  0.2091  0.0355 -0.1187
   28POPC   GL2  761   1.468   7.106   7.697  0.0788  0.2961  0.2541
   28POPC   C1A  762   1.971   7.208   7.464  0.2189 -0.5059  0.0107
   28POPC   D2A  763   1.899   7.272   7.050 -0.0461 -0.2460 -0.0003
   28POPC   C3A  764   1.801   6.788   6.851 -0.0087 -0.1772 -0.4813
   28POPC   C4A  765   1.676   6.637   6.462  0.1013 -0.0653  0.0869
   28POPC   C1B  766   1.563   6.969   7.276 -0.0953  0.1184 -0.2214
   28POPC   C2B  767   1.320   6.844   6.848  0.2931 -0.0092  0.0593
   28POPC   C3B  768   0.822   6.735   6.689 -0.1158  0.1278  0.3864
   28POPC   C4B  769   0.657   6.674   6.267 -0.1657  0.1784  0.2931
   29POPC   NC3  770   9.001   4.146   9.602  0.1595  0.0372 -0.0891
   29POPC   PO4  771   8.918   4.360   9.290  0.0293  0.1896 -0.2453
   29POPC   GL1  772   8.683   4.608   8.964  0.0617 -0.2881  0.0780
   29POPC   GL2  773   8.892   4.416   8.793 -0.4584  0.1156  0.0869
   29POPC   C1A  774   8.718   4.894   8.612  0.1094  0.0134  0.0393
   29POPC   D2A  775   8.925   5.162   8.346 -0.2211 -0.1597  0.0874
   29POPC   C3A  776   9.017   5.532   8.149 -0.1103  0.0430  0.0463
   29POPC   C4A  777   9.289   5.966   8.275 -0.0938 -0.1953 -0.5330
   29POPC   C1B  778   8.989   4.610   8.344 -0.0641 -0.1071 -0.2310
   29POPC   C2B  779   9.375   4.753   8.118 -0.0902  0.0909 -0.1047
   29POPC   C3B  780   9.572   4.684   7.840 -0.2736 -0.3308  0.3000
   29POPC   C4B  781   9.766   4.368   7.772 -0.0633  0.1787  0.1377
   30POPC   NC3  782   1.105   2.457   8.734 -0.3001  0.0859  0.1048
   30POPC   PO4  783   1.006   2.718   8.414 -0.2316  0.0412  0.0989
   30POPC   GL1  784   0.843   2.513   7.957  0.2935 -0.3948 -0.0717
   30POPC   GL2  785   1.091   2.539   7.845  0.0973  0.1413  0.4387
   30POPC   C1A  786   0.459   2.628   7.529  0.2629  0.1815  0.1654
   30POPC   D2A  787   0.193   2.846   7.254  0.0368  0.2029 -0.1427
   30POPC   C3A  788   0.147   2.672   6.856  0.0105 -0.1710 -0.0946
   30POPC   C4A  789   0.451   2.907   6.535 -0.2542  0.1950 -0.0088
   30POPC   C1B  790   0.969   2.348   7.380  0.1705 -0.0330 -0.1263
   30POPC   C2B  791   0.966   2.155   6.994  0.4362 -0.1841  0.1632
   30POPC   C3B  792   1.005   2.361   6.640  0.2691 -0.0004  0.0653
   30POPC   C4B  793   0.638   2.361   6.283 -0.1919 -0.0332  0.0808
   31POPC   NC3  794   9.481   7.370   9.466  0.1779 -0.1545 -0.2915
   31POPC   PO4  795   9.848   7.345   9.200 -0.2414  0.1878  0.2836
   31POPC   GL1  796   9.806   7.375   8.809 -0.1550  0.0475 -0.1983
   31POPC   GL2  797   9.574   7.084   8.864  0.1186 -0.2688  0.0457
   31POPC   C1A  798   9.665   7.252   8.359  0.0178  0.1656  0.0808
   31POPC   D2A  799   9.479   7.243   7.943  0.0443  0.2570  0.0610
   31POPC   C3A  800   9.203   6.988   7.804  0.1371 -0.2248 -0.0788
   31POPC   C4A  801   8.813   6.804   7.834 -0.1086 -0.5272  0.0393
   31POPC   C1B  802   9.813   6.851   8.584 -0.1051  0.1282 -0.2100
   31POPC   C2B  803  10.170   6.727   8.470  0.1726  0.5106  0.1601
   31POPC   C3B  804  10.469   6.515   8.437 -0.1245 -0.0124 -0.2126
   31POPC   C4B  805  10.736   6.418   8.138 -0.2888  0.0343 -0.0105
   32POPC   NC3  806   3.674   2.674   8.231  0.0012 -0.1798  0.1622
   32POPC   PO4  807   3.839   3.119   8.133 -0.0498 -0.3227 -0.0434
   32POPC   GL1  808   3.765   3.072   7.781 -0.1877  0.0432  0.0399
   32POPC   GL2  809   3.574   2.813   7.658  0.2916 -0.0967  0.0259
   32POPC   C1A  810   3.856   3.225   7.406  0.2019  0.0413 -0.1067
   32POPC   D2A  811   3.875   3.526   7.046 -0.0639  0.0045 -0.1523
   32POPC   C3A  812   3.733   3.370   6.636  0.2072 -0.1294 -0.0554
   32POPC   C4A  813   3.797   2.966   6.443  0.1606 -0.0319 -0.1961
   32POPC   C1B  814   3.896   2.694   7.379  0.1451 -0.0812 -0.0629
   32POPC   C2B  815   4.075   2.279   7.220  0.1985 -0.1609 -0.2656
   32POPC   C3B  816   4.472   2.107   7.329  0.2160  0.2344  0.2909
   32POPC   C4B  817   4.801   2.226   7.445 -0.0013  0.0648  0.0418
   33POPC   NC3  818   1.708   9.128   8.288  0.0937 -0.0669  0.1040
   33POPC   PO4  819   1.862   9.545   8.025 -0.3137 -0.1347 -0.3378
   33POPC   GL1  820   2.041   9.530   7.531  0.0422 -0.0163  0.1470
   33POPC   GL2  821   2.187   9.219   7.609  0.0579 -0.2868 -0.1394
   33POPC   C1A  822   1.912   9.628   7.151 -0.0094 -0.1522 -0.0376
   33POPC   D2A  823   1.971   9.549   6.772  0.0951 -0.0426  0.2361
   33POPC   C3A  824   1.881   9.820   6.477 -0.2351 -0.0120 -0.2009
   33POPC   C4A  825   1.736   9.981   6.046  0.0581 -0.0097 -0.0651
   33POPC   C1B  826   2.074   9.135   7.154  0.1069 -0.0315 -0.0685
   33POPC   C2B  827   1.850   8.943   6.794  0.0317 -0.0596  0.0272
   33POPC   C3B  828   1.711   8.523   6.790  0.0384  0.1795  0.0020
   33POPC   C4B  829   1.600   8.015   6.794 -0.1206  0.0171  0.0662
   34POPC   NC3  830   2.049   8.059   8.322  0.1803 -0.2220  0.1912
   34POPC   PO4  831   1.578   8.194   8.251  0.3708 -0.1843 -0.1571
   34POPC   GL1  832   1.606   8.172   7.793  0.0412 -0.1259  0.1259
   34POPC   GL2  833   1.841   8.400   7.688  0.0196  0.1560  0.0909
   34POPC   C1A  834   1.411   8.039   7.352  0.1476  0.0391  0.0631
   34POPC   D2A  835   1.158   7.746   7.201  0.1004 -0.1607 -0.3167
   34POPC   C3A  836   1.064   7.729   6.789 -0.1414 -0.1674  0.0350
   34POPC   C4A  837   1.223   7.620   6.411  0.1997 -0.0961  0.1575
   34POPC   C1B  838   1.539   8.621   7.484  0.0513  0.0743  0.0961
   34POPC   C2B  839   1.631   8.999   7.204  0.2307 -0.1167  0.0617
   34POPC   C3B  840   1.457   9.368   7.168 -0.3356 -0.0585 -0.0665
   34POPC   C4B  841   1.097   9.682   7.235 -0.0406  0.1001  0.0407
   35POPC   NC3  842   4.702   8.345   8.843 -0.0158  0.0993 -0.0991
   35POPC   PO4  843   4.808   7.905   8.576 -0.2576 -0.0253  0.0963
   35POPC   GL1  844   4.915   7.887   8.194 -0.0139 -0.0565 -0.2324
   35POPC   GL2  845   4.859   7.673   7.893 -0.3705  0.0491  0.1588
   35POPC   C1A  846   5.186   8.130   7.748 -0.1910 -0.0708 -0.3102
   35POPC   D2A  847   5.062   8.234   7.309  0.0920  0.1455 -0.3172
   35POPC   C3A  848   5.326   8.292   7.049  0.1857 -0.1295 -0.0113
   35POPC   C4A  849   5.602   8.447   6.714  0.1738 -0.0444 -0.2001
   35POPC   C1B  850   5.074   7.637   7.582  0.1045  0.2546  0.0968
   35POPC   C2B  851   5.460   7.831   7.378  0.0271  0.2201 -0.0777
   35POPC   C3B  852   5.754   8.001   7.097 -0.1479 -0.1063 -0.2760
   35POPC   C4B  853   6.053   8.182   6.869  0.1420 -0.1847 -0.1043
   36POPC   NC3  854   0.323   3.037   8.271  0.0028  0.2078  0.2546
   36POPC   PO4  855   0.736   3.113   8.266 -0.3318  0.0521  0.0810
   36POPC   GL1  856   0.597   3.076   7.823  0.0674 -0.0638 -0.1433
   36POPC   GL2  857   0.875   2.985   7.697  0.0377 -0.1445  0.2311
   36POPC   C1A  858   0.393   3.203   7.488 -0.2103 -0.1672  0.1774
   36POPC   D2A  859   0.418   3.221   7.018 -0.3082  0.3686 -0.1505
   36POPC   C3A  860   0.373   3.424   6.626  0.2965  0.4312  0.0624
   36POPC   C4A  861  -0.033   3.674   6.541  0.0308 -0.0658 -0.2901
   36POPC   C1B  862   0.883   2.943   7.190 -0.1516  0.2673  0.2240
   36POPC   C2B  863   0.627   2.643   6.936 -0.1316 -0.0986 -0.2745
   36POPC   C3B  864   0.494   2.314   6.761 -0.4059 -0.0371 -0.3610
   36POPC   C4B  865   0.417   1.997   6.497  0.1822  0.3772 -0.0640
   37POPC   NC3  866   9.667   9.492   9.161  0.1827  0.0145  0.2438
   37POPC   PO4  867   9.671   9.524   8.665 -0.2791 -0.0394  0.1043
   37POPC   GL1  868   9.611   9.231   8.285  0.1223  0.2368  0.1885
   37POPC   GL2  869   9.779   9.180   7.888  0.4065 -0.3001 -0.2987
   37POPC   C1A  870   9.267   9.028   8.069 -0.0396 -0.0647 -0.3144
   37POPC   D2A  871   9.033   8.677   7.946  0.1441 -0.0835  0.0125
   37POPC   C3A  872   9.075   8.408   7.582 -0.0699  0.1077  0.0260
   37POPC   C4A  873   9.113   8.177   7.232 -0.0559  0.3857  0.2130
   37POPC   C1B  874  10.127   9.075   7.472 -0.0250  0.0576  0.1946
   37POPC   C2B  875  10.195   9.355   7.116  0.2048 -0.2258  0.0503
   37POPC   C3B  876  10.123   9.506   6.694  0.0457 -0.3336 -0.2557
   37POPC   C4B  877   9.904   9.403   6.401 -0.0957 -0.1301 -0.0227
   38POPC   NC3  878   2.914   2.859   8.490  0.2156 -0.0952 -0.0750
   38POPC   PO4  879   2.913   3.249   8.699  0.2778  0.1480 -0.0529
   38POPC   GL1  880   3.009   3.341   8.217 -0.3851  0.0381  0.1689
   38POPC   GL2  881   3.327   3.304   8.017 -0.0640 -0.1590 -0.1081
   38POPC   C1A  882   2.884   3.519   7.873 -0.0497 -0.4755 -0.1420
   38POPC   D2A  883   2.845   3.373   7.460 -0.0159  0.1043  0.0208
   38POPC   C3A  884   2.527   3.662   7.241 -0.0001 -0.1987  0.1099
   38POPC   C4A  885   2.197   3.804   6.858  0.0685 -0.2137 -0.0069
   38POPC   C1B  886   3.394   3.331   7.538  0.0732  0.3167 -0.1625
   38POPC   C2B  887   3.228   3.498   7.105 -0.0436  0.0570  0.1491
   38POPC   C3B  888   2.891   3.603   6.777 -0.1283  0.1017 -0.3817
   38POPC   C4B  889   2.547   3.458   6.519  0.0819  0.1917 -0.0151
   39POPC   NC3  890   7.714   0.675   8.905 -0.1766 -0.0313 -0.2345
   39POPC   PO4  891   7.818   0.767   8.526 -0.1873 -0.0290  0.1011
   39POPC   GL1  892   7.954   0.871   8.104  0.0753  0.0631  0.0452
   39POPC   GL2  893   7.630   0.817   7.973 -0.0585 -0.1152  0.1293
   39POPC   C1A  894   8.151   0.692   7.666 -0.1704 -0.0374  0.1949
   39POPC   D2A  895   8.260   0.734   7.237 -0.0944 -0.1884 -0.0849
   39POPC   C3A  896   7.979   0.557   6.953 -0.1158 -0.5363  0.0604
   39POPC   C4A  897   8.001   0.325   6.592  0.0453  0.5780  0.1412
   39POPC   C1B  898   7.323   0.778   7.656 -0.0234 -0.1608  0.0150
   39POPC   C2B  899   7.133   0.949   7.287  0.0284  0.1355 -0.1086
   39POPC   C3B  900   6.869   1.196   7.017  0.1006  0.0678  0.1874
   39POPC   C4B  901   6.575   1.469   6.778 -0.0643  0.0396  0.1123
   40POPC   NC3  902   0.375   7.341   9.046  0.0045 -0.3354 -0.0138
   40POPC   PO4  903   0.828   7.159   8.984 -0.3076  0.0911 -0.2202
   40POPC   GL1  904   0.574   7.009   8.606  0.2972  0.3868 -0.0779
   40POPC   GL2  905   0.229   7.250   8.517 -0.0061 -0.1319  0.0909
   40POPC   C1A  906   0.575   6.947   8.177  0.2271  0.1356 -0.1421
   40POPC   D2A  907   0.568   7.279   7.829 -0.2081 -0.1788  0.0206
   40POPC   C3A  908   0.564   7.484   7.452  0.3391  0.0047 -0.1478
   40POPC   C4A  909   0.683   7.662   7.109 -0.0983  0.1139  0.2791
   40POPC   C1B  910   0.116   7.435   8.112 -0.0426  0.0387 -0.1592
   40POPC   C2B  911   0.112   7.333   7.671  0.2805 -0.3023  0.0031
   40POPC   C3B  912   0.145   7.714   7.360  0.3565 -0.0741  0.1461
   40POPC   C4B  913   0.107   7.734   6.855  0.0335  0.1049 -0.3306
   41POPC   NC3  914   9.983   4.469   8.909 -0.2338 -0.3308  0.2493
   41POPC   PO4  915   9.578   4.786   8.808 -0.2186 -0.0080  0.0533
   41POPC   GL1  916   9.609   5.218   8.530  0.2472 -0.1807 -0.0950
   41POPC   GL2  917   9.926   5.313   8.483 -0.1215 -0.1010 -0.0122
   41POPC   C1A  918   9.531   5.561   8.218  0.0166  0.0922  0.0279
   41POPC   D2A  919   9.772   6.010   8.042 -0.1577  0.0444  0.4450
   41POPC   C3A  920   9.543   6.244   7.799  0.1554  0.2036  0.0197
   41POPC   C4A  921   9.215   6.349   7.640  0.1122 -0.0658 -0.2019
   41POPC   C1B  922   9.837   5.128   8.096 -0.0868  0.2865  0.3034
   41POPC   C2B  923   9.639   5.110   7.621  0.1480 -0.0989  0.0418
   41POPC   C3B  924   9.482   4.907   7.362 -0.2554  0.4094 -0.0152
   41POPC   C4B  925   9.112   4.812   7.072  0.1032 -0.1904  0.1271
   42POPC   NC3  926   4.325   8.531   8.035  0.2486 -0.1086  0.0248
   42POPC   PO4  927   3.917   8.396   8.209  0.0603 -0.2004 -0.2226
   42POPC   GL1  928   3.882   8.514   7.859  0.0375  0.1177  0.1546
   42POPC   GL2  929   4.027   8.860   7.822  0.1569 -0.1412 -0.0556
   42POPC   C1A  930   3.888   8.567   7.383  0.0841  0.0356 -0.2395
   42POPC   D2A  931   3.803   8.791   7.051 -0.1598  0.0941  0.1109
   42POPC   C3A  932   3.846   9.223   6.998  0.0676 -0.0857  0.0407
   42POPC   C4A  933   3.430   9.457   6.934 -0.0621 -0.2844 -0.2187
   42POPC   C1B  934   3.797   9.041   7.472 -0.0215 -0.0131 -0.0416
   42POPC   C2B  935   3.585   9.372   7.397 -0.0940 -0.2005 -0.3219
   42POPC   C3B  936   3.265   9.470   7.403 -0.0243 -0.3076  0.0933
   42POPC   C4B  937   2.887   9.653   7.227  0.1488  0.2211  0.0188
   43POPC   NC3  938   4.003   6.838   8.621 -0.0211  0.1957  0.2356
   43POPC   PO4  939   3.555   7.014   8.523 -0.0102  0.4383  0.1270
   43POPC   GL1  940   3.544   7.006   8.039 -0.1703 -0.0256  0.3541
   43POPC   GL2  941   3.811   7.136   7.881  0.0950  0.2954 -0.0182
   43POPC   C1A  942   3.567   6.909   7.482  0.1549  0.0491  0.0668
   43POPC   D2A  943   3.627   6.486   7.117  0.4740 -0.1645 -0.0654
   43POPC   C3A  944   3.642   6.635   6.658  0.0932 -0.0850 -0.1513
   43POPC   C4A  945   3.909   6.704   6.314 -0.0463 -0.1731  0.5371
   43POPC   C1B  946   3.864   7.313   7.403  0.2026  0.2088  0.1194
   43POPC   C2B  947   3.913   7.478   7.040  0.0358  0.3577  0.1450
   43POPC   C3B  948   3.921   7.697   6.663  0.1449  0.2471  0.0130
   43POPC   C4B  949   4.156   8.035   6.569  0.2327  0.1191 -0.0386
   44POPC   NC3  950   3.643   9.561   8.243 -0.2400 -0.1468 -0.1759
   44POPC   PO4  951   3.852   9.292   8.090 -0.0387  0.1752  0.1156
   44POPC   GL1  952   4.045   9.357   7.707  0.1822 -0.1418 -0.0769
   44POPC   GL2  953   4.355   9.318   7.723 -0.3681 -0.2167 -0.1520
   44POPC   C1A  954   4.165   9.506   7.277 -0.0136  0.0203 -0.1745
   44POPC   D2A  955   4.424   9.858   7.141  0.3460 -0.0324  0.1436
   44POPC   C3A  956   4.206  10.111   6.740 -0.0958 -0.1198 -0.0876
   44POPC   C4A  957   3.920  10.084   6.447 -0.0453 -0.0782 -0.0695
   44POPC   C1B  958   4.303   8.993   7.404 -0.1121 -0.0372 -0.0933
   44POPC   C2B  959   4.559   8.599   7.312  0.1026  0.1486 -0.1737
   44POPC   C3B  960   4.882   8.455   6.936  0.1052 -0.2729 -0.1484
   44POPC   C4B  961   5.083   8.599   6.541 -0.0978  0.1040  0.0079
   45POPC   NC3  962   2.310   4.320   8.836 -0.1811 -0.0413  0.1276
   45POPC   PO4  963   2.232   3.919   8.595 -0.0256  0.1948 -0.3698
   45POPC   GL1  964   2.211   3.843   8.119  0.1087  0.2490  0.0756
   45POPC   GL2  965   1.966   3.809   7.981  0.2690 -0.4032  0.0301
   45POPC   C1A  966   2.392   3.815   7.708 -0.2265 -0.3193 -0.3450
   45POPC   D2A  967   2.289   4.053   7.310  0.4781 -0.3930 -0.1185
   45POPC   C3A  968   2.593   4.234   6.997 -0.2881  0.3800  0.1600
   45POPC   C4A  969   2.934   4.458   6.697 -0.2874 -0.0089  0.1167
   45POPC   C1B  970   1.797   3.896   7.570  0.1724 -0.0203 -0.1343
   45POPC   C2B  971   1.768   4.125   7.215 -0.0483  0.0253  0.2564
   45POPC   C3B  972   1.610   4.118   6.766 -0.4059  0.5741 -0.0855
   45POPC   C4B  973   1.602   4.198   6.317  0.1538 -0.1725  0.3534
   46POPC   NC3  974   8.710   9.743   8.572 -0.0489  0.1045  0.2361
   46POPC   PO4  975   9.160   9.666   8.464  0.3987  0.0302  0.1962
   46POPC   GL1  976   8.914   9.779   8.122 -0.2003 -0.0164 -0.2628
   46POPC   GL2  977   8.548   9.565   8.090 -0.3354 -0.0713  0.2004
   46POPC   C1A  978   8.696   9.988   7.815 -0.3120 -0.2213  0.0139
   46POPC   D2A  979   8.341   9.931   7.683  0.2896  0.0715  0.1343
   46POPC   C3A  980   8.326   9.739   7.337 -0.4490  0.0666  0.1780
   46POPC   C4A  981   8.252   9.359   7.080 -0.1974  0.5748 -0.1119
   46POPC   C1B  982   8.504   9.434   7.681 -0.0465 -0.0236 -0.3152
   46POPC   C2B  983   8.285   9.085   7.545 -0.1915  0.1754 -0.0229
   46POPC   C3B  984   8.248   8.661   7.388  0.0861  0.1856  0.0203
   46POPC   C4B  985   8.596   8.409   7.282  0.1133  0.2205 -0.1955
   47POPC   NC3  986   0.397   0.245   8.392  0.0541  0.1547 -0.0530
   47POPC   PO4  987   0.800   0.196   8.276 -0.2867 -0.0306  0.2286
   47POPC   GL1  988   0.630   0.200   7.940  0.3109 -0.0046 -0.2106
   47POPC   GL2  989   0.478   0.479   7.921  0.0855  0.2422  0.0362
   47POPC   C1A  990   0.750   0.101   7.500 -0.0741  0.2112 -0.0466
   47POPC   D2A  991   1.066   0.179   7.175  0.1283 -0.2331  0.0379
   47POPC   C3A  992   0.863   0.383   6.813 -0.0583  0.0851 -0.0156
   47POPC   C4A  993   0.700   0.562   6.431 -0.0419  0.1228 -0.1687
   47POPC   C1B  994   0.239   0.668   7.559 -0.1463 -0.1016 -0.2191
   47POPC   C2B  995  -0.070   0.680   7.276  0.3288 -0.3808 -0.0134
   47POPC   C3B  996  -0.182   0.845   6.898  0.0184  0.0963  0.1984
   47POPC   C4B  997  -0.059   0.955   6.417  0.0279 -0.2597 -0.0790
   48POPC   NC3  998   2.263   6.435   9.325 -0.1961 -0.3756 -0.1873
   48POPC   PO4  999   2.136   6.506   8.841  0.1054  0.2221  0.0867
   48POPC   GL1 1000   2.104   6.345   8.349 -0.1525  0.3782  0.0414
   48POPC   GL2 1001   2.004   5.969   8.327 -0.0660 -0.1818  0.4181
   48POPC   C1A 1002   2.019   6.244   7.868 -0.0705 -0.0472  0.1912
   48POPC   D2A 1003   1.949   6.006   7.523  0.3752 -0.1045  0.3953
   48POPC   C3A 1004   1.575   5.989   7.175 -0.1282 -0.1203  0.3232
   48POPC   C4A 1005   1.610   6.127   6.701  0.1347 -0.2511  0.1146
   48POPC   C1B 1006   1.644   6.014   8.013  0.1150  0.3497  0.0751
   48POPC   C2B 1007   1.414   5.952   7.606 -0.0848  0.2821  0.1832
   48POPC   C3B 1008   1.093   6.210   7.283  0.2377 -0.0173 -0.2027
   48POPC   C4B 1009   1.083   6.281   6.823 -0.3557 -0.1639 -0.1257
   49POPC   NC3 1010   9.376   3.194   8.861 -0.1801  0.1030  0.3873
   49POPC   PO4 1011   9.289   3.653   8.789  0.0907 -0.0615  0.0839
   49POPC   GL1 1012   9.163   3.843   8.422  0.3138 -0.0594 -0.1755
   49POPC   GL2 1013   9.154   3.685   8.040  0.1713 -0.0339  0.0411
   49POPC   C1A 1014   9.299   4.172   8.065 -0.1558  0.2601 -0.0847
   49POPC   D2A 1015   9.129   4.398   7.708  0.0074 -0.3273  0.0918
   49POPC   C3A 1016   9.087   4.784   7.596  0.3470 -0.2079 -0.1770
   49POPC   C4A 1017   9.166   5.185   7.754  0.2378 -0.1681  0.0919
   49POPC   C1B 1018   9.082   3.913   7.583  0.0536 -0.0412  0.2535
   49POPC   C2B 1019   9.066   4.174   7.216  0.1496  0.0332 -0.4886
   49POPC   C3B 1020   8.968   4.409   6.865 -0.3826  0.0170  0.1108
   49POPC   C4B 1021   8.732   4.703   6.752  0.1855  0.1370  0.2007
   50POPC   NC3 1022   7.186   5.621   9.464 -0.1459  0.0359  0.1708
   50POPC   PO4 1023   6.987   5.961   9.362  0.4266 -0.0093  0.1584
   50POPC   GL1 1024   7.292   5.997   9.079 -0.0526  0.0803  0.0738
   50POPC   GL2 1025   7.368   5.625   8.970  0.0473 -0.0680 -0.2384
   50POPC   C1A 1026   7.384   5.932   8.565  0.1991  0.1426 -0.3460
   50POPC   D2A 1027   7.523   5.603   8.200  0.2559  0.2330 -0.0546
   50POPC   C3A 1028   7.295   5.673   7.850  0.0399 -0.1135  0.0441
   50POPC   C4A 1029   7.345   5.821   7.394  0.0374  0.1986 -0.0971
   50POPC   C1B 1030   7.302   5.387   8.672  0.0502 -0.0107  0.2017
   50POPC   C2B 1031   7.410   5.081   8.332  0.1283 -0.0501 -0.0540
   50POPC   C3B 1032   7.515   4.622   8.069  0.0618 -0.2707  0.0616
   50POPC   C4B 1033   7.708   4.274   7.833 -0.2065 -0.0455  0.0394
   51POPC   NC3 1034   6.090   0.196   8.005 -0.1731 -0.0894  0.1647
   51POPC   PO4 1035   5.686   0.165   7.921  0.0008  0.2230 -0.0399
   51POPC   GL1 1036   5.822   0.224   7.498 -0.0010  0.0433  0.0722
   51POPC   GL2 1037   6.075   0.090   7.411 -0.3892  0.0151  0.1607
   51POPC   C1A 1038   5.702   0.151   7.094  0.1492 -0.0005 -0.1980
   51POPC   D2A 1039   5.633   0.258   6.639 -0.1379 -0.1159 -0.2987
   51POPC   C3A 1040   5.935   0.157   6.374 -0.0190 -0.1280  0.1892
   51POPC   C4A 1041   6.043  -0.059   6.004  0.3657  0.2805  0.1970
   51POPC   C1B 1042   6.341  -0.124   7.085  0.0412  0.1542 -0.1293
   51POPC   C2B 1043   6.323  -0.067   6.706  0.1289 -0.2571  0.2446
   51POPC   C3B 1044   6.383   0.096   6.300  0.1933  0.0694  0.1343
   51POPC   C4B 1045   6.291   0.378   5.887  0.0984 -0.0228  0.0577
   52POPC   NC3 1046   9.570   9.912   8.380  0.0527 -0.0832  0.0555
   52POPC   PO4 1047   9.621  10.439   8.271  0.5852  0.1153 -0.1306
   52POPC   GL1 1048   9.373  10.570   7.856 -0.1119  0.1596 -0.0043
   52POPC   GL2 1049   9.118  10.337   7.882  0.2762 -0.0664 -0.0161
   52POPC   C1A 1050   9.522  10.356   7.444  0.2416  0.0060 -0.1489
   52POPC   D2A 1051   9.528   9.942   7.178 -0.2819 -0.2185 -0.0377
   52POPC   C3A 1052  10.019   9.838   7.061  0.0090  0.1369  0.2929
   52POPC   C4A 1053  10.278   9.968   6.713  0.2871  0.0681  0.2950
   52POPC   C1B 1054   9.167  10.009   7.567 -0.2246  0.3900  0.0653
   52POPC   C2B 1055   8.928   9.642   7.571 -0.1018 -0.3785 -0.1252
   52POPC   C3B 1056   9.000   9.180   7.596  0.0246 -0.1578  0.1763
   52POPC   C4B 1057   9.173   8.794   7.317 -0.0344  0.0346  0.1643
   53POPC   NC3 1058   7.569   3.305   8.751  0.3855 -0.0355 -0.2010
   53POPC   PO4 1059   7.668   3.759   8.871 -0.1697  0.0122 -0.1779
   53POPC   GL1 1060   7.959   3.914   8.556  0.1304 -0.0003 -0.2372
   53POPC   GL2 1061   7.921   4.235   8.555 -0.0464  0.0843 -0.0554
   53POPC   C1A 1062   8.180   3.951   8.212 -0.0032 -0.0733 -0.1067
   53POPC   D2A 1063   8.081   4.017   7.760  0.1269 -0.1412 -0.1462
   53POPC   C3A 1064   8.365   3.914   7.298 -0.3504 -0.0887 -0.0307
   53POPC   C4A 1065   8.773   3.778   7.127  0.2666 -0.0632  0.1027
   53POPC   C1B 1066   8.062   4.536   8.227  0.1663 -0.0350 -0.1073
   53POPC   C2B 1067   8.132   4.512   7.823 -0.0729 -0.1569 -0.3714
   53POPC   C3B 1068   8.007   4.478   7.389 -0.0959 -0.2152  0.1396
   53POPC   C4B 1069   7.889   4.372   6.963 -0.1257  0.2641  0.1561
   54POPC   NC3 1070   6.841   8.635   9.253 -0.0587  0.2512  0.2574
   54POPC   PO4 1071   6.986   8.907   8.873  0.1474  0.3149  0.1672
   54POPC   GL1 1072   7.198   8.807   8.483  0.1665 -0.3465  0.1927
   54POPC   GL2 1073   7.180   8.877   8.098 -0.4828  0.1409 -0.2898
   54POPC   C1A 1074   7.300   8.402   8.241  0.1082 -0.6591 -0.0294
   54POPC   D2A 1075   7.616   8.171   8.140 -0.3568 -0.2326  0.0160
   54POPC   C3A 1076   7.782   8.397   7.828  0.1215 -0.0147 -0.1652
   54POPC   C4A 1077   7.732   8.508   7.365  0.2164  0.0804 -0.3078
   54POPC   C1B 1078   7.319   8.639   7.782  0.0941 -0.0964  0.2079
   54POPC   C2B 1079   7.370   8.209   7.661  0.2023 -0.3117  0.2181
   54POPC   C3B 1080   7.409   7.883   7.408  0.1751 -0.0324 -0.1199
   54POPC   C4B 1081   7.286   7.508   7.490  0.1461 -0.0649  0.0657
   55POPC   NC3 1082   5.042   1.159   7.881  0.0601  0.1867 -0.0495
   55POPC   PO4 1083   5.259   0.890   8.219  0.3356 -0.1071  0.1499
   55POPC   GL1 1084   5.430   0.595   7.856 -0.3243 -0.0545 -0.0317
   55POPC   GL2 1085   5.327   0.346   7.681 -0.0068 -0.3138 -0.1117
   55POPC   C1A 1086   5.577   0.714   7.472  0.4992 -0.1581 -0.0017
   55POPC   D2A 1087   5.409   1.046   7.215 -0.0607 -0.1877  0.0315
   55POPC   C3A 1088   5.108   1.325   7.206  0.0598  0.0439 -0.1890
   55POPC   C4A 1089   4.858   1.728   7.271  0.0166  0.1729 -0.1875
   55POPC   C1B 1090   5.295   0.320   7.154  0.0619  0.1413 -0.6497
   55POPC   C2B 1091   4.870   0.190   6.895  0.1019 -0.2313 -0.3382
   55POPC   C3B 1092   4.831  -0.090   6.607  0.2835 -0.0892  0.1419
   55POPC   C4B 1093   4.978  -0.201   6.190  0.0974 -0.0239 -0.1407
   56POPC   NC3 1094   5.945   1.616   7.841  0.1301 -0.0921  0.3886
   56POPC   PO4 1095   6.082   1.184   7.920 -0.0469 -0.3241 -0.1322
   56POPC   GL1 1096   6.284   1.233   7.544  0.0823  0.1427  0.2985
   56POPC   GL2 1097   6.415   1.541   7.692 -0.1832 -0.0389  0.2980
   56POPC   C1A 1098   6.335   1.472   7.192  0.1488 -0.2724 -0.0020
   56POPC   D2A 1099   6.188   1.825   6.859  0.0481 -0.0059  0.1488
   56POPC   C3A 1100   5.929   2.035   6.531 -0.0616 -0.2172  0.3035
   56POPC   C4A 1101   5.664   2.204   6.164  0.0349 -0.3403  0.0922
   56POPC   C1B 1102   6.663   1.810   7.380 -0.0884  0.2272 -0.0392
   56POPC   C2B 1103   7.104   2.005   7.380 -0.0834  0.1210 -0.2393
   56POPC   C3B 1104   7.578   1.931   7.320  0.1362 -0.1712 -0.3829
   56POPC   C4B 1105   7.749   1.884   6.904 -0.2299  0.1909  0.0311
   57POPC   NC3 1106   1.178   6.692   9.085 -0.1519 -0.1717 -0.2111
   57POPC   PO4 1107   1.323   6.276   8.889 -0.1998 -0.0422  0.3602
   57POPC   GL1 1108   1.357   6.417   8.479 -0.0697 -0.4191 -0.0495
   57POPC   GL2 1109   1.523   6.696   8.304 -0.1045 -0.0140 -0.1379
   57POPC   C1A 1110   1.298   6.338   8.064  0.2235  0.1285  0.2678
   57POPC   D2A 1111   1.232   6.521   7.754 -0.1299 -0.2600 -0.3038
   57POPC   C3A 1112   0.841   6.749   7.725  0.0886  0.1003 -0.1791
   57POPC   C4A 1113   0.437   6.659   7.825  0.0194  0.0158 -0.0318
   57POPC   C1B 1114   1.707   6.649   7.866  0.2742  0.0662  0.3607
   57POPC   C2B 1115   1.699   6.456   7.467 -0.5782 -0.0624  0.2369
   57POPC   C3B 1116   1.443   6.465   7.094 -0.4059 -0.0630 -0.2704
   57POPC   C4B 1117   1.081   6.719   7.252  0.4524 -0.2037 -0.1179
   58POPC   NC3 1118   3.327   8.444   7.834 -0.2218 -0.0635  0.0811
   58POPC   PO4 1119   3.112   8.015   7.862 -0.2404  0.0164 -0.1648
   58POPC   GL1 1120   3.373   7.858   7.522 -0.0602 -0.1719  0.1002
   58POPC   GL2 1121   3.577   8.203   7.468  0.2470  0.0711 -0.1753
   58POPC   C1A 1122   3.467   7.737   7.096 -0.1789  0.2703 -0.0183
   58POPC   D2A 1123   3.306   7.956   6.751 -0.1735  0.2027 -0.0859
   58POPC   C3A 1124   3.451   7.735   6.430 -0.3329  0.3896 -0.0809
   58POPC   C4A 1125   3.505   7.369   6.241  0.1681  0.1777  0.1519
   58POPC   C1B 1126   3.425   8.327   7.146  0.2904  0.2678 -0.1043
   58POPC   C2B 1127   3.352   8.442   6.745 -0.1949 -0.1804  0.0105
   58POPC   C3B 1128   3.301   8.655   6.361 -0.0906 -0.2245  0.2276
   58POPC   C4B 1129   3.440   8.653   5.937 -0.0933  0.0169 -0.1880
   59POPC   NC3 1130   0.792   9.382   8.034  0.0789  0.1921  0.0879
   59POPC   PO4 1131   0.530   9.714   8.086 -0.3957  0.0708  0.0894
   59POPC   GL1 1132   0.382   9.560   7.701  0.0347  0.1704 -0.1172
   59POPC   GL2 1133   0.501   9.449   7.590  0.0902 -0.1492  0.2133
   59POPC   C1A 1134  -0.014   9.544   7.489  0.3082  0.0756 -0.1835
   59POPC   D2A 1135  -0.266   9.467   7.141  0.2357 -0.0175 -0.0692
   59POPC   C3A 1136  -0.362   9.669   6.699  0.4057  0.0818 -0.1949
   59POPC   C4A 1137  -0.434  10.072   6.605  0.1514  0.0218 -0.0493
   59POPC   C1B 1138   0.491   9.732   7.227  0.2063  0.1625  0.0578
   59POPC   C2B 1139   0.785   9.811   6.833 -0.1854 -0.3595  0.2420
   59POPC   C3B 1140   1.121   9.922   6.697 -0.3977 -0.0797  0.2127
   59POPC   C4B 1141   1.346   9.788   6.411 -0.0625 -0.1470 -0.1804
   60POPC   NC3 1142   4.948   0.511   8.101 -0.1336 -0.2047 -0.4293
   60POPC   PO4 1143   4.565   0.697   7.921 -0.0135  0.2061 -0.1422
   60POPC   GL1 1144   4.222   0.760   7.748  0.0534  0.0617 -0.3506
   60POPC   GL2 1145   4.259   1.085   7.665  0.1549 -0.0575  0.1835
   60POPC   C1A 1146   3.971   0.889   7.355 -0.1073  0.1106 -0.1098
   60POPC   D2A 1147   4.114   1.258   7.113  0.0057 -0.1833  0.3892
   60POPC   C3A 1148   4.237   1.199   6.663  0.0433 -0.2129 -0.1279
   60POPC   C4A 1149   4.456   0.966   6.343 -0.2412 -0.0004  0.0217
   60POPC   C1B 1150   4.548   1.298   7.409  0.1406  0.0912 -0.3370
   60POPC   C2B 1151   4.577   1.027   7.233  0.0052  0.2231  0.0643
   60POPC   C3B 1152   4.636   0.782   6.778 -0.2102  0.1054 -0.1305
   60POPC   C4B 1153   4.930   0.762   6.374  0.2989  0.1776  0.0619
   61POPC   NC3 1154   1.699   9.126   7.798  0.0731  0.1240  0.0331
   61POPC   PO4 1155   2.041   8.840   7.969  0.4147  0.0139 -0.0664
   61POPC   GL1 1156   2.237   8.702   7.605 -0.0201 -0.3495 -0.0161
   61POPC   GL2 1157   2.537   8.569   7.601 -0.0722 -0.0915  0.1826
   61POPC   C1A 1158   2.597   8.952   7.310  0.1567 -0.0760 -0.0049
   61POPC   D2A 1159   2.936   9.149   7.147 -0.1019 -0.3000  0.0535
   61POPC   C3A 1160   2.937   9.391   6.789  0.0172 -0.1193 -0.2029
   61POPC   C4A 1161   2.936   9.832   6.741  0.1623 -0.2557 -0.1406
   61POPC   C1B 1162   2.582   8.421   7.191 -0.1257  0.1193 -0.1866
   61POPC   C2B 1163   2.483   8.292   6.777  0.1628 -0.0852 -0.1474
   61POPC   C3B 1164   2.383   7.949   6.537 -0.1582 -0.1405 -0.3478
   61POPC   C4B 1165   2.383   7.484   6.689 -0.2037  0.0865 -0.0254
   62POPC   NC3 1166   5.505   7.158   8.803  0.1741  0.0302 -0.2028
   62POPC   PO4 1167   5.436   7.207   8.338  0.2508  0.1110 -0.0549
   62POPC   GL1 1168   5.483   7.308   7.909 -0.0816  0.1729 -0.0965
   62POPC   GL2 1169   5.322   7.200   7.711  0.0385 -0.0741  0.1020
   62POPC   C1A 1170   5.768   7.438   7.584  0.0719 -0.0446  0.1013
   62POPC   D2A 1171   6.163   7.270   7.448  0.0454  0.0646 -0.3741
   62POPC   C3A 1172   6.336   7.257   7.005  0.0731  0.0212 -0.0083
   62POPC   C4A 1173   6.043   7.197   6.693 -0.1509 -0.0887 -0.1284
   62POPC   C1B 1174   5.338   7.246   7.260  0.5370  0.0015 -0.2549
   62POPC   C2B 1175   5.670   7.529   7.052  0.2050 -0.0270  0.2954
   62POPC   C3B 1176   5.501   7.878   6.715  0.2051 -0.0490 -0.0634
   62POPC   C4B 1177   5.669   8.004   6.430  0.0960 -0.0215  0.0040
   63POPC   NC3 1178   7.699   9.722   8.725  0.1306  0.0803 -0.2131
   63POPC   PO4 1179   8.134   9.462   8.753  0.0471 -0.2200 -0.0079
   63POPC   GL1 1180   7.990   9.409   8.313  0.0911  0.2378 -0.3824
   63POPC   GL2 1181   8.024   9.622   8.012  0.1679  0.2526 -0.0967
   63POPC   C1A 1182   8.141   9.112   8.090 -0.1358  0.0665  0.0569
   63POPC   D2A 1183   8.312   8.651   7.991 -0.0330  0.0357  0.0511
   63POPC   C3A 1184   8.508   8.410   8.241  0.1492  0.0774  0.0056
   63POPC   C4A 1185   8.717   8.040   8.351 -0.2028  0.1838  0.1829
   63POPC   C1B 1186   7.938   9.441   7.525  0.0919 -0.2691  0.1582
   63POPC   C2B 1187   7.776   9.432   6.964 -0.5119  0.4319 -0.1588
   63POPC   C3B 1188   7.601   9.455   6.581  0.2539  0.1597  0.1079
   63POPC   C4B 1189   7.593   9.281   6.205 -0.3060 -0.1285  0.0978
   64POPC   NC3 1190   2.219   5.666   8.709 -0.0803 -0.0853 -0.1322
   64POPC   PO4 1191   2.619   5.691   8.653  0.2781  0.1283 -0.2179
   64POPC   GL1 1192   2.533   5.719   8.226  0.2241 -0.4579 -0.3415
   64POPC   GL2 1193   2.550   6.125   8.175 -0.1611 -0.1431 -0.2440
   64POPC   C1A 1194   2.238   5.735   7.898  0.1681  0.1512  0.1027
   64POPC   D2A 1195   1.974   5.516   7.598  0.1644 -0.0429  0.1515
   64POPC   C3A 1196   2.088   5.502   7.249 -0.1160 -0.0023  0.0657
   64POPC   C4A 1197   1.972   5.821   6.959  0.1161 -0.0675  0.2513
   64POPC   C1B 1198   2.648   5.961   7.710 -0.2063  0.4585  0.0864
   64POPC   C2B 1199   2.440   5.954   7.240  0.1649  0.2718  0.0366
   64POPC   C3B 1200   2.435   5.656   6.953  0.3669 -0.0449 -0.1956
   64POPC   C4B 1201   2.160   5.480   6.712 -0.1502 -0.5352  0.1684
   65POPC   NC3 1202   7.549   8.320   9.485  0.2230 -0.0482  0.1466
   65POPC   PO4 1203   7.877   8.009   9.445 -0.0620  0.0888 -0.0964
   65POPC   GL1 1204   7.971   8.240   9.118  0.0182  0.1032 -0.1932
   65POPC   GL2 1205   7.830   8.517   8.977  0.0519 -0.3313 -0.0964
   65POPC   C1A 1206   8.225   8.173   8.770 -0.1550 -0.0159 -0.2129
   65POPC   D2A 1207   8.293   7.864   8.478  0.1848 -0.2183  0.2517
   65POPC   C3A 1208   8.494   7.573   8.134  0.1660 -0.2308 -0.2555
   65POPC   C4A 1209   8.491   7.197   7.988 -0.0920 -0.2588  0.0239
   65POPC   C1B 1210   7.608   8.314   8.719  0.1984 -0.1304  0.3809
   65POPC   C2B 1211   7.289   8.017   8.553 -0.0131 -0.1036 -0.2380
   65POPC   C3B 1212   7.360   7.756   8.168 -0.4043  0.1079 -0.1516
   65POPC   C4B 1213   7.608   7.583   7.856 -0.1434 -0.0125  0.2963
   66POPC   NC3 1214   3.714   6.569   8.149 -0.1587  0.2154  0.0779
   66POPC   PO4 1215   4.168   6.718   8.108 -0.3146  0.3285 -0.0239
   66POPC   GL1 1216   4.158   6.702   7.603 -0.3401 -0.0621 -0.2085
   66POPC   GL2 1217   4.399   6.499   7.576  0.0397  0.1885  0.0250
   66POPC   C1A 1218   3.995   6.848   7.247 -0.1261 -0.1393 -0.0361
   66POPC   D2A 1219   3.576   7.092   7.036 -0.0067  0.2612 -0.0900
   66POPC   C3A 1220   3.234   6.787   7.024 -0.0626 -0.0606 -0.0283
   66POPC   C4A 1221   3.186   6.507   7.372 -0.1054 -0.0119  0.0072
   66POPC   C1B 1222   4.514   6.681   7.189 -0.3512 -0.0747  0.1810
   66POPC   C2B 1223   4.574   6.890   6.866 -0.0574  0.1395 -0.3536
   66POPC   C3B 1224   4.822   7.154   6.555 -0.1995 -0.1158  0.2804
   66POPC   C4B 1225   4.948   7.610   6.453 -0.0625  0.2485 -0.0713
   67POPC   NC3 1226   7.438   4.021   9.238 -0.3203 -0.1245 -0.1546
   67POPC   PO4 1227   7.446   4.228   8.814 -0.1250  0.1889 -0.4322
   67POPC   GL1 1228   7.479   4.044   8.326  0.1035 -0.2963 -0.1422
   67POPC   GL2 1229   7.251   4.145   8.037  0.0064 -0.1169  0.0100
   67POPC   C1A 1230   7.574   3.679   8.153  0.0509 -0.2215 -0.1025
   67POPC   D2A 1231   7.585   3.453   7.831  0.0687  0.0511  0.1924
   67POPC   C3A 1232   7.794   3.562   7.554 -0.1769 -0.2996 -0.1095
   67POPC   C4A 1233   7.920   3.369   7.132 -0.0307  0.0193  0.3006
   67POPC   C1B 1234   7.305   3.924   7.741  0.1662 -0.1656  0.2825
   67POPC   C2B 1235   7.260   3.666   7.376  0.2024 -0.0005 -0.0182
   67POPC   C3B 1236   7.421   3.527   7.079 -0.2457  0.1147  0.1114
   67POPC   C4B 1237   7.390   3.222   6.821 -0.2146 -0.2047 -0.0884
   68POPC   NC3 1238   9.774   8.959   8.748  0.1559 -0.0558  0.1264
   68POPC   PO4 1239  10.282   8.830   8.531  0.1692 -0.2063 -0.2448
   68POPC   GL1 1240  10.088   8.758   8.139  0.3315  0.0708 -0.1699
   68POPC   GL2 1241   9.743   8.741   8.221  0.3960  0.0393  0.1747
   68POPC   C1A 1242   9.988   8.521   7.779  0.0179  0.2640 -0.1783
   68POPC   D2A 1243   9.969   8.636   7.368 -0.3318  0.1994  0.1704
   68POPC   C3A 1244   9.621   8.585   7.162 -0.2869 -0.0725  0.1072
   68POPC   C4A 1245   9.290   8.742   6.869 -0.0572  0.1837 -0.1266
   68POPC   C1B 1246   9.513   8.759   7.772  0.0980 -0.0440  0.3122
   68POPC   C2B 1247   9.623   9.027   7.431  0.1423  0.0915  0.2821
   68POPC   C3B 1248   9.885   9.009   7.005 -0.0300 -0.0817 -0.4467
   68POPC   C4B 1249   9.866   8.692   6.637 -0.2437 -0.1652  0.3378
   69POPC   NC3 1250   9.713   7.781   9.072 -0.3020 -0.0500 -0.1865
   69POPC   PO4 1251   9.948   8.124   8.928  0.0053 -0.2155  0.0390
   69POPC   GL1 1252   9.858   8.021   8.516 -0.1225  0.3230  0.0339
   69POPC   GL2 1253   9.682   7.785   8.531 -0.1574 -0.5496 -0.0760
   69POPC   C1A 1254  10.015   7.921   8.233  0.3987 -0.0048  0.0448
   69POPC   D2A 1255   9.955   7.992   7.788 -0.1096  0.5186 -0.1045
   69POPC   C3A 1256  10.230   8.191   7.505 -0.0448 -0.0973 -0.0764
   69POPC   C4A 1257  10.442   8.116   7.034 -0.2820 -0.3856  0.2011
   69POPC   C1B 1258   9.599   7.726   8.053 -0.1850  0.1648  0.1249
   69POPC   C2B 1259   9.610   7.710   7.622  0.3104  0.1597 -0.2469
   69POPC   C3B 1260   9.564   7.745   7.188  0.0724 -0.1846 -0.0828
   69POPC   C4B 1261   9.611   7.561   6.819 -0.1980 -0.1708  0.1024
   70POPC   NC3 1262   6.229   8.591   8.494  0.0612 -0.2355  0.0322
   70POPC   PO4 1263   6.192   9.038   8.328  0.0467  0.0322 -0.1266
   70POPC   GL1 1264   6.139   9.081   7.975 -0.3937  0.0971 -0.2354
   70POPC   GL2 1265   5.908   9.306   7.716  0.0529  0.0440 -0.0362
   70POPC   C1A 1266   6.265   8.978   7.512  0.1009 -0.2374  0.0569
   70POPC   D2A 1267   6.360   8.639   7.273 -0.1559  0.0552 -0.2871
   70POPC   C3A 1268   6.448   8.159   7.233 -0.0472  0.0205 -0.0188
   70POPC   C4A 1269   6.692   7.890   6.906 -0.1779  0.0635 -0.5508
   70POPC   C1B 1270   6.064   9.439   7.401 -0.0929 -0.3383  0.2421
   70POPC   C2B 1271   6.184   9.368   7.094 -0.0787  0.2638 -0.2530
   70POPC   C3B 1272   6.249   9.338   6.652  0.0828  0.2294  0.3431
   70POPC   C4B 1273   6.160   9.600   6.335 -0.1386 -0.0589 -0.3987
   71POPC   NC3 1274   6.602   5.922   9.072  0.0144  0.1743  0.2658
   71POPC   PO4 1275   6.571   5.538   8.896 -0.3051  0.3144  0.1172
   71POPC   GL1 1276   6.934   5.706   8.744  0.1194  0.1191  0.3655
   71POPC   GL2 1277   6.909   6.091   8.731 -0.0966 -0.1321 -0.1547
   71POPC   C1A 1278   7.035   5.753   8.343 -0.0421 -0.1935 -0.2229
   71POPC   D2A 1279   6.871   5.899   7.963  0.1531 -0.1894  0.0515
   71POPC   C3A 1280   6.831   5.662   7.619 -0.0596 -0.1368  0.2201
   71POPC   C4A 1281   7.092   5.430   7.263 -0.0133 -0.1433  0.1411
   71POPC   C1B 1282   7.291   6.417   8.793 -0.2456 -0.2668  0.1855
   71POPC   C2B 1283   7.580   6.463   8.452  0.6308 -0.2037  0.1917
   71POPC   C3B 1284   7.607   6.826   8.180 -0.0563 -0.3188 -0.1265
   71POPC   C4B 1285   7.923   7.047   8.017  0.1879  0.1030  0.0869
   72POPC   NC3 1286   6.524   1.042   8.173  0.0371  0.1374  0.2467
   72POPC   PO4 1287   6.284   0.726   8.242 -0.2008  0.2395 -0.0017
   72POPC   GL1 1288   6.362   0.821   7.790 -0.0844  0.1961  0.4200
   72POPC   GL2 1289   6.365   0.513   7.678 -0.3818 -0.1490 -0.1916
   72POPC   C1A 1290   6.632   0.902   7.366 -0.0266 -0.0213  0.0313
   72POPC   D2A 1291   6.550   0.779   6.897  0.2229 -0.0518  0.0191
   72POPC   C3A 1292   6.905   0.863   6.695 -0.2173  0.2194  0.1501
   72POPC   C4A 1293   7.258   0.981   6.672  0.0097 -0.0101  0.1892
   72POPC   C1B 1294   6.124   0.654   7.387  0.0371 -0.3199  0.1507
   72POPC   C2B 1295   5.760   0.698   6.989 -0.3267  0.0088 -0.0395
   72POPC   C3B 1296   5.664   1.056   6.713 -0.1891  0.2804 -0.0142
   72POPC   C4B 1297   5.858   1.161   6.241  0.0966 -0.4384  0.0157
   73POPC   NC3 1298   2.033   6.806   8.484 -0.1407  0.1166 -0.0641
   73POPC   PO4 1299   2.296   7.190   8.485  0.1542 -0.1716 -0.2375
   73POPC   GL1 1300   2.260   7.123   8.019  0.0572 -0.0062  0.1137
   73POPC   GL2 1301   2.608   7.204   7.784 -0.1697  0.4464  0.0730
   73POPC   C1A 1302   2.208   6.848   7.653  0.1856  0.1419  0.2037
   73POPC   D2A 1303   2.187   6.832   7.232  0.3371  0.0354  0.0032
   73POPC   C3A 1304   2.426   7.032   6.938  0.0423  0.1503 -0.0773
   73POPC   C4A 1305   2.877   7.089   6.824  0.1009  0.0646  0.2882
   73POPC   C1B 1306   2.264   7.529   7.640 -0.1921 -0.1809  0.0197
   73POPC   C2B 1307   1.981   7.939   7.462  0.0989  0.0433 -0.2520
   73POPC   C3B 1308   2.099   8.319   7.227  0.1384  0.3225  0.2484
   73POPC   C4B 1309   2.302   8.740   6.995  0.1913  0.0732 -0.1001
   74POPC   NC3 1310   1.197   3.074   8.063 -0.3720  0.3138  0.1896
   74POPC   PO4 1311   1.589   2.924   8.247 -0.0678 -0.2788 -0.1210
   74POPC   GL1 1312   1.519   2.795   7.765  0.3910  0.1826 -0.0980
   74POPC   GL2 1313   1.778   2.998   7.702  0.1715 -0.1982 -0.1518
   74POPC   C1A 1314   1.383   2.756   7.356 -0.2194  0.1074  0.2014
   74POPC   D2A 1315   1.298   2.733   6.925 -0.1846  0.1981  0.2132
   74POPC   C3A 1316   1.076   2.958   6.696  0.1472 -0.1361  0.2030
   74POPC   C4A 1317   0.945   3.301   6.426 -0.1701  0.2999 -0.2706
   74POPC   C1B 1318   1.800   3.014   7.274  0.0626 -0.4128  0.0961
   74POPC   C2B 1319   1.760   3.078   6.906 -0.1014 -0.1568 -0.1958
   74POPC   C3B 1320   1.907   3.386   6.671  0.1049 -0.1209 -0.0308
   74POPC   C4B 1321   1.948   3.808   6.444 -0.1251 -0.2146 -0.0210
   75POPC   NC3 1322   8.521   4.731   9.401  0.2470  0.0283  0.0931
   75POPC   PO4 1323   8.189   4.605   9.151 -0.1267  0.2810  0.0890
   75POPC   GL1 1324   8.061   4.706   8.711  0.0572 -0.0878  0.0214
   75POPC   GL2 1325   7.772   4.842   8.524 -0.1449  0.0636 -0.2553
   75POPC   C1A 1326   8.273   5.063   8.417 -0.0441 -0.2295  0.1538
   75POPC   D2A 1327   8.350   5.143   7.953  0.0978 -0.2659  0.3199
   75POPC   C3A 1328   8.632   5.272   7.733  0.0627 -0.0833  0.1019
   75POPC   C4A 1329   8.843   5.676   7.542 -0.1625 -0.0333 -0.1402
   75POPC   C1B 1330   7.822   5.156   8.109 -0.3261  0.1517  0.1789
   75POPC   C2B 1331   7.678   5.310   7.740 -0.2070  0.1131 -0.1398
   75POPC   C3B 1332   7.751   5.373   7.314  0.1783 -0.0928  0.0421
   75POPC   C4B 1333   7.521   5.277   6.965  0.1749 -0.3163 -0.2844
   76POPC   NC3 1334   2.270   9.170   8.243  0.1945 -0.1303  0.1504
   76POPC   PO4 1335   2.450   9.423   7.982 -0.2250 -0.1104 -0.2087
   76POPC   GL1 1336   2.495   9.739   7.620  0.1245 -0.0234 -0.0460
   76POPC   GL2 1337   2.650  10.054   7.602  0.2629 -0.1109 -0.2606
   76POPC   C1A 1338   2.419   9.498   7.200  0.2109  0.2063 -0.1373
   76POPC   D2A 1339   2.485   9.212   6.871  0.3232 -0.2280  0.0899
   76POPC   C3A 1340   2.338   9.001   6.540  0.0877 -0.0278  0.1037
   76POPC   C4A 1341   2.204   9.384   6.280  0.0284 -0.1124  0.2456
   76POPC   C1B 1342   2.234  10.190   7.465 -0.0322 -0.1430  0.1746
   76POPC   C2B 1343   2.012  10.115   7.121  0.1531  0.0301 -0.2790
   76POPC   C3B 1344   2.183  10.134   6.778  0.0137  0.0818  0.2771
   76POPC   C4B 1345   2.230  10.205   6.262 -0.3548 -0.0588 -0.0965
   77POPC   NC3 1346   4.314   7.286   7.980 -0.0517 -0.0129  0.0125
   77POPC   PO4 1347   4.462   7.608   8.301 -0.1461  0.0888  0.2805
   77POPC   GL1 1348   4.378   7.797   7.878  0.0193 -0.1790  0.4615
   77POPC   GL2 1349   4.176   8.041   7.791 -0.0519  0.0087 -0.1281
   77POPC   C1A 1350   4.314   7.651   7.440 -0.1092  0.0884  0.0354
   77POPC   D2A 1351   4.308   7.797   7.017 -0.1715 -0.1799 -0.1730
   77POPC   C3A 1352   4.615   7.903   6.707  0.1138 -0.3208 -0.1042
   77POPC   C4A 1353   5.053   8.096   6.641  0.3768  0.1907 -0.1030
   77POPC   C1B 1354   4.272   8.179   7.337 -0.0677 -0.0338 -0.2346
   77POPC   C2B 1355   4.377   8.313   6.980  0.0908  0.2847  0.0212
   77POPC   C3B 1356   4.305   8.739   6.798  0.2234 -0.1403  0.0308
   77POPC   C4B 1357   4.406   9.185   6.909 -0.2289  0.0368  0.2266
   78POPC   NC3 1358   0.411   4.617   8.644 -0.2041 -0.1358  0.0546
   78POPC   PO4 1359   0.533   4.271   8.409  0.0505  0.0919  0.0121
   78POPC   GL1 1360   0.724   4.654   8.207  0.1961 -0.2307  0.1182
   78POPC   GL2 1361   1.015   4.807   8.317 -0.0548  0.1073  0.2434
   78POPC   C1A 1362   0.792   4.888   7.900 -0.0295 -0.2835  0.0223
   78POPC   D2A 1363   0.594   4.894   7.496 -0.0634  0.2141  0.0165
   78POPC   C3A 1364   0.513   4.977   7.173  0.5199 -0.2303 -0.3082
   78POPC   C4A 1365   0.504   5.152   6.742 -0.0731 -0.1092  0.0519
   78POPC   C1B 1366   1.339   5.114   8.021 -0.1772 -0.3823 -0.1415
   78POPC   C2B 1367   1.275   5.441   7.735  0.0856  0.1582 -0.1989
   78POPC   C3B 1368   1.473   5.462   7.409 -0.0382 -0.0074  0.2688
   78POPC   C4B 1369   1.614   5.381   7.035  0.1457  0.0927  0.1834
   79POPC   NC3 1370   4.351   4.155   8.470 -0.2899 -0.1985  0.2216
   79POPC   PO4 1371   4.488   3.799   8.343  0.1193 -0.1104  0.0922
   79POPC   GL1 1372   4.369   3.641   7.893  0.4064 -0.4169  0.2276
   79POPC   GL2 1373   4.228   3.339   7.759 -0.0730  0.1720  0.0420
   79POPC   C1A 1374   4.335   3.945   7.602  0.3006  0.1317 -0.0192
   79POPC   D2A 1375   3.989   4.144   7.443  0.2460  0.0391  0.0787
   79POPC   C3A 1376   4.004   4.055   7.025 -0.0697 -0.1636  0.1576
   79POPC   C4A 1377   4.280   4.122   6.541  0.0132  0.3138 -0.4669
   79POPC   C1B 1378   4.282   3.012   7.500 -0.1765 -0.0164  0.0818
   79POPC   C2B 1379   4.138   2.959   7.043  0.0222 -0.2871  0.2751
   79POPC   C3B 1380   3.920   2.577   6.844  0.3683  0.2585  0.0480
   79POPC   C4B 1381   3.608   2.281   6.946 -0.1189 -0.1956 -0.1981
   80POPC   NC3 1382   7.794   0.329   8.241 -0.2841 -0.1495  0.0128
   80POPC   PO4 1383   7.697  -0.105   8.289 -0.2114 -0.1213  0.0155
   80POPC   GL1 1384   7.656  -0.087   7.868  0.2512 -0.0133 -0.1189
   80POPC   GL2 1385   7.929   0.135   7.793 -0.1440 -0.4940  0.2491
   80POPC   C1A 1386   7.686  -0.161   7.428  0.5493  0.1835  0.2465
   80POPC   D2A 1387   7.901  -0.035   7.014  0.2386 -0.0936 -0.1888
   80POPC   C3A 1388   8.006  -0.197   6.620 -0.0066 -0.0310 -0.2539
   80POPC   C4A 1389   8.109  -0.626   6.488  0.1414 -0.0087  0.0866
   80POPC   C1B 1390   8.087   0.199   7.390 -0.0254 -0.0650 -0.2079
   80POPC   C2B 1391   8.357   0.218   6.968  0.2806  0.1685 -0.3855
   80POPC   C3B 1392   8.470  -0.180   6.774 -0.0062 -0.0807  0.1886
   80POPC   C4B 1393   8.492  -0.356   6.322 -0.2646  0.0041  0.3911
   81POPC   NC3 1394   6.609   2.880   8.146 -0.1400  0.0705 -0.1601
   81POPC   PO4 1395   6.954   2.889   8.386  0.0051  0.0598  0.3894
   81POPC   GL1 1396   7.155   2.798   8.035 -0.1409 -0.1714  0.0369
   81POPC   GL2 1397   7.480   2.673   8.101  0.2047  0.0244  0.1157
   81POPC   C1A 1398   7.357   3.013   7.770  0.3371  0.0770  0.1854
   81POPC   D2A 1399   7.403   3.113   7.382 -0.0513 -0.1662 -0.2289
   81POPC   C3A 1400   7.145   2.881   7.100  0.0322 -0.4818  0.1058
   81POPC   C4A 1401   7.190   2.650   6.780 -0.1391 -0.1621  0.0756
   81POPC   C1B 1402   7.816   2.902   7.983  0.0846 -0.1864  0.3868
   81POPC   C2B 1403   7.934   3.110   7.655 -0.0711  0.0282  0.3531
   81POPC   C3B 1404   8.169   2.927   7.337  0.1183  0.0501 -0.4027
   81POPC   C4B 1405   8.313   3.021   6.893 -0.2075  0.2069  0.1752
   82POPC   NC3 1406   5.441   9.164   8.727  0.0637 -0.0138 -0.2109
   82POPC   PO4 1407   5.201   9.293   8.313 -0.0834 -0.1135 -0.1155
   82POPC   GL1 1408   5.326   9.384   7.853  0.5535 -0.0402  0.1996
   82POPC   GL2 1409   5.136   9.696   7.777 -0.2404 -0.3343 -0.3734
   82POPC   C1A 1410   5.315   9.394   7.348  0.1689  0.0933  0.1482
   82POPC   D2A 1411   5.194   9.235   6.991  0.2438  0.2535 -0.0961
   82POPC   C3A 1412   5.287   9.393   6.597 -0.0527  0.2958  0.1663
   82POPC   C4A 1413   5.721   9.409   6.372  0.2193 -0.0158  0.1677
   82POPC   C1B 1414   5.123   9.923   7.466 -0.1834 -0.0107  0.0542
   82POPC   C2B 1415   5.306   9.830   7.071 -0.0526  0.0324  0.0165
   82POPC   C3B 1416   5.387   9.848   6.681  0.0865  0.2007 -0.0256
   82POPC   C4B 1417   5.451   9.918   6.279 -0.1725 -0.1621  0.0029
   83POPC   NC3 1418   6.510   6.997   9.190 -0.2535  0.0570 -0.5260
   83POPC   PO4 1419   6.135   7.208   9.002 -0.0462 -0.0835 -0.2584
   83POPC   GL1 1420   6.462   7.258   8.715  0.2968 -0.2048  0.4099
   83POPC   GL2 1421   6.744   7.298   8.861  0.1790 -0.1744 -0.1972
   83POPC   C1A 1422   6.725   7.039   8.418 -0.0246  0.1817 -0.3954
   83POPC   D2A 1423   7.063   6.761   8.338  0.1702  0.1819  0.0198
   83POPC   C3A 1424   7.015   6.314   8.196 -0.1013  0.1481  0.0357
   83POPC   C4A 1425   7.337   6.132   7.742 -0.0288 -0.0570  0.0487
   83POPC   C1B 1426   7.092   7.061   8.753 -0.0595  0.0901 -0.0514
   83POPC   C2B 1427   7.508   6.869   8.683 -0.6297 -0.1381  0.3594
   83POPC   C3B 1428   7.956   7.065   8.548 -0.2264  0.3986  0.0677
   83POPC   C4B 1429   8.239   7.347   8.740 -0.0566 -0.2206  0.1270
   84POPC   NC3 1430   6.293   4.564   8.871  0.0164  0.1666  0.0861
   84POPC   PO4 1431   6.714   4.542   8.591 -0.0653  0.2798 -0.1507
   84POPC   GL1 1432   6.541   4.648   8.330 -0.1476 -0.3062  0.2313
   84POPC   GL2 1433   6.471   4.472   8.029 -0.0151 -0.0416  0.0630
   84POPC   C1A 1434   6.560   4.945   7.929  0.0709 -0.0257 -0.1332
   84POPC   D2A 1435   6.421   4.980   7.499  0.0309  0.0831  0.1138
   84POPC   C3A 1436   6.595   5.029   7.082 -0.4361  0.0992 -0.0685
   84POPC   C4A 1437   6.512   4.955   6.654  0.1366  0.0655  0.1221
   84POPC   C1B 1438   6.431   4.476   7.581 -0.1817 -0.2265  0.0384
   84POPC   C2B 1439   6.332   4.509   7.169  0.1771  0.0767  0.6806
   84POPC   C3B 1440   5.916   4.361   6.912  0.2794  0.1297 -0.1569
   84POPC   C4B 1441   5.865   4.246   6.352  0.2903  0.1785 -0.1549
   85POPC   NC3 1442   5.397   3.166   8.211 -0.0662  0.0050  0.1080
   85POPC   PO4 1443   5.031   2.947   8.257 -0.0297 -0.1200 -0.0300
   85POPC   GL1 1444   5.022   3.149   7.833 -0.0163  0.2520  0.0864
   85POPC   GL2 1445   4.799   3.296   7.666  0.2975 -0.0355 -0.1373
   85POPC   C1A 1446   5.217   3.205   7.371 -0.2990 -0.1879  0.0122
   85POPC   D2A 1447   5.132   3.095   6.931 -0.0876 -0.2135  0.2375
   85POPC   C3A 1448   5.420   2.876   6.702  0.0891  0.0162 -0.2480
   85POPC   C4A 1449   5.778   2.529   6.555  0.3172  0.1515 -0.0492
   85POPC   C1B 1450   4.745   3.167   7.292 -0.1104 -0.2256  0.1556
   85POPC   C2B 1451   4.651   3.040   6.881 -0.1573  0.3459  0.0279
   85POPC   C3B 1452   4.350   2.879   6.591 -0.2719 -0.2804 -0.1188
   85POPC   C4B 1453   4.177   2.480   6.405  0.0619 -0.0534  0.2801
   86POPC   NC3 1454   8.020   3.427   8.942 -0.1884 -0.1909 -0.1523
   86POPC   PO4 1455   8.058   3.037   8.896  0.0118 -0.0600 -0.1098
   86POPC   GL1 1456   7.998   3.060   8.455 -0.3883  0.2743  0.3960
   86POPC   GL2 1457   7.913   3.459   8.462 -0.1644  0.0244 -0.0540
   86POPC   C1A 1458   8.293   3.115   8.047  0.0035  0.0383 -0.1021
   86POPC   D2A 1459   8.549   3.098   7.640 -0.3084  0.1145  0.1129
   86POPC   C3A 1460   8.756   3.510   7.583  0.0518 -0.0686  0.2934
   86POPC   C4A 1461   8.698   3.765   7.825 -0.0138 -0.1368 -0.0514
   86POPC   C1B 1462   8.023   3.535   8.019 -0.0736  0.0162  0.0897
   86POPC   C2B 1463   8.261   3.519   7.689 -0.0090  0.2521  0.1624
   86POPC   C3B 1464   8.420   3.431   7.197  0.1943 -0.1961 -0.3132
   86POPC   C4B 1465   8.361   3.645   6.805 -0.0894  0.2640  0.0284
   87POPC   NC3 1466   9.673   5.974   9.735 -0.1299  0.0706 -0.0224
   87POPC   PO4 1467   9.397   6.255   9.509  0.0215 -0.0965 -0.3146
   87POPC   GL1 1468   9.190   6.026   9.199  0.2047 -0.2173 -0.1119
   87POPC   GL2 1469   8.878   5.991   9.137  0.1007 -0.0633 -0.0750
   87POPC   C1A 1470   9.323   6.161   8.735 -0.0262 -0.1613 -0.0183
   87POPC   D2A 1471   9.525   6.357   8.357 -0.0568  0.1684  0.0022
   87POPC   C3A 1472   9.565   6.784   8.115 -0.1157  0.1859 -0.1097
   87POPC   C4A 1473   9.979   6.959   7.989 -0.1309 -0.0166  0.2240
   87POPC   C1B 1474   8.500   5.867   8.867  0.1204 -0.3086 -0.1021
   87POPC   C2B 1475   8.113   5.971   8.631 -0.5279  0.2926 -0.1503
   87POPC   C3B 1476   7.844   5.997   8.318 -0.0549  0.0337 -0.2633
   87POPC   C4B 1477   7.734   6.288   8.012  0.1150  0.1445  0.2278
   88POPC   NC3 1478   2.775   3.996   8.688  0.1105  0.1547 -0.0290
   88POPC   PO4 1479   3.165   3.825   8.530  0.0496  0.3133  0.2280
   88POPC   GL1 1480   3.236   3.894   8.195  0.1020  0.2794 -0.2647
   88POPC   GL2 1481   2.892   4.030   8.072 -0.0407 -0.1071 -0.1444
   88POPC   C1A 1482   3.329   3.822   7.846 -0.2479 -0.1644 -0.0763
   88POPC   D2A 1483   2.990   3.955   7.431  0.1936  0.1512 -0.3104
   88POPC   C3A 1484   3.085   4.042   6.979 -0.1505 -0.0234 -0.0655
   88POPC   C4A 1485   3.063   3.978   6.498 -0.0137 -0.2849 -0.0648
   88POPC   C1B 1486   3.034   4.304   7.804 -0.5292  0.0928  0.2328
   88POPC   C2B 1487   3.406   4.200   7.503 -0.2423 -0.1757 -0.0712
   88POPC   C3B 1488   3.516   4.187   7.111  0.1228 -0.1760 -0.0274
   88POPC   C4B 1489   3.496   3.787   6.818 -0.0261 -0.0319 -0.2452
   89POPC   NC3 1490   2.765   7.072   8.279  0.2477 -0.0939  0.0872
   89POPC   PO4 1491   3.026   6.799   8.226 -0.1814 -0.0275  0.2773
   89POPC   GL1 1492   2.989   6.732   7.810 -0.1010  0.0943 -0.4252
   89POPC   GL2 1493   3.042   6.984   7.606 -0.2537 -0.0362  0.2065
   89POPC   C1A 1494   2.762   6.456   7.523  0.1317 -0.0408  0.1594
   89POPC   D2A 1495   2.263   6.374   7.426 -0.0049  0.3049 -0.3171
   89POPC   C3A 1496   2.052   6.341   7.049  0.2848 -0.1887  0.1387
   89POPC   C4A 1497   2.107   6.290   6.617 -0.1574 -0.0208 -0.1864
   89POPC   C1B 1498   2.699   6.866   7.331 -0.0001 -0.0748 -0.1661
   89POPC   C2B 1499   2.745   6.572   6.974  0.2194 -0.0840  0.0376
   89POPC   C3B 1500   2.560   6.247   6.812 -0.2841 -0.1243  0.0812
   89POPC   C4B 1501   2.400   5.862   6.494 -0.3320  0.2024 -0.0525
   90POPC   NC3 1502   2.727   0.165   8.175 -0.3234  0.2406 -0.0574
   90POPC   PO4 1503   2.913   0.586   8.291 -0.1840  0.1006 -0.0635
   90POPC   GL1 1504   2.700   0.666   7.951 -0.0345 -0.0261  0.1924
   90POPC   GL2 1505   2.407   0.929   7.840  0.0018  0.2637 -0.0716
   90POPC   C1A 1506   2.569   0.627   7.431 -0.0366 -0.5699 -0.1113
   90POPC   D2A 1507   2.285   0.555   7.144  0.0395 -0.1301  0.1844
   90POPC   C3A 1508   1.823   0.629   7.166  0.1871 -0.1847  0.1347
   90POPC   C4A 1509   1.700   0.770   6.780  0.2394 -0.1644 -0.1458
   90POPC   C1B 1510   2.057   0.753   7.630 -0.2247  0.1584 -0.2369
   90POPC   C2B 1511   1.733   0.437   7.579  0.5637 -0.0193 -0.0641
   90POPC   C3B 1512   1.547   0.195   7.302 -0.2630  0.1908 -0.2066
   90POPC   C4B 1513   1.530  -0.188   6.931  0.1137 -0.1452  0.3205
   91POPC   NC3 1514   6.908   9.379   8.768 -0.0451  0.1703  0.1059
   91POPC   PO4 1515   6.735   9.738   8.522  0.0771  0.0267 -0.1191
   91POPC   GL1 1516   7.054   9.529   8.274  0.0959  0.0288 -0.1998
   91POPC   GL2 1517   7.163   9.730   8.062 -0.0406 -0.3348  0.3899
   91POPC   C1A 1518   7.077   9.291   7.864  0.0080  0.0457 -0.1774
   91POPC   D2A 1519   6.824   8.949   7.594 -0.1115  0.2285  0.1683
   91POPC   C3A 1520   6.887   8.707   7.218  0.2238  0.0839 -0.2963
   91POPC   C4A 1521   6.719   8.404   6.909  0.1007  0.0363  0.3456
   91POPC   C1B 1522   7.183   9.800   7.731  0.1457 -0.1322  0.0415
   91POPC   C2B 1523   6.971   9.850   7.314 -0.0641  0.2963 -0.1152
   91POPC   C3B 1524   6.811   9.983   6.910 -0.2579 -0.3047  0.1884
   91POPC   C4B 1525   6.734  10.378   6.583 -0.2828 -0.1899 -0.0363
   92POPC   NC3 1526   9.664   4.031   8.675 -0.2350 -0.2285 -0.1876
   92POPC   PO4 1527   9.928   4.273   8.406  0.1089  0.0819  0.3787
   92POPC   GL1 1528  10.162   4.433   8.134 -0.1139  0.2791  0.3269
   92POPC   GL2 1529  10.068   4.685   8.044  0.1364  0.1243 -0.1827
   92POPC   C1A 1530  10.456   4.438   7.758  0.0302  0.4084 -0.1793
   92POPC   D2A 1531  10.797   4.390   7.453 -0.1983  0.0553 -0.1167
   92POPC   C3A 1532  10.997   4.811   7.233 -0.1542 -0.0652  0.0532
   92POPC   C4A 1533  11.061   5.198   7.019 -0.2953  0.2045 -0.4667
   92POPC   C1B 1534  10.087   4.785   7.605  0.1249  0.0402 -0.0557
   92POPC   C2B 1535   9.877   4.641   7.232 -0.1019 -0.0511  0.1133
   92POPC   C3B 1536   9.999   4.381   6.817 -0.0491  0.1105 -0.1306
   92POPC   C4B 1537   9.822   4.162   6.466  0.2387  0.1414  0.1203
   93POPC   NC3 1538   1.401   8.255   8.686 -0.2279  0.0931  0.1253
   93POPC   PO4 1539   1.376   7.866   8.642  0.0768 -0.2712  0.2265
   93POPC   GL1 1540   1.269   7.765   8.201 -0.4749 -0.1734  0.3058
   93POPC   GL2 1541   1.625   7.648   8.148  0.0453 -0.1586  0.0673
   93POPC   C1A 1542   1.229   7.608   7.739 -0.2242 -0.0665  0.5255
   93POPC   D2A 1543   1.028   7.366   7.619  0.0749  0.0174 -0.1911
   93POPC   C3A 1544   0.958   7.226   7.236  0.2403 -0.3281  0.4085
   93POPC   C4A 1545   0.913   7.271   6.780 -0.1127  0.4578 -0.0628
   93POPC   C1B 1546   1.708   7.667   7.783 -0.0876  0.2029  0.2085
   93POPC   C2B 1547   1.619   7.555   7.294  0.1207  0.0860 -0.0719
   93POPC   C3B 1548   1.380   7.370   6.919 -0.2654 -0.2066 -0.3831
   93POPC   C4B 1549   1.402   7.217   6.562 -0.0994 -0.0432 -0.0590
   94POPC   NC3 1550   9.949   2.136   8.751 -0.1710  0.1586 -0.0902
   94POPC   PO4 1551   9.791   2.404   8.356 -0.0863 -0.0731 -0.1709
   94POPC   GL1 1552   9.616   2.508   7.934 -0.0873 -0.0113 -0.0866
   94POPC   GL2 1553   9.534   2.292   7.708  0.1646  0.0402  0.2896
   94POPC   C1A 1554   9.318   2.899   8.007 -0.1136  0.1567 -0.0759
   94POPC   D2A 1555   8.992   3.175   7.881 -0.0289 -0.1512 -0.0072
   94POPC   C3A 1556   8.697   3.415   8.174 -0.0137 -0.1652 -0.2204
   94POPC   C4A 1557   8.354   3.548   8.421 -0.4127  0.3936  0.0796
   94POPC   C1B 1558   9.593   2.327   7.213 -0.1373 -0.1299  0.0122
   94POPC   C2B 1559   9.594   2.646   6.868  0.1341  0.3654  0.3084
   94POPC   C3B 1560   9.844   2.528   6.489  0.0649 -0.1035  0.0724
   94POPC   C4B 1561  10.162   2.547   6.397 -0.0547 -0.1148 -0.0643
   95POPC   NC3 1562   5.831   3.709   8.028 -0.3057  0.0574 -0.0065
   95POPC   PO4 1563   5.790   4.117   8.257 -0.0120 -0.1249  0.1494
   95POPC   GL1 1564   5.750   4.330   7.884  0.1082 -0.0851  0.2465
   95POPC   GL2 1565   5.475   4.511   7.801 -0.1925  0.2337 -0.1889
   95POPC   C1A 1566   5.853   4.349   7.475 -0.0638  0.1663 -0.0664
   95POPC   D2A 1567   6.209   4.061   7.262  0.0570 -0.2474 -0.2418
   95POPC   C3A 1568   6.376   4.039   6.851 -0.1315  0.1739  0.0813
   95POPC   C4A 1569   6.333   4.421   6.594  0.0428  0.1442  0.1176
   95POPC   C1B 1570   5.490   4.800   7.522 -0.0697 -0.2128  0.2503
   95POPC   C2B 1571   5.562   4.975   7.152  0.2583 -0.1988 -0.1158
   95POPC   C3B 1572   5.453   5.313   6.770  0.0631  0.2099  0.0311
   95POPC   C4B 1573   5.596   5.683   6.630  0.1585  0.0648 -0.2427
   96POPC   NC3 1574   7.019   4.177   8.583  0.1018 -0.0147  0.0819
   96POPC   PO4 1575   6.736   4.043   8.284 -0.1313  0.1999 -0.1712
   96POPC   GL1 1576   6.748   3.917   7.903  0.0278  0.0091  0.0691
   96POPC   GL2 1577   6.861   4.257   7.683 -0.0824  0.2718 -0.0862
   96POPC   C1A 1578   6.775   3.724   7.524 -0.2120  0.2731  0.1298
   96POPC   D2A 1579   6.943   3.872   7.027 -0.1431 -0.1067  0.3857
   96POPC   C3A 1580   7.393   4.066   6.977 -0.2056 -0.0495 -0.0623
   96POPC   C4A 1581   7.843   3.841   6.901  0.3308 -0.1603 -0.4263
   96POPC   C1B 1582   6.755   4.178   7.314  0.0194  0.1547 -0.0288
   96POPC   C2B 1583   6.811   4.410   6.881 -0.3012  0.0437  0.0748
   96POPC   C3B 1584   6.891   4.622   6.502 -0.2202 -0.2942  0.0879
   96POPC   C4B 1585   6.752   4.927   6.192  0.1366 -0.1810  0.2251
   97POPC   NC3 1586   0.239   1.545   8.329  0.2100  0.0607 -0.2355
   97POPC   PO4 1587  -0.267   1.380   8.444  0.0417  0.3448  0.1042
   97POPC   GL1 1588  -0.424   1.361   8.197  0.1736 -0.0744  0.0954
   97POPC   GL2 1589  -0.339   0.974   8.095 -0.1959 -0.1355  0.1035
   97POPC   C1A 1590  -0.541   1.402   7.725  0.2406  0.1761  0.0277
   97POPC   D2A 1591  -0.432   1.795   7.521  0.1185 -0.1358 -0.0618
   97POPC   C3A 1592  -0.281   1.683   7.146  0.3912 -0.0600 -0.0365
   97POPC   C4A 1593  -0.282   1.719   6.748 -0.0396 -0.1454  0.0092
   97POPC   C1B 1594  -0.325   0.927   7.637  0.0109 -0.2398  0.0890
   97POPC   C2B 1595  -0.561   0.866   7.207 -0.2119  0.1334  0.0995
   97POPC   C3B 1596  -0.875   0.991   6.891  0.0442  0.2825 -0.1929
   97POPC   C4B 1597  -0.998   1.343   6.524 -0.0125 -0.2803  0.1525
   98POPC   NC3 1598   5.044   3.929   8.430  0.0526  0.0999  0.0234
   98POPC   PO4 1599   5.262   3.654   8.058 -0.0908  0.1317 -0.1491
   98POPC   GL1 1600   5.260   3.697   7.669  0.0717 -0.2392  0.0939
   98POPC   GL2 1601   5.239   4.004   7.700 -0.0232  0.1297 -0.3371
   98POPC   C1A 1602   5.218   3.639   7.167  0.0358  0.0790  0.2506
   98POPC   D2A 1603   4.829   3.507   6.909  0.0418 -0.1133  0.0488
   98POPC   C3A 1604   4.869   3.282   6.523 -0.2373  0.1863 -0.1213
   98POPC   C4A 1605   5.023   2.979   6.389 -0.0867 -0.0274 -0.0731
   98POPC   C1B 1606   5.386   4.220   7.358 -0.1551 -0.1802  0.1738
   98POPC   C2B 1607   5.503   4.533   7.079 -0.1389 -0.2203  0.2183
   98POPC   C3B 1608   5.230   4.905   6.769 -0.1252 -0.3116 -0.2477
   98POPC   C4B 1609   5.178   4.915   6.427  0.0349  0.2215 -0.0760
   99POPC   NC3 1610   6.834   4.926   8.842  0.0050 -0.1394  0.2593
   99POPC   PO4 1611   6.462   5.085   8.714 -0.0238  0.1604 -0.0073
   99POPC   GL1 1612   6.664   5.334   8.417 -0.1260 -0.0978  0.1496
   99POPC   GL2 1613   6.906   5.013   8.318 -0.0963  0.0273  0.2709
   99POPC   C1A 1614   6.877   5.418   8.064 -0.1105 -0.1405 -0.1122
   99POPC   D2A 1615   7.138   5.222   7.772  0.0131  0.1610  0.3001
   99POPC   C3A 1616   6.926   5.004   7.501 -0.0743  0.1489 -0.2977
   99POPC   C4A 1617   6.947   4.595   7.330  0.1772  0.1829 -0.1924
   99POPC   C1B 1618   6.955   4.651   7.997  0.0042 -0.1838 -0.0849
   99POPC   C2B 1619   7.255   4.556   7.675  0.1013  0.2160 -0.0086
   99POPC   C3B 1620   7.418   4.359   7.415 -0.2728 -0.0886 -0.0910
   99POPC   C4B 1621   7.746   4.036   7.342  0.1563  0.1677 -0.1747
  100POPC   NC3 1622   9.027   7.454   9.675 -0.0674  0.0208 -0.1840
  100POPC   PO4 1623   9.286   7.801   9.301  0.0900 -0.2540 -0.0809
  100POPC   GL1 1624   8.941   7.712   9.015 -0.1489 -0.1857  0.0261
  100POPC   GL2 1625   8.788   8.018   8.897 -0.1113 -0.0861  0.1414
  100POPC   C1A 1626   8.704   7.632   8.621 -0.1414 -0.0865  0.3971
  100POPC   D2A 1627   8.652   7.183   8.465  0.1731  0.0166  0.1471
  100POPC   C3A 1628   8.811   6.789   8.312  0.0446  0.4921  0.0063
  100POPC   C4A 1629   9.079   6.424   8.197 -0.1180  0.0934 -0.0329
  100POPC   C1B 1630   9.130   8.028   8.616  0.2847 -0.3950 -0.2462
  100POPC   C2B 1631   9.121   7.932   8.115  0.3432  0.2351  0.1513
  100POPC   C3B 1632   8.781   8.077   7.826  0.0730  0.2237 -0.1794
  100POPC   C4B 1633   8.622   8.334   7.763  0.3941 -0.4408 -0.2853
  101POPC   NC3 1634   5.190   2.448   8.170  0.1196 -0.0245  0.2420
  101POPC   PO4 1635   5.337   2.088   8.050 -0.2051 -0.0639  0.4854
  101POPC   GL1 1636   5.473   2.282   7.728 -0.0952 -0.1974  0.0242
  101POPC   GL2 1637   5.801   2.104   7.809  0.4419 -0.5253 -0.1035
  101POPC   C1A 1638   5.277   2.104   7.364  0.0328  0.1038 -0.1371
  101POPC   D2A 1639   5.018   2.087   6.936  0.1135 -0.0867 -0.0117
  101POPC   C3A 1640   4.649   1.785   6.799 -0.2002  0.0208 -0.3564
  101POPC   C4A 1641   4.592   1.416   6.926  0.0594 -0.1861  0.2005
  101POPC   C1B 1642   5.817   2.345   7.430  0.5609  0.3016  0.1938
  101POPC   C2B 1643   5.949   2.332   6.992 -0.3023  0.1494  0.2135
  101POPC   C3B 1644   6.363   2.336   6.784 -0.3350 -0.1395 -0.1446
  101POPC   C4B 1645   6.557   2.068   6.633 -0.3086  0.2865 -0.0673
  102POPC   NC3 1646   5.956   6.361   9.043  0.1034 -0.0173 -0.1583
  102POPC   PO4 1647   6.341   6.487   9.313  0.0998  0.3576 -0.3124
  102POPC   GL1 1648   6.719   6.477   9.120  0.0096 -0.0121  0.1275
  102POPC   GL2 1649   7.009   6.453   9.241 -0.0479 -0.0590 -0.2347
  102POPC   C1A 1650   6.810   6.580   8.769  0.1140 -0.1499  0.1340
  102POPC   D2A 1651   6.549   6.419   8.380 -0.0650 -0.1531 -0.4261
  102POPC   C3A 1652   6.627   6.673   8.061 -0.1088 -0.0530  0.0719
  102POPC   C4A 1653   6.790   6.985   7.922  0.3670  0.1209 -0.1654
  102POPC   C1B 1654   7.386   6.620   9.228 -0.0490 -0.1006  0.0367
  102POPC   C2B 1655   7.576   7.097   9.315 -0.0703  0.2649 -0.2183
  102POPC   C3B 1656   7.654   7.396   9.067  0.3474 -0.0123 -0.2155
  102POPC   C4B 1657   7.400   7.574   8.734  0.2237 -0.1515  0.0958
  103POPC   NC3 1658   6.395   3.307   8.532 -0.0858 -0.0841 -0.1728
  103POPC   PO4 1659   6.693   3.385   8.314  0.0163 -0.2260 -0.4496
  103POPC   GL1 1660   6.586   3.369   7.877 -0.1223  0.1167 -0.0496
  103POPC   GL2 1661   6.234   3.550   7.785 -0.1522 -0.0136 -0.0887
  103POPC   C1A 1662   6.920   3.188   7.542  0.0841 -0.1794 -0.1037
  103POPC   D2A 1663   6.881   3.319   7.094 -0.3129  0.0348  0.1145
  103POPC   C3A 1664   6.589   3.606   6.736 -0.0544  0.0781  0.0276
  103POPC   C4A 1665   6.608   3.907   6.418  0.0145 -0.0151  0.1043
  103POPC   C1B 1666   6.177   3.525   7.398 -0.0852  0.1470 -0.4338
  103POPC   C2B 1667   6.132   3.616   6.947  0.0758 -0.0681  0.4120
  103POPC   C3B 1668   5.953   3.479   6.578  0.1672  0.0524 -0.1145
  103POPC   C4B 1669   5.590   3.726   6.347 -0.1973  0.1304 -0.0260
  104POPC   NC3 1670   6.012   4.604   8.260 -0.2669  0.1453  0.0403
  104POPC   PO4 1671   5.582   4.716   8.307 -0.0579  0.1696  0.1980
  104POPC   GL1 1672   5.813   4.924   7.930  0.0941 -0.2333 -0.1622
  104POPC   GL2 1673   6.064   4.696   7.789 -0.2347 -0.0794 -0.0830
  104POPC   C1A 1674   6.115   5.252   7.792  0.0440 -0.0790 -0.2094
  104POPC   D2A 1675   6.402   5.597   7.962 -0.2681  0.0132  0.0858
  104POPC   C3A 1676   6.359   6.059   8.036  0.1426 -0.2841  0.0364
  104POPC   C4A 1677   6.179   6.393   7.975 -0.0081 -0.2538  0.1163
  104POPC   C1B 1678   5.963   4.820   7.398 -0.2896 -0.1060 -0.0353
  104POPC   C2B 1679   6.032   4.843   6.885  0.0510 -0.1406 -0.1571
  104POPC   C3B 1680   5.731   4.726   6.587  0.0445 -0.5102 -0.1454
  104POPC   C4B 1681   5.497   4.603   6.159 -0.1535 -0.0110 -0.3363
  105POPC   NC3 1682   6.418   7.717   8.991 -0.0802 -0.2670 -0.3338
  105POPC   PO4 1683   5.960   7.638   8.874 -0.1365 -0.3070 -0.1177
  105POPC   GL1 1684   6.181   7.606   8.493  0.1845 -0.0107  0.1773
  105POPC   GL2 1685   5.945   7.786   8.364 -0.1047 -0.0235  0.1455
  105POPC   C1A 1686   6.506   7.577   8.254  0.0778 -0.0151  0.1180
  105POPC   D2A 1687   6.939   7.442   7.965  0.0253  0.1281  0.1372
  105POPC   C3A 1688   7.267   7.143   7.838 -0.2021 -0.1714  0.1477
  105POPC   C4A 1689   7.587   7.106   7.631 -0.2246  0.1118  0.1599
  105POPC   C1B 1690   6.046   7.891   7.956  0.0803 -0.0684 -0.0152
  105POPC   C2B 1691   6.146   7.782   7.468 -0.6125  0.1908  0.1844
  105POPC   C3B 1692   6.214   7.762   7.024 -0.2072  0.0620 -0.1047
  105POPC   C4B 1693   6.049   7.729   6.631 -0.2355  0.0399 -0.3398
  106POPC   NC3 1694   9.788   6.056   9.225 -0.0831 -0.1094 -0.1835
  106POPC   PO4 1695   9.632   5.687   9.336  0.1321 -0.2808 -0.2213
  106POPC   GL1 1696   9.513   5.745   8.926  0.0131 -0.1680 -0.1202
  106POPC   GL2 1697   9.846   5.890   8.773  0.1085 -0.2191 -0.2030
  106POPC   C1A 1698   9.066   5.707   8.682  0.1696 -0.1598 -0.1035
  106POPC   D2A 1699   8.846   5.982   8.399 -0.4084 -0.0201 -0.1387
  106POPC   C3A 1700   8.457   6.255   8.390 -0.1248  0.0696  0.2510
  106POPC   C4A 1701   8.119   6.437   8.576 -0.3472 -0.1157 -0.2414
  106POPC   C1B 1702  10.024   6.203   8.446  0.3371  0.4249  0.1975
  106POPC   C2B 1703   9.977   6.453   8.023  0.1242 -0.1743  0.1110
  106POPC   C3B 1704  10.029   6.416   7.653 -0.1363 -0.3380 -0.3232
  106POPC   C4B 1705  10.011   6.410   7.165  0.0404  0.1472 -0.1709
  107POPC   NC3 1706   5.265   9.963   8.148 -0.2307  0.0533 -0.2261
  107POPC   PO4 1707   4.694   9.984   8.105  0.1023  0.1160 -0.1915
  107POPC   GL1 1708   4.786  10.235   7.709  0.0634  0.0659 -0.0174
  107POPC   GL2 1709   4.356  10.220   7.599 -0.0009  0.0602  0.0804
  107POPC   C1A 1710   4.817  10.415   7.289  0.0851  0.1107 -0.3462
  107POPC   D2A 1711   5.056  10.745   7.099  0.0898 -0.1849 -0.2861
  107POPC   C3A 1712   5.270  10.713   6.801  0.1318 -0.4033 -0.2693
  107POPC   C4A 1713   5.472  10.777   6.346 -0.1523 -0.1676 -0.0939
  107POPC   C1B 1714   4.300  10.476   7.372 -0.0546 -0.1425 -0.0985
  107POPC   C2B 1715   4.192  10.701   6.912 -0.0118  0.0085 -0.1310
  107POPC   C3B 1716   4.080  10.640   6.452  0.1622  0.1325 -0.2720
  107POPC   C4B 1717   3.939  10.898   6.225 -0.2222 -0.0991 -0.0421
  108POPC   NC3 1718   1.936   2.084   8.285  0.4277  0.1408  0.1536
  108POPC   PO4 1719   2.275   2.414   8.216  0.1955  0.0922  0.0368
  108POPC   GL1 1720   2.442   2.417   7.857 -0.0446  0.0825 -0.2078
  108POPC   GL2 1721   2.150   2.610   7.769 -0.2040 -0.2638 -0.2385
  108POPC   C1A 1722   2.817   2.543   7.593  0.1843  0.0486 -0.4439
  108POPC   D2A 1723   3.106   2.925   7.608  0.1957 -0.1767  0.0964
  108POPC   C3A 1724   3.446   2.988   7.212  0.3144 -0.1449 -0.0174
  108POPC   C4A 1725   3.465   2.836   6.831 -0.2840  0.0793 -0.2348
  108POPC   C1B 1726   2.338   2.541   7.400 -0.1516 -0.3876  0.1025
  108POPC   C2B 1727   2.686   2.422   7.107 -0.1068 -0.3071 -0.1070
  108POPC   C3B 1728   2.607   1.958   6.967 -0.3137  0.0573  0.2691
  108POPC   C4B 1729   2.707   1.460   6.871  0.0268  0.1736 -0.1375
  109POPC   NC3 1730   5.134   1.652   8.023  0.0640  0.0760 -0.0009
  109POPC   PO4 1731   5.491   1.598   7.688 -0.0429 -0.4347  0.3815
  109POPC   GL1 1732   5.716   1.390   7.433  0.1384 -0.0367 -0.2266
  109POPC   GL2 1733   5.816   1.103   7.428 -0.1227 -0.0454 -0.1088
  109POPC   C1A 1734   5.894   1.408   7.011 -0.1031 -0.3863  0.1811
  109POPC   D2A 1735   5.717   1.562   6.644  0.1620 -0.1282  0.0863
  109POPC   C3A 1736   5.434   1.339   6.343 -0.0250  0.0337  0.0758
  109POPC   C4A 1737   5.071   1.366   6.215  0.1417  0.0547  0.2758
  109POPC   C1B 1738   6.123   1.040   7.097 -0.0861  0.0630  0.1939
  109POPC   C2B 1739   6.194   1.120   6.670  0.3115  0.1374 -0.2488
  109POPC   C3B 1740   6.489   1.017   6.512  0.2244  0.2134 -0.1964
  109POPC   C4B 1741   6.714   0.902   6.121 -0.2568  0.2448  0.2010
  110POPC   NC3 1742   5.029   7.468   8.380 -0.3588 -0.0854  0.0078
  110POPC   PO4 1743   4.819   7.173   8.088  0.0435 -0.1063  0.0705
  110POPC   GL1 1744   4.807   7.122   7.637 -0.1504 -0.0584  0.1273
  110POPC   GL2 1745   4.395   7.163   7.528 -0.0804  0.1009  0.0387
  110POPC   C1A 1746   4.851   7.226   7.195  0.2086  0.1036 -0.1271
  110POPC   D2A 1747   5.018   6.875   7.069  0.0727 -0.1227 -0.0478
  110POPC   C3A 1748   5.243   6.828   6.650 -0.0042  0.0814  0.1722
  110POPC   C4A 1749   5.317   6.641   6.179  0.0034  0.2064 -0.1152
  110POPC   C1B 1750   4.344   7.285   7.040 -0.3179  0.1450  0.0053
  110POPC   C2B 1751   4.399   7.328   6.597 -0.1490  0.0108  0.2273
  110POPC   C3B 1752   4.431   6.949   6.322  0.1527 -0.0731  0.0999
  110POPC   C4B 1753   4.381   6.592   6.383 -0.0541  0.3179 -0.1769
  111POPC   NC3 1754   1.528   4.579   8.774 -0.0982  0.0516 -0.0557
  111POPC   PO4 1755   1.311   4.341   8.547  0.3241  0.2577  0.0765
  111POPC   GL1 1756   1.127   4.357   8.102 -0.0271 -0.1459 -0.2968
  111POPC   GL2 1757   0.804   4.185   7.940 -0.0007 -0.0685 -0.3496
  111POPC   C1A 1758   1.152   4.629   7.733 -0.0699  0.1803  0.1310
  111POPC   D2A 1759   1.420   4.954   7.458 -0.1701 -0.0150  0.0903
  111POPC   C3A 1760   1.883   5.012   7.357 -0.0311 -0.0608  0.0940
  111POPC   C4A 1761   2.352   5.131   7.132 -0.0034 -0.0619 -0.1097
  111POPC   C1B 1762   0.760   3.911   7.617  0.2191  0.0494 -0.1528
  111POPC   C2B 1763   0.613   3.799   7.225  0.1621  0.2483 -0.1559
  111POPC   C3B 1764   0.266   3.694   7.058 -0.0347 -0.1386  0.0798
  111POPC   C4B 1765  -0.098   3.922   7.013 -0.0006  0.0259 -0.2129
  112POPC   NC3 1766   3.459   0.361   8.240 -0.0368 -0.0438  0.1564
  112POPC   PO4 1767   3.278  -0.067   8.265 -0.0020 -0.1254 -0.1669
  112POPC   GL1 1768   3.529  -0.043   7.865  0.3404 -0.4825  0.0768
  112POPC   GL2 1769   3.814  -0.145   7.852 -0.0827 -0.1240  0.0645
  112POPC   C1A 1770   3.404   0.041   7.439 -0.2076  0.3657 -0.3040
  112POPC   D2A 1771   3.329  -0.080   7.092  0.1579 -0.0422  0.0653
  112POPC   C3A 1772   3.475  -0.087   6.677  0.0995  0.0849  0.0053
  112POPC   C4A 1773   3.679  -0.321   6.323  0.3369  0.0654  0.0526
  112POPC   C1B 1774   3.892  -0.065   7.337 -0.1203  0.2809  0.1783
  112POPC   C2B 1775   3.844  -0.132   6.987  0.0677  0.0917  0.1853
  112POPC   C3B 1776   4.029  -0.363   6.727  0.1633 -0.3813  0.2542
  112POPC   C4B 1777   4.200  -0.356   6.365  0.2674 -0.0862 -0.3289
  113POPC   NC3 1778   3.063   4.529   9.266 -0.0558  0.2140  0.2434
  113POPC   PO4 1779   2.797   4.497   8.808  0.0721 -0.0964  0.0736
  113POPC   GL1 1780   2.848   4.835   8.347 -0.2268 -0.0203  0.1242
  113POPC   GL2 1781   2.760   4.653   8.185  0.0337  0.1842  0.0185
  113POPC   C1A 1782   2.647   5.170   8.191  0.0739 -0.0346  0.0627
  113POPC   D2A 1783   2.355   5.237   7.869 -0.4982 -0.1127 -0.0151
  113POPC   C3A 1784   2.660   4.941   7.536 -0.0695 -0.0310  0.0449
  113POPC   C4A 1785   3.057   4.846   7.784  0.0426  0.1216 -0.0988
  113POPC   C1B 1786   2.449   4.646   7.869 -0.2247 -0.1813 -0.1194
  113POPC   C2B 1787   2.192   4.668   7.584 -0.0019 -0.0882 -0.1001
  113POPC   C3B 1788   2.182   4.580   7.160 -0.1953 -0.0846  0.2889
  113POPC   C4B 1789   2.120   4.319   6.887  0.2195 -0.1321  0.3509
  114POPC   NC3 1790   0.646   2.445   8.387  0.1691  0.0931  0.1676
  114POPC   PO4 1791   0.254   2.194   8.340 -0.2837  0.1304  0.0656
  114POPC   GL1 1792   0.164   2.108   7.840 -0.2953  0.1762  0.0132
  114POPC   GL2 1793   0.054   2.390   7.719 -0.1347  0.3032  0.2114
  114POPC   C1A 1794   0.111   1.834   7.446 -0.2736  0.1086  0.1614
  114POPC   D2A 1795   0.226   1.770   7.059  0.1397 -0.1286 -0.0380
  114POPC   C3A 1796   0.598   1.779   6.909 -0.1175 -0.0039  0.0836
  114POPC   C4A 1797   0.872   1.889   6.562 -0.0112  0.2262  0.0088
  114POPC   C1B 1798  -0.195   2.756   7.581  0.1302  0.2964  0.1338
  114POPC   C2B 1799  -0.431   3.018   7.368  0.0640 -0.0978  0.2456
  114POPC   C3B 1800  -0.582   3.179   7.063 -0.0153  0.0670 -0.1443
  114POPC   C4B 1801  -0.483   3.367   6.575  0.2400  0.0494  0.1495
  115POPC   NC3 1802   7.315   7.855   9.611 -0.1348 -0.0697  0.1446
  115POPC   PO4 1803   7.074   8.022   9.281  0.3186  0.1283  0.0564
  115POPC   GL1 1804   6.923   7.811   8.883  0.0854  0.2098 -0.0920
  115POPC   GL2 1805   6.799   8.031   8.628 -0.3739  0.3564 -0.2692
  115POPC   C1A 1806   6.921   7.492   8.492  0.0015 -0.0788  0.0600
  115POPC   D2A 1807   7.244   7.217   8.303  0.2614 -0.1442 -0.4529
  115POPC   C3A 1808   7.623   7.326   8.308  0.0495  0.2423  0.1440
  115POPC   C4A 1809   7.998   7.515   8.155 -0.1690 -0.3922  0.2631
  115POPC   C1B 1810   6.893   7.898   8.213 -0.0107 -0.1207  0.0922
  115POPC   C2B 1811   7.001   7.874   7.752 -0.0053 -0.1514  0.1341
  115POPC   C3B 1812   6.802   7.716   7.417  0.2063 -0.0849 -0.2617
  115POPC   C4B 1813   6.828   7.375   7.093 -0.0563 -0.0047 -0.0552
  116POPC   NC3 1814   3.919   1.570   8.388 -0.0639 -0.3551 -0.1046
  116POPC   PO4 1815   4.051   1.361   8.006 -0.2252  0.1745 -0.3618
  116POPC   GL1 1816   4.155   1.624   7.590  0.3389 -0.1814 -0.1411
  116POPC   GL2 1817   4.014   1.956   7.546 -0.0123  0.1125  0.1485
  116POPC   C1A 1818   4.169   1.747   7.069 -0.2725  0.0350 -0.3472
  116POPC   D2A 1819   4.048   2.025   6.830  0.2073  0.0249 -0.2672
  116POPC   C3A 1820   4.393   2.029   6.468 -0.0162  0.1067  0.4781
  116POPC   C4A 1821   4.941   2.051   6.436  0.2916  0.0852  0.2971
  116POPC   C1B 1822   3.710   1.864   7.183 -0.0283 -0.2948  0.0934
  116POPC   C2B 1823   3.605   1.781   6.809  0.1431  0.0403  0.1044
  116POPC   C3B 1824   3.291   1.741   6.474  0.2315 -0.2377 -0.1152
  116POPC   C4B 1825   2.814   1.817   6.485 -0.0371 -0.1421 -0.1835
  117POPC   NC3 1826   8.155   3.822   9.757  0.2384 -0.0933  0.3477
  117POPC   PO4 1827   8.213   3.745   9.266 -0.2113  0.1063 -0.1016
  117POPC   GL1 1828   8.409   3.821   8.869  0.0400 -0.0752 -0.0151
  117POPC   GL2 1829   8.439   4.183   8.935  0.0532 -0.2652  0.3628
  117POPC   C1A 1830   8.713   3.907   8.559 -0.3352  0.1167  0.1865
  117POPC   D2A 1831   8.768   4.107   8.215  0.1002 -0.0956 -0.1783
  117POPC   C3A 1832   8.583   4.223   7.866 -0.3899  0.0490 -0.2563
  117POPC   C4A 1833   8.598   4.417   7.370  0.1731  0.0420 -0.1508
  117POPC   C1B 1834   8.464   4.404   8.540  0.0977 -0.1298  0.0112
  117POPC   C2B 1835   8.549   4.662   8.208  0.0008 -0.0176 -0.0706
  117POPC   C3B 1836   8.650   4.708   7.850 -0.1936  0.0935  0.2574
  117POPC   C4B 1837   8.648   4.866   7.449 -0.3129  0.0897  0.0822
  118POPC   NC3 1838   0.608   0.788   8.332  0.1852  0.1204 -0.1364
  118POPC   PO4 1839   0.737   1.192   8.340 -0.0796 -0.1487 -0.2193
  118POPC   GL1 1840   0.622   1.440   7.995 -0.0606  0.1246 -0.0057
  118POPC   GL2 1841   0.940   1.420   7.853 -0.1061  0.3842  0.1251
  118POPC   C1A 1842   0.601   1.686   7.481 -0.2171  0.0551  0.3105
  118POPC   D2A 1843   0.524   2.163   7.390 -0.2308  0.1385  0.0167
  118POPC   C3A 1844   0.212   2.308   7.182 -0.1835  0.0448  0.2070
  118POPC   C4A 1845   0.007   2.188   6.858  0.3989  0.1792  0.0184
  118POPC   C1B 1846   1.067   1.347   7.454 -0.0379 -0.0647 -0.1954
  118POPC   C2B 1847   0.971   1.139   7.129  0.1081  0.1027 -0.0012
  118POPC   C3B 1848   0.671   0.996   6.791 -0.1399  0.2200 -0.1091
  118POPC   C4B 1849   0.372   1.013   6.574 -0.0673  0.2688 -0.1287
  119POPC   NC3 1850   2.879   6.366   8.475  0.0490 -0.1664 -0.0400
  119POPC   PO4 1851   3.092   6.345   8.070  0.0539 -0.0054 -0.0127
  119POPC   GL1 1852   3.354   6.276   7.789  0.2334 -0.1112 -0.3001
  119POPC   GL2 1853   3.718   6.490   7.657  0.1655  0.1323  0.1813
  119POPC   C1A 1854   3.377   6.085   7.420 -0.2329  0.1585 -0.1520
  119POPC   D2A 1855   3.320   5.719   7.063 -0.1506 -0.1103  0.1436
  119POPC   C3A 1856   3.484   5.400   7.152  0.0784 -0.0158  0.2769
  119POPC   C4A 1857   3.769   4.979   6.998  0.0705  0.1270 -0.2325
  119POPC   C1B 1858   3.987   6.307   7.354  0.1346  0.0600  0.1920
  119POPC   C2B 1859   4.135   6.488   6.960 -0.0176 -0.0218  0.2871
  119POPC   C3B 1860   4.119   6.843   6.766  0.3862  0.0043  0.2409
  119POPC   C4B 1861   3.791   7.114   6.569 -0.3024  0.0627 -0.1365
  120POPC   NC3 1862   5.134   5.029   8.465 -0.1810  0.1421 -0.1516
  120POPC   PO4 1863   4.759   5.081   8.178  0.3049 -0.1649  0.0994
  120POPC   GL1 1864   4.802   5.252   7.801  0.1672 -0.0266 -0.0008
  120POPC   GL2 1865   4.883   5.070   7.564 -0.0085  0.2451 -0.1149
  120POPC   C1A 1866   4.440   5.317   7.547  0.1156  0.0669 -0.2363
  120POPC   D2A 1867   4.456   5.508   7.152 -0.0867  0.1529 -0.1449
  120POPC   C3A 1868   4.452   5.483   6.675  0.3449  0.0396  0.3047
  120POPC   C4A 1869   4.131   5.374   6.334 -0.1392 -0.0145 -0.2124
  120POPC   C1B 1870   4.858   4.767   7.159 -0.2243  0.2182  0.0441
  120POPC   C2B 1871   4.905   4.581   6.861  0.0526 -0.1023 -0.2896
  120POPC   C3B 1872   4.886   4.143   6.775  0.0369  0.4472  0.0549
  120POPC   C4B 1873   5.086   3.791   6.540 -0.4836  0.0192 -0.1499
  121POPC   NC3 1874   8.178   5.706   9.651  0.3895 -0.1700  0.0065
  121POPC   PO4 1875   7.925   5.543   9.412 -0.3711 -0.0053 -0.0096
  121POPC   GL1 1876   7.762   5.827   9.261  0.1958 -0.1328 -0.0539
  121POPC   GL2 1877   7.905   6.181   9.329  0.0645 -0.1498 -0.3644
  121POPC   C1A 1878   7.715   6.053   8.879  0.0490 -0.1433 -0.0650
  121POPC   D2A 1879   7.779   6.518   8.941  0.0468  0.0194  0.0444
  121POPC   C3A 1880   7.984   6.784   8.946 -0.1379 -0.3320  0.1866
  121POPC   C4A 1881   8.063   7.115   9.129 -0.0080 -0.0862 -0.0576
  121POPC   C1B 1882   8.203   6.327   9.065  0.0098  0.1443 -0.0295
  121POPC   C2B 1883   8.530   6.376   8.912 -0.0900 -0.1561  0.1191
  121POPC   C3B 1884   8.894   6.426   8.741 -0.2029  0.0961 -0.1459
  121POPC   C4B 1885   9.236   6.661   8.652 -0.1606  0.0401 -0.1145
  122POPC   NC3 1886   6.150   2.119   8.191 -0.1920  0.1381  0.0624
  122POPC   PO4 1887   6.227   2.500   8.097 -0.2624  0.0547  0.2095
  122POPC   GL1 1888   6.574   2.543   7.779  0.2544 -0.0199 -0.1470
  122POPC   GL2 1889   6.735   2.235   7.603  0.1185  0.0820 -0.0528
  122POPC   C1A 1890   6.695   2.691   7.321  0.0098 -0.0797  0.0826
  122POPC   D2A 1891   6.701   2.778   6.847  0.2762  0.2400 -0.0489
  122POPC   C3A 1892   6.962   3.156   6.640  0.2348 -0.0394 -0.0563
  122POPC   C4A 1893   6.776   3.373   6.296  0.1011 -0.0929  0.3306
  122POPC   C1B 1894   6.813   2.294   7.082  0.2533  0.3543 -0.0653
  122POPC   C2B 1895   7.178   2.047   6.803 -0.3076  0.1022 -0.1183
  122POPC   C3B 1896   7.534   1.974   6.497  0.0707  0.0761  0.1802
  122POPC   C4B 1897   7.695   1.717   6.136 -0.0999 -0.1072 -0.1119
  123POPC   NC3 1898   4.650   6.673   8.121 -0.1557 -0.0521  0.0699
  123POPC   PO4 1899   4.814   6.289   8.280 -0.1464 -0.1738 -0.1136
  123POPC   GL1 1900   4.890   6.222   7.869  0.4889  0.1030 -0.3908
  123POPC   GL2 1901   5.153   6.153   7.898 -0.1366 -0.0962  0.0670
  123POPC   C1A 1902   4.826   6.283   7.430 -0.1950 -0.0377 -0.2428
  123POPC   D2A 1903   5.015   6.238   7.128 -0.0163 -0.1494 -0.2236
  123POPC   C3A 1904   4.832   6.490   6.778  0.0655  0.0235  0.1596
  123POPC   C4A 1905   4.842   6.667   6.419 -0.2955 -0.0450 -0.2285
  123POPC   C1B 1906   5.332   6.120   7.468 -0.3006 -0.0359 -0.1659
  123POPC   C2B 1907   5.620   6.046   7.164 -0.0428  0.2609  0.1891
  123POPC   C3B 1908   6.062   5.856   7.226 -0.1065 -0.3849 -0.1189
  123POPC   C4B 1909   6.165   5.664   7.524  0.0553  0.3147 -0.0410
  124POPC   NC3 1910   5.232   5.514   8.185 -0.0756 -0.1262 -0.0678
  124POPC   PO4 1911   4.825   5.788   8.095  0.1234 -0.2599 -0.2933
  124POPC   GL1 1912   4.661   5.798   7.685 -0.1755 -0.1655  0.1063
  124POPC   GL2 1913   4.414   6.020   7.530  0.0100 -0.0826 -0.3898
  124POPC   C1A 1914   4.886   5.820   7.358 -0.0106  0.3524 -0.0323
  124POPC   D2A 1915   5.243   5.780   7.065  0.0907 -0.1271  0.0496
  124POPC   C3A 1916   5.652   5.528   7.139 -0.2156  0.0371 -0.1006
  124POPC   C4A 1917   5.769   5.315   7.472  0.0035  0.3836  0.0583
  124POPC   C1B 1918   4.469   6.093   7.048 -0.2080  0.1199 -0.1098
  124POPC   C2B 1919   4.744   6.001   6.752  0.0482 -0.0754  0.0655
  124POPC   C3B 1920   4.984   5.546   6.642  0.0012  0.3186  0.0146
  124POPC   C4B 1921   5.262   5.384   6.289 -0.0211 -0.0539  0.0152
  125POPC   NC3 1922   3.532   1.405   8.010  0.1523 -0.2989 -0.1410
  125POPC   PO4 1923   3.682   1.814   7.885  0.0894 -0.0911 -0.1784
  125POPC   GL1 1924   3.461   2.054   7.591 -0.1774 -0.1421 -0.3892
  125POPC   GL2 1925   3.538   2.356   7.439 -0.2347 -0.0362 -0.1957
  125POPC   C1A 1926   3.021   2.084   7.429  0.0130  0.1033  0.1836
  125POPC   D2A 1927   2.718   1.616   7.362 -0.0956  0.1801  0.1879
  125POPC   C3A 1928   2.257   1.596   7.146 -0.1397 -0.1765  0.3493
  125POPC   C4A 1929   2.268   1.721   6.696  0.1206 -0.3534  0.1608
  125POPC   C1B 1930   3.228   2.552   7.312  0.3483 -0.3547  0.2442
  125POPC   C2B 1931   2.941   2.828   7.069  0.0647  0.2529 -0.1581
  125POPC   C3B 1932   2.808   2.974   6.578 -0.0459  0.3378 -0.0249
  125POPC   C4B 1933   2.540   2.836   6.330 -0.1306 -0.3217 -0.0797
  126POPC   NC3 1934   0.531   5.345   8.993  0.0223  0.2261 -0.1512
  126POPC   PO4 1935   0.682   5.077   8.692  0.0062 -0.0306 -0.0383
  126POPC   GL1 1936   0.377   5.217   8.484  0.1875  0.1584 -0.2413
  126POPC   GL2 1937   0.373   5.035   8.257  0.1730 -0.0961 -0.3772
  126POPC   C1A 1938   0.145   5.541   8.157 -0.0174  0.0044 -0.0157
  126POPC   D2A 1939  -0.064   5.539   7.783  0.0547  0.1002 -0.1115
  126POPC   C3A 1940  -0.119   5.932   7.493  0.3475 -0.1049  0.2194
  126POPC   C4A 1941  -0.432   6.294   7.257 -0.1959  0.0365 -0.0215
  126POPC   C1B 1942   0.380   5.232   7.867  0.2552 -0.0636  0.3163
  126POPC   C2B 1943   0.262   5.300   7.445  0.1420  0.2806 -0.3736
  126POPC   C3B 1944   0.080   5.290   7.069  0.1648 -0.2794  0.0839
  126POPC   C4B 1945   0.040   4.936   6.794  0.2723 -0.1486  0.1757
  127POPC   NC3 1946   8.575   0.704   8.828  0.1847  0.0095  0.2415
  127POPC   PO4 1947   8.702   0.436   8.382 -0.0099  0.4176 -0.0478
  127POPC   GL1 1948   8.716   0.724   8.037 -0.0287  0.1060  0.1076
  127POPC   GL2 1949   8.638   0.475   7.821  0.1054  0.1411 -0.2315
  127POPC   C1A 1950   8.604   0.944   7.671 -0.0132  0.0784 -0.2399
  127POPC   D2A 1951   8.671   1.046   7.280  0.2171  0.1787 -0.1416
  127POPC   C3A 1952   8.794   1.436   7.051  0.0507  0.1124  0.0210
  127POPC   C4A 1953   9.111   1.690   7.043  0.4467 -0.1960 -0.0397
  127POPC   C1B 1954   8.551   0.346   7.445  0.1031  0.1013 -0.1515
  127POPC   C2B 1955   8.813   0.136   7.154  0.1383  0.3893 -0.2114
  127POPC   C3B 1956   8.904  -0.226   7.004 -0.3202 -0.0988  0.0225
  127POPC   C4B 1957   8.818  -0.614   6.769 -0.0473 -0.1688  0.1015
  128POPC   NC3 1958   7.486   1.570   8.806 -0.3216  0.1359 -0.2496
  128POPC   PO4 1959   7.881   1.540   8.972  0.0314 -0.1943  0.1955
  128POPC   GL1 1960   7.992   1.674   8.575  0.2456  0.2460  0.0787
  128POPC   GL2 1961   7.777   1.749   8.337  0.1768  0.0488 -0.0517
  128POPC   C1A 1962   8.230   1.590   8.211 -0.3153 -0.0313 -0.0708
  128POPC   D2A 1963   8.592   1.643   7.855 -0.1088 -0.1223  0.2750
  128POPC   C3A 1964   8.544   1.807   7.387  0.3510  0.1334  0.1659
  128POPC   C4A 1965   8.590   2.256   7.152  0.2021  0.1368 -0.1846
  128POPC   C1B 1966   7.768   1.425   8.083  0.1010 -0.1099  0.0254
  128POPC   C2B 1967   7.852   1.168   7.696  0.1256  0.2127 -0.3300
  128POPC   C3B 1968   7.782   0.860   7.461  0.0259  0.0136 -0.0855
  128POPC   C4B 1969   7.572   0.751   7.129 -0.0194 -0.1749 -0.1086
  129POPC   NC3 1970   5.728   8.084   8.797 -0.0534  0.1969 -0.1181
  129POPC   PO4 1971   5.849   8.287   8.422 -0.0455  0.2471 -0.2062
  129POPC   GL1 1972   5.881   8.546   8.112 -0.0379  0.0744 -0.0398
  129POPC   GL2 1973   5.553   8.580   8.009  0.2058  0.0066  0.0929
  129POPC   C1A 1974   5.877   8.745   7.615  0.2076  0.1651  0.0735
  129POPC   D2A 1975   5.771   9.035   7.256  0.1469 -0.0868 -0.3048
  129POPC   C3A 1976   5.699   9.377   6.975  0.1746  0.2472  0.1738
  129POPC   C4A 1977   5.864   9.750   6.773 -0.0515  0.1399 -0.1127
  129POPC   C1B 1978   5.457   8.476   7.521 -0.1342  0.3697  0.1480
  129POPC   C2B 1979   5.768   8.553   7.168 -0.0647  0.0160  0.2103
  129POPC   C3B 1980   6.054   8.712   6.875 -0.1599 -0.1230 -0.3938
  129POPC   C4B 1981   6.402   8.986   6.978 -0.5090  0.3364  0.0034
  130POPC   NC3 1982   2.835   7.795   8.605 -0.0608  0.0539 -0.1872
  130POPC   PO4 1983   2.584   8.039   8.300  0.1526  0.0395  0.1795
  130POPC   GL1 1984   2.623   8.022   7.833  0.1029 -0.1067 -0.0833
  130POPC   GL2 1985   2.776   7.649   7.605 -0.2330  0.0358 -0.4571
  130POPC   C1A 1986   2.446   7.992   7.449 -0.2480 -0.1561 -0.2552
  130POPC   D2A 1987   2.504   7.909   7.057  0.0576 -0.0881  0.2897
  130POPC   C3A 1988   2.061   7.900   6.898  0.2479  0.0036  0.0372
  130POPC   C4A 1989   1.879   7.604   6.627  0.2042 -0.1585  0.0211
  130POPC   C1B 1990   2.965   7.805   7.213 -0.1281 -0.2633  0.0583
  130POPC   C2B 1991   2.897   8.149   6.932 -0.1210  0.0285 -0.0377
  130POPC   C3B 1992   2.916   8.235   6.562  0.1024  0.0702 -0.0547
  130POPC   C4B 1993   2.732   8.123   6.205  0.3728 -0.0833  0.0126
  131POPC   NC3 1994   5.233   8.801   8.342  0.3730  0.4286 -0.1216
  131POPC   PO4 1995   5.013   8.410   8.491 -0.2268 -0.0104  0.0820
  131POPC   GL1 1996   4.900   8.417   8.045  0.0738  0.1396  0.2186
  131POPC   GL2 1997   4.682   8.216   7.908 -0.3994  0.2030 -0.2083
  131POPC   C1A 1998   4.926   8.593   7.623  0.0007  0.2902  0.3515
  131POPC   D2A 1999   5.212   8.913   7.402  0.1668 -0.1556 -0.1146
  131POPC   C3A 2000   5.351   8.762   7.030 -0.2504 -0.1132  0.1205
  131POPC   C4A 2001   5.595   8.994   6.691  0.3821  0.5068  0.0930
  131POPC   C1B 2002   4.695   8.019   7.570  0.0684 -0.1217  0.0913
  131POPC   C2B 2003   4.776   7.827   7.197  0.1482 -0.0597 -0.0148
  131POPC   C3B 2004   5.122   7.620   7.001 -0.0578 -0.0912  0.0229
  131POPC   C4B 2005   5.358   7.431   6.666  0.1331  0.3696 -0.0632
  132POPC   NC3 2006   3.760   5.817   8.749 -0.2439 -0.3449  0.0127
  132POPC   PO4 2007   3.357   5.672   8.635 -0.0639  0.1044 -0.0951
  132POPC   GL1 2008   3.069   5.363   8.370 -0.0210 -0.4414 -0.0555
  132POPC   GL2 2009   3.292   5.261   8.240  0.2307  0.3232 -0.3222
  132POPC   C1A 2010   2.873   5.478   7.870  0.1024  0.0958 -0.2253
  132POPC   D2A 2011   2.634   5.500   7.441  0.2089  0.0457  0.2486
  132POPC   C3A 2012   2.817   5.476   7.155 -0.1982  0.0110  0.1764
  132POPC   C4A 2013   3.144   5.347   6.799 -0.0144  0.2235  0.2829
  132POPC   C1B 2014   3.334   5.287   7.893  0.0185 -0.0756 -0.2846
  132POPC   C2B 2015   3.140   5.234   7.489  0.1649 -0.0418  0.2390
  132POPC   C3B 2016   2.917   4.960   7.108 -0.0951 -0.2343  0.1997
  132POPC   C4B 2017   2.622   4.741   6.968  0.1716  0.1212 -0.2468
  133POPC   NC3 2018   1.459   5.862   9.038  0.1892 -0.0086  0.0633
  133POPC   PO4 2019   1.816   5.564   8.977 -0.1129  0.2266  0.1571
  133POPC   GL1 2020   1.536   5.623   8.636  0.1128 -0.3469  0.1098
  133POPC   GL2 2021   1.314   5.897   8.510 -0.1766  0.0688 -0.1524
  133POPC   C1A 2022   1.596   5.499   8.184  0.0512  0.2194 -0.2005
  133POPC   D2A 2023   1.823   5.127   7.888 -0.0893 -0.0547 -0.1305
  133POPC   C3A 2024   1.988   4.717   8.028 -0.1967  0.0973 -0.2897
  133POPC   C4A 2025   2.171   4.263   7.908 -0.1547  0.1311 -0.1097
  133POPC   C1B 2026   1.176   5.755   8.123  0.2794 -0.1523 -0.0157
  133POPC   C2B 2027   0.911   5.882   7.743 -0.4152  0.0440  0.0314
  133POPC   C3B 2028   0.556   5.694   7.568  0.0174  0.1574 -0.0194
  133POPC   C4B 2029   0.572   5.493   7.115  0.1607 -0.2619 -0.2120
  134POPC   NC3 2030   8.566   6.824  10.134 -0.1804  0.0230 -0.3851
  134POPC   PO4 2031   8.787   6.862   9.707 -0.0209 -0.0638 -0.0752
  134POPC   GL1 2032   8.811   7.125   9.372  0.0479 -0.0645 -0.0660
  134POPC   GL2 2033   9.059   7.200   9.163 -0.0269  0.1017  0.1360
  134POPC   C1A 2034   8.540   7.355   9.187 -0.0362  0.0331  0.0699
  134POPC   D2A 2035   8.397   7.780   8.985  0.1534 -0.0572 -0.2196
  134POPC   C3A 2036   7.951   7.731   8.886 -0.0544  0.1560  0.3127
  134POPC   C4A 2037   7.807   7.813   8.531 -0.1054 -0.3406 -0.1510
  134POPC   C1B 2038   9.074   7.096   8.712 -0.3661 -0.0864  0.1081
  134POPC   C2B 2039   9.081   7.280   8.328  0.1308 -0.1593  0.0595
  134POPC   C3B 2040   9.061   7.520   7.892  0.1915  0.0573  0.0072
  134POPC   C4B 2041   9.062   7.772   7.475  0.3330 -0.0810 -0.1314
  135POPC   NC3 2042   5.243   6.474   8.424 -0.1756  0.1421  0.2646
  135POPC   PO4 2043   5.574   6.723   8.369  0.1484 -0.0808 -0.3155
  135POPC   GL1 2044   5.721   6.870   8.040 -0.3098 -0.1964 -0.0805
  135POPC   GL2 2045   5.580   6.560   7.845  0.0209  0.1691 -0.1300
  135POPC   C1A 2046   5.722   6.938   7.593  0.0200  0.0951  0.1078
  135POPC   D2A 2047   5.902   6.922   7.205 -0.0500 -0.0278 -0.2027
  135POPC   C3A 2048   5.611   7.044   6.915  0.4205 -0.0859  0.2385
  135POPC   C4A 2049   5.665   7.022   6.462 -0.0497 -0.0902  0.1296
  135POPC   C1B 2050   5.354   6.613   7.484  0.0973  0.0253 -0.0764
  135POPC   C2B 2051   5.414   6.613   7.104 -0.0219  0.0937  0.2843
  135POPC   C3B 2052   5.386   6.273   6.712  0.0842 -0.4890 -0.3578
  135POPC   C4B 2053   5.170   6.111   6.311  0.0699  0.0289 -0.0513
  136POPC   NC3 2054   2.898   8.791   8.338  0.1357 -0.0035 -0.1394
  136POPC   PO4 2055   3.110   8.871   7.979 -0.0919  0.0478  0.0458
  136POPC   GL1 2056   3.288   8.972   7.529  0.0328  0.0878  0.0392
  136POPC   GL2 2057   3.365   8.735   7.442  0.1734  0.2506  0.2116
  136POPC   C1A 2058   3.397   9.008   7.069 -0.0642 -0.0853  0.1485
  136POPC   D2A 2059   3.277   8.988   6.707 -0.1580 -0.2096 -0.4082
  136POPC   C3A 2060   3.570   9.232   6.508 -0.0275 -0.0284  0.1949
  136POPC   C4A 2061   3.645   9.167   6.038 -0.1254 -0.0843  0.2661
  136POPC   C1B 2062   3.041   8.606   7.076  0.0888 -0.2099 -0.0032
  136POPC   C2B 2063   2.842   8.689   6.707  0.0861  0.1438 -0.0888
  136POPC   C3B 2064   2.900   8.974   6.412  0.0427 -0.0074 -0.1330
  136POPC   C4B 2065   3.175   9.093   6.068  0.0180  0.0595 -0.1446
  137POPC   NC3 2066   9.348   2.266   8.576 -0.2154  0.1145 -0.3934
  137POPC   PO4 2067   8.799   2.573   8.638  0.0952 -0.0115  0.0042
  137POPC   GL1 2068   8.805   2.664   8.238  0.1092  0.0760  0.1848
  137POPC   GL2 2069   8.345   2.631   8.148 -0.1461 -0.1742  0.1756
  137POPC   C1A 2070   8.737   2.709   7.812 -0.3356 -0.3358 -0.1701
  137POPC   D2A 2071   9.179   2.797   7.556  0.1874  0.2569 -0.3522
  137POPC   C3A 2072   9.208   2.747   7.126 -0.2184 -0.0296 -0.1541
  137POPC   C4A 2073   9.215   2.871   6.650 -0.0590  0.0888  0.1188
  137POPC   C1B 2074   8.232   2.620   7.742  0.4574  0.0256  0.0035
  137POPC   C2B 2075   8.395   2.536   7.489  0.0865 -0.0306  0.1063
  137POPC   C3B 2076   8.665   2.857   7.184  0.2548  0.1266 -0.2493
  137POPC   C4B 2077   8.928   3.174   7.209  0.4018 -0.1044 -0.0944
  138POPC   NC3 2078   4.776   9.442   8.037 -0.0179 -0.4794  0.4957
  138POPC   PO4 2079   4.618   9.055   8.118 -0.0534 -0.0780  0.3136
  138POPC   GL1 2080   4.690   8.992   7.664  0.3026 -0.0242  0.3792
  138POPC   GL2 2081   4.909   9.282   7.585  0.0074 -0.2641  0.0873
  138POPC   C1A 2082   4.815   8.949   7.141  0.2382  0.0818  0.3797
  138POPC   D2A 2083   4.857   8.981   6.713 -0.4059  0.2107 -0.3155
  138POPC   C3A 2084   4.599   8.942   6.426  0.1262  0.1991 -0.0568
  138POPC   C4A 2085   4.481   8.854   6.031  0.2375 -0.1047  0.1259
  138POPC   C1B 2086   4.653   9.445   7.338 -0.0537 -0.0354  0.2755
  138POPC   C2B 2087   4.848   9.531   6.975  0.1518 -0.3400 -0.2057
  138POPC   C3B 2088   4.656   9.466   6.574  0.0339 -0.0463 -0.0218
  138POPC   C4B 2089   4.572   9.409   6.143  0.3185  0.0515  0.1841
  139POPC   NC3 2090   6.559   1.861   8.496  0.1317  0.0644  0.0055
  139POPC   PO4 2091   6.555   1.920   8.016  0.0431 -0.0323  0.1222
  139POPC   GL1 2092   6.268   1.999   7.727  0.2043 -0.1883  0.0817
  139POPC   GL2 2093   6.046   1.840   7.441  0.0675  0.0182  0.1388
  139POPC   C1A 2094   6.340   2.191   7.267  0.0211  0.1874 -0.1756
  139POPC   D2A 2095   6.233   2.676   7.251  0.2397  0.0234 -0.0551
  139POPC   C3A 2096   6.079   2.807   6.845  0.1382 -0.0630  0.2485
  139POPC   C4A 2097   5.917   3.003   6.535  0.0226 -0.1065 -0.1161
  139POPC   C1B 2098   5.806   1.904   7.199  0.4144 -0.0088 -0.1414
  139POPC   C2B 2099   5.416   1.742   7.100  0.0425  0.2193  0.1306
  139POPC   C3B 2100   5.167   1.524   6.722 -0.2692 -0.3108  0.1147
  139POPC   C4B 2101   4.989   1.170   6.679 -0.1436  0.1835 -0.2134
  140POPC   NC3 2102   4.448   6.106   8.038  0.4042 -0.0232 -0.2588
  140POPC   PO4 2103   4.102   5.973   8.313  0.2004 -0.2823  0.1522
  140POPC   GL1 2104   3.789   5.798   7.844  0.0728 -0.0346 -0.3094
  140POPC   GL2 2105   4.083   5.707   7.632  0.3394 -0.1371 -0.0058
  140POPC   C1A 2106   3.382   5.762   7.740  0.2330 -0.1375  0.1792
  140POPC   D2A 2107   3.031   5.759   7.493 -0.2344  0.2771 -0.0319
  140POPC   C3A 2108   2.905   6.103   7.215  0.0522  0.1390 -0.2040
  140POPC   C4A 2109   2.848   5.856   6.816  0.0385 -0.2033 -0.4433
  140POPC   C1B 2110   3.856   5.838   7.318  0.1863  0.1342 -0.2679
  140POPC   C2B 2111   3.707   6.045   6.909 -0.1226 -0.1320 -0.1581
  140POPC   C3B 2112   3.283   6.271   6.851  0.1070  0.1410  0.0476
  140POPC   C4B 2113   3.011   6.506   6.573 -0.0607 -0.0070 -0.4217
  141POPC   NC3 2114   0.713   8.268   9.189  0.0804  0.1620  0.2231
  141POPC   PO4 2115   0.624   8.579   8.824  0.3129  0.0966 -0.3908
  141POPC   GL1 2116   0.376   8.265   8.719 -0.1382  0.0673 -0.1275
  141POPC   GL2 2117   0.249   8.344   8.499  0.2553  0.1984 -0.1275
  141POPC   C1A 2118   0.527   7.932   8.439  0.0658 -0.3536 -0.0248
  141POPC   D2A 2119   0.623   7.576   8.357  0.2876 -0.3057 -0.0330
  141POPC   C3A 2120   0.995   7.342   8.111  0.1189 -0.2410 -0.0188
  141POPC   C4A 2121   1.134   6.935   8.147  0.1305  0.1471 -0.0098
  141POPC   C1B 2122   0.351   8.254   8.064  0.0452 -0.0590  0.0866
  141POPC   C2B 2123   0.626   8.463   7.690  0.0702 -0.0037 -0.1557
  141POPC   C3B 2124   0.634   8.589   7.335  0.0563 -0.0502 -0.1316
  141POPC   C4B 2125   0.394   8.776   7.097  0.4078 -0.3420 -0.0089
  142POPC   NC3 2126   8.928   8.427   9.336 -0.2628 -0.3159 -0.5158
  142POPC   PO4 2127   8.826   8.503   8.984 -0.2986 -0.1940  0.1123
  142POPC   GL1 2128   8.892   8.513   8.602 -0.3094  0.0057  0.2440
  142POPC   GL2 2129   8.753   8.815   8.353 -0.0182  0.2218 -0.3928
  142POPC   C1A 2130   9.181   8.418   8.340  0.1901 -0.1948 -0.1842
  142POPC   D2A 2131   9.538   8.318   8.188 -0.1859  0.2573 -0.0683
  142POPC   C3A 2132   9.506   8.130   7.791  0.0357 -0.0099 -0.0414
  142POPC   C4A 2133   9.694   8.229   7.467  0.0537 -0.0895  0.0488
  142POPC   C1B 2134   8.660   9.064   7.983  0.0611  0.1270 -0.1395
  142POPC   C2B 2135   8.695   8.828   7.619  0.0518  0.0448  0.0632
  142POPC   C3B 2136   8.652   8.936   7.146 -0.3548  0.0140 -0.0300
  142POPC   C4B 2137   8.727   8.708   6.871 -0.0242  0.0435 -0.1676
  143POPC   NC3 2138   1.044   8.687   8.664 -0.2061  0.1254 -0.0486
  143POPC   PO4 2139   1.461   8.746   8.542  0.1729  0.4258 -0.2892
  143POPC   GL1 2140   1.136   8.406   8.269  0.2810  0.1993 -0.1286
  143POPC   GL2 2141   1.159   8.458   7.964  0.2632 -0.2547  0.1741
  143POPC   C1A 2142   0.850   8.075   8.101 -0.2848 -0.0110 -0.0374
  143POPC   D2A 2143   0.657   7.784   7.900  0.1510  0.1686  0.3477
  143POPC   C3A 2144   0.739   8.000   7.543  0.1359  0.1910  0.3412
  143POPC   C4A 2145   0.929   8.168   7.161 -0.2105 -0.1509  0.1304
  143POPC   C1B 2146   1.148   8.374   7.588  0.2955  0.2477  0.0141
  143POPC   C2B 2147   1.333   8.425   7.110  0.0442  0.1566  0.2071
  143POPC   C3B 2148   1.336   8.781   6.708  0.1592  0.1135  0.0927
  143POPC   C4B 2149   1.592   8.875   6.399  0.2240  0.2890 -0.1355
  144POPC   NC3 2150   4.240   0.980   8.191  0.3954  0.0810 -0.0626
  144POPC   PO4 2151   3.926   0.599   8.186  0.3153  0.2039  0.0291
  144POPC   GL1 2152   3.794   0.379   7.758  0.2094 -0.2358  0.0151
  144POPC   GL2 2153   3.510   0.523   7.785 -0.0518 -0.0234 -0.1751
  144POPC   C1A 2154   3.704   0.404   7.314  0.0567  0.0926 -0.2274
  144POPC   D2A 2155   3.658   0.407   6.866  0.1570  0.2107  0.1471
  144POPC   C3A 2156   3.424   0.763   6.903  0.0119 -0.0953 -0.3500
  144POPC   C4A 2157   3.231   1.259   6.810 -0.1542  0.0612 -0.1472
  144POPC   C1B 2158   3.400   0.756   7.426  0.2916 -0.2515 -0.1771
  144POPC   C2B 2159   3.609   1.126   7.137 -0.0754  0.2911 -0.0208
  144POPC   C3B 2160   3.709   1.277   6.755 -0.0877  0.0885  0.2892
  144POPC   C4B 2161   3.483   1.181   6.400 -0.0273  0.0576  0.0599
  145POPC   NC3 2162   1.223   1.303   8.314  0.1845  0.0137 -0.2286
  145POPC   PO4 2163   1.030   1.667   8.310 -0.1926  0.3005  0.0673
  145POPC   GL1 2164   1.132   1.846   7.865  0.3085  0.0008  0.1741
  145POPC   GL2 2165   1.422   2.012   7.838 -0.4651 -0.1066 -0.2181
  145POPC   C1A 2166   1.075   1.832   7.480 -0.1750 -0.2360  0.1837
  145POPC   D2A 2167   1.111   1.671   7.005 -0.2416  0.1834  0.0886
  145POPC   C3A 2168   0.889   1.407   6.734  0.6100  0.1354 -0.3928
  145POPC   C4A 2169   0.516   1.519   6.487 -0.0890  0.0722  0.4087
  145POPC   C1B 2170   1.421   2.318   7.557  0.2867  0.1236  0.0837
  145POPC   C2B 2171   1.417   2.282   7.129  0.0900 -0.1112  0.2195
  145POPC   C3B 2172   1.500   2.261   6.742 -0.0728  0.3134 -0.2387
  145POPC   C4B 2173   1.367   1.991   6.551  0.2829  0.1524  0.1215
  146POPC   NC3 2174   0.276   3.299   8.818 -0.5485  0.0654  0.0357
  146POPC   PO4 2175  -0.239   3.512   8.668  0.0720 -0.1888 -0.2566
  146POPC   GL1 2176  -0.243   3.674   8.224  0.2896  0.0469  0.0497
  146POPC   GL2 2177  -0.252   3.938   8.032  0.0969 -0.1806 -0.0213
  146POPC   C1A 2178  -0.412   3.421   7.885 -0.0916 -0.0107  0.2944
  146POPC   D2A 2179  -0.696   3.413   7.469  0.1301 -0.1017  0.1600
  146POPC   C3A 2180  -0.698   3.733   7.180  0.1683  0.1896  0.0303
  146POPC   C4A 2181  -0.668   3.927   6.826  0.4502 -0.0295  0.1396
  146POPC   C1B 2182  -0.321   3.908   7.621 -0.0766  0.2528 -0.1765
  146POPC   C2B 2183  -0.423   4.176   7.263  0.3018 -0.0310  0.0423
  146POPC   C3B 2184  -0.486   4.520   6.907 -0.0319 -0.0784 -0.1718
  146POPC   C4B 2185  -0.437   4.969   6.875  0.0676 -0.0261  0.0046
  147POPC   NC3 2186   8.250   2.590   8.640 -0.0265  0.1584 -0.0335
  147POPC   PO4 2187   8.393   2.174   8.647 -0.0319  0.1129 -0.1313
  147POPC   GL1 2188   8.200   2.097   8.207  0.1325  0.2422  0.1862
  147POPC   GL2 2189   7.946   2.352   8.111  0.2932 -0.1936  0.2376
  147POPC   C1A 2190   8.146   2.115   7.688  0.0380 -0.1302  0.1112
  147POPC   D2A 2191   7.955   2.327   7.270 -0.0448 -0.1402 -0.0726
  147POPC   C3A 2192   8.243   2.484   6.969  0.0700  0.0307  0.0232
  147POPC   C4A 2193   8.565   2.677   6.628  0.0997 -0.0319  0.2827
  147POPC   C1B 2194   7.686   2.407   7.677 -0.1029  0.1881  0.0097
  147POPC   C2B 2195   7.688   2.746   7.387  0.1171  0.1330 -0.0123
  147POPC   C3B 2196   7.827   2.879   6.962 -0.0386  0.2043  0.3963
  147POPC   C4B 2197   8.026   2.746   6.555 -0.1901 -0.2484  0.1519
  148POPC   NC3 2198   9.130   0.252   8.384 -0.0973  0.2130  0.4136
  148POPC   PO4 2199   9.208   0.742   8.360  0.0421 -0.2078  0.1774
  148POPC   GL1 2200   9.121   1.037   7.994  0.2904 -0.3642 -0.0913
  148POPC   GL2 2201   9.040   1.374   8.114 -0.2857 -0.4838 -0.1687
  148POPC   C1A 2202   9.146   0.936   7.597 -0.0427 -0.0102  0.0158
  148POPC   D2A 2203   9.038   0.621   7.377 -0.1017  0.3647  0.1963
  148POPC   C3A 2204   9.240   0.359   7.035  0.0291  0.0237 -0.1367
  148POPC   C4A 2205   9.355   0.533   6.725  0.2131 -0.1140 -0.2128
  148POPC   C1B 2206   8.579   1.208   8.104 -0.4620 -0.1552  0.0775
  148POPC   C2B 2207   8.269   1.287   7.781 -0.3051  0.4336  0.0331
  148POPC   C3B 2208   8.156   1.358   7.339 -0.4171 -0.0145 -0.0322
  148POPC   C4B 2209   8.111   1.547   6.873 -0.1539  0.1351 -0.2620
  149POPC   NC3 2210   5.465   2.777   8.910  0.1232  0.1524 -0.0398
  149POPC   PO4 2211   5.550   2.779   8.394 -0.2047  0.0322  0.1729
  149POPC   GL1 2212   5.546   2.807   7.909 -0.1699 -0.1333 -0.0010
  149POPC   GL2 2213   5.882   2.691   7.768  0.0900  0.0623  0.1011
  149POPC   C1A 2214   5.385   2.752   7.499 -0.2666  0.3202  0.1264
  149POPC   D2A 2215   5.461   2.576   7.109  0.1906  0.2124  0.1121
  149POPC   C3A 2216   5.499   2.247   6.903  0.1647 -0.0469 -0.0926
  149POPC   C4A 2217   5.434   1.954   6.614  0.3847  0.2474 -0.2065
  149POPC   C1B 2218   5.808   2.959   7.319 -0.1265  0.0496  0.3512
  149POPC   C2B 2219   5.801   3.259   7.022  0.1773  0.1405 -0.0597
  149POPC   C3B 2220   5.477   3.363   6.726  0.1486 -0.0086  0.0921
  149POPC   C4B 2221   5.314   3.346   6.279  0.1026 -0.0136  0.3740
  150POPC   NC3 2222   7.488   3.048   4.187  0.0150 -0.3420  0.1630
  150POPC   PO4 2223   7.788   3.006   4.582  0.2710  0.0239  0.1248
  150POPC   GL1 2224   7.824   3.247   5.009  0.1657 -0.0656 -0.1655
  150POPC   GL2 2225   7.621   3.523   4.963 -0.0969  0.1271  0.0370
  150POPC   C1A 2226   8.093   3.306   5.425 -0.1551 -0.0297 -0.1197
  150POPC   D2A 2227   7.965   3.359   5.792  0.2749  0.1983  0.0116
  150POPC   C3A 2228   7.754   3.450   6.221  0.1525 -0.1202 -0.2971
  150POPC   C4A 2229   7.619   3.834   6.437 -0.2179 -0.1347  0.0581
  150POPC   C1B 2230   7.586   3.354   5.462 -0.0676  0.2047 -0.1350
  150POPC   C2B 2231   7.509   3.191   5.860  0.3202  0.0380 -0.3101
  150POPC   C3B 2232   7.280   3.375   6.260  0.2344 -0.4151 -0.0965
  150POPC   C4B 2233   7.149   3.658   6.539  0.1807 -0.0001  0.0587
  151POPC   NC3 2234   8.125   0.028   4.501 -0.1405 -0.2884 -0.0131
  151POPC   PO4 2235   7.802  -0.178   4.364 -0.0838  0.0681 -0.0096
  151POPC   GL1 2236   7.501  -0.049   4.676  0.1223 -0.0176 -0.2084
  151POPC   GL2 2237   7.436  -0.244   4.845  0.0233  0.1035  0.3155
  151POPC   C1A 2238   7.480   0.227   5.096  0.1908  0.0182  0.1520
  151POPC   D2A 2239   7.331   0.216   5.433  0.4070  0.1786 -0.1617
  151POPC   C3A 2240   7.183   0.243   5.867  0.0248  0.0599  0.4669
  151POPC   C4A 2241   6.764   0.335   6.068  0.3089  0.0112  0.1696
  151POPC   C1B 2242   7.235  -0.282   5.264 -0.1119 -0.0193  0.0886
  151POPC   C2B 2243   6.969  -0.300   5.591 -0.1899  0.2214 -0.0034
  151POPC   C3B 2244   6.913  -0.140   6.052 -0.0655  0.1003 -0.0952
  151POPC   C4B 2245   7.161  -0.292   6.545 -0.2151  0.0208 -0.1023
  152POPC   NC3 2246   2.496   6.153   4.315  0.0002  0.5097  0.1151
  152POPC   PO4 2247   2.198   6.399   4.645 -0.0322 -0.2602 -0.0682
  152POPC   GL1 2248   2.131   6.321   4.998  0.0597  0.0313  0.1584
  152POPC   GL2 2249   1.855   6.446   5.135  0.1883 -0.1795  0.0320
  152POPC   C1A 2250   2.196   6.336   5.522  0.2238 -0.3272 -0.0573
  152POPC   D2A 2251   2.245   6.164   5.887  0.1371  0.0232 -0.2939
  152POPC   C3A 2252   2.073   5.860   5.917 -0.5187  0.2791 -0.2707
  152POPC   C4A 2253   2.080   5.468   6.236  0.1792  0.1504 -0.0398
  152POPC   C1B 2254   1.936   6.707   5.492 -0.0645 -0.1323  0.1163
  152POPC   C2B 2255   1.947   6.620   5.944 -0.0326  0.1321 -0.1980
  152POPC   C3B 2256   2.133   6.601   6.231  0.0538  0.0296  0.2626
  152POPC   C4B 2257   2.551   6.701   6.532  0.0094  0.2054 -0.0571
  153POPC   NC3 2258   5.489   9.316   3.912 -0.3255 -0.0347  0.2206
  153POPC   PO4 2259   5.198   9.699   3.985 -0.2893 -0.0064 -0.1036
  153POPC   GL1 2260   5.235   9.398   4.374  0.1740  0.1349 -0.2464
  153POPC   GL2 2261   5.010   9.414   4.601 -0.3134 -0.1628 -0.1419
  153POPC   C1A 2262   5.526   9.117   4.608 -0.3702 -0.1253  0.0074
  153POPC   D2A 2263   5.665   8.699   4.644 -0.1799 -0.0255 -0.1749
  153POPC   C3A 2264   5.696   8.582   5.026 -0.0300 -0.2062  0.0772
  153POPC   C4A 2265   5.814   8.712   5.454  0.0322  0.2007  0.1715
  153POPC   C1B 2266   5.115   9.360   4.962 -0.0793 -0.3052 -0.0680
  153POPC   C2B 2267   5.009   9.108   5.306  0.1445  0.2023  0.1166
  153POPC   C3B 2268   5.192   8.981   5.755 -0.1152  0.0031  0.1380
  153POPC   C4B 2269   5.008   8.717   6.071  0.0010 -0.0676  0.0004
  154POPC   NC3 2270   0.783   8.020   4.406 -0.0367 -0.4002  0.1594
  154POPC   PO4 2271   0.493   8.153   4.651  0.0592 -0.0781  0.1832
  154POPC   GL1 2272   0.264   8.085   4.997 -0.0790 -0.2243  0.1706
  154POPC   GL2 2273   0.434   8.301   5.153  0.3518 -0.1719  0.0548
  154POPC   C1A 2274   0.225   7.956   5.455 -0.3184 -0.1534  0.1325
  154POPC   D2A 2275   0.086   7.880   5.929 -0.4103  0.0580  0.1098
  154POPC   C3A 2276   0.460   7.981   6.061 -0.0943  0.3373 -0.0034
  154POPC   C4A 2277   0.720   8.007   6.494 -0.1314  0.0750 -0.0400
  154POPC   C1B 2278   0.742   8.147   5.478  0.0847 -0.1259  0.2330
  154POPC   C2B 2279   1.086   8.031   5.706 -0.1522  0.2899 -0.2097
  154POPC   C3B 2280   1.120   8.054   6.136  0.0418  0.1301 -0.3143
  154POPC   C4B 2281   0.982   8.547   6.354 -0.1432  0.3313  0.0103
  155POPC   NC3 2282   4.157   8.007   4.663 -0.1339 -0.1395  0.0380
  155POPC   PO4 2283   4.035   7.563   4.711  0.0197  0.3080 -0.0183
  155POPC   GL1 2284   4.112   7.682   5.095  0.3760 -0.1094  0.0610
  155POPC   GL2 2285   3.957   8.000   5.100  0.0340 -0.0725 -0.0681
  155POPC   C1A 2286   4.170   7.496   5.555 -0.0445  0.2057  0.0446
  155POPC   D2A 2287   4.518   7.370   5.955  0.1089  0.2039  0.1613
  155POPC   C3A 2288   4.963   7.456   5.995  0.0812  0.0577 -0.1320
  155POPC   C4A 2289   5.247   7.185   6.231  0.1924  0.1153  0.1280
  155POPC   C1B 2290   3.694   8.214   5.223 -0.2452 -0.2988  0.0076
  155POPC   C2B 2291   3.831   8.541   5.507 -0.0201  0.0078  0.2327
  155POPC   C3B 2292   3.663   8.998   5.559 -0.3131 -0.1572  0.1090
  155POPC   C4B 2293   3.343   9.166   5.640 -0.5380  0.1058  0.2119
  156POPC   NC3 2294   2.853   3.900   4.307  0.2564  0.0169 -0.2916
  156POPC   PO4 2295   2.709   3.521   4.097 -0.0654  0.0763 -0.0048
  156POPC   GL1 2296   2.794   3.422   4.540  0.2588  0.0097  0.0174
  156POPC   GL2 2297   2.979   3.248   4.697  0.1264  0.3578  0.1733
  156POPC   C1A 2298   2.770   3.617   4.948 -0.4142 -0.1092  0.4330
  156POPC   D2A 2299   2.905   3.923   5.208 -0.1752 -0.2187 -0.1119
  156POPC   C3A 2300   2.665   4.235   5.347  0.2054 -0.0476 -0.1650
  156POPC   C4A 2301   2.488   4.643   5.552 -0.0011  0.1629  0.0380
  156POPC   C1B 2302   3.212   3.038   5.074  0.0014  0.0897  0.1224
  156POPC   C2B 2303   3.405   2.756   5.392  0.1459 -0.1769  0.0517
  156POPC   C3B 2304   3.363   2.773   5.830 -0.0443  0.0150  0.2295
  156POPC   C4B 2305   3.117   2.730   6.266 -0.0049 -0.1611  0.0280
  157POPC   NC3 2306   8.754   3.618   3.784  0.0996 -0.2369  0.1060
  157POPC   PO4 2307   8.816   3.558   4.188 -0.0872  0.3374 -0.0656
  157POPC   GL1 2308   8.872   3.860   4.610 -0.2342 -0.0445 -0.1773
  157POPC   GL2 2309   8.528   3.796   4.668  0.1011 -0.0384 -0.2098
  157POPC   C1A 2310   8.853   3.934   5.059  0.2105 -0.3123 -0.0374
  157POPC   D2A 2311   8.761   4.123   5.455 -0.0463  0.2168 -0.0530
  157POPC   C3A 2312   9.022   4.280   5.790 -0.1713 -0.1251 -0.4599
  157POPC   C4A 2313   9.106   4.490   6.104  0.0494  0.2475  0.0370
  157POPC   C1B 2314   8.328   4.114   4.958  0.0061 -0.0137 -0.0930
  157POPC   C2B 2315   8.309   4.305   5.318 -0.4100 -0.1794  0.0849
  157POPC   C3B 2316   8.302   4.147   5.749 -0.0188 -0.0105 -0.1696
  157POPC   C4B 2317   8.694   4.008   6.036  0.2381 -0.0791  0.0058
  158POPC   NC3 2318   4.223   4.531   4.590 -0.0334 -0.0578  0.2492
  158POPC   PO4 2319   4.240   4.127   4.520  0.0317 -0.1510  0.2238
  158POPC   GL1 2320   4.088   3.953   4.897  0.0974 -0.0755  0.0473
  158POPC   GL2 2321   3.812   3.758   4.901 -0.0566  0.0271  0.0040
  158POPC   C1A 2322   4.095   3.930   5.294  0.0126 -0.0044 -0.1409
  158POPC   D2A 2323   4.062   3.884   5.734  0.1374  0.0489  0.1545
  158POPC   C3A 2324   4.008   4.142   6.040 -0.0048  0.0057  0.0540
  158POPC   C4A 2325   3.964   4.474   6.361 -0.1058  0.2407  0.1793
  158POPC   C1B 2326   3.570   3.730   5.348  0.1168 -0.1584  0.0227
  158POPC   C2B 2327   3.509   3.671   5.774 -0.2465 -0.2417  0.0165
  158POPC   C3B 2328   3.396   3.683   6.233  0.0590 -0.1185 -0.0916
  158POPC   C4B 2329   2.993   3.447   6.273 -0.0178  0.0213  0.0296
  159POPC   NC3 2330   7.064   4.450   3.467  0.1373  0.3129  0.0798
  159POPC   PO4 2331   6.941   4.594   3.934 -0.1434 -0.0278  0.0451
  159POPC   GL1 2332   7.000   4.938   4.167  0.1840 -0.0136 -0.0276
  159POPC   GL2 2333   7.162   5.221   3.943 -0.1673 -0.2075  0.1253
  159POPC   C1A 2334   7.141   5.218   4.553 -0.0022  0.0009  0.1308
  159POPC   D2A 2335   6.941   5.377   4.961 -0.0831 -0.0334  0.0491
  159POPC   C3A 2336   7.171   5.573   5.253 -0.2635  0.1151 -0.0654
  159POPC   C4A 2337   7.472   5.421   5.560 -0.2000  0.1407  0.1797
  159POPC   C1B 2338   6.968   5.552   4.192 -0.0311 -0.2546  0.3804
  159POPC   C2B 2339   7.068   5.718   4.640  0.3006  0.0262 -0.1048
  159POPC   C3B 2340   6.878   5.928   4.961 -0.1329  0.0490  0.1198
  159POPC   C4B 2341   6.615   5.843   5.316  0.1768  0.0151  0.4196
  160POPC   NC3 2342   7.483   8.577   4.101 -0.0556 -0.3347 -0.0013
  160POPC   PO4 2343   7.660   8.958   4.273 -0.1582 -0.0642  0.2003
  160POPC   GL1 2344   7.468   8.960   4.667  0.5251  0.0143 -0.2976
  160POPC   GL2 2345   7.426   9.195   4.881  0.2932 -0.2107 -0.1826
  160POPC   C1A 2346   7.507   8.679   5.006 -0.1111 -0.1201  0.1027
  160POPC   D2A 2347   7.774   8.395   5.204 -0.1034  0.2155 -0.0093
  160POPC   C3A 2348   7.769   8.106   5.479  0.3111 -0.0874 -0.4253
  160POPC   C4A 2349   7.592   7.696   5.620 -0.0542  0.1149  0.0394
  160POPC   C1B 2350   7.588   9.287   5.288 -0.0602 -0.2438  0.0597
  160POPC   C2B 2351   7.341   9.407   5.665 -0.0500  0.3516  0.3333
  160POPC   C3B 2352   7.094   9.438   5.985  0.2030 -0.2196  0.0214
  160POPC   C4B 2353   7.118   9.222   6.321 -0.3864 -0.0434 -0.0530
  161POPC   NC3 2354   2.995   2.791   4.107 -0.4004  0.3084  0.1461
  161POPC   PO4 2355   2.699   2.920   4.453  0.2895  0.0571  0.1920
  161POPC   GL1 2356   2.735   2.792   4.934 -0.2158 -0.0999  0.1984
  161POPC   GL2 2357   2.467   2.765   5.056  0.0791  0.1434 -0.0273
  161POPC   C1A 2358   2.791   2.529   5.298  0.1707  0.0120 -0.2126
  161POPC   D2A 2359   3.014   2.501   5.694  0.0698  0.0681  0.4172
  161POPC   C3A 2360   2.807   2.340   6.157  0.3906 -0.1478  0.4508
  161POPC   C4A 2361   2.498   2.174   6.463  0.3273 -0.2872 -0.1665
  161POPC   C1B 2362   2.354   2.898   5.452  0.1550 -0.2644  0.1783
  161POPC   C2B 2363   2.338   3.259   5.502  0.4153 -0.1228  0.0408
  161POPC   C3B 2364   2.020   3.443   5.569 -0.0942  0.0413 -0.0212
  161POPC   C4B 2365   1.621   3.554   5.461  0.0944  0.0790 -0.0082
  162POPC   NC3 2366   6.907   5.462   3.454 -0.0055 -0.1644  0.1136
  162POPC   PO4 2367   6.728   5.862   3.252  0.2726 -0.0680  0.2730
  162POPC   GL1 2368   6.787   5.937   3.720  0.0619 -0.2166 -0.1181
  162POPC   GL2 2369   7.099   5.812   3.761 -0.0890  0.1105  0.0222
  162POPC   C1A 2370   6.668   5.961   4.199 -0.1897 -0.1485  0.2997
  162POPC   D2A 2371   6.465   6.245   4.567 -0.2339 -0.0073 -0.1475
  162POPC   C3A 2372   6.481   6.325   4.943 -0.0600  0.1610  0.4011
  162POPC   C4A 2373   6.359   6.332   5.334 -0.1049  0.0639 -0.3856
  162POPC   C1B 2374   7.156   6.024   4.100  0.0312  0.0864  0.1276
  162POPC   C2B 2375   7.395   6.037   4.403  0.1091  0.2382 -0.2498
  162POPC   C3B 2376   7.417   6.076   4.814  0.0552  0.0108 -0.0651
  162POPC   C4B 2377   7.370   6.033   5.197  0.1526 -0.2160  0.0949
  163POPC   NC3 2378   7.741   5.269   3.389  0.2196  0.1683  0.3082
  163POPC   PO4 2379   8.120   5.122   3.296  0.0177  0.0075 -0.2170
  163POPC   GL1 2380   8.116   5.378   3.653  0.5503  0.0132 -0.1750
  163POPC   GL2 2381   7.979   5.366   3.873 -0.0456  0.0018 -0.2607
  163POPC   C1A 2382   8.122   5.797   3.727  0.1847  0.0112 -0.0616
  163POPC   D2A 2383   8.216   6.255   3.639 -0.2034 -0.0129  0.0561
  163POPC   C3A 2384   8.014   6.526   3.935  0.0436  0.0339  0.1188
  163POPC   C4A 2385   8.159   6.715   4.386  0.1825  0.2129  0.2691
  163POPC   C1B 2386   7.933   5.069   4.257 -0.2443  0.1015  0.1195
  163POPC   C2B 2387   7.798   5.116   4.520 -0.1335  0.0436  0.0089
  163POPC   C3B 2388   8.018   5.096   4.827 -0.0770  0.2216  0.1276
  163POPC   C4B 2389   8.028   5.384   5.288 -0.1224  0.0604 -0.2310
  164POPC   NC3 2390   2.680   6.911   4.510 -0.0206  0.0321  0.0138
  164POPC   PO4 2391   2.799   7.322   4.551 -0.3289  0.1482  0.4384
  164POPC   GL1 2392   2.741   7.168   4.980  0.1894  0.2371 -0.2015
  164POPC   GL2 2393   3.040   7.165   4.985  0.0177  0.0934  0.1703
  164POPC   C1A 2394   2.637   7.212   5.443  0.0596  0.1185  0.2355
  164POPC   D2A 2395   2.606   7.200   5.831  0.1268 -0.2265 -0.0401
  164POPC   C3A 2396   2.266   7.076   6.079 -0.3701 -0.2311  0.0464
  164POPC   C4A 2397   1.999   7.105   6.538 -0.3653 -0.3615 -0.1837
  164POPC   C1B 2398   3.308   7.376   5.309 -0.1063 -0.3859 -0.0668
  164POPC   C2B 2399   3.270   7.303   5.759 -0.0266 -0.1618 -0.1337
  164POPC   C3B 2400   3.008   7.309   6.171  0.4284  0.1021  0.0029
  164POPC   C4B 2401   2.652   7.146   6.395  0.1045  0.1325  0.2200
  165POPC   NC3 2402   1.078   5.308   3.991 -0.1353  0.3090 -0.2493
  165POPC   PO4 2403   0.748   4.998   4.287 -0.2155 -0.2762  0.0051
  165POPC   GL1 2404   0.582   4.772   4.588  0.1188 -0.1959 -0.1569
  165POPC   GL2 2405   0.749   4.561   4.852 -0.1158 -0.0394  0.0694
  165POPC   C1A 2406   0.342   4.751   4.985  0.1654 -0.0159 -0.1297
  165POPC   D2A 2407   0.393   4.680   5.444  0.0449  0.0266  0.2749
  165POPC   C3A 2408   0.119   4.406   5.713  0.0621 -0.0834  0.0333
  165POPC   C4A 2409  -0.073   4.227   5.956  0.0577 -0.1191 -0.1326
  165POPC   C1B 2410   0.872   4.567   5.233  0.0703 -0.1559  0.1119
  165POPC   C2B 2411   0.887   4.702   5.664  0.0632 -0.0522  0.2547
  165POPC   C3B 2412   1.015   4.403   6.029 -0.2574 -0.1431 -0.1148
  165POPC   C4B 2413   1.318   4.653   6.371  0.0349 -0.0232  0.0104
  166POPC   NC3 2414   0.094   1.589   4.203  0.1218  0.1278 -0.3005
  166POPC   PO4 2415   0.083   1.557   4.680 -0.1653  0.0473  0.0196
  166POPC   GL1 2416  -0.018   1.486   5.134 -0.1319 -0.0096  0.0284
  166POPC   GL2 2417  -0.231   1.287   5.123 -0.1543 -0.1099 -0.2140
  166POPC   C1A 2418  -0.074   1.562   5.562 -0.0903  0.1591  0.0272
  166POPC   D2A 2419  -0.257   1.423   5.960  0.1096  0.2997  0.4173
  166POPC   C3A 2420  -0.565   1.174   5.959 -0.2916 -0.3944  0.0701
  166POPC   C4A 2421  -1.069   1.177   5.893  0.1499 -0.1181  0.1405
  166POPC   C1B 2422  -0.247   1.053   5.483 -0.0122  0.0467  0.3805
  166POPC   C2B 2423  -0.128   0.798   5.951 -0.0797 -0.0549  0.3021
  166POPC   C3B 2424  -0.381   0.677   6.207 -0.1618  0.0788 -0.1416
  166POPC   C4B 2425  -0.703   0.984   6.433  0.1521 -0.2691  0.2127
  167POPC   NC3 2426   0.106   6.153   3.639 -0.2020 -0.1610 -0.2354
  167POPC   PO4 2427   0.360   6.104   4.102  0.2766 -0.2332  0.1374
  167POPC   GL1 2428   0.405   6.096   4.614  0.0745 -0.3624 -0.3340
  167POPC   GL2 2429   0.493   5.817   4.658 -0.2284  0.0053 -0.0676
  167POPC   C1A 2430   0.381   6.232   5.117 -0.2452 -0.2434  0.3317
  167POPC   D2A 2431   0.628   6.208   5.546 -0.1744 -0.2994  0.1008
  167POPC   C3A 2432   0.497   6.181   6.011  0.4164 -0.2413  0.0114
  167POPC   C4A 2433   0.266   5.908   6.400  0.0533  0.0933 -0.2231
  167POPC   C1B 2434   0.555   5.617   5.085 -0.4755  0.0017 -0.0661
  167POPC   C2B 2435   0.276   5.816   5.452  0.0038 -0.0760 -0.0403
  167POPC   C3B 2436   0.223   5.720   5.963  0.1881  0.0396  0.1506
  167POPC   C4B 2437   0.278   5.379   6.240  0.1412  0.2320  0.1396
  168POPC   NC3 2438   8.590   2.701   4.552 -0.0153 -0.0137 -0.0886
  168POPC   PO4 2439   8.272   3.008   4.540  0.3313  0.0845  0.0220
  168POPC   GL1 2440   8.250   2.908   4.900  0.2849 -0.4192  0.1846
  168POPC   GL2 2441   8.647   2.849   5.041  0.0627  0.1026 -0.2893
  168POPC   C1A 2442   7.864   2.804   5.207 -0.4252  0.1283  0.1532
  168POPC   D2A 2443   7.789   2.891   5.602 -0.0294 -0.2462 -0.2943
  168POPC   C3A 2444   7.906   2.967   6.115  0.4557  0.0707 -0.0055
  168POPC   C4A 2445   7.603   3.024   6.455  0.4281  0.0996 -0.2773
  168POPC   C1B 2446   8.378   2.914   5.431 -0.0470  0.0692 -0.2591
  168POPC   C2B 2447   8.276   2.755   5.708  0.2059  0.0686 -0.2922
  168POPC   C3B 2448   7.965   2.483   5.869 -0.1542  0.0700 -0.1206
  168POPC   C4B 2449   7.689   2.230   6.116  0.2407 -0.1889  0.0385
  169POPC   NC3 2450   3.459   9.744   4.092  0.1843  0.2854 -0.0074
  169POPC   PO4 2451   3.624   9.418   4.247  0.3137 -0.1296 -0.1053
  169POPC   GL1 2452   3.446   9.414   4.691 -0.2888 -0.3560 -0.1159
  169POPC   GL2 2453   3.231   9.192   4.742  0.2383 -0.0580 -0.0729
  169POPC   C1A 2454   3.236   9.503   5.104  0.1000  0.1962 -0.1406
  169POPC   D2A 2455   3.312   9.865   5.406 -0.0527  0.0884  0.1301
  169POPC   C3A 2456   2.893   9.983   5.573  0.3178  0.0127 -0.0079
  169POPC   C4A 2457   2.650  10.308   5.375  0.0648 -0.1306 -0.1104
  169POPC   C1B 2458   3.223   9.017   5.153 -0.0835  0.0008  0.2076
  169POPC   C2B 2459   2.956   8.912   5.454  0.1257 -0.2252  0.3957
  169POPC   C3B 2460   2.942   8.709   5.742 -0.1740 -0.1148 -0.0590
  169POPC   C4B 2461   2.901   8.585   6.083  0.1455 -0.0854 -0.2168
  170POPC   NC3 2462   6.915   8.947   3.590 -0.0185  0.0834 -0.1004
  170POPC   PO4 2463   6.944   8.664   3.924  0.1114  0.2988  0.0129
  170POPC   GL1 2464   7.005   8.463   4.303  0.2256  0.1283  0.0910
  170POPC   GL2 2465   7.260   8.520   4.539 -0.4088 -0.1736 -0.0173
  170POPC   C1A 2466   6.649   8.364   4.687  0.0430 -0.2407 -0.0180
  170POPC   D2A 2467   6.327   8.614   4.843  0.0043  0.1663  0.1669
  170POPC   C3A 2468   6.076   8.371   5.228 -0.1272 -0.2167  0.0839
  170POPC   C4A 2469   5.635   8.205   5.314 -0.0375 -0.0240  0.2274
  170POPC   C1B 2470   7.082   8.323   4.937  0.1476 -0.1599 -0.2097
  170POPC   C2B 2471   6.806   8.301   5.315  0.0260 -0.0488 -0.0428
  170POPC   C3B 2472   6.474   8.401   5.585  0.0859 -0.0065  0.2212
  170POPC   C4B 2473   6.121   8.439   5.691  0.1818 -0.0441 -0.2674
  171POPC   NC3 2474   2.341   7.435   4.287  0.0030 -0.0326 -0.2301
  171POPC   PO4 2475   1.943   7.291   4.223 -0.0059 -0.0119 -0.1512
  171POPC   GL1 2476   1.979   7.173   4.750 -0.2050  0.3400 -0.0365
  171POPC   GL2 2477   2.209   6.915   4.775 -0.1680 -0.1313  0.3601
  171POPC   C1A 2478   1.789   7.152   4.988  0.3703 -0.2087  0.0500
  171POPC   D2A 2479   1.543   7.212   5.333 -0.2671 -0.0328  0.0203
  171POPC   C3A 2480   1.558   6.973   5.724 -0.0715 -0.0894 -0.2864
  171POPC   C4A 2481   1.654   7.065   6.166 -0.2735 -0.0581 -0.0299
  171POPC   C1B 2482   2.338   6.810   5.171 -0.0822  0.1791  0.2192
  171POPC   C2B 2483   2.470   6.759   5.644  0.1163  0.2222 -0.2711
  171POPC   C3B 2484   2.594   6.626   6.064 -0.1895  0.2710  0.0458
  171POPC   C4B 2485   2.552   6.286   6.195  0.0303 -0.0265 -0.1640
  172POPC   NC3 2486   4.515   3.308   4.636 -0.0330  0.1996  0.0146
  172POPC   PO4 2487   4.940   3.328   4.752 -0.0425  0.1853 -0.1025
  172POPC   GL1 2488   4.701   3.405   5.101  0.0004 -0.0909 -0.4043
  172POPC   GL2 2489   4.504   3.678   5.043 -0.0780  0.1168 -0.0471
  172POPC   C1A 2490   4.809   3.239   5.496 -0.2257  0.2654 -0.1053
  172POPC   D2A 2491   4.863   3.418   6.047 -0.1399 -0.0161  0.0568
  172POPC   C3A 2492   5.108   3.766   6.015 -0.0556  0.0298 -0.0936
  172POPC   C4A 2493   5.298   4.140   6.180 -0.0056  0.0046  0.3887
  172POPC   C1B 2494   4.592   3.756   5.448 -0.0666  0.0872 -0.4855
  172POPC   C2B 2495   4.948   3.706   5.573  0.0095 -0.0885  0.1406
  172POPC   C3B 2496   5.282   3.772   5.559  0.0839  0.4512 -0.0806
  172POPC   C4B 2497   5.555   3.644   5.782 -0.0293  0.1951 -0.4091
  173POPC   NC3 2498   5.286   8.054   4.319 -0.1062 -0.0199 -0.0550
  173POPC   PO4 2499   5.364   7.637   4.109 -0.2837 -0.0469 -0.2361
  173POPC   GL1 2500   5.274   7.579   4.531 -0.0977  0.1618 -0.0589
  173POPC   GL2 2501   5.340   7.206   4.705  0.0211  0.0575  0.0606
  173POPC   C1A 2502   5.521   7.659   5.047 -0.2339 -0.0260  0.0053
  173POPC   D2A 2503   5.652   7.630   5.475 -0.1443 -0.4255  0.0612
  173POPC   C3A 2504   5.429   7.534   5.793 -0.1635 -0.0560 -0.1571
  173POPC   C4A 2505   5.278   7.773   6.150 -0.2920  0.1456 -0.0570
  173POPC   C1B 2506   5.169   6.974   5.045  0.0314  0.1609  0.0525
  173POPC   C2B 2507   5.235   6.736   5.400 -0.4410 -0.0268 -0.2445
  173POPC   C3B 2508   5.521   6.841   5.748 -0.0825  0.0958  0.3200
  173POPC   C4B 2509   5.743   7.090   5.776 -0.0200  0.1280 -0.2494
  174POPC   NC3 2510   6.912   0.985   4.538  0.0962  0.0445  0.0573
  174POPC   PO4 2511   7.237   1.194   4.636  0.2080  0.2029 -0.1573
  174POPC   GL1 2512   7.459   1.197   4.946 -0.1057  0.2144 -0.1874
  174POPC   GL2 2513   7.325   1.153   5.161  0.1885  0.0715 -0.0008
  174POPC   C1A 2514   7.670   1.692   5.255  0.1146 -0.0980 -0.1693
  174POPC   D2A 2515   7.669   1.906   5.627  0.1184 -0.5345 -0.0882
  174POPC   C3A 2516   7.265   2.067   5.801  0.1238  0.1830  0.4264
  174POPC   C4A 2517   7.088   2.378   5.938 -0.1907  0.3363  0.2527
  174POPC   C1B 2518   7.508   1.286   5.578 -0.1737 -0.1284  0.2842
  174POPC   C2B 2519   7.325   1.575   5.839 -0.2696  0.0207  0.2693
  174POPC   C3B 2520   7.105   1.612   6.185 -0.3166 -0.0250 -0.1188
  174POPC   C4B 2521   6.931   1.738   6.549 -0.3650  0.0989 -0.0035
  175POPC   NC3 2522   0.744   2.287   4.982 -0.1045  0.0363 -0.2297
  175POPC   PO4 2523   0.353   2.295   5.037 -0.2299  0.1284  0.0809
  175POPC   GL1 2524   0.061   2.617   5.292 -0.0636  0.0507 -0.0279
  175POPC   GL2 2525  -0.124   2.893   5.142  0.1255 -0.2476 -0.0303
  175POPC   C1A 2526   0.019   2.927   5.649  0.1730 -0.0320 -0.1671
  175POPC   D2A 2527  -0.098   3.285   5.604  0.1813 -0.1872 -0.1110
  175POPC   C3A 2528  -0.432   3.431   5.813  0.0940 -0.1204  0.1130
  175POPC   C4A 2529  -0.862   3.214   5.722 -0.1812 -0.4039  0.0203
  175POPC   C1B 2530  -0.470   2.963   5.439 -0.1804 -0.0089  0.0500
  175POPC   C2B 2531  -0.475   2.879   5.781  0.1512 -0.1957 -0.1035
  175POPC   C3B 2532  -0.568   3.121   6.165  0.2282 -0.0005 -0.0107
  175POPC   C4B 2533  -0.926   3.047   6.213  0.1686 -0.1319 -0.0990
  176POPC   NC3 2534   9.500   2.064   4.650 -0.0767 -0.1056  0.1345
  176POPC   PO4 2535   9.455   2.488   4.622 -0.1901  0.1393  0.0898
  176POPC   GL1 2536   9.484   2.621   5.016  0.0569  0.1319  0.0724
  176POPC   GL2 2537   9.640   2.343   5.132 -0.3819 -0.0131  0.0167
  176POPC   C1A 2538   9.172   2.466   5.366  0.2542 -0.4235  0.1740
  176POPC   D2A 2539   9.077   2.597   5.798 -0.2717  0.4599  0.1050
  176POPC   C3A 2540   8.692   2.793   5.905 -0.0833 -0.2938  0.0752
  176POPC   C4A 2541   8.377   2.775   6.187 -0.0272  0.1968 -0.0457
  176POPC   C1B 2542   9.685   2.461   5.558 -0.0325 -0.1381  0.0262
  176POPC   C2B 2543   9.623   2.376   6.019 -0.0969 -0.2426  0.0182
  176POPC   C3B 2544   9.389   2.589   6.292 -0.0369  0.2404  0.0712
  176POPC   C4B 2545   8.963   2.574   6.358  0.1389 -0.0491 -0.1657
  177POPC   NC3 2546   0.456   5.600   4.223 -0.1995  0.0758  0.0819
  177POPC   PO4 2547   0.277   5.275   4.382 -0.1444  0.1746 -0.0290
  177POPC   GL1 2548   0.428   5.219   4.800 -0.1711 -0.3591  0.3505
  177POPC   GL2 2549   0.765   5.109   4.905 -0.1489 -0.1039  0.2305
  177POPC   C1A 2550   0.298   5.222   5.262 -0.4236  0.2496 -0.2037
  177POPC   D2A 2551  -0.108   5.451   5.541 -0.1139  0.0483 -0.0103
  177POPC   C3A 2552  -0.231   5.495   6.016  0.2184  0.0173 -0.0547
  177POPC   C4A 2553  -0.593   5.450   6.290 -0.0418  0.1775 -0.1127
  177POPC   C1B 2554   0.749   5.099   5.368 -0.0598 -0.0167 -0.1413
  177POPC   C2B 2555   0.402   5.100   5.806 -0.0492 -0.0312  0.2237
  177POPC   C3B 2556   0.074   5.012   6.040  0.1384 -0.2416 -0.1652
  177POPC   C4B 2557  -0.183   5.051   6.342 -0.2157 -0.0777  0.0703
  178POPC   NC3 2558   6.175   5.824   3.207 -0.0548 -0.0445 -0.0557
  178POPC   PO4 2559   6.352   6.053   3.640  0.2298  0.1834  0.0494
  178POPC   GL1 2560   6.184   5.858   4.019  0.0058 -0.0791 -0.1432
  178POPC   GL2 2561   6.253   5.617   4.262 -0.1962  0.1304 -0.1102
  178POPC   C1A 2562   6.085   5.961   4.506  0.1716  0.0150 -0.3085
  178POPC   D2A 2563   6.184   5.876   5.016  0.1496 -0.0550  0.1970
  178POPC   C3A 2564   5.932   6.017   5.380 -0.3718  0.2589  0.1569
  178POPC   C4A 2565   5.833   5.885   5.768 -0.1157  0.0412 -0.1102
  178POPC   C1B 2566   6.462   5.628   4.678  0.0082  0.0533 -0.0324
  178POPC   C2B 2567   6.423   5.398   5.118  0.3195 -0.0927  0.1424
  178POPC   C3B 2568   6.670   5.289   5.429  0.1060 -0.3350 -0.3045
  178POPC   C4B 2569   6.810   5.276   5.838  0.0020 -0.0622  0.2828
  179POPC   NC3 2570   9.639   7.299   3.810  0.0894  0.0307  0.1392
  179POPC   PO4 2571   9.389   7.656   3.841 -0.0232  0.3169 -0.0030
  179POPC   GL1 2572   9.382   7.639   4.343  0.0744 -0.1944 -0.2145
  179POPC   GL2 2573   9.314   7.972   4.440 -0.2832  0.1124  0.0895
  179POPC   C1A 2574   9.097   7.470   4.488 -0.0834  0.2499 -0.2768
  179POPC   D2A 2575   8.747   7.303   4.709 -0.1091 -0.1788  0.0047
  179POPC   C3A 2576   8.614   7.388   5.153  0.2901  0.3008 -0.1648
  179POPC   C4A 2577   8.582   7.278   5.581  0.1411 -0.1617  0.0740
  179POPC   C1B 2578   9.451   7.815   4.875 -0.0705  0.1157  0.1262
  179POPC   C2B 2579   9.801   7.644   5.110  0.1929  0.0985 -0.2404
  179POPC   C3B 2580   9.900   7.593   5.533 -0.0470 -0.0539  0.0248
  179POPC   C4B 2581   9.793   7.504   5.933 -0.0086 -0.1550 -0.1443
  180POPC   NC3 2582   5.323   1.247   4.109  0.1212  0.0295 -0.2305
  180POPC   PO4 2583   5.691   1.275   4.494  0.3167 -0.0778 -0.0718
  180POPC   GL1 2584   5.704   1.133   4.900 -0.1511  0.0537 -0.1001
  180POPC   GL2 2585   5.944   0.927   4.996  0.1598 -0.0521 -0.4361
  180POPC   C1A 2586   5.645   1.234   5.262 -0.0440  0.0188 -0.2761
  180POPC   D2A 2587   5.643   1.083   5.796 -0.0551 -0.3679  0.2522
  180POPC   C3A 2588   5.260   1.026   5.845  0.1862 -0.3924 -0.1455
  180POPC   C4A 2589   4.874   1.018   5.796  0.1581 -0.3224 -0.0607
  180POPC   C1B 2590   6.116   0.917   5.341  0.1397 -0.2012  0.0456
  180POPC   C2B 2591   5.949   0.700   5.663 -0.1354 -0.1633 -0.1795
  180POPC   C3B 2592   5.902   0.649   6.132  0.0298 -0.4070  0.1313
  180POPC   C4B 2593   6.334   0.560   6.325 -0.2116 -0.1305  0.0479
  181POPC   NC3 2594   1.353   2.657   5.021 -0.2092  0.1127  0.0209
  181POPC   PO4 2595   1.283   2.227   4.841  0.0327 -0.2091 -0.0370
  181POPC   GL1 2596   1.542   2.193   5.134 -0.0761 -0.0316  0.1209
  181POPC   GL2 2597   1.443   1.966   5.367  0.0304  0.2305 -0.1158
  181POPC   C1A 2598   1.878   2.266   5.431  0.4012  0.2855  0.1360
  181POPC   D2A 2599   1.884   2.546   5.729 -0.2036  0.2166  0.0251
  181POPC   C3A 2600   1.657   2.764   6.103  0.2186 -0.0385  0.0852
  181POPC   C4A 2601   1.308   2.649   6.309  0.1698  0.1667  0.1839
  181POPC   C1B 2602   1.576   2.121   5.792  0.0877  0.1526  0.1599
  181POPC   C2B 2603   1.972   1.980   5.894 -0.1618  0.1822  0.0776
  181POPC   C3B 2604   2.261   1.889   6.115  0.1587  0.0230 -0.1122
  181POPC   C4B 2605   2.589   1.890   6.032 -0.1260 -0.1593  0.1151
  182POPC   NC3 2606   7.833   8.058   3.270  0.2159 -0.1007  0.0239
  182POPC   PO4 2607   8.038   8.302   3.450  0.0959 -0.0567 -0.3387
  182POPC   GL1 2608   8.273   8.237   3.752 -0.2440  0.4016 -0.0793
  182POPC   GL2 2609   8.434   7.993   3.696  0.1002  0.1045  0.0430
  182POPC   C1A 2610   8.158   8.178   4.203 -0.1137 -0.3743  0.2058
  182POPC   D2A 2611   8.352   8.189   4.600 -0.3048 -0.2230 -0.0286
  182POPC   C3A 2612   8.173   8.114   5.071  0.2539 -0.0669 -0.2898
  182POPC   C4A 2613   7.830   7.846   5.076  0.1407 -0.1717 -0.1052
  182POPC   C1B 2614   8.325   7.760   4.094  0.1514  0.0444  0.1516
  182POPC   C2B 2615   8.399   7.663   4.465 -0.0743  0.1005  0.1665
  182POPC   C3B 2616   8.306   7.614   4.930 -0.0586  0.2412 -0.3779
  182POPC   C4B 2617   8.294   7.743   5.425  0.0382 -0.0705  0.1007
  183POPC   NC3 2618   9.350   3.928   4.428 -0.0297 -0.1203 -0.2741
  183POPC   PO4 2619   9.684   3.572   4.360 -0.0800 -0.1785 -0.3369
  183POPC   GL1 2620   9.581   3.607   4.831 -0.1846  0.1010  0.2751
  183POPC   GL2 2621   9.345   3.833   4.911 -0.1811  0.2383  0.1943
  183POPC   C1A 2622   9.633   3.558   5.276 -0.5191  0.0579 -0.0286
  183POPC   D2A 2623   9.523   3.927   5.403  0.2818 -0.0358 -0.0700
  183POPC   C3A 2624   9.434   4.058   5.889 -0.0204  0.2949  0.0893
  183POPC   C4A 2625   9.125   4.031   6.263 -0.0476 -0.0271  0.2851
  183POPC   C1B 2626   9.265   4.272   5.159  0.2967  0.1310  0.0846
  183POPC   C2B 2627   9.333   4.680   5.332 -0.2318  0.0132  0.1542
  183POPC   C3B 2628   9.076   4.846   5.744  0.0160  0.0903  0.0663
  183POPC   C4B 2629   8.686   5.117   5.843  0.2341 -0.0598 -0.2719
  184POPC   NC3 2630   2.722   1.775   4.361 -0.1710  0.0221 -0.0040
  184POPC   PO4 2631   2.630   2.139   4.566  0.1704 -0.1384  0.4280
  184POPC   GL1 2632   2.986   2.076   4.965 -0.0152  0.0046  0.1352
  184POPC   GL2 2633   2.769   1.968   5.259 -0.1371  0.0030 -0.0138
  184POPC   C1A 2634   3.272   2.220   5.281 -0.0170  0.0177 -0.0322
  184POPC   D2A 2635   3.698   2.311   5.477 -0.2241 -0.1387  0.3308
  184POPC   C3A 2636   3.795   2.438   5.949 -0.2829 -0.3106  0.1530
  184POPC   C4A 2637   3.914   2.081   6.261 -0.2306  0.2643  0.0259
  184POPC   C1B 2638   2.952   1.946   5.709  0.2110 -0.0141  0.1636
  184POPC   C2B 2639   3.069   1.610   6.015  0.0927  0.0236 -0.2274
  184POPC   C3B 2640   3.230   1.243   5.965 -0.1157  0.1343 -0.2352
  184POPC   C4B 2641   3.062   0.858   5.854 -0.0031  0.2193  0.1227
  185POPC   NC3 2642   0.226   1.027   4.780 -0.1638  0.1852  0.1373
  185POPC   PO4 2643   0.275   0.636   4.893 -0.1970  0.0993 -0.0409
  185POPC   GL1 2644   0.429   0.791   5.261  0.1788 -0.1416 -0.0541
  185POPC   GL2 2645   0.255   1.071   5.234  0.0939 -0.0013  0.1538
  185POPC   C1A 2646   0.290   0.595   5.715 -0.0442 -0.0564  0.0016
  185POPC   D2A 2647   0.283   0.520   6.194 -0.0398 -0.0933  0.6325
  185POPC   C3A 2648   0.000   0.355   6.455 -0.0877 -0.0072  0.1063
  185POPC   C4A 2649  -0.089   0.336   6.888 -0.0676  0.1190 -0.2104
  185POPC   C1B 2650   0.239   1.207   5.718 -0.3518 -0.0483 -0.2809
  185POPC   C2B 2651   0.203   1.327   6.169 -0.1422 -0.0363 -0.2917
  185POPC   C3B 2652   0.006   1.670   6.315  0.2856  0.0030 -0.1080
  185POPC   C4B 2653  -0.084   2.074   6.335 -0.3413 -0.1738 -0.1864
  186POPC   NC3 2654   4.952   9.867   4.431 -0.0418  0.0814 -0.0047
  186POPC   PO4 2655   5.242  10.257   4.381 -0.4653 -0.0168 -0.0807
  186POPC   GL1 2656   5.341  10.265   4.721 -0.2919  0.0866 -0.0865
  186POPC   GL2 2657   5.325   9.947   4.823 -0.0580  0.1594  0.1692
  186POPC   C1A 2658   5.605  10.525   4.996  0.2181  0.0462  0.2464
  186POPC   D2A 2659   5.582  10.731   5.333 -0.1892 -0.0759 -0.0391
  186POPC   C3A 2660   5.435  10.527   5.706 -0.1809  0.2925 -0.1592
  186POPC   C4A 2661   5.445  10.342   6.063  0.0433  0.2756 -0.1911
  186POPC   C1B 2662   5.459   9.813   5.201  0.0593 -0.1078 -0.0619
  186POPC   C2B 2663   5.129   9.620   5.420  0.1076  0.2001  0.0142
  186POPC   C3B 2664   5.045   9.448   5.734  0.2117 -0.1352 -0.0847
  186POPC   C4B 2665   5.057   9.289   6.178  0.0373  0.4027 -0.0238
  187POPC   NC3 2666   4.101   9.400   4.482 -0.1648  0.1492  0.1456
  187POPC   PO4 2667   4.350   9.707   4.198  0.0157 -0.2135  0.1533
  187POPC   GL1 2668   4.439   9.840   4.590 -0.2193  0.2932  0.1846
  187POPC   GL2 2669   4.448   9.625   4.769  0.1381  0.1032  0.1072
  187POPC   C1A 2670   4.447  10.067   4.969 -0.1313 -0.0536 -0.4444
  187POPC   D2A 2671   4.535  10.152   5.336  0.2081  0.0287 -0.1498
  187POPC   C3A 2672   4.955  10.110   5.401 -0.2717 -0.0571  0.3908
  187POPC   C4A 2673   5.311  10.264   5.290  0.0519 -0.0541  0.1442
  187POPC   C1B 2674   4.212   9.329   5.183  0.1597  0.1130  0.0549
  187POPC   C2B 2675   4.022   9.294   5.574 -0.0586 -0.2345  0.3334
  187POPC   C3B 2676   4.119   9.270   5.994  0.1046  0.1480  0.0809
  187POPC   C4B 2677   4.143   9.131   6.415 -0.2745 -0.0432 -0.1285
  188POPC   NC3 2678   3.599   6.714   4.253  0.1284 -0.0106  0.1855
  188POPC   PO4 2679   3.880   6.960   4.511 -0.1479 -0.2441 -0.1457
  188POPC   GL1 2680   3.928   6.942   5.000  0.0359 -0.1083 -0.2791
  188POPC   GL2 2681   4.111   7.188   5.156 -0.1624  0.2912  0.1209
  188POPC   C1A 2682   4.298   6.596   5.211 -0.2817 -0.0108 -0.1180
  188POPC   D2A 2683   4.518   6.245   5.337  0.1880  0.0540 -0.0705
  188POPC   C3A 2684   4.979   6.183   5.479  0.1079 -0.1110  0.3776
  188POPC   C4A 2685   5.109   6.019   5.795 -0.4200 -0.2051 -0.0541
  188POPC   C1B 2686   3.760   7.222   5.490  0.0608 -0.1439  0.1222
  188POPC   C2B 2687   3.722   7.484   5.846  0.0144  0.1665 -0.0319
  188POPC   C3B 2688   3.825   7.846   6.060  0.1654 -0.0698 -0.2330
  188POPC   C4B 2689   3.983   8.316   5.939  0.0767 -0.2610 -0.3949
  189POPC   NC3 2690   5.205   1.814   4.074 -0.1199 -0.1373 -0.1116
  189POPC   PO4 2691   4.887   1.516   4.135  0.2541  0.1563 -0.0108
  189POPC   GL1 2692   5.005   1.612   4.514  0.1796  0.3352  0.1939
  189POPC   GL2 2693   5.291   1.645   4.576  0.0773 -0.0633 -0.1936
  189POPC   C1A 2694   4.984   1.645   4.935  0.3184  0.2806 -0.2404
  189POPC   D2A 2695   4.557   1.563   5.186 -0.1256  0.1591 -0.1219
  189POPC   C3A 2696   4.475   1.170   5.308  0.0942  0.1553 -0.0611
  189POPC   C4A 2697   4.179   0.979   5.007 -0.0561 -0.0371 -0.0287
  189POPC   C1B 2698   5.489   1.760   4.966 -0.2159  0.1707 -0.5115
  189POPC   C2B 2699   5.512   1.730   5.367 -0.0623 -0.2522  0.1351
  189POPC   C3B 2700   5.732   1.684   5.740 -0.0815 -0.0343 -0.2269
  189POPC   C4B 2701   5.775   1.694   6.116 -0.1142 -0.0624  0.0753
  190POPC   NC3 2702   9.183   9.316   4.083 -0.3564  0.1276 -0.1775
  190POPC   PO4 2703   9.677   9.360   4.180  0.1072 -0.1214 -0.3264
  190POPC   GL1 2704   9.611   9.276   4.646  0.1282 -0.1559 -0.1579
  190POPC   GL2 2705   9.343   9.436   4.720 -0.0794  0.2532  0.0928
  190POPC   C1A 2706   9.769   9.503   5.044 -0.1648  0.1422  0.1552
  190POPC   D2A 2707   9.755   9.512   5.420 -0.1111 -0.1027 -0.2543
  190POPC   C3A 2708   9.804   9.933   5.715 -0.0161  0.0135  0.1380
  190POPC   C4A 2709   9.751  10.267   6.007 -0.2811 -0.0604  0.2696
  190POPC   C1B 2710   9.362   9.149   5.034 -0.1237  0.1070 -0.0766
  190POPC   C2B 2711   9.171   8.963   5.418  0.0790 -0.0799 -0.0105
  190POPC   C3B 2712   8.740   8.983   5.551 -0.1471  0.1603  0.0514
  190POPC   C4B 2713   8.511   8.611   5.852  0.0487  0.0951  0.1760
  191POPC   NC3 2714   9.532   2.919   4.174 -0.0676 -0.1472  0.3931
  191POPC   PO4 2715   9.956   2.897   4.476 -0.1222 -0.0918  0.1140
  191POPC   GL1 2716  10.150   3.140   4.794  0.0150 -0.2802  0.0354
  191POPC   GL2 2717  10.061   3.392   4.831  0.0213  0.0934 -0.1905
  191POPC   C1A 2718  10.342   3.011   5.272 -0.3604 -0.0273 -0.2315
  191POPC   D2A 2719  10.526   2.631   5.477 -0.1850  0.0262 -0.0149
  191POPC   C3A 2720  10.692   2.233   5.741  0.0876 -0.3999 -0.0836
  191POPC   C4A 2721  11.018   1.950   5.700  0.1409 -0.1789  0.3384
  191POPC   C1B 2722  10.179   3.476   5.228 -0.0241 -0.0442  0.3103
  191POPC   C2B 2723  10.418   3.338   5.637 -0.1813  0.0720  0.1070
  191POPC   C3B 2724  10.529   3.010   5.878  0.0406 -0.1641  0.1076
  191POPC   C4B 2725  10.322   2.609   5.936 -0.0884 -0.1978 -0.0985
  192POPC   NC3 2726   4.863   0.057   3.901 -0.2707 -0.0897  0.0678
  192POPC   PO4 2727   4.696   0.265   4.284 -0.0944 -0.2860  0.4067
  192POPC   GL1 2728   4.689   0.361   4.632 -0.3344 -0.1320  0.3052
  192POPC   GL2 2729   4.535   0.555   4.675  0.1102 -0.3223 -0.0635
  192POPC   C1A 2730   4.906   0.274   4.919 -0.0297  0.0255 -0.0419
  192POPC   D2A 2731   4.858  -0.183   4.951 -0.0217  0.3463  0.3501
  192POPC   C3A 2732   4.683  -0.484   5.235 -0.0137 -0.0889  0.0335
  192POPC   C4A 2733   4.551  -0.715   5.640 -0.1681  0.0309  0.3137
  192POPC   C1B 2734   4.601   0.626   5.130 -0.0215 -0.0961  0.0987
  192POPC   C2B 2735   4.446   0.645   5.584  0.2737  0.1245 -0.0298
  192POPC   C3B 2736   4.487   0.568   6.037 -0.1018  0.0579  0.2699
  192POPC   C4B 2737   4.577   0.375   6.441  0.3190 -0.1501  0.0631
  193POPC   NC3 2738   4.217   6.172   4.662  0.0376  0.2282 -0.2753
  193POPC   PO4 2739   3.930   6.342   4.440 -0.0910 -0.0557 -0.0893
  193POPC   GL1 2740   3.713   6.501   4.726  0.0818  0.1383  0.3134
  193POPC   GL2 2741   3.870   6.444   4.975 -0.2996  0.2456 -0.0622
  193POPC   C1A 2742   3.457   6.731   4.990  0.5946 -0.1353 -0.2693
  193POPC   D2A 2743   3.432   6.900   5.283 -0.1272 -0.0171  0.0744
  193POPC   C3A 2744   3.379   6.549   5.578  0.3213 -0.1163 -0.4298
  193POPC   C4A 2745   3.665   6.380   5.919 -0.0036 -0.1043 -0.1320
  193POPC   C1B 2746   3.843   6.580   5.417  0.1335 -0.0003  0.0184
  193POPC   C2B 2747   3.756   6.832   5.839  0.0088  0.1892  0.1578
  193POPC   C3B 2748   4.039   7.186   6.059 -0.0302  0.2129 -0.2394
  193POPC   C4B 2749   4.101   7.533   6.207  0.1950  0.3213 -0.2962
  194POPC   NC3 2750   9.340   5.981   4.064 -0.0703  0.0193 -0.2701
  194POPC   PO4 2751   9.662   5.799   3.668 -0.1716  0.0583 -0.2797
  194POPC   GL1 2752   9.535   5.495   3.970 -0.0587 -0.0513 -0.1567
  194POPC   GL2 2753   9.417   5.202   3.792  0.1843  0.2179  0.0599
  194POPC   C1A 2754   9.409   5.359   4.388 -0.1066 -0.0649 -0.1750
  194POPC   D2A 2755   9.501   5.242   4.763 -0.0843  0.0024 -0.0757
  194POPC   C3A 2756   9.521   5.547   5.182 -0.1017  0.0463  0.1812
  194POPC   C4A 2757   9.468   5.694   5.531  0.1803 -0.0074 -0.2040
  194POPC   C1B 2758   8.988   5.270   4.095  0.0457 -0.1697 -0.0274
  194POPC   C2B 2759   8.952   5.191   4.467 -0.3831 -0.1321  0.0231
  194POPC   C3B 2760   9.015   5.313   4.892  0.1724 -0.1351 -0.0345
  194POPC   C4B 2761   8.963   5.359   5.341  0.0085 -0.2236 -0.2341
  195POPC   NC3 2762   9.024   7.566   3.343  0.3983 -0.3485 -0.1377
  195POPC   PO4 2763   8.914   7.866   3.607  0.1540 -0.0301 -0.0852
  195POPC   GL1 2764   8.825   7.618   3.875  0.1392  0.0503 -0.1305
  195POPC   GL2 2765   8.796   7.825   4.212  0.4423  0.0483  0.0581
  195POPC   C1A 2766   8.758   7.268   4.221  0.0623 -0.1919  0.0638
  195POPC   D2A 2767   8.494   6.887   4.080 -0.0811 -0.1863 -0.1128
  195POPC   C3A 2768   8.593   6.555   3.789 -0.1783 -0.1094  0.0378
  195POPC   C4A 2769   8.615   6.057   3.895  0.0544  0.0873 -0.1669
  195POPC   C1B 2770   8.796   7.905   4.667  0.3255 -0.2878  0.0679
  195POPC   C2B 2771   9.002   7.665   5.023  0.0862  0.0886  0.0500
  195POPC   C3B 2772   9.330   7.499   5.319  0.0008 -0.1115 -0.1803
  195POPC   C4B 2773   9.618   7.181   5.351  0.2229  0.1734 -0.0361
  196POPC   NC3 2774   1.072   0.764   4.450 -0.5791  0.2415 -0.1758
  196POPC   PO4 2775   0.807   0.412   4.599  0.0694 -0.1647  0.1391
  196POPC   GL1 2776   0.798   0.419   4.999  0.2648 -0.0727 -0.1251
  196POPC   GL2 2777   0.494   0.181   5.068  0.1503  0.2051  0.1625
  196POPC   C1A 2778   0.877   0.465   5.414  0.1232  0.0623 -0.2592
  196POPC   D2A 2779   0.754   0.438   5.891 -0.0539  0.0896  0.1314
  196POPC   C3A 2780   1.021   0.738   6.035  0.1113  0.3983 -0.0022
  196POPC   C4A 2781   1.330   0.945   6.041 -0.2899  0.2729 -0.2077
  196POPC   C1B 2782   0.475   0.142   5.460  0.2661 -0.0437  0.1808
  196POPC   C2B 2783   0.350   0.090   5.917 -0.2012 -0.1061  0.1782
  196POPC   C3B 2784  -0.019  -0.107   6.207  0.1671 -0.1733 -0.1416
  196POPC   C4B 2785  -0.459  -0.144   6.194 -0.0114  0.2317  0.0844
  197POPC   NC3 2786   2.149   0.074   4.214 -0.1246  0.0873 -0.2915
  197POPC   PO4 2787   2.599  -0.104   4.299 -0.0335 -0.0760 -0.1582
  197POPC   GL1 2788   2.647  -0.225   4.648 -0.1604 -0.0220 -0.0251
  197POPC   GL2 2789   2.581  -0.543   4.785 -0.1649  0.1141  0.1472
  197POPC   C1A 2790   2.795  -0.220   5.105 -0.0566  0.0740  0.0100
  197POPC   D2A 2791   2.473  -0.329   5.438 -0.1143  0.1860  0.1009
  197POPC   C3A 2792   2.455  -0.333   5.881 -0.2532  0.2006 -0.1712
  197POPC   C4A 2793   2.698  -0.134   6.087 -0.1353  0.3208  0.3749
  197POPC   C1B 2794   2.732  -0.716   5.181  0.1211  0.2395 -0.0448
  197POPC   C2B 2795   2.937  -0.518   5.536  0.1166 -0.0467 -0.1793
  197POPC   C3B 2796   3.043  -0.440   5.944  0.2717  0.1653  0.2403
  197POPC   C4B 2797   3.152  -0.429   6.407  0.1113 -0.1006 -0.0435
  198POPC   NC3 2798   2.912   0.800   3.937  0.0822  0.3103 -0.2460
  198POPC   PO4 2799   3.045   0.418   4.235  0.0176  0.1389 -0.4734
  198POPC   GL1 2800   3.107   0.172   4.587  0.4345  0.2684  0.0645
  198POPC   GL2 2801   3.387  -0.092   4.539  0.1882  0.1463 -0.1495
  198POPC   C1A 2802   3.066   0.197   5.077  0.1068  0.1686 -0.3304
  198POPC   D2A 2803   3.350   0.366   5.518 -0.4100 -0.2911 -0.0165
  198POPC   C3A 2804   3.214   0.403   5.973 -0.0256  0.2261  0.4664
  198POPC   C4A 2805   3.167   0.108   6.209  0.1364  0.0769  0.1718
  198POPC   C1B 2806   3.623  -0.181   4.875  0.0537 -0.0887  0.3255
  198POPC   C2B 2807   4.015  -0.169   5.221 -0.2445 -0.0658  0.2920
  198POPC   C3B 2808   4.298  -0.261   5.416 -0.2872  0.0830  0.0283
  198POPC   C4B 2809   4.660  -0.244   5.706 -0.1183 -0.1909 -0.2578
  199POPC   NC3 2810   1.402   6.550   3.976  0.0731 -0.0467 -0.2418
  199POPC   PO4 2811   1.272   6.484   4.477 -0.1337 -0.0562 -0.1915
  199POPC   GL1 2812   1.380   6.431   4.980  0.2150 -0.0319  0.0837
  199POPC   GL2 2813   1.428   6.731   4.994  0.3826 -0.3366 -0.0792
  199POPC   C1A 2814   1.464   6.509   5.500  0.1763 -0.1963  0.2241
  199POPC   D2A 2815   1.443   6.551   6.055  0.4731 -0.1763  0.0330
  199POPC   C3A 2816   1.172   6.748   6.307 -0.1679  0.2103  0.0364
  199POPC   C4A 2817   1.001   7.114   6.257  0.0326  0.2964  0.3693
  199POPC   C1B 2818   1.115   6.756   5.288 -0.1130 -0.1162 -0.2007
  199POPC   C2B 2819   1.019   6.544   5.727  0.2327 -0.2995 -0.1431
  199POPC   C3B 2820   1.020   6.239   6.046 -0.2550 -0.0634  0.1083
  199POPC   C4B 2821   1.162   6.108   6.378 -0.0403  0.0416 -0.0291
  200POPC   NC3 2822   5.587   2.991   4.083 -0.0542  0.0815 -0.1122
  200POPC   PO4 2823   5.251   3.206   4.260 -0.0819 -0.0393  0.0024
  200POPC   GL1 2824   5.509   3.217   4.622  0.3686  0.1360  0.1564
  200POPC   GL2 2825   5.548   3.441   4.782 -0.0940  0.1228  0.1646
  200POPC   C1A 2826   5.596   2.960   4.882  0.2349  0.1616 -0.0541
  200POPC   D2A 2827   5.557   2.888   5.369 -0.0460 -0.1750 -0.3106
  200POPC   C3A 2828   5.666   2.559   5.542  0.0063 -0.0479  0.1340
  200POPC   C4A 2829   5.453   2.111   5.614  0.1240 -0.0429  0.1029
  200POPC   C1B 2830   5.380   3.367   5.184  0.5830  0.1073 -0.1425
  200POPC   C2B 2831   5.268   3.211   5.607 -0.2363 -0.2134 -0.3217
  200POPC   C3B 2832   5.511   3.051   5.893  0.1857  0.0239 -0.0556
  200POPC   C4B 2833   5.424   2.793   6.201 -0.0096  0.3291 -0.3584
  201POPC   NC3 2834   1.994   1.038   4.807 -0.2959  0.0052 -0.0699
  201POPC   PO4 2835   2.152   1.518   4.895 -0.0472 -0.2637  0.1248
  201POPC   GL1 2836   2.016   1.351   5.295 -0.5846 -0.3555 -0.4510
  201POPC   GL2 2837   1.799   1.634   5.485 -0.2660 -0.1188  0.0589
  201POPC   C1A 2838   2.212   1.160   5.618 -0.2753 -0.2157  0.3382
  201POPC   D2A 2839   2.423   0.763   5.878  0.0433  0.1270  0.1564
  201POPC   C3A 2840   2.681   0.944   6.172 -0.2491  0.0612 -0.2179
  201POPC   C4A 2841   2.992   1.259   6.380 -0.0493 -0.1561  0.1279
  201POPC   C1B 2842   1.466   1.648   5.758  0.1687 -0.0643  0.3059
  201POPC   C2B 2843   1.445   1.520   6.086 -0.0023  0.1820 -0.1876
  201POPC   C3B 2844   1.349   1.461   6.572 -0.0678  0.0413  0.1072
  201POPC   C4B 2845   1.499   1.222   7.012  0.0610  0.2337 -0.2498
  202POPC   NC3 2846   7.131   6.408   3.514  0.1506 -0.3271 -0.1519
  202POPC   PO4 2847   7.621   6.519   3.394  0.0884 -0.0474  0.2381
  202POPC   GL1 2848   7.489   6.691   3.784 -0.1914  0.0561 -0.0323
  202POPC   GL2 2849   7.202   6.701   3.893 -0.0246 -0.3886  0.0378
  202POPC   C1A 2850   7.547   6.457   4.240  0.3662 -0.4392  0.0543
  202POPC   D2A 2851   7.426   6.526   4.679 -0.0063  0.0166 -0.2012
  202POPC   C3A 2852   7.588   6.592   5.045 -0.0503 -0.5387 -0.0773
  202POPC   C4A 2853   7.467   6.396   5.497 -0.2284 -0.0127 -0.1589
  202POPC   C1B 2854   6.991   6.452   4.202  0.2498 -0.0125 -0.3872
  202POPC   C2B 2855   6.970   6.331   4.635 -0.2700 -0.1215 -0.0642
  202POPC   C3B 2856   7.016   6.422   5.130 -0.0564  0.0358 -0.1104
  202POPC   C4B 2857   6.864   6.245   5.484 -0.1997  0.0797  0.1295
  203POPC   NC3 2858   3.064   2.455   4.610  0.0524 -0.1918  0.0157
  203POPC   PO4 2859   3.200   1.982   4.515 -0.0573 -0.3859 -0.0114
  203POPC   GL1 2860   3.576   2.028   4.776  0.0258 -0.3809  0.0116
  203POPC   GL2 2861   3.511   1.753   4.802  0.3781  0.3045  0.2752
  203POPC   C1A 2862   3.664   2.387   4.973 -0.1939 -0.1995  0.0217
  203POPC   D2A 2863   3.836   2.838   5.141 -0.2765  0.1039 -0.0886
  203POPC   C3A 2864   3.849   2.897   5.612  0.1118  0.0492  0.1551
  203POPC   C4A 2865   3.986   2.911   6.024 -0.0337  0.0172  0.0991
  203POPC   C1B 2866   3.672   1.905   5.248 -0.3847  0.0700  0.1665
  203POPC   C2B 2867   3.488   1.981   5.783 -0.0678  0.1402  0.0980
  203POPC   C3B 2868   3.357   2.180   6.143  0.0641  0.1985 -0.2904
  203POPC   C4B 2869   3.527   2.524   6.434  0.0608  0.2125 -0.0759
  204POPC   NC3 2870   0.106   3.838   4.473  0.2195  0.3281 -0.1732
  204POPC   PO4 2871   0.497   3.676   4.607 -0.0651  0.3731 -0.3131
  204POPC   GL1 2872   0.471   4.064   4.912 -0.0490 -0.2698  0.0805
  204POPC   GL2 2873   0.190   4.290   4.760  0.0381 -0.1422  0.0921
  204POPC   C1A 2874   0.474   4.216   5.301 -0.0963 -0.4627  0.0884
  204POPC   D2A 2875   0.616   4.288   5.745 -0.5333 -0.2324 -0.4608
  204POPC   C3A 2876   0.445   4.663   6.010  0.1307 -0.1357  0.1003
  204POPC   C4A 2877   0.098   4.578   6.322 -0.2339 -0.1699 -0.0548
  204POPC   C1B 2878   0.022   4.429   5.187  0.0393 -0.0991  0.1979
  204POPC   C2B 2879  -0.329   4.385   5.470 -0.0070 -0.0255 -0.3613
  204POPC   C3B 2880  -0.347   4.611   5.891  0.2448  0.1997  0.0224
  204POPC   C4B 2881  -0.641   4.959   6.112  0.1285  0.1660 -0.2005
  205POPC   NC3 2882   5.877   6.294   3.940 -0.1154  0.1225 -0.0601
  205POPC   PO4 2883   5.496   6.218   4.075 -0.0134 -0.1517  0.0297
  205POPC   GL1 2884   5.599   6.415   4.461 -0.0144 -0.0450  0.2209
  205POPC   GL2 2885   5.567   6.102   4.570  0.1562 -0.1805  0.0793
  205POPC   C1A 2886   5.669   6.775   4.774 -0.1617 -0.0131  0.1114
  205POPC   D2A 2887   5.770   7.212   4.941  0.2886  0.0316 -0.1076
  205POPC   C3A 2888   5.992   7.198   5.270 -0.0693 -0.0089 -0.0863
  205POPC   C4A 2889   6.185   7.332   5.706  0.2294 -0.0980 -0.2104
  205POPC   C1B 2890   5.710   5.900   4.947  0.2014  0.3487 -0.0297
  205POPC   C2B 2891   5.594   5.670   5.289 -0.2717 -0.0022 -0.2376
  205POPC   C3B 2892   5.468   5.557   5.656 -0.0878  0.5650 -0.2488
  205POPC   C4B 2893   5.439   5.780   6.025  0.1342  0.0973 -0.0233
  206POPC   NC3 2894   6.553   2.983   4.372  0.0831 -0.0358  0.0599
  206POPC   PO4 2895   6.747   2.566   4.536  0.0262  0.0757 -0.2143
  206POPC   GL1 2896   6.424   2.716   4.903  0.1862 -0.2346  0.0096
  206POPC   GL2 2897   6.340   3.142   4.913 -0.0189  0.2295  0.2120
  206POPC   C1A 2898   6.567   2.656   5.315  0.0307 -0.1681 -0.1430
  206POPC   D2A 2899   6.787   2.674   5.701 -0.0308  0.2100  0.1702
  206POPC   C3A 2900   6.602   2.424   5.957 -0.0510 -0.2048  0.0581
  206POPC   C4A 2901   6.217   2.418   6.296 -0.1814  0.2023  0.0678
  206POPC   C1B 2902   6.188   3.446   5.221 -0.1636 -0.6342  0.1543
  206POPC   C2B 2903   6.287   3.418   5.707  0.1075  0.0006 -0.2027
  206POPC   C3B 2904   6.548   3.675   5.992  0.5329 -0.0654 -0.0373
  206POPC   C4B 2905   6.903   3.859   6.051  0.1945  0.1802  0.2631
  207POPC   NC3 2906   3.988   4.170   4.066 -0.0836  0.1460 -0.1791
  207POPC   PO4 2907   3.733   4.281   4.333  0.1394  0.0180  0.0236
  207POPC   GL1 2908   3.754   4.319   4.724  0.0196  0.0809  0.0243
  207POPC   GL2 2909   3.827   4.662   4.801 -0.1283  0.2635 -0.1546
  207POPC   C1A 2910   3.610   4.236   5.118  0.0774  0.1244 -0.0291
  207POPC   D2A 2911   3.689   4.243   5.545 -0.1645  0.3063 -0.0218
  207POPC   C3A 2912   3.916   4.594   5.896 -0.1143 -0.1267  0.0047
  207POPC   C4A 2913   4.161   4.900   6.059  0.1342 -0.4063  0.3622
  207POPC   C1B 2914   3.987   4.553   5.254 -0.0987 -0.0842 -0.3260
  207POPC   C2B 2915   4.192   4.337   5.617 -0.0157  0.2351  0.1035
  207POPC   C3B 2916   4.387   4.460   6.015 -0.2034  0.0048 -0.1935
  207POPC   C4B 2917   4.445   4.597   6.457 -0.0365  0.0545  0.1918
  208POPC   NC3 2918   1.575   7.993   4.568 -0.1627  0.0262 -0.1727
  208POPC   PO4 2919   1.227   7.840   4.467  0.1352  0.2531 -0.0842
  208POPC   GL1 2920   1.124   7.732   4.797  0.1121  0.1313 -0.3511
  208POPC   GL2 2921   0.826   7.922   4.952 -0.0875  0.0103 -0.0729
  208POPC   C1A 2922   1.244   7.729   5.297 -0.1366 -0.3311 -0.2028
  208POPC   D2A 2923   1.577   7.790   5.551 -0.2002 -0.2640 -0.1274
  208POPC   C3A 2924   2.035   7.733   5.460  0.2839  0.1105 -0.2092
  208POPC   C4A 2925   2.429   7.797   5.618  0.0279  0.0399  0.1781
  208POPC   C1B 2926   0.752   7.639   5.325  0.0290 -0.2157 -0.1773
  208POPC   C2B 2927   0.808   7.623   5.741 -0.2801  0.2232  0.0601
  208POPC   C3B 2928   0.784   7.611   6.142 -0.0331  0.1929 -0.0246
  208POPC   C4B 2929   0.520   7.578   6.627  0.0940 -0.3090 -0.0769
  209POPC   NC3 2930   4.177   8.595   4.321 -0.1358 -0.0580 -0.2385
  209POPC   PO4 2931   4.467   8.209   4.329 -0.1223 -0.0617  0.0150
  209POPC   GL1 2932   4.662   8.018   4.729  0.0582 -0.1801  0.1421
  209POPC   GL2 2933   5.052   7.928   4.752 -0.1692 -0.0115  0.0161
  209POPC   C1A 2934   4.627   7.985   5.195 -0.3377  0.1310  0.1545
  209POPC   D2A 2935   4.796   7.804   5.530 -0.1339  0.1893  0.0108
  209POPC   C3A 2936   4.913   7.989   6.021  0.1412 -0.0875  0.0178
  209POPC   C4A 2937   5.261   8.314   6.162 -0.2588  0.2897 -0.3563
  209POPC   C1B 2938   5.152   8.010   5.228 -0.1085  0.0338 -0.1707
  209POPC   C2B 2939   5.292   7.981   5.666  0.0014  0.2055  0.0924
  209POPC   C3B 2940   5.653   8.032   5.892  0.1361 -0.0734 -0.0553
  209POPC   C4B 2941   6.109   8.162   6.135 -0.2372 -0.0906  0.0047
  210POPC   NC3 2942   3.825   3.029   4.178  0.0214  0.0159  0.2453
  210POPC   PO4 2943   4.186   3.058   4.391 -0.0192 -0.2962  0.3645
  210POPC   GL1 2944   4.124   3.020   4.795 -0.2227  0.4297  0.1293
  210POPC   GL2 2945   4.097   3.355   4.895  0.1654 -0.0309  0.0285
  210POPC   C1A 2946   4.360   3.016   5.209 -0.0419  0.2114  0.2283
  210POPC   D2A 2947   4.335   2.961   5.693  0.2332  0.2618  0.0452
  210POPC   C3A 2948   4.410   3.256   5.787  0.0109 -0.0090  0.0905
  210POPC   C4A 2949   4.405   3.311   6.248  0.1116  0.0143  0.1751
  210POPC   C1B 2950   4.094   3.420   5.377 -0.0684  0.2468  0.0056
  210POPC   C2B 2951   3.923   3.413   5.742 -0.0423  0.3328 -0.2425
  210POPC   C3B 2952   3.842   3.526   6.141  0.1710  0.0760  0.0555
  210POPC   C4B 2953   3.844   3.813   6.501 -0.0927  0.1837  0.0822
  211POPC   NC3 2954   9.102   4.363   3.636  0.2955  0.0700 -0.0818
  211POPC   PO4 2955   9.364   4.419   4.032  0.2806  0.0223  0.0011
  211POPC   GL1 2956   8.976   4.485   4.193  0.0374 -0.0302 -0.1257
  211POPC   GL2 2957   9.228   4.485   4.528  0.2248 -0.2089  0.0765
  211POPC   C1A 2958   8.711   4.753   4.332  0.2840  0.2576  0.1299
  211POPC   D2A 2959   8.560   4.989   4.676  0.1212 -0.1834  0.2060
  211POPC   C3A 2960   8.408   5.385   4.499  0.2737 -0.0385 -0.0173
  211POPC   C4A 2961   8.572   5.578   4.093 -0.0831  0.1655 -0.1023
  211POPC   C1B 2962   9.172   4.774   4.790 -0.1910 -0.2547 -0.0322
  211POPC   C2B 2963   8.866   4.887   5.129 -0.0758 -0.1518  0.0657
  211POPC   C3B 2964   8.474   5.282   5.160 -0.1829 -0.1284  0.0242
  211POPC   C4B 2965   8.413   5.550   5.584  0.1683 -0.1601  0.2388
  212POPC   NC3 2966   2.168   2.393   4.567 -0.1308  0.0019  0.0839
  212POPC   PO4 2967   1.728   2.593   4.712 -0.0117  0.0444  0.2119
  212POPC   GL1 2968   1.997   2.521   5.028 -0.5252  0.1389  0.0276
  212POPC   GL2 2969   1.832   2.702   5.229 -0.2741  0.2649 -0.1349
  212POPC   C1A 2970   2.314   2.407   5.284 -0.2990  0.1535  0.0508
  212POPC   D2A 2971   2.392   2.345   5.769 -0.1331 -0.0388  0.1153
  212POPC   C3A 2972   2.176   2.475   6.180  0.1830  0.1518  0.1106
  212POPC   C4A 2973   2.293   2.581   6.703 -0.0680  0.1974  0.0862
  212POPC   C1B 2974   1.818   2.989   5.522 -0.1650  0.1113 -0.0330
  212POPC   C2B 2975   1.458   3.105   5.815 -0.0525  0.3223  0.2537
  212POPC   C3B 2976   1.137   3.021   5.998  0.2038  0.4403 -0.3251
  212POPC   C4B 2977   0.853   2.826   6.214  0.0878 -0.2246  0.0426
  213POPC   NC3 2978   6.009   0.804   4.530 -0.0402 -0.0247 -0.3082
  213POPC   PO4 2979   6.453   0.923   4.739 -0.0261  0.0439 -0.3494
  213POPC   GL1 2980   6.783   1.157   5.002 -0.0509  0.1685 -0.1539
  213POPC   GL2 2981   6.980   1.428   5.004  0.2992 -0.1676 -0.2374
  213POPC   C1A 2982   6.927   1.048   5.404  0.2286  0.4132 -0.2829
  213POPC   D2A 2983   7.018   0.636   5.614  0.1044  0.0562  0.0997
  213POPC   C3A 2984   6.783   0.214   5.444  0.0742  0.2261  0.1433
  213POPC   C4A 2985   6.342   0.069   5.527 -0.5142 -0.0851 -0.1800
  213POPC   C1B 2986   7.088   1.567   5.361  0.3849 -0.1275 -0.2446
  213POPC   C2B 2987   6.913   1.782   5.624 -0.1871  0.1817 -0.3157
  213POPC   C3B 2988   6.781   1.973   6.038 -0.0634  0.0838 -0.2851
  213POPC   C4B 2989   6.958   2.349   6.412 -0.2143 -0.5425 -0.0734
  214POPC   NC3 2990   4.359   7.192   4.607  0.4273 -0.0085 -0.1077
  214POPC   PO4 2991   4.652   7.252   4.292  0.0732  0.0491  0.0487
  214POPC   GL1 2992   4.805   7.403   4.629  0.0047 -0.0319  0.1952
  214POPC   GL2 2993   4.538   7.579   4.886 -0.0980 -0.0386  0.0252
  214POPC   C1A 2994   5.034   7.452   4.930  0.2864  0.0787 -0.0011
  214POPC   D2A 2995   5.119   7.520   5.377  0.0619 -0.0130 -0.0542
  214POPC   C3A 2996   5.036   7.140   5.590 -0.1825  0.5279  0.1883
  214POPC   C4A 2997   4.830   6.959   5.963  0.1646 -0.1073  0.1668
  214POPC   C1B 2998   4.615   7.363   5.362  0.0106  0.2566  0.2348
  214POPC   C2B 2999   4.387   6.976   5.530 -0.0603  0.0262  0.2380
  214POPC   C3B 3000   4.255   6.856   5.756 -0.0554 -0.2463  0.1315
  214POPC   C4B 3001   4.453   6.568   5.886  0.1621 -0.2258  0.0823
  215POPC   NC3 3002   1.649   3.074   4.841  0.0714 -0.1251 -0.2202
  215POPC   PO4 3003   1.161   3.066   4.711  0.1719  0.1661 -0.0251
  215POPC   GL1 3004   0.958   3.356   5.058  0.2126 -0.2333 -0.0121
  215POPC   GL2 3005   0.708   3.460   5.065  0.0648 -0.3335  0.1422
  215POPC   C1A 3006   0.850   3.165   5.456 -0.0694  0.2419  0.0866
  215POPC   D2A 3007   1.021   2.820   5.572  0.1739 -0.1982  0.1018
  215POPC   C3A 3008   1.067   2.554   5.856 -0.0320 -0.0037  0.1403
  215POPC   C4A 3009   1.105   2.171   6.163  0.0159  0.2353 -0.0722
  215POPC   C1B 3010   0.659   3.770   5.346 -0.1386  0.3123  0.0447
  215POPC   C2B 3011   0.464   3.834   5.764  0.1320  0.2671 -0.0372
  215POPC   C3B 3012   0.345   4.094   6.233  0.2829  0.0285  0.2290
  215POPC   C4B 3013   0.372   3.979   6.687  0.0497 -0.2380 -0.0372
  216POPC   NC3 3014   4.166   9.293   3.999 -0.0331  0.2856 -0.0224
  216POPC   PO4 3015   4.434   9.055   4.297  0.3800  0.4191 -0.1558
  216POPC   GL1 3016   4.164   8.996   4.764 -0.0703 -0.0274 -0.2896
  216POPC   GL2 3017   3.818   9.069   4.788  0.1135  0.0261  0.0213
  216POPC   C1A 3018   4.054   8.863   5.215  0.0192 -0.1599  0.3462
  216POPC   D2A 3019   4.228   8.810   5.623 -0.2554 -0.5597 -0.1038
  216POPC   C3A 3020   3.969   8.796   6.036 -0.0008  0.0557 -0.1139
  216POPC   C4A 3021   4.235   8.566   6.368  0.2807 -0.0825  0.0177
  216POPC   C1B 3022   3.763   9.324   5.041 -0.0708 -0.0744  0.0470
  216POPC   C2B 3023   3.650   9.525   5.301  0.0397 -0.0109 -0.1493
  216POPC   C3B 3024   3.608   9.556   5.735  0.1106 -0.2426  0.2933
  216POPC   C4B 3025   4.067   9.762   5.882  0.0174 -0.0334  0.3185
  217POPC   NC3 3026   5.701   2.544   3.623 -0.0033  0.1157 -0.0214
  217POPC   PO4 3027   5.314   2.594   3.892 -0.1584  0.1084 -0.1530
  217POPC   GL1 3028   5.282   2.369   4.321 -0.0358  0.2906  0.2984
  217POPC   GL2 3029   5.543   2.074   4.459  0.0819 -0.2591  0.0762
  217POPC   C1A 3030   5.161   2.062   4.761  0.4734  0.0274 -0.0053
  217POPC   D2A 3031   5.220   2.137   5.145  0.0140  0.1314  0.2879
  217POPC   C3A 3032   5.055   2.423   5.508 -0.3438 -0.2096 -0.3058
  217POPC   C4A 3033   5.105   2.813   5.816  0.0168  0.1555  0.2459
  217POPC   C1B 3034   5.554   2.352   4.784 -0.2001  0.1957 -0.4327
  217POPC   C2B 3035   5.348   2.574   5.041 -0.1995 -0.0442 -0.0050
  217POPC   C3B 3036   5.036   2.804   5.178  0.0504 -0.0273  0.2571
  217POPC   C4B 3037   4.686   2.741   5.434  0.0357 -0.1397 -0.0099
  218POPC   NC3 3038   1.170   7.329   4.108  0.1706  0.2055 -0.0179
  218POPC   PO4 3039   0.973   6.943   4.108 -0.5369 -0.2676 -0.1419
  218POPC   GL1 3040   1.137   7.057   4.557 -0.0330  0.1736 -0.0990
  218POPC   GL2 3041   0.989   6.805   4.699 -0.1669 -0.0185  0.0837
  218POPC   C1A 3042   1.162   7.208   5.043 -0.3282 -0.3872  0.3357
  218POPC   D2A 3043   1.079   7.160   5.551 -0.0186 -0.1176  0.2428
  218POPC   C3A 3044   0.679   7.072   5.864 -0.3102  0.0498  0.1183
  218POPC   C4A 3045   0.178   7.085   6.011 -0.1709  0.0181  0.0629
  218POPC   C1B 3046   0.658   6.736   4.871 -0.1467  0.1806 -0.1636
  218POPC   C2B 3047   0.284   6.731   4.987  0.1066  0.1733 -0.1323
  218POPC   C3B 3048  -0.103   6.436   5.050 -0.0641  0.3711  0.1114
  218POPC   C4B 3049  -0.521   6.337   4.994 -0.1082  0.2140 -0.0183
  219POPC   NC3 3050   4.224   6.699   4.188  0.0100  0.1191 -0.0070
  219POPC   PO4 3051   4.590   6.426   4.474  0.3581 -0.0097  0.3016
  219POPC   GL1 3052   4.674   6.223   4.829 -0.0013 -0.1248  0.2514
  219POPC   GL2 3053   5.056   6.136   4.732  0.2329  0.0311  0.3388
  219POPC   C1A 3054   4.589   5.832   5.036 -0.2142  0.0077 -0.0492
  219POPC   D2A 3055   4.370   5.704   5.409 -0.5816 -0.2133  0.1863
  219POPC   C3A 3056   4.607   5.954   5.747  0.5236 -0.1059 -0.0645
  219POPC   C4A 3057   4.669   6.188   6.146  0.1721 -0.2349  0.0050
  219POPC   C1B 3058   5.217   5.944   5.113 -0.1690 -0.0247  0.1625
  219POPC   C2B 3059   4.945   5.657   5.436 -0.2890  0.0648 -0.2701
  219POPC   C3B 3060   4.899   5.586   5.872  0.0267  0.0240  0.0392
  219POPC   C4B 3061   4.648   5.693   6.215 -0.0223 -0.0973 -0.3372
  220POPC   NC3 3062   2.345   3.705   4.465 -0.1012 -0.0298  0.1281
  220POPC   PO4 3063   1.958   3.870   4.656  0.0675  0.0779  0.1999
  220POPC   GL1 3064   1.985   4.012   5.068 -0.0624  0.1484 -0.4009
  220POPC   GL2 3065   1.810   4.370   5.071 -0.2503  0.1132 -0.0333
  220POPC   C1A 3066   2.137   4.094   5.474  0.1585  0.1921 -0.1296
  220POPC   D2A 3067   2.269   4.072   5.926 -0.1405 -0.3458  0.2152
  220POPC   C3A 3068   2.126   4.289   6.338  0.0316  0.4527  0.2400
  220POPC   C4A 3069   2.335   4.622   6.590 -0.1708  0.2331 -0.1112
  220POPC   C1B 3070   1.984   4.589   5.501  0.0270  0.0977 -0.3321
  220POPC   C2B 3071   1.961   4.508   5.845  0.1937 -0.1981 -0.0389
  220POPC   C3B 3072   1.793   4.658   6.230  0.0431  0.1638  0.0520
  220POPC   C4B 3073   1.780   4.562   6.634 -0.0059  0.3347 -0.1096
  221POPC   NC3 3074   2.690   5.173   4.244  0.0762  0.1341  0.0372
  221POPC   PO4 3075   2.783   5.558   4.402  0.1665  0.0826  0.0500
  221POPC   GL1 3076   2.961   5.440   4.844 -0.0388  0.0670  0.1191
  221POPC   GL2 3077   3.055   5.148   5.028  0.0263 -0.2522  0.1983
  221POPC   C1A 3078   2.907   5.523   5.336  0.3824 -0.0994  0.1619
  221POPC   D2A 3079   2.869   5.458   5.786  0.0800  0.0357 -0.5474
  221POPC   C3A 3080   3.196   5.605   6.139 -0.0094 -0.1600  0.0868
  221POPC   C4A 3081   3.597   5.872   6.000 -0.2277  0.2114  0.0964
  221POPC   C1B 3082   3.245   5.130   5.390  0.1201 -0.0429  0.0313
  221POPC   C2B 3083   3.300   5.148   5.817 -0.3565 -0.0646  0.0884
  221POPC   C3B 3084   3.219   5.071   6.095  0.0416 -0.1204  0.1928
  221POPC   C4B 3085   3.268   4.708   6.302  0.1318  0.1162  0.0493
  222POPC   NC3 3086   6.514   2.075   4.498  0.1063  0.0829 -0.1528
  222POPC   PO4 3087   6.270   2.527   4.390 -0.1551  0.0013 -0.1590
  222POPC   GL1 3088   6.038   2.348   4.720 -0.1840 -0.1146  0.0516
  222POPC   GL2 3089   6.242   2.164   5.043  0.2479 -0.0274  0.0624
  222POPC   C1A 3090   5.958   2.640   4.970 -0.0571 -0.3178 -0.0819
  222POPC   D2A 3091   6.056   2.928   5.333 -0.1552 -0.1532 -0.1029
  222POPC   C3A 3092   6.034   2.890   5.760 -0.3481 -0.0822  0.0454
  222POPC   C4A 3093   5.877   2.648   6.070  0.0754 -0.1431 -0.0102
  222POPC   C1B 3094   6.149   2.427   5.376 -0.2291  0.0250  0.2193
  222POPC   C2B 3095   6.099   2.231   5.851  0.1910 -0.2621  0.0973
  222POPC   C3B 3096   6.257   1.951   6.136  0.1360  0.0916  0.1183
  222POPC   C4B 3097   6.165   1.568   6.461 -0.0042 -0.1592  0.1001
  223POPC   NC3 3098   4.829   2.975   4.402  0.1000  0.1257  0.0508
  223POPC   PO4 3099   4.868   2.581   4.205  0.0327 -0.0015 -0.0671
  223POPC   GL1 3100   4.863   2.498   4.704 -0.1654 -0.1723  0.0407
  223POPC   GL2 3101   4.672   2.834   4.845  0.1581  0.1515  0.0649
  223POPC   C1A 3102   4.793   2.379   5.042 -0.4737 -0.0094  0.1548
  223POPC   D2A 3103   4.631   2.219   5.430 -0.1013  0.0906  0.0806
  223POPC   C3A 3104   4.870   1.969   5.679 -0.1254 -0.1623  0.0813
  223POPC   C4A 3105   4.779   1.766   6.047 -0.0427  0.0900 -0.0595
  223POPC   C1B 3106   4.278   2.540   4.929  0.0917 -0.5350  0.3138
  223POPC   C2B 3107   4.138   2.520   5.441 -0.1023 -0.0211  0.4887
  223POPC   C3B 3108   4.351   2.464   5.883 -0.1198  0.1201  0.0245
  223POPC   C4B 3109   4.736   2.300   6.005 -0.0689  0.1141  0.0953
  224POPC   NC3 3110   9.768   0.749   4.866 -0.1468  0.0489  0.1810
  224POPC   PO4 3111   9.396   0.487   4.797  0.0132  0.1048  0.0730
  224POPC   GL1 3112   9.432   0.314   5.131 -0.0544  0.4534 -0.0381
  224POPC   GL2 3113   9.115   0.372   5.208 -0.1483 -0.0331 -0.0808
  224POPC   C1A 3114   9.430  -0.056   5.283 -0.1027 -0.0443  0.0161
  224POPC   D2A 3115   9.372  -0.202   5.681 -0.1978  0.3244  0.4025
  224POPC   C3A 3116   9.563  -0.566   5.886  0.1590 -0.1719  0.2119
  224POPC   C4A 3117   9.408  -0.772   6.202 -0.4042 -0.1469 -0.4513
  224POPC   C1B 3118   9.079   0.224   5.678  0.1127  0.0278 -0.0107
  224POPC   C2B 3119   9.286   0.235   6.000  0.1646 -0.1656 -0.2592
  224POPC   C3B 3120   9.112   0.167   6.316 -0.0916 -0.0948 -0.0683
  224POPC   C4B 3121   8.861   0.103   6.541  0.2904  0.1097  0.0897
  225POPC   NC3 3122   1.088   8.338   4.715  0.1256 -0.2728 -0.2887
  225POPC   PO4 3123   1.482   8.500   4.583  0.1681 -0.0178 -0.4017
  225POPC   GL1 3124   1.404   8.504   5.047  0.1961 -0.1301  0.2284
  225POPC   GL2 3125   1.264   8.765   5.188  0.1014 -0.1911  0.0907
  225POPC   C1A 3126   1.388   8.378   5.536  0.2027  0.2885  0.0463
  225POPC   D2A 3127   1.545   8.393   5.953 -0.3554  0.1564  0.0688
  225POPC   C3A 3128   1.503   8.309   6.378  0.2560  0.1054 -0.1324
  225POPC   C4A 3129   1.165   8.234   6.695  0.1365 -0.2515  0.2980
  225POPC   C1B 3130   0.923   8.882   5.595  0.0198 -0.0808 -0.1926
  225POPC   C2B 3131   0.709   8.897   6.027 -0.2305 -0.0568  0.1926
  225POPC   C3B 3132   0.280   9.042   6.159 -0.0657  0.1330  0.4219
  225POPC   C4B 3133  -0.146   8.953   6.172 -0.0119 -0.3998  0.1563
  226POPC   NC3 3134   8.925   1.724   4.868  0.0350  0.0682 -0.2418
  226POPC   PO4 3135   8.737   2.025   4.790  0.0477  0.1355 -0.0351
  226POPC   GL1 3136   8.739   1.960   5.282 -0.3060  0.0027  0.0284
  226POPC   GL2 3137   8.932   1.783   5.371 -0.0712 -0.2476  0.0153
  226POPC   C1A 3138   8.669   1.750   5.783  0.0368 -0.1533  0.2347
  226POPC   D2A 3139   8.426   1.538   6.080  0.1299  0.0410 -0.0522
  226POPC   C3A 3140   8.596   1.624   6.520  0.0684  0.0535  0.0968
  226POPC   C4A 3141   8.647   1.878   6.832  0.0522 -0.2445  0.0048
  226POPC   C1B 3142   9.133   2.084   5.637  0.0478 -0.0786  0.0490
  226POPC   C2B 3143   9.128   2.130   6.070 -0.1051  0.0961 -0.1392
  226POPC   C3B 3144   8.786   2.098   6.371  0.0981 -0.0223  0.1390
  226POPC   C4B 3145   8.396   2.262   6.519  0.1420 -0.2275  0.4090
  227POPC   NC3 3146   2.478   5.964   4.762 -0.2869 -0.0720 -0.0836
  227POPC   PO4 3147   2.655   6.379   4.790 -0.2393  0.0478 -0.1401
  227POPC   GL1 3148   2.788   6.456   5.222 -0.1121 -0.1119 -0.3446
  227POPC   GL2 3149   2.886   6.663   5.181 -0.0029  0.1852 -0.0603
  227POPC   C1A 3150   2.912   6.386   5.650  0.3619  0.0927  0.0738
  227POPC   D2A 3151   3.040   6.424   6.046 -0.1171 -0.1314  0.2588
  227POPC   C3A 3152   3.320   6.192   6.253  0.4039 -0.2221 -0.1373
  227POPC   C4A 3153   3.278   5.891   6.584  0.0065  0.0235  0.0712
  227POPC   C1B 3154   2.989   6.890   5.646  0.1578  0.3053 -0.0713
  227POPC   C2B 3155   3.169   6.899   6.001  0.0369  0.1183  0.3553
  227POPC   C3B 3156   3.337   6.959   6.425 -0.1308  0.1431 -0.0761
  227POPC   C4B 3157   3.329   7.329   6.717 -0.0754 -0.2313 -0.0236
  228POPC   NC3 3158   8.794   8.322   3.864 -0.1556  0.0651  0.0266
  228POPC   PO4 3159   8.661   8.652   4.166 -0.0020 -0.2873 -0.2094
  228POPC   GL1 3160   8.515   8.771   4.575  0.2155 -0.0051  0.1148
  228POPC   GL2 3161   8.745   8.479   4.739 -0.1184 -0.0792  0.1277
  228POPC   C1A 3162   8.259   8.637   4.924  0.0305  0.0230 -0.1352
  228POPC   D2A 3163   8.273   8.630   5.328  0.1500  0.0293 -0.0519
  228POPC   C3A 3164   8.073   8.383   5.689 -0.2284  0.2120 -0.2001
  228POPC   C4A 3165   8.068   8.241   6.118  0.1313 -0.2087  0.5323
  228POPC   C1B 3166   9.159   8.281   4.819 -0.1325 -0.2608 -0.2854
  228POPC   C2B 3167   9.267   8.177   5.183 -0.1600  0.0678  0.0152
  228POPC   C3B 3168   9.170   8.308   5.580  0.2053  0.2731 -0.3358
  228POPC   C4B 3169   9.125   8.543   5.882 -0.2118 -0.1474  0.0385
  229POPC   NC3 3170   9.847   8.504   4.025 -0.1086  0.0374 -0.0723
  229POPC   PO4 3171   9.537   8.466   4.246  0.0589 -0.2237  0.1571
  229POPC   GL1 3172   9.579   8.437   4.624 -0.1042  0.3456 -0.1064
  229POPC   GL2 3173   9.407   8.758   4.638 -0.0693 -0.1728  0.0979
  229POPC   C1A 3174   9.766   8.220   5.058  0.1544 -0.0158 -0.3202
  229POPC   D2A 3175   9.666   8.001   5.423 -0.0491  0.0824 -0.1805
  229POPC   C3A 3176   9.552   7.998   5.882 -0.0748  0.0066 -0.1014
  229POPC   C4A 3177   9.590   8.224   6.304 -0.1379  0.5456 -0.4040
  229POPC   C1B 3178   9.413   8.632   5.065 -0.0408  0.4247 -0.0133
  229POPC   C2B 3179   9.596   8.511   5.443  0.0883  0.1757  0.3193
  229POPC   C3B 3180   9.655   8.506   5.847  0.1313  0.0017  0.1533
  229POPC   C4B 3181  10.034   8.365   6.091  0.1822  0.1976 -0.0954
  230POPC   NC3 3182   7.730   4.401   4.187 -0.3994  0.3290 -0.2974
  230POPC   PO4 3183   7.533   3.943   4.298 -0.0663  0.2950  0.2942
  230POPC   GL1 3184   7.517   4.033   4.619 -0.0431 -0.0523  0.0313
  230POPC   GL2 3185   7.843   3.932   4.833 -0.2347 -0.0754  0.1213
  230POPC   C1A 3186   7.287   4.304   4.912  0.4446  0.1316 -0.1302
  230POPC   D2A 3187   7.191   4.480   5.342 -0.1002  0.1691 -0.0253
  230POPC   C3A 3188   7.319   4.418   5.684 -0.0742  0.2061  0.0611
  230POPC   C4A 3189   7.352   4.119   6.052 -0.3137 -0.2507 -0.3718
  230POPC   C1B 3190   7.959   3.812   5.299 -0.0255  0.0537 -0.1370
  230POPC   C2B 3191   7.783   3.966   5.692  0.0089  0.0606  0.0581
  230POPC   C3B 3192   7.888   4.100   6.097 -0.1436  0.3429  0.1682
  230POPC   C4B 3193   7.923   4.331   6.482  0.3196  0.1955  0.0639
  231POPC   NC3 3194   1.171   3.435   4.273  0.1779 -0.3761  0.1202
  231POPC   PO4 3195   1.499   3.556   4.594 -0.0796  0.1868 -0.1161
  231POPC   GL1 3196   1.423   3.879   4.896 -0.0209  0.2653  0.2538
  231POPC   GL2 3197   1.347   3.730   5.104 -0.1772 -0.0241 -0.0227
  231POPC   C1A 3198   1.604   4.039   5.371  0.0657 -0.3560 -0.0197
  231POPC   D2A 3199   1.762   4.009   5.802 -0.1946  0.0400  0.1807
  231POPC   C3A 3200   1.750   3.678   5.985  0.0952  0.2059  0.1278
  231POPC   C4A 3201   1.339   3.433   6.119 -0.1841 -0.2519 -0.0492
  231POPC   C1B 3202   1.147   3.620   5.565 -0.1682  0.0265  0.1392
  231POPC   C2B 3203   0.870   3.529   5.853  0.0543 -0.1588 -0.1801
  231POPC   C3B 3204   0.503   3.475   6.124 -0.0456 -0.2486 -0.0431
  231POPC   C4B 3205   0.116   3.267   6.208  0.0314  0.0770 -0.0310
  232POPC   NC3 3206   7.736   0.904   4.593  0.1379 -0.0223  0.2592
  232POPC   PO4 3207   8.030   0.857   4.885  0.0054 -0.0636  0.0231
  232POPC   GL1 3208   7.920   0.513   4.896  0.1189 -0.0516  0.0646
  232POPC   GL2 3209   7.919   0.152   4.912 -0.1275 -0.1289  0.0854
  232POPC   C1A 3210   7.867   0.211   5.391  0.0413 -0.2226  0.3064
  232POPC   D2A 3211   7.672  -0.151   5.653 -0.1012  0.0509 -0.3059
  232POPC   C3A 3212   7.901  -0.530   5.818  0.0237 -0.2596  0.0272
  232POPC   C4A 3213   8.111  -0.622   5.998  0.5582 -0.4245  0.0035
  232POPC   C1B 3214   7.994  -0.301   5.265 -0.0028 -0.0079  0.0020
  232POPC   C2B 3215   8.211  -0.758   5.311  0.0751 -0.2677  0.1279
  232POPC   C3B 3216   8.514  -1.005   5.081 -0.2878  0.0639 -0.1110
  232POPC   C4B 3217   8.930  -1.057   4.953 -0.0069  0.1549 -0.0219
  233POPC   NC3 3218   6.003   9.011   3.880  0.0432  0.3480  0.3425
  233POPC   PO4 3219   6.021   9.419   4.105 -0.0309 -0.1495  0.0536
  233POPC   GL1 3220   6.263   9.124   4.283 -0.2422 -0.0106 -0.1525
  233POPC   GL2 3221   6.112   8.949   4.534  0.2322 -0.2867  0.3578
  233POPC   C1A 3222   6.631   8.900   4.582 -0.1875 -0.1542  0.3339
  233POPC   D2A 3223   6.987   8.894   4.843 -0.1203  0.0082  0.0672
  233POPC   C3A 3224   7.056   8.778   5.240 -0.0271  0.0700 -0.1802
  233POPC   C4A 3225   7.270   8.600   5.487 -0.2433 -0.1680 -0.2140
  233POPC   C1B 3226   6.078   9.076   4.877 -0.0056 -0.0264 -0.2645
  233POPC   C2B 3227   6.011   9.176   5.371 -0.0982 -0.2262 -0.3611
  233POPC   C3B 3228   5.764   8.977   5.819  0.1255  0.1671 -0.1590
  233POPC   C4B 3229   5.416   8.954   6.166 -0.2406 -0.0367 -0.0200
  234POPC   NC3 3230   2.095   4.399   4.667  0.0791 -0.2041  0.1803
  234POPC   PO4 3231   2.483   4.624   4.742  0.1943  0.2384 -0.1128
  234POPC   GL1 3232   2.727   4.729   5.102 -0.1863 -0.0775  0.1944
  234POPC   GL2 3233   2.676   5.098   5.330  0.0940 -0.2020 -0.3980
  234POPC   C1A 3234   3.016   4.689   5.413 -0.1021  0.1262 -0.0347
  234POPC   D2A 3235   3.173   4.562   5.750  0.0904 -0.1004  0.3716
  234POPC   C3A 3236   2.834   4.386   6.005  0.0994 -0.3435  0.1846
  234POPC   C4A 3237   2.448   4.578   6.016 -0.4665 -0.2302 -0.1577
  234POPC   C1B 3238   2.788   4.971   5.785  0.0378 -0.1168  0.0360
  234POPC   C2B 3239   2.757   4.896   6.183  0.1534 -0.1438 -0.0499
  234POPC   C3B 3240   3.004   4.909   6.624 -0.1098  0.2676 -0.1097
  234POPC   C4B 3241   3.427   4.681   6.845  0.0924  0.0040  0.1381
  235POPC   NC3 3242   3.128   0.955   4.407 -0.1695  0.0199 -0.0684
  235POPC   PO4 3243   3.351   1.162   4.078 -0.1153  0.1863 -0.2705
  235POPC   GL1 3244   3.600   1.155   4.518  0.0111  0.3012  0.0731
  235POPC   GL2 3245   3.387   1.188   4.796  0.3842 -0.2387  0.0744
  235POPC   C1A 3246   3.764   0.882   4.815  0.2189 -0.1080 -0.0892
  235POPC   D2A 3247   3.684   0.663   5.214 -0.0901 -0.0924 -0.0084
  235POPC   C3A 3248   3.954   0.888   5.446 -0.0944  0.0423  0.0847
  235POPC   C4A 3249   4.126   1.062   5.780 -0.0257 -0.3167 -0.2266
  235POPC   C1B 3250   3.487   1.183   5.191  0.0012 -0.2777 -0.0399
  235POPC   C2B 3251   3.495   1.071   5.588 -0.3400  0.0435  0.1902
  235POPC   C3B 3252   3.639   0.721   5.834  0.0307  0.0222 -0.0074
  235POPC   C4B 3253   3.976   0.433   5.977 -0.2206  0.1872 -0.0267
  236POPC   NC3 3254   0.753   4.556   4.129  0.0983  0.0161  0.0989
  236POPC   PO4 3255   1.136   4.580   4.425 -0.0080  0.0582 -0.0453
  236POPC   GL1 3256   1.280   4.467   4.889 -0.0826  0.0292  0.0027
  236POPC   GL2 3257   1.120   4.256   4.858  0.1319 -0.0972  0.2689
  236POPC   C1A 3258   1.379   4.499   5.267  0.0865  0.0076  0.1896
  236POPC   D2A 3259   1.487   4.654   5.766  0.0260  0.0379  0.1466
  236POPC   C3A 3260   1.235   4.914   5.960  0.2084 -0.1080 -0.1774
  236POPC   C4A 3261   0.855   5.069   6.143  0.1540  0.5073 -0.1143
  236POPC   C1B 3262   1.047   4.080   5.311  0.0947  0.0619  0.1000
  236POPC   C2B 3263   1.222   4.151   5.680 -0.2543 -0.1478 -0.0930
  236POPC   C3B 3264   1.291   3.928   6.040  0.0222 -0.0960  0.1604
  236POPC   C4B 3265   1.262   3.800   6.471 -0.0659  0.1984  0.3842
  237POPC   NC3 3266   8.033   6.131   3.189  0.1788  0.1760 -0.0171
  237POPC   PO4 3267   7.631   5.985   3.044 -0.1260 -0.1346 -0.2524
  237POPC   GL1 3268   7.648   5.745   3.475 -0.2659 -0.0647  0.2535
  237POPC   GL2 3269   7.535   6.100   3.630  0.0806  0.0191  0.0608
  237POPC   C1A 3270   7.526   5.614   3.919 -0.0033  0.0269 -0.1488
  237POPC   D2A 3271   7.598   5.502   4.272  0.1074  0.0298  0.0650
  237POPC   C3A 3272   7.723   5.743   4.602 -0.0193  0.1606  0.0430
  237POPC   C4A 3273   7.698   5.732   5.058 -0.2237 -0.0997 -0.0389
  237POPC   C1B 3274   7.806   6.055   3.995  0.2454 -0.0267 -0.3196
  237POPC   C2B 3275   8.072   5.713   4.227  0.2245  0.1772 -0.1900
  237POPC   C3B 3276   8.214   5.824   4.706 -0.4146 -0.1379 -0.0483
  237POPC   C4B 3277   8.359   5.901   5.223  0.1166  0.0692  0.0541
  238POPC   NC3 3278   8.800   0.484   4.304 -0.1861 -0.3146 -0.1101
  238POPC   PO4 3279   8.583   0.010   4.530  0.0243  0.1038  0.2792
  238POPC   GL1 3280   8.458  -0.043   4.938  0.0779  0.4817  0.0098
  238POPC   GL2 3281   8.340   0.100   5.203  0.3831  0.1971 -0.0121
  238POPC   C1A 3282   8.770  -0.052   5.328  0.0097  0.2948 -0.3612
  238POPC   D2A 3283   8.814  -0.173   5.687 -0.1010  0.0684 -0.2120
  238POPC   C3A 3284   8.741   0.094   5.992  0.1232 -0.0470  0.0331
  238POPC   C4A 3285   8.415   0.167   6.336  0.3071  0.1134 -0.0096
  238POPC   C1B 3286   8.335  -0.121   5.576 -0.0568 -0.2565  0.1188
  238POPC   C2B 3287   8.329  -0.150   5.916 -0.1730 -0.0366 -0.0092
  238POPC   C3B 3288   7.968  -0.171   6.131 -0.0051 -0.5584  0.1972
  238POPC   C4B 3289   7.481  -0.207   6.166 -0.1029  0.0795  0.0060
  239POPC   NC3 3290   8.484   0.879   4.690 -0.0469 -0.0884  0.1928
  239POPC   PO4 3291   8.446   0.410   4.785 -0.0301 -0.0997 -0.1636
  239POPC   GL1 3292   8.596   0.508   5.164 -0.0195 -0.0537  0.0150
  239POPC   GL2 3293   8.276   0.656   5.262  0.0158  0.1283 -0.0680
  239POPC   C1A 3294   8.483   0.369   5.593 -0.2561  0.2005 -0.0548
  239POPC   D2A 3295   8.163   0.286   5.907 -0.3792  0.1398 -0.3040
  239POPC   C3A 3296   8.203   0.651   6.233 -0.3320  0.2529  0.0827
  239POPC   C4A 3297   8.077   0.901   6.601 -0.4968 -0.1217 -0.1161
  239POPC   C1B 3298   7.990   0.630   5.580  0.1619 -0.1351 -0.1457
  239POPC   C2B 3299   7.700   0.291   5.845 -0.2003  0.0689 -0.1327
  239POPC   C3B 3300   7.659   0.265   6.236  0.1034 -0.0166 -0.0938
  239POPC   C4B 3301   7.572   0.036   6.577 -0.0508  0.0453  0.4419
  240POPC   NC3 3302   3.249   4.378   4.506 -0.0118 -0.1445  0.4007
  240POPC   PO4 3303   2.857   4.302   4.618  0.1538 -0.2214 -0.0462
  240POPC   GL1 3304   3.078   4.399   5.008  0.0973  0.1019  0.1745
  240POPC   GL2 3305   3.298   4.639   4.882  0.0933  0.0463  0.0024
  240POPC   C1A 3306   3.198   4.249   5.381 -0.2191  0.0734 -0.3330
  240POPC   D2A 3307   3.211   4.073   5.805 -0.0433 -0.0646 -0.0622
  240POPC   C3A 3308   3.548   4.128   6.131  0.0524 -0.1689  0.3684
  240POPC   C4A 3309   3.516   4.241   6.547 -0.0580 -0.0772 -0.1385
  240POPC   C1B 3310   3.487   4.688   5.303  0.2583 -0.2651  0.2923
  240POPC   C2B 3311   3.724   4.980   5.626  0.0539  0.2169  0.3268
  240POPC   C3B 3312   3.717   5.350   5.980 -0.0105 -0.0325 -0.2774
  240POPC   C4B 3313   3.662   5.491   6.410  0.0544 -0.2856  0.1191
  241POPC   NC3 3314   6.579   9.931   4.556 -0.0989  0.2421  0.1006
  241POPC   PO4 3315   6.936  10.004   4.797  0.0574  0.0150  0.2530
  241POPC   GL1 3316   6.515   9.788   5.090  0.0048 -0.0887 -0.0459
  241POPC   GL2 3317   6.300   9.849   4.946  0.0351  0.1586  0.0379
  241POPC   C1A 3318   6.411   9.535   5.422  0.2978  0.1557  0.1665
  241POPC   D2A 3319   6.527   9.647   5.825 -0.1721 -0.2991 -0.0084
  241POPC   C3A 3320   6.553   9.274   6.086  0.0239 -0.3367  0.1931
  241POPC   C4A 3321   6.669   9.057   6.463  0.4512  0.1512  0.1507
  241POPC   C1B 3322   5.976   9.803   5.216 -0.0503 -0.2648  0.2429
  241POPC   C2B 3323   5.915   9.583   5.586  0.0412 -0.0764  0.1932
  241POPC   C3B 3324   6.094   9.389   5.841  0.0589  0.4147 -0.2708
  241POPC   C4B 3325   6.128   9.004   6.261 -0.0846 -0.3753 -0.1965
  242POPC   NC3 3326   6.296   4.204   3.844 -0.1159  0.1395 -0.0401
  242POPC   PO4 3327   6.155   4.437   4.263  0.0470  0.3408  0.0352
  242POPC   GL1 3328   6.370   4.484   4.600  0.0014 -0.3072 -0.2279
  242POPC   GL2 3329   6.763   4.402   4.586 -0.0623  0.1856  0.1821
  242POPC   C1A 3330   6.268   4.522   5.047 -0.0288  0.2494 -0.2112
  242POPC   D2A 3331   6.378   4.451   5.471 -0.2025 -0.2752  0.0342
  242POPC   C3A 3332   6.553   4.669   5.645 -0.0658  0.1531  0.0260
  242POPC   C4A 3333   6.919   4.806   5.716 -0.3282 -0.1864 -0.1589
  242POPC   C1B 3334   6.777   4.376   5.069  0.0345 -0.1479 -0.0922
  242POPC   C2B 3335   6.790   4.238   5.431 -0.2586 -0.0448 -0.0923
  242POPC   C3B 3336   6.618   4.148   5.799  0.3419  0.1124 -0.1297
  242POPC   C4B 3337   6.292   4.203   6.003 -0.4003 -0.0006 -0.2324
  243POPC   NC3 3338   0.674   9.017   4.553 -0.1327  0.0123 -0.0139
  243POPC   PO4 3339   0.307   8.814   4.633 -0.0319  0.3287 -0.1737
  243POPC   GL1 3340   0.092   8.584   4.910 -0.0998 -0.0481  0.0251
  243POPC   GL2 3341  -0.071   8.744   5.019  0.2873  0.1320 -0.1326
  243POPC   C1A 3342   0.101   8.417   5.438  0.3927  0.3708 -0.1977
  243POPC   D2A 3343   0.345   8.625   5.777  0.1985  0.0473  0.2790
  243POPC   C3A 3344   0.486   8.494   6.219  0.0610 -0.3085 -0.1081
  243POPC   C4A 3345   0.420   8.449   6.696  0.0588 -0.2079  0.0006
  243POPC   C1B 3346  -0.331   8.995   5.368 -0.0495 -0.0934  0.1242
  243POPC   C2B 3347  -0.527   8.946   5.800 -0.0288  0.1127 -0.0095
  243POPC   C3B 3348  -0.950   8.999   6.008  0.2438 -0.1070 -0.1180
  243POPC   C4B 3349  -1.323   9.122   6.062 -0.0998  0.2297 -0.0092
  244POPC   NC3 3350   3.964   5.864   4.027  0.0224 -0.0750  0.0807
  244POPC   PO4 3351   4.153   5.677   4.446  0.0758 -0.2997  0.0311
  244POPC   GL1 3352   4.222   5.477   4.838  0.0590 -0.2233 -0.0829
  244POPC   GL2 3353   4.107   5.670   5.002 -0.2759 -0.0401 -0.1571
  244POPC   C1A 3354   4.589   5.318   5.122 -0.0964 -0.2067  0.2820
  244POPC   D2A 3355   4.645   5.211   5.552 -0.0510 -0.0552 -0.3652
  244POPC   C3A 3356   4.516   5.222   5.935  0.0692 -0.0929 -0.0203
  244POPC   C4A 3357   4.579   5.146   6.318 -0.0671 -0.0140  0.2945
  244POPC   C1B 3358   4.048   6.040   5.254  0.0999  0.0930 -0.2408
  244POPC   C2B 3359   4.103   6.098   5.638 -0.1363  0.0317  0.0521
  244POPC   C3B 3360   4.201   6.186   6.038 -0.1503 -0.0175 -0.1398
  244POPC   C4B 3361   3.849   6.249   6.369  0.0922  0.2839 -0.1248
  245POPC   NC3 3362   7.403   7.024   3.388 -0.2052  0.0568  0.0460
  245POPC   PO4 3363   6.925   6.998   3.504 -0.1905  0.1832  0.2004
  245POPC   GL1 3364   6.770   6.836   3.868  0.1808 -0.3065 -0.2258
  245POPC   GL2 3365   6.874   7.079   4.032  0.1095 -0.0954  0.1265
  245POPC   C1A 3366   6.534   6.648   4.210 -0.1850  0.1788 -0.0529
  245POPC   D2A 3367   6.172   6.487   4.254  0.2194 -0.1209 -0.2926
  245POPC   C3A 3368   6.048   6.471   4.648  0.1099  0.1706 -0.2087
  245POPC   C4A 3369   5.945   6.346   4.986  0.0639  0.0793  0.0686
  245POPC   C1B 3370   6.568   7.197   4.426 -0.0840  0.0103 -0.0914
  245POPC   C2B 3371   6.301   7.439   4.804 -0.0858 -0.0454  0.3030
  245POPC   C3B 3372   6.524   7.303   5.223 -0.1115 -0.1971  0.1977
  245POPC   C4B 3373   6.618   7.096   5.546  0.0738  0.1247  0.1062
  246POPC   NC3 3374   7.863   3.531   4.475  0.1758  0.2008 -0.3409
  246POPC   PO4 3375   8.197   3.478   4.741  0.1040 -0.0188 -0.2146
  246POPC   GL1 3376   8.515   3.593   5.100  0.1519  0.2347  0.2677
  246POPC   GL2 3377   8.477   3.303   5.157 -0.3013 -0.0003  0.1531
  246POPC   C1A 3378   8.432   3.736   5.470 -0.0873  0.0739 -0.2084
  246POPC   D2A 3379   8.321   3.683   6.050  0.3120 -0.0571 -0.1838
  246POPC   C3A 3380   8.612   3.608   6.382  0.2534  0.0317  0.1716
  246POPC   C4A 3381   8.738   3.140   6.573  0.0921  0.0329 -0.0351
  246POPC   C1B 3382   8.663   3.389   5.649  0.0560  0.1659  0.0477
  246POPC   C2B 3383   8.576   3.233   6.080  0.0191 -0.0108  0.2175
  246POPC   C3B 3384   8.263   3.194   6.397  0.0009 -0.1078 -0.1244
  246POPC   C4B 3385   7.965   3.304   6.640 -0.1097  0.1660 -0.0906
  247POPC   NC3 3386   8.500   9.176   4.221  0.2319 -0.0994 -0.0748
  247POPC   PO4 3387   8.839   9.564   4.372  0.2955  0.0157 -0.2716
  247POPC   GL1 3388   8.833   9.582   4.789  0.2559 -0.1476 -0.1204
  247POPC   GL2 3389   9.010   9.711   4.927 -0.0375 -0.2765  0.1655
  247POPC   C1A 3390   8.642   9.488   5.228 -0.0700 -0.0530 -0.2318
  247POPC   D2A 3391   8.487   9.374   5.677 -0.1151 -0.1898 -0.0715
  247POPC   C3A 3392   8.271   8.956   5.715 -0.2493 -0.1440  0.2560
  247POPC   C4A 3393   8.115   8.837   6.096  0.6161 -0.2989 -0.0973
  247POPC   C1B 3394   9.123   9.535   5.254  0.0570 -0.1686 -0.0598
  247POPC   C2B 3395   9.038   9.385   5.646  0.5269 -0.0224  0.0199
  247POPC   C3B 3396   9.063   9.595   6.114  0.1479  0.1075 -0.1011
  247POPC   C4B 3397   9.049   9.691   6.467  0.1409  0.2391 -0.0462
  248POPC   NC3 3398   5.174   7.194   4.202  0.1426  0.0047 -0.3092
  248POPC   PO4 3399   5.305   6.774   4.159 -0.2926 -0.1051  0.3080
  248POPC   GL1 3400   5.242   6.727   4.559 -0.1187  0.1838  0.0860
  248POPC   GL2 3401   4.942   6.802   4.673 -0.0728  0.2850 -0.1469
  248POPC   C1A 3402   5.373   6.451   4.988 -0.3826  0.0765 -0.3159
  248POPC   D2A 3403   5.509   6.258   5.329  0.3196 -0.3389  0.0108
  248POPC   C3A 3404   5.903   6.445   5.600 -0.1736 -0.0199 -0.2147
  248POPC   C4A 3405   6.148   6.816   5.556  0.3610  0.0755 -0.1830
  248POPC   C1B 3406   4.815   6.553   5.121 -0.0623 -0.1000 -0.0520
  248POPC   C2B 3407   4.770   6.634   5.527  0.1598 -0.0051 -0.0697
  248POPC   C3B 3408   4.998   6.549   5.825  0.2603 -0.2637 -0.2723
  248POPC   C4B 3409   5.478   6.337   5.831  0.0173  0.3216 -0.1038
  249POPC   NC3 3410   4.496   5.339   4.401 -0.4216 -0.1213 -0.1078
  249POPC   PO4 3411   4.384   4.935   4.364  0.1159  0.1690 -0.0196
  249POPC   GL1 3412   4.545   5.005   4.767  0.3611  0.1883 -0.3613
  249POPC   GL2 3413   4.811   4.850   4.820 -0.0759 -0.0126 -0.0132
  249POPC   C1A 3414   4.463   4.731   5.205  0.1326  0.0056  0.0929
  249POPC   D2A 3415   4.366   4.824   5.550  0.2744 -0.1319  0.0853
  249POPC   C3A 3416   4.167   5.271   5.598  0.0574  0.1861 -0.2985
  249POPC   C4A 3417   4.161   5.635   5.866 -0.1643 -0.1694  0.2398
  249POPC   C1B 3418   4.945   4.816   5.229  0.0223 -0.2946  0.0455
  249POPC   C2B 3419   4.932   4.765   5.677  0.2796  0.1475 -0.1053
  249POPC   C3B 3420   4.922   4.587   6.095 -0.0412 -0.1321  0.0411
  249POPC   C4B 3421   4.766   4.247   6.302 -0.2036  0.1142  0.2239
  250POPC   NC3 3422   2.589   5.127   4.776 -0.3573  0.3216  0.0074
  250POPC   PO4 3423   2.419   5.480   4.736 -0.0834  0.0061  0.0006
  250POPC   GL1 3424   2.382   5.497   5.181  0.3103 -0.1264  0.1882
  250POPC   GL2 3425   2.045   5.306   5.157 -0.0458  0.2889  0.3747
  250POPC   C1A 3426   2.385   5.490   5.673 -0.1720  0.4196  0.1168
  250POPC   D2A 3427   2.520   5.738   6.016 -0.2583 -0.0827 -0.0784
  250POPC   C3A 3428   2.587   5.449   6.319 -0.0633  0.0530 -0.0387
  250POPC   C4A 3429   2.642   5.275   6.691 -0.1207  0.0853  0.0083
  250POPC   C1B 3430   2.223   5.030   5.504  0.2412 -0.0363 -0.2538
  250POPC   C2B 3431   2.374   5.089   5.999  0.2171  0.0274 -0.0593
  250POPC   C3B 3432   2.099   4.977   6.399  0.1179 -0.1727  0.0256
  250POPC   C4B 3433   2.013   5.032   6.769 -0.3513 -0.0621  0.0192
  251POPC   NC3 3434   1.718   0.094   4.985 -0.0107 -0.1368  0.1067
  251POPC   PO4 3435   1.827   0.404   4.878  0.2431 -0.3154  0.1738
  251POPC   GL1 3436   1.907   0.495   5.321  0.0768  0.1109  0.1920
  251POPC   GL2 3437   1.941   0.818   5.297  0.0172  0.1576  0.0402
  251POPC   C1A 3438   1.970   0.464   5.776  0.4969  0.1267  0.0798
  251POPC   D2A 3439   1.848   0.852   5.978 -0.1682 -0.0380  0.1448
  251POPC   C3A 3440   2.073   0.823   6.416  0.2303 -0.1000  0.1141
  251POPC   C4A 3441   2.409   0.604   6.571 -0.0007  0.1598 -0.2212
  251POPC   C1B 3442   2.340   0.761   5.394  0.1535 -0.0096  0.0087
  251POPC   C2B 3443   2.727   0.863   5.484 -0.1361  0.0591  0.0632
  251POPC   C3B 3444   3.112   0.811   5.346  0.0399 -0.0339 -0.1333
  251POPC   C4B 3445   3.267   0.698   4.959 -0.2297 -0.2952 -0.1863
  252POPC   NC3 3446   9.808   9.795   4.461  0.0755  0.1131  0.0189
  252POPC   PO4 3447  10.256   9.771   4.422 -0.1067  0.1299 -0.1463
  252POPC   GL1 3448  10.064   9.913   4.881 -0.0056 -0.3165 -0.2244
  252POPC   GL2 3449   9.913  10.194   4.887 -0.0833  0.0685  0.1059
  252POPC   C1A 3450  10.180   9.766   5.184  0.0809 -0.0108  0.2260
  252POPC   D2A 3451  10.220   9.689   5.651  0.1891  0.1890 -0.0687
  252POPC   C3A 3452  10.041   9.342   5.880 -0.1432  0.1651  0.1406
  252POPC   C4A 3453   9.976   8.948   5.683 -0.0669  0.3780 -0.0240
  252POPC   C1B 3454  10.019  10.276   5.398  0.0152 -0.1434 -0.0276
  252POPC   C2B 3455   9.721  10.544   5.515 -0.1764  0.3198 -0.0350
  252POPC   C3B 3456   9.409  10.702   5.763 -0.2019 -0.0385  0.2575
  252POPC   C4B 3457   9.138  10.676   6.015  0.0389 -0.1338 -0.2665
  253POPC   NC3 3458   2.036   3.268   4.578  0.1881 -0.0595 -0.2853
  253POPC   PO4 3459   2.170   2.890   4.632  0.1439 -0.0923  0.0100
  253POPC   GL1 3460   2.465   3.250   4.867  0.0865 -0.2934  0.1352
  253POPC   GL2 3461   2.314   3.498   4.946 -0.0659  0.0050  0.3402
  253POPC   C1A 3462   2.718   3.191   5.244 -0.3455  0.2035  0.1265
  253POPC   D2A 3463   2.987   2.985   5.550 -0.0245 -0.0697 -0.0192
  253POPC   C3A 3464   2.727   2.839   5.868 -0.0424  0.0763  0.0445
  253POPC   C4A 3465   2.233   2.933   5.888 -0.3312  0.0088 -0.2912
  253POPC   C1B 3466   2.463   3.704   5.337  0.2505 -0.2174  0.0246
  253POPC   C2B 3467   2.654   3.876   5.663  0.2765  0.2771  0.1530
  253POPC   C3B 3468   2.760   3.870   6.092  0.1018 -0.2595  0.0870
  253POPC   C4B 3469   2.578   4.058   6.498 -0.2131  0.0085  0.0173
  254POPC   NC3 3470   8.374   3.511   4.288 -0.2133 -0.1971 -0.3575
  254POPC   PO4 3471   8.489   3.916   4.049  0.2376 -0.2013  0.0250
  254POPC   GL1 3472   8.557   4.283   4.401  0.2442 -0.0619 -0.0748
  254POPC   GL2 3473   8.757   4.337   4.684  0.1167  0.1032 -0.0575
  254POPC   C1A 3474   8.281   4.619   4.531 -0.0535 -0.3259  0.1978
  254POPC   D2A 3475   7.883   4.520   4.699 -0.1731 -0.0532 -0.3172
  254POPC   C3A 3476   7.588   4.771   4.787  0.1637 -0.3179 -0.4644
  254POPC   C4A 3477   7.106   4.776   4.750 -0.1493  0.0950  0.2176
  254POPC   C1B 3478   8.798   4.433   5.046  0.2624  0.0036  0.1876
  254POPC   C2B 3479   8.748   4.600   5.479 -0.2408  0.0053  0.0683
  254POPC   C3B 3480   8.619   4.646   5.888 -0.1345 -0.3553 -0.0552
  254POPC   C4B 3481   8.201   4.543   6.046 -0.0584 -0.0342 -0.1530
  255POPC   NC3 3482   3.613   3.815   4.474  0.0733 -0.0919  0.3358
  255POPC   PO4 3483   3.308   3.600   4.455 -0.0501 -0.1277 -0.1437
  255POPC   GL1 3484   3.367   3.532   4.930 -0.0746  0.0693  0.0802
  255POPC   GL2 3485   3.654   3.296   5.113 -0.2206 -0.1309 -0.2382
  255POPC   C1A 3486   3.136   3.494   5.285  0.0424 -0.0922 -0.0952
  255POPC   D2A 3487   3.055   3.491   5.700 -0.4173 -0.0414  0.3944
  255POPC   C3A 3488   2.619   3.435   5.877  0.3422 -0.1134  0.0290
  255POPC   C4A 3489   2.323   3.620   6.109 -0.3564  0.0304 -0.1900
  255POPC   C1B 3490   3.458   3.199   5.500  0.4408 -0.0236 -0.1194
  255POPC   C2B 3491   3.479   3.198   5.989  0.1127 -0.0850 -0.1507
  255POPC   C3B 3492   3.369   3.122   6.352 -0.0834 -0.2892  0.1369
  255POPC   C4B 3493   3.243   3.259   6.695 -0.0147 -0.1430  0.1000
  256POPC   NC3 3494   5.573   7.120   3.846 -0.0101 -0.1018 -0.0955
  256POPC   PO4 3495   5.952   7.315   3.839  0.0496  0.0931  0.0053
  256POPC   GL1 3496   5.776   7.339   4.234  0.1195 -0.2996  0.1922
  256POPC   GL2 3497   5.669   7.093   4.363 -0.1822 -0.2853 -0.1901
  256POPC   C1A 3498   5.773   7.630   4.611 -0.0763 -0.0782  0.1310
  256POPC   D2A 3499   6.025   7.753   4.992  0.0645  0.0551 -0.2009
  256POPC   C3A 3500   6.172   7.767   5.337 -0.0484 -0.2083  0.0882
  256POPC   C4A 3501   6.524   7.841   5.612 -0.3209 -0.2229 -0.1282
  256POPC   C1B 3502   6.071   7.005   4.532 -0.1568 -0.2195  0.0030
  256POPC   C2B 3503   6.170   6.894   4.936  0.0425  0.1150 -0.1614
  256POPC   C3B 3504   5.737   6.794   5.257 -0.0770  0.1109  0.1677
  256POPC   C4B 3505   5.484   7.208   5.372  0.0142 -0.2104 -0.0543
  257POPC   NC3 3506   8.020   7.586   3.548  0.0528  0.0633  0.0697
  257POPC   PO4 3507   7.654   7.683   3.746  0.3069  0.0540  0.0870
  257POPC   GL1 3508   7.592   7.300   3.812  0.1204 -0.1180  0.1098
  257POPC   GL2 3509   7.408   7.174   3.883 -0.0251  0.0102  0.2817
  257POPC   C1A 3510   7.775   6.949   4.131 -0.3778 -0.0458 -0.0226
  257POPC   D2A 3511   7.733   6.890   4.608 -0.2040 -0.3269  0.6343
  257POPC   C3A 3512   7.386   7.088   4.781 -0.1608  0.1864 -0.0591
  257POPC   C4A 3513   7.326   7.428   5.129  0.0283  0.1935 -0.1476
  257POPC   C1B 3514   7.283   7.013   4.251 -0.1848  0.3043  0.1539
  257POPC   C2B 3515   7.031   6.881   4.516  0.0936 -0.0818 -0.0748
  257POPC   C3B 3516   6.673   6.732   4.769  0.2726 -0.4413  0.2679
  257POPC   C4B 3517   6.633   6.748   5.189  0.0027  0.1775  0.1537
  258POPC   NC3 3518   2.908   7.996   4.689 -0.2372  0.0344 -0.3525
  258POPC   PO4 3519   2.434   7.923   4.413  0.1103  0.3129  0.1634
  258POPC   GL1 3520   2.425   7.609   4.839  0.1145  0.2025  0.1749
  258POPC   GL2 3521   2.621   7.776   4.978 -0.0445 -0.1588  0.3179
  258POPC   C1A 3522   2.262   7.390   5.174  0.0964  0.3596 -0.1594
  258POPC   D2A 3523   2.047   7.214   5.529  0.2935 -0.1615 -0.2501
  258POPC   C3A 3524   1.951   7.445   5.870  0.0267 -0.0008 -0.2926
  258POPC   C4A 3525   2.160   7.656   6.226  0.3228 -0.1655 -0.4049
  258POPC   C1B 3526   2.818   7.624   5.273 -0.3218 -0.0829  0.1656
  258POPC   C2B 3527   2.869   7.633   5.796  0.0566 -0.1393  0.1610
  258POPC   C3B 3528   2.670   7.610   6.238  0.2733 -0.1391 -0.1440
  258POPC   C4B 3529   2.890   7.598   6.675  0.2225 -0.1354 -0.3823
  259POPC   NC3 3530   1.211   9.434   4.391 -0.2839 -0.1226 -0.2486
  259POPC   PO4 3531   1.486   9.697   4.782  0.1354 -0.1350  0.1158
  259POPC   GL1 3532   1.503   9.492   5.128 -0.0033  0.2164  0.2846
  259POPC   GL2 3533   1.424   9.692   5.330  0.0841  0.2652 -0.0030
  259POPC   C1A 3534   1.568   9.147   5.308  0.0005 -0.1260  0.0497
  259POPC   D2A 3535   1.579   9.002   5.783 -0.1206 -0.2732  0.3069
  259POPC   C3A 3536   1.270   8.841   5.950  0.0158  0.2521 -0.0810
  259POPC   C4A 3537   0.953   8.459   5.884 -0.0697 -0.1510  0.1443
  259POPC   C1B 3538   1.470   9.525   5.681  0.0592 -0.0283  0.0971
  259POPC   C2B 3539   1.658   9.472   6.078  0.1750  0.0982  0.1459
  259POPC   C3B 3540   1.623   9.366   6.515  0.0182 -0.0927 -0.0671
  259POPC   C4B 3541   1.288   9.283   6.735 -0.0255  0.0462  0.1681
  260POPC   NC3 3542   1.110   5.014   4.587 -0.2157 -0.3707  0.1357
  260POPC   PO4 3543   1.351   5.263   4.389  0.1053 -0.1530  0.0770
  260POPC   GL1 3544   1.336   5.420   4.852  0.0495 -0.0161 -0.2266
  260POPC   GL2 3545   1.112   5.493   5.017  0.3624  0.2229 -0.3039
  260POPC   C1A 3546   1.492   5.457   5.366 -0.0076 -0.1890 -0.1213
  260POPC   D2A 3547   1.909   5.564   5.539  0.0102 -0.1237  0.2417
  260POPC   C3A 3548   2.087   5.839   5.383 -0.1792  0.1390 -0.2072
  260POPC   C4A 3549   2.561   5.991   5.538 -0.0919  0.1983  0.4588
  260POPC   C1B 3550   0.913   5.753   5.427 -0.1147 -0.1873 -0.0400
  260POPC   C2B 3551   0.755   5.762   5.879  0.0399  0.1401  0.0776
  260POPC   C3B 3552   0.832   5.651   6.233  0.0399 -0.1508 -0.0591
  260POPC   C4B 3553   0.815   5.571   6.672 -0.1551  0.1332  0.1847
  261POPC   NC3 3554   8.322   6.834   2.786  0.2667 -0.0987  0.2554
  261POPC   PO4 3555   8.397   7.075   3.295  0.0240 -0.1164 -0.0219
  261POPC   GL1 3556   8.681   7.180   3.640 -0.1654 -0.0168  0.1882
  261POPC   GL2 3557   8.394   7.333   3.805  0.0569  0.4602  0.3184
  261POPC   C1A 3558   9.026   7.013   3.968 -0.3266  0.2261  0.1256
  261POPC   D2A 3559   9.420   7.173   4.238 -0.1989 -0.2302  0.0646
  261POPC   C3A 3560   9.647   6.950   4.522 -0.1372  0.2585  0.1048
  261POPC   C4A 3561   9.688   6.888   4.945  0.0986  0.0501 -0.2933
  261POPC   C1B 3562   8.110   7.336   4.164  0.0817  0.1292 -0.2297
  261POPC   C2B 3563   8.313   7.183   4.507  0.2890 -0.1040  0.0689
  261POPC   C3B 3564   8.283   6.965   4.875  0.1607  0.0866 -0.1674
  261POPC   C4B 3565   8.000   6.814   5.092 -0.0761  0.4349 -0.2692
  262POPC   NC3 3566   7.897   8.714   3.866 -0.2038  0.0421  0.1851
  262POPC   PO4 3567   8.138   8.831   4.121 -0.2891 -0.1212  0.0526
  262POPC   GL1 3568   8.024   8.712   4.481  0.0821 -0.1818  0.1090
  262POPC   GL2 3569   8.119   9.064   4.647 -0.0416  0.3918  0.0670
  262POPC   C1A 3570   7.867   8.354   4.624 -0.1077 -0.1307  0.0827
  262POPC   D2A 3571   7.510   8.184   4.801 -0.0585  0.4383 -0.1208
  262POPC   C3A 3572   7.299   8.134   5.296 -0.3530 -0.0039  0.3236
  262POPC   C4A 3573   7.201   8.116   5.720  0.0577 -0.0067  0.1660
  262POPC   C1B 3574   7.892   8.992   4.998 -0.1473  0.1205  0.3451
  262POPC   C2B 3575   7.783   8.819   5.374 -0.1852 -0.0400 -0.0974
  262POPC   C3B 3576   7.738   8.937   5.730  0.0125  0.4655 -0.2187
  262POPC   C4B 3577   7.320   8.954   5.897 -0.1913  0.3701  0.0048
  263POPC   NC3 3578   3.149   1.465   4.507  0.0189  0.2680 -0.3756
  263POPC   PO4 3579   2.895   1.271   4.695 -0.1733  0.1918 -0.1339
  263POPC   GL1 3580   2.967   1.245   5.149  0.0743 -0.0777  0.0864
  263POPC   GL2 3581   3.131   1.609   5.166 -0.0460  0.1821  0.1396
  263POPC   C1A 3582   2.863   1.304   5.556 -0.1164 -0.0696 -0.0921
  263POPC   D2A 3583   2.652   1.381   5.881  0.0355 -0.3028  0.1752
  263POPC   C3A 3584   2.334   1.635   5.695  0.5288  0.2540 -0.1220
  263POPC   C4A 3585   2.300   1.955   5.502 -0.0475 -0.0197  0.0601
  263POPC   C1B 3586   3.347   1.544   5.540  0.0127  0.0118 -0.1552
  263POPC   C2B 3587   3.676   1.461   5.860 -0.3938 -0.2207 -0.1239
  263POPC   C3B 3588   3.980   1.412   6.179 -0.0854  0.1553  0.1540
  263POPC   C4B 3589   4.083   1.605   6.531  0.0980 -0.3084 -0.1475
  264POPC   NC3 3590   0.396   6.656   3.996 -0.1130 -0.1173  0.1427
  264POPC   PO4 3591  -0.043   6.590   3.917 -0.1742 -0.2090 -0.2292
  264POPC   GL1 3592   0.013   6.673   4.335  0.0220  0.0406  0.1248
  264POPC   GL2 3593   0.174   6.534   4.540  0.2001  0.0702 -0.0786
  264POPC   C1A 3594   0.146   7.060   4.639 -0.0221  0.1142  0.0175
  264POPC   D2A 3595   0.084   7.231   5.003 -0.0422 -0.0709  0.4030
  264POPC   C3A 3596   0.276   7.491   5.244 -0.0366 -0.2410  0.2490
  264POPC   C4A 3597   0.371   7.427   5.689 -0.1222  0.0362 -0.0027
  264POPC   C1B 3598  -0.134   6.182   4.626 -0.3209  0.1511 -0.2641
  264POPC   C2B 3599  -0.450   5.886   4.723  0.2199 -0.5685 -0.1706
  264POPC   C3B 3600  -0.812   5.832   4.953  0.2406 -0.0105  0.1768
  264POPC   C4B 3601  -1.272   5.690   4.963  0.2903 -0.0598  0.0289
  265POPC   NC3 3602   2.056   9.568   4.833  0.0507 -0.0882  0.1306
  265POPC   PO4 3603   2.213   9.179   4.645  0.1405  0.0402  0.0378
  265POPC   GL1 3604   2.232   8.928   5.038  0.0917  0.0923 -0.3043
  265POPC   GL2 3605   2.143   9.166   5.203  0.1077 -0.1352  0.2183
  265POPC   C1A 3606   2.344   8.725   5.493  0.1477 -0.0745 -0.2175
  265POPC   D2A 3607   2.398   8.321   5.727  0.0397  0.1302 -0.0886
  265POPC   C3A 3608   2.246   8.208   6.040  0.0514 -0.0286  0.0683
  265POPC   C4A 3609   2.001   8.220   6.409 -0.0288 -0.0066  0.3873
  265POPC   C1B 3610   2.495   9.152   5.577 -0.1619 -0.2716 -0.3708
  265POPC   C2B 3611   2.656   9.209   5.974  0.0053  0.2498 -0.0686
  265POPC   C3B 3612   2.699   9.391   6.344  0.1446  0.0490  0.0363
  265POPC   C4B 3613   2.441   9.639   6.622 -0.0651  0.0606 -0.0708
  266POPC   NC3 3614   9.612   3.108   4.732 -0.0262  0.0175 -0.0346
  266POPC   PO4 3615   9.131   2.835   4.573  0.3879 -0.0672  0.2344
  266POPC   GL1 3616   9.176   3.100   5.017 -0.0003 -0.0507  0.2240
  266POPC   GL2 3617   9.003   3.354   5.023  0.0244  0.0339  0.1959
  266POPC   C1A 3618   8.884   2.909   5.451 -0.0705  0.1446  0.0102
  266POPC   D2A 3619   8.615   2.462   5.477  0.0892  0.1061 -0.2119
  266POPC   C3A 3620   8.191   2.439   5.357 -0.1317  0.2441  0.2059
  266POPC   C4A 3621   7.804   2.197   5.212 -0.1321  0.1009 -0.0086
  266POPC   C1B 3622   9.098   3.587   5.358  0.3876 -0.4156 -0.0179
  266POPC   C2B 3623   9.121   3.661   5.843 -0.1762 -0.0116 -0.1336
  266POPC   C3B 3624   9.061   3.522   6.256  0.0476 -0.1815 -0.1843
  266POPC   C4B 3625   9.062   3.426   6.771 -0.2348  0.1233  0.4086
  267POPC   NC3 3626   5.126   8.449   3.901 -0.2928 -0.1106 -0.1597
  267POPC   PO4 3627   5.367   8.536   4.192 -0.3172  0.0501  0.0807
  267POPC   GL1 3628   5.167   8.826   4.510  0.2046 -0.0303 -0.0757
  267POPC   GL2 3629   4.857   8.944   4.531 -0.3145 -0.0371  0.1302
  267POPC   C1A 3630   5.180   8.863   4.937 -0.3147  0.0247  0.0108
  267POPC   D2A 3631   5.213   8.631   5.324 -0.2798  0.0565 -0.0479
  267POPC   C3A 3632   5.429   8.456   5.726 -0.1850 -0.2366 -0.1075
  267POPC   C4A 3633   5.702   8.561   6.153 -0.1019 -0.3902  0.1463
  267POPC   C1B 3634   4.691   9.119   4.902  0.0014 -0.0170  0.0950
  267POPC   C2B 3635   4.527   8.940   5.222  0.0833 -0.0099 -0.0368
  267POPC   C3B 3636   4.670   8.644   5.578 -0.1780 -0.0144 -0.0337
  267POPC   C4B 3637   4.912   8.328   5.643 -0.0136 -0.2413 -0.1503
  268POPC   NC3 3638   7.008   3.918   4.451 -0.1768 -0.1473  0.0711
  268POPC   PO4 3639   6.705   3.635   4.259 -0.0809 -0.0378  0.1721
  268POPC   GL1 3640   6.593   3.617   4.689 -0.3948  0.1508  0.1896
  268POPC   GL2 3641   6.627   3.971   4.799 -0.0008 -0.1750  0.0520
  268POPC   C1A 3642   6.650   3.578   5.139 -0.2707 -0.0184  0.0675
  268POPC   D2A 3643   6.716   3.700   5.532 -0.1960  0.1964  0.1044
  268POPC   C3A 3644   7.148   3.800   5.614  0.0611  0.2667 -0.3092
  268POPC   C4A 3645   7.410   3.702   5.834 -0.0301  0.2716  0.4385
  268POPC   C1B 3646   6.340   3.990   5.110 -0.0966 -0.3482 -0.2689
  268POPC   C2B 3647   6.230   3.867   5.538  0.1137 -0.0806 -0.0085
  268POPC   C3B 3648   6.026   3.764   5.921 -0.0004  0.0828 -0.0936
  268POPC   C4B 3649   6.135   3.849   6.320 -0.0202  0.3652  0.0450
  269POPC   NC3 3650   7.578   2.597   4.514 -0.2449 -0.1704  0.0647
  269POPC   PO4 3651   7.224   2.539   4.323  0.0494 -0.0653  0.3082
  269POPC   GL1 3652   7.185   2.888   4.588  0.1662 -0.0040 -0.0702
  269POPC   GL2 3653   6.895   3.139   4.640 -0.0660  0.2124  0.2028
  269POPC   C1A 3654   7.288   2.982   5.064 -0.2720  0.0264  0.4972
  269POPC   D2A 3655   7.197   2.825   5.481 -0.0205 -0.0124 -0.1759
  269POPC   C3A 3656   7.065   2.331   5.431  0.0568  0.5466  0.1055
  269POPC   C4A 3657   7.303   2.019   5.305 -0.1629  0.2031  0.0817
  269POPC   C1B 3658   6.812   3.054   5.052  0.2770  0.0085  0.0908
  269POPC   C2B 3659   6.636   3.096   5.476  0.1286 -0.3434  0.0664
  269POPC   C3B 3660   6.566   3.072   5.911 -0.0289  0.0337 -0.0773
  269POPC   C4B 3661   6.500   2.829   6.294  0.1532  0.0501 -0.0479
  270POPC   NC3 3662   8.944   0.223   4.747  0.1471 -0.0416 -0.0362
  270POPC   PO4 3663   8.908   0.674   4.798  0.3534  0.3696  0.1063
  270POPC   GL1 3664   8.861   0.948   5.114  0.0434 -0.2526 -0.0438
  270POPC   GL2 3665   8.886   1.279   5.268  0.1679  0.1726  0.0875
  270POPC   C1A 3666   8.756   0.779   5.552  0.4003 -0.0439  0.0624
  270POPC   D2A 3667   8.636   0.561   6.026  0.0094 -0.4581 -0.0733
  270POPC   C3A 3668   8.863   0.602   6.395  0.0913  0.1179 -0.1321
  270POPC   C4A 3669   8.797   0.597   6.875 -0.0850  0.3649  0.0036
  270POPC   C1B 3670   8.507   1.295   5.543  0.0876  0.3806  0.0829
  270POPC   C2B 3671   8.394   1.034   5.875 -0.0740 -0.0161  0.1509
  270POPC   C3B 3672   8.474   1.073   6.355 -0.2894  0.1756  0.1095
  270POPC   C4B 3673   8.524   1.076   6.759  0.1806 -0.3026 -0.0494
  271POPC   NC3 3674   1.721   4.925   4.360  0.2810 -0.0389 -0.1194
  271POPC   PO4 3675   1.683   4.790   4.694 -0.1180 -0.0472 -0.0581
  271POPC   GL1 3676   1.553   4.973   5.023  0.1341 -0.2973  0.0726
  271POPC   GL2 3677   1.196   5.006   5.127 -0.0106  0.0853 -0.0496
  271POPC   C1A 3678   1.678   4.982   5.511 -0.2217 -0.1642  0.2507
  271POPC   D2A 3679   1.860   5.058   5.866 -0.0499  0.1564 -0.0049
  271POPC   C3A 3680   1.658   5.141   6.236  0.5358  0.3613 -0.2499
  271POPC   C4A 3681   1.228   5.177   6.471  0.2014  0.0036 -0.0671
  271POPC   C1B 3682   1.212   5.074   5.509 -0.0722  0.0131  0.4790
  271POPC   C2B 3683   1.121   5.444   5.847 -0.1861 -0.2867 -0.0691
  271POPC   C3B 3684   1.449   5.655   6.092  0.3300  0.0264 -0.0120
  271POPC   C4B 3685   1.688   5.530   6.551  0.0646 -0.2048  0.1859
  272POPC   NC3 3686   0.056   8.367   4.440  0.0060 -0.0785  0.0666
  272POPC   PO4 3687   0.218   8.094   4.058 -0.0803 -0.0299 -0.1157
  272POPC   GL1 3688   0.221   7.857   4.437 -0.1956  0.3056 -0.1115
  272POPC   GL2 3689  -0.085   7.943   4.668  0.0007 -0.1163  0.2258
  272POPC   C1A 3690   0.293   7.568   4.695  0.0062  0.0993 -0.0272
  272POPC   D2A 3691   0.689   7.362   4.824 -0.2059  0.0353 -0.1900
  272POPC   C3A 3692   0.640   7.110   5.155 -0.2531  0.0428  0.0117
  272POPC   C4A 3693   0.579   6.692   5.454 -0.0265  0.0079  0.1840
  272POPC   C1B 3694  -0.202   7.455   4.607 -0.0374  0.2459  0.2106
  272POPC   C2B 3695  -0.583   7.308   4.837 -0.3262  0.0585  0.0598
  272POPC   C3B 3696  -0.817   7.152   5.060  0.1595  0.1717  0.3652
  272POPC   C4B 3697  -0.960   7.104   5.484 -0.0725  0.2236 -0.0839
  273POPC   NC3 3698   6.193   7.711   4.089 -0.0466  0.0411 -0.1510
  273POPC   PO4 3699   6.156   8.133   3.929 -0.3060  0.1221 -0.1671
  273POPC   GL1 3700   6.262   8.160   4.397  0.0442  0.2906 -0.1953
  273POPC   GL2 3701   6.279   7.862   4.539  0.0162 -0.1088  0.1291
  273POPC   C1A 3702   5.985   8.226   4.729 -0.0953 -0.1322  0.2602
  273POPC   D2A 3703   5.585   8.139   4.798  0.2452 -0.0941 -0.1640
  273POPC   C3A 3704   5.312   8.372   4.849  0.1573 -0.3363  0.2847
  273POPC   C4A 3705   4.825   8.441   5.084  0.0198  0.1549  0.0395
  273POPC   C1B 3706   6.670   7.711   4.681  0.0780 -0.1085 -0.1172
  273POPC   C2B 3707   7.107   7.850   4.806 -0.1233  0.1610  0.0312
  273POPC   C3B 3708   7.453   7.674   4.684 -0.1973 -0.1138 -0.1719
  273POPC   C4B 3709   7.622   7.400   4.315 -0.0207  0.2196  0.1984
  274POPC   NC3 3710   4.510   1.616   4.455  0.3403 -0.4758  0.0182
  274POPC   PO4 3711   4.740   1.169   4.477  0.0610  0.3721  0.0190
  274POPC   GL1 3712   4.800   1.044   4.900 -0.2886 -0.0237 -0.3854
  274POPC   GL2 3713   5.090   0.713   4.991 -0.2703 -0.1002  0.1481
  274POPC   C1A 3714   5.112   1.252   5.213  0.2178  0.0281  0.1269
  274POPC   D2A 3715   5.025   1.559   5.466  0.3511  0.1400 -0.0565
  274POPC   C3A 3716   5.231   1.626   5.787 -0.1882 -0.3323 -0.0516
  274POPC   C4A 3717   5.292   1.771   6.143  0.0864  0.1325  0.3170
  274POPC   C1B 3718   5.075   0.732   5.411 -0.0519  0.0846  0.1636
  274POPC   C2B 3719   4.906   0.513   5.744  0.0997  0.0386  0.1724
  274POPC   C3B 3720   4.943   0.282   6.065 -0.0660  0.0846 -0.1009
  274POPC   C4B 3721   5.147   0.273   6.485 -0.0323 -0.0893 -0.1426
  275POPC   NC3 3722   7.451   0.651   3.877  0.0201 -0.0031 -0.1963
  275POPC   PO4 3723   7.239   0.636   4.279 -0.0943 -0.1523  0.0203
  275POPC   GL1 3724   7.186   0.564   4.742 -0.0645  0.1640 -0.3869
  275POPC   GL2 3725   7.417   0.669   4.990  0.0601 -0.0449  0.1211
  275POPC   C1A 3726   6.950   0.593   5.101  0.0218  0.0523  0.1735
  275POPC   D2A 3727   6.557   0.735   5.236 -0.0656 -0.3620  0.1381
  275POPC   C3A 3728   6.511   0.754   5.644 -0.1910  0.1728  0.1824
  275POPC   C4A 3729   6.240   1.001   5.960 -0.0967  0.0431 -0.1054
  275POPC   C1B 3730   7.538   0.674   5.359 -0.2341 -0.2040  0.2584
  275POPC   C2B 3731   7.486   0.792   5.817  0.0373  0.1425  0.0353
  275POPC   C3B 3732   7.729   0.784   6.233  0.1116 -0.0036 -0.2281
  275POPC   C4B 3733   7.614   0.583   6.635  0.1956  0.1379 -0.1240
  276POPC   NC3 3734   1.318   0.337   4.674  0.1370 -0.0015  0.1029
  276POPC   PO4 3735   1.338   0.776   4.883  0.2926 -0.2178 -0.0900
  276POPC   GL1 3736   1.336   0.389   5.217 -0.4137  0.3334 -0.1094
  276POPC   GL2 3737   1.180   0.074   5.058  0.1520 -0.0453 -0.1377
  276POPC   C1A 3738   1.448   0.116   5.527 -0.4346  0.0581 -0.1117
  276POPC   D2A 3739   1.239  -0.048   5.743 -0.0813  0.0793 -0.1355
  276POPC   C3A 3740   1.154   0.155   6.145 -0.0267 -0.1839 -0.1131
  276POPC   C4A 3741   1.228   0.447   6.507 -0.5447 -0.1635  0.1247
  276POPC   C1B 3742   0.896  -0.105   5.163  0.4168  0.1078  0.0365
  276POPC   C2B 3743   0.797  -0.249   5.541  0.1218  0.1231  0.0600
  276POPC   C3B 3744   0.778  -0.122   5.979 -0.0129  0.2065  0.0192
  276POPC   C4B 3745   0.730   0.099   6.439 -0.3375 -0.1281  0.0920
  277POPC   NC3 3746   0.480   9.381   3.944  0.1040  0.0327  0.1019
  277POPC   PO4 3747   0.699   9.539   4.355  0.1464 -0.0826 -0.0134
  277POPC   GL1 3748   0.631   9.636   4.714 -0.0945  0.0485 -0.2017
  277POPC   GL2 3749   0.329   9.474   4.832  0.1558  0.0203 -0.2734
  277POPC   C1A 3750   0.697   9.430   5.151  0.0301 -0.0604 -0.0013
  277POPC   D2A 3751   1.114   9.310   5.390 -0.0069  0.0647 -0.1213
  277POPC   C3A 3752   1.093   9.294   5.941  0.1890 -0.0142 -0.0310
  277POPC   C4A 3753   1.077   9.056   6.343 -0.1402 -0.0510  0.1830
  277POPC   C1B 3754   0.228   9.280   5.244  0.4007  0.2212 -0.0827
  277POPC   C2B 3755   0.471   9.199   5.567  0.1356  0.2458 -0.2381
  277POPC   C3B 3756   0.566   9.420   5.967 -0.1159 -0.4427 -0.2396
  277POPC   C4B 3757   0.402   9.667   6.350  0.0045  0.2974  0.1650
  278POPC   NC3 3758   7.076   2.123   4.652 -0.2971  0.0129  0.4909
  278POPC   PO4 3759   6.830   1.847   4.765  0.1301  0.2977 -0.2334
  278POPC   GL1 3760   6.769   2.228   5.045  0.2981 -0.0915 -0.1387
  278POPC   GL2 3761   6.981   2.557   4.948  0.2169 -0.2308  0.0925
  278POPC   C1A 3762   6.621   2.173   5.447  0.1193  0.0382  0.0105
  278POPC   D2A 3763   6.422   1.835   5.682 -0.1188  0.2780  0.0266
  278POPC   C3A 3764   6.021   1.906   5.422 -0.0248 -0.3923  0.4179
  278POPC   C4A 3765   5.747   2.200   5.183  0.1634 -0.2849  0.1306
  278POPC   C1B 3766   7.411   2.517   5.125 -0.2123 -0.2725 -0.3957
  278POPC   C2B 3767   7.564   2.435   5.542 -0.2192  0.0438 -0.4708
  278POPC   C3B 3768   7.488   2.689   6.009  0.0175 -0.1929 -0.2384
  278POPC   C4B 3769   7.526   2.540   6.454 -0.1052 -0.1919  0.1754
  279POPC   NC3 3770   5.734   4.364   4.477  0.0813  0.0776 -0.3608
  279POPC   PO4 3771   5.699   3.946   4.477  0.0215  0.2149 -0.0850
  279POPC   GL1 3772   5.664   3.904   4.986  0.1223 -0.1505 -0.0950
  279POPC   GL2 3773   5.478   4.117   5.053 -0.0753 -0.2045 -0.0243
  279POPC   C1A 3774   5.766   3.748   5.351  0.3501 -0.0345  0.0619
  279POPC   D2A 3775   5.798   3.292   5.559 -0.0962  0.0701 -0.0005
  279POPC   C3A 3776   5.911   3.330   6.039 -0.2620  0.0864 -0.1003
  279POPC   C4A 3777   6.311   3.355   6.237  0.1075  0.0022 -0.2258
  279POPC   C1B 3778   5.836   4.265   5.297  0.2669 -0.0733  0.0708
  279POPC   C2B 3779   5.914   4.661   5.564  0.0867 -0.1367 -0.1022
  279POPC   C3B 3780   5.976   4.794   5.934  0.0147 -0.0590 -0.0080
  279POPC   C4B 3781   6.304   4.675   6.161  0.1287 -0.0659 -0.1918
  280POPC   NC3 3782   9.844   4.512   4.043  0.0654  0.0253  0.1751
  280POPC   PO4 3783   9.828   4.212   4.337  0.2560 -0.0614 -0.3876
  280POPC   GL1 3784   9.716   4.170   4.673  0.1561  0.0612  0.1870
  280POPC   GL2 3785   9.618   4.371   4.789 -0.1017 -0.0786  0.1283
  280POPC   C1A 3786   9.856   3.949   5.053  0.0181  0.2447  0.3963
  280POPC   D2A 3787  10.025   3.963   5.525 -0.1605  0.0149  0.3173
  280POPC   C3A 3788   9.972   3.674   5.988  0.1441  0.1929 -0.1177
  280POPC   C4A 3789   9.535   3.736   6.254  0.0026 -0.0077  0.0963
  280POPC   C1B 3790   9.688   4.712   4.882  0.5541  0.2156 -0.0164
  280POPC   C2B 3791   9.849   5.104   5.087  0.0316 -0.0245 -0.1705
  280POPC   C3B 3792   9.998   5.575   4.891 -0.1803  0.2662 -0.1295
  280POPC   C4B 3793   9.894   5.941   5.207 -0.0521 -0.0060  0.1825
  281POPC   NC3 3794   6.147   1.279   4.732  0.1317 -0.1277  0.2368
  281POPC   PO4 3795   6.557   1.470   4.544  0.0673  0.2220 -0.0276
  281POPC   GL1 3796   6.386   1.620   4.980 -0.1283  0.2104  0.1653
  281POPC   GL2 3797   6.050   1.498   5.211  0.0152  0.0261  0.1570
  281POPC   C1A 3798   6.551   1.528   5.319 -0.1173 -0.2519  0.1873
  281POPC   D2A 3799   6.685   1.288   5.764 -0.0223 -0.1691 -0.3458
  281POPC   C3A 3800   7.054   1.202   5.944  0.0281  0.5363  0.1018
  281POPC   C4A 3801   7.465   1.195   6.200 -0.3937 -0.0124  0.0735
  281POPC   C1B 3802   6.118   1.314   5.616 -0.1760 -0.1532 -0.2181
  281POPC   C2B 3803   6.227   1.481   5.982 -0.1062 -0.1581  0.0012
  281POPC   C3B 3804   6.572   1.499   6.238  0.0867  0.5337  0.1100
  281POPC   C4B 3805   6.932   1.259   6.431  0.1074  0.0304  0.2116
  282POPC   NC3 3806   4.949   5.469   4.164  0.5308 -0.1657 -0.0468
  282POPC   PO4 3807   4.975   5.089   4.437 -0.1646  0.0531 -0.2653
  282POPC   GL1 3808   5.316   4.940   4.579 -0.0941 -0.1359 -0.0984
  282POPC   GL2 3809   5.352   4.679   4.730 -0.0537  0.0555  0.3355
  282POPC   C1A 3810   5.588   5.180   4.944 -0.0059  0.0045  0.0973
  282POPC   D2A 3811   5.661   5.084   5.409  0.0280  0.0649 -0.0949
  282POPC   C3A 3812   5.899   5.315   5.777 -0.1732 -0.1687 -0.0761
  282POPC   C4A 3813   5.951   5.570   6.223  0.0096 -0.0210  0.1270
  282POPC   C1B 3814   5.425   4.714   5.140 -0.4113 -0.0657 -0.3229
  282POPC   C2B 3815   5.456   4.719   5.624 -0.0393 -0.0656  0.0853
  282POPC   C3B 3816   5.502   5.068   5.891  0.1716  0.5633 -0.1170
  282POPC   C4B 3817   5.690   5.170   6.307  0.2544 -0.1785  0.1124
  283POPC   NC3 3818   3.325   5.645   4.364  0.0292 -0.0668 -0.1881
  283POPC   PO4 3819   3.671   5.453   4.293 -0.1023  0.1237 -0.1270
  283POPC   GL1 3820   3.589   5.442   4.768  0.2068 -0.2304  0.1465
  283POPC   GL2 3821   3.551   5.070   4.935 -0.1405 -0.2553 -0.2823
  283POPC   C1A 3822   3.366   5.630   5.167  0.0178  0.1025  0.0443
  283POPC   D2A 3823   3.344   5.643   5.617  0.0708  0.0400  0.0578
  283POPC   C3A 3824   3.014   5.934   5.816 -0.0558 -0.0016 -0.0357
  283POPC   C4A 3825   2.897   5.966   6.267 -0.0891  0.0641 -0.0259
  283POPC   C1B 3826   3.786   5.363   5.272 -0.2322  0.0099 -0.1928
  283POPC   C2B 3827   3.809   5.700   5.482  0.2821 -0.2007  0.1248
  283POPC   C3B 3828   3.582   6.030   5.521  0.2433  0.1343 -0.1356
  283POPC   C4B 3829   3.258   6.172   5.250 -0.0636 -0.1259 -0.0726
  284POPC   NC3 3830   7.513   9.433   4.378  0.1742 -0.1782  0.1831
  284POPC   PO4 3831   7.093   9.691   4.341  0.0006 -0.0915 -0.1229
  284POPC   GL1 3832   6.919   9.367   4.721 -0.2513 -0.2351 -0.3933
  284POPC   GL2 3833   6.572   9.358   4.793 -0.1919 -0.1652  0.0868
  284POPC   C1A 3834   6.989   9.310   5.208 -0.1453 -0.1564  0.0907
  284POPC   D2A 3835   6.806   9.174   5.656  0.0988 -0.2322  0.3453
  284POPC   C3A 3836   6.444   9.062   5.662 -0.0617 -0.1229 -0.0432
  284POPC   C4A 3837   6.372   8.751   5.910 -0.6200  0.4392 -0.1496
  284POPC   C1B 3838   6.542   9.146   5.112 -0.3746  0.0425  0.3094
  284POPC   C2B 3839   6.598   8.766   5.290  0.1357  0.1605  0.2367
  284POPC   C3B 3840   6.859   8.657   5.670  0.0938 -0.1358 -0.0550
  284POPC   C4B 3841   6.897   8.848   6.080  0.3158  0.1357 -0.2491
  285POPC   NC3 3842   1.594   5.687   4.543 -0.0802 -0.0206 -0.3719
  285POPC   PO4 3843   1.256   5.704   4.232 -0.1852 -0.0340 -0.0972
  285POPC   GL1 3844   1.144   5.838   4.675  0.2343 -0.3512  0.0611
  285POPC   GL2 3845   1.343   5.915   4.974 -0.0820 -0.2231 -0.0772
  285POPC   C1A 3846   0.852   5.983   4.962 -0.3041 -0.1586 -0.1330
  285POPC   D2A 3847   0.905   6.314   5.190  0.3997 -0.2050  0.2293
  285POPC   C3A 3848   1.146   6.169   5.449 -0.1812  0.3575 -0.2642
  285POPC   C4A 3849   1.324   5.948   5.677 -0.2126  0.1676  0.1978
  285POPC   C1B 3850   1.621   6.050   5.307  0.0992 -0.1442 -0.1622
  285POPC   C2B 3851   1.760   6.169   5.730  0.1620  0.0143  0.0364
  285POPC   C3B 3852   1.798   6.185   6.200  0.0519 -0.0479  0.1447
  285POPC   C4B 3853   1.933   5.917   6.375 -0.0855 -0.0331 -0.1609
  286POPC   NC3 3854   2.343   8.651   4.459  0.3700  0.0847 -0.2838
  286POPC   PO4 3855   2.483   8.239   4.782  0.0317 -0.0234  0.0855
  286POPC   GL1 3856   2.220   8.158   5.082  0.0416  0.0379 -0.0663
  286POPC   GL2 3857   1.872   8.033   5.087  0.3264 -0.1367  0.1786
  286POPC   C1A 3858   2.010   8.471   5.209  0.0860 -0.1523 -0.1763
  286POPC   D2A 3859   1.738   8.679   5.425  0.2102 -0.0387 -0.2721
  286POPC   C3A 3860   1.951   8.624   5.835 -0.1533 -0.0994 -0.2304
  286POPC   C4A 3861   2.008   8.681   6.250 -0.2153  0.0738 -0.1851
  286POPC   C1B 3862   1.928   8.164   5.586  0.1258 -0.2765 -0.1979
  286POPC   C2B 3863   1.830   7.989   5.973  0.0566  0.0247  0.2352
  286POPC   C3B 3864   1.614   7.646   6.152  0.1506 -0.1238  0.0536
  286POPC   C4B 3865   1.319   7.474   5.946 -0.2515 -0.1676 -0.0384
  287POPC   NC3 3866   6.727   0.432   4.388 -0.2711 -0.1846  0.0107
  287POPC   PO4 3867   6.333   0.452   4.378  0.0647 -0.0202  0.0066
  287POPC   GL1 3868   6.080   0.283   4.641 -0.0026  0.0451 -0.1020
  287POPC   GL2 3869   5.841   0.067   4.755 -0.1266  0.0078  0.2492
  287POPC   C1A 3870   6.123   0.283   5.107  0.0413 -0.1247  0.2638
  287POPC   D2A 3871   5.891   0.265   5.498 -0.1466 -0.0142 -0.1592
  287POPC   C3A 3872   5.651  -0.020   5.690  0.3123 -0.1983 -0.1394
  287POPC   C4A 3873   5.216  -0.089   5.788 -0.3194 -0.3053  0.2093
  287POPC   C1B 3874   5.718  -0.457   4.835  0.0656  0.0212 -0.0476
  287POPC   C2B 3875   5.585  -0.858   5.098  0.0359 -0.1714 -0.4847
  287POPC   C3B 3876   5.515  -0.677   5.529  0.1842  0.0769  0.2360
  287POPC   C4B 3877   5.556  -0.506   5.927 -0.0445  0.1668  0.2184
  288POPC   NC3 3878   2.569   0.260   4.648  0.3094  0.3017 -0.1590
  288POPC   PO4 3879   2.170   0.071   4.785 -0.4935 -0.3539  0.0287
  288POPC   GL1 3880   2.169  -0.022   5.186 -0.2556 -0.2085  0.0163
  288POPC   GL2 3881   1.957  -0.280   5.362  0.0758  0.1914 -0.0652
  288POPC   C1A 3882   2.239   0.116   5.624  0.0407  0.1217 -0.0217
  288POPC   D2A 3883   2.639   0.350   5.892  0.4419 -0.0457 -0.0295
  288POPC   C3A 3884   2.809   0.422   6.302 -0.1727 -0.2687 -0.1705
  288POPC   C4A 3885   3.035   0.361   6.651 -0.0804  0.0471  0.1476
  288POPC   C1B 3886   1.955  -0.653   5.666 -0.1496 -0.2628  0.1231
  288POPC   C2B 3887   2.136  -0.882   5.937  0.2236  0.0863 -0.0775
  288POPC   C3B 3888   2.411  -1.175   5.996  0.2447  0.2334 -0.1393
  288POPC   C4B 3889   2.536  -1.458   6.351  0.0438 -0.0216  0.0016
  289POPC   NC3 3890   6.481   4.788   4.193  0.0919  0.0804  0.0696
  289POPC   PO4 3891   6.178   5.128   4.231  0.3087 -0.1267 -0.0491
  289POPC   GL1 3892   6.200   5.048   4.564 -0.0833  0.1307 -0.2580
  289POPC   GL2 3893   5.941   4.810   4.648  0.2282  0.0230  0.0625
  289POPC   C1A 3894   6.549   4.938   4.838 -0.0407  0.1965  0.0133
  289POPC   D2A 3895   6.767   4.859   5.228 -0.0403  0.1199  0.1966
  289POPC   C3A 3896   7.251   4.976   5.216 -0.3559  0.1087 -0.0124
  289POPC   C4A 3897   7.496   5.215   5.025 -0.3910 -0.0378 -0.3264
  289POPC   C1B 3898   6.059   4.978   5.035 -0.2475 -0.0817 -0.0045
  289POPC   C2B 3899   6.294   5.003   5.410 -0.2433 -0.0210  0.2939
  289POPC   C3B 3900   6.387   5.091   5.900 -0.3083 -0.0105 -0.1332
  289POPC   C4B 3901   6.237   5.176   6.291  0.2025  0.1983 -0.2445
  290POPC   NC3 3902   7.188   3.594   4.033  0.0741 -0.1012  0.0167
  290POPC   PO4 3903   7.355   3.458   4.488 -0.0612 -0.1576  0.1756
  290POPC   GL1 3904   7.155   3.485   4.868 -0.1578 -0.1923 -0.1790
  290POPC   GL2 3905   7.072   3.790   4.999 -0.2224 -0.1468  0.1025
  290POPC   C1A 3906   7.101   3.340   5.388  0.0911 -0.0697  0.4002
  290POPC   D2A 3907   6.984   3.309   5.752  0.0721  0.0396  0.2061
  290POPC   C3A 3908   7.081   2.926   5.998 -0.1636 -0.1347  0.1946
  290POPC   C4A 3909   7.176   2.843   6.323  0.0900 -0.0095  0.1959
  290POPC   C1B 3910   7.448   3.957   5.247  0.0311  0.2435  0.0004
  290POPC   C2B 3911   7.752   4.318   5.153 -0.1318 -0.4412 -0.2098
  290POPC   C3B 3912   7.967   4.723   5.153 -0.1189 -0.2611  0.1845
  290POPC   C4B 3913   8.380   4.765   5.030  0.4122  0.2513 -0.0870
  291POPC   NC3 3914   7.990   1.711   4.477  0.1984  0.1039  0.0036
  291POPC   PO4 3915   8.418   1.644   4.583 -0.0996  0.1966  0.1998
  291POPC   GL1 3916   8.455   1.626   5.074 -0.1184  0.1114 -0.3509
  291POPC   GL2 3917   8.388   1.235   5.077  0.0007 -0.3481 -0.0564
  291POPC   C1A 3918   8.229   1.971   5.344 -0.2143  0.1589  0.1741
  291POPC   D2A 3919   8.102   1.840   5.785 -0.1911  0.2818  0.0400
  291POPC   C3A 3920   8.252   2.085   6.022  0.1002 -0.0014  0.1511
  291POPC   C4A 3921   8.622   2.236   5.920  0.1537  0.0839  0.0940
  291POPC   C1B 3922   8.073   1.434   5.400  0.0374  0.0627  0.1219
  291POPC   C2B 3923   7.952   1.297   5.919  0.0235  0.0163  0.1458
  291POPC   C3B 3924   8.037   1.381   6.394  0.2184  0.0386  0.0090
  291POPC   C4B 3925   8.021   1.822   6.450 -0.0338 -0.0960 -0.0285
  292POPC   NC3 3926   5.347   3.997   4.069  0.0072 -0.1441  0.2890
  292POPC   PO4 3927   5.281   4.339   4.330 -0.0740 -0.0698 -0.3351
  292POPC   GL1 3928   5.101   4.189   4.710  0.0264 -0.1915  0.1487
  292POPC   GL2 3929   4.712   4.288   4.804 -0.4184  0.3152  0.1463
  292POPC   C1A 3930   5.068   4.332   5.162  0.2187 -0.2943 -0.0783
  292POPC   D2A 3931   5.132   4.317   5.643 -0.3923 -0.1974  0.1440
  292POPC   C3A 3932   5.526   4.259   5.727  0.3270  0.0133 -0.0562
  292POPC   C4A 3933   5.853   4.196   5.815 -0.2998 -0.0031  0.0391
  292POPC   C1B 3934   4.604   4.228   5.178  0.0898  0.3363  0.0564
  292POPC   C2B 3935   4.654   4.211   5.715 -0.0795  0.3366 -0.1709
  292POPC   C3B 3936   4.524   3.896   5.961 -0.2078  0.3078  0.0368
  292POPC   C4B 3937   4.617   3.763   6.367 -0.1551  0.0503  0.2644
  293POPC   NC3 3938   3.693   8.190   3.835  0.1124 -0.0090 -0.1771
  293POPC   PO4 3939   3.781   8.278   4.306 -0.2079 -0.2437  0.1730
  293POPC   GL1 3940   3.749   8.386   4.720  0.0864 -0.2330  0.3449
  293POPC   GL2 3941   4.010   8.544   4.768  0.3039 -0.0509 -0.1003
  293POPC   C1A 3942   3.576   8.642   5.023  0.0464  0.1648  0.0934
  293POPC   D2A 3943   3.351   8.551   5.492 -0.0289  0.0692  0.0580
  293POPC   C3A 3944   3.541   8.145   5.779 -0.2112 -0.2894 -0.1124
  293POPC   C4A 3945   3.322   7.789   5.925 -0.0480  0.1103  0.1667
  293POPC   C1B 3946   4.307   8.406   5.118 -0.1711 -0.0348 -0.0848
  293POPC   C2B 3947   4.391   8.174   5.560 -0.2376  0.2089  0.1356
  293POPC   C3B 3948   4.500   8.322   5.956  0.1761 -0.5161  0.2118
  293POPC   C4B 3949   4.706   8.342   6.297  0.1071 -0.3782  0.0461
  294POPC   NC3 3950   5.819   5.373   3.929 -0.3992  0.1888  0.0726
  294POPC   PO4 3951   5.334   5.352   3.901 -0.1094  0.0539  0.0852
  294POPC   GL1 3952   5.423   5.367   4.326  0.1964  0.0632  0.0679
  294POPC   GL2 3953   5.734   5.315   4.472  0.1796  0.1352  0.0217
  294POPC   C1A 3954   5.342   5.573   4.731 -0.1915  0.0454 -0.1018
  294POPC   D2A 3955   5.133   5.242   5.135 -0.3125 -0.0898  0.0302
  294POPC   C3A 3956   5.146   5.156   5.542  0.1973  0.0406  0.1482
  294POPC   C4A 3957   4.969   5.127   6.021 -0.0363  0.0897 -0.0342
  294POPC   C1B 3958   5.988   5.462   4.830 -0.2517  0.2338  0.0546
  294POPC   C2B 3959   6.006   5.476   5.306 -0.1623  0.2088  0.0200
  294POPC   C3B 3960   6.277   5.622   5.568 -0.0154 -0.1139 -0.3170
  294POPC   C4B 3961   6.382   5.614   5.971  0.0789  0.0178 -0.0084
  295POPC   NC3 3962   1.049   1.268   4.836  0.1336 -0.3663  0.0029
  295POPC   PO4 3963   1.523   1.252   4.720 -0.0571  0.0059 -0.0037
  295POPC   GL1 3964   1.579   1.185   5.174 -0.1791  0.3435  0.1882
  295POPC   GL2 3965   1.301   1.471   5.320  0.0314 -0.1243 -0.0998
  295POPC   C1A 3966   1.616   1.174   5.646 -0.0657  0.0624  0.0045
  295POPC   D2A 3967   1.873   1.448   5.909  0.0349  0.1195  0.0584
  295POPC   C3A 3968   2.202   1.265   6.151  0.3320 -0.0781 -0.0823
  295POPC   C4A 3969   2.546   1.393   6.418 -0.0614 -0.0507  0.0663
  295POPC   C1B 3970   1.058   1.311   5.679  0.0229 -0.1230  0.0836
  295POPC   C2B 3971   0.659   1.498   5.796 -0.3526  0.3047  0.0171
  295POPC   C3B 3972   0.528   1.850   6.005 -0.1771 -0.0041  0.0412
  295POPC   C4B 3973   0.147   2.158   5.921 -0.1081  0.1926  0.2264
  296POPC   NC3 3974   0.344   1.778   5.192  0.0557 -0.4432 -0.0147
  296POPC   PO4 3975   0.536   1.439   4.900 -0.1353 -0.0150 -0.0591
  296POPC   GL1 3976   0.775   1.258   5.239  0.0321  0.0360 -0.0925
  296POPC   GL2 3977   1.026   0.981   5.309 -0.3827 -0.1369 -0.1641
  296POPC   C1A 3978   0.707   0.948   5.680 -0.1315 -0.0344  0.2400
  296POPC   D2A 3979   0.605   0.988   6.065 -0.2145  0.1544 -0.0577
  296POPC   C3A 3980   0.830   1.277   6.181 -0.1743 -0.1944 -0.0498
  296POPC   C4A 3981   1.003   1.689   6.134 -0.0830 -0.2713 -0.1235
  296POPC   C1B 3982   1.343   0.716   5.583 -0.0777  0.0122 -0.0972
  296POPC   C2B 3983   1.497   0.422   5.915 -0.2100 -0.0701  0.1490
  296POPC   C3B 3984   1.750   0.429   6.391 -0.0932  0.0668  0.0470
  296POPC   C4B 3985   1.551   0.304   6.815 -0.1234 -0.1418 -0.0322
  297POPC   NC3 3986   3.710   7.580   4.364 -0.2438  0.0934 -0.0935
  297POPC   PO4 3987   3.618   7.919   4.659  0.0118  0.3405  0.0129
  297POPC   GL1 3988   3.440   7.853   5.003  0.0907  0.0785  0.2126
  297POPC   GL2 3989   3.234   7.788   5.008  0.2347 -0.2145  0.0802
  297POPC   C1A 3990   3.616   7.771   5.393 -0.2261 -0.0240 -0.0885
  297POPC   D2A 3991   3.949   7.927   5.605  0.3281  0.0831 -0.1182
  297POPC   C3A 3992   4.292   7.827   5.883  0.4496  0.0034  0.1703
  297POPC   C4A 3993   4.543   7.834   6.231  0.1379 -0.1373 -0.3256
  297POPC   C1B 3994   3.148   8.060   5.413  0.1959 -0.2390  0.0856
  297POPC   C2B 3995   3.052   8.214   5.796 -0.3631  0.0771  0.0882
  297POPC   C3B 3996   3.261   8.180   6.209  0.1674  0.0688 -0.1308
  297POPC   C4B 3997   3.667   8.272   6.351  0.0163 -0.1525 -0.0716
  298POPC   NC3 3998   0.015   6.819   3.057 -0.0450  0.0932  0.1829
  298POPC   PO4 3999  -0.326   6.928   3.427 -0.1520 -0.3184 -0.2020
  298POPC   GL1 4000  -0.538   6.825   3.778  0.0940 -0.3924  0.1155
  298POPC   GL2 4001  -0.881   6.550   3.831 -0.1321 -0.0929  0.2186
  298POPC   C1A 4002  -0.572   6.640   4.191 -0.0234  0.1251  0.1675
  298POPC   D2A 4003  -0.616   6.374   4.457  0.1247 -0.1470  0.0583
  298POPC   C3A 4004  -0.980   6.221   4.680  0.0877  0.1627 -0.0426
  298POPC   C4A 4005  -1.160   6.189   5.006  0.2281  0.0876 -0.3277
  298POPC   C1B 4006  -1.134   6.378   4.237 -0.3043 -0.3270 -0.0892
  298POPC   C2B 4007  -1.305   6.728   4.513 -0.1340  0.1027 -0.2026
  298POPC   C3B 4008  -1.239   6.770   4.937  0.0112  0.1646 -0.0357
  298POPC   C4B 4009  -1.396   6.867   5.278 -0.0395 -0.2156 -0.1910
  299POPC   NC3 4010   9.152   1.500   4.487 -0.0321 -0.1085  0.1081
  299POPC   PO4 4011   9.418   1.610   4.888  0.0375  0.3286 -0.0109
  299POPC   GL1 4012   9.369   1.570   5.242 -0.1682 -0.0553  0.1214
  299POPC   GL2 4013   9.519   1.855   5.362 -0.1707 -0.0184 -0.3086
  299POPC   C1A 4014   9.238   1.604   5.764 -0.2581  0.2021 -0.0632
  299POPC   D2A 4015   8.970   1.682   6.151  0.1055  0.1527  0.0461
  299POPC   C3A 4016   9.201   1.858   6.509  0.2067 -0.1182 -0.1497
  299POPC   C4A 4017   9.413   2.222   6.606  0.1859 -0.0448 -0.1668
  299POPC   C1B 4018   9.684   1.957   5.782 -0.1911  0.1769 -0.1432
  299POPC   C2B 4019   9.497   1.827   6.110 -0.0394  0.2300  0.2225
  299POPC   C3B 4020   9.465   1.431   6.361 -0.1030 -0.0684  0.2100
  299POPC   C4B 4021   9.560   1.225   6.789 -0.2780 -0.0980 -0.0077
  300POPC   NC3 4022   4.507   2.363   3.948  0.3194 -0.1874 -0.0184
  300POPC   PO4 4023   4.338   2.132   4.345  0.0545  0.0365 -0.1925
  300POPC   GL1 4024   4.094   1.988   4.806 -0.1243 -0.0045 -0.0072
  300POPC   GL2 4025   3.965   1.722   4.604  0.0037  0.4424 -0.1090
  300POPC   C1A 4026   4.143   1.954   5.300 -0.0950 -0.4112  0.1189
  300POPC   D2A 4027   4.144   2.024   5.799 -0.1677  0.0183 -0.1247
  300POPC   C3A 4028   4.288   1.764   6.097 -0.2313  0.1987 -0.3085
  300POPC   C4A 4029   4.550   1.461   6.387 -0.0025 -0.2342 -0.3393
  300POPC   C1B 4030   3.907   1.408   4.976 -0.2545 -0.2281  0.1449
  300POPC   C2B 4031   3.908   1.431   5.325  0.0515  0.1153 -0.1752
  300POPC   C3B 4032   4.230   1.513   5.643 -0.2385 -0.0912  0.0182
  300POPC   C4B 4033   4.530   1.337   5.924  0.0361 -0.3895 -0.2796
  301POPC   NC3 4034   3.979   0.561   3.836 -0.4268 -0.0836 -0.2928
  301POPC   PO4 4035   3.923   0.726   4.229 -0.0943  0.0366  0.0336
  301POPC   GL1 4036   4.041   0.563   4.561  0.3913 -0.0772 -0.0338
  301POPC   GL2 4037   3.784   0.284   4.687  0.0009  0.0856  0.1204
  301POPC   C1A 4038   4.126   0.461   5.033 -0.1424 -0.0234 -0.2624
  301POPC   D2A 4039   4.088   0.314   5.439 -0.2564  0.0046  0.0194
  301POPC   C3A 4040   4.375   0.155   5.754  0.1604  0.0619 -0.2318
  301POPC   C4A 4041   4.510  -0.019   6.168  0.1533  0.0905 -0.0676
  301POPC   C1B 4042   3.580   0.167   5.171 -0.0355 -0.1961  0.3274
  301POPC   C2B 4043   3.730   0.037   5.647 -0.2955 -0.0082 -0.0267
  301POPC   C3B 4044   3.631   0.086   6.043  0.2769 -0.1227  0.2575
  301POPC   C4B 4045   3.535   0.396   6.360  0.0171 -0.0224 -0.1553
  302W        W 4046   1.351   4.684   3.181  0.1467 -0.0214  0.3592
  303W        W 4047   0.621   9.311  11.729  0.0281  0.1412  0.1234
  304W        W 4048   6.959   8.874   2.124 -0.1428  0.0937 -0.2429
  305W        W 4049   2.359   2.726   0.276  0.2864  0.0549  0.0719
  306W        W 4050   6.626   2.297   1.847  0.2359 -0.2894 -0.1224
  307W        W 4051   2.832   6.734   2.637  0.0325 -0.1935  0.0344
  308W        W 4052   0.467   5.024   0.449 -0.0753 -0.2792  0.0869
  309W        W 4053   4.232   4.081  11.603 -0.0377  0.2332 -0.1422
  310W        W 4054   9.569   6.246  11.982  0.1348  0.0151  0.1260
  311W        W 4055   7.441   7.549   2.573 -0.1803  0.0702 -0.4354
  312W        W 4056   8.048   0.314   0.690  0.3258 -0.0724 -0.2587
  313W        W 4057   9.318   3.536   3.971  0.2677 -0.1981  0.0502
  314W        W 4058   9.430   9.034   1.062  0.0846 -0.1615  0.0927
  315W        W 4059   6.120   8.097   9.112  0.1658 -0.0667  0.2354
  316W        W 4060   8.930   3.129  10.138 -0.1340 -0.0637 -0.2180
  317W        W 4061   3.691   6.858   3.414  0.1390  0.0552  0.3027
  318W        W 4062   5.962   0.939  10.201 -0.0704  0.0298 -0.0377
  319W        W 4063   0.028   8.424   0.058 -0.0192 -0.1609  0.1267
  320W        W 4064   9.783   5.143  10.647  0.1185 -0.0702  0.0119
  321W        W 4065   4.362   5.284  11.736  0.2316  0.0820  0.1809
  322W        W 4066   3.048   6.895   1.515 -0.1451  0.0115  0.1265
  323W        W 4067   2.275   8.412  12.528  0.3450  0.0254  0.0813
  324W        W 4068   6.061   3.508  10.229  0.2504  0.1506  0.0014
  325W        W 4069   2.629   5.548  10.047 -0.2249  0.1173 -0.0618
  326W        W 4070   4.290   3.938   0.252  0.3501 -0.1295 -0.1356
  327W        W 4071   3.052   1.295   3.650  0.0021  0.1949 -0.3611
  328W        W 4072   8.543   0.563   1.485 -0.3620  0.0182  0.1812
  329W        W 4073   9.025   0.620   2.675  0.3268 -0.1144 -0.1645
  330W        W 4074   5.815   2.097   3.360 -0.0891  0.0326 -0.3034
  331W        W 4075   4.396   8.292   0.797 -0.0419  0.0088  0.2205
  332W        W 4076   1.900   4.027   0.819 -0.1779 -0.1109  0.1581
  333W        W 4077   0.937   5.911  11.979 -0.2145  0.2619  0.3285
  334W        W 4078   1.318   9.046   2.894 -0.0013 -0.0394 -0.4538
  335W        W 4079   4.006   8.921   9.245  0.2669  0.1392 -0.0370
  336W        W 4080   2.202   6.470  11.926 -0.0032 -0.0857 -0.0729
  337W        W 4081   8.567   7.366  11.128 -0.0071 -0.1828 -0.0089
  338W        W 4082   2.958   1.220   0.951  0.0599 -0.2172 -0.3755
  339W        W 4083   9.959   2.090   0.690  0.0892  0.2169  0.1291
  340W        W 4084   3.243   5.345   2.340 -0.0737  0.1023 -0.1609
  341W        W 4085   3.549   1.275   9.481  0.0492  0.1990 -0.0085
  342W        W 4086   4.653   8.570   3.678 -0.0443  0.2732 -0.2831
  343W        W 4087   1.013   6.278   1.731  0.0688 -0.1143 -0.0228
  344W        W 4088   1.507   1.507  11.796  0.1502  0.2319  0.1046
  345W        W 4089   1.471   5.885   1.877 -0.0744 -0.0384  0.0713
  346W        W 4090   2.152   1.895   3.756  0.0892  0.0293 -0.1624
  347W        W 4091   4.860   3.407   8.315  0.1630  0.1473  0.2507
  348W        W 4092   9.617   1.640   4.361  0.2741  0.1017 -0.1338
  349W        W 4093   4.728   8.468   2.863 -0.1703 -0.0035  0.1459
  350W        W 4094   1.764   9.224   0.514 -0.1103 -0.1610  0.1029
  351W        W 4095   6.321   4.299  12.257 -0.2229  0.4817 -0.0738
  352W        W 4096   3.574   8.905   1.717  0.0185 -0.2528  0.3239
  353W        W 4097   1.868   5.328  11.073 -0.0384 -0.1016 -0.1381
  354W        W 4098   8.922   0.743  12.686  0.1529 -0.0997 -0.0880
  355W        W 4099   2.238   5.130   1.398 -0.1435 -0.0923 -0.0467
  356W        W 4100   2.355   0.186   8.606  0.0347  0.0191  0.4333
  357W        W 4101   2.391   4.349  10.716  0.2189 -0.0471  0.0224
  358W        W 4102   2.111   0.647   9.952 -0.1738  0.1506  0.0923
  359W        W 4103   8.022   7.358  10.739 -0.0583  0.1493  0.1140
  360W        W 4104   8.881   9.967   4.109 -0.0748 -0.2166 -0.1200
  361W        W 4105   5.721   7.772   3.732  0.0204 -0.1285 -0.2416
  362W        W 4106   1.092   3.462   2.246  0.0921  0.0476  0.1675
  363W        W 4107   2.133   0.603   4.551 -0.0174  0.3036  0.0885
  364W        W 4108   2.459   4.294  12.368 -0.0412 -0.0107  0.1801
  365W        W 4109   4.734   3.309  12.243 -0.1798 -0.2565  0.1915
  366W        W 4110   8.427   0.072   8.150 -0.3047  0.3714  0.4742
  367W        W 4111   2.825   1.275   4.157 -0.0439 -0.0623 -0.1278
  368W        W 4112   9.004   0.189   0.867 -0.3334  0.0027 -0.2092
  369W        W 4113   1.993   2.347  11.729  0.0866  0.3937 -0.1540
  370W        W 4114   8.061   9.363   4.229  0.1231  0.0970 -0.4034
  371W        W 4115   8.394   5.684   2.355 -0.1473  0.0692  0.0628
  372W        W 4116   1.964   2.108  11.236 -0.0991 -0.2469 -0.1509
  373W        W 4117   1.427   4.834  12.306 -0.1646  0.2893  0.1204
  374W        W 4118   4.537   1.888   3.808  0.2627 -0.2483  0.1196
  375W        W 4119   3.764   9.143   0.124  0.0983  0.0347  0.1468
  376W        W 4120   9.062   4.368   0.699 -0.1662  0.2381  0.0513
  377W        W 4121   6.650   3.637  11.006 -0.0233  0.0520  0.0064
  378W        W 4122   2.272   2.232   9.356  0.0139  0.0147  0.0398
  379W        W 4123   3.792   5.578   8.283 -0.0426 -0.4619  0.2371
  380W        W 4124   8.812   5.510  12.399 -0.0946  0.3395  0.0518
  381W        W 4125   1.768   3.436   2.409 -0.0827 -0.1005  0.1003
  382W        W 4126   5.361   0.944   2.334  0.0600  0.1495 -0.1175
  383W        W 4127   3.107   6.221  11.999 -0.1154 -0.0740  0.2045
  384W        W 4128   7.689   1.015  10.722  0.0039  0.1638  0.1757
  385W        W 4129   4.101   7.485   2.771  0.1743  0.1243  0.2740
  386W        W 4130   3.874   7.580   0.416  0.2886  0.0757 -0.1452
  387W        W 4131   0.005   3.290   9.402 -0.2688 -0.2234  0.2490
  388W        W 4132   5.031   6.455   3.794 -0.0394  0.1705  0.2111
  389W        W 4133   4.356   0.244  10.303  0.1379 -0.0817 -0.0413
  390W        W 4134   1.232   9.875  12.142  0.1650  0.1993  0.1588
  391W        W 4135   5.110   9.739   9.342  0.0857  0.0238  0.0247
  392W        W 4136   4.884   0.100  10.195  0.1199 -0.0569 -0.1223
  393W        W 4137   6.489   7.334   1.055 -0.0059 -0.0140  0.0813
  394W        W 4138   7.772   6.728  11.688 -0.1471 -0.1159 -0.2115
  395W        W 4139   0.916   1.682   1.433 -0.2214  0.3404 -0.0706
  396W        W 4140   8.506   5.779   3.432 -0.0209 -0.1676  0.0603
  397W        W 4141   1.919   0.016   8.376 -0.1998  0.1155 -0.3802
  398W        W 4142   3.479   4.820  10.028  0.1468  0.0325  0.0699
  399W        W 4143   7.300   2.415   8.919 -0.0548 -0.2439  0.0514
  400W        W 4144   5.692   8.325   2.430  0.2056  0.4238  0.2036
  401W        W 4145   5.789   8.877  11.311 -0.0314 -0.0543 -0.1553
  402W        W 4146   1.945   9.340   3.942 -0.3437  0.0111  0.2535
  403W        W 4147   5.709   4.884  12.001  0.4658  0.0414 -0.1297
  404W        W 4148   5.221   3.794  10.840  0.1852 -0.3780 -0.0364
  405W        W 4149   0.588   4.602   2.590  0.2773 -0.2536 -0.3847
  406W        W 4150   9.919   4.378   9.791 -0.3075 -0.1558 -0.0115
  407W        W 4151   3.331   4.275   0.399 -0.0076 -0.0364  0.0132
  408W        W 4152   0.379   0.068   1.584 -0.0589  0.1860 -0.0104
  409W        W 4153   3.227   1.796   1.471 -0.1572  0.4052 -0.0703
  410W        W 4154   7.812   7.908  12.347  0.3218 -0.1348 -0.0203
  411W        W 4155   5.467   2.936   2.469  0.1853 -0.0817  0.1089
  412W        W 4156   0.411   4.544  10.928 -0.0974 -0.3439  0.1591
  413W        W 4157   6.428   9.578  11.107 -0.2791  0.0683  0.1257
  414W        W 4158   1.191   5.450   1.808  0.0639 -0.2297  0.0311
  415W        W 4159   8.240   0.934   1.776  0.3066 -0.2345  0.1360
  416W        W 4160   1.147   5.318   2.611  0.2825 -0.0658  0.0236
  417W        W 4161   0.752   0.316  10.370  0.2541  0.1801  0.3802
  418W        W 4162   6.154   1.620   8.687 -0.2523 -0.0944 -0.1310
  419W        W 4163   5.578   0.176   0.419  0.3866  0.0513  0.1357
  420W        W 4164   4.748   5.947  12.362 -0.1864 -0.4134  0.0060
  421W        W 4165   2.663   1.567   3.246  0.0649  0.1473 -0.1730
  422W        W 4166   5.411   9.166   3.397 -0.4472  0.3532  0.2035
  423W        W 4167   5.765   5.035   3.067  0.2337  0.0953  0.2280
  424W        W 4168   1.140   7.899  12.101 -0.2902 -0.2238 -0.0224
  425W        W 4169   2.478   6.474   2.051  0.1962  0.1227 -0.2110
  426W        W 4170   5.700   8.868   2.907 -0.3716  0.1581 -0.1326
  427W        W 4171   5.072   3.382  11.824  0.0307  0.0687  0.2469
  428W        W 4172   3.281   7.313   9.620 -0.1701  0.2425 -0.1377
  429W        W 4173   2.030   0.136   9.481  0.1882 -0.2206  0.0557
  430W        W 4174   5.816   8.638   8.992  0.1750  0.0631 -0.3007
  431W        W 4175   5.772   9.161   9.214  0.0756 -0.1837  0.1967
  432W        W 4176   4.388   7.101   1.541 -0.3440 -0.2475  0.6056
  433W        W 4177   5.610   1.773  12.643  0.2056 -0.3164  0.1308
  434W        W 4178   0.524   2.441  12.512  0.0282  0.0044  0.4533
  435W        W 4179   8.620   8.635  11.380 -0.0839  0.1918 -0.3431
  436W        W 4180   8.399   2.733  10.960 -0.2252  0.0870 -0.1240
  437W        W 4181   1.313   7.134   2.512 -0.1510  0.0225  0.4920
  438W        W 4182   7.947   4.918   9.412  0.0619  0.0202 -0.2110
  439W        W 4183   1.799   3.228   3.664 -0.3080  0.1449  0.1326
  440W        W 4184   8.762   1.286   4.770  0.0293 -0.0590  0.1977
  441W        W 4185   6.609   1.661   0.840  0.1862  0.0776  0.3405
  442W        W 4186   4.494   4.151   9.927  0.2201  0.0294 -0.5153
  443W        W 4187   4.971   2.221   3.852  0.0853 -0.1821  0.1711
  444W        W 4188   3.985   4.692   4.186  0.4115  0.0827  0.4571
  445W        W 4189   7.121   3.785   3.411 -0.4061  0.1396  0.4938
  446W        W 4190   4.007   7.962   3.086  0.0620  0.2359 -0.1849
  447W        W 4191   8.840   7.922   0.803 -0.0999  0.0783  0.0695
  448W        W 4192   4.429   0.647   1.030 -0.0541  0.0530 -0.1141
  449W        W 4193   4.211   2.470  11.936  0.0725 -0.1151 -0.4608
  450W        W 4194   5.674   8.666  10.510 -0.2474  0.2636  0.0615
  451W        W 4195   2.715   6.603   1.117 -0.0612  0.0446 -0.1143
  452W        W 4196   0.093   7.536  10.460 -0.2588 -0.2364 -0.0524
  453W        W 4197   3.872   5.707   1.220  0.2039 -0.0366 -0.2072
  454W        W 4198   3.438   5.052   3.130  0.2225  0.0667 -0.3016
  455W        W 4199   3.425   3.055   8.430  0.3141  0.2963 -0.0669
  456W        W 4200   1.821   1.436   0.438  0.2015  0.1781 -0.1859
  457W        W 4201   5.264   0.912   9.290  0.3126 -0.0747  0.0733
  458W        W 4202   5.121   5.743   9.382  0.0178  0.0077 -0.1252
  459W        W 4203   1.127   6.922   0.838  0.0767 -0.2169 -0.3572
  460W        W 4204   6.892   8.266   3.548  0.1397  0.0688  0.0580
  461W        W 4205   0.858   7.744   1.653  0.1395 -0.0632 -0.1548
  462W        W 4206   0.885   0.456   0.165  0.1449  0.0138  0.3400
  463W        W 4207   7.552   2.487   3.497 -0.3604 -0.3431  0.2500
  464W        W 4208   4.890   7.997   2.928  0.1153  0.3681  0.1945
  465W        W 4209   2.824   3.526   0.804 -0.3154  0.0161 -0.3473
  466W        W 4210   2.849   3.810   3.175 -0.0992 -0.0052  0.0665
  467W        W 4211   5.865   6.375   9.601 -0.2657  0.1489 -0.0532
  468W        W 4212   5.809   8.013   4.291  0.3837  0.0375 -0.2292
  469W        W 4213   6.154   7.090  10.989 -0.0183  0.1245 -0.5532
  470W        W 4214   6.851   1.584   3.065  0.1102  0.0821  0.2117
  471W        W 4215   6.757   8.296  11.364  0.0015 -0.3430  0.0521
  472W        W 4216   3.088   9.796  11.255  0.2331 -0.2325  0.3004
  473W        W 4217   9.251   2.575   9.742 -0.0205  0.2417 -0.0044
  474W        W 4218   2.868   0.393   0.295  0.0633 -0.0949 -0.1569
  475W        W 4219   1.781   4.658   9.282  0.2147 -0.3505  0.2693
  476W        W 4220   3.432   2.888   2.468 -0.0045 -0.1974 -0.0750
  477W        W 4221   2.484   5.959  10.929  0.1841 -0.1177 -0.0241
  478W        W 4222   7.582   9.181  11.572  0.2271 -0.1124 -0.3173
  479W        W 4223   1.607   1.018   9.684  0.0701  0.0587 -0.0037
  480W        W 4224   4.819   3.208   9.139 -0.0307 -0.1287  0.0758
  481W        W 4225   8.822   7.259   3.025  0.0396 -0.0095 -0.0594
  482W        W 4226   6.315   1.637  12.157  0.1262  0.1837  0.0390
  483W        W 4227   9.235   2.063   0.744  0.1999  0.1971 -0.3500
  484W        W 4228   1.224   4.394   0.571 -0.4321 -0.0893 -0.0178
  485W        W 4229   4.855   7.026   9.566 -0.2700  0.0902 -0.0790
  486W        W 4230   3.890   7.210  11.185  0.0110 -0.2431  0.0987
  487W        W 4231   4.404   7.542   3.783 -0.0033  0.0961 -0.1170
  488W        W 4232   7.724   4.115  10.460  0.0841  0.0160 -0.1510
  489W        W 4233   3.538   7.353   4.847  0.0659  0.1827  0.0439
  490W        W 4234   5.308   4.013   3.159  0.1438  0.1959  0.1008
  491W        W 4235   8.244   6.085   0.539  0.2882 -0.1009  0.0604
  492W        W 4236   4.805   7.919   0.744  0.0384  0.0007  0.0291
  493W        W 4237   3.050   5.846   1.412 -0.0108 -0.0868  0.0670
  494W        W 4238   2.276   4.120  10.258 -0.2612  0.1830 -0.3064
  495W        W 4239   5.407   2.550   0.816  0.1446  0.2814 -0.2453
  496W        W 4240   6.975   9.669   2.559 -0.0493 -0.2524 -0.2968
  497W        W 4241   2.147   6.167   3.395 -0.2900 -0.0256 -0.1026
  498W        W 4242   7.835   4.631  11.333 -0.1761  0.0468 -0.0976
  499W        W 4243   7.452   3.543   3.132 -0.2430  0.2584  0.1072
  500W        W 4244   7.029   6.963   9.205 -0.0728  0.3630 -0.1698
  501W        W 4245   1.751   9.925   1.792 -0.1542  0.0603  0.4670
  502W        W 4246   3.794   0.808   9.634 -0.1382 -0.0354  0.1452
  503W        W 4247   4.299   8.759  11.240 -0.0608 -0.1565  0.1697
  504W        W 4248   7.832   4.136   0.758 -0.1074 -0.1540  0.0476
  505W        W 4249   3.294   7.264   2.141  0.2203  0.0842  0.0526
  506W        W 4250   3.410   9.433   1.579  0.0638  0.1326  0.3440
  507W        W 4251   6.672   7.375  11.699  0.1476  0.0178  0.0699
  508W        W 4252   9.622   3.109   3.646  0.1383  0.0595  0.0823
  509W        W 4253   3.297   5.460   1.858 -0.1315  0.0547  0.0067
  510W        W 4254   0.114   9.847   8.544 -0.2494 -0.1906  0.0658
  511W        W 4255   9.869   1.939   4.992  0.2058  0.3014  0.0447
  512W        W 4256   5.869   0.402  10.200 -0.2235  0.0217  0.2910
  513W        W 4257   5.188   5.156  12.555 -0.1154 -0.1796  0.2884
  514W        W 4258   8.798   2.407   1.832  0.0539  0.4156  0.4161
  515W        W 4259   0.313   1.513  10.918 -0.0762  0.0036  0.1981
  516W        W 4260   9.775   7.898   4.144 -0.1261  0.3053 -0.2928
  517W        W 4261   0.060   9.086   3.852  0.3075  0.1518  0.0122
  518W        W 4262   3.155   4.266  12.637 -0.1998 -0.1170  0.3216
  519W        W 4263   8.934   8.075  11.535 -0.4881 -0.2393  0.0561
  520W        W 4264   4.482   8.574   4.714 -0.3932 -0.0485  0.2606
  521W        W 4265   5.519   9.136   9.675  0.2339 -0.0507  0.2060
  522W        W 4266   4.847   2.849  10.473 -0.2545  0.3752 -0.0113
  523W        W 4267   9.652   3.953   3.044 -0.1366 -0.0497  0.0126
  524W        W 4268   7.130   1.578   0.262 -0.1174  0.2845 -0.2886
  525W        W 4269   2.195   1.639   9.574 -0.3004  0.0860 -0.0420
  526W        W 4270   6.215   6.802  10.241 -0.3061 -0.2626  0.3624
  527W        W 4271   8.247   2.708  10.496 -0.4467  0.3578  0.1555
  528W        W 4272   9.587   9.934   9.455 -0.1244  0.0780  0.0018
  529W        W 4273   7.332   6.317   9.620 -0.2964 -0.2397  0.1578
  530W        W 4274   2.006   2.190   3.312  0.3587 -0.2091 -0.2528
  531W        W 4275   0.081   4.701   4.517 -0.2181  0.1251 -0.0430
  532W        W 4276   0.276   0.653   0.037  0.3083 -0.1509  0.0958
  533W        W 4277   1.137   1.056   2.309 -0.0567  0.1376 -0.0211
  534W        W 4278   8.256   2.251   1.008  0.3347 -0.3970 -0.0943
  535W        W 4279   6.168   1.293   0.456  0.1955 -0.0636 -0.2452
  536W        W 4280   3.728   2.040  12.180 -0.3750  0.1555 -0.3576
  537W        W 4281   6.421   7.448   0.577  0.1365  0.1762 -0.1867
  538W        W 4282   4.963   0.753  11.571  0.4053 -0.1033 -0.3255
  539W        W 4283   7.187   3.394   2.225 -0.1062 -0.0998 -0.2664
  540W        W 4284   0.472   6.575   1.493 -0.1193  0.0815 -0.3786
  541W        W 4285   9.360   5.341   1.933 -0.0182 -0.0626 -0.5008
  542W        W 4286   6.319   3.783   1.648  0.3128 -0.1490 -0.2129
  543W        W 4287   7.580   2.638   9.431  0.2366 -0.0823 -0.4810
  544W        W 4288   3.805   5.765  10.056  0.1147  0.0729  0.2482
  545W        W 4289   6.509   6.449   0.553  0.1957  0.0659  0.1425
  546W        W 4290   4.880   1.344   9.271 -0.0354 -0.1238  0.4146
  547W        W 4291   5.554   4.873  11.127  0.0989 -0.0104 -0.0945
  548W        W 4292   4.329   6.376   8.473 -0.0674  0.0615  0.0915
  549W        W 4293   7.959   8.947   0.520 -0.1256 -0.0537 -0.1418
  550W        W 4294   9.779   8.894   1.401 -0.4639  0.2519  0.1401
  551W        W 4295   6.684   6.485  12.318  0.1379 -0.0390  0.0897
  552W        W 4296   3.456   2.925   9.580  0.1597 -0.1253 -0.3099
  553W        W 4297   5.573   6.777  10.267  0.0734 -0.2691  0.0474
  554W        W 4298   7.630   3.660   0.534 -0.1965 -0.1039  0.1334
  555W        W 4299   3.825   8.186  11.693 -0.2005 -0.0338 -0.0734
  556W        W 4300   1.771   8.175   3.137  0.2192 -0.3042 -0.1293
  557W        W 4301   0.558   6.038  11.582  0.1707  0.2566 -0.0241
  558W        W 4302   2.785   9.608   9.176  0.2936 -0.1548 -0.0208
  559W        W 4303   7.998   0.432   1.302  0.2074  0.3748 -0.1240
  560W        W 4304   6.593   5.044   1.836  0.1570  0.1621 -0.0060
  561W        W 4305   5.030   6.202   9.655  0.0439 -0.1891  0.0424
  562W        W 4306   2.265   0.714   2.995 -0.0801 -0.1968 -0.1701
  563W        W 4307   5.484   9.060   0.676  0.1105  0.0541  0.0842
  564W        W 4308   7.709   3.443   9.981 -0.2171  0.0141  0.1685
  565W        W 4309   5.725   4.349   3.985 -0.0021  0.1636  0.1220
  566W        W 4310   0.284   5.517   2.917  0.2902 -0.1402 -0.0473
  567W        W 4311   5.887   9.515   1.636  0.0965 -0.3397 -0.2228
  568W        W 4312   4.086   7.119  10.213 -0.0629  0.0963 -0.1240
  569W        W 4313   2.225   4.265  11.184  0.1334 -0.1052  0.1057
  570W        W 4314   1.630   7.065   0.516 -0.1283  0.1604 -0.0291
  571W        W 4315   2.604   4.563   9.513  0.1171  0.0050  0.0163
  572W        W 4316   9.073   6.482   2.446 -0.3601 -0.4211 -0.1305
  573W        W 4317   7.827   2.035   8.897  0.1874  0.0600  0.0581
  574W        W 4318   7.884   9.991   1.064  0.0829  0.0939  0.3741
  575W        W 4319   7.226   7.492  11.650 -0.0181 -0.0041 -0.1237
  576W        W 4320   5.960   2.085  10.186  0.1772 -0.0553 -0.0036
  577W        W 4321   0.721   8.387  11.065  0.0334  0.1631 -0.0313
  578W        W 4322   6.148   6.301  11.972 -0.0645 -0.2192  0.1656
  579W        W 4323   3.400   6.455   3.238 -0.0138  0.0454  0.2322
  580W        W 4324   7.648   3.928   9.838  0.0631 -0.2161  0.1722
  581W        W 4325   2.407   6.506  10.326  0.0177 -0.4942 -0.3015
  582W        W 4326   6.627   0.461  10.761 -0.1529  0.0032 -0.3581
  583W        W 4327   5.187   6.825   7.987 -0.0310  0.2003 -0.0266
  584W        W 4328   2.891   6.905  11.287  0.1585  0.1494  0.2379
  585W        W 4329   3.960   6.397  12.646  0.0861  0.0194  0.2754
  586W        W 4330   6.689   0.007   4.086 -0.1202  0.0757 -0.3255
  587W        W 4331   7.058   1.693   7.853 -0.1559  0.1808 -0.0445
  588W        W 4332   2.936   1.492  10.621 -0.3021  0.1191  0.0170
  589W        W 4333   6.877   2.128   8.755 -0.1318 -0.1086  0.2429
  590W        W 4334   5.219   8.401  10.583 -0.0348 -0.1988  0.3966
  591W        W 4335   2.056   8.940  10.094 -0.2420  0.2144 -0.2050
  592W        W 4336   2.769   5.324   0.534 -0.3843 -0.0566  0.0761
  593W        W 4337   1.506   9.252   9.366  0.3542  0.2768 -0.1010
  594W        W 4338   8.345   8.731  12.599  0.1114  0.4389 -0.1126
  595W        W 4339   3.404   7.012  11.961  0.2816  0.0417 -0.0310
  596W        W 4340   4.518   7.055   2.524 -0.4094  0.0364 -0.1094
  597W        W 4341   9.182   9.625   3.299 -0.2905 -0.0674 -0.2840
  598W        W 4342   6.575   2.101  10.426 -0.1519  0.0440 -0.0115
  599W        W 4343   9.044   8.271   0.056 -0.0224 -0.0975  0.0674
  600W        W 4344   9.355   7.649   0.567 -0.2202 -0.2317  0.0491
  601W        W 4345   7.916   3.088   1.977 -0.0804  0.0275 -0.1661
  602W        W 4346   8.724   3.460   3.299 -0.0506 -0.1786 -0.2646
  603W        W 4347   1.388   8.606  12.607  0.0717 -0.2639 -0.1472
  604W        W 4348   7.051   0.479   9.640  0.0046  0.0230  0.0625
  605W        W 4349   4.580   2.669   2.349  0.0999 -0.2353  0.3338
  606W        W 4350   2.806   4.142  10.822  0.0122  0.3171 -0.0935
  607W        W 4351   5.030   2.911   0.658 -0.2183 -0.1260 -0.3378
  608W        W 4352   1.469   9.765  10.729  0.0535  0.0739 -0.0490
  609W        W 4353   3.377   3.092   4.319  0.0862 -0.1652  0.0817
  610W        W 4354   5.604   0.798   4.041 -0.1593 -0.0724  0.0763
  611W        W 4355   9.616   4.871   4.300  0.2760 -0.2030  0.0830
  612W        W 4356   5.742   0.925   8.285 -0.0449  0.1531 -0.4837
  613W        W 4357   2.605   2.962  10.518 -0.2106  0.1303 -0.0600
  614W        W 4358   2.512   4.362   3.772  0.0536  0.0722 -0.0739
  615W        W 4359   8.929   7.047  12.003  0.0782 -0.4009  0.1003
  616W        W 4360   8.890   6.288   9.606  0.2093  0.1756 -0.1922
  617W        W 4361   9.533   9.968   3.473 -0.0755  0.1912 -0.2599
  618W        W 4362   4.067   7.536   9.761  0.0500 -0.1063  0.5265
  619W        W 4363   7.451   8.064   4.312 -0.0681 -0.0880 -0.0493
  620W        W 4364   8.374   2.833   1.911 -0.1277 -0.4106 -0.0636
  621W        W 4365   4.698   1.160  12.350  0.1698  0.0179 -0.0722
  622W        W 4366   6.543   2.344   9.674  0.0378 -0.0101  0.3877
  623W        W 4367   3.704   2.202  10.668  0.1938 -0.2219  0.0965
  624W        W 4368   4.803   5.471   8.503  0.0032 -0.0469  0.1122
  625W        W 4369   4.649   5.124   3.921 -0.0030 -0.3417 -0.5113
  626W        W 4370   2.960   9.802   3.948  0.0249 -0.2497  0.0637
  627W        W 4371   8.515   7.670  11.486  0.2695  0.1093  0.1168
  628W        W 4372   6.103   3.464   0.278 -0.0672 -0.3299 -0.1789
  629W        W 4373   5.951   1.897   0.513  0.2386 -0.2646 -0.1533
  630W        W 4374   5.525   4.034   1.295  0.3178 -0.0949 -0.1283
  631W        W 4375   9.852   6.458   3.332 -0.1987  0.0580 -0.0947
  632W        W 4376   7.405   5.035  10.702 -0.0829  0.2347  0.1741
  633W        W 4377   1.728   3.024   2.741  0.1891 -0.0819 -0.0275
  634W        W 4378   8.474   8.159   1.917 -0.2195  0.4536 -0.1830
  635W        W 4379   9.572   6.524   9.995 -0.0126 -0.1204 -0.0986
  636W        W 4380   4.711   0.368   1.913 -0.0536 -0.0359 -0.1086
  637W        W 4381   3.858   3.287   1.760 -0.1014 -0.1731  0.1741
  638W        W 4382   2.571   3.467   9.409 -0.0759  0.1342  0.2964
  639W        W 4383   7.987   0.052   2.776  0.0473  0.3057  0.0868
  640W        W 4384   6.362   2.998  10.310  0.0222 -0.1743  0.4510
  641W        W 4385   6.364   7.839   0.266 -0.0675 -0.0007 -0.0069
  642W        W 4386   2.374   7.521   1.073  0.1783  0.1469 -0.2205
  643W        W 4387   2.631   6.200  11.857 -0.1490 -0.0087 -0.0911
  644W        W 4388   0.866   3.819   1.611 -0.0968  0.0816  0.1487
  645W        W 4389   7.583   3.329  12.321 -0.0679  0.1389  0.0992
  646W        W 4390   5.441   9.353   0.286 -0.1510 -0.1239 -0.3874
  647W        W 4391   2.307   2.675   9.113  0.0956  0.1856 -0.0286
  648W        W 4392   6.744   9.377  10.540  0.1712  0.0167 -0.0608
  649W        W 4393   9.443   9.262   2.989 -0.1576  0.3195 -0.0188
  650W        W 4394   4.033   1.239  10.328  0.0247  0.0314 -0.1117
  651W        W 4395   8.787   0.806   9.829  0.0706 -0.0550  0.1789
  652W        W 4396   0.986   2.368   5.400 -0.0890 -0.4222  0.0673
  653W        W 4397   4.344   8.986  11.711  0.2175 -0.2752 -0.0932
  654W        W 4398   4.133   4.657  11.529  0.0402 -0.0418  0.1655
  655W        W 4399   3.667   5.540   3.236 -0.4427  0.0570  0.1392
  656W        W 4400   6.580   9.962   2.669  0.0524  0.0429 -0.2647
  657W        W 4401   9.730   1.590   3.879  0.0548 -0.1492  0.0394
  658W        W 4402   6.380   0.125  10.176  0.1149  0.3184 -0.0345
  659W        W 4403   3.365   2.453   3.730  0.2242  0.2413  0.1365
  660W        W 4404   5.842   8.751   9.541  0.0116 -0.1958  0.4836
  661W        W 4405   7.947   5.660  10.286 -0.0185 -0.1390  0.2811
  662W        W 4406   2.971   3.564   1.717 -0.0869 -0.2715 -0.0820
  663W        W 4407   7.177   8.276   3.128  0.2789  0.2469 -0.1134
  664W        W 4408   6.173   8.631   9.949  0.0708 -0.1110  0.1931
  665W        W 4409   8.327   2.462   1.501  0.0928  0.0700  0.2067
  666W        W 4410   1.497   4.745   2.696 -0.0087  0.0631 -0.1134
  667W        W 4411   0.957   1.107   1.253 -0.1392 -0.4851  0.2589
  668W        W 4412   3.185   6.365   4.829 -0.0623  0.1652 -0.0472
  669W        W 4413   7.921   0.840   2.237 -0.1943  0.0654 -0.2040
  670W        W 4414   6.628   4.211  10.659  0.2207  0.1585 -0.0108
  671W        W 4415   0.359   7.948   1.899  0.2673  0.1837 -0.0585
  672W        W 4416   2.655   6.629   3.584 -0.0896  0.0400  0.2449
  673W        W 4417   8.327   8.045  12.327  0.2162 -0.0048 -0.0197
  674W        W 4418   5.109   7.816  12.254 -0.1111 -0.3329  0.0228
  675W        W 4419   8.872   1.236   0.168  0.1746  0.1930 -0.0470
  676W        W 4420   8.108   0.403   8.641  0.0110 -0.0850  0.3222
  677W        W 4421   5.794   2.520  11.411 -0.1510  0.0871  0.2590
  678W        W 4422   9.077   1.006   1.253  0.2211  0.0222  0.4199
  679W        W 4423   0.081   8.170   2.799 -0.1177 -0.0969  0.2496
  680W        W 4424   2.370   0.187   1.297  0.2128 -0.1357 -0.0365
  681W        W 4425   5.904   1.206  12.668 -0.3322 -0.1105  0.2167
  682W        W 4426   7.492   0.291  11.483  0.2483 -0.0639  0.1622
  683W        W 4427   2.270   1.166   0.259 -0.0636  0.2982  0.0707
  684W        W 4428   2.002   8.352   4.679 -0.1597 -0.2107  0.2208
  685W        W 4429   1.734   6.103   8.682 -0.0136 -0.0673 -0.1335
  686W        W 4430   2.525   7.522   3.773 -0.0264  0.2073  0.2797
  687W        W 4431   7.539   1.974   1.129  0.1274  0.0517 -0.0478
  688W        W 4432   3.491   8.160   3.093  0.0229 -0.1150  0.1160
  689W        W 4433   8.383   2.435   9.582  0.0023 -0.2154 -0.1190
  690W        W 4434   0.704   6.447   4.432  0.1922  0.2859  0.1559
  691W        W 4435   6.793   1.450   8.180  0.2405 -0.0028 -0.0045
  692W        W 4436   5.320   4.156   1.713  0.1345  0.2330 -0.1141
  693W        W 4437   5.371   1.301  10.381  0.0153  0.3330  0.1683
  694W        W 4438   9.338   8.139   1.579 -0.0939 -0.2388  0.3535
  695W        W 4439   2.710   9.384   1.967  0.2374  0.2180  0.0375
  696W        W 4440   1.984   5.734  10.795 -0.0926  0.2455 -0.0092
  697W        W 4441   7.257   6.099   1.589  0.0252 -0.1292 -0.2998
  698W        W 4442   3.448   6.130   8.890 -0.0976  0.1352  0.4779
  699W        W 4443   3.081   0.240   7.839  0.0770  0.0453  0.4518
  700W        W 4444   5.531   5.034  10.320  0.1650  0.1796  0.0837
  701W        W 4445   8.275   7.220   1.559 -0.1249 -0.1201 -0.0476
  702W        W 4446   1.548   9.815  11.721 -0.1752 -0.0016  0.2000
  703W        W 4447   1.536   4.326  12.416  0.3000 -0.3311 -0.0703
  704W        W 4448   3.285   8.154   1.771 -0.0485  0.1358  0.1687
  705W        W 4449   6.063   6.025   8.444  0.0067  0.1064  0.1679
  706W        W 4450   5.451   5.944   0.154  0.0765 -0.2216 -0.2878
  707W        W 4451   0.049   9.564   2.276 -0.4459  0.2461  0.2820
  708W        W 4452   2.373   2.543   9.722 -0.1287 -0.1809  0.0951
  709W        W 4453   0.764   9.257  12.677 -0.3286  0.1640  0.1644
  710W        W 4454   2.090   2.682   2.509 -0.0332 -0.1122  0.1583
  711W        W 4455   7.604   2.008   3.234  0.1876  0.0467 -0.2550
  712W        W 4456   0.909   4.962   3.237  0.0365 -0.4337  0.1407
  713W        W 4457   2.975   8.361   9.049  0.3057  0.0161 -0.5088
  714W        W 4458   6.558   0.862   1.188 -0.2178 -0.0251 -0.1033
  715W        W 4459   3.838   5.343   0.860 -0.0077  0.0644  0.2527
  716W        W 4460   6.707   3.669   8.724 -0.0515 -0.2509  0.0474
  717W        W 4461   1.950   0.177   0.418  0.2338 -0.0492 -0.3467
  718W        W 4462   5.913   9.193   0.256 -0.1580 -0.4379 -0.2450
  719W        W 4463   6.792   1.770   3.594  0.0096  0.1427 -0.0418
  720W        W 4464   0.353   6.284   1.009  0.0304  0.0296 -0.1281
  721W        W 4465   2.029   1.313   1.239  0.0974  0.0391  0.1124
  722W        W 4466   7.091   9.004  12.488  0.0025  0.0857  0.2551
  723W        W 4467   6.706   4.711   0.841  0.0672 -0.2302 -0.0752
  724W        W 4468   9.692   6.348  10.887 -0.0024 -0.4421 -0.4998
  725W        W 4469   0.552   4.136  10.522  0.0379 -0.0689  0.2433
  726W        W 4470   8.728   0.974   8.467 -0.1935  0.0714 -0.2277
  727W        W 4471   4.310   5.227   0.134  0.0350  0.0874  0.2898
  728W        W 4472   1.005   1.755   3.437 -0.0669 -0.1985 -0.1444
  729W        W 4473   9.475   6.025   3.194 -0.1563 -0.0851 -0.1741
  730W        W 4474   7.039   5.149   2.082  0.0123  0.5587 -0.1423
  731W        W 4475   5.425   7.400  11.550  0.0852  0.3037  0.1014
  732W        W 4476   2.717   2.593   3.726  0.1566  0.1759  0.0296
  733W        W 4477   3.834   8.213  11.140  0.0497 -0.1123  0.0083
  734W        W 4478   2.154   0.888   0.679  0.0582  0.0357 -0.2299
  735W        W 4479   3.595   5.554   3.727  0.2712  0.0718  0.0947
  736W        W 4480   6.879   6.536   2.090 -0.0655 -0.0599 -0.2246
  737W        W 4481   0.085   4.574   2.764 -0.1515 -0.3737  0.1969
  738W        W 4482   4.339   6.707   0.659  0.0623  0.2023  0.2648
  739W        W 4483   2.451   0.921  10.132  0.3051  0.1776 -0.3578
  740W        W 4484   9.919   6.775  10.897  0.1393 -0.0000  0.1550
  741W        W 4485   0.284   8.474   3.730 -0.3251 -0.1516 -0.1913
  742W        W 4486   0.240   4.144   0.632  0.1346  0.2166  0.3514
  743W        W 4487   1.125   8.013   9.125  0.1981  0.1100 -0.1115
  744W        W 4488   2.919   6.643   0.067  0.3081 -0.2011  0.3733
  745W        W 4489   6.096   0.328  10.710  0.0069  0.2965 -0.0789
  746W        W 4490   3.665   6.067   9.572  0.4519  0.2876 -0.0026
  747W        W 4491   2.712   4.870   3.649  0.2196  0.2212  0.0220
  748W        W 4492   6.853   7.765  10.736  0.2903 -0.1619  0.1955
  749W        W 4493   3.600   9.830   1.783  0.2092 -0.1606 -0.1829
  750W        W 4494   2.783   7.525  12.431  0.0383 -0.0283  0.1999
  751W        W 4495   9.495   7.431   3.213  0.0722  0.1717 -0.2171
  752W        W 4496   9.925   9.789   0.022 -0.1572  0.2158  0.0854
  753W        W 4497   3.771   8.713   8.738  0.3934 -0.0626 -0.2135
  754W        W 4498   0.466   3.707   9.051 -0.1855  0.0111 -0.1907
  755W        W 4499   9.553   3.958  11.549 -0.1801 -0.1557 -0.1240
  756W        W 4500   3.864   3.837   3.716  0.0121  0.0127  0.1971
  757W        W 4501   1.636   5.083   9.090 -0.0364  0.0644 -0.1483
  758W        W 4502   8.861   0.053   2.333 -0.0378 -0.0236  0.1315
  759W        W 4503   5.559   7.796   1.239 -0.0232  0.0475 -0.3088
  760W        W 4504   7.541   5.330   2.123  0.2673  0.1118 -0.2861
  761W        W 4505   6.216   8.563   3.258  0.3382 -0.0641  0.2250
  762W        W 4506   8.334   1.957   0.607 -0.3339 -0.0147  0.2481
  763W        W 4507   8.648   4.969  11.744 -0.0956  0.0532 -0.1977
  764W        W 4508   7.289   2.653   2.625 -0.5893 -0.1340 -0.1886
  765W        W 4509   5.552   4.877   9.846 -0.2026 -0.2138 -0.1563
  766W        W 4510   4.227   3.511   1.970 -0.0345  0.1849 -0.4780
  767W        W 4511   4.153   8.404   9.636  0.0312  0.3494  0.1904
  768W        W 4512   5.642   3.594   2.331  0.1182  0.0154  0.0393
  769W        W 4513   6.933   9.251   0.686 -0.0399 -0.1036 -0.1006
  770W        W 4514   2.591   5.007   9.863  0.1137 -0.0366  0.1410
  771W        W 4515   7.804   7.281  10.241  0.0072  0.1406 -0.0807
  772W        W 4516   8.150   3.261   9.507 -0.0164 -0.2109 -0.0030
  773W        W 4517   9.312   9.611  12.524 -0.0975 -0.1032  0.2851
  774W        W 4518   2.296   8.596  11.969 -0.0652 -0.1584  0.2235
  775W        W 4519   0.303   3.239  10.359  0.0651  0.0882  0.0886
  776W        W 4520   7.935   3.720   3.439  0.2091 -0.0490  0.0221
  777W        W 4521   5.756   5.676   2.389 -0.2030 -0.3030 -0.1308
  778W        W 4522   2.143   5.995   1.552 -0.0573 -0.1803  0.2208
  779W        W 4523   4.617   6.203   9.165  0.3077  0.0899  0.0607
  780W        W 4524   5.931   5.174  10.068 -0.1735 -0.2704  0.0449
  781W        W 4525   1.987   5.422   3.614 -0.0407 -0.2435 -0.2078
  782W        W 4526   5.141   5.603  10.343 -0.0105  0.3496  0.1226
  783W        W 4527   1.420   7.122  11.725  0.2186 -0.1444 -0.2535
  784W        W 4528   1.419   9.285   3.910  0.1015 -0.2610  0.1526
  785W        W 4529   1.857   0.709  11.304  0.0770 -0.1275 -0.1847
  786W        W 4530   9.968   4.150   2.144 -0.0382  0.2825 -0.4190
  787W        W 4531   9.732   0.709   0.083 -0.3397  0.0810 -0.2448
  788W        W 4532   2.736   7.680   1.612 -0.1966 -0.2241  0.1842
  789W        W 4533   0.602   9.496   2.306  0.1895 -0.2057  0.0432
  790W        W 4534   2.796   4.949   1.302 -0.3095 -0.2800  0.0304
  791W        W 4535   4.580   6.996   0.266  0.0532  0.1832 -0.1931
  792W        W 4536   3.724   0.960   7.842 -0.1652  0.2097  0.1420
  793W        W 4537   4.224   6.755   3.416 -0.1028 -0.1209 -0.2687
  794W        W 4538   6.252   7.248  10.483 -0.2997 -0.2305 -0.1419
  795W        W 4539   0.213   5.076  10.404 -0.2369  0.1087  0.0817
  796W        W 4540   8.943   3.699   0.294 -0.1753 -0.0632 -0.0646
  797W        W 4541   5.320   7.980   9.626  0.0225  0.1558  0.0767
  798W        W 4542   6.443   1.389   1.774  0.0917 -0.1692 -0.1166
  799W        W 4543   3.831   9.679   0.116  0.0253 -0.1173  0.1966
  800W        W 4544   5.635   5.539  12.093  0.0755 -0.0638 -0.1531
  801W        W 4545   6.887   9.086   2.629 -0.0698  0.0883  0.0405
  802W        W 4546   3.074   5.934   9.409  0.2340  0.0216  0.1946
  803W        W 4547   9.851   7.428   9.983 -0.2815  0.0686 -0.0165
  804W        W 4548   3.571   0.069   8.699 -0.1611 -0.2187  0.1929
  805W        W 4549   4.576   9.227   0.903  0.4775  0.3619  0.0236
  806W        W 4550   2.253   7.772  12.587  0.2022 -0.1258 -0.1396
  807W        W 4551   9.096   8.953   9.826 -0.1117  0.4217 -0.3064
  808W        W 4552   8.310   0.284  11.026  0.0703 -0.2440 -0.1196
  809W        W 4553   2.192   7.292   0.588  0.1290  0.2111  0.0129
  810W        W 4554   3.144   2.611   9.359 -0.2066  0.0411 -0.1755
  811W        W 4555   5.098   6.194  11.997 -0.2278 -0.0057  0.1252
  812W        W 4556   8.958   5.330   9.693  0.0812 -0.5667  0.0275
  813W        W 4557   1.183   0.399  10.073 -0.0418  0.1426 -0.2393
  814W        W 4558   5.552   1.110   7.846  0.0856 -0.0073 -0.3431
  815W        W 4559   4.208   1.945   0.285  0.0904 -0.2596  0.1141
  816W        W 4560   8.649   4.362  11.631 -0.1636 -0.0241  0.0042
  817W        W 4561   5.079   0.550   3.946 -0.1200 -0.1339  0.0596
  818W        W 4562   5.129   1.424   3.642 -0.1371  0.0728  0.2573
  819W        W 4563   9.433   0.781   4.374  0.4077  0.0189  0.3171
  820W        W 4564   2.692   2.738   1.315 -0.0023  0.2433 -0.0722
  821W        W 4565   8.243   1.732  12.076  0.3102 -0.1332  0.0138
  822W        W 4566   5.157   7.091   9.165 -0.1289 -0.1971 -0.2708
  823W        W 4567   0.278   9.546   1.829  0.0631  0.1217  0.1673
  824W        W 4568   0.392   0.953  12.288  0.0148 -0.1798  0.1823
  825W        W 4569   5.340   3.092  10.605 -0.2189  0.0314  0.0060
  826W        W 4570   8.465   9.916   2.710  0.1195 -0.2197 -0.1729
  827W        W 4571   4.636   6.965   9.095 -0.0158 -0.2195  0.1276
  828W        W 4572   1.934   8.614   8.408 -0.3577 -0.0509  0.1007
  829W        W 4573   6.178   2.924   1.314  0.1300  0.1189  0.0664
  830W        W 4574   0.281   2.143  11.420  0.1386  0.3772  0.2878
  831W        W 4575   5.607   1.530   8.836 -0.0049 -0.0676  0.0958
  832W        W 4576   5.323   8.691  10.116 -0.0525  0.0656 -0.2189
  833W        W 4577   8.726   2.551   2.923 -0.1147 -0.1142  0.1004
  834W        W 4578   1.260   0.024   2.808 -0.1506 -0.0116  0.0169
  835W        W 4579   9.565   1.092   8.996 -0.1354  0.0478  0.2229
  836W        W 4580   4.199   6.325   9.501  0.0794 -0.3069 -0.0911
  837W        W 4581   7.986   0.336  10.289 -0.2257 -0.1699 -0.0704
  838W        W 4582   8.180   2.735  12.251 -0.2056  0.1425 -0.0755
  839W        W 4583   5.965   4.147  11.286  0.1220 -0.2790 -0.2431
  840W        W 4584   4.570   1.850   7.696 -0.1222 -0.1587 -0.1805
  841W        W 4585   5.856   1.184  11.717 -0.0128  0.1752  0.2482
  842W        W 4586   7.577   3.665  11.968  0.0731  0.0193 -0.0371
  843W        W 4587   4.080   9.850  10.123 -0.0723 -0.3088 -0.1213
  844W        W 4588   6.211   5.321  11.506  0.1956 -0.1032  0.2217
  845W        W 4589   7.778   2.200   9.451 -0.1239  0.0120 -0.1246
  846W        W 4590   5.403   4.255   0.123  0.1686  0.1227  0.1012
  847W        W 4591   6.953   3.890   9.286 -0.1753 -0.0481  0.1492
  848W        W 4592   9.762   2.035   4.090  0.0389 -0.0404  0.1328
  849W        W 4593   1.899   2.733   3.635  0.0019  0.1442  0.0089
  850W        W 4594   1.283   9.497   0.436  0.0063  0.0211 -0.0377
  851W        W 4595   5.888   3.259   1.478  0.0506  0.3243  0.4822
  852W        W 4596   3.175   0.470   9.660  0.0319 -0.1915 -0.0894
  853W        W 4597   7.505   9.760   3.534 -0.0772  0.1202 -0.2528
  854W        W 4598   8.534   8.184  11.286  0.2386 -0.0690  0.1071
  855W        W 4599   3.437   6.133   4.133 -0.2213 -0.3780  0.0580
  856W        W 4600   6.870   0.354   2.485  0.2295  0.3400  0.1867
  857W        W 4601   4.562   1.476   2.877 -0.1562 -0.0201 -0.1616
  858W        W 4602   6.847   4.958   0.187 -0.0054 -0.2745 -0.0661
  859W        W 4603   1.120   3.503   8.253  0.0965 -0.1293 -0.2585
  860W        W 4604   1.147   9.713   9.299  0.0256  0.2123  0.0759
  861W        W 4605   5.929   2.960   2.361 -0.2234  0.0370  0.1163
  862W        W 4606   3.132   6.854   4.018  0.0615 -0.0165 -0.1459
  863W        W 4607   9.835   2.002   2.510 -0.0990 -0.3004  0.1910
  864W        W 4608   4.125   0.764  10.456  0.2672  0.1262  0.0031
  865W        W 4609   1.070   5.849   1.451  0.0700 -0.1017 -0.0271
  866W        W 4610   7.830   7.222   1.318  0.1477 -0.2011  0.3029
  867W        W 4611   3.851   2.072   9.349  0.1368  0.2330  0.3665
  868W        W 4612   4.013   1.155   3.473  0.2384 -0.2488 -0.1855
  869W        W 4613   6.050   7.918  10.596  0.0110  0.3358 -0.0667
  870W        W 4614   1.740   6.419   3.248  0.3514  0.1200 -0.1219
  871W        W 4615   3.820   8.958   4.247 -0.2049 -0.0074 -0.1438
  872W        W 4616   1.541   4.443  11.883  0.2039  0.0110  0.1380
  873W        W 4617   7.200   9.773   3.102 -0.0483  0.1822  0.0343
  874W        W 4618   5.427   9.883  11.310  0.1139 -0.1420  0.1204
  875W        W 4619   3.093   0.938   2.231  0.1204 -0.2066  0.1842
  876W        W 4620   8.491   9.275   8.491  0.2375  0.3198 -0.0696
  877W        W 4621   2.314   7.327   2.523 -0.1310 -0.1390 -0.1852
  878W        W 4622   1.337   1.374   0.042  0.0831 -0.1502  0.0199
  879W        W 4623   5.557   6.954   3.372  0.0941 -0.2950  0.1812
  880W        W 4624   2.403   1.175   1.542  0.2927  0.3046  0.0423
  881W        W 4625   7.130   4.332   9.539  0.1519 -0.1980  0.1245
  882W        W 4626   0.745   1.222   9.836 -0.1420  0.1625 -0.0066
  883W        W 4627   3.287   7.614   0.419  0.2139 -0.0638 -0.1500
  884W        W 4628   3.002   8.246  12.566  0.1524 -0.0489  0.0192
  885W        W 4629   7.711   1.290   3.613  0.0624 -0.2857  0.3607
  886W        W 4630   3.530   5.979   1.456  0.2303 -0.1681  0.0189
  887W        W 4631   8.042   6.220  11.768 -0.1143  0.1769  0.0616
  888W        W 4632   6.349   1.229  11.496 -0.4925 -0.1119  0.2401
  889W        W 4633   0.352   0.720  10.635 -0.2520  0.0399  0.2873
  890W        W 4634   1.336   3.174   9.060  0.0478  0.1803 -0.2137
  891W        W 4635   7.197   9.359   3.446  0.0296  0.0196  0.5655
  892W        W 4636   2.268   5.904   9.576  0.3175  0.2826 -0.0317
  893W        W 4637   7.022   6.877  10.515  0.1397 -0.2612  0.3329
  894W        W 4638   8.474   6.022   1.051 -0.3351 -0.2510 -0.0585
  895W        W 4639   7.293   1.220   2.898 -0.0075  0.1511  0.0660
  896W        W 4640   8.836   5.166   1.755  0.0172  0.1588 -0.0387
  897W        W 4641   6.333   4.380  11.077 -0.0025  0.2180  0.1824
  898W        W 4642   1.743   2.808  11.955 -0.0072  0.2515 -0.0350
  899W        W 4643   2.588   1.306   9.823  0.4647  0.1969  0.2776
  900W        W 4644   0.426   0.172   0.076  0.0704 -0.1037  0.1097
  901W        W 4645   1.282   9.413  10.281 -0.1407 -0.0342 -0.0854
  902W        W 4646   6.288   5.451   3.778  0.0369  0.0123 -0.0764
  903W        W 4647   5.810   8.359   2.959 -0.2188 -0.0426  0.0161
  904W        W 4648   8.268   9.819   0.589  0.2122 -0.0920 -0.4540
  905W        W 4649   3.958   7.776   8.276 -0.1901 -0.1590 -0.2761
  906W        W 4650   4.661   6.527  10.455  0.2470 -0.1530  0.4021
  907W        W 4651   3.774   6.838   0.287 -0.0369 -0.0606 -0.0363
  908W        W 4652   4.589   6.016   9.697  0.1252 -0.3781  0.2735
  909W        W 4653   3.140   9.680   2.107 -0.2054  0.0187 -0.0124
  910W        W 4654   0.410   0.819  11.679 -0.2050 -0.0930  0.1623
  911W        W 4655   6.795   7.691   2.309  0.0592  0.0777 -0.0547
  912W        W 4656   8.983   2.524   0.706 -0.0839 -0.0970 -0.1043
  913W        W 4657   1.769   3.656   4.195 -0.1689 -0.1398 -0.2247
  914W        W 4658   0.534   7.113   1.423 -0.0417  0.2036  0.4760
  915W        W 4659   5.824   7.496  10.780 -0.2955  0.1519 -0.1456
  916W        W 4660   6.775   4.889   2.703  0.2614 -0.1740  0.0109
  917W        W 4661   2.422   3.854   2.938 -0.2686  0.1540  0.0485
  918W        W 4662   4.078   9.398   9.100  0.2128  0.4872 -0.0834
  919W        W 4663   0.713   3.064   1.211 -0.0206  0.1844 -0.1044
  920W        W 4664   5.656   9.819   0.068 -0.0821  0.0448 -0.1692
  921W        W 4665   1.234   8.666  10.865 -0.1688 -0.1219  0.1163
  922W        W 4666   5.240   7.572   0.516  0.3995 -0.1329 -0.3900
  923W        W 4667   0.212   8.529  11.159  0.1654 -0.2104 -0.0283
  924W        W 4668   4.501   4.600   9.654  0.0476 -0.3909 -0.3097
  925W        W 4669   4.558   5.114   9.834 -0.0185  0.4208 -0.0720
  926W        W 4670   4.783   6.358   2.034 -0.1616  0.0601 -0.0920
  927W        W 4671   9.890   0.233   9.780  0.1385  0.0088  0.0060
  928W        W 4672   9.774   2.586  11.992 -0.2381  0.1542  0.2116
  929W        W 4673   0.290   6.968   2.651 -0.0704  0.1250  0.0944
  930W        W 4674   6.811   4.333   2.630  0.1228  0.0328 -0.1910
  931W        W 4675   7.773   0.352   9.258  0.0394 -0.2478  0.0762
  932W        W 4676   4.771   6.732  10.895  0.0408 -0.1023  0.3197
  933W        W 4677   1.362   5.232   0.829 -0.0361  0.0256 -0.2215
  934W        W 4678   5.654   1.926   9.339  0.0987  0.1505  0.1451
  935W        W 4679   8.039   9.408   0.853  0.0701 -0.0984  0.3189
  936W        W 4680   4.015   9.531   3.068  0.1596  0.1982  0.0796
  937W        W 4681   2.607   2.573   1.825  0.1155 -0.1385  0.0417
  938W        W 4682   2.129   5.170  10.653  0.3919 -0.1485 -0.0406
  939W        W 4683   5.857   9.295  12.104  0.3902  0.1135  0.0894
  940W        W 4684   9.827   2.908   9.082  0.0215  0.1830  0.1562
  941W        W 4685   1.371   5.000   1.670  0.0037 -0.0783 -0.0044
  942W        W 4686   2.901   3.919   3.830  0.0343 -0.1743 -0.0279
  943W        W 4687   3.764   1.743   9.715  0.0689 -0.0444 -0.2955
  944W        W 4688   1.124   7.829   2.111  0.2026 -0.1727  0.1768
  945W        W 4689   2.744   6.891  10.250 -0.1449 -0.0918 -0.0989
  946W        W 4690   6.125   0.670   9.668  0.2826  0.0812  0.2480
  947W        W 4691   6.122   2.258   1.724 -0.3509 -0.1872  0.0457
  948W        W 4692   3.259   8.582   1.498 -0.2458  0.1458 -0.0315
  949W        W 4693   7.399   4.280  11.271 -0.0206 -0.0706 -0.0615
  950W        W 4694   9.718   3.286   2.373 -0.1739  0.2540 -0.4251
  951W        W 4695   7.304   1.505   1.196  0.0271  0.1529 -0.1198
  952W        W 4696   0.640   0.087   4.253  0.4420 -0.0253  0.2989
  953W        W 4697   4.312   3.403   3.974  0.3300  0.0594  0.0156
  954W        W 4698   9.707   8.835  12.017 -0.0028 -0.1097 -0.1235
  955W        W 4699   5.930   6.919   0.005  0.0743 -0.1972  0.1454
  956W        W 4700   5.781   7.394   9.790 -0.0283 -0.1672  0.0677
  957W        W 4701   5.604   7.278  10.254 -0.0244 -0.0215  0.3111
  958W        W 4702   9.975   1.510   1.183 -0.0132  0.2656 -0.1779
  959W        W 4703   2.901   4.777  12.280  0.3899 -0.0436  0.1468
  960W        W 4704   7.815   2.619   9.002  0.1603  0.0062 -0.1532
  961W        W 4705   5.755   9.597   3.074  0.1850  0.0077 -0.4664
  962W        W 4706   2.439   9.258  10.843 -0.1386  0.3877 -0.3372
  963W        W 4707   4.080   0.742   0.163 -0.0647 -0.0758 -0.1227
  964W        W 4708   9.378   0.496   1.064  0.0544 -0.1124 -0.0212
  965W        W 4709   1.546   6.916  12.207  0.0933  0.1079  0.0159
  966W        W 4710   8.834   1.767  10.847 -0.0067  0.3025  0.0632
  967W        W 4711   8.520   0.782  10.698  0.0307  0.1668  0.0454
  968W        W 4712   5.062   6.312   1.494  0.1862  0.1066 -0.0208
  969W        W 4713   8.024   7.789  10.426 -0.2012 -0.0202  0.0649
  970W        W 4714   8.569   1.075   1.468 -0.3537 -0.0704 -0.1645
  971W        W 4715   8.368   6.969   0.561  0.0242  0.1956  0.3075
  972W        W 4716   1.783   1.992  10.316  0.1209  0.2140  0.2065
  973W        W 4717   3.849   5.112   3.486 -0.2117 -0.0804 -0.1403
  974W        W 4718   5.458   0.591   9.017 -0.0366  0.3362 -0.0394
  975W        W 4719   0.215   7.216   2.188  0.1231  0.0410  0.1631
  976W        W 4720   0.464   0.400   3.815  0.0009 -0.1098  0.0748
  977W        W 4721   8.533   3.920   0.178 -0.0468 -0.1262  0.1839
  978W        W 4722   4.183   8.726   3.426 -0.1581  0.1777 -0.1934
  979W        W 4723   0.081   1.013  10.916 -0.2633  0.4206 -0.0171
  980W        W 4724   4.672   3.051  11.642  0.1991 -0.0941  0.1795
  981W        W 4725   6.975   7.365   1.189  0.0684  0.2437  0.0648
  982W        W 4726   7.240   3.267  11.982 -0.0251  0.1944  0.2820
  983W        W 4727   4.084   5.321   4.065 -0.2129  0.1155  0.4371
  984W        W 4728   7.479   1.325  12.471 -0.1994  0.4411  0.1139
  985W        W 4729   8.997   5.533   3.639  0.0590  0.0316 -0.0216
  986W        W 4730   4.403   7.966   2.176 -0.1165  0.0463  0.2459
  987W        W 4731   6.973   9.041  10.265  0.0642  0.3053 -0.1974
  988W        W 4732   6.308   1.199   9.435 -0.0764 -0.1526 -0.0090
  989W        W 4733   1.713   9.278  10.470 -0.0693 -0.3520  0.1809
  990W        W 4734   5.524   8.658   1.570 -0.0313  0.1535  0.3588
  991W        W 4735   3.320   2.124  12.489  0.0006  0.2125  0.1169
  992W        W 4736   7.685   9.944   0.590  0.1394 -0.2332  0.1332
  993W        W 4737   3.334   5.669  11.352  0.0379 -0.1577 -0.1456
  994W        W 4738   6.649   8.306   2.315  0.1092  0.1253  0.2366
  995W        W 4739   4.784   1.825   9.326 -0.0656 -0.2372  0.1992
  996W        W 4740   4.397   0.533   2.386  0.3556  0.1379  0.1086
  997W        W 4741   1.316   1.760   2.810 -0.2731 -0.1729 -0.0000
  998W        W 4742   1.481   2.539  11.521  0.0955 -0.1153 -0.0575
  999W        W 4743   6.025   3.944   2.036  0.0603 -0.1694  0.0989
 1000W        W 4744   7.101   3.795  11.833  0.0060 -0.3586  0.1428
 1001W        W 4745   8.947   0.990  10.420 -0.0034 -0.0789 -0.1737
 1002W        W 4746   2.817   7.217   2.848  0.4181 -0.3233 -0.0613
 1003W        W 4747   8.875   8.506   0.529  0.1360  0.0236 -0.0361
 1004W        W 4748   5.270   7.528  10.953 -0.2806  0.1571 -0.0393
 1005W        W 4749   3.143   5.399   3.984  0.1986  0.0341 -0.2804
 1006W        W 4750   3.470   4.974   2.116  0.3715 -0.1528  0.1632
 1007W        W 4751   7.560   5.178   1.625 -0.0510 -0.0369  0.2897
 1008W        W 4752   5.615   2.151   3.937  0.3348  0.1651  0.1866
 1009W        W 4753   4.391   5.248  10.346  0.2682  0.1032  0.3071
 1010W        W 4754   2.720   0.891   1.884  0.1326 -0.1268  0.2765
 1011W        W 4755   1.924   0.245  12.579  0.1920  0.1654 -0.1345
 1012W        W 4756   6.242   1.588   8.209  0.0783 -0.1997  0.0566
 1013W        W 4757   2.782   8.787  11.764 -0.0709  0.2823 -0.3828
 1014W        W 4758   3.607   3.831   2.555 -0.2507 -0.1748  0.2028
 1015W        W 4759   4.332   8.309   2.555 -0.1311  0.0129  0.2428
 1016W        W 4760   6.958   5.466   0.407 -0.4277 -0.0682 -0.1274
 1017W        W 4761   9.860   6.540   1.986  0.0357  0.0742 -0.1735
 1018W        W 4762   0.461   7.020   3.232 -0.0162  0.1014  0.0236
 1019W        W 4763   1.149   3.993   2.012 -0.0750  0.0881 -0.0230
 1020W        W 4764   0.169   9.548   9.063 -0.1093  0.0648 -0.0471
 1021W        W 4765   8.771   0.430   3.742  0.1306 -0.0603 -0.2068
 1022W        W 4766   7.110   4.739   9.882 -0.0554  0.3995 -0.3494
 1023W        W 4767   3.842   3.853  11.382  0.0377 -0.1712 -0.0096
 1024W        W 4768   5.597   5.959   1.643 -0.1818  0.2526 -0.1590
 1025W        W 4769   4.254   1.457  10.832 -0.3285 -0.0129 -0.0555
 1026W        W 4770   1.313   3.467   3.331  0.1458  0.1888  0.1121
 1027W        W 4771   0.956   1.837   3.931  0.1963 -0.2287 -0.2195
 1028W        W 4772   7.996   9.778   0.135 -0.0058 -0.2862 -0.2186
 1029W        W 4773   8.484   0.832   4.117  0.2673  0.0665 -0.1766
 1030W        W 4774   3.895   7.974   9.553 -0.2040  0.2165 -0.0362
 1031W        W 4775   5.292   5.004   0.697  0.1071 -0.1767  0.3053
 1032W        W 4776   6.086   4.210  10.599  0.1257  0.1209 -0.0582
 1033W        W 4777   3.253   3.202   2.073  0.1070  0.3449 -0.1317
 1034W        W 4778   1.395   5.692   0.057 -0.1753 -0.2568 -0.0651
 1035W        W 4779   9.304   6.399  10.441 -0.1966 -0.0689  0.0506
 1036W        W 4780   9.191   6.652   1.060  0.0089  0.1964  0.1107
 1037W        W 4781   8.249   0.599  11.918  0.0346  0.1650 -0.0878
 1038W        W 4782   6.757   4.974   3.241  0.0385  0.0600 -0.0971
 1039W        W 4783   6.536   7.542   3.154 -0.0064  0.0892  0.3064
 1040W        W 4784   3.567   9.417   0.489 -0.3074 -0.0730  0.1390
 1041W        W 4785   4.064   7.907   4.118 -0.2795 -0.1089  0.1135
 1042W        W 4786   0.782   5.906  10.288  0.1122  0.3745 -0.1330
 1043W        W 4787   4.931   7.343  12.659  0.3170 -0.1072 -0.0127
 1044W        W 4788   7.509   2.099  11.017  0.1144  0.1029  0.0875
 1045W        W 4789   3.614   8.062   7.996  0.2251 -0.2135 -0.1629
 1046W        W 4790   8.802   7.306  10.075 -0.1359  0.0090 -0.2173
 1047W        W 4791   7.706   3.041   0.570  0.2850 -0.1449  0.1281
 1048W        W 4792   2.726   7.579   3.246 -0.1063  0.1458  0.0024
 1049W        W 4793   2.589   2.820   8.111 -0.2340 -0.1309 -0.1646
 1050W        W 4794   7.363   2.184   2.721 -0.1802 -0.0055  0.1210
 1051W        W 4795   0.528   6.521  11.582  0.0778 -0.2457  0.3061
 1052W        W 4796   4.714   4.698   3.104  0.3681  0.1101 -0.2065
 1053W        W 4797   0.640   7.780   8.908 -0.3610  0.2776  0.2338
 1054W        W 4798   3.354   1.790   2.632  0.0874  0.1936  0.4606
 1055W        W 4799   2.786   3.320   2.239  0.2237  0.1183 -0.0493
 1056W        W 4800   4.974   4.621   9.194  0.0237  0.2402  0.0239
 1057W        W 4801   7.858   2.982   9.788 -0.2120 -0.0803  0.0692
 1058W        W 4802   1.238   8.247   0.273 -0.1511  0.1649 -0.2527
 1059W        W 4803   2.111   7.781  10.728 -0.0767 -0.0956  0.0944
 1060W        W 4804   4.019   0.892   0.956 -0.1834 -0.0151  0.0399
 1061W        W 4805   6.066   8.279  12.325 -0.0942  0.0437 -0.0242
 1062W        W 4806   9.153   6.221   1.354  0.0490  0.0278 -0.0839
 1063W        W 4807   3.566   0.099   3.172 -0.3184 -0.0751 -0.2748
 1064W        W 4808   0.459   6.141   3.100  0.0672  0.0303 -0.0612
 1065W        W 4809   0.408   3.965   1.572  0.0678  0.1738 -0.1724
 1066W        W 4810   1.323   9.212   0.832  0.0127 -0.0171  0.0526
 1067W        W 4811   1.422   3.066  11.644  0.1459 -0.0657  0.0220
 1068W        W 4812   6.718   9.481   3.538  0.2040  0.3737  0.2388
 1069W        W 4813   4.580   0.822   2.836 -0.0030 -0.2362 -0.0911
 1070W        W 4814   6.757   4.729   2.199  0.4062 -0.0026  0.0641
 1071W        W 4815   7.796   2.435   1.091  0.0591  0.1500  0.3670
 1072W        W 4816   0.590   2.606  10.644  0.0170 -0.1147 -0.0662
 1073W        W 4817   2.701   4.314   3.232  0.2215 -0.1304  0.1082
 1074W        W 4818   6.832   5.554  11.589 -0.0568  0.0270 -0.0253
 1075W        W 4819   8.837   3.327  11.530  0.4147 -0.0661  0.0782
 1076W        W 4820   7.214   3.836  12.341 -0.0119 -0.0756 -0.0806
 1077W        W 4821   0.621   6.965   4.440  0.0352 -0.0853 -0.5976
 1078W        W 4822   0.588   6.204  12.141  0.0294  0.1308  0.1164
 1079W        W 4823   7.895   9.320   2.051  0.1625  0.4430  0.2021
 1080W        W 4824   7.988   6.680   9.474  0.4207 -0.0657  0.0044
 1081W        W 4825   6.301   9.717   3.845  0.4062 -0.1175 -0.0377
 1082W        W 4826   1.973   9.217   2.128 -0.0264  0.0335 -0.0183
 1083W        W 4827   4.888   6.042   0.138 -0.0377  0.0340 -0.0644
 1084W        W 4828   3.982   4.322   8.813  0.0287  0.1028 -0.0645
 1085W        W 4829   1.020   2.537  11.294  0.1584  0.1216  0.1182
 1086W        W 4830   5.722   5.551  10.289  0.1784  0.2033  0.3004
 1087W        W 4831   6.817   8.727   0.824 -0.0927 -0.0916 -0.1978
 1088W        W 4832   4.746   3.764   4.602  0.2723  0.0787  0.0352
 1089W        W 4833   4.670   2.552  11.212  0.0303  0.4561 -0.0306
 1090W        W 4834   4.478   6.500   3.832 -0.0962 -0.1890 -0.2458
 1091W        W 4835   5.594   3.698   2.936  0.3402  0.0020 -0.0905
 1092W        W 4836   0.573   1.528   3.382  0.1243 -0.2806  0.1867
 1093W        W 4837   7.993   9.706   3.818  0.2633 -0.0402 -0.1212
 1094W        W 4838   4.624   4.340  11.267 -0.0087 -0.2723  0.0280
 1095W        W 4839   3.323   3.868  11.612  0.1035 -0.1408  0.2321
 1096W        W 4840   2.841   3.651   2.671 -0.4005 -0.2453  0.2799
 1097W        W 4841   6.918   0.817   4.006  0.0963  0.2232  0.2148
 1098W        W 4842   1.786   4.335  10.297 -0.0506  0.0813  0.2897
 1099W        W 4843   3.345   3.450   8.865  0.2667 -0.1762  0.0375
 1100W        W 4844   5.599   7.974  10.863  0.2041 -0.2103 -0.2170
 1101W        W 4845   6.250   9.740   3.352  0.0920 -0.0164 -0.1654
 1102W        W 4846   2.234   1.196  11.113  0.1141  0.1584 -0.1092
 1103W        W 4847   2.765   1.764   9.581 -0.0937 -0.2725 -0.0154
 1104W        W 4848   3.588   3.556  12.242 -0.0052  0.2717 -0.0763
 1105W        W 4849   7.955   5.640  12.478 -0.0154  0.1151 -0.0549
 1106W        W 4850   5.408   2.272   2.415 -0.1939 -0.0331 -0.1084
 1107W        W 4851   1.404   2.604   0.566 -0.2046  0.1308  0.1257
 1108W        W 4852   3.262   5.432  10.883  0.1737 -0.2551 -0.2736
 1109W        W 4853   2.074   3.774   2.006 -0.5440  0.1022  0.1991
 1110W        W 4854   8.736   0.774   1.899  0.0370  0.2111  0.0517
 1111W        W 4855   4.291   4.815  12.487 -0.0236  0.2168  0.1335
 1112W        W 4856   3.214   2.650   1.263  0.0479 -0.0101 -0.0646
 1113W        W 4857   0.488   2.839   2.498  0.1901  0.2304 -0.1981
 1114W        W 4858   0.364   1.791   3.794  0.3957 -0.3297  0.0970
 1115W        W 4859   0.986   2.918   2.516 -0.0028  0.0949  0.3307
 1116W        W 4860   6.148   2.834  11.292  0.1755 -0.0595  0.0069
 1117W        W 4861   0.286   4.074  10.960  0.1308 -0.0892 -0.1094
 1118W        W 4862   7.328   1.922   3.602  0.2306 -0.2229 -0.1641
 1119W        W 4863   9.628   1.999   2.069 -0.1556 -0.1676 -0.0157
 1120W        W 4864   9.082   8.318   1.019  0.3318  0.0632 -0.0262
 1121W        W 4865   2.984   1.006  11.920 -0.0209  0.1627  0.2863
 1122W        W 4866   3.929   0.716   2.185 -0.1294 -0.0202 -0.0112
 1123W        W 4867   5.792   3.687   9.843  0.1638  0.1501 -0.2324
 1124W        W 4868   6.034   2.377  12.016 -0.0787  0.0049 -0.0765
 1125W        W 4869   2.265   7.201   9.934  0.2821 -0.0476 -0.1951
 1126W        W 4870   5.596   6.398  10.667  0.3954 -0.0569 -0.1126
 1127W        W 4871   0.611   5.737  10.715  0.0188 -0.2808 -0.2306
 1128W        W 4872   1.469   6.720   9.575  0.0588 -0.0254 -0.3960
 1129W        W 4873   6.794   0.581   9.104 -0.1543 -0.0020  0.3428
 1130W        W 4874   7.224   5.938  10.725  0.0296  0.1304  0.1312
 1131W        W 4875   4.778   5.786   8.926 -0.1501  0.2853 -0.1335
 1132W        W 4876   4.247   4.370   0.597  0.1707  0.3129  0.0526
 1133W        W 4877   1.048   6.170   2.266 -0.3575 -0.3639  0.0045
 1134W        W 4878   1.236   2.139   4.195  0.0783 -0.0057  0.2394
 1135W        W 4879   8.126   4.840   2.328 -0.1835  0.0300  0.3037
 1136W        W 4880   4.021   8.363  12.529  0.1054 -0.1031  0.1163
 1137W        W 4881   8.105   3.690  11.859 -0.4471  0.1903 -0.0990
 1138W        W 4882   6.655   2.735   0.116  0.2538  0.1199  0.1321
 1139W        W 4883   0.002   9.173   2.651 -0.4059  0.0432  0.3129
 1140W        W 4884   5.676   1.475   0.390  0.0617 -0.1711  0.2267
 1141W        W 4885   5.303   9.657   9.815 -0.1190  0.2484 -0.1103
 1142W        W 4886   3.449   7.117   1.153  0.0086  0.1377  0.0518
 1143W        W 4887   2.278   3.622  11.582  0.0985 -0.0596  0.0788
 1144W        W 4888   5.715   4.763   0.846 -0.2292 -0.1908 -0.0592
 1145W        W 4889   6.004   4.193   1.045  0.1011 -0.1798  0.3085
 1146W        W 4890   0.262   4.801   4.070 -0.4515 -0.2129  0.0605
 1147W        W 4891   9.676   0.014  11.021  0.2768 -0.0740 -0.2585
 1148W        W 4892   7.420   7.149   1.631 -0.0344  0.0118  0.1248
 1149W        W 4893   0.336   3.461   9.849  0.1447 -0.0120 -0.2206
 1150W        W 4894   5.106   7.982   3.827  0.2262  0.1639  0.0566
 1151W        W 4895   2.378   1.560   4.061 -0.3112  0.2369  0.1296
 1152W        W 4896   1.112   8.781   1.200  0.0511 -0.0390 -0.0068
 1153W        W 4897   4.748   8.695   1.106  0.0029  0.3610  0.3338
 1154W        W 4898   4.278   9.694   1.229 -0.0499 -0.0425 -0.2792
 1155W        W 4899   9.163   9.583   1.491 -0.2123 -0.5131 -0.0292
 1156W        W 4900   7.777   9.822  11.959  0.2722 -0.0465  0.0485
 1157W        W 4901   8.196   9.230   3.795  0.0725 -0.0643  0.1801
 1158W        W 4902   1.706   0.367   9.154  0.0875 -0.0974  0.2358
 1159W        W 4903   4.942   7.298   2.304 -0.0084 -0.0329 -0.1948
 1160W        W 4904   0.295   1.267   0.029 -0.0564  0.0857 -0.2476
 1161W        W 4905   2.233   4.657   0.188  0.0974  0.0255 -0.0230
 1162W        W 4906   8.019   5.002   1.443 -0.0751  0.0269  0.1945
 1163W        W 4907   4.804   7.729   2.013  0.1534  0.0876  0.0198
 1164W        W 4908   9.454   6.818  12.173 -0.2332  0.0678  0.2518
 1165W        W 4909   3.364   9.582   0.049  0.0679  0.0892  0.3842
 1166W        W 4910   1.270   0.929   2.853 -0.0484  0.1467  0.0486
 1167W        W 4911   9.663   8.247   9.426 -0.1512  0.4487  0.3447
 1168W        W 4912   3.070   8.899  10.277  0.2039 -0.1386 -0.1777
 1169W        W 4913   2.666   7.976   2.117  0.1536 -0.0940  0.3385
 1170W        W 4914   1.466   8.002   1.041  0.1050  0.0921 -0.1457
 1171W        W 4915   2.776   9.816  12.163 -0.3504  0.0370  0.0574
 1172W        W 4916   8.998   2.326   4.419 -0.1413  0.0251 -0.4921
 1173W        W 4917   2.773   9.896   2.528 -0.0336 -0.5254  0.2417
 1174W        W 4918   0.364   5.301   3.838  0.0160  0.0903  0.0368
 1175W        W 4919   9.982   0.412   8.661  0.3744  0.0033  0.1175
 1176W        W 4920   1.439   4.017   9.930  0.2511  0.0039  0.1422
 1177W        W 4921   8.256   2.180  11.042  0.2885 -0.1277 -0.2418
 1178W        W 4922   9.119   2.041   9.384 -0.2753  0.2144 -0.0993
 1179W        W 4923   4.677   0.161  10.639 -0.1675  0.3511 -0.0695
 1180W        W 4924   3.188   2.662   1.774 -0.0997 -0.0357  0.0418
 1181W        W 4925   3.938   2.849   3.196 -0.1254  0.0535 -0.0713
 1182W        W 4926   2.523   1.736  11.914 -0.0098  0.0857 -0.0011
 1183W        W 4927   8.335   4.254  12.503 -0.0985  0.0043 -0.0417
 1184W        W 4928   3.559   1.501   3.596 -0.0111 -0.0141 -0.2284
 1185W        W 4929   9.104   3.039   9.610 -0.0609 -0.1636 -0.0989
 1186W        W 4930   9.207   4.365  10.568 -0.1302 -0.1030  0.1522
 1187W        W 4931   9.740   4.550   1.870  0.0158 -0.0902 -0.0514
 1188W        W 4932   3.146   0.870   8.697 -0.1089  0.0976 -0.1592
 1189W        W 4933   4.647   0.198   3.244 -0.0922  0.0520 -0.0013
 1190W        W 4934   9.727   2.414   1.032  0.4157  0.2800 -0.1704
 1191W        W 4935   5.068   0.151   1.642 -0.1851 -0.0686  0.1545
 1192W        W 4936   0.539   8.223   3.221 -0.1652 -0.1761 -0.0707
 1193W        W 4937   0.464   1.757   1.215  0.2726 -0.1632 -0.0662
 1194W        W 4938   4.885   7.525   3.926 -0.2738 -0.0712 -0.0751
 1195W        W 4939   2.702   4.944   3.125  0.1054 -0.0619 -0.0328
 1196W        W 4940   3.781   5.528   1.715  0.2465  0.3589  0.1080
 1197W        W 4941   6.319   8.054   1.151  0.1323  0.2210 -0.0256
 1198W        W 4942   2.843   7.725   4.161 -0.1269 -0.0957  0.2713
 1199W        W 4943   4.466   0.927   3.696  0.2168  0.0454 -0.0969
 1200W        W 4944   3.469   6.571  11.847  0.2949  0.1827 -0.0869
 1201W        W 4945   4.267   9.729   2.635 -0.1567  0.0813  0.1063
 1202W        W 4946   3.593   2.892  11.576  0.0848 -0.0381 -0.0721
 1203W        W 4947   7.719   8.951  10.949 -0.0409 -0.0892 -0.2670
 1204W        W 4948   0.760   6.801   0.575  0.0755 -0.1681 -0.1153
 1205W        W 4949   9.763   5.499  11.469  0.1683 -0.0800 -0.2122
 1206W        W 4950   9.204   5.835  12.224  0.2519 -0.0785  0.1341
 1207W        W 4951   3.534   4.289  11.514 -0.0193 -0.0446  0.2674
 1208W        W 4952   3.189   5.184   4.465 -0.5883  0.1902 -0.0104
 1209W        W 4953   2.469   3.857  12.026 -0.0929 -0.0078 -0.0818
 1210W        W 4954   4.627   6.634   1.640  0.0178 -0.3344 -0.3678
 1211W        W 4955   8.104   6.670   3.236  0.1531  0.5340 -0.4195
 1212W        W 4956   6.434   2.643   3.654  0.2661 -0.1592  0.0755
 1213W        W 4957   5.859   2.037   8.640  0.2914  0.2564 -0.1654
 1214W        W 4958   4.369   2.289   7.768  0.0377 -0.0260 -0.1931
 1215W        W 4959   1.443   3.977  10.431  0.1861 -0.0835  0.0273
 1216W        W 4960   5.621   1.863   2.646 -0.3903 -0.0174  0.1095
 1217W        W 4961   3.442   0.618   3.928  0.2697  0.2124 -0.2115
 1218W        W 4962   8.870   1.837   3.558  0.0660 -0.2578 -0.2840
 1219W        W 4963   4.784   5.359   1.726  0.2113  0.1000  0.2468
 1220W        W 4964   9.596   0.048   2.319 -0.0246  0.2007 -0.0524
 1221W        W 4965   5.547   7.051  11.898  0.3378  0.1964  0.3440
 1222W        W 4966   9.694   8.315  10.474 -0.0394  0.3118 -0.0465
 1223W        W 4967   3.000   2.082   0.587 -0.0900  0.1874  0.0545
 1224W        W 4968   0.432   6.161   8.773  0.2526 -0.2957  0.3276
 1225W        W 4969   3.067   9.320  10.005  0.2364 -0.2022  0.0261
 1226W        W 4970   7.873   7.639   2.964  0.4313 -0.1541 -0.1729
 1227W        W 4971   0.918   2.322  10.870 -0.3028 -0.1397  0.2026
 1228W        W 4972   7.647   8.489   3.017  0.0848 -0.0641  0.0269
 1229W        W 4973   1.012   1.457   8.792  0.2057 -0.1836 -0.4639
 1230W        W 4974   5.136   9.358  12.195 -0.0385 -0.0755  0.1721
 1231W        W 4975   9.651   3.700   3.537 -0.0767  0.1217  0.0350
 1232W        W 4976   0.985   7.472   0.596 -0.0820 -0.2878  0.3045
 1233W        W 4977   6.079   7.084  11.531 -0.3141  0.3252  0.4357
 1234W        W 4978   8.783   4.194  11.175  0.0449 -0.3217  0.1838
 1235W        W 4979   8.325   5.478   0.955 -0.1062  0.1409  0.2809
 1236W        W 4980   9.815   2.579   3.710  0.0946 -0.0992  0.0360
 1237W        W 4981   4.534   0.986  10.825  0.1204  0.2432  0.1475
 1238W        W 4982   4.956   0.994   1.966  0.1807 -0.0905 -0.0707
 1239W        W 4983   1.315   7.810  11.209 -0.1007  0.3722  0.2582
 1240W        W 4984   3.951   7.308   8.346  0.1896  0.3778  0.0881
 1241W        W 4985   6.561   6.429   2.525  0.1885  0.1236 -0.0066
 1242W        W 4986   4.764   4.263   8.198  0.1300  0.1049 -0.3390
 1243W        W 4987   0.923   1.164   3.277  0.0280 -0.0358  0.0652
 1244W        W 4988   8.331   8.746   3.669  0.3630  0.2737  0.1181
 1245W        W 4989   9.310   0.966   3.067 -0.1053 -0.3990 -0.2209
 1246W        W 4990   5.370   3.527   3.905 -0.0012 -0.4845  0.2409
 1247W        W 4991   0.779   5.294  10.573  0.1856 -0.2424 -0.3000
 1248W        W 4992   0.556   5.896   2.260  0.0182 -0.1907  0.0227
 1249W        W 4993   7.685   7.649   1.652  0.1255 -0.0661  0.2028
 1250W        W 4994   2.521   6.949   9.592  0.0102  0.0410  0.3390
 1251W        W 4995   6.604   3.023   2.657 -0.1102  0.2082 -0.0977
 1252W        W 4996   6.788   1.320   2.680 -0.1749  0.0827  0.4054
 1253W        W 4997   0.580   9.575   8.596  0.3347 -0.0414 -0.2200
 1254W        W 4998   1.804   0.391   8.678  0.1090  0.0561  0.0583
 1255W        W 4999   8.884   3.771   2.355 -0.1341  0.2264 -0.1561
 1256W        W 5000   3.261   7.899   8.333 -0.1631 -0.1951 -0.3743
 1257W        W 5001   3.414   4.532   4.000  0.0380 -0.1555  0.1721
 1258W        W 5002   4.501   9.684  10.818  0.1912  0.0263  0.0568
 1259W        W 5003   8.061   2.439   3.747 -0.2862  0.2111  0.0478
 1260W        W 5004   0.530   8.103   1.411  0.3183 -0.2953  0.0016
 1261W        W 5005   4.517   7.518   2.413 -0.2958 -0.4105  0.1581
 1262W        W 5006   5.100   2.394   1.531 -0.1537 -0.3388 -0.0623
 1263W        W 5007   3.083   0.903   0.154  0.0386 -0.2523 -0.0362
 1264W        W 5008   1.774   8.006  11.319  0.2217 -0.1429  0.2022
 1265W        W 5009   7.793   1.143   1.795  0.1925  0.2931 -0.0651
 1266W        W 5010   4.242   4.822   3.260 -0.0069  0.1054  0.0392
 1267W        W 5011   7.237   4.172  10.047  0.0950  0.2477  0.4002
 1268W        W 5012   5.820   2.110   2.185 -0.1013  0.1281 -0.2910
 1269W        W 5013   7.276   0.926   3.451 -0.0089 -0.3180 -0.0886
 1270W        W 5014   5.116   4.586   0.494  0.0862  0.1775 -0.2775
 1271W        W 5015   2.335   1.137   2.047 -0.1134 -0.0686 -0.1472
 1272W        W 5016   3.212   8.670  12.626 -0.4116 -0.0009  0.3531
 1273W        W 5017   1.098   4.534   1.912  0.5315 -0.0995  0.4104
 1274W        W 5018   3.900   1.256  11.360 -0.0170  0.3405 -0.0653
 1275W        W 5019   8.019   5.133   0.365 -0.3401  0.2687  0.0385
 1276W        W 5020   8.570   2.882  11.437  0.0099  0.1369  0.1557
 1277W        W 5021   8.177   8.461   0.492 -0.0495 -0.2317  0.0910
 1278W        W 5022   3.278   4.233   2.678  0.0743  0.1279  0.0975
 1279W        W 5023   0.430   0.575   2.490  0.4182  0.0228  0.1212
 1280W        W 5024   3.620   5.231   9.117 -0.1873 -0.1411 -0.1307
 1281W        W 5025   7.426   6.375  10.611 -0.1250 -0.3111  0.1350
 1282W        W 5026   8.150   7.420   0.612 -0.3527 -0.1721  0.1836
 1283W        W 5027   4.285   7.705   0.755  0.1885 -0.2172  0.0371
 1284W        W 5028   6.404   5.406   3.254 -0.4250  0.2026 -0.2757
 1285W        W 5029   0.301   4.466  11.796  0.1336 -0.1210 -0.2965
 1286W        W 5030   1.796   2.669   0.221 -0.0688  0.2908 -0.3529
 1287W        W 5031   3.792   9.879   2.756  0.2160  0.0203 -0.2982
 1288W        W 5032   4.762   6.039   3.982  0.1774 -0.3799  0.2429
 1289W        W 5033   3.629   7.967   0.678 -0.4229  0.3255  0.2227
 1290W        W 5034   6.625   3.541   2.020 -0.0115  0.2367  0.0566
 1291W        W 5035   4.071   4.630   1.592  0.1119 -0.0864  0.2096
 1292W        W 5036   9.960   4.816   8.499  0.0903  0.3130 -0.0869
 1293W        W 5037   3.966   4.184   2.690  0.3286  0.1341  0.1560
 1294W        W 5038   0.936   8.647   0.200  0.0186 -0.0154  0.0505
 1295W        W 5039   6.385   5.055  10.283  0.0632 -0.0930  0.0470
 1296W        W 5040   1.346   7.872  12.521 -0.1700 -0.2578 -0.1955
 1297W        W 5041   1.543   3.047  12.336 -0.1106 -0.0677 -0.0975
 1298W        W 5042   0.724   3.130   2.866  0.0524  0.1127 -0.0698
 1299W        W 5043   4.233   8.804   1.075  0.2848  0.1853 -0.2991
 1300W        W 5044   2.558   5.769   2.193 -0.5196 -0.0070  0.2471
 1301W        W 5045   6.154   0.214   3.930  0.3062 -0.0641 -0.1295
 1302W        W 5046   8.675   9.774   9.713  0.4230  0.1641 -0.1114
 1303W        W 5047   8.978   5.593  10.126  0.1575 -0.0464 -0.1396
 1304W        W 5048   5.846   6.806   8.830  0.0898  0.2696 -0.1584
 1305W        W 5049   1.069   8.253   3.071  0.1030 -0.0064  0.1735
 1306W        W 5050   8.101   8.406   9.600  0.0401  0.1642 -0.1650
 1307W        W 5051   9.478   6.298   1.785 -0.0690 -0.0148  0.0666
 1308W        W 5052   7.898   8.787   3.373 -0.0673 -0.0078 -0.3026
 1309W        W 5053   0.075   8.983  10.253 -0.0962 -0.3610  0.1070
 1310W        W 5054   6.086   0.178   9.694 -0.0749 -0.0382  0.0004
 1311W        W 5055   6.111   5.657  11.208 -0.1420  0.0995 -0.1977
 1312W        W 5056   0.846   7.026   2.866  0.1294 -0.2130  0.1905
 1313W        W 5057   1.038   2.564  10.420 -0.0678 -0.0120 -0.4198
 1314W        W 5058   1.520   5.406  12.319 -0.0549  0.2022 -0.0013
 1315W        W 5059   8.576   8.816   3.175 -0.4226  0.1847  0.0141
 1316W        W 5060   8.319   1.983   3.591 -0.0451 -0.1070 -0.0685
 1317W        W 5061   0.968   4.158   9.716 -0.4090  0.0170 -0.2273
 1318W        W 5062   3.621   0.368   9.266  0.2284 -0.2698  0.0373
 1319W        W 5063   6.190   9.188  12.444 -0.0890  0.0179  0.1193
 1320W        W 5064   7.000   2.740   1.799  0.0821  0.1146  0.0025
 1321W        W 5065   4.601   7.998   3.810  0.1842  0.0925  0.1824
 1322W        W 5066   6.654   1.498  11.811  0.1552 -0.0376 -0.2616
 1323W        W 5067   6.588   2.163   2.416 -0.3519 -0.0904  0.1348
 1324W        W 5068   1.862   9.721  10.273  0.2448 -0.0339  0.1053
 1325W        W 5069   0.700   8.209   3.879  0.0803  0.1278 -0.1144
 1326W        W 5070   4.110   2.363   2.098  0.1354 -0.0061  0.0714
 1327W        W 5071   6.561   2.118   3.018 -0.1468  0.1515 -0.0431
 1328W        W 5072   1.069   0.276  11.178  0.3028  0.0237 -0.0797
 1329W        W 5073   8.605   6.862   0.098  0.2525  0.1373 -0.1245
 1330W        W 5074   8.629   4.388   3.787 -0.3528 -0.0085  0.0457
 1331W        W 5075   9.893   1.586  12.563  0.0175  0.0071  0.0429
 1332W        W 5076   5.462   7.005   1.806 -0.1976 -0.2441  0.1833
 1333W        W 5077   3.911   4.995   2.953  0.0793 -0.0231 -0.0403
 1334W        W 5078   5.149   7.916  10.616 -0.0662  0.0996  0.2311
 1335W        W 5079   6.533   3.780   0.149  0.3365 -0.1174  0.1110
 1336W        W 5080   6.392   5.619   0.654 -0.1267 -0.1080  0.0209
 1337W        W 5081   1.762   5.071  12.015 -0.1440 -0.0492  0.2112
 1338W        W 5082   3.718   5.509   9.583 -0.0132 -0.1953 -0.1121
 1339W        W 5083   5.553   9.539   0.915 -0.0449  0.2405  0.0923
 1340W        W 5084   0.498   7.650   1.336  0.1231 -0.0257 -0.3520
 1341W        W 5085   1.382   8.057   1.743  0.0108 -0.1087 -0.0084
 1342W        W 5086   1.397   4.213  10.904 -0.0468 -0.0237 -0.1820
 1343W        W 5087   7.199   8.171   0.552  0.0642 -0.2480  0.0650
 1344W        W 5088   6.575   8.773  10.361  0.1437  0.3017  0.0825
 1345W        W 5089   2.833   2.375   3.157 -0.2501  0.0138 -0.5886
 1346W        W 5090   1.716   0.599   0.652  0.1579 -0.0558 -0.3879
 1347W        W 5091   7.687   4.943   2.385 -0.1571  0.1654  0.1108
 1348W        W 5092   6.703   5.924  12.377 -0.0362  0.0593  0.2582
 1349W        W 5093   9.276   8.411   2.723 -0.3414 -0.1965  0.0527
 1350W        W 5094   5.824   6.165   2.931  0.1721  0.1150  0.2227
 1351W        W 5095   7.699   7.168  12.620 -0.2130  0.1428 -0.2707
 1352W        W 5096   5.025   9.125   0.006 -0.2035 -0.1122 -0.0048
 1353W        W 5097   8.200   4.401   3.973 -0.1982 -0.2357  0.1206
 1354W        W 5098   3.982   4.494   8.310 -0.1339  0.0691  0.4860
 1355W        W 5099   5.007   1.981  10.789 -0.2528  0.3303 -0.0989
 1356W        W 5100   6.107   8.413  10.386 -0.2792  0.3279  0.0940
 1357W        W 5101   1.652   1.249   2.538  0.1253 -0.1741  0.1799
 1358W        W 5102   3.587   6.730   2.784 -0.0568 -0.0318  0.1301
 1359W        W 5103   7.693   6.089  12.474 -0.1644  0.1355  0.2005
 1360W        W 5104   0.518   7.462   3.428 -0.2041 -0.0212 -0.0895
 1361W        W 5105   0.047   6.876  12.163  0.4273  0.0133 -0.1059
 1362W        W 5106   7.163   3.403   0.589  0.4101  0.2243  0.2161
 1363W        W 5107   4.939   6.556  11.687 -0.1438  0.1018 -0.0894
 1364W        W 5108   8.555   4.639   2.514  0.0235 -0.3316 -0.2704
 1365W        W 5109   8.230   1.439   1.582  0.1494 -0.2011  0.1952
 1366W        W 5110   2.933   0.070  11.749  0.0337  0.1377 -0.1718
 1367W        W 5111   5.484   2.241   1.843 -0.1947 -0.0340 -0.0908
 1368W        W 5112   1.478   4.338   2.326 -0.0138 -0.1046 -0.1784
 1369W        W 5113   3.342   0.124   2.701 -0.1519  0.4119 -0.1337
 1370W        W 5114   7.898   7.140   2.604  0.0140  0.1168 -0.2904
 1371W        W 5115   9.097   6.239  11.822  0.0621  0.1050  0.0627
 1372W        W 5116   2.361   4.854   2.610  0.0890  0.2679  0.3093
 1373W        W 5117   2.803   0.552  11.628 -0.2453  0.2702  0.4334
 1374W        W 5118   0.088   2.578   1.376 -0.0275 -0.0223  0.1348
 1375W        W 5119   4.734   9.065  12.316  0.0755 -0.2342  0.0361
 1376W        W 5120   3.940   8.088  10.085 -0.2685  0.0870  0.1070
 1377W        W 5121   0.287   7.456   9.629  0.1213 -0.2020 -0.0961
 1378W        W 5122   9.042   8.963   9.334  0.0726 -0.1936 -0.1460
 1379W        W 5123   4.179   2.560   3.606 -0.0506  0.0417  0.2266
 1380W        W 5124   7.733   2.448   8.504 -0.0389  0.2308 -0.6186
 1381W        W 5125   9.459   5.816  10.143 -0.1008  0.0423 -0.2653
 1382W        W 5126   8.016   3.968   0.011 -0.0402  0.3261 -0.0368
 1383W        W 5127   3.666   5.299   8.647 -0.4957  0.1209 -0.0999
 1384W        W 5128   8.280   1.265   1.096  0.2703 -0.2961  0.3017
 1385W        W 5129   1.757   1.712   0.919  0.1088 -0.1929  0.1657
 1386W        W 5130   2.611   6.768  12.018  0.1565  0.0683  0.1479
 1387W        W 5131   6.220   0.626  11.099 -0.0362  0.1534  0.1886
 1388W        W 5132   4.123   6.349  11.671  0.1197  0.1101 -0.1562
 1389W        W 5133   8.364   9.167   1.807 -0.0955 -0.0882  0.5236
 1390W        W 5134   4.722   5.961  11.070  0.1831  0.0664  0.1010
 1391W        W 5135   3.056   2.137   9.911 -0.0276  0.1779  0.0487
 1392W        W 5136   0.499   8.705   9.324 -0.0636 -0.0439 -0.0282
 1393W        W 5137   3.498   1.024   3.589 -0.0145  0.1710  0.3553
 1394W        W 5138   3.559   9.408   2.079  0.0727  0.0402 -0.0198
 1395W        W 5139   4.362   7.602   3.231  0.1379  0.2628 -0.0934
 1396W        W 5140   4.224   6.104  12.231  0.0877  0.0701 -0.2105
 1397W        W 5141   7.449   4.185   1.792  0.1633  0.3759 -0.0712
 1398W        W 5142   4.122   7.544   9.259  0.4012 -0.0458 -0.0595
 1399W        W 5143   2.761   7.200   2.324 -0.0580  0.2038 -0.2113
 1400W        W 5144   4.175   9.690   9.566  0.4841 -0.1360 -0.0421
 1401W        W 5145   9.812   9.209  10.594 -0.1118  0.1070 -0.2376
 1402W        W 5146   0.644   5.827   1.137  0.1819 -0.1661 -0.0338
 1403W        W 5147   9.489   8.979  10.918  0.1324 -0.0369  0.0119
 1404W        W 5148   2.299   0.563  12.515 -0.0482  0.1716 -0.0682
 1405W        W 5149   4.929   4.107   2.295 -0.2637  0.2247 -0.0855
 1406W        W 5150   0.649   4.878  10.224 -0.0401  0.3208  0.3175
 1407W        W 5151   6.093   1.631  11.705 -0.2954  0.2455  0.2535
 1408W        W 5152   2.698   9.931   1.016 -0.0231 -0.1089 -0.0214
 1409W        W 5153   8.701   2.789   1.525 -0.1719 -0.3537  0.2270
 1410W        W 5154   2.305   6.022  12.215  0.1105 -0.1136  0.0005
 1411W        W 5155   5.907   4.555  10.983  0.1506 -0.1192  0.2026
 1412W        W 5156   1.087   6.406   0.237  0.2484 -0.0543 -0.2495
 1413W        W 5157   7.796   7.974  10.867 -0.1014 -0.3403  0.0381
 1414W        W 5158   9.270   1.612   1.967 -0.4901  0.2845 -0.3091
 1415W        W 5159   3.419   2.287   1.531  0.0071 -0.0600 -0.1108
 1416W        W 5160   6.601   5.060  12.345  0.2121 -0.1661 -0.0701
 1417W        W 5161   9.760   3.371   0.280  0.0691  0.0964  0.2377
 1418W        W 5162   1.360   7.044   1.258  0.1222 -0.3658 -0.2284
 1419W        W 5163   2.690   4.548   0.009 -0.0878 -0.1859  0.1002
 1420W        W 5164   7.130   8.857   1.621 -0.0968  0.4147  0.2704
 1421W        W 5165   3.540   7.694   9.856 -0.0396 -0.0744 -0.0834
 1422W        W 5166   5.518   7.637   8.628  0.2776  0.0258 -0.0686
 1423W        W 5167   4.661   7.638  10.581 -0.1422 -0.4978 -0.0125
 1424W        W 5168   3.514   0.630  11.139  0.1280 -0.1390  0.2389
 1425W        W 5169   5.477   0.679  11.843  0.0768 -0.0426  0.2281
 1426W        W 5170   7.313   2.444   1.349  0.1640  0.2297  0.2252
 1427W        W 5171   3.984   2.576  10.758  0.2469  0.1744 -0.0683
 1428W        W 5172   7.107   3.721   0.213  0.0360  0.0348 -0.1769
 1429W        W 5173   8.414   4.074  11.938 -0.0135  0.3181 -0.0195
 1430W        W 5174   2.272   8.454   3.964 -0.2460  0.3083  0.1168
 1431W        W 5175   6.994   2.376   9.303 -0.1627  0.1808  0.4951
 1432W        W 5176   6.668   3.748   9.779  0.2152  0.1620 -0.1090
 1433W        W 5177   6.038   1.457   1.391 -0.1750 -0.0857 -0.2058
 1434W        W 5178   0.101   4.235   1.213 -0.3522 -0.4275 -0.0263
 1435W        W 5179   4.381   3.102   9.378 -0.1663 -0.1031  0.3948
 1436W        W 5180   7.732   3.616   9.447  0.1870  0.2081  0.0300
 1437W        W 5181   2.077   2.107  10.748 -0.2041 -0.3073  0.0048
 1438W        W 5182   3.743   9.371  12.391 -0.2168  0.1327  0.0475
 1439W        W 5183   0.875   8.207   1.738  0.0577  0.0114 -0.2262
 1440W        W 5184   9.349   7.354  10.069  0.1086  0.0441  0.1557
 1441W        W 5185   0.292   0.820   0.966 -0.2446 -0.1509 -0.0452
 1442W        W 5186   9.579   3.064  12.024 -0.1202  0.1319 -0.3800
 1443W        W 5187   2.963   5.430   8.879 -0.2659  0.3839 -0.3818
 1444W        W 5188   2.936   6.041   8.955  0.0735  0.1444 -0.0871
 1445W        W 5189   6.318   9.578   1.811 -0.0645  0.3363  0.1739
 1446W        W 5190   2.949   6.878   9.273  0.0981  0.4152 -0.0656
 1447W        W 5191   8.088   1.994   4.888 -0.1815 -0.0196  0.3019
 1448W        W 5192   9.555   9.274   0.656  0.0356 -0.0904  0.0604
 1449W        W 5193   1.867   5.504   0.004 -0.1760 -0.3022  0.0987
 1450W        W 5194   1.070   9.415   4.827  0.2988  0.0587 -0.1314
 1451W        W 5195   8.189   1.284   9.310 -0.3557  0.0399  0.4216
 1452W        W 5196   8.031   7.406  12.287 -0.1028  0.0911 -0.0538
 1453W        W 5197   0.244   7.814   9.228 -0.2231  0.1667  0.1145
 1454W        W 5198   5.891   0.405  12.624  0.1808 -0.0754  0.1341
 1455W        W 5199   4.447   3.170   1.645 -0.3882  0.3373  0.0076
 1456W        W 5200   1.129   9.598  12.572  0.0937 -0.0781  0.3535
 1457W        W 5201   9.640   5.255   9.090 -0.0929 -0.2844 -0.0785
 1458W        W 5202   4.774   5.213  10.851 -0.1628 -0.2209 -0.1293
 1459W        W 5203   9.148   5.931   1.866  0.1394  0.0423 -0.0573
 1460W        W 5204   3.045   7.706   3.632  0.1741 -0.0935  0.2700
 1461W        W 5205   3.904   3.113   2.764 -0.3147 -0.0385  0.1405
 1462W        W 5206   5.401   0.189   3.170 -0.2218 -0.0603 -0.2665
 1463W        W 5207   1.599   8.107  10.856 -0.0550  0.1772  0.0399
 1464W        W 5208   5.335   5.141   2.312 -0.3907 -0.4332  0.1905
 1465W        W 5209   1.960   4.030   3.100  0.1432 -0.2662 -0.1478
 1466W        W 5210   3.711   4.574   3.172  0.1133  0.0833 -0.0754
 1467W        W 5211   9.541   6.530   9.052  0.0977 -0.0229  0.2623
 1468W        W 5212   4.058   3.348  10.824 -0.3712  0.1176 -0.2539
 1469W        W 5213   3.013   3.729   9.079 -0.0979 -0.1116 -0.3186
 1470W        W 5214   6.197   8.527  11.296 -0.4912  0.3667 -0.0882
 1471W        W 5215   0.068   3.713   3.210 -0.0221  0.0148 -0.1428
 1472W        W 5216   1.908   7.860   2.785 -0.1277  0.0331 -0.0318
 1473W        W 5217   1.252   7.408  10.804 -0.1149  0.3381 -0.0502
 1474W        W 5218   1.969   5.141  12.452  0.0944 -0.1804 -0.0697
 1475W        W 5219   3.114   5.371  11.696 -0.0304  0.1328  0.0982
 1476W        W 5220   8.709   0.418   9.206 -0.1943  0.1345  0.2908
 1477W        W 5221   1.444   2.586   3.407  0.1336 -0.0333  0.0696
 1478W        W 5222   8.369   9.526   4.577  0.2966  0.0590  0.2707
 1479W        W 5223   8.663   0.319  11.980 -0.0009 -0.0092  0.1076
 1480W        W 5224   7.083   4.299  12.123  0.1791  0.1162  0.1233
 1481W        W 5225   0.598   1.677   4.317 -0.1846  0.1518 -0.1524
 1482W        W 5226   4.765   9.232   9.067 -0.0187 -0.2034  0.1330
 1483W        W 5227   7.021   9.694   1.928 -0.2024  0.0332  0.2579
 1484W        W 5228   7.459   6.896  10.946  0.1889  0.0284  0.2777
 1485W        W 5229   1.663   9.139   4.354 -0.1321  0.0016  0.0756
 1486W        W 5230   1.550   6.519   0.526  0.0891  0.2368 -0.0574
 1487W        W 5231   7.724   9.561   3.025  0.1407 -0.2675  0.0077
 1488W        W 5232   1.818   6.315  11.598  0.1553 -0.1920 -0.0943
 1489W        W 5233   0.866   9.192   0.463  0.0947 -0.0180  0.0954
 1490W        W 5234   0.486   3.427   1.654 -0.3002 -0.0135 -0.0229
 1491W        W 5235   5.410   8.097   8.360  0.0559 -0.0142  0.2724
 1492W        W 5236   4.685   8.411  11.102 -0.2095  0.0902 -0.0770
 1493W        W 5237   6.774   1.309   9.491  0.0045 -0.3948  0.0521
 1494W        W 5238   5.800   9.379  11.491  0.0273  0.1659  0.1801
 1495W        W 5239   6.120   7.783  12.089 -0.1690  0.1215  0.0611
 1496W        W 5240   0.482   8.605  12.555 -0.0348 -0.1075 -0.2942
 1497W        W 5241   3.644   8.641  10.835 -0.0612  0.2356 -0.3594
 1498W        W 5242   0.993   2.431  12.447 -0.3600 -0.3084  0.2546
 1499W        W 5243   0.133   0.013   1.161  0.2006  0.1786  0.0358
 1500W        W 5244   9.661   4.064   1.778  0.2392  0.0862 -0.3837
 1501W        W 5245   9.477   8.488  11.670 -0.2127 -0.0395  0.2628
 1502W        W 5246   7.424   6.120   0.710  0.1017  0.4921  0.2598
 1503W        W 5247   1.961   2.661   9.537  0.0008  0.0263  0.1445
 1504W        W 5248   9.939   1.815   3.416 -0.0968  0.0126  0.4653
 1505W        W 5249   1.597   7.494   9.570 -0.6127 -0.2497  0.0992
 1506W        W 5250   5.464   4.907   8.836 -0.0062  0.3543  0.2075
 1507W        W 5251   2.506   9.300   9.973  0.3313 -0.2919  0.1172
 1508W        W 5252   0.450   1.259   4.049  0.2415  0.1824 -0.0080
 1509W        W 5253   7.486   9.077   0.763  0.1774 -0.1518 -0.1262
 1510W        W 5254   1.332   3.095   3.789  0.1291 -0.1087  0.0432
 1511W        W 5255   6.358   6.373   9.887 -0.1869  0.1196 -0.0964
 1512W        W 5256   3.058   6.874   9.850 -0.2333 -0.0150 -0.2516
 1513W        W 5257   7.227   4.604   8.546 -0.2874  0.0251  0.0576
 1514W        W 5258   9.096   8.968  11.952  0.2106 -0.0036 -0.1580
 1515W        W 5259   9.531   8.221  12.511  0.0396 -0.1553 -0.0273
 1516W        W 5260   3.499   9.543  10.917  0.0208 -0.0495 -0.0288
 1517W        W 5261   1.415   4.398   9.523 -0.1701  0.2254  0.1941
 1518W        W 5262   6.524   0.113   3.504 -0.0819  0.1937  0.0293
 1519W        W 5263   9.878   6.413   9.543 -0.0161  0.4186 -0.1970
 1520W        W 5264   5.922   9.901  10.312 -0.5268  0.3787  0.0151
 1521W        W 5265   4.492   7.109   8.483  0.1067  0.2044 -0.2129
 1522W        W 5266   6.041   7.294   3.350 -0.0830 -0.2156 -0.0742
 1523W        W 5267   3.350   3.231   1.522  0.3662  0.0526  0.0585
 1524W        W 5268   2.831   0.668  10.067 -0.1641  0.1671 -0.0421
 1525W        W 5269   0.868   1.406  12.670  0.0346 -0.2468 -0.1397
 1526W        W 5270   0.019   2.465   3.220  0.2342 -0.2226  0.1267
 1527W        W 5271   2.149   9.163   9.681 -0.3076  0.1740 -0.2326
 1528W        W 5272   3.302   1.786  10.869  0.0536  0.2747 -0.2565
 1529W        W 5273   8.625   2.656   1.081  0.1357  0.0595 -0.1742
 1530W        W 5274   3.693   3.044   9.950  0.0382 -0.0481 -0.1921
 1531W        W 5275   3.476   6.050   8.265  0.0232  0.0843  0.3612
 1532W        W 5276   3.398   7.296   1.592 -0.0228 -0.0841  0.1784
 1533W        W 5277   6.243   0.023   0.720  0.0577  0.0701 -0.2490
 1534W        W 5278   0.937   7.744   1.123  0.0615 -0.0447 -0.1735
 1535W        W 5279   9.787   9.319  11.889  0.2117  0.2197 -0.0367
 1536W        W 5280   0.815   2.919   0.712  0.0104  0.4133  0.0701
 1537W        W 5281   9.016   0.945   2.261 -0.0285  0.1929  0.0299
 1538W        W 5282   5.987   2.513   8.584  0.0172  0.1257  0.0087
 1539W        W 5283   3.324   9.068   9.581 -0.0312  0.2031  0.1264
 1540W        W 5284   5.225   3.678   4.483 -0.1440  0.3071  0.0879
 1541W        W 5285   2.607   1.004   3.484 -0.0536 -0.0067 -0.0005
 1542W        W 5286   5.950   8.827   2.478  0.0381 -0.0610 -0.0541
 1543W        W 5287   2.747   3.438  12.482 -0.1657  0.3108 -0.1291
 1544W        W 5288   5.228   2.539  10.305  0.1078 -0.3235 -0.4305
 1545W        W 5289   0.879   9.711   3.950  0.0367 -0.1541  0.1187
 1546W        W 5290   8.259   7.787  10.936  0.0345  0.1824 -0.1420
 1547W        W 5291   4.315   8.126  11.337 -0.0806  0.3576  0.3399
 1548W        W 5292   8.188   8.142  10.061 -0.0935 -0.0599  0.1326
 1549W        W 5293   7.363   2.592  10.935  0.0943  0.2625  0.0662
 1550W        W 5294   2.499   0.221  11.872  0.1259 -0.1193 -0.1012
 1551W        W 5295   3.403   6.862   1.880 -0.5151 -0.3721 -0.1152
 1552W        W 5296   4.045   3.634  12.507  0.1134 -0.0133 -0.1731
 1553W        W 5297   4.358   4.255   1.645 -0.0330 -0.1252  0.2625
 1554W        W 5298   3.253   8.162   4.418 -0.0899  0.1974  0.1286
 1555W        W 5299   8.884   9.630   1.086  0.2044 -0.1382  0.0588
 1556W        W 5300   9.787   7.954   1.840 -0.2722 -0.1082  0.3060
 1557W        W 5301   7.039   7.187  11.049 -0.0465  0.0124  0.2492
 1558W        W 5302   1.023   1.118  11.270 -0.3098  0.1634 -0.2093
 1559W        W 5303   4.570   4.868   1.905 -0.1372  0.2819 -0.2622
 1560W        W 5304   8.145   9.126   9.434  0.1818  0.2035 -0.0505
 1561W        W 5305   4.302   0.214   2.840  0.1743  0.1673  0.2033
 1562W        W 5306   6.438   1.207  12.674 -0.0345 -0.0854  0.1068
 1563W        W 5307   9.228   1.560   1.484 -0.0833  0.5101 -0.3585
 1564W        W 5308   6.526   5.879   0.177  0.2525  0.0722 -0.4308
 1565W        W 5309   9.905   2.877  10.316 -0.6934  0.0239  0.0644
 1566W        W 5310   2.510   8.604   0.722 -0.1763 -0.1025 -0.1745
 1567W        W 5311   5.144   1.827   1.650  0.1108 -0.1135 -0.2689
 1568W        W 5312   6.774   0.635   3.485  0.0181  0.2579 -0.0484
 1569W        W 5313   8.899   9.417   9.971  0.2560 -0.0845  0.0633
 1570W        W 5314   3.987   9.484   1.751  0.2732  0.0860 -0.0399
 1571W        W 5315   7.373   8.771   9.681 -0.0649  0.0380 -0.1990
 1572W        W 5316   0.002   1.431   3.049 -0.3287 -0.1513  0.2913
 1573W        W 5317   9.747   5.969  11.261  0.2229  0.1025  0.1089
 1574W        W 5318   4.343   1.505   0.478 -0.1230 -0.3034  0.3655
 1575W        W 5319   3.684   5.519   0.014  0.1234  0.0313 -0.2754
 1576W        W 5320   5.468   2.760  10.973  0.2371  0.0524  0.1333
 1577W        W 5321   2.591   1.505   0.186  0.0851 -0.0329  0.0862
 1578W        W 5322   8.614   1.302   4.257  0.0432  0.2465  0.1941
 1579W        W 5323   8.751   3.077   3.598 -0.0658  0.1027  0.0197
 1580W        W 5324   1.220   3.974  12.504  0.1354 -0.2577  0.0152
 1581W        W 5325   8.213   3.303   0.802 -0.2120  0.4059 -0.0104
 1582W        W 5326   2.941   0.198  10.872 -0.1533 -0.0073 -0.0462
 1583W        W 5327   6.457   2.022  11.838  0.0784  0.3865 -0.1748
 1584W        W 5328   0.981   6.477  12.431  0.3991  0.0591  0.0714
 1585W        W 5329   1.187   2.931   1.026 -0.0447  0.1753  0.2033
 1586W        W 5330   9.528   1.170  11.534  0.0304  0.0583 -0.3147
 1587W        W 5331   6.513   3.121   3.904 -0.4524 -0.1355 -0.2561
 1588W        W 5332   8.325   6.852   1.204  0.0418 -0.0762 -0.3860
 1589W        W 5333   0.800   7.494   9.891 -0.0156 -0.1452 -0.0799
 1590W        W 5334   5.216   1.485  12.442 -0.1291  0.0147 -0.0048
 1591W        W 5335   8.381   0.307   4.156 -0.0288  0.2585 -0.6746
 1592W        W 5336   9.564   9.910   2.871 -0.2320 -0.0975  0.1476
 1593W        W 5337   8.336   4.434   1.669  0.1519  0.3080  0.1050
 1594W        W 5338   5.064   4.402  10.964 -0.0160  0.1162  0.3664
 1595W        W 5339   1.793   1.371  10.957 -0.2641  0.0851 -0.1387
 1596W        W 5340   2.370   9.584   3.911 -0.1628 -0.2111  0.0298
 1597W        W 5341   2.491   2.915  12.432 -0.3352 -0.0222  0.1839
 1598W        W 5342   1.988   9.788   3.658  0.0874  0.1291 -0.1209
 1599W        W 5343   0.582   3.924   9.987 -0.1371  0.2587  0.0538
 1600W        W 5344   5.004   4.587   0.015  0.3867  0.0710  0.0915
 1601W        W 5345   1.831   1.451   2.934  0.2134 -0.4730  0.1068
 1602W        W 5346   8.129   1.529   3.524 -0.1954  0.0872 -0.3105
 1603W        W 5347   6.117   1.640  12.602  0.0509 -0.1924  0.0181
 1604W        W 5348   5.451   0.706   3.258 -0.1821  0.1558  0.1506
 1605W        W 5349   7.393   7.991  12.104 -0.2009 -0.0608  0.0332
 1606W        W 5350   9.563   4.402   2.859  0.0128  0.0589 -0.0639
 1607W        W 5351   9.366   0.791  11.294 -0.1770 -0.0605 -0.4853
 1608W        W 5352   2.455   6.134   8.718 -0.2845 -0.0204 -0.1938
 1609W        W 5353   2.116   2.241   8.880 -0.1257 -0.0527 -0.2421
 1610W        W 5354   7.117   3.363  10.458  0.0275 -0.0366 -0.1967
 1611W        W 5355   4.588   3.758   0.620 -0.2397  0.1097  0.0154
 1612W        W 5356   6.031   7.672  10.165 -0.4670  0.2037  0.1684
 1613W        W 5357   6.364   0.106  11.089 -0.0415 -0.0921 -0.0450
 1614W        W 5358   3.069   4.862   9.695  0.0234 -0.0936 -0.0116
 1615W        W 5359   3.931   6.744   1.733 -0.1644  0.1363  0.3518
 1616W        W 5360   7.689   3.492   4.014 -0.0908  0.1995  0.1623
 1617W        W 5361   4.047   2.173   9.801 -0.0646 -0.1012 -0.1886
 1618W        W 5362   9.260   3.936   0.647  0.0861 -0.3800  0.1872
 1619W        W 5363   4.262   0.261   2.023 -0.0756 -0.1892  0.2605
 1620W        W 5364   0.134   7.409   2.664  0.1056  0.0276  0.1859
 1621W        W 5365   5.910   1.923  12.180 -0.0470  0.1296 -0.4070
 1622W        W 5366   2.769   4.145   2.740 -0.0033  0.6117  0.1500
 1623W        W 5367   9.069   0.717   9.419  0.0968  0.1127  0.0943
 1624W        W 5368   6.253   3.733   8.227 -0.1791  0.0440 -0.1999
 1625W        W 5369   2.497   3.076   0.906  0.2393  0.0780 -0.2667
 1626W        W 5370   5.048   4.671  11.975  0.3389 -0.1396 -0.0583
 1627W        W 5371   0.226   1.598  10.211 -0.2072 -0.1033 -0.1260
 1628W        W 5372   3.335   3.745   3.520 -0.0361  0.0145 -0.2887
 1629W        W 5373   8.067   2.006   0.152 -0.3010 -0.1442  0.2116
 1630W        W 5374   1.143   5.554  10.883 -0.4057  0.0789 -0.0385
 1631W        W 5375   6.482   5.279   1.115 -0.2328  0.0544 -0.1704
 1632W        W 5376   8.702   0.273   0.198 -0.5476 -0.1445  0.1190
 1633W        W 5377   5.140   9.239   2.219 -0.0536  0.1461 -0.3587
 1634W        W 5378   6.391   6.944   2.551  0.2191  0.1791  0.1815
 1635W        W 5379   5.816   2.909   9.258  0.2604 -0.0694  0.2364
 1636W        W 5380   4.983   6.803  12.616  0.4324 -0.0615 -0.0330
 1637W        W 5381   5.247   2.179  11.695 -0.1143 -0.0835  0.0784
 1638W        W 5382   7.595   8.789  10.437  0.3626  0.1544  0.2465
 1639W        W 5383   2.203   6.507  12.483  0.1166 -0.1571 -0.3306
 1640W        W 5384   4.458   8.759   0.622  0.2524 -0.0803  0.1969
 1641W        W 5385   8.381   1.803  10.621 -0.2417  0.7030  0.0285
 1642W        W 5386   3.401   5.653  10.370  0.2122  0.3610 -0.1686
 1643W        W 5387   2.963   2.865   2.361  0.0654  0.0450  0.1034
 1644W        W 5388   2.598   9.744  10.153  0.5009  0.1491 -0.1897
 1645W        W 5389   4.378   6.017   1.124  0.0948 -0.0291  0.4833
 1646W        W 5390   7.137   6.935   2.082 -0.0367  0.0723 -0.3661
 1647W        W 5391   3.497   7.406  12.672 -0.1846 -0.0476 -0.1321
 1648W        W 5392   8.022   9.061  10.290  0.1923  0.1390  0.0232
 1649W        W 5393   3.945   7.922   1.992 -0.2608  0.3469  0.2097
 1650W        W 5394   4.591   4.993   9.319 -0.2278  0.1214 -0.1433
 1651W        W 5395   1.215   9.363   1.291 -0.1426 -0.0489 -0.2328
 1652W        W 5396   7.074   0.094  10.465 -0.1190 -0.0027  0.1593
 1653W        W 5397   5.299   1.868  11.278 -0.1932  0.0762  0.0089
 1654W        W 5398   0.259   8.747   9.822 -0.1565  0.1053 -0.1081
 1655W        W 5399   6.286   6.995   3.997  0.2923  0.2679  0.1469
 1656W        W 5400   0.130   1.831   2.069 -0.0147 -0.0410  0.0853
 1657W        W 5401   6.647   8.733  12.676 -0.0562  0.0520 -0.2556
 1658W        W 5402   0.971   6.885  11.430 -0.1643 -0.0975  0.0714
 1659W        W 5403   0.071   2.024   1.376  0.1699  0.2511  0.0624
 1660W        W 5404   0.844   6.499   3.279  0.4107  0.0029 -0.1811
 1661W        W 5405   6.336   3.536   2.456  0.1784 -0.1066  0.1136
 1662W        W 5406   7.635   6.873   1.963  0.1397  0.2059 -0.1928
 1663W        W 5407   6.492   7.865   2.671 -0.3329 -0.1889 -0.1963
 1664W        W 5408   9.222   8.115   3.980 -0.1093  0.1085  0.0994
 1665W        W 5409   1.315   6.241   1.316 -0.1299 -0.1971  0.2603
 1666W        W 5410   3.711   1.070  11.997  0.2204 -0.0256  0.1299
 1667W        W 5411   1.503   3.202   1.310 -0.1172  0.0611 -0.1512
 1668W        W 5412   6.786   0.351  12.363  0.0726  0.1337 -0.0124
 1669W        W 5413   9.704   7.980   2.458 -0.1498 -0.1113 -0.2174
 1670W        W 5414   1.503   0.380  10.992 -0.1968  0.1450  0.2986
 1671W        W 5415   9.991   2.502   4.176  0.0449 -0.2702 -0.0953
 1672W        W 5416   2.429   2.307   1.339  0.2799 -0.0959  0.1413
 1673W        W 5417   0.995   0.115  11.634  0.0010 -0.0326 -0.1562
 1674W        W 5418   2.974   4.367   9.795  0.0577  0.0916 -0.2815
 1675W        W 5419   9.774   4.833   9.351 -0.0537  0.1720 -0.1129
 1676W        W 5420   3.834   4.919   2.417 -0.0186 -0.2465  0.0101
 1677W        W 5421   0.456   1.098  10.308  0.1900 -0.2027  0.0039
 1678W        W 5422   9.177   9.724   3.792 -0.0490  0.0263  0.0275
 1679W        W 5423   9.748   5.242  10.135  0.1465 -0.0993  0.1582
 1680W        W 5424   3.397   5.720  11.894  0.0648 -0.3597 -0.2732
 1681W        W 5425   3.013   3.224   2.882 -0.3959  0.2569 -0.0650
 1682W        W 5426   7.304   9.602   0.566 -0.0259  0.1277 -0.0931
 1683W        W 5427   2.091   5.141  10.033 -0.0488  0.0877  0.0407
 1684W        W 5428   5.993   2.999   8.754  0.2668  0.0262  0.1892
 1685W        W 5429   2.426   4.243   4.351  0.2245 -0.0010  0.0337
 1686W        W 5430   5.741   9.842   3.857  0.0801 -0.0283 -0.0803
 1687W        W 5431   5.267   1.744   8.521 -0.0706  0.0167  0.1746
 1688W        W 5432   0.117   7.594   0.972 -0.1101  0.0858  0.0018
 1689W        W 5433   1.397   3.849   9.473 -0.2527  0.0657  0.2381
 1690W        W 5434   6.878   5.355   2.966 -0.1764 -0.0450 -0.2754
 1691W        W 5435   0.436   2.752   4.885  0.2065  0.0021  0.3923
 1692W        W 5436   4.349   7.933   9.875  0.2706  0.3437  0.1944
 1693W        W 5437   5.015   4.503   7.619  0.1469  0.0801  0.2994
 1694W        W 5438   4.205   2.333   8.256 -0.0042 -0.0257 -0.1210
 1695W        W 5439   5.208   1.797   2.348 -0.2205  0.2181  0.1436
 1696W        W 5440   8.609   3.048   9.493 -0.2112 -0.0503  0.3506
 1697W        W 5441   1.670   5.994  11.934 -0.0647  0.3797 -0.0901
 1698W        W 5442   4.227   5.235  10.856 -0.1393  0.0407 -0.3424
 1699W        W 5443   3.490   4.229   3.623 -0.1420 -0.0295  0.0290
 1700W        W 5444   7.791   2.635  10.309 -0.1764  0.2452  0.1638
 1701W        W 5445   9.445   4.454   9.493 -0.4455  0.0649  0.1807
 1702W        W 5446   3.073   9.742   2.884  0.0108  0.1939  0.0206
 1703W        W 5447   4.594   0.436  11.656  0.0368 -0.2241 -0.0958
 1704W        W 5448   8.461   0.461  12.462  0.0308  0.0206 -0.0260
 1705W        W 5449   9.189   4.199   3.193 -0.1151 -0.0552  0.3143
 1706W        W 5450   3.747   3.703   2.022  0.0903 -0.0036 -0.1308
 1707W        W 5451   9.256   7.793   2.428 -0.0127  0.2836 -0.0865
 1708W        W 5452   3.173   7.358   4.055 -0.3002 -0.0168 -0.0690
 1709W        W 5453   6.246   7.320   9.955 -0.0810 -0.0111  0.0516
 1710W        W 5454   3.650   5.605   0.521  0.2403 -0.1525  0.2184
 1711W        W 5455   6.788   8.261   1.125  0.1113 -0.2830 -0.2869
 1712W        W 5456   8.436   5.804  11.122 -0.2928 -0.0399  0.1291
 1713W        W 5457   4.359   5.106   1.559  0.3835 -0.2846  0.2695
 1714W        W 5458   3.838   1.488  12.351 -0.0761  0.0118 -0.0624
 1715W        W 5459   2.321   5.411   9.706  0.2170  0.0365  0.2486
 1716W        W 5460   3.429   5.427  12.306  0.1561 -0.0488  0.2260
 1717W        W 5461   3.270   3.739  12.663 -0.0762 -0.0066 -0.1535
 1718W        W 5462   1.409   3.288   1.882  0.1100  0.1473 -0.2936
 1719W        W 5463   1.564   2.418  10.074  0.2314 -0.0325 -0.0271
 1720W        W 5464   6.426   8.809   0.551 -0.1750 -0.0766 -0.2395
 1721W        W 5465   2.763   3.901  11.653  0.1807  0.1730 -0.5185
 1722W        W 5466   6.595   5.954   1.666 -0.0810  0.1580 -0.0860
 1723W        W 5467   6.311   2.667  12.404 -0.1736 -0.1638  0.1328
 1724W        W 5468   1.234   3.844   0.684  0.1460 -0.0428 -0.1965
 1725W        W 5469   2.506   2.967  10.046  0.0793  0.0823  0.2298
 1726W        W 5470   6.385   1.901   1.513  0.1657 -0.0465 -0.2422
 1727W        W 5471   9.923   5.117  11.137 -0.0682 -0.1540  0.0091
 1728W        W 5472   9.242   6.542   3.317 -0.3143 -0.1861 -0.3301
 1729W        W 5473   7.327   2.377   1.840  0.3413 -0.3352  0.2835
 1730W        W 5474   2.210   0.012   0.802 -0.2033  0.0063  0.2159
 1731W        W 5475   7.472   7.777  10.468  0.0711  0.1320  0.1706
 1732W        W 5476   4.372   6.702   2.916 -0.1669  0.3126 -0.1239
 1733W        W 5477   2.148   1.712   3.257  0.1101  0.1143  0.0708
 1734W        W 5478   5.380   4.849   9.383 -0.0672 -0.1753 -0.1540
 1735W        W 5479   5.670   2.448   9.499  0.2013  0.0800  0.1048
 1736W        W 5480   6.566   1.307   8.597  0.0170 -0.1581 -0.1291
 1737W        W 5481   1.029   7.496   8.667  0.1269 -0.1169  0.1265
 1738W        W 5482   1.525   1.986  11.474 -0.0785  0.1189  0.1756
 1739W        W 5483   7.203   5.983   3.290 -0.1030 -0.2617 -0.1088
 1740W        W 5484   7.119   3.423  10.972  0.0993 -0.2068 -0.2429
 1741W        W 5485   2.860   4.066   0.258  0.0362 -0.1688 -0.1879
 1742W        W 5486   1.581   4.955  10.198 -0.2080  0.1549  0.1484
 1743W        W 5487   1.171   3.403   2.808 -0.1376  0.0118  0.1388
 1744W        W 5488   4.153   9.979  11.749 -0.2180 -0.0915  0.3786
 1745W        W 5489   1.337   9.049   9.849  0.3163 -0.0070 -0.0924
 1746W        W 5490   3.761   9.004  11.683 -0.4734  0.4056 -0.3763
 1747W        W 5491   2.214   1.059  12.328 -0.1637  0.1496  0.3329
 1748W        W 5492   5.009   5.055   0.286 -0.0405  0.3531 -0.2350
 1749W        W 5493   3.105   6.245   1.845  0.0708  0.0384 -0.0006
 1750W        W 5494   3.936   1.855   8.896 -0.1733  0.2504 -0.0084
 1751W        W 5495   8.268   2.489  11.448  0.1580  0.1466  0.0878
 1752W        W 5496   5.339   5.435  11.658  0.1089  0.0591  0.3305
 1753W        W 5497   2.960   2.270   4.133  0.0671 -0.0799  0.1562
 1754W        W 5498   8.951   4.211   0.245  0.1709 -0.3146 -0.2617
 1755W        W 5499   8.116   1.240  11.127 -0.0149  0.0174 -0.1537
 1756W        W 5500   1.819   8.872  11.799 -0.2502 -0.2077  0.1018
 1757W        W 5501   4.618   0.660  10.456  0.1872  0.1529  0.0237
 1758W        W 5502   1.564   7.970   9.901  0.4485 -0.0537  0.0106
 1759W        W 5503   7.248   9.856   1.506  0.1815  0.1026  0.0511
 1760W        W 5504   9.797   8.412   0.631  0.1031 -0.1333 -0.3024
 1761W        W 5505   2.996   9.423  12.435 -0.2051 -0.1944  0.1645
 1762W        W 5506   1.029   9.919   4.617 -0.0196  0.0726  0.2093
 1763W        W 5507   5.356   2.062  10.409  0.0012  0.1850  0.0224
 1764W        W 5508   2.381   2.927   3.969  0.0427  0.2752  0.0143
 1765W        W 5509   0.605   2.412   8.902  0.3789 -0.0731 -0.0981
 1766W        W 5510   6.189   3.974   8.906 -0.1040  0.3513  0.1016
 1767W        W 5511   5.648   7.270   2.976 -0.3153 -0.1955 -0.2851
 1768W        W 5512   1.508   1.329  10.542 -0.3060  0.3246  0.3851
 1769W        W 5513   8.486   6.767  11.031  0.1492  0.1531 -0.0804
 1770W        W 5514   5.329   3.273   1.595 -0.1032  0.2850 -0.1001
 1771W        W 5515   1.970   3.045  10.421 -0.2085 -0.2521 -0.0157
 1772W        W 5516   1.860   3.722  10.267  0.1557  0.0386 -0.2688
 1773W        W 5517   4.686   2.064   2.944 -0.1480  0.1195  0.2233
 1774W        W 5518   1.528   5.281   2.145  0.1625 -0.1654 -0.1550
 1775W        W 5519   8.284   6.407   1.378  0.3732  0.1417 -0.0353
 1776W        W 5520   5.903   3.431  11.807  0.1579  0.2649 -0.1268
 1777W        W 5521   7.940   3.682   1.041  0.1244 -0.1575  0.0552
 1778W        W 5522   5.591   7.414  12.677  0.6252  0.1822  0.1560
 1779W        W 5523   2.401   7.444   9.056 -0.1495 -0.0947  0.1018
 1780W        W 5524   2.798   7.352   9.404 -0.0566 -0.0623 -0.0838
 1781W        W 5525   0.014   7.646  10.949  0.1687  0.0992 -0.0796
 1782W        W 5526   2.265   7.331  12.414  0.0752 -0.0410  0.1059
 1783W        W 5527   2.036   7.077   8.931 -0.1065  0.1499 -0.1218
 1784W        W 5528   2.633   8.435   2.680  0.2080 -0.0703  0.0459
 1785W        W 5529   2.006   0.300   2.911  0.1847  0.0094  0.0091
 1786W        W 5530   0.059   1.988  12.203 -0.0400 -0.0538 -0.0234
 1787W        W 5531   6.044   1.776   3.815 -0.1071  0.0822  0.0742
 1788W        W 5532   0.118   2.450   9.114  0.2500  0.1768 -0.1903
 1789W        W 5533   2.549   2.498   2.739  0.0188 -0.0200 -0.0060
 1790W        W 5534   3.659   8.872   1.120 -0.0213 -0.1668 -0.0278
 1791W        W 5535   2.677   3.040  11.950 -0.0401  0.0930 -0.0719
 1792W        W 5536   6.016   7.310   8.012  0.0884  0.2876  0.0631
 1793W        W 5537   9.939   9.050   0.915 -0.0324 -0.1763  0.0839
 1794W        W 5538   3.646   2.378   3.299 -0.0572  0.0702  0.3796
 1795W        W 5539   7.333   5.521   1.346  0.0263  0.0706  0.3554
 1796W        W 5540   6.124   1.169   8.446  0.0427  0.1164  0.1714
 1797W        W 5541   0.152   3.249   1.258 -0.0535  0.5282  0.2734
 1798W        W 5542   7.034   2.924   2.365  0.0301 -0.0329 -0.2170
 1799W        W 5543   9.782   1.162   4.575 -0.1700  0.1014 -0.1240
 1800W        W 5544   2.857   1.204  10.264  0.3848  0.0258 -0.1653
 1801W        W 5545   3.226   2.700   3.333  0.2669 -0.0154  0.0079
 1802W        W 5546   5.826   4.514   3.499  0.2188 -0.1889 -0.0601
 1803W        W 5547   9.928   3.559   3.938 -0.3150 -0.1968 -0.1795
 1804W        W 5548   2.159   4.731  10.400  0.2707  0.2575 -0.0571
 1805W        W 5549   4.642   0.604   0.373 -0.2379 -0.0749  0.0315
 1806W        W 5550   7.975   7.352   1.961 -0.1988  0.1119  0.1764
 1807W        W 5551   4.922   3.020   1.440 -0.2142  0.2026  0.0291
 1808W        W 5552   8.738   5.847  11.926 -0.0386 -0.3937 -0.1214
 1809W        W 5553   5.161   4.083   0.535  0.2418 -0.3453  0.1293
 1810W        W 5554   4.167   0.207   9.721  0.3510  0.5516 -0.0122
 1811W        W 5555   1.340   6.141   9.487 -0.0263  0.0564 -0.1419
 1812W        W 5556   2.778   5.238  12.072  0.2301  0.1222 -0.0427
 1813W        W 5557   8.628   1.570   3.192  0.0174 -0.2240  0.2711
 1814W        W 5558   8.057   3.140   4.100  0.2416  0.0173  0.1148
 1815W        W 5559   8.073   9.708   2.385  0.3038  0.1387 -0.0862
 1816W        W 5560   7.192   9.356  12.165 -0.0343 -0.2599  0.0315
 1817W        W 5561   8.383   0.572   9.657  0.0253  0.2912 -0.0173
 1818W        W 5562   4.193   0.489   3.327 -0.0733 -0.2734 -0.0133
 1819W        W 5563   7.624   8.585   2.106 -0.0817  0.2680 -0.0807
 1820W        W 5564   6.868   1.994   0.501 -0.1736 -0.1948  0.0093
 1821W        W 5565   9.284   1.998  11.099  0.0423  0.2520 -0.3908
 1822W        W 5566   1.164   2.624   2.040  0.2340 -0.1301 -0.3611
 1823W        W 5567   2.898   1.427  12.107  0.1026  0.0362 -0.1254
 1824W        W 5568   7.068   2.369   2.240 -0.1979 -0.0493 -0.0612
 1825W        W 5569   4.746   6.811   3.393  0.2478 -0.4500 -0.2185
 1826W        W 5570   2.643   8.339  10.947  0.0403 -0.0376 -0.0071
 1827W        W 5571   8.340   6.892   2.058  0.3279 -0.1573 -0.0703
 1828W        W 5572   4.444   1.055  10.135 -0.2853  0.0508 -0.1354
 1829W        W 5573   4.750   6.280   0.659 -0.0197  0.0998  0.1136
 1830W        W 5574   6.916   0.648   0.524 -0.0815 -0.1245 -0.0201
 1831W        W 5575   1.944   1.081   1.676 -0.0134 -0.0025 -0.1133
 1832W        W 5576   3.769   1.904   1.731 -0.1791 -0.1510  0.1036
 1833W        W 5577   3.717   2.788   8.730 -0.0191 -0.1605  0.0284
 1834W        W 5578   0.404   0.027   2.386 -0.0720  0.0667 -0.1396
 1835W        W 5579   8.373   5.379  11.783 -0.1783 -0.0525  0.0437
 1836W        W 5580   4.432   7.482  10.128 -0.0363 -0.1438 -0.1970
 1837W        W 5581   6.569   1.599   9.009  0.1324  0.3338  0.2005
 1838W        W 5582   0.641   0.706   3.080 -0.0552  0.4972 -0.1897
 1839W        W 5583   2.258   6.952   0.096  0.6465  0.0549 -0.0188
 1840W        W 5584   0.489   9.158   8.962 -0.0201 -0.2270  0.0188
 1841W        W 5585   7.810   2.041   0.682  0.1396 -0.0278 -0.0810
 1842W        W 5586   8.370   7.261   2.401  0.0428  0.1721  0.1906
 1843W        W 5587   5.190   5.884   0.633  0.3349  0.2000  0.0002
 1844W        W 5588   0.822   0.037  12.474 -0.0106  0.2696 -0.1846
 1845W        W 5589   1.572   1.773   9.059  0.1727  0.2232 -0.0692
 1846W        W 5590   6.449   5.762  10.722 -0.1335  0.2228 -0.1666
 1847W        W 5591   3.756   6.555   9.440 -0.4862  0.5189 -0.2266
 1848W        W 5592   4.971   8.774  11.915  0.0002 -0.0224  0.0433
 1849W        W 5593   7.703   4.361   0.110 -0.3721 -0.5173  0.2731
 1850W        W 5594   5.331   6.337  12.494 -0.3423 -0.1375  0.1005
 1851W        W 5595   9.644   2.807   1.405  0.0503 -0.2377 -0.1206
 1852W        W 5596   0.956   0.726  10.860  0.1088  0.3335 -0.2636
 1853W        W 5597   8.587   9.818  12.216 -0.1155  0.0229  0.1710
 1854W        W 5598   2.084   0.632   2.524  0.1243 -0.2352 -0.1290
 1855W        W 5599   2.514   1.488   5.310 -0.1475  0.0090  0.0902
 1856W        W 5600   5.705   3.035   9.728  0.0414 -0.3902 -0.0425
 1857W        W 5601   0.814   4.230  11.086  0.0170 -0.1429 -0.0314
 1858W        W 5602   2.961   1.439   2.728  0.1195 -0.3422  0.0761
 1859W        W 5603   2.963   8.846   3.358  0.0501  0.1187  0.2667
 1860W        W 5604   7.926   1.148   0.322 -0.1560  0.0301  0.0290
 1861W        W 5605   6.470   2.608  11.853  0.3879 -0.3866  0.2710
 1862W        W 5606   2.144   7.641   8.095 -0.3393  0.1943 -0.1487
 1863W        W 5607   2.429   1.960   8.387  0.3350 -0.1128 -0.0527
 1864W        W 5608   4.452   1.288   4.100 -0.0679  0.1488  0.1913
 1865W        W 5609   7.298   0.720  12.146 -0.0350 -0.0188  0.1033
 1866W        W 5610   4.483   6.439  10.013  0.2489  0.1856 -0.2434
 1867W        W 5611   5.168   9.683   3.074  0.3692  0.0893  0.0768
 1868W        W 5612   8.299   5.567   0.318 -0.1943  0.1955  0.0882
 1869W        W 5613   4.066   3.875  10.783  0.3553 -0.1069  0.0917
 1870W        W 5614   7.577   1.544   2.031  0.1940  0.0852  0.0516
 1871W        W 5615   9.614   5.025   3.309 -0.0932 -0.0076  0.0179
 1872W        W 5616   0.454   1.815   1.733  0.1946 -0.1800  0.1033
 1873W        W 5617   3.701   0.641  10.668  0.1291 -0.1986  0.3166
 1874W        W 5618   0.945   2.823   9.026  0.3914 -0.2339 -0.3192
 1875W        W 5619   5.427   4.950   1.239 -0.0114 -0.0530  0.0143
 1876W        W 5620   3.121   5.418   2.994 -0.2966  0.3567 -0.4363
 1877W        W 5621   6.290   3.415   9.798 -0.1425 -0.1572 -0.0039
 1878W        W 5622   3.484   8.037   2.234  0.2733  0.0313  0.1426
 1879W        W 5623   4.092   2.394   8.902  0.2058 -0.0634 -0.0820
 1880W        W 5624   0.031   3.025   3.953 -0.0067  0.0057  0.0480
 1881W        W 5625   3.514   2.791   4.738 -0.1901  0.2811 -0.1221
 1882W        W 5626   0.831   0.649   9.172  0.1148 -0.0784 -0.1924
 1883W        W 5627   3.348   0.141   3.625 -0.2104 -0.0411  0.1720
 1884W        W 5628   3.190   0.499   1.305 -0.0205  0.2495 -0.1585
 1885W        W 5629   5.866   1.545  10.227 -0.0617  0.2708  0.0408
 1886W        W 5630   7.128   0.623   8.719 -0.1890 -0.2415  0.1217
 1887W        W 5631   8.316   8.545  12.074  0.2692  0.2040  0.3133
 1888W        W 5632   5.931   6.460   0.320  0.3273 -0.0181  0.1454
 1889W        W 5633   4.729   3.587   0.152 -0.0389  0.0626 -0.3779
 1890W        W 5634   9.809   1.236   9.433 -0.1125 -0.1414 -0.0318
 1891W        W 5635   0.376   0.531   1.854 -0.2247 -0.0147  0.0671
 1892W        W 5636   4.351   7.160   0.962  0.1492 -0.2863 -0.1291
 1893W        W 5637   7.833   4.895   3.727 -0.0918 -0.1714 -0.1526
 1894W        W 5638   0.778   5.351   1.474 -0.1094 -0.0109  0.0009
 1895W        W 5639   0.377   5.070   2.369 -0.1578  0.2070  0.3043
 1896W        W 5640   7.358   3.170   2.812 -0.1465 -0.1364 -0.1376
 1897W        W 5641   9.104   8.449   9.950 -0.1331 -0.1300 -0.0644
 1898W        W 5642   3.893   6.525   3.078 -0.0189  0.1309  0.0706
 1899W        W 5643   4.283   9.527   0.469 -0.4393 -0.1890 -0.2718
 1900W        W 5644   8.599   2.245   3.926 -0.4769 -0.0206  0.1260
 1901W        W 5645   8.793   4.044  12.377  0.0652 -0.1491  0.1632
 1902W        W 5646   3.611   7.447  12.097  0.0526  0.3057 -0.1582
 1903W        W 5647   1.941   2.475   1.475  0.1223  0.0314 -0.0110
 1904W        W 5648   6.550   5.878   8.501  0.0701 -0.1373  0.1011
 1905W        W 5649   2.985   6.200   0.898 -0.0728 -0.0173  0.0538
 1906W        W 5650   7.582   7.486  12.096  0.0050  0.0077 -0.0975
 1907W        W 5651   0.722   6.121   0.638 -0.0387  0.3361  0.2747
 1908W        W 5652   4.935   2.105   8.472  0.0666  0.3256  0.0914
 1909W        W 5653   5.626   6.162  11.341  0.0376  0.0199  0.0092
 1910W        W 5654   4.558   2.604   1.402  0.1652  0.0770 -0.3318
 1911W        W 5655   2.699   8.299   4.180 -0.1907 -0.0478 -0.2090
 1912W        W 5656   4.805   5.485  12.275  0.2304  0.0915 -0.0851
 1913W        W 5657   2.731   7.651   2.563 -0.0592  0.3991  0.0983
 1914W        W 5658   2.350   0.164   1.811 -0.1141  0.0003  0.0512
 1915W        W 5659   4.992   2.494  10.826 -0.3384  0.1948 -0.2555
 1916W        W 5660   8.107   0.756  10.977  0.1652  0.0847 -0.2717
 1917W        W 5661   5.857   3.852   3.990  0.0122 -0.1270 -0.0812
 1918W        W 5662   1.111   0.198   9.086 -0.0668 -0.0241  0.1043
 1919W        W 5663   0.682   0.120   9.396  0.0155 -0.0230 -0.0633
 1920W        W 5664   7.978   4.215   1.305 -0.2770 -0.0080 -0.0292
 1921W        W 5665   8.165   8.297   2.275  0.0068 -0.2894 -0.0835
 1922W        W 5666   8.196   6.623  11.426 -0.0126  0.0431  0.3770
 1923W        W 5667   1.763   0.688  12.444  0.0887  0.0897 -0.0543
 1924W        W 5668   9.666   9.689   0.432 -0.0725  0.0312  0.1710
 1925W        W 5669   2.310   4.842   8.394  0.1160 -0.0469 -0.1232
 1926W        W 5670   0.818   0.188   0.609  0.0655 -0.1529 -0.2309
 1927W        W 5671   7.732   1.901   2.418  0.1954 -0.1119 -0.1688
 1928W        W 5672   0.924   0.608   1.065 -0.4461  0.4054  0.2405
 1929W        W 5673   3.337   6.776  10.366 -0.1660 -0.1160  0.1261
 1930W        W 5674   5.711   0.079   0.878  0.0163 -0.0368  0.3854
 1931W        W 5675   5.794   2.919  10.646  0.0817 -0.0616  0.2014
 1932W        W 5676   7.195   5.547   1.831  0.2782  0.1797  0.3123
 1933W        W 5677   7.725   5.979   0.331  0.0260 -0.0189  0.2461
 1934W        W 5678   4.254   4.500  12.022  0.1688  0.2227  0.0650
 1935W        W 5679   3.745   3.348  11.282  0.0206 -0.1527  0.0875
 1936W        W 5680   6.276   5.425   1.579  0.1507 -0.0034  0.0787
 1937W        W 5681   2.757   2.271   9.461 -0.0013 -0.1451 -0.0772
 1938W        W 5682   1.270   9.205   8.556 -0.0264 -0.3377  0.0357
 1939W        W 5683   5.426   4.761   0.183 -0.0091 -0.0455  0.3116
 1940W        W 5684   6.929   4.713  10.761  0.0783  0.0865  0.0249
 1941W        W 5685   3.322   0.980  10.379  0.1025  0.0675 -0.0569
 1942W        W 5686   6.154   0.188  11.579 -0.0463  0.2390  0.0347
 1943W        W 5687   3.814   7.877   9.032  0.1354  0.1387 -0.0150
 1944W        W 5688   7.619   5.556  10.687 -0.3824 -0.0793 -0.0184
 1945W        W 5689   1.168   5.932   0.914 -0.0836  0.1963 -0.2498
 1946W        W 5690   0.632   4.773   2.036  0.1559  0.0126  0.0160
 1947W        W 5691   1.899   7.440   0.218 -0.0801 -0.2002 -0.3612
 1948W        W 5692   1.898   4.137  11.691  0.3349 -0.2704  0.1983
 1949W        W 5693   3.802   0.330   0.265  0.3470  0.0457 -0.0852
 1950W        W 5694   9.544   5.436   1.499 -0.0138  0.1802 -0.0769
 1951W        W 5695   0.908   7.818   0.192  0.1589 -0.1612 -0.2867
 1952W        W 5696   4.426   9.245   1.435 -0.1730  0.0527  0.0508
 1953W        W 5697   8.457   9.231  12.550 -0.0298  0.2202 -0.2238
 1954W        W 5698   0.137   4.673  11.367  0.2609  0.2664  0.1468
 1955W        W 5699   9.856   8.909   4.375  0.2592  0.2448  0.0933
 1956W        W 5700   1.920   7.646   9.953  0.0466  0.1722  0.0830
 1957W        W 5701   2.892   1.361  11.603  0.3487  0.1461 -0.0430
 1958W        W 5702   5.783   6.746   4.098 -0.2595  0.2863  0.0391
 1959W        W 5703   4.486   4.247   3.145 -0.1640 -0.1353 -0.1725
 1960W        W 5704   8.817   2.697  10.689  0.1807 -0.3264 -0.1417
 1961W        W 5705   1.832   5.034   0.869 -0.2653  0.0947 -0.0025
 1962W        W 5706   0.047   0.867   9.162 -0.3181  0.0056 -0.0409
 1963W        W 5707   9.528   4.861  10.930  0.2686  0.2462  0.0071
 1964W        W 5708   8.431   4.026   2.665  0.1390 -0.2109  0.1477
 1965W        W 5709   9.198   5.225   8.847 -0.0546  0.2052 -0.0331
 1966W        W 5710   1.654   9.716   2.604 -0.1655  0.0169  0.4777
 1967W        W 5711   4.240   0.041   9.177  0.0212 -0.1818  0.0986
 1968W        W 5712   9.914   0.252   1.585 -0.0421  0.0062 -0.2806
 1969W        W 5713   6.115   6.770   1.246 -0.0441  0.1106 -0.0481
 1970W        W 5714   8.646   4.664   2.016 -0.0187 -0.0898  0.2007
 1971W        W 5715   1.363   1.549  11.148 -0.0900  0.1410 -0.1241
 1972W        W 5716   2.237   1.378   3.627  0.0772  0.0064 -0.1460
 1973W        W 5717   5.414   8.059   3.423  0.0137  0.1686 -0.2077
 1974W        W 5718   3.911   9.868   4.447 -0.1210  0.0328 -0.1687
 1975W        W 5719   4.589   4.971  12.081  0.1349  0.2666 -0.2361
 1976W        W 5720   0.901   2.163   4.503 -0.1059 -0.0970 -0.1759
 1977W        W 5721   8.310   6.752  11.941  0.1750 -0.0933 -0.0033
 1978W        W 5722   1.354   1.791   1.746  0.0305  0.3155 -0.0914
 1979W        W 5723   9.278   0.050   1.303  0.1127  0.0315  0.0135
 1980W        W 5724   9.746   5.937   1.526 -0.0057  0.2071 -0.0279
 1981W        W 5725   3.442   6.121  10.231 -0.1346  0.0265 -0.2117
 1982W        W 5726   4.052   4.391   1.046  0.1171  0.0311 -0.1116
 1983W        W 5727   5.897   9.544   2.114  0.1206  0.2642 -0.1326
 1984W        W 5728   0.148   6.990  10.404  0.2573 -0.0593 -0.3843
 1985W        W 5729   1.496   1.412   8.724 -0.4156 -0.1729 -0.1093
 1986W        W 5730   5.990   4.692   9.998 -0.2019  0.1634  0.1494
 1987W        W 5731   6.821   2.928   0.682 -0.2219  0.0289  0.1533
 1988W        W 5732   2.359   5.531   1.741  0.1038 -0.2970  0.4128
 1989W        W 5733   3.049   1.836   0.093 -0.0530  0.3313 -0.1241
 1990W        W 5734   9.283   4.456  11.940 -0.0384 -0.2457 -0.1999
 1991W        W 5735   2.632   9.693  11.716  0.0842 -0.1854 -0.1334
 1992W        W 5736   3.304   3.545   1.070 -0.2107 -0.4489  0.1904
 1993W        W 5737   5.796   2.506   4.251  0.0561 -0.1211  0.3093
 1994W        W 5738   0.634   3.291   4.026 -0.1754 -0.0102 -0.1266
 1995W        W 5739   4.950   8.909   9.448  0.2037  0.2002 -0.1735
 1996W        W 5740   1.476   8.227   2.780  0.2303  0.0970  0.1760
 1997W        W 5741   5.350   8.763   2.553 -0.0380  0.2752 -0.0685
 1998W        W 5742   5.119   6.966  11.283 -0.2002  0.2366  0.0897
 1999W        W 5743   9.477   0.867   2.095  0.1910  0.0792 -0.1397
 2000W        W 5744   4.017   9.856  10.776  0.1776 -0.0709  0.0232
 2001W        W 5745   8.511   8.886   0.367  0.0622  0.5969 -0.2064
 2002W        W 5746   8.934   3.561  11.014  0.2325 -0.2381  0.1686
 2003W        W 5747   3.653   0.015   0.814  0.2151 -0.0343  0.1729
 2004W        W 5748   1.873   6.347   2.449  0.0097 -0.2041 -0.2933
 2005W        W 5749   0.885   3.783   2.576  0.1332  0.0193 -0.3727
 2006W        W 5750   5.848   1.214   3.891  0.1644 -0.1019  0.0799
 2007W        W 5751   3.695   3.907  10.351 -0.1997  0.0711  0.2609
 2008W        W 5752   0.030   0.530   2.180 -0.1317 -0.1641  0.0283
 2009W        W 5753   7.438   3.019  11.165  0.0508 -0.0001 -0.1477
 2010W        W 5754   3.009   5.890   4.002 -0.1194 -0.0041 -0.2230
 2011W        W 5755   0.985   8.395  11.935  0.0144 -0.1634 -0.1057
 2012W        W 5756   6.263   3.387  10.698  0.0628  0.0222  0.3332
 2013W        W 5757   2.296   7.903   1.491 -0.0902  0.1562  0.1031
 2014W        W 5758   1.685   5.418   1.642 -0.0598  0.2278  0.2542
 2015W        W 5759   9.436   8.195   8.984  0.1944 -0.0760 -0.0382
 2016W        W 5760   5.554   4.116   2.141  0.2876  0.1970 -0.0648
 2017W        W 5761   7.213   7.314   0.139  0.0315  0.1290  0.0170
 2018W        W 5762   1.353   7.464   0.170  0.0372 -0.0666 -0.0364
 2019W        W 5763   2.089   2.901   8.169  0.2132 -0.0492  0.1433
 2020W        W 5764   8.386   8.600  10.291 -0.0585  0.0786  0.1545
 2021W        W 5765   8.825   7.003   2.606  0.0613  0.1272 -0.2921
 2022W        W 5766   0.830   2.422   9.318  0.0345 -0.0900  0.1365
 2023W        W 5767   5.966   9.056   1.774 -0.2670 -0.1409 -0.1184
 2024W        W 5768   5.410   0.454   2.598  0.1635 -0.0844 -0.2065
 2025W        W 5769   7.525   7.556   3.265 -0.0322  0.1467 -0.0154
 2026W        W 5770   7.899   7.204   3.166 -0.0936  0.1737 -0.4628
 2027W        W 5771   5.694   8.095  12.061 -0.2846 -0.2848  0.1736
 2028W        W 5772   2.827   9.357   3.233  0.1284  0.1033 -0.0143
 2029W        W 5773   7.865   4.659   0.544 -0.2636 -0.0611 -0.2843
 2030W        W 5774   3.298   0.841   9.284 -0.2303 -0.0008 -0.0606
 2031W        W 5775   4.457   1.760   0.983  0.2296  0.2456  0.4070
 2032W        W 5776   6.496   7.336   0.085 -0.1430 -0.1984 -0.0401
 2033W        W 5777   8.331   3.780   3.126  0.2434  0.1219 -0.5236
 2034W        W 5778   6.838   4.520  10.293 -0.0902  0.1084  0.0835
 2035W        W 5779   5.498   5.915  11.762 -0.0898  0.0426 -0.1319
 2036W        W 5780   9.401   1.604   0.080 -0.0966  0.3373  0.0370
 2037W        W 5781   7.400   9.134   1.302  0.4011  0.0141 -0.1726
 2038W        W 5782   5.847   1.408  12.191  0.1633 -0.0611 -0.0034
 2039W        W 5783   2.595   5.931  10.390 -0.0723 -0.1170 -0.2005
 2040W        W 5784   4.608   9.668   9.378  0.3282 -0.1476  0.0960
 2041W        W 5785   5.345   0.698  10.898 -0.0659  0.0886 -0.1529
 2042W        W 5786   6.117   5.896   9.013  0.0342 -0.1684  0.2183
 2043W        W 5787   3.689   5.078   0.311 -0.1370  0.1872 -0.1611
 2044W        W 5788   8.471   3.360  10.496 -0.4235  0.1925  0.0337
 2045W        W 5789   9.706   8.967  11.527  0.1189 -0.1606 -0.2756
 2046W        W 5790   6.400   1.983   0.310  0.1843  0.3418  0.0355
 2047W        W 5791   4.251   1.014   9.097  0.2689  0.0032  0.1857
 2048W        W 5792   9.175   7.659  11.436 -0.2797  0.0894 -0.0580
 2049W        W 5793   6.432   2.755   1.769  0.0885 -0.0393 -0.0612
 2050W        W 5794   8.796   1.816   1.817 -0.0416 -0.1195  0.2099
 2051W        W 5795   0.408   7.991   0.896  0.0573 -0.0434 -0.2320
 2052W        W 5796   2.721   6.500   8.987 -0.0563  0.0540  0.0569
 2053W        W 5797   1.446   4.981   9.548  0.3357  0.0861 -0.1907
 2054W        W 5798   0.914   4.047   0.320 -0.2855  0.1520 -0.0996
 2055W        W 5799   7.791   2.809   2.550 -0.2872  0.2328  0.0100
 2056W        W 5800   7.912   2.082  11.360  0.2148 -0.3973  0.2188
 2057W        W 5801   3.778   2.028  11.700 -0.1895  0.3372 -0.1696
 2058W        W 5802   1.256   6.135   3.170  0.2070 -0.1561  0.1763
 2059W        W 5803   5.503   8.861   0.191  0.1632 -0.1437  0.1897
 2060W        W 5804   7.721   5.447   2.866  0.4364  0.2750  0.0558
 2061W        W 5805   9.214   3.711   3.145  0.0357  0.1203  0.1467
 2062W        W 5806   6.728   8.345  10.053  0.2894 -0.0295 -0.0400
 2063W        W 5807   5.906   6.052  10.933  0.1463  0.4841 -0.0684
 2064W        W 5808   1.639   6.160   0.927 -0.2663 -0.1340  0.3718
 2065W        W 5809   9.664   7.004  10.195  0.2061  0.0421  0.0185
 2066W        W 5810   5.574   5.418   1.524  0.2003 -0.1973  0.0980
 2067W        W 5811   0.849   4.312   9.224 -0.0986 -0.0001  0.1251
 2068W        W 5812   4.644   6.110   2.634  0.0463  0.2048  0.1946
 2069W        W 5813   8.408   9.740   4.099 -0.0669 -0.1824 -0.2132
 2070W        W 5814   9.654   5.521  10.916  0.2502 -0.0058  0.1764
 2071W        W 5815   2.802   4.620   2.732 -0.1080  0.0396 -0.0756
 2072W        W 5816   4.076   9.584   3.556 -0.1197 -0.0573 -0.2749
 2073W        W 5817   8.010   9.490  11.734  0.1276  0.0318 -0.2889
 2074W        W 5818   4.822   7.250  10.916 -0.4276 -0.0847  0.0480
 2075W        W 5819   2.314   6.575   9.824 -0.1265 -0.0421  0.0742
 2076W        W 5820   1.658   2.754   1.106  0.0235  0.1074 -0.1133
 2077W        W 5821   4.371   9.012   8.783 -0.3957 -0.2291 -0.1954
 2078W        W 5822   5.290   2.696  12.515 -0.0485 -0.0108 -0.2502
 2079W        W 5823   9.374   8.138  11.286 -0.0318  0.1470  0.1230
 2080W        W 5824   9.493   7.214  11.604  0.0438  0.0215  0.3015
 2081W        W 5825   2.270   7.769   3.395  0.2528  0.0859 -0.1477
 2082W        W 5826   9.460   2.319   2.443 -0.0285 -0.0088  0.1497
 2083W        W 5827   0.544   5.309   0.011 -0.2569 -0.2430 -0.1289
 2084W        W 5828   4.130   8.663   0.259 -0.2769 -0.0205  0.1062
 2085W        W 5829   3.185   3.969   4.781 -0.0735 -0.2925  0.1847
 2086W        W 5830   6.420   5.771   1.187 -0.0626  0.0343  0.1990
 2087W        W 5831   2.256   0.057   3.263 -0.0030 -0.0784 -0.0179
 2088W        W 5832   8.632   2.032   9.199 -0.1017 -0.0686  0.0138
 2089W        W 5833   6.046   6.930   9.359  0.2507 -0.0302 -0.3255
 2090W        W 5834   7.661   3.454  10.504  0.3710 -0.0731  0.1985
 2091W        W 5835   1.925   9.103  12.272 -0.0009  0.0084  0.0184
 2092W        W 5836   5.412   7.874  11.338  0.2841  0.0653 -0.0318
 2093W        W 5837   6.934   8.039  12.283  0.0929 -0.5109 -0.0360
 2094W        W 5838   5.326   3.017   9.355  0.0706  0.0937  0.1424
 2095W        W 5839   2.190   0.052  11.266 -0.0240 -0.0128 -0.0067
 2096W        W 5840   3.464   3.176   3.202 -0.1621  0.2308 -0.1394
 2097W        W 5841   8.935   0.006  11.650  0.0217  0.1612  0.0622
 2098W        W 5842   4.512   0.771  12.049 -0.3041  0.1266 -0.3433
 2099W        W 5843   4.391   1.321  11.289  0.0348 -0.0662 -0.4223
 2100W        W 5844   1.191   0.174   1.117 -0.1648  0.1567 -0.1209
 2101W        W 5845   6.514   6.710  10.655  0.2047 -0.0012 -0.4174
 2102W        W 5846   3.843   7.580  10.269  0.2704  0.3031 -0.2208
 2103W        W 5847   5.571   6.539   1.643  0.0273 -0.3521 -0.0967
 2104W        W 5848   4.843   4.077   2.862 -0.3966 -0.0313 -0.1691
 2105W        W 5849   6.069   5.976   9.914 -0.0336 -0.2277  0.0164
 2106W        W 5850   2.399   0.187   2.322 -0.3476  0.1629 -0.2380
 2107W        W 5851   9.149   6.807  10.210 -0.0328  0.0198 -0.3949
 2108W        W 5852   1.236   9.105  12.662 -0.2640 -0.3487 -0.1208
 2109W        W 5853   6.288   3.619   3.875 -0.2341  0.4242  0.2526
 2110W        W 5854   7.894   0.571   1.725  0.0198  0.0281 -0.0028
 2111W        W 5855   0.566   1.914   0.620 -0.0761 -0.2851  0.0708
 2112W        W 5856   6.508   9.092   9.989 -0.2033 -0.0662  0.0319
 2113W        W 5857   4.517   6.915  10.089  0.1992  0.0087  0.2383
 2114W        W 5858   7.774   1.552   3.149  0.2337 -0.2539 -0.1830
 2115W        W 5859   6.536   3.184  12.543  0.1171 -0.3069  0.1439
 2116W        W 5860   2.621   8.450   3.173 -0.0207 -0.0268  0.1708
 2117W        W 5861   2.637   9.187   8.605 -0.3930 -0.1307  0.0636
 2118W        W 5862   6.302   4.641   0.567  0.0152  0.0320 -0.1181
 2119W        W 5863   1.286   2.342   9.597  0.1218  0.4160 -0.0728
 2120W        W 5864   2.286   8.800   2.676  0.2673  0.0215  0.3326
 2121W        W 5865   5.846   3.337   3.769  0.2504  0.0360  0.0289
 2122W        W 5866   7.956   0.927   0.776  0.1557 -0.5738  0.2666
 2123W        W 5867   5.489   0.738   4.582 -0.1672  0.2044 -0.2304
 2124W        W 5868   5.292   2.272   9.149  0.1470 -0.1051 -0.3769
 2125W        W 5869   8.001   9.157   0.042 -0.4817 -0.2177 -0.0047
 2126W        W 5870   6.927   2.879   3.011 -0.2371  0.1577  0.3178
 2127W        W 5871   3.478   8.503  10.321  0.1420  0.0360  0.0809
 2128W        W 5872   4.333   0.952   0.606 -0.2093  0.0158  0.0228
 2129W        W 5873   7.582   9.987  10.486  0.1684 -0.1426  0.1044
 2130W        W 5874   0.335   1.991   8.952  0.1461  0.3341 -0.2060
 2131W        W 5875   1.978   5.900  11.320  0.1163 -0.0571  0.0955
 2132W        W 5876   5.583   9.813  10.838  0.0175 -0.0655 -0.0396
 2133W        W 5877   3.355   8.550   3.366 -0.0245 -0.2136 -0.0811
 2134W        W 5878   4.756   8.855  11.440  0.2573  0.0061  0.2909
 2135W        W 5879   8.262   8.924  11.108  0.0033  0.0054 -0.1751
 2136W        W 5880   7.216   3.466   9.215  0.1506 -0.1695  0.0745
 2137W        W 5881   0.486   4.727   0.002  0.0924  0.0451  0.0179
 2138W        W 5882   5.046   3.310   3.404  0.0878 -0.1211  0.1346
 2139W        W 5883   2.766   8.855   4.172 -0.2515 -0.1099  0.0286
 2140W        W 5884   9.274   0.292   9.214 -0.1694  0.0601 -0.0646
 2141W        W 5885   0.315   7.246   0.632  0.2970  0.1178  0.3975
 2142W        W 5886   4.892   9.459   0.460  0.3361  0.0540  0.1247
 2143W        W 5887   2.364   9.597   0.333  0.2337  0.2045 -0.0849
 2144W        W 5888   3.773   5.001  10.872 -0.0575 -0.0321  0.5611
 2145W        W 5889   5.106   5.534   0.190  0.5054  0.2868 -0.0968
 2146W        W 5890   6.297   0.743  12.463 -0.1551 -0.1026 -0.1968
 2147W        W 5891   8.878   5.942  10.950 -0.3477  0.1961  0.0297
 2148W        W 5892   5.537   0.618   0.216 -0.1596  0.0526 -0.0746
 2149W        W 5893   2.852   1.045  10.949 -0.0254 -0.2661 -0.0788
 2150W        W 5894   1.263   4.757   9.169 -0.0477  0.1157  0.2753
 2151W        W 5895   1.876   6.796  11.257  0.3646  0.2706 -0.0944
 2152W        W 5896   1.839   9.043   8.757  0.2060  0.1078  0.1553
 2153W        W 5897   6.724   3.373   0.313  0.1285  0.2409 -0.1407
 2154W        W 5898   9.286   4.413  10.116 -0.0987  0.0095  0.0306
 2155W        W 5899   2.713   1.830  11.424 -0.0298  0.1164  0.0196
 2156W        W 5900   5.424   6.614  11.616 -0.0920  0.0073 -0.0585
 2157W        W 5901   0.903   9.130   2.577 -0.2205 -0.1229  0.2677
 2158W        W 5902   7.438   4.574   3.801 -0.0252 -0.0283  0.0336
 2159W        W 5903   4.318   4.838   2.320 -0.1565 -0.0100  0.1379
 2160W        W 5904   8.131   5.920   1.903  0.2532  0.0565  0.5511
 2161W        W 5905   1.877   2.965   1.539 -0.0797 -0.0524 -0.0605
 2162W        W 5906   4.943   2.580   1.119  0.1420  0.1573  0.2297
 2163W        W 5907   6.798   0.897  12.192 -0.2516  0.3069 -0.1316
 2164W        W 5908   5.483   6.716   0.133  0.1485  0.0752  0.2447
 2165W        W 5909   5.271   3.268  12.399  0.0124  0.1348 -0.4305
 2166W        W 5910   8.735   5.921   0.208  0.2422  0.2266 -0.2902
 2167W        W 5911   7.329   0.849   1.834  0.1024 -0.0784  0.0152
 2168W        W 5912   9.352   8.669   9.024  0.1509  0.2373  0.1672
 2169W        W 5913   3.044   2.888  11.425 -0.0093  0.2183 -0.1296
 2170W        W 5914   0.853   0.565  11.538 -0.0294 -0.0164 -0.0165
 2171W        W 5915   8.660   9.494   1.508 -0.1201  0.0619  0.2582
 2172W        W 5916   7.658   7.759  11.701 -0.3113  0.0575 -0.0679
 2173W        W 5917   3.791   0.246  10.309 -0.0362  0.0425 -0.2842
 2174W        W 5918   6.747   4.044   1.760  0.1709  0.0086  0.1583
 2175W        W 5919   1.933   0.289   1.464  0.0766 -0.1083 -0.0835
 2176W        W 5920   9.950   1.438   2.554 -0.1395 -0.0478 -0.1472
 2177W        W 5921   7.242   1.543   2.443  0.1524  0.0290 -0.0436
 2178W        W 5922   2.434   3.917   2.453  0.0213 -0.2695 -0.0754
 2179W        W 5923   7.430   6.475   2.752  0.1344  0.0649  0.1190
 2180W        W 5924   2.660   8.953   4.837 -0.1240  0.0962  0.0073
 2181W        W 5925   6.465   0.228   9.052 -0.2468  0.2635 -0.1157
 2182W        W 5926   1.275   1.739  10.262 -0.0323 -0.0335  0.0933
 2183W        W 5927   2.795   8.660   1.275  0.2282 -0.1025  0.3119
 2184W        W 5928   5.172   1.616   0.278 -0.1600 -0.4286 -0.1146
 2185W        W 5929   1.488   8.259  10.343 -0.0720 -0.1000  0.0769
 2186W        W 5930   0.115   4.058   3.653 -0.1612  0.3495  0.3203
 2187W        W 5931   1.291   6.643   2.458  0.0219  0.2654 -0.2654
 2188W        W 5932   1.717   0.627  10.344 -0.2942  0.2825 -0.1723
 2189W        W 5933   2.915   5.510  10.476  0.0031 -0.1874 -0.0635
 2190W        W 5934   2.493   8.488   8.515 -0.2005 -0.2714 -0.1762
 2191W        W 5935   3.077   1.501  11.198  0.0985 -0.1199  0.0768
 2192W        W 5936   5.306   7.110   0.886  0.1143 -0.1804  0.0066
 2193W        W 5937   7.783   1.397   1.047 -0.1759 -0.2702  0.1078
 2194W        W 5938   9.376   6.867   2.529  0.1866 -0.0960 -0.2935
 2195W        W 5939   4.895   9.381   9.621 -0.1334 -0.0487 -0.2865
 2196W        W 5940   6.468   4.276   0.890 -0.1934  0.2543  0.1468
 2197W        W 5941   7.435   0.172   9.616 -0.0780  0.1986 -0.0262
 2198W        W 5942   9.751   6.038   0.435  0.0813  0.1671 -0.0601
 2199W        W 5943   3.396   8.486   8.341  0.0688 -0.0718  0.0937
 2200W        W 5944   4.357   7.164   9.699  0.1348  0.2368  0.2547
 2201W        W 5945   3.944   8.544   0.749  0.2234 -0.2249 -0.0741
 2202W        W 5946   9.822   5.253   9.576  0.2168  0.0326  0.0390
 2203W        W 5947   7.421   7.584   1.215  0.1756 -0.0770  0.3335
 2204W        W 5948   1.153   8.951  10.385  0.1688 -0.0006  0.0353
 2205W        W 5949   2.021   5.043   0.373  0.0115 -0.4336  0.0962
 2206W        W 5950   6.407   1.577   3.284 -0.0938  0.4360 -0.1877
 2207W        W 5951   5.946   4.519   2.886  0.0730 -0.0150  0.0242
 2208W        W 5952   9.691   3.166  10.696  0.1317 -0.0950  0.0626
 2209W        W 5953   6.525   4.020  11.445  0.2333  0.1834  0.1646
 2210W        W 5954   2.190   8.742   0.174 -0.0820 -0.0962 -0.0050
 2211W        W 5955   0.276   5.812   0.741 -0.2588 -0.2051 -0.2133
 2212W        W 5956   1.588   2.542   2.380 -0.3309  0.2390 -0.0410
 2213W        W 5957   8.882   2.931   2.562 -0.1874 -0.1669  0.0551
 2214W        W 5958   6.746   0.706   0.047  0.2244  0.0611  0.0076
 2215W        W 5959   3.321   9.525   9.285  0.3446  0.0888 -0.1245
 2216W        W 5960   7.816   3.326  11.665 -0.0286 -0.0550  0.2825
 2217W        W 5961   3.747   9.768   1.293  0.0301  0.2754 -0.2236
 2218W        W 5962   5.462   2.252   0.007  0.1966 -0.1403  0.0065
 2219W        W 5963   3.843   6.802   0.811 -0.3692 -0.0164 -0.2007
 2220W        W 5964   2.227   5.128  11.980  0.0176  0.1001  0.0073
 2221W        W 5965   5.140   5.778   9.869  0.0590  0.4194  0.1262
 2222W        W 5966   8.875   9.503  11.732  0.0032 -0.1126 -0.1022
 2223W        W 5967   1.391   7.434   0.905 -0.0011 -0.2381 -0.3516
 2224W        W 5968   5.925   0.613   2.452 -0.1205 -0.0335 -0.0098
 2225W        W 5969   8.996   1.076   9.039  0.0200 -0.0681 -0.0066
 2226W        W 5970   6.867   6.895  11.494  0.0789 -0.0049 -0.1944
 2227W        W 5971   9.884   0.396   9.171 -0.3906  0.0436 -0.1768
 2228W        W 5972   7.269   1.539   8.282 -0.0743  0.0123 -0.2247
 2229W        W 5973   4.857   6.811   2.165  0.1008 -0.1091 -0.0102
 2230W        W 5974   6.178   9.535   4.584  0.0441 -0.1331 -0.1369
 2231W        W 5975   7.358   4.780   1.901 -0.1020  0.0129  0.0759
 2232W        W 5976   5.011   7.662  11.833  0.0307  0.3688  0.0172
 2233W        W 5977   5.694   7.134   1.227  0.2766  0.1844 -0.1870
 2234W        W 5978   0.798   9.128   1.530 -0.0355  0.1076 -0.2073
 2235W        W 5979   2.514   5.944  11.448 -0.0601  0.3286  0.0041
 2236W        W 5980   1.944   3.315  11.176  0.0728  0.0159  0.0676
 2237W        W 5981   3.293   0.517   3.056 -0.1146 -0.1570  0.1018
 2238W        W 5982   1.975   4.140   9.852 -0.3609  0.2271 -0.3096
 2239W        W 5983   3.265   4.517   0.925 -0.3966 -0.0529  0.1106
 2240W        W 5984   7.047   6.204   2.459 -0.0739 -0.1370  0.1437
 2241W        W 5985   1.955   5.652   9.942 -0.2000 -0.2071  0.1733
 2242W        W 5986   3.422   0.075  10.808 -0.2558  0.1935 -0.4312
 2243W        W 5987   3.264   8.836   3.757  0.0164 -0.0149  0.3553
 2244W        W 5988   0.570   4.119   1.017  0.0041 -0.0382  0.1986
 2245W        W 5989   6.338   8.318   0.050 -0.0062  0.0089  0.2434
 2246W        W 5990   3.094   5.359   9.960 -0.0505 -0.0033  0.2238
 2247W        W 5991   4.726   0.185  12.583 -0.4407 -0.2407 -0.2205
 2248W        W 5992   4.121   6.260   2.706  0.1525  0.2426  0.1371
 2249W        W 5993   1.952   5.139   1.928  0.3031  0.0228  0.0047
 2250W        W 5994   1.595   4.577   1.679  0.3826 -0.0314 -0.4413
 2251W        W 5995   7.496   2.278   3.932 -0.4250 -0.1664 -0.0239
 2252W        W 5996   5.194   6.736  12.111 -0.0313 -0.2558 -0.2750
 2253W        W 5997   8.467   6.442   0.347  0.2567  0.2518 -0.0597
 2254W        W 5998   2.278   4.390   5.131 -0.3065  0.2586  0.3468
 2255W        W 5999   3.715   2.785   3.621  0.2199 -0.4228  0.1570
 2256W        W 6000   3.525   1.705   9.220  0.2803  0.4497  0.0092
 2257W        W 6001   9.579   2.358   2.913  0.0590  0.1462  0.1167
 2258W        W 6002   5.143   8.436   0.179  0.3677 -0.1000  0.1733
 2259W        W 6003   5.232   5.725  12.435  0.3268  0.1315  0.0894
 2260W        W 6004   6.252   3.901  10.050  0.3136 -0.0949  0.2409
 2261W        W 6005   8.228   1.297   2.993  0.0207  0.2224 -0.2123
 2262W        W 6006   8.208   4.243   0.329 -0.2055 -0.2785  0.0865
 2263W        W 6007   4.876   1.046   3.975 -0.2127 -0.0136 -0.4785
 2264W        W 6008   2.815   5.941   2.929 -0.2656 -0.1320 -0.2091
 2265W        W 6009   4.143   5.561   0.450 -0.0164  0.0270 -0.0763
 2266W        W 6010   1.891   0.830   1.239 -0.0309 -0.2150 -0.1915
 2267W        W 6011   4.090   4.283  11.177 -0.2896 -0.1405  0.2049
 2268W        W 6012   2.006   7.758  11.717  0.1028 -0.0170 -0.0639
 2269W        W 6013   6.288   2.849  10.784 -0.1609 -0.0089  0.0938
 2270W        W 6014   0.373   1.615  11.417  0.2521  0.3402  0.0263
 2271W        W 6015   4.332   6.160   4.186 -0.3363 -0.2266 -0.3126
 2272W        W 6016   3.538   3.854   8.953  0.0412 -0.1934 -0.1676
 2273W        W 6017   9.718   8.293  12.076  0.2437  0.0530 -0.3227
 2274W        W 6018   6.203   4.973   3.311  0.2193 -0.2888 -0.2886
 2275W        W 6019   1.351   0.614   9.423  0.1406  0.1567 -0.1685
 2276W        W 6020   4.692   3.741   3.256 -0.3990 -0.2821  0.2071
 2277W        W 6021   0.525   9.827   0.859  0.1132 -0.1662 -0.0827
 2278W        W 6022   1.990   4.999  11.502  0.0603 -0.1024 -0.1109
 2279W        W 6023   9.702   9.668   1.368 -0.4167  0.0652 -0.2544
 2280W        W 6024   8.527   0.548  10.164  0.1551 -0.0057 -0.2254
 2281W        W 6025   7.038   0.025   9.843  0.1422 -0.0079  0.1717
 2282W        W 6026   9.318   3.675   2.646  0.3048 -0.1108 -0.1637
 2283W        W 6027   3.599   1.643   4.339  0.2699  0.0314 -0.1885
 2284W        W 6028   6.694   9.245  12.375 -0.1538 -0.0010  0.0751
 2285W        W 6029   3.025   8.056  11.055  0.2262  0.1551  0.0479
 2286W        W 6030   3.726   6.118  11.906  0.0880  0.0943  0.3419
 2287W        W 6031   1.166   9.726   0.904 -0.2451 -0.3108  0.1893
 2288W        W 6032   9.503   1.417   2.899  0.0245  0.2219  0.1431
 2289W        W 6033   7.458   9.049   2.048 -0.1427  0.1696  0.2618
 2290W        W 6034   4.012   4.878   9.812 -0.0454  0.1388  0.2301
 2291W        W 6035   3.708   7.188  10.615  0.1826 -0.0326  0.0985
 2292W        W 6036   5.364   0.275   8.535 -0.0095  0.1337  0.0521
 2293W        W 6037   8.222   9.428   2.818  0.2381 -0.1966 -0.1082
 2294W        W 6038   8.351   4.682   1.231 -0.2322  0.2309  0.0339
 2295W        W 6039   7.825   8.127   1.360  0.0419 -0.1621  0.2730
 2296W        W 6040   2.458   1.219  10.604 -0.1934  0.1415  0.0311
 2297W        W 6041   9.247   7.434   2.783  0.3653  0.0312 -0.1078
 2298W        W 6042   3.128   5.689   0.595 -0.2168 -0.2981 -0.4461
 2299W        W 6043   3.529   1.169   2.411 -0.1342  0.1638  0.3079
 2300W        W 6044   0.481   4.142  11.460 -0.1371 -0.0111 -0.1871
 2301W        W 6045   6.849   0.159   0.168 -0.0594 -0.2105  0.2411
 2302W        W 6046   0.657   1.097  10.820  0.1412  0.1694 -0.0379
 2303W        W 6047   0.513   8.898   0.337  0.0780 -0.1746 -0.1177
 2304W        W 6048   9.630   2.376  11.225  0.3568  0.1094  0.2358
 2305W        W 6049   9.755   5.933  12.514 -0.0849  0.2144  0.1840
 2306W        W 6050   9.717   6.049   2.774  0.0873  0.0889  0.4426
 2307W        W 6051   5.247   8.857   1.114 -0.3103 -0.4156  0.2121
 2308W        W 6052   3.680   0.240   4.173 -0.4578 -0.0793  0.3325
 2309W        W 6053   0.709   7.067   9.525  0.2563 -0.0494  0.1243
 2310W        W 6054   3.028   1.379   9.345  0.0573 -0.3688  0.0533
 2311W        W 6055   3.143   9.216   0.728 -0.1740 -0.0364  0.0156
 2312W        W 6056   1.253   9.758   1.745 -0.0812 -0.1188  0.1852
 2313W        W 6057   3.522   5.906   1.927  0.0712 -0.1408 -0.1414
 2314W        W 6058   9.202   2.080   5.022  0.1779  0.1074  0.3890
 2315W        W 6059   3.105   3.144  10.779 -0.1803  0.3064 -0.0660
 2316W        W 6060   5.031   9.536   8.847  0.0835 -0.0347  0.0587
 2317W        W 6061   3.525   8.841   2.910  0.0579  0.1315 -0.2594
 2318W        W 6062   5.672   6.467  12.026  0.2436 -0.1770 -0.0875
 2319W        W 6063   6.089   9.737  10.747 -0.0191  0.2509 -0.0714
 2320W        W 6064   8.753   8.434   2.287 -0.3068 -0.1100 -0.3765
 2321W        W 6065   0.305   9.042   2.217  0.2781 -0.1093  0.0983
 2322W        W 6066   9.058   5.496   1.404 -0.0949 -0.2262  0.0005
 2323W        W 6067   1.014   1.737   0.331  0.2547  0.2849 -0.1310
 2324W        W 6068   8.977   6.800  12.479 -0.0402  0.2008 -0.0946
 2325W        W 6069   2.774   8.482   5.097  0.1257  0.0314  0.1087
 2326W        W 6070   4.747   9.269  11.826  0.2943 -0.3899  0.4515
 2327W        W 6071   1.167   6.937  10.835 -0.0595  0.0826  0.3708
 2328W        W 6072   5.020   6.529   2.616 -0.2805  0.0422 -0.0614
 2329W        W 6073   3.273   2.247   2.992  0.1916 -0.1144 -0.0778
 2330W        W 6074   3.128   4.481  10.244  0.0860  0.1786  0.1881
 2331W        W 6075   6.134   0.870   0.774 -0.0954  0.1829  0.0572
 2332W        W 6076   0.064   6.832   1.241  0.0592 -0.0236 -0.1186
 2333W        W 6077   7.262   5.387  10.289 -0.0903  0.3814 -0.3635
 2334W        W 6078   4.576   6.477   0.164 -0.2404 -0.1187  0.0097
 2335W        W 6079   7.933   0.118   1.996  0.1305  0.2329  0.0697
 2336W        W 6080   8.489   3.293   9.114  0.1025  0.0538 -0.1444
 2337W        W 6081   7.817   9.285   3.441 -0.2796  0.3348  0.0220
 2338W        W 6082   5.672   5.732   4.242  0.0462 -0.2183 -0.2457
 2339W        W 6083   4.436   3.546   2.855 -0.2254  0.1903 -0.1996
 2340W        W 6084   8.941   3.585  12.360  0.0417  0.0109  0.1854
 2341W        W 6085   0.449   5.458   1.967  0.0190 -0.0443 -0.1548
 2342W        W 6086   6.582   4.611   3.596 -0.1358  0.2904 -0.1935
 2343W        W 6087   9.834   0.585   1.022 -0.2828 -0.0114  0.0911
 2344W        W 6088   4.254   7.744   8.769 -0.2382 -0.0925  0.0808
 2345W        W 6089   5.534   6.771   9.356  0.0251 -0.4242  0.1216
 2346W        W 6090   2.290   0.547  11.494 -0.2850  0.0104  0.0417
 2347W        W 6091   2.330   9.977  12.320  0.1791  0.0672 -0.5632
 2348W        W 6092   7.493   2.959  11.665 -0.2314  0.0428  0.2529
 2349W        W 6093   9.899   1.623   7.950 -0.0072  0.0795  0.3341
 2350W        W 6094   5.042   8.800  11.024  0.0062 -0.2476  0.2697
 2351W        W 6095   4.461   0.168  12.104 -0.2049  0.0238  0.2494
 2352W        W 6096   9.811   6.151   4.139 -0.1342  0.0240  0.1168
 2353W        W 6097   6.313   3.350   1.070  0.2667  0.0136 -0.2944
 2354W        W 6098   2.557   6.055   9.231  0.0182 -0.2109  0.1207
 2355W        W 6099   0.894   8.032   0.655  0.0286  0.0964 -0.3603
 2356W        W 6100   5.076   8.799   3.566 -0.0193 -0.2339  0.0464
 2357W        W 6101   1.961   0.447  10.845 -0.0410  0.1050 -0.2145
 2358W        W 6102   7.865   8.104   2.740 -0.0922  0.1938 -0.1691
 2359W        W 6103   5.744   9.990   2.747 -0.0279 -0.0254  0.1104
 2360W        W 6104   5.289   3.666   0.140  0.2229 -0.3535  0.0108
 2361W        W 6105   2.756   0.591  11.125  0.4912  0.3384 -0.0815
 2362W        W 6106   8.062   1.541   0.595  0.0041 -0.1215  0.1070
 2363W        W 6107   4.272   4.726  11.040 -0.1824 -0.1898 -0.0449
 2364W        W 6108   1.608   9.470   0.060 -0.1857 -0.3248 -0.1411
 2365W        W 6109   3.442   4.612   8.088  0.1753  0.2228  0.2178
 2366W        W 6110   7.312   5.774   2.711 -0.1823  0.2629  0.0389
 2367W        W 6111   2.695   6.988  12.468  0.0536 -0.2587  0.3787
 2368W        W 6112   5.856   7.456  11.280  0.2151 -0.5362  0.0617
 2369W        W 6113   8.436   1.037  12.670  0.1271  0.2250 -0.2052
 2370W        W 6114   7.817   2.073  10.614  0.0297 -0.0250  0.1622
 2371W        W 6115   4.490   9.707  10.333  0.0127  0.3001  0.1890
 2372W        W 6116   6.455   9.065   0.954  0.0609  0.1410  0.1175
 2373W        W 6117   7.030   2.135   4.098  0.1063  0.1482 -0.1368
 2374W        W 6118   8.524   5.629   1.371  0.0368  0.4086  0.0092
 2375W        W 6119   9.226   0.378   3.278 -0.2371  0.2691 -0.3067
 2376W        W 6120   0.243   0.250  10.444 -0.3752 -0.1027  0.2158
 2377W        W 6121   9.604   0.343   1.958 -0.0856 -0.3548  0.1075
 2378W        W 6122   7.363   3.143   9.637 -0.1347 -0.2295 -0.0859
 2379W        W 6123   7.571   1.618  11.463  0.0247  0.0623  0.2017
 2380W        W 6124   8.181   4.707   0.143  0.0711 -0.0291  0.1297
 2381W        W 6125   7.489   4.703   9.512  0.2030 -0.0412 -0.0989
 2382W        W 6126   6.628   8.152   9.135  0.1231  0.3577 -0.2209
 2383W        W 6127   0.999   1.766   4.771 -0.2081  0.3472  0.0957
 2384W        W 6128   7.797   1.928  11.878  0.1592 -0.0489 -0.1201
 2385W        W 6129   9.454   5.121  11.375 -0.0320  0.0877 -0.0029
 2386W        W 6130   5.454   5.386  10.750 -0.0840 -0.1144 -0.0016
 2387W        W 6131   0.836   0.288   1.553 -0.4355 -0.0390 -0.0190
 2388W        W 6132   7.296   0.237  10.899 -0.2460 -0.1803  0.1159
 2389W        W 6133   4.884   6.925   2.895  0.0592 -0.4592  0.1017
 2390W        W 6134   7.428   7.447   9.988 -0.3898 -0.0129  0.2903
 2391W        W 6135   8.849   2.637   9.418  0.0003  0.2065 -0.2098
 2392W        W 6136   3.260   8.323   4.905  0.0413 -0.1465  0.0782
 2393W        W 6137   9.141   4.524  11.042 -0.1148 -0.1352 -0.3692
 2394W        W 6138   6.860   6.349  10.732  0.1152  0.2156  0.3291
 2395W        W 6139   7.838   7.230  11.717 -0.0346  0.0676  0.0310
 2396W        W 6140   4.142   2.889   0.174 -0.1002 -0.3654  0.1272
 2397W        W 6141   0.158   6.216  12.620  0.1463  0.1921  0.0262
 2398W        W 6142   4.767   6.764   4.102 -0.0815 -0.3655  0.0844
 2399W        W 6143   4.711   1.809   2.498 -0.1686  0.1768 -0.0212
 2400W        W 6144   6.888   3.422   2.622  0.0125  0.2109  0.0324
 2401W        W 6145   7.384   4.974   8.935  0.2107 -0.2453  0.0438
 2402W        W 6146   8.013   7.685   2.485 -0.1867  0.0052 -0.2363
 2403W        W 6147   0.465   4.247   0.176 -0.1773 -0.1613 -0.1118
 2404W        W 6148   1.566   0.224  12.085 -0.3231  0.2609 -0.2603
 2405W        W 6149   6.318   7.908   9.526 -0.0236  0.2750 -0.1736
 2406W        W 6150   5.113   3.313   1.031 -0.0329  0.0228 -0.1571
 2407W        W 6151   8.130   1.298  10.635 -0.0829 -0.2229  0.0745
 2408W        W 6152   9.565   0.746   9.321  0.0538 -0.0130  0.0118
 2409W        W 6153   7.821   4.526  11.882  0.0138 -0.1683 -0.0080
 2410W        W 6154   4.249   6.048  11.294 -0.0270 -0.3090 -0.1482
 2411W        W 6155   8.500   7.608  12.365 -0.2283  0.2911  0.0229
 2412W        W 6156   2.021   0.656   9.476  0.2168 -0.1165  0.3812
 2413W        W 6157   9.113   3.159   1.515 -0.0477 -0.0628 -0.0496
 2414W        W 6158   5.063   0.303   0.340 -0.2274 -0.0275  0.1865
 2415W        W 6159   0.150   4.833   9.826 -0.3820 -0.2609  0.0663
 2416W        W 6160   9.655   7.684  11.300  0.0593 -0.3818 -0.2280
 2417W        W 6161   3.218   6.430   9.222  0.0472  0.4952 -0.1627
 2418W        W 6162   4.796   2.860  12.554 -0.1672 -0.3147  0.3496
 2419W        W 6163   3.629   7.319  11.619 -0.2354 -0.2724 -0.0781
 2420W        W 6164   5.399   4.524  12.377 -0.0757 -0.0453  0.0480
 2421W        W 6165   7.228   9.178  10.693  0.1554  0.2569  0.1974
 2422W        W 6166   5.968   3.162   0.792 -0.2363 -0.2342 -0.1570
 2423W        W 6167   4.542   8.802   1.581  0.1301 -0.0602 -0.5055
 2424W        W 6168   5.725   8.953  10.089  0.1207  0.1255 -0.1296
 2425W        W 6169   1.094   9.281   3.471 -0.2545  0.0342  0.1137
 2426W        W 6170   8.033   9.560  10.261  0.2568 -0.0816 -0.1990
 2427W        W 6171   8.717   1.943  10.293 -0.0478 -0.2736  0.0191
 2428W        W 6172   0.198   5.651  11.328  0.1655 -0.3242  0.0721
 2429W        W 6173   7.415   1.729   4.767 -0.1177 -0.1073 -0.2161
 2430W        W 6174   3.624   8.888  12.307  0.0759 -0.2278  0.2795
 2431W        W 6175   6.987   5.000  10.340 -0.2836 -0.0225 -0.0785
 2432W        W 6176   7.914   2.615   2.010  0.0084  0.0164 -0.1143
 2433W        W 6177   9.629   4.494   2.367  0.2675  0.0237  0.0372
 2434W        W 6178   9.057   3.626   9.731 -0.2596 -0.3033  0.1831
 2435W        W 6179   8.996   1.302   2.787 -0.3106  0.2933  0.3071
 2436W        W 6180   3.764   9.806   9.208 -0.2119  0.0545  0.0440
 2437W        W 6181   3.696   4.641  11.198 -0.2600  0.0176 -0.0656
 2438W        W 6182   4.648   0.082   1.250  0.3998 -0.0423  0.1424
 2439W        W 6183   4.820   3.839   7.839 -0.0767 -0.0932  0.0841
 2440W        W 6184   0.982   2.355   0.642  0.0154  0.1251 -0.0927
 2441W        W 6185   9.374   9.158   1.583  0.0111 -0.2449 -0.0549
 2442W        W 6186   4.062   4.962  12.052 -0.2685  0.0034  0.0714
 2443W        W 6187   7.216   9.820   8.734  0.1346  0.3150 -0.0168
 2444W        W 6188   7.867   1.696  10.254  0.0662 -0.1941 -0.1671
 2445W        W 6189   1.121   2.300  11.727 -0.1617  0.1694 -0.3572
 2446W        W 6190   5.089   5.536   2.531 -0.0008 -0.0278  0.0253
 2447W        W 6191   3.239   0.025   1.135 -0.0252 -0.0302  0.0323
 2448W        W 6192   0.378   2.709   2.023 -0.0804 -0.1698 -0.2578
 2449W        W 6193   3.186   6.494  11.218  0.0301 -0.0114 -0.1016
 2450W        W 6194   2.786   5.370   2.589  0.4959 -0.0011 -0.2397
 2451W        W 6195   6.786   7.597   9.448  0.1093 -0.0535  0.1887
 2452W        W 6196   5.707   2.567   2.133 -0.0432 -0.4621  0.1746
 2453W        W 6197   7.646   0.392   4.463 -0.3783  0.2525  0.0164
 2454W        W 6198   1.255   8.764   9.489 -0.1241  0.1217 -0.2313
 2455W        W 6199   7.902   3.127   2.914  0.0278  0.1795 -0.1245
 2456W        W 6200   9.827   5.598  10.496 -0.3520  0.1541  0.4878
 2457W        W 6201   4.887   4.486   3.921 -0.1072 -0.2618 -0.0118
 2458W        W 6202   4.564   2.368  12.314  0.0623 -0.2322  0.1882
 2459W        W 6203   3.884   8.624  11.390 -0.0931 -0.0718  0.2447
 2460W        W 6204   7.486   0.638  11.079  0.0388 -0.3211  0.1334
 2461W        W 6205   4.760   6.522   8.749  0.1341  0.0531  0.1229
 2462W        W 6206   9.545   6.335   2.372  0.0990  0.0118  0.3670
 2463W        W 6207   0.234   6.974   9.435  0.1371 -0.2221 -0.0914
 2464W        W 6208   8.144   2.876   0.372 -0.1417  0.2457  0.1687
 2465W        W 6209   9.813   3.260   3.150 -0.0762  0.2125  0.1539
 2466W        W 6210   9.211   2.667   1.603 -0.1623  0.0822 -0.2666
 2467W        W 6211   5.272   6.208   2.954 -0.1968 -0.1547 -0.0217
 2468W        W 6212   2.367   9.824   8.248  0.0449 -0.0930 -0.1429
 2469W        W 6213   9.745   7.008   2.199  0.1798  0.0501  0.1020
 2470W        W 6214   5.693   0.930   0.558 -0.1466 -0.1773  0.1977
 2471W        W 6215   7.690   1.247   8.532  0.2644  0.1825 -0.1846
 2472W        W 6216   7.980   6.957   0.874  0.1439  0.1162  0.2297
 2473W        W 6217   3.519   1.691   8.644  0.2696 -0.0797  0.0002
 2474W        W 6218   8.814   1.821   4.232 -0.0985 -0.0907  0.2974
 2475W        W 6219   1.686   3.583   9.150  0.1075  0.0491 -0.1109
 2476W        W 6220   4.643   1.952   0.499 -0.2446  0.0196 -0.0593
 2477W        W 6221   3.409   2.405  11.585 -0.1167 -0.0489  0.1997
 2478W        W 6222   4.139   3.908   3.047 -0.0627 -0.0920  0.1223
 2479W        W 6223   4.180   8.105  12.048  0.2141 -0.2866  0.1704
 2480W        W 6224   1.350   5.243  11.798 -0.2195 -0.1947 -0.3403
 2481W        W 6225   5.342   7.444   2.058  0.0550  0.0303  0.0482
 2482W        W 6226   8.909   5.571   3.141 -0.3286  0.0551  0.0473
 2483W        W 6227   4.498   3.690  10.630 -0.1027 -0.0653 -0.3301
 2484W        W 6228   6.374   0.216  12.566  0.3377 -0.1279  0.0693
 2485W        W 6229   3.193   0.433   8.959 -0.2664 -0.1102 -0.1331
 2486W        W 6230   3.210   3.563   3.981  0.3595  0.1329  0.0395
 2487W        W 6231   0.652   4.272   1.939  0.6232  0.1839  0.3337
 2488W        W 6232   9.908   3.787   9.538  0.2266  0.0600 -0.1586
 2489W        W 6233   7.007   1.034   1.151 -0.0611 -0.0736 -0.0027
 2490W        W 6234   5.162   3.014  11.475 -0.0530 -0.0719 -0.4914
 2491W        W 6235   6.524   0.899   2.668  0.0306 -0.3082 -0.2257
 2492W        W 6236   5.906   6.404  10.154  0.2417  0.0441 -0.1928
 2493W        W 6237   9.491   0.496   0.563 -0.0608  0.3499 -0.2385
 2494W        W 6238   9.307   9.727   4.292 -0.0395  0.0489  0.0074
 2495W        W 6239   2.745   8.839  10.668  0.0350 -0.2220 -0.0272
 2496W        W 6240   1.058   3.468  10.897  0.1950  0.1585  0.2654
 2497W        W 6241   5.893   8.928   3.412  0.5179 -0.2049  0.1273
 2498W        W 6242   1.390   2.179  10.555 -0.2456  0.0689  0.2792
 2499W        W 6243   2.228   5.020   4.473 -0.3768  0.1399  0.0367
 2500W        W 6244   2.181   5.962   1.010  0.3154  0.1044 -0.3895
 2501W        W 6245   7.867   0.386   9.768  0.0215  0.0265  0.0872
 2502W        W 6246   7.350   8.648   9.177  0.1391 -0.0616 -0.0109
 2503W        W 6247   9.869   7.168  11.195 -0.1827 -0.2242 -0.1254
 2504W        W 6248   7.953   2.595  10.844  0.3156 -0.0340  0.4762
 2505W        W 6249   4.980   9.164   1.404 -0.3638  0.2010  0.2292
 2506W        W 6250   3.912   9.027  10.644  0.0691 -0.0854  0.0658
 2507W        W 6251   6.538   8.355  12.143 -0.2566  0.2806 -0.1637
 2508W        W 6252   6.602   3.119   8.979  0.2066 -0.1466  0.1475
 2509W        W 6253   1.353   8.609  11.741 -0.1321  0.2547  0.2377
 2510W        W 6254   0.962   5.004  10.930 -0.1355  0.0057 -0.1170
 2511W        W 6255   4.426   8.357   1.372  0.2167 -0.1772 -0.1088
 2512W        W 6256   0.240   9.471  12.066  0.0148  0.1057 -0.1283
 2513W        W 6257   1.717   1.077  12.008  0.0511  0.4023 -0.0399
 2514W        W 6258   2.594   8.234   0.224 -0.1029  0.0035  0.1673
 2515W        W 6259   3.542   6.379  12.298 -0.0948 -0.1236 -0.3473
 2516W        W 6260   7.829   5.582  11.613 -0.2902 -0.2035  0.0473
 2517W        W 6261   1.750   6.453   9.200  0.0329  0.0379 -0.0072
 2518W        W 6262   7.851   6.125  10.380  0.0004 -0.0709 -0.2131
 2519W        W 6263   4.287   9.550  11.716  0.1466  0.1684  0.1006
 2520W        W 6264   8.823   2.226  11.027  0.0950  0.4088  0.0923
 2521W        W 6265   6.717   9.305   2.108  0.1826 -0.1402 -0.4225
 2522W        W 6266   2.446   5.145  11.111  0.2998 -0.1157 -0.3760
 2523W        W 6267   2.477   8.062  10.494  0.1586  0.1078  0.2215
 2524W        W 6268   3.164   1.781   3.954 -0.4166  0.0984  0.0127
 2525W        W 6269   1.729   3.845  12.521 -0.1035  0.0837 -0.0095
 2526W        W 6270   8.570   1.574   9.648  0.0463 -0.1792  0.0850
 2527W        W 6271   5.148   8.953   7.909  0.1625 -0.0815 -0.2648
 2528W        W 6272   7.611   5.049   0.678  0.2536  0.2260 -0.3831
 2529W        W 6273   3.680   0.842  11.567 -0.0160  0.0974 -0.3124
 2530W        W 6274   4.276   5.560  11.295 -0.1890 -0.0070  0.2654
 2531W        W 6275   3.854   1.512   2.627  0.0664  0.0260  0.0594
 2532W        W 6276   1.977   2.709   4.187 -0.1344 -0.1504 -0.1723
 2533W        W 6277   3.146   7.354   8.458 -0.1421  0.3037 -0.1240
 2534W        W 6278   1.321   1.469   1.110  0.0210 -0.0742 -0.1448
 2535W        W 6279   3.320   3.091   3.794  0.0922  0.2293 -0.0661
 2536W        W 6280   1.328   6.368  11.910 -0.1678 -0.0713  0.3837
 2537W        W 6281   0.666   8.972   7.791 -0.2204  0.0928 -0.0205
 2538W        W 6282   0.678   0.315  10.854  0.0962  0.0482  0.0751
 2539W        W 6283   2.933   2.228   1.544  0.3883  0.1416  0.0321
 2540W        W 6284   3.721   2.434  12.535 -0.2862 -0.1445  0.0968
 2541W        W 6285   1.233   0.339  12.454 -0.1469 -0.0591  0.0517
 2542W        W 6286   6.043   9.649   1.048  0.0552 -0.0240 -0.2580
 2543W        W 6287   1.972   1.280   8.749  0.0321 -0.0397  0.1511
 2544W        W 6288   7.515   0.790   1.312  0.0003 -0.1323 -0.2858
 2545W        W 6289   2.518   7.492  11.565  0.4133 -0.1936 -0.1063
 2546W        W 6290   7.894   2.163   1.447  0.1966  0.0381 -0.1386
 2547W        W 6291   4.646   5.323   1.173 -0.3369  0.2880 -0.0724
 2548W        W 6292   8.821   5.011   2.844  0.4100  0.1833 -0.2907
 2549W        W 6293   2.871   1.468   8.797 -0.1522 -0.0159 -0.3535
 2550W        W 6294   6.993   9.378  11.093  0.1030  0.4372 -0.3016
 2551W        W 6295   0.039   6.782   9.913  0.0848 -0.2693  0.2499
 2552W        W 6296   1.483   4.543   3.669 -0.5002 -0.0444 -0.0286
 2553W        W 6297   4.722   9.273   1.854 -0.3511 -0.1325  0.0308
 2554W        W 6298   4.527   0.776   4.217  0.2884 -0.0060  0.1536
 2555W        W 6299   3.302   5.829   0.165 -0.2691 -0.0379 -0.0188
 2556W        W 6300   5.599   0.313   1.709 -0.2834 -0.0211  0.2003
 2557W        W 6301   3.769   1.990   2.445 -0.1136 -0.2110 -0.3774
 2558W        W 6302   7.418   8.334   2.611 -0.0127 -0.0946 -0.1729
 2559W        W 6303   4.256   9.852  11.274 -0.0921  0.1636 -0.3176
 2560W        W 6304   0.018   4.210   0.115 -0.0717 -0.2545 -0.1493
 2561W        W 6305   5.293   7.066   9.842  0.1728 -0.1558  0.0140
 2562W        W 6306   7.162   9.955  12.223  0.1860 -0.4028  0.0744
 2563W        W 6307   0.074   3.923  10.029  0.2870 -0.0073  0.1542
 2564W        W 6308   8.946   6.363   0.163  0.3144  0.2416 -0.1798
 2565W        W 6309   5.654   5.526  12.608  0.2058 -0.1072 -0.2230
 2566W        W 6310   1.991   2.404  12.220 -0.1145  0.4541  0.1166
 2567W        W 6311   6.414   2.158   3.527 -0.0794  0.1720  0.0124
 2568W        W 6312   4.958   5.317   3.531 -0.2433  0.3613  0.1507
 2569W        W 6313   0.331   8.672   3.269  0.1063 -0.2452 -0.2270
 2570W        W 6314   3.583   1.846  10.415 -0.1608  0.0534 -0.2960
 2571W        W 6315   5.880   7.451   1.880  0.1081 -0.0144  0.4149
 2572W        W 6316   4.521   2.058   9.977  0.1042  0.4084  0.0643
 2573W        W 6317   9.772   0.314   4.437  0.1443 -0.1376 -0.3298
 2574W        W 6318   6.039   1.081   2.467 -0.0178 -0.1656  0.2358
 2575W        W 6319   5.889   9.425   8.624  0.1759  0.2252 -0.0021
 2576W        W 6320   6.309   9.941   1.307 -0.2526  0.0101 -0.0048
 2577W        W 6321   5.037   1.004   2.752 -0.0397 -0.0890  0.0879
 2578W        W 6322   9.590   2.726  12.450  0.0950  0.0343  0.0286
 2579W        W 6323   1.703   1.566   1.538  0.2662  0.0488  0.0186
 2580W        W 6324   7.570   4.865  12.121 -0.1584 -0.0370  0.0666
 2581W        W 6325   3.206   1.368   8.385 -0.3532  0.0419  0.2806
 2582W        W 6326   6.366   3.638  11.822 -0.2121 -0.2253 -0.0388
 2583W        W 6327   7.929   2.522   0.090 -0.3076 -0.1672  0.0235
 2584W        W 6328   2.309   7.803   8.718  0.0238  0.2728 -0.0607
 2585W        W 6329   4.952   8.264   3.399  0.0565  0.3327  0.0635
 2586W        W 6330   5.738   9.485  10.096  0.1088  0.0977  0.1328
 2587W        W 6331   3.382   0.035   0.353  0.2416 -0.0216 -0.1494
 2588W        W 6332   9.633   7.723  10.630 -0.3694 -0.0071 -0.1138
 2589W        W 6333   7.056   5.240  11.308 -0.2575 -0.0328 -0.1945
 2590W        W 6334   3.063   4.463   3.645  0.1306 -0.0963  0.0559
 2591W        W 6335   6.489   0.555  12.019  0.0060 -0.0304  0.1434
 2592W        W 6336   3.578   0.982   1.937  0.2581  0.3184 -0.1539
 2593W        W 6337   8.299   7.221  10.150 -0.0226  0.1528 -0.1119
 2594W        W 6338   7.241   9.656  10.694 -0.2663  0.1668  0.2472
 2595W        W 6339   5.789   3.965  10.275 -0.1367  0.0433 -0.1334
 2596W        W 6340   3.125   4.652   3.171 -0.1766  0.0598  0.2175
 2597W        W 6341   1.469   1.282   9.209  0.3022  0.1523  0.3112
 2598W        W 6342   9.621   0.534   2.977  0.3875  0.3487  0.0247
 2599W        W 6343   8.943   3.497   1.891  0.0488 -0.0287  0.2701
 2600W        W 6344   0.831   1.914   2.484  0.1083 -0.2367 -0.0822
 2601W        W 6345   7.589   6.487  10.141  0.0807  0.2134  0.0106
 2602W        W 6346   5.890   9.423   3.562  0.0502 -0.1193 -0.0025
 2603W        W 6347   6.665   7.124   2.094  0.1302 -0.1575  0.1641
 2604W        W 6348   5.490   9.292   1.355 -0.0237  0.0963 -0.3123
 2605W        W 6349   8.284   9.212   2.374  0.1742  0.3700  0.0372
 2606W        W 6350   3.725   0.280   1.982 -0.2500 -0.3711 -0.1067
 2607W        W 6351   7.481   8.509   3.511 -0.0779  0.1389 -0.0125
 2608W        W 6352   5.571   1.596  11.759 -0.2009  0.1825  0.1408
 2609W        W 6353   0.007   5.934  10.838  0.1020 -0.0199 -0.0659
 2610W        W 6354   9.287   6.905   9.758  0.0199  0.3017  0.2509
 2611W        W 6355   7.723   9.872   1.556  0.0649  0.0414  0.3915
 2612W        W 6356   2.465   2.908   2.201  0.3234 -0.2897 -0.1833
 2613W        W 6357   3.843   4.766   8.736 -0.0361 -0.2989 -0.1874
 2614W        W 6358   4.099   0.522   9.295 -0.0217 -0.1638 -0.2857
 2615W        W 6359   8.405   3.661  12.422 -0.0385 -0.1965  0.1765
 2616W        W 6360   1.747   0.172   0.974  0.0204  0.3570  0.0441
 2617W        W 6361   2.391   3.345   1.852  0.2423  0.2091  0.0496
 2618W        W 6362   4.744   6.939  12.186  0.3076  0.0860  0.0916
 2619W        W 6363   7.359   0.001   1.006  0.5019  0.6420  0.0023
 2620W        W 6364   2.720   3.378   1.277 -0.3920 -0.4546  0.3978
 2621W        W 6365   2.828   8.878  11.243  0.0911  0.0564  0.3448
 2622W        W 6366   5.900   8.765   0.558  0.0325 -0.0223  0.1350
 2623W        W 6367   8.896   9.446  12.307  0.0483 -0.0882 -0.0224
 2624W        W 6368   6.266   3.344   3.412  0.0238  0.0506  0.2127
 2625W        W 6369   7.251   9.839  11.248  0.1036 -0.1010 -0.4229
 2626W        W 6370   4.668   3.930   3.702  0.0774 -0.1636 -0.2182
 2627W        W 6371   0.375   3.714  12.385  0.2929  0.1418 -0.2227
 2628W        W 6372   3.256   8.766   8.716  0.0159 -0.0149 -0.3387
 2629W        W 6373   8.497   2.926  10.102 -0.0399 -0.0096 -0.0670
 2630W        W 6374   2.379   2.502  10.510 -0.0699 -0.1892 -0.4746
 2631W        W 6375   0.258   8.927   1.658  0.0686 -0.0648 -0.0384
 2632W        W 6376   8.483   8.126  11.761  0.1484 -0.2409 -0.1698
 2633W        W 6377   6.183   0.976   1.496 -0.2356 -0.0747  0.0508
 2634W        W 6378   7.183   1.103   8.822  0.0313 -0.2087 -0.4887
 2635W        W 6379   0.028   5.409   3.395 -0.0703  0.1360  0.0369
 2636W        W 6380   7.363   0.672   0.339  0.1484 -0.1941  0.1239
 2637W        W 6381   3.129   8.234   3.897 -0.4572  0.1875 -0.0606
 2638W        W 6382   9.304   4.528   1.123  0.2256  0.3707 -0.0117
 2639W        W 6383   4.634   0.275   9.468 -0.2029  0.1678  0.4075
 2640W        W 6384   3.056   9.253   8.908  0.3513 -0.2182  0.2005
 2641W        W 6385   4.239   8.608  10.683  0.2163 -0.2091  0.2285
 2642W        W 6386   8.191   3.046   2.422  0.2501  0.1394 -0.0726
 2643W        W 6387   4.259   2.698  10.333 -0.3918  0.0244 -0.2242
 2644W        W 6388   1.557   8.469   1.923  0.2079  0.1518 -0.3444
 2645W        W 6389   3.693   3.440   3.989 -0.0090 -0.2129  0.0162
 2646W        W 6390   6.943   0.513  11.804  0.0784  0.0370 -0.2422
 2647W        W 6391   4.411   2.629   4.441  0.3764 -0.1461  0.1278
 2648W        W 6392   7.210   0.908  12.604 -0.0934 -0.1047 -0.3211
 2649W        W 6393   2.068   6.928  12.225 -0.0137 -0.1085 -0.0084
 2650W        W 6394   4.203   3.463   0.377  0.1629 -0.0784  0.1991
 2651W        W 6395   0.353   1.076   3.190 -0.1007 -0.3714 -0.1597
 2652W        W 6396   1.593   7.682   4.944  0.0404  0.0797  0.1060
 2653W        W 6397   8.737   0.463   3.262  0.1369  0.2221 -0.0405
 2654W        W 6398   3.275   9.239   3.420 -0.2129  0.0658 -0.2284
 2655W        W 6399   6.662   1.343  10.738  0.1077 -0.2539  0.0333
 2656W        W 6400   7.039   5.427  12.409  0.3083  0.3775 -0.0689
 2657W        W 6401   3.869   1.327   8.826  0.0348 -0.1855  0.2042
 2658W        W 6402   5.226   9.976   2.677 -0.1224 -0.3991 -0.2989
 2659W        W 6403   6.160   2.311   0.677 -0.0236 -0.3037 -0.0994
 2660W        W 6404   5.888   6.992   2.645 -0.0661 -0.0478  0.2587
 2661W        W 6405   2.971   1.819   9.110 -0.1472  0.1392  0.3084
 2662W        W 6406   7.539   4.274  12.308 -0.0022 -0.5530 -0.0773
 2663W        W 6407   0.171   4.609   2.197 -0.1375  0.2077  0.1487
 2664W        W 6408   8.117   0.981   8.871 -0.0159  0.1023 -0.0451
 2665W        W 6409   6.930   7.489   1.883 -0.0337 -0.1110  0.0570
 2666W        W 6410   9.358   8.595   9.525 -0.0338 -0.0367 -0.0776
 2667W        W 6411   0.776   6.073  12.527 -0.4180 -0.2487  0.0369
 2668W        W 6412   9.988   6.276   9.991 -0.3782  0.0535 -0.1917
 2669W        W 6413   1.598   3.873  12.003  0.1685  0.1308 -0.1088
 2670W        W 6414   0.389   7.938   3.552 -0.0176 -0.0203 -0.2684
 2671W        W 6415   0.903   6.474   8.704  0.0176  0.2305 -0.0534
 2672W        W 6416   6.835   1.223   3.595 -0.2064 -0.0273 -0.2924
 2673W        W 6417   9.916   8.769   2.076 -0.0520 -0.4826 -0.0910
 2674W        W 6418   7.388   7.541   0.724  0.0525  0.0041 -0.3006
 2675W        W 6419   3.988   8.329   9.148 -0.0317 -0.2366 -0.6158
 2676W        W 6420   7.631   1.611   9.380  0.0604 -0.1390  0.0352
 2677W        W 6421   7.661   4.495   2.818 -0.2366 -0.3596 -0.2995
 2678W        W 6422   6.432   8.088  11.020 -0.2591 -0.0738  0.2505
 2679W        W 6423   2.269   3.642   1.019 -0.1603  0.3823  0.2170
 2680W        W 6424   4.321   0.269   0.215 -0.2565  0.0431  0.0649
 2681W        W 6425   9.306   8.811   8.562 -0.0827  0.0849  0.0547
 2682W        W 6426   0.428   3.501  11.699  0.0138 -0.0211  0.1733
 2683W        W 6427   4.921   2.243   2.542 -0.0420 -0.0341 -0.1445
 2684W        W 6428   0.958   5.919  11.177  0.1012  0.0949 -0.0220
 2685W        W 6429   5.358   1.386   2.651 -0.0309  0.1174 -0.0232
 2686W        W 6430   0.470   7.388  11.324  0.0209  0.1572 -0.0616
 2687W        W 6431   7.743   2.996  10.690  0.0035 -0.2306  0.0108
 2688W        W 6432   9.872   3.051   7.962  0.3453 -0.0137 -0.4983
 2689W        W 6433   1.280   0.710  11.351  0.0300 -0.1805 -0.2041
 2690W        W 6434   6.625   9.334   8.118  0.1853  0.1989  0.1438
 2691W        W 6435   9.789   7.946   0.904 -0.1952  0.2516  0.2767
 2692W        W 6436   2.357   7.122  10.395  0.0161  0.1686  0.1174
 2693W        W 6437   8.929   5.870   1.135 -0.1248  0.1197 -0.1412
 2694W        W 6438   0.893   9.215  10.079  0.0683 -0.3506  0.0246
 2695W        W 6439   4.543   3.031   8.115  0.0353 -0.3350  0.0161
 2696W        W 6440   5.261   1.967   9.611  0.0837  0.1848 -0.0943
 2697W        W 6441   0.573   7.715   4.003  0.0369 -0.0513 -0.0656
 2698W        W 6442   5.752   4.908   2.197  0.1000 -0.0774  0.0329
 2699W        W 6443   4.934   3.352  10.246 -0.0616  0.1197 -0.0930
 2700W        W 6444   6.792   4.033  10.192 -0.1415  0.0310 -0.2205
 2701W        W 6445   2.112   5.019   2.996  0.0652 -0.0572 -0.1302
 2702W        W 6446   5.680   5.047  12.465 -0.1357  0.2620  0.3057
 2703W        W 6447   8.518   7.669   1.629  0.2234 -0.1194  0.3485
 2704W        W 6448   8.585   0.931   9.343  0.0050  0.2422 -0.1419
 2705W        W 6449   9.856   0.808  10.454 -0.0126  0.0244 -0.3506
 2706W        W 6450   5.371   0.757  12.376 -0.2713  0.4854 -0.1386
 2707W        W 6451   1.644   7.082   0.005  0.1326  0.1024 -0.0176
 2708W        W 6452   7.021   3.863   2.333  0.1499  0.2126  0.2832
 2709W        W 6453   2.383   2.670  11.505  0.0705  0.0859 -0.1758
 2710W        W 6454   0.563   6.786  10.686 -0.1260  0.0485 -0.0768
 2711W        W 6455   6.529   8.106  10.452  0.0775  0.0529 -0.3635
 2712W        W 6456   0.112   3.620   2.426 -0.4638 -0.1621 -0.0870
 2713W        W 6457   6.572   5.419  11.121  0.1723  0.1863  0.1365
 2714W        W 6458   7.214   1.490   3.836  0.3632  0.0710 -0.0023
 2715W        W 6459   1.939   4.280   0.004  0.1044 -0.1074 -0.3329
 2716W        W 6460   4.250   6.836  12.573 -0.3368  0.1761  0.0241
 2717W        W 6461   0.074   4.964   3.577  0.2331  0.1846 -0.2268
 2718W        W 6462   7.639   1.605   3.959 -0.1178  0.0750 -0.1043
 2719W        W 6463   9.311   1.200   8.605  0.2895  0.0673  0.2340
 2720W        W 6464   9.812   1.885   0.243 -0.2905  0.0741  0.1616
 2721W        W 6465   2.291   9.279   3.544  0.3866 -0.0072  0.0221
 2722W        W 6466   4.597   1.972  12.685  0.0369 -0.2210  0.0712
 2723W        W 6467   4.842   5.184  11.642 -0.0679 -0.3737 -0.0790
 2724W        W 6468   2.443   8.644  11.456  0.1596 -0.1048  0.0724
 2725W        W 6469   1.420   9.907   7.986  0.3750  0.1074 -0.0386
 2726W        W 6470   5.435   5.821   2.723 -0.0411  0.1583 -0.0232
 2727W        W 6471   9.011   0.567   0.506  0.0205 -0.2320  0.1434
 2728W        W 6472   5.035   2.414  12.171  0.1831  0.2647 -0.2027
 2729W        W 6473   1.847   7.387   2.663 -0.1207 -0.1351  0.0793
 2730W        W 6474   1.780   1.899  11.879 -0.0603  0.0302  0.0856
 2731W        W 6475   7.710   0.309   0.212  0.3283  0.3069 -0.0270
 2732W        W 6476   1.752   1.493  12.356  0.1881  0.3028  0.0346
 2733W        W 6477   3.322   9.763  12.266 -0.1565  0.0773  0.0916
 2734W        W 6478   7.373   6.478   2.137  0.2367  0.2355 -0.0467
 2735W        W 6479   4.876   9.009   2.703 -0.2014 -0.0185  0.2068
 2736W        W 6480   3.059   5.805   2.162 -0.1675 -0.2788 -0.1628
 2737W        W 6481   7.914   3.090  12.581  0.0134  0.1636 -0.0700
 2738W        W 6482   6.222   3.374   4.291 -0.0600 -0.3297  0.2067
 2739W        W 6483   7.685   3.459  11.106  0.0123 -0.0321 -0.1082
 2740W        W 6484   5.193   0.636   1.683  0.3095 -0.1323  0.0980
 2741W        W 6485   6.213   7.717   3.592 -0.2505  0.0665  0.1383
 2742W        W 6486   1.350   7.563   9.114  0.2769  0.0997  0.1223
 2743W        W 6487   0.388   0.445   8.985 -0.2256  0.0746 -0.0035
 2744W        W 6488   5.557   3.258   8.930  0.0420  0.1748  0.3405
 2745W        W 6489   3.850   6.380   0.466  0.1805  0.1327  0.0732
 2746W        W 6490   3.629   1.602   2.143  0.0500  0.0147  0.0553
 2747W        W 6491   9.581   4.806   9.801 -0.2051  0.2491  0.0054
 2748W        W 6492   2.386   0.401   0.579  0.0006 -0.0229 -0.0886
 2749W        W 6493   6.185   9.422   9.096 -0.2126 -0.2997 -0.3365
 2750W        W 6494   1.672   8.281   0.604 -0.0009  0.1806 -0.0100
 2751W        W 6495   8.311   8.171   1.431 -0.2096  0.2480 -0.1240
 2752W        W 6496   7.764   6.437   0.559  0.0313  0.0936  0.0449
 2753W        W 6497   2.631   1.212   0.573 -0.1325  0.1492 -0.2511
 2754W        W 6498   0.669   8.107  10.599 -0.1509  0.0456  0.1959
 2755W        W 6499   7.242   9.716  10.175  0.1012 -0.1456  0.0466
 2756W        W 6500   4.843   8.220   1.174  0.3218  0.2223 -0.0272
 2757W        W 6501   1.680   2.242   3.700 -0.0822 -0.0238 -0.0884
 2758W        W 6502   4.845   6.128   3.432 -0.1220  0.0764  0.3054
 2759W        W 6503   9.243   4.714   2.529  0.0581  0.3315 -0.0333
 2760W        W 6504   4.524   5.158   3.433  0.1658 -0.1492 -0.0081
 2761W        W 6505   9.449   0.782   5.217 -0.1724 -0.3327  0.0585
 2762W        W 6506   0.758   4.193  12.421 -0.0914  0.1257  0.0742
 2763W        W 6507   7.681   9.375  10.647  0.1203  0.3466 -0.2498
 2764W        W 6508   8.934   3.329  10.595  0.1205 -0.0174 -0.1662
 2765W        W 6509   0.072   0.058   2.018 -0.0615 -0.0128  0.1627
 2766W        W 6510   8.035   5.832   2.732 -0.0502  0.2013  0.2580
 2767W        W 6511   4.217   5.545   8.603  0.0403 -0.0336  0.2282
 2768W        W 6512   7.828   4.339   3.670  0.1174  0.3643 -0.2854
 2769W        W 6513   3.676   0.321  11.552  0.0596  0.1136 -0.0533
 2770W        W 6514   5.821   6.935   9.893 -0.1816 -0.1079  0.2143
 2771W        W 6515   4.711   9.925   0.374 -0.0677 -0.0296  0.1677
 2772W        W 6516   6.496   9.413   1.342 -0.2464  0.4599  0.3714
 2773W        W 6517   8.983   8.277  11.002  0.0334 -0.1680  0.0496
 2774W        W 6518   1.785   0.930   3.890  0.0071  0.0132  0.0982
 2775W        W 6519   0.152   9.489   3.536 -0.0895 -0.4883  0.3075
 2776W        W 6520   4.830   9.036  10.037 -0.2055  0.1118  0.3242
 2777W        W 6521   2.730   5.616   9.488 -0.1244 -0.0542  0.1718
 2778W        W 6522   0.366   5.538  10.360 -0.1540 -0.2236 -0.0572
 2779W        W 6523   0.013   0.307  12.456  0.0440 -0.0757  0.0409
 2780W        W 6524   8.378   1.586  10.131  0.2311  0.0087  0.2617
 2781W        W 6525   5.518   1.256   1.731  0.2230  0.1233  0.1729
 2782W        W 6526   9.796   8.100   3.739  0.2388 -0.0948 -0.0019
 2783W        W 6527   2.842   0.694   4.728 -0.1229 -0.2154  0.0321
 2784W        W 6528   1.031   3.989   1.136  0.1646  0.1050  0.0060
 2785W        W 6529   2.595   1.844   1.495 -0.0548  0.1865  0.0962
 2786W        W 6530   4.505   2.051   2.142  0.1496 -0.0616  0.0706
 2787W        W 6531   4.626   5.697  10.556 -0.1008  0.2695 -0.3197
 2788W        W 6532   1.749   8.928   0.074  0.0785  0.0683 -0.1236
 2789W        W 6533   5.755   0.231   8.834 -0.1327  0.0172 -0.1112
 2790W        W 6534   6.548   0.349   9.628  0.1128  0.1360 -0.0224
 2791W        W 6535   6.301   0.996  10.813 -0.6558 -0.3843 -0.0552
 2792W        W 6536   7.161   4.287  10.720  0.0845 -0.3178 -0.1207
 2793W        W 6537   8.767   9.784   0.543  0.2868  0.0246 -0.0800
 2794W        W 6538   3.309   5.727   2.629 -0.0482 -0.0383  0.2044
 2795W        W 6539   8.314   7.966   3.185 -0.0823 -0.1836  0.1236
 2796W        W 6540   8.287   3.549   2.509  0.1014  0.0434  0.1278
 2797W        W 6541   0.009   0.224   3.137  0.0074  0.3246 -0.0606
 2798W        W 6542   7.657   8.479  10.884  0.2192 -0.0867 -0.0265
 2799W        W 6543   6.056   6.360   1.674 -0.3007 -0.2856  0.1349
 2800W        W 6544   8.192   4.728  10.829  0.0792 -0.2990  0.0480
 2801W        W 6545   1.374   3.914   4.283  0.2712  0.4184  0.0672
 2802W        W 6546   6.680   0.405   3.008 -0.0630  0.0297 -0.2236
 2803W        W 6547   8.771   8.492   2.864  0.1828  0.1536  0.1040
 2804W        W 6548   5.191   1.441   2.032  0.0788  0.1727 -0.1592
 2805W        W 6549   6.932   5.325   9.096  0.0226 -0.4341 -0.2004
 2806W        W 6550   1.969   2.118  12.678 -0.2749 -0.1989 -0.0744
 2807W        W 6551   0.409   3.733   4.070 -0.1885  0.0924 -0.1292
 2808W        W 6552   8.541   1.663   0.963  0.2678 -0.0299  0.0644
 2809W        W 6553   1.792   2.234   1.003 -0.1147 -0.0952  0.0006
 2810W        W 6554   1.003   4.382  11.688 -0.1252 -0.1238 -0.0881
 2811W        W 6555   3.616   4.131   8.422 -0.3059 -0.0234 -0.1661
 2812W        W 6556   8.401   2.696   0.028  0.2348  0.1619  0.0760
 2813W        W 6557   8.145   9.674   1.842 -0.2331 -0.0800 -0.1584
 2814W        W 6558   9.181   8.694   2.275  0.5526  0.1643  0.1156
 2815W        W 6559   1.383   8.553   9.980  0.0185 -0.0383  0.0205
 2816W        W 6560   4.186   0.025   0.705 -0.1971  0.1834  0.3049
 2817W        W 6561   8.424   5.329  10.846  0.1376 -0.1182  0.1454
 2818W        W 6562   2.103   6.471   1.075  0.2174 -0.0269  0.0051
 2819W        W 6563   3.902   5.723  12.284  0.0246  0.2937  0.1389
 2820W        W 6564   7.121   8.358   8.891 -0.1106  0.0159  0.2375
 2821W        W 6565   4.874   0.232   8.532 -0.3528  0.1512 -0.1393
 2822W        W 6566   3.008   7.914  10.520  0.0406 -0.0054  0.0217
 2823W        W 6567   2.734   9.148   3.753 -0.3350 -0.1903 -0.1046
 2824W        W 6568   0.462   9.950   8.897  0.2067 -0.2957 -0.0326
 2825W        W 6569   9.051   9.233   0.688 -0.1416  0.1238  0.0817
 2826W        W 6570   7.310   0.417  12.552  0.0959 -0.2002 -0.1490
 2827W        W 6571   9.842   5.556   1.033 -0.0185 -0.4229 -0.1911
 2828W        W 6572   2.015   6.039   9.068 -0.1777 -0.1555 -0.0624
 2829W        W 6573   5.464   1.058   3.667 -0.0396  0.1877  0.1785
 2830W        W 6574   4.568   1.319   7.986  0.2172  0.0824  0.0687
 2831W        W 6575   3.795   6.580  10.445  0.0054  0.3005 -0.2096
 2832W        W 6576   2.563   4.629   1.586  0.1601  0.0491  0.0818
 2833W        W 6577   5.630   6.280   1.212 -0.0576  0.1139 -0.0509
 2834W        W 6578   9.585   3.743   1.017  0.1180 -0.2752 -0.1508
 2835W        W 6579   4.686   0.955   1.439 -0.0913 -0.0273 -0.0150
 2836W        W 6580   7.368   0.935   0.798 -0.1292 -0.1181  0.1130
 2837W        W 6581   4.451   1.347   9.524  0.0524 -0.0397  0.1018
 2838W        W 6582   4.539   5.935   8.507  0.0611  0.0826  0.0825
 2839W        W 6583   5.162   3.680   1.979 -0.0708  0.1748  0.1251
 2840W        W 6584   9.585   0.921   3.729  0.1882 -0.0218  0.1103
 2841W        W 6585   4.220   6.786  10.657 -0.1012  0.1687  0.0435
 2842W        W 6586   3.809   3.325   3.508 -0.2455 -0.3202  0.2847
 2843W        W 6587   2.375   3.868   9.197 -0.0811  0.1999 -0.0543
 2844W        W 6588   9.203   7.212   3.571  0.0464  0.3113 -0.2063
 2845W        W 6589   8.106   1.223   3.991  0.1744  0.1315  0.3303
 2846W        W 6590   3.034   6.487   4.371  0.2015 -0.0904 -0.2970
 2847W        W 6591   0.874   7.346   3.727 -0.2770 -0.1834 -0.1517
 2848W        W 6592   1.338   7.834   0.569  0.2247 -0.2548 -0.0121
 2849W        W 6593   9.736   6.099  10.429 -0.2230 -0.1845 -0.3363
 2850W        W 6594   6.367   8.836   9.527  0.0025 -0.3012  0.2358
 2851W        W 6595   5.541   8.843   3.742 -0.1506  0.1152  0.0959
 2852W        W 6596   0.653   9.610   9.224 -0.1910  0.0198 -0.1521
 2853W        W 6597   3.291   0.902   2.737  0.0794  0.1853 -0.1306
 2854W        W 6598   4.038   1.289   1.989  0.0101  0.0277  0.0047
 2855W        W 6599   0.080   8.533  11.750  0.0529  0.1530 -0.1876
 2856W        W 6600   0.926   9.800  10.711 -0.2259  0.4094 -0.0486
 2857W        W 6601   6.231   2.495   0.165 -0.3394 -0.2738 -0.0507
 2858W        W 6602   1.725   8.586   8.935  0.1859 -0.0495 -0.0435
 2859W        W 6603   5.112   3.885   3.565  0.3712 -0.0318  0.1227
 2860W        W 6604   9.234   0.323  11.906  0.0714  0.2570 -0.1533
 2861W        W 6605   3.847   2.381   7.798  0.0362  0.0444  0.3171
 2862W        W 6606   6.375   2.167  12.336 -0.1486 -0.1854 -0.1616
 2863W        W 6607   6.871   2.547   0.967  0.0366 -0.0556 -0.2223
 2864W        W 6608   6.221   6.940   3.010  0.1741 -0.0859  0.2814
 2865W        W 6609   8.808   7.446   2.000  0.0312  0.0127  0.2159
 2866W        W 6610   6.829   0.570   8.204  0.2502 -0.1493  0.2241
 2867W        W 6611   6.012   6.830   3.564  0.3535 -0.1731 -0.2977
 2868W        W 6612   7.802   5.075   8.973 -0.1102 -0.1284  0.0477
 2869W        W 6613   5.997   0.724   8.725  0.1979  0.1379 -0.0829
 2870W        W 6614   6.635   2.597  10.422  0.2764 -0.0212  0.0259
 2871W        W 6615   8.044   7.925  11.404 -0.2214 -0.1286 -0.0585
 2872W        W 6616   6.447   3.885   1.132  0.0359  0.0749  0.2047
 2873W        W 6617   8.309   1.712   2.035 -0.1700 -0.2096 -0.0646
 2874W        W 6618   3.191   6.780   3.528 -0.1796  0.2493  0.0233
 2875W        W 6619   9.560   2.693   3.328  0.0004  0.0884  0.3445
 2876W        W 6620   1.006   3.741   9.106 -0.0840  0.0590  0.1754
 2877W        W 6621   3.198   7.063   2.576 -0.2337  0.2460  0.1074
 2878W        W 6622   5.584   0.201  12.085 -0.3201  0.1604 -0.0127
 2879W        W 6623   3.155   9.730   0.713 -0.3013  0.0869  0.1394
 2880W        W 6624   9.616   4.362  12.533 -0.0199  0.0610  0.1256
 2881W        W 6625   6.236   5.969   9.466  0.0381  0.0355  0.1231
 2882W        W 6626   7.177   2.700  11.992 -0.1770 -0.1491 -0.2803
 2883W        W 6627   9.551   6.334   0.134 -0.1038 -0.0717 -0.2209
 2884W        W 6628   5.616   6.188   8.263  0.0262 -0.0906 -0.0150
 2885W        W 6629   4.329   8.486  11.696  0.2397  0.0210  0.0206
 2886W        W 6630   1.041   6.908  12.172 -0.0778  0.2187 -0.2283
 2887W        W 6631   8.053   0.941   1.320  0.2074 -0.1636 -0.0420
 2888W        W 6632   7.435   3.833  10.761  0.0270  0.3204 -0.1714
 2889W        W 6633   9.098   5.002   1.274  0.0362  0.4789 -0.0839
 2890W        W 6634   1.681   7.867  12.070 -0.2236 -0.2708 -0.0398
 2891W        W 6635   6.280   0.541   3.505  0.1045  0.3482  0.1562
 2892W        W 6636   2.546   0.891   4.336 -0.1710 -0.1011  0.0974
 2893W        W 6637   7.022   9.171  11.566  0.0621  0.0743  0.0541
 2894W        W 6638   3.173   4.660   2.388  0.0209 -0.0543  0.2665
 2895W        W 6639   3.622   0.079  12.513  0.0038  0.2434  0.2291
 2896W        W 6640   7.986   4.138   3.202  0.1894 -0.3688  0.1837
 2897W        W 6641   3.974   5.643   9.139 -0.0018  0.1912  0.2814
 2898W        W 6642   2.624   6.089   9.869  0.1655 -0.2031  0.2197
 2899W        W 6643   5.445   6.997  12.424  0.0235  0.3370 -0.1288
 2900W        W 6644   0.807   7.243  10.406 -0.0113 -0.0905  0.0943
 2901W        W 6645   4.140   7.117  12.084  0.1279  0.1990  0.1263
 2902W        W 6646   8.841   5.118   9.214 -0.1912 -0.1284  0.0025
 2903W        W 6647   8.610   8.317   3.320  0.4350  0.1688 -0.1846
 2904W        W 6648   0.158   3.758   0.985  0.1309 -0.1786  0.1352
 2905W        W 6649   2.127   9.657   9.870  0.1317 -0.0481  0.5148
 2906W        W 6650   1.220   5.725   2.342  0.1458 -0.1981 -0.3443
 2907W        W 6651   9.037   1.114   1.720  0.2489 -0.0782  0.1192
 2908W        W 6652   5.097   5.304   1.394 -0.4546 -0.1153  0.1429
 2909W        W 6653   8.144   5.865  10.689  0.0992  0.4187  0.1930
 2910W        W 6654   4.050   4.614   0.141  0.1746  0.2039  0.0948
 2911W        W 6655   6.173   6.312  11.313 -0.1718  0.0383  0.1210
 2912W        W 6656   0.318   9.020  10.729 -0.0909 -0.0942  0.0838
 2913W        W 6657   5.343   2.106   3.492  0.0319  0.0017  0.1755
 2914W        W 6658   1.241   0.977   3.782 -0.0370 -0.0473  0.0543
 2915W        W 6659   4.921   1.624  11.532  0.0388 -0.1695 -0.1367
 2916W        W 6660   1.696   2.333   4.299 -0.1449  0.1144  0.2006
 2917W        W 6661   2.221   2.111  10.277 -0.2161  0.1314 -0.2064
 2918W        W 6662   9.349   8.636   0.730  0.1073  0.1613 -0.3095
 2919W        W 6663   1.998   5.523   3.111 -0.3707 -0.1542  0.0223
 2920W        W 6664   8.039   5.478   1.570 -0.1948 -0.2837 -0.0626
 2921W        W 6665   8.016   9.531   9.761 -0.1266  0.3263 -0.0591
 2922W        W 6666   5.950   5.964   0.092 -0.1388  0.0002 -0.0386
 2923W        W 6667   8.322   4.334   2.185  0.0123  0.0730 -0.3602
 2924W        W 6668   6.391   1.929  11.271  0.0812  0.3041  0.0421
 2925W        W 6669   1.127   3.149   8.637  0.3535  0.1011  0.0462
 2926W        W 6670   2.013   3.124   0.415  0.2270 -0.1583 -0.2443
 2927W        W 6671   2.378   1.479   8.620  0.0379 -0.2648 -0.3949
 2928W        W 6672   8.178   7.230   0.145  0.0795 -0.0120 -0.0417
 2929W        W 6673   3.091   9.530  11.832  0.1848 -0.2092  0.1297
 2930W        W 6674   0.555   7.363   2.925  0.0305 -0.1821  0.2259
 2931W        W 6675   5.676   4.432   9.604 -0.1250  0.1494 -0.0268
 2932W        W 6676   0.866   3.661  12.314  0.0257 -0.0001  0.0309
 2933W        W 6677   7.445   0.343   1.859  0.1411  0.0951 -0.0579
 2934W        W 6678   0.608   6.077   1.552  0.0049 -0.1304  0.2166
 2935W        W 6679   0.075   3.401  12.047 -0.0942 -0.1975 -0.2032
 2936W        W 6680   9.872   3.285   1.715 -0.2450  0.2948  0.0747
 2937W        W 6681   1.854   4.189   9.035 -0.0480 -0.3320  0.0452
 2938W        W 6682   9.541   7.915  11.717  0.0927 -0.1376  0.0641
 2939W        W 6683   4.243   3.265   3.238  0.3591 -0.1358 -0.2176
 2940W        W 6684   0.146   3.080   0.486  0.1862  0.2531 -0.1133
 2941W        W 6685   1.787   6.884   2.500  0.1137  0.1991 -0.0141
 2942W        W 6686   4.635   9.771   7.703 -0.0571 -0.2088  0.2566
 2943W        W 6687   6.153   9.024  10.337  0.1884 -0.0422  0.0528
 2944W        W 6688   8.356   7.343   1.083 -0.2238 -0.0322  0.0026
 2945W        W 6689   2.101   8.153   2.007  0.0242 -0.0621 -0.1132
 2946W        W 6690   5.949   5.536  10.750  0.0939  0.0106  0.0245
 2947W        W 6691   1.397   2.661  10.714 -0.2177 -0.0433  0.1145
 2948W        W 6692   7.890   9.547   9.185  0.1599 -0.2267  0.2279
 2949W        W 6693   9.832   9.154   3.408  0.1548 -0.2934  0.2090
 2950W        W 6694   9.224   2.161  10.165  0.1202 -0.0190 -0.1117
 2951W        W 6695   4.633   9.800   1.735 -0.0340  0.0530  0.0105
 2952W        W 6696   1.521   9.921  12.623  0.5295 -0.0112  0.0308
 2953W        W 6697   8.208   3.302   3.347 -0.0128 -0.1610  0.1479
 2954W        W 6698   8.099   3.903   2.288 -0.0670  0.0035  0.0807
 2955W        W 6699   3.929   9.071   0.747  0.1122  0.1479 -0.2600
 2956W        W 6700   6.474   8.568   3.763  0.0410 -0.2652  0.0538
 2957W        W 6701   2.833   0.987   9.538 -0.1212 -0.1143  0.0358
 2958W        W 6702   4.059   8.832   1.604 -0.3460 -0.0274  0.3726
 2959W        W 6703   6.579   9.182  11.884  0.1448 -0.2019 -0.1754
 2960W        W 6704   8.204   6.172   2.401 -0.0677  0.1479 -0.0885
 2961W        W 6705   0.721   8.693   8.224  0.1602 -0.0549  0.3364
 2962W        W 6706   6.904   1.863   9.356  0.0376 -0.0676  0.1014
 2963W        W 6707   9.587   1.198  12.021 -0.0098 -0.0614  0.1378
 2964W        W 6708   7.393   0.634   2.278 -0.1807 -0.0609  0.0291
 2965W        W 6709   4.065   7.339   2.280  0.2122  0.2004  0.1051
 2966W        W 6710   9.051   3.597   1.010 -0.1053 -0.1508  0.2821
 2967W        W 6711   4.819   0.586  10.971 -0.3356 -0.0485 -0.0772
 2968W        W 6712   7.636   8.529   0.990  0.0495  0.1196 -0.2348
 2969W        W 6713   5.809   9.892   8.421 -0.0991  0.0611 -0.0114
 2970W        W 6714   9.215   4.285  11.516  0.1255  0.3342 -0.0603
 2971W        W 6715   9.945   5.864   3.129  0.0364 -0.1429 -0.0743
 2972W        W 6716   3.449   4.746   3.529  0.0130  0.1610 -0.0828
 2973W        W 6717   4.332   0.517  10.807  0.2115  0.1928 -0.0330
 2974W        W 6718   6.013   7.196   0.752  0.1390 -0.1117  0.1010
 2975W        W 6719   4.724   5.515  10.064 -0.1324  0.0214  0.3236
 2976W        W 6720   9.863   7.410   1.886  0.4291  0.0405  0.1485
 2977W        W 6721   5.047   9.347  11.023 -0.1730 -0.0309  0.1352
 2978W        W 6722   8.203   6.931  10.577  0.0727 -0.1236 -0.3647
 2979W        W 6723   6.983   1.341  12.404  0.1729  0.0159 -0.1020
 2980W        W 6724   8.262   0.121   1.598  0.3471 -0.1390  0.0816
 2981W        W 6725   0.652   8.004  12.016  0.4154  0.0222  0.0703
 2982W        W 6726   7.960   2.519   9.857 -0.1192 -0.1184 -0.1965
 2983W        W 6727   8.669   5.391  11.292  0.2810 -0.1399  0.0788
 2984W        W 6728   4.300   5.844  10.164 -0.0607  0.2527 -0.0298
 2985W        W 6729   5.201   8.963   1.784 -0.0960  0.0615 -0.2225
 2986W        W 6730   1.449   2.640   3.975  0.2418  0.1421 -0.1396
 2987W        W 6731   5.035   0.389  12.040 -0.2341 -0.3770  0.2193
 2988W        W 6732   0.136   1.263   3.650  0.1457  0.2871  0.0104
 2989W        W 6733   0.875   5.951   9.789 -0.0110 -0.2965 -0.1387
 2990W        W 6734   9.707   6.936   9.474 -0.2363  0.2214  0.0877
 2991W        W 6735   4.378   7.643   4.350  0.2665 -0.2053 -0.0738
 2992W        W 6736   2.567   0.810   2.435  0.0702  0.3305  0.3784
 2993W        W 6737   1.728   8.472   3.550 -0.0482 -0.0419  0.2134
 2994W        W 6738   4.443   1.656  11.802 -0.0492  0.1818  0.1713
 2995W        W 6739   8.275   4.579   3.488  0.0824 -0.0309  0.0809
 2996W        W 6740   3.180   3.776  10.294  0.3232 -0.0870  0.3771
 2997W        W 6741   0.185   6.230   0.473 -0.2667 -0.0301 -0.0256
 2998W        W 6742   2.339   0.161   0.132 -0.1647 -0.2477  0.2478
 2999W        W 6743   3.294   4.916  10.917  0.0668 -0.1929  0.0682
 3000W        W 6744   7.459   4.853   4.185  0.0246  0.4292 -0.0712
 3001W        W 6745   3.364   3.980   1.828 -0.1490 -0.2353  0.2264
 3002W        W 6746   2.852   7.899  11.544 -0.0722 -0.3750  0.0124
 3003W        W 6747   6.184   1.193   8.923 -0.1328 -0.1430 -0.0673
 3004W        W 6748   8.608   4.774  11.282  0.0498  0.0651 -0.2512
 3005W        W 6749   6.959   8.284  11.854 -0.3017 -0.2141 -0.0798
 3006W        W 6750   1.409   0.105   0.611 -0.2192  0.1689  0.2810
 3007W        W 6751   5.389   4.369   0.866 -0.1477  0.1696  0.0652
 3008W        W 6752   3.472   6.071   0.646  0.0949 -0.1629 -0.0423
 3009W        W 6753   9.211   2.649   0.140 -0.0108  0.2540  0.0595
 3010W        W 6754   0.951   9.178  12.193  0.1171  0.0460 -0.0095
 3011W        W 6755   5.711   6.188   2.090 -0.0675 -0.1349 -0.1030
 3012W        W 6756   1.639   3.600   9.848 -0.2045  0.1927  0.3906
 3013W        W 6757   0.721   7.569   2.101  0.1008 -0.0185  0.0390
 3014W        W 6758   8.702   3.704   1.316  0.0091  0.1350  0.1648
 3015W        W 6759   2.537   2.070   3.462  0.1067  0.0906 -0.0287
 3016W        W 6760   6.184   8.560   2.036  0.1021 -0.2912  0.0188
 3017W        W 6761   1.646   5.354   0.456 -0.1739  0.2506  0.0835
 3018W        W 6762   1.789   2.543   9.079 -0.0252  0.1722 -0.4092
 3019W        W 6763   4.130   2.843   9.047 -0.1818  0.1876  0.1181
 3020W        W 6764   8.330   3.926   1.040 -0.2646 -0.0096  0.0937
 3021W        W 6765   1.707   9.369   2.988  0.3074  0.2291  0.3476
 3022W        W 6766   6.009   6.488   8.441  0.1658 -0.0710 -0.0298
 3023W        W 6767   9.441   8.240   2.110 -0.0802  0.0963  0.1321
 3024W        W 6768   1.148   4.009  11.979  0.1259 -0.0224 -0.0659
 3025W        W 6769   5.809   4.561  11.568 -0.2211 -0.1125  0.3015
 3026W        W 6770   0.698   9.103   8.451 -0.2935  0.1502  0.1253
 3027W        W 6771   1.572   5.037  10.781  0.0066  0.1926  0.1187
 3028W        W 6772   1.465   0.520   3.645 -0.1549  0.2478  0.1485
 3029W        W 6773   2.694   7.572   8.124 -0.2457  0.0077 -0.1176
 3030W        W 6774   5.936   1.398   3.362 -0.2281 -0.0261  0.2247
 3031W        W 6775   7.401   1.125   2.225 -0.3980  0.0957  0.1455
 3032W        W 6776   3.289   2.072   1.024 -0.2880  0.2143  0.0050
 3033W        W 6777   3.713   7.943  12.134  0.2757  0.2540 -0.0088
 3034W        W 6778   5.532   7.789   9.114  0.1539  0.1131 -0.2607
 3035W        W 6779   2.158   3.731  11.084  0.0780 -0.2114 -0.1162
 3036W        W 6780   9.386   7.738   1.974  0.1798  0.1286 -0.0163
 3037W        W 6781   0.801   1.590   0.863 -0.1932 -0.0048 -0.1982
 3038W        W 6782   3.301   5.035  12.566 -0.1455  0.0269  0.2035
 3039W        W 6783   9.212   4.194   2.577  0.1206 -0.1089 -0.1409
 3040W        W 6784   8.771   7.578   2.569 -0.1431  0.2995  0.0564
 3041W        W 6785   1.862   8.209   1.485  0.0087  0.0030  0.1437
 3042W        W 6786   3.532   2.111   0.564  0.0651 -0.0696  0.2840
 3043W        W 6787   1.622   2.342   1.907  0.4172 -0.0815  0.1861
 3044W        W 6788   0.002   0.760   4.389  0.0463  0.0552  0.1996
 3045W        W 6789   2.235   3.030  10.878  0.1270  0.0175 -0.0703
 3046W        W 6790   5.413   2.880   1.294 -0.3150 -0.2276 -0.0753
 3047W        W 6791   5.343   1.253  11.453 -0.1513 -0.1726  0.0634
 3048W        W 6792   0.501   6.618   2.911 -0.1286  0.0083  0.1535
 3049W        W 6793   1.921   0.340   2.030  0.0713 -0.1648  0.0583
 3050W        W 6794   0.576   3.973  11.995 -0.1039 -0.1127 -0.2983
 3051W        W 6795   7.447   1.916   4.336 -0.3628 -0.2535 -0.0145
 3052W        W 6796   7.086   3.170   8.813  0.0208 -0.0919 -0.2022
 3053W        W 6797   7.934   5.843  12.022  0.0247 -0.0009  0.0259
 3054W        W 6798   0.829   5.926   2.802  0.0724  0.1230  0.0743
 3055W        W 6799   0.564   5.049   2.829 -0.1245 -0.1021  0.1283
 3056W        W 6800   8.253   7.118  11.367 -0.2317 -0.0658 -0.0094
 3057W        W 6801   9.711   5.768  12.052 -0.2483 -0.0889  0.0596
 3058W        W 6802   4.176   8.504   2.988 -0.0110 -0.0306 -0.1259
 3059W        W 6803   8.463   4.199   9.462  0.0787 -0.0302  0.1922
 3060W        W 6804   2.400   4.218   1.878 -0.3077  0.1687  0.0362
 3061W        W 6805   3.990   9.238   1.254  0.1266  0.0932  0.0556
 3062W        W 6806   4.267   1.789   9.579  0.0006  0.0235 -0.0582
 3063W        W 6807   2.049   9.516   8.525  0.1923 -0.1736  0.2311
 3064W        W 6808   5.110   1.814   2.861  0.1041 -0.0755  0.0708
 3065W        W 6809   5.299   2.761   1.766  0.0389  0.0238 -0.2541
 3066W        W 6810   0.975   3.896  10.669 -0.1620 -0.1971 -0.1616
 3067W        W 6811   2.242   8.138   9.996 -0.0473  0.2088  0.1865
 3068W        W 6812   0.554   8.238   2.683  0.2295  0.0257  0.0094
 3069W        W 6813   4.733   9.530  12.539  0.0547  0.0352 -0.1755
 3070W        W 6814   3.489   6.506   3.796  0.3855  0.0143 -0.0553
 3071W        W 6815   4.844   7.240   1.778  0.2345  0.0996 -0.2168
 3072W        W 6816   0.386   2.001  10.910 -0.0633 -0.0869  0.4154
 3073W        W 6817   7.683   0.866  12.637  0.1351  0.4222 -0.1708
 3074W        W 6818   1.590   4.221   4.588  0.0175 -0.0062  0.0496
 3075W        W 6819   5.849   6.459  12.484  0.2068 -0.0063 -0.2223
 3076W        W 6820   6.600   4.559   9.275  0.0272 -0.2054 -0.2091
 3077W        W 6821   7.249   1.913   2.115  0.2087 -0.1177 -0.1639
 3078W        W 6822   0.789   7.524   9.323  0.2114  0.1088  0.1432
 3079W        W 6823   9.171   4.892  10.612 -0.3194 -0.2057  0.2109
 3080W        W 6824   0.994   3.242   1.554  0.0702 -0.1729  0.1559
 3081W        W 6825   9.923   2.088  10.176  0.1396 -0.3024  0.1361
 3082W        W 6826   7.137   9.360   3.943 -0.2439 -0.1027  0.0371
 3083W        W 6827   5.619   6.754   0.777 -0.1516  0.0485  0.2419
 3084W        W 6828   7.249   8.674   0.567  0.1095  0.1870 -0.1359
 3085W        W 6829   4.539   0.534   8.441  0.0201  0.0201  0.1485
 3086W        W 6830   2.191   1.691  11.073  0.3286 -0.2238  0.1278
 3087W        W 6831   6.342   3.166  11.608 -0.3243 -0.0458 -0.3014
 3088W        W 6832   5.775   7.848   2.729  0.1449  0.1681 -0.1919
 3089W        W 6833   1.904   8.447  10.722 -0.2423 -0.0405 -0.1214
 3090W        W 6834   6.987   4.219   0.756 -0.1353  0.0680  0.2293
 3091W        W 6835   0.662   3.707   0.628  0.0926 -0.1921 -0.2986
 3092W        W 6836   6.924   6.061   1.985 -0.1022  0.0840  0.6573
 3093W        W 6837   5.290   2.603   2.760 -0.1165  0.0244 -0.1723
 3094W        W 6838   1.078   8.762   1.746  0.1533 -0.2671  0.1443
 3095W        W 6839   7.447   5.856  10.278  0.1583  0.1708  0.0221
 3096W        W 6840   9.541   3.354   9.673 -0.2183 -0.2029 -0.4060
 3097W        W 6841   3.429   2.388   2.515  0.1205  0.0568 -0.3287
 3098W        W 6842   5.002   6.975   8.635 -0.3240 -0.0959  0.1547
 3099W        W 6843   3.169   1.725   3.209 -0.1880  0.1208  0.0638
 3100W        W 6844   2.150   1.546   1.715  0.0512  0.0173  0.0592
 3101W        W 6845   0.594   1.582   9.269  0.2950  0.1150 -0.1408
 3102W        W 6846   8.207   3.436   1.347 -0.1958 -0.2559  0.3792
 3103W        W 6847   2.978   3.167   9.427 -0.3655 -0.1822  0.4049
 3104W        W 6848   1.150   8.375   2.238  0.2645  0.3303 -0.2175
 3105W        W 6849   0.230   0.568   3.432 -0.2800  0.0516 -0.3714
 3106W        W 6850   7.940   4.167   1.837  0.0525  0.0446 -0.0530
 3107W        W 6851   9.636   0.087   0.953  0.0174  0.1459 -0.0050
 3108W        W 6852   1.788   7.550   3.221 -0.1602  0.0473 -0.1289
 3109W        W 6853   7.295   8.162   1.311  0.0343  0.4266 -0.1761
 3110W        W 6854   3.804   7.836  12.631 -0.3163 -0.2521 -0.0721
 3111W        W 6855   7.829   7.648   0.031 -0.3681  0.0693 -0.4085
 3112W        W 6856   4.844   7.935   9.209  0.5448  0.1970 -0.1427
 3113W        W 6857   8.878   8.906   1.746  0.2264  0.0487 -0.1549
 3114W        W 6858   1.854   4.552   3.148 -0.1333 -0.2158  0.0154
 3115W        W 6859   5.475   1.296   8.387  0.0518  0.0229 -0.2632
 3116W        W 6860   9.554   2.086   9.797 -0.2281  0.1020 -0.0793
 3117W        W 6861   0.824   9.172   1.020 -0.4296  0.0081 -0.3108
 3118W        W 6862   7.113   4.177  12.681 -0.0292 -0.1114 -0.2251
 3119W        W 6863   1.663   0.240   2.556  0.0335  0.1219 -0.1080
 3120W        W 6864   7.500   1.130   4.049  0.1215 -0.1559 -0.1760
 3121W        W 6865   7.265   0.212   0.513  0.1921  0.1415  0.1950
 3122W        W 6866   4.655   2.947   8.642  0.2744 -0.0144  0.1556
 3123W        W 6867   6.760   5.396  10.028  0.3147  0.0259 -0.3061
 3124W        W 6868   7.839   1.983   3.708  0.1945  0.1425  0.1766
 3125W        W 6869   8.964   1.236   9.555 -0.4701  0.1070  0.1149
 3126W        W 6870   6.207   5.050   2.082  0.1177 -0.0255 -0.2601
 3127W        W 6871   3.086   7.380  11.471 -0.1903 -0.1843  0.0370
 3128W        W 6872   6.671   1.429   1.305  0.3205 -0.3019 -0.2761
 3129W        W 6873   9.736   6.802  11.708 -0.0573 -0.1952  0.0552
 3130W        W 6874   3.836   4.575   2.052  0.2251  0.1614  0.0493
 3131W        W 6875   1.132   0.320   7.897 -0.3105 -0.2520 -0.4526
 3132W        W 6876   5.317   2.109   0.468  0.0216 -0.2522  0.0945
 3133W        W 6877   0.985   7.466   2.645 -0.0818  0.0562  0.2434
 3134W        W 6878   9.522   4.827   0.021  0.0718 -0.0949  0.3440
 3135W        W 6879   3.489   1.370   2.920  0.1431 -0.2748 -0.2697
 3136W        W 6880   9.721   1.504   2.128  0.0690  0.1815 -0.3333
 3137W        W 6881   4.938   8.322   4.503 -0.1854 -0.3614 -0.1908
 3138W        W 6882   9.078   3.140   4.071 -0.0914  0.0899  0.4947
 3139W        W 6883   9.278   0.310   4.330  0.1169  0.0090  0.0376
 3140W        W 6884   5.964   5.681  11.748 -0.3342 -0.2075 -0.1190
 3141W        W 6885   8.296   0.290   3.240  0.3452  0.0328  0.0620
 3142W        W 6886   6.749   1.689   9.819  0.1273 -0.2144  0.0039
 3143W        W 6887   1.528   9.001   1.340 -0.0122  0.2280  0.0925
 3144W        W 6888   2.875   3.341  11.577 -0.0917  0.2610  0.0615
 3145W        W 6889   9.508   5.337  11.887  0.1633  0.1534  0.0521
 3146W        W 6890   6.311   8.256  11.711  0.0472 -0.2174 -0.0590
 3147W        W 6891   0.493   9.014  12.322  0.2811 -0.0020  0.2773
 3148W        W 6892   0.448   7.907  11.521 -0.0872  0.1547  0.1779
 3149W        W 6893   2.498   6.338   0.775 -0.0457 -0.3489 -0.0821
 3150W        W 6894   2.150   9.262  12.671  0.1276 -0.0188  0.0361
 3151W        W 6895   5.807   2.543   2.677  0.2046 -0.2519  0.1095
 3152W        W 6896   2.850   3.079   1.828  0.0451  0.0143  0.0168
 3153W        W 6897   2.165   9.536   3.117 -0.2650  0.0641 -0.0624
 3154W        W 6898   8.033   6.426  12.281 -0.1521  0.0793  0.4348
 3155W        W 6899   1.326   7.576   3.533  0.1758  0.0088  0.5395
 3156W        W 6900   1.473   4.808  11.582  0.1514 -0.0522  0.0213
 3157W        W 6901   5.145   7.323  12.140 -0.2813  0.2004 -0.1739
 3158W        W 6902   4.248   9.701   8.049 -0.2021 -0.2628 -0.0750
 3159W        W 6903   0.177   0.014   9.352  0.3122  0.1281 -0.0358
 3160W        W 6904   6.611   2.451   0.531  0.2997  0.1801 -0.0907
 3161W        W 6905   3.832   9.423   9.970  0.0106 -0.2497  0.0398
 3162W        W 6906   7.386   5.566   0.728  0.1406  0.1192 -0.0195
 3163W        W 6907   4.148   2.785   7.959 -0.2996 -0.3054 -0.1631
 3164W        W 6908   9.509   2.604  10.334  0.1029  0.0648  0.0276
 3165W        W 6909   8.426   3.193   2.829  0.1398  0.4794  0.1194
 3166W        W 6910   5.936   5.712   0.933  0.1951 -0.1736 -0.0305
 3167W        W 6911   0.797   0.780  10.381  0.1419  0.2640  0.2173
 3168W        W 6912   5.069   3.614   2.951  0.1799  0.0839 -0.1666
 3169W        W 6913   8.870   8.916  10.967 -0.3080  0.3119 -0.0664
 3170W        W 6914   0.161   5.541   2.364 -0.0878  0.1157  0.1003
 3171W        W 6915   8.510   2.416  10.127 -0.0134  0.3674  0.0722
 3172W        W 6916   1.593   8.347   9.555 -0.2545  0.0394 -0.1902
 3173W        W 6917   3.451   7.138   0.584  0.0361  0.2493  0.1966
 3174W        W 6918   5.102   8.864  10.502  0.2830  0.0199 -0.4420
 3175W        W 6919   9.284   1.691   8.530 -0.2790  0.0270 -0.2080
 3176W        W 6920   4.837   2.756   9.992  0.0196  0.0417  0.1865
 3177W        W 6921   5.748   3.856   0.263 -0.0030 -0.1422  0.0344
 3178W        W 6922   9.430   0.266   8.759 -0.1118 -0.1811 -0.3882
 3179W        W 6923   2.978   8.532   4.532  0.0996 -0.1280 -0.0756
 3180W        W 6924   7.698   0.630   3.428 -0.1697 -0.2105 -0.2611
 3181W        W 6925   2.617   2.323   8.775 -0.0388 -0.1401 -0.0558
 3182W        W 6926   3.110   5.008   1.734 -0.0910 -0.0501  0.0770
 3183W        W 6927   9.256   1.362   0.462  0.1798  0.1876 -0.2217
 3184W        W 6928   8.709   6.125   1.568  0.3382 -0.1119  0.0365
 3185W        W 6929   0.199   5.468  10.835 -0.1411 -0.1556 -0.1398
 3186W        W 6930   2.894   4.682  10.738  0.2152  0.2092 -0.0413
 3187W        W 6931   2.178   5.947   3.911 -0.0918  0.2656 -0.0668
 3188W        W 6932   1.021   7.968   2.613 -0.4087  0.1145  0.0403
 3189W        W 6933   6.624   0.259   1.916  0.4251  0.2073  0.1254
 3190W        W 6934   5.278   3.905  11.385  0.1201  0.1673  0.0753
 3191W        W 6935   0.591   0.875   3.621 -0.2354 -0.4656  0.2075
 3192W        W 6936   9.886   0.963   3.260  0.0522 -0.2165  0.1553
 3193W        W 6937   3.239   5.343   0.286  0.0542  0.0952 -0.0096
 3194W        W 6938   1.885   1.786   8.665 -0.3249  0.0489  0.0761
 3195W        W 6939   6.069   0.089   0.241  0.0424  0.1328  0.1798
 3196W        W 6940   2.143   8.936  10.582  0.2406 -0.0960  0.0882
 3197W        W 6941   4.776   3.957  10.931 -0.0396 -0.2632  0.0498
 3198W        W 6942   2.073   4.602   4.151  0.2101 -0.0160  0.0881
 3199W        W 6943   4.331   6.043   3.702 -0.0518  0.3771 -0.4374
 3200W        W 6944   6.263   4.294   3.317 -0.1411 -0.1308  0.3130
 3201W        W 6945   5.308   9.239  10.135  0.0946  0.2790  0.3815
 3202W        W 6946   4.476   0.672  12.538 -0.3202 -0.0266  0.1195
 3203W        W 6947   1.613   5.802   3.249  0.0937 -0.1343 -0.3799
 3204W        W 6948   2.107   1.602   0.013  0.0667 -0.2313 -0.3032
 3205W        W 6949   8.524   0.443   2.800 -0.1704  0.0156  0.1108
 3206W        W 6950   2.593   6.581   4.112  0.3501 -0.0865  0.1254
 3207W        W 6951   1.517   3.680  10.845 -0.0067 -0.0485  0.3022
 3208W        W 6952   4.933   0.772   7.580 -0.2428 -0.0383  0.0485
 3209W        W 6953   5.026   8.376  12.375 -0.0959  0.2264  0.3630
 3210W        W 6954   8.996   8.784   3.511  0.4250  0.1608 -0.2132
 3211W        W 6955   9.823   1.198  10.097  0.0496  0.2476 -0.0232
 3212W        W 6956   4.430   5.497   9.077  0.2343 -0.0736  0.4292
 3213W        W 6957   0.865   2.817   5.090  0.1335 -0.0697  0.2680
 3214W        W 6958   4.637   8.607   9.655  0.0155 -0.2695  0.3753
 3215W        W 6959   3.652   7.571   2.261 -0.2850 -0.0886 -0.1470
 3216W        W 6960   5.904   4.527   1.919 -0.0207 -0.2452 -0.1197
 3217W        W 6961   4.493   7.019   3.773  0.1475  0.2103 -0.3372
 3218W        W 6962   6.677   4.183   4.116 -0.0272  0.0242  0.1948
 3219W        W 6963   3.116   3.629  10.793  0.1586  0.3398  0.2143
 3220W        W 6964   8.450   3.144  12.476 -0.0094  0.0784  0.0873
 3221W        W 6965   3.990   2.110   3.812  0.0399  0.1669  0.1477
 3222W        W 6966   9.437   1.623   9.443  0.0956 -0.3063 -0.0880
 3223W        W 6967   8.420   9.815  10.312  0.0879  0.0350 -0.1886
 3224W        W 6968   0.915   9.072   9.305  0.2058 -0.2014 -0.0167
 3225W        W 6969   2.190   8.175  11.066 -0.0448 -0.2414 -0.2350
 3226W        W 6970   1.975   1.034  10.632 -0.4264  0.2668 -0.0224
 3227W        W 6971   6.980   8.382   1.641 -0.1640 -0.1912 -0.0891
 3228W        W 6972   8.278   1.809   2.528 -0.0142 -0.1639  0.1282
 3229W        W 6973   7.120   5.149  11.845  0.0590  0.1123 -0.2482
 3230W        W 6974   6.211   9.655   9.885  0.1486 -0.1823 -0.1638
 3231W        W 6975   7.654   9.351   3.895 -0.0426  0.0817 -0.0012
 3232W        W 6976   9.353   7.260   1.776 -0.3230 -0.1486  0.0775
 3233W        W 6977   4.129   1.583   3.632 -0.0164  0.1083  0.0805
 3234W        W 6978   1.731   2.210   0.442 -0.0996  0.2291 -0.1678
 3235W        W 6979   2.023   9.801   1.391 -0.3440  0.2374  0.1770
 3236W        W 6980   1.344   7.038   3.728 -0.1528 -0.2698 -0.3410
 3237W        W 6981   5.200   7.656   3.074  0.0819  0.4228 -0.0232
 3238W        W 6982   8.552   3.271   1.664 -0.3520 -0.0617 -0.2973
 3239W        W 6983   9.863   8.267   9.869  0.1158 -0.0230 -0.0835
 3240W        W 6984   8.121   2.851   0.878  0.1992  0.0303  0.1800
 3241W        W 6985   9.089   0.640   8.826 -0.4372  0.2030  0.0060
 3242W        W 6986   3.003   5.998   4.579  0.0007  0.1188 -0.0906
 3243W        W 6987   7.536   3.814   2.159 -0.2455  0.3559 -0.0603
 3244W        W 6988   4.283   9.110   1.972  0.0545  0.3145  0.0802
 3245W        W 6989   2.087   0.449  12.087 -0.0275 -0.0668 -0.0400
 3246W        W 6990   8.618   9.344  10.941  0.2496 -0.1043  0.3910
 3247W        W 6991   1.012   6.279  11.497 -0.1240 -0.0689  0.0299
 3248W        W 6992   2.702   8.279  11.821 -0.1619  0.2523 -0.1206
 3249W        W 6993   0.587   3.661   1.226 -0.2594  0.0200 -0.0542
 3250W        W 6994   0.457   9.022   2.704 -0.0862  0.0382  0.2149
 3251W        W 6995   7.675   8.365   0.477 -0.0169  0.0547 -0.0986
 3252W        W 6996   4.397   0.441   1.512 -0.0527 -0.0616  0.3430
 3253W        W 6997   7.143   8.598   1.178 -0.3186 -0.0528  0.1815
 3254W        W 6998   8.389   4.575  10.378  0.0853  0.1991  0.0558
 3255W        W 6999   7.373   8.900   2.589 -0.1183  0.2545  0.0102
 3256W        W 7000   5.625   0.947   2.779 -0.1449 -0.3333  0.1379
 3257W        W 7001   3.729   9.224   3.802  0.2367 -0.1400  0.1876
 3258W        W 7002   3.454   9.577   8.742 -0.1031  0.0020  0.1604
 3259W        W 7003   4.230   8.345   3.827 -0.1438  0.1963 -0.2943
 3260W        W 7004   4.525   2.141   1.654 -0.0464  0.5173 -0.0216
 3261W        W 7005   7.188   4.170   4.036 -0.1955 -0.1108 -0.1647
 3262W        W 7006   6.338   1.087  12.014  0.2995  0.1410 -0.0522
 3263W        W 7007   8.434   9.990   3.669  0.3253  0.3346  0.0444
 3264W        W 7008   9.550   8.785  10.436  0.1441  0.0971  0.3720
 3265W        W 7009   4.696   5.079  12.585 -0.0232 -0.2914 -0.3134
 3266W        W 7010   3.523   7.886   3.505 -0.0934 -0.4488  0.0940
 3267W        W 7011   0.563   5.815   9.103 -0.1810  0.0387 -0.1072
 3268W        W 7012   0.152   7.017   3.669  0.0990 -0.1923 -0.1498
 3269W        W 7013   8.036   9.890  10.728  0.1925 -0.2391 -0.1394
 3270W        W 7014   2.276   4.503   9.919  0.0268 -0.1370  0.2669
 3271W        W 7015   9.094   6.454  10.896  0.1001 -0.0390 -0.1669
 3272W        W 7016   4.582   2.227   3.477 -0.0634 -0.1572 -0.0154
 3273W        W 7017   4.341   8.342  10.169 -0.1820  0.1862 -0.2308
 3274W        W 7018   6.176   8.066   2.107 -0.0056  0.1619 -0.0294
 3275W        W 7019   3.715   5.416   2.250 -0.1696  0.1855 -0.1472
 3276W        W 7020   0.558   6.472   0.207 -0.4825 -0.1011 -0.1169
 3277W        W 7021   6.566   9.665   0.934 -0.0012  0.0973 -0.0583
 3278W        W 7022   8.190   9.313  10.691  0.0464 -0.0177  0.2875
 3279W        W 7023   5.129   9.618   1.750  0.1994  0.0108  0.3833
 3280W        W 7024   5.936   8.532  11.799  0.0080  0.0100  0.0951
 3281W        W 7025   8.142   1.072  11.618 -0.2244 -0.1048  0.1725
 3282W        W 7026   3.208   8.987  11.674  0.1301 -0.0522  0.3720
 3283W        W 7027   6.483   9.060   1.711  0.0172  0.2034  0.1255
 3284W        W 7028   8.326   8.849   0.867 -0.1449  0.1329 -0.2218
 3285W        W 7029   1.217   1.869  11.897 -0.1944 -0.2261  0.0155
 3286W        W 7030   3.471   5.679   9.172 -0.4986 -0.1437  0.1647
 3287W        W 7031   7.553   6.745   9.750  0.2277 -0.2646 -0.3962
 3288W        W 7032   8.126   4.483   2.673 -0.2797  0.1626 -0.1307
 3289W        W 7033   4.806   8.164   9.683  0.1921 -0.1017 -0.0430
 3290W        W 7034   4.467   9.576   8.819  0.1330 -0.1318 -0.1784
 3291W        W 7035   9.306   0.940   0.228 -0.2113  0.1740  0.0323
 3292W        W 7036   6.950   3.228   1.828 -0.1747 -0.0921  0.4089
 3293W        W 7037   2.726   0.297  12.456 -0.4946 -0.3594  0.0363
 3294W        W 7038   6.646   7.756   1.479  0.0920  0.2563  0.0010
 3295W        W 7039   0.516   3.271   9.455  0.1349  0.0201  0.1959
 3296W        W 7040   6.097   9.027  11.685 -0.0547  0.0534  0.0855
 3297W        W 7041   8.436   5.197   0.039  0.0394 -0.1058 -0.0240
 3298W        W 7042   2.615   3.369  10.767 -0.1111  0.0021 -0.1387
 3299W        W 7043   9.369   3.369  10.264 -0.2251  0.0287 -0.2925
 3300W        W 7044   8.737   1.766   2.695  0.0385 -0.1485 -0.1774
 3301W        W 7045   5.885   1.476   9.253 -0.1725 -0.1599 -0.1508
 3302W        W 7046   1.367   2.711   1.530 -0.0025 -0.3092 -0.0584
 3303W        W 7047   5.650   3.450   9.432  0.3615 -0.0641  0.3557
 3304W        W 7048   6.206   2.280  11.518 -0.1441 -0.1208 -0.1236
 3305W        W 7049   4.917   8.944   0.639  0.1854 -0.3284 -0.0229
 3306W        W 7050   5.787   8.170   0.835 -0.2432 -0.2438  0.0139
 3307W        W 7051   2.114   3.528   3.294  0.1524  0.0763 -0.1704
 3308W        W 7052   5.893   8.501   4.238  0.3127  0.2632  0.0696
 3309W        W 7053   1.105   8.247   1.309  0.2509  0.1410  0.1139
 3310W        W 7054   5.897   2.859  11.759  0.3177  0.2014 -0.0832
 3311W        W 7055   6.146   4.194  11.762 -0.0649 -0.2432  0.2542
 3312W        W 7056   7.393   7.912   2.924  0.0938 -0.0300 -0.0570
 3313W        W 7057   2.328   3.761  12.609  0.2485  0.3357  0.3289
 3314W        W 7058   8.600   3.626   0.751  0.1261 -0.3658 -0.0432
 3315W        W 7059   9.107   4.445  12.486 -0.0962  0.2102 -0.0444
 3316W        W 7060   0.555   6.946  11.941 -0.0749  0.1034  0.0286
 3317W        W 7061   9.391   8.487   3.731 -0.2465 -0.3948 -0.1495
 3318W        W 7062   3.683   3.875   9.556 -0.0716  0.1577  0.2985
 3319W        W 7063   0.207   5.931   1.273  0.2308  0.0294 -0.1453
 3320W        W 7064   5.896   9.888  11.267 -0.1795 -0.5897 -0.0103
 3321W        W 7065   2.542   6.397   3.082 -0.2261 -0.0540  0.0303
 3322W        W 7066   9.029   4.978   2.178 -0.1740 -0.1228  0.3196
 3323W        W 7067   5.133   5.966   8.436 -0.2529 -0.0681 -0.1134
 3324W        W 7068   3.823   5.225   1.343 -0.2757 -0.0878  0.1534
 3325W        W 7069   9.230   4.522   2.057  0.2131  0.3244 -0.0475
 3326W        W 7070   2.544   3.390   3.061 -0.2416 -0.4015  0.1441
 3327W        W 7071   7.587   5.427   0.256 -0.1070  0.2572  0.4430
 3328W        W 7072   4.868   3.043   2.545 -0.0391  0.1513  0.1431
 3329W        W 7073   3.374   3.357  11.731  0.1268  0.1363  0.1383
 3330W        W 7074   7.275   3.312   3.628 -0.0231  0.0540  0.1721
 3331W        W 7075   4.887   8.167  11.457 -0.1125  0.0716  0.2086
 3332W        W 7076   0.625   3.679   0.119 -0.0693 -0.1711  0.0382
 3333W        W 7077   6.781   3.446   3.637  0.3650 -0.3230 -0.0993
 3334W        W 7078   9.340   5.122   9.430  0.3842 -0.1297 -0.0655
 3335W        W 7079   3.736   2.798   1.946  0.4840  0.2182  0.3082
 3336W        W 7080   0.764   4.869   3.761 -0.2167 -0.3370  0.3133
 3337W        W 7081   1.314   5.386   3.232 -0.0577 -0.1068 -0.0587
 3338W        W 7082   0.099   1.477   1.691 -0.0001  0.0381  0.1655
 3339W        W 7083   2.729   2.579  12.075 -0.1831  0.1035 -0.1437
 3340W        W 7084   6.164   5.399   9.104  0.0343 -0.0649  0.0235
 3341W        W 7085   8.724   7.618  11.961 -0.0296  0.0435  0.4289
 3342W        W 7086   8.514   8.943  10.612  0.0570  0.0030 -0.1246
 3343W        W 7087   3.010   7.223   3.544 -0.0482 -0.0425  0.2013
 3344W        W 7088   8.375   1.971  11.636  0.0416 -0.1891  0.0415
 3345W        W 7089   3.909   8.463   1.231 -0.0927 -0.1032  0.1226
 3346W        W 7090   4.303   7.957  10.418  0.0550  0.0066  0.2925
 3347W        W 7091   4.211   6.277  10.448  0.1932  0.0383  0.0310
 3348W        W 7092   3.783   3.195  12.568  0.2296  0.0123  0.1255
 3349W        W 7093   9.696   0.870   8.569 -0.2004  0.2073 -0.1145
 3350W        W 7094   7.591   9.495   1.020 -0.0482 -0.0813 -0.1551
 3351W        W 7095   6.403   7.667   1.954  0.1740  0.1547  0.2626
 3352W        W 7096   9.885   4.151  11.291  0.1777 -0.0774  0.2653
 3353W        W 7097   4.485   7.742  11.668 -0.1039 -0.6057  0.1845
 3354W        W 7098   6.393   1.787   9.508 -0.1801 -0.3391 -0.0526
 3355W        W 7099   7.048   2.394   3.592  0.3056 -0.0183  0.1762
 3356W        W 7100   7.328   4.636  12.631 -0.0293  0.0580 -0.0983
 3357W        W 7101   9.185   0.852  11.788 -0.0404 -0.3060 -0.0800
 3358W        W 7102   4.646   4.122  11.987 -0.1702  0.0593 -0.0422
 3359W        W 7103   6.756   7.707  11.234  0.0642  0.1037  0.1534
 3360W        W 7104   3.526   9.553   3.074  0.0078 -0.2266  0.2536
 3361W        W 7105   3.990   3.881   9.921 -0.1759  0.2303  0.0356
 3362W        W 7106   7.158   1.365  11.538  0.1286 -0.0768  0.0295
 3363W        W 7107   5.699   7.942   9.993 -0.2057  0.0267 -0.2088
 3364W        W 7108   9.942   0.212  11.523 -0.0921 -0.0395 -0.1417
 3365W        W 7109   6.880   8.811   9.704  0.0483 -0.0413 -0.1312
 3366W        W 7110   6.752   4.620  11.947 -0.1497 -0.1991  0.0511
 3367W        W 7111   2.065   9.390   2.600 -0.4077 -0.0095 -0.1249
 3368W        W 7112   3.848   9.187   8.589  0.0986  0.1470 -0.3197
 3369W        W 7113   1.354   3.494  12.425 -0.1260 -0.0646 -0.1961
 3370W        W 7114   7.136   6.188  12.357 -0.2370 -0.1004  0.0289
 3371W        W 7115   5.697   6.017  12.283  0.2361 -0.1154  0.2581
 3372W        W 7116   3.483   2.662  11.154  0.2619 -0.2016  0.1890
 3373W        W 7117   9.419   2.442   4.030 -0.0387  0.0393  0.0587
 3374W        W 7118   3.894   3.535   9.108 -0.2900  0.0620 -0.2340
 3375W        W 7119   0.449   0.262   9.822  0.1713  0.2921  0.2012
 3376W        W 7120   8.943   0.158   8.821  0.3128  0.0039 -0.0512
 3377W        W 7121   5.881   6.653  11.555 -0.1129  0.1674  0.1439
 3378W        W 7122   0.541   9.485   2.785  0.1375  0.0136 -0.3060
 3379W        W 7123   9.917   0.776   1.787 -0.3437  0.0390 -0.0024
 3380W        W 7124   7.006   5.943   1.228 -0.2840  0.1540 -0.0665
 3381W        W 7125   7.249   1.177  10.516  0.1052  0.0257  0.0026
 3382W        W 7126   5.451   4.394   9.119 -0.0423 -0.3461 -0.1326
 3383W        W 7127   8.776   2.454  12.591 -0.1006 -0.1169  0.2345
 3384W        W 7128   3.384   2.179   9.452 -0.0145  0.0900 -0.3158
 3385W        W 7129   3.781   3.245   2.260  0.0627 -0.0397 -0.2112
 3386W        W 7130   3.054   7.688   2.015 -0.0833  0.0492 -0.0129
 3387W        W 7131   5.789   2.033  11.687  0.2451  0.0246 -0.1171
 3388W        W 7132   8.976   3.966  10.750  0.2020  0.2773 -0.1328
 3389W        W 7133   9.822   0.558  11.054  0.1828 -0.0246 -0.0265
 3390W        W 7134   6.023   1.651   2.432  0.0233  0.0293  0.1228
 3391W        W 7135   5.613   2.975  11.393 -0.2129 -0.3055  0.0531
 3392W        W 7136   1.234   8.296   3.604  0.1888 -0.0406 -0.0177
 3393W        W 7137   1.325   7.436   9.994 -0.0834 -0.1840  0.0054
 3394W        W 7138   0.646   0.938   0.160  0.0357  0.0520 -0.0355
 3395W        W 7139   7.644   2.451  11.775  0.1878 -0.2824  0.0384
 3396W        W 7140   1.869   2.534   8.494  0.0307  0.0672  0.1545
 3397W        W 7141   0.900   9.903   2.431 -0.0691 -0.1138 -0.0084
 3398W        W 7142   2.220   0.367   7.915 -0.0382  0.0769  0.1739
 3399W        W 7143   9.924   4.247  10.378 -0.0429 -0.2580 -0.1299
 3400W        W 7144   9.451   1.176  10.438  0.0324 -0.3346 -0.3000
 3401W        W 7145   8.038   5.146  12.497  0.0351  0.0611  0.1153
 3402W        W 7146   7.055   2.035   3.248  0.5505 -0.0501  0.0079
 3403W        W 7147   9.097   5.086   3.438  0.5172  0.2410 -0.2416
 3404W        W 7148   4.144   9.342  10.958 -0.0594  0.1264  0.2402
 3405W        W 7149   2.482   6.879   2.938  0.1371  0.0767 -0.1963
 3406W        W 7150   1.711   1.568  10.070 -0.2432 -0.1232  0.7293
 3407W        W 7151   8.534   8.541  10.893 -0.1526  0.1922  0.2981
 3408W        W 7152   2.014   4.690   8.789 -0.1615  0.2254 -0.3208
 3409W        W 7153   9.202   1.750  12.322  0.0225 -0.2917 -0.3478
 3410W        W 7154   0.181   7.686   8.702 -0.2271 -0.0862 -0.0403
 3411W        W 7155   7.041   9.016   4.318  0.2279 -0.0640  0.2348
 3412W        W 7156   4.884   4.998   2.682 -0.0959 -0.0363 -0.2065
 3413W        W 7157   5.685   0.756   1.515  0.0236 -0.2722 -0.1158
 3414W        W 7158   5.100   3.885   0.970  0.0911  0.2489  0.0260
 3415W        W 7159   1.364   3.083   5.272  0.4749 -0.3684 -0.2380
 3416W        W 7160   4.973   4.273  10.033 -0.0720 -0.2879  0.2396
 3417W        W 7161   1.513   6.126   4.182  0.1683 -0.0209  0.2524
 3418W        W 7162   3.430   7.937   9.363  0.0342 -0.0786 -0.1455
 3419W        W 7163   0.194   0.795   3.934 -0.1207 -0.0784 -0.0099
 3420W        W 7164   5.395   6.895   2.818  0.0755  0.0022 -0.0051
 3421W        W 7165   9.052   8.057  12.030 -0.1724 -0.0867  0.0771
 3422W        W 7166   2.288   2.019   5.009  0.0188 -0.0211  0.2034
 3423W        W 7167   3.047   4.512   1.462 -0.0026 -0.1270 -0.0924
 3424W        W 7168   7.911   6.468   1.118  0.1857  0.0265  0.1224
 3425W        W 7169   2.195   3.397   4.045  0.2305 -0.0174  0.4115
 3426W        W 7170   7.703   8.404  12.308 -0.0919 -0.1810 -0.2321
 3427W        W 7171   1.187   0.587   0.576  0.2891  0.0708 -0.0333
 3428W        W 7172   8.151   3.774   0.530  0.2050 -0.2073  0.0977
 3429W        W 7173   8.860   7.520   1.170 -0.0861 -0.3641 -0.1965
 3430W        W 7174   0.662   7.300   0.172 -0.1901 -0.0183  0.4060
 3431W        W 7175   2.811   9.206   9.499  0.1649 -0.3335  0.1559
 3432W        W 7176   2.355   8.741  10.943  0.0541 -0.0004  0.1471
 3433W        W 7177   0.824   5.460   4.481  0.0896  0.1439  0.0926
 3434W        W 7178   1.378   3.786   1.539 -0.1002  0.3522 -0.0388
 3435W        W 7179   6.667   2.343   8.285  0.2911 -0.0134 -0.0557
 3436W        W 7180   3.096   6.849   8.678 -0.1999 -0.0330 -0.3668
 3437W        W 7181   3.570   8.096   1.338  0.0193 -0.1265  0.3402
 3438W        W 7182   7.316   5.489   3.146  0.0425  0.2551  0.1363
 3439W        W 7183   5.080   8.373   2.440 -0.2461  0.2205 -0.2330
 3440W        W 7184   7.028   3.368  12.413 -0.2967 -0.2637  0.0215
 3441W        W 7185   7.464   3.027  10.289 -0.3582  0.4068  0.1034
 3442W        W 7186   8.961   0.498  11.506 -0.1171 -0.0774  0.1007
 3443W        W 7187   3.995   1.402   0.873  0.3417 -0.2956  0.1047
 3444W        W 7188   6.512   9.127  11.364  0.1300 -0.3986 -0.2849
 3445W        W 7189   4.389   5.060   2.786 -0.1979 -0.0275  0.0508
 3446W        W 7190   6.907   7.985   4.372  0.0826  0.0282  0.1754
 3447W        W 7191   9.762   5.978   2.015  0.0203  0.0115  0.2684
 3448W        W 7192   1.646   0.879   8.592 -0.2783  0.1441  0.1984
 3449W        W 7193   6.314   4.195   2.809  0.1992 -0.3990  0.0210
 3450W        W 7194   5.880   0.956   9.323 -0.0569  0.2578 -0.2021
 3451W        W 7195   3.337   5.731   9.762  0.2023 -0.0375  0.2268
 3452W        W 7196   4.017   4.241   3.401  0.1164 -0.2227 -0.2397
 3453W        W 7197   8.056   5.313   2.509  0.1818  0.1698 -0.4454
 3454W        W 7198   1.397   3.695   0.237  0.0018  0.2058  0.1749
 3455W        W 7199   6.568   6.852   1.346  0.2721  0.0686 -0.1983
 3456W        W 7200   9.580   3.848   2.283  0.1727 -0.2080  0.0088
 3457W        W 7201   0.093   1.520   0.541  0.0641 -0.0329  0.1744
 3458W        W 7202   3.857   1.261   4.084  0.3580 -0.0966  0.3227
 3459W        W 7203   4.616   8.708   8.470  0.1540  0.0908  0.2965
 3460W        W 7204   8.977   3.955   8.974  0.1146 -0.0782  0.0635
 3461W        W 7205   1.469   4.706   8.238  0.0697  0.0254 -0.3855
 3462W        W 7206   9.675   9.555   3.689  0.1223 -0.1098 -0.1765
 3463W        W 7207   6.054   5.224  12.025 -0.0552 -0.1096 -0.1071
 3464W        W 7208   1.621   2.833   1.984  0.0870  0.1393  0.3249
 3465W        W 7209   1.545   9.976  10.011  0.0528  0.0414  0.1622
 3466W        W 7210   6.724   9.750   1.521 -0.1141 -0.2724 -0.2035
 3467W        W 7211   2.692   7.943   9.955  0.0415  0.0899 -0.0806
 3468W        W 7212   9.357   1.210   4.139 -0.3512 -0.1927  0.2663
 3469W        W 7213   8.694   6.042   2.546 -0.0584  0.0552  0.3089
 3470W        W 7214   9.038   2.829  11.534  0.2862 -0.2119 -0.4067
 3471W        W 7215   4.132   1.785  11.295  0.2051 -0.0646  0.2875
 3472W        W 7216   2.296   7.571   2.944 -0.1363  0.0794  0.3082
 3473W        W 7217   4.845   1.713   8.766 -0.1195  0.0655 -0.0775
 3474W        W 7218   2.785   4.156  10.271 -0.0599  0.1067 -0.1545
 3475W        W 7219   4.790   1.245  10.372 -0.1009 -0.1218  0.2190
 3476W        W 7220   6.607   3.393  10.195  0.1002 -0.2559  0.0944
 3477W        W 7221   2.477   4.946   0.532 -0.0553  0.1337  0.1560
 3478W        W 7222   6.239   2.600   9.066 -0.1270 -0.0982 -0.0316
 3479W        W 7223   5.691   1.770   8.219  0.1650 -0.3145 -0.0946
 3480W        W 7224   9.801   2.844   2.897 -0.0275  0.1866 -0.2600
 3481W        W 7225   3.385   7.056   3.093 -0.1601  0.0639  0.2685
 3482W        W 7226   8.394   9.610   9.207 -0.1349 -0.1448 -0.2065
 3483W        W 7227   1.673   6.966   3.292  0.3355  0.1873 -0.1778
 3484W        W 7228   9.468   3.021   1.937  0.1244 -0.1689 -0.0610
 3485W        W 7229   2.020   3.104   9.900 -0.0236  0.0188 -0.0961
 3486W        W 7230   4.370   2.746   9.780 -0.4308 -0.0294  0.0785
 3487W        W 7231   7.000   1.636   8.724  0.1192 -0.0299  0.3084
 3488W        W 7232   6.235   5.143  10.840 -0.3677  0.2005  0.2819
 3489W        W 7233   2.728   6.482   1.597 -0.2196  0.1341  0.1374
 3490W        W 7234   2.425   2.442  12.568  0.2547  0.0013  0.0251
 3491W        W 7235   2.027   3.490  10.690  0.2031 -0.3744 -0.2262
 3492W        W 7236   4.429   6.357  10.907 -0.0145  0.3302 -0.1462
 3493W        W 7237   7.098   6.704   3.107 -0.2730 -0.3222  0.0913
 3494W        W 7238   7.528   5.895   1.167  0.0556  0.0770  0.2655
 3495W        W 7239   6.726   3.579   1.487  0.1654 -0.0223 -0.2513
 3496W        W 7240   9.628   9.721   1.927  0.0883 -0.0846 -0.2505
 3497W        W 7241   0.878   6.206   9.216 -0.0965  0.0046 -0.1961
 3498W        W 7242   8.922   5.440   0.333  0.0049 -0.2542 -0.1518
 3499W        W 7243   1.169   1.939   8.686  0.1433  0.2116 -0.0412
 3500W        W 7244   5.297   4.458   2.334 -0.0140 -0.1008 -0.0069
 3501W        W 7245   2.365   2.121  11.502 -0.2071 -0.1950  0.0869
 3502W        W 7246   5.962   6.865  12.212  0.0838 -0.3489  0.1633
 3503W        W 7247   1.222   0.981   9.965  0.2847 -0.1101  0.1330
 3504W        W 7248   2.340   5.302   2.231 -0.0556 -0.1055 -0.0637
 3505W        W 7249   6.176   7.123   2.065  0.1089 -0.1602  0.2462
 3506W        W 7250   2.478   5.584   1.264 -0.1284 -0.1160  0.2398
 3507W        W 7251   7.910   1.398   4.922  0.1899  0.0104 -0.2193
 3508W        W 7252   0.822   6.424  10.108 -0.1011 -0.0216 -0.0547
 3509W        W 7253   3.091   2.897  10.349  0.3744  0.1099 -0.2480
 3510W        W 7254   9.305   5.711   2.832  0.2009  0.0664  0.0313
 3511W        W 7255   0.978   1.235   1.755  0.1249  0.2451 -0.3041
 3512W        W 7256   9.983   2.961  11.724  0.1375 -0.0936 -0.2010
 3513W        W 7257   0.843   5.431   3.034 -0.0364  0.0492 -0.0916
 3514W        W 7258   4.333   2.727  11.521 -0.1748  0.1343 -0.1980
 3515W        W 7259   9.968   2.655   0.678 -0.2950 -0.0153  0.1735
 3516W        W 7260   3.138   8.810   9.277 -0.0019 -0.1019  0.0493
 3517W        W 7261   1.807   3.560   5.061  0.0111 -0.2844  0.0003
 3518W        W 7262   6.106   7.460   2.844 -0.0088  0.1445  0.1034
 3519W        W 7263   1.192   4.623  11.182 -0.0864 -0.0975  0.2112
 3520W        W 7264   5.517   4.000   9.463 -0.3098  0.2011  0.1342
 3521W        W 7265   4.648   2.013   4.762 -0.0377 -0.1680 -0.1322
 3522W        W 7266   2.540   8.897  10.221 -0.0501  0.0870 -0.3131
 3523W        W 7267   0.044   4.508   3.313 -0.0553  0.0726  0.1579
 3524W        W 7268   8.809   4.296   2.312  0.0908  0.1811  0.1897
 3525W        W 7269   3.315   0.607  11.850 -0.0036  0.1170  0.1102
 3526W        W 7270   0.821   4.850   1.530  0.2259  0.1350 -0.0551
 3527W        W 7271   5.851   2.729   1.033  0.1086 -0.3348 -0.1293
 3528W        W 7272   5.640   6.986  11.245 -0.1962  0.1703 -0.2777
 3529W        W 7273   2.830   0.923   1.360  0.1723  0.0196 -0.0065
 3530W        W 7274   0.029   9.654   3.983 -0.3519  0.2782 -0.0182
 3531W        W 7275   7.371   6.924   0.354  0.1489  0.1694 -0.3521
 3532W        W 7276   0.733   2.678  12.089 -0.1113  0.1900  0.1915
 3533W        W 7277   3.433   2.334   8.023 -0.3324  0.0041  0.0403
 3534W        W 7278   8.437   8.718   2.491 -0.1640  0.0144  0.0605
 3535W        W 7279   8.028   6.674   2.372  0.1481  0.3282  0.0473
 3536W        W 7280   8.128   8.981  12.178  0.0076  0.0085  0.1432
 3537W        W 7281   5.701   3.458   4.272 -0.3611  0.1186 -0.2912
 3538W        W 7282   6.711   8.667   3.185 -0.0223  0.1471 -0.1035
 3539W        W 7283   2.987   4.993  10.330 -0.1560  0.1301  0.0112
 3540W        W 7284   1.861   4.435   1.121  0.0695  0.0580 -0.0976
 3541W        W 7285   4.269   4.279   7.959 -0.0324  0.2553 -0.0960
 3542W        W 7286   1.069   7.778   3.895 -0.1466 -0.3145 -0.2971
 3543W        W 7287   2.860   9.743   7.932  0.0130  0.0792  0.4534
 3544W        W 7288   5.085   9.333   0.906 -0.2522 -0.0618  0.1262
 3545W        W 7289   7.384   4.804  11.234  0.3738  0.2138 -0.1553
 3546W        W 7290   4.855   2.066   4.334 -0.2675 -0.2191  0.0986
 3547W        W 7291   1.023   2.961   3.197 -0.0036  0.0557  0.1398
 3548W        W 7292   9.530   6.721  11.230  0.1736  0.2022 -0.0993
 3549W        W 7293   4.900   3.112   2.037  0.4207  0.1436 -0.0579
 3550W        W 7294   4.316   3.642   1.454  0.0866 -0.2431  0.1227
 3551W        W 7295   8.681   9.536   3.588 -0.2713  0.0739 -0.0636
 3552W        W 7296   5.587   3.183  10.178 -0.0498 -0.0690 -0.3770
 3553W        W 7297   4.255   4.613  10.167  0.0480  0.3286  0.2630
 3554W        W 7298   1.722   6.355  11.092 -0.0671  0.2920  0.1207
 3555W        W 7299   3.732   2.794   1.443  0.0863 -0.2794 -0.1042
 3556W        W 7300   7.018   5.672   2.300  0.2099 -0.2492 -0.0653
 3557W        W 7301   0.544   6.379   2.478  0.4528 -0.0398  0.2622
 3558W        W 7302   6.876   1.165   0.164 -0.0652  0.0081  0.0735
 3559W        W 7303   3.208   3.176   9.971 -0.1502 -0.0067  0.1339
 3560W        W 7304   3.614   5.982   4.591  0.2091  0.1690  0.1841
 3561W        W 7305   2.566   9.690   3.488  0.0891  0.0147  0.1329
 3562W        W 7306   1.566   7.296   1.649 -0.4378  0.0156  0.0619
 3563W        W 7307   2.167   9.567  11.537 -0.1166  0.0642  0.3191
 3564W        W 7308   9.891   1.986   9.235 -0.0889  0.1246  0.2650
 3565W        W 7309   0.181   7.861   9.967  0.2314 -0.0948 -0.2377
 3566W        W 7310   4.113   7.248   3.525  0.0524  0.1359  0.0605
 3567W        W 7311   6.226   5.143   8.229 -0.2169  0.3290 -0.0251
 3568W        W 7312   9.337   9.416  12.058  0.1219 -0.0006  0.3441
 3569W        W 7313   8.885   5.569   2.257  0.0415  0.2679 -0.1752
 3570W        W 7314   8.319   0.481   1.961  0.0379  0.1558  0.1980
 3571W        W 7315   5.005   2.282   9.939  0.2779  0.0145  0.1464
 3572W        W 7316   1.547   1.949  12.375 -0.1614 -0.1426 -0.1379
 3573W        W 7317   0.501   9.039   3.568 -0.0545  0.0771 -0.0541
 3574W        W 7318   2.551   0.694  11.980  0.1436 -0.0228 -0.2490
 3575W        W 7319   1.722   8.895  10.872 -0.3265 -0.1543  0.1367
 3576W        W 7320   3.016   5.866  10.058  0.0547  0.0665 -0.5985
 3577W        W 7321   0.051   6.314   1.610 -0.2671 -0.1166 -0.1261
 3578W        W 7322   2.711   8.690   0.018 -0.1479 -0.1460  0.2017
 3579W        W 7323   2.579   8.203   9.430  0.0999 -0.0763  0.1114
 3580W        W 7324   4.121   5.962   1.740  0.0191  0.0379 -0.1648
 3581W        W 7325   4.441   9.637  12.157  0.2026 -0.0189 -0.1671
 3582W        W 7326   3.457   3.354  10.368  0.1771 -0.0576  0.1377
 3583W        W 7327   1.840   1.901   1.825 -0.4399 -0.2227  0.0221
 3584W        W 7328   7.434   8.978   3.692  0.0924 -0.0434 -0.4134
 3585W        W 7329   0.611   7.816  10.214 -0.2226  0.3576 -0.1402
 3586W        W 7330   6.016   0.055   1.818  0.0153  0.1711  0.0320
 3587W        W 7331   6.332   6.776   8.780  0.2256 -0.0851 -0.0590
 3588W        W 7332   3.196   7.360   9.025  0.1273  0.1254  0.2718
 3589W        W 7333   1.765   9.401  11.852 -0.0019  0.0429 -0.1169
 3590W        W 7334   3.961   7.043   3.065 -0.1785  0.3765  0.2765
 3591W        W 7335   3.356   6.882  12.624 -0.1812  0.0551 -0.1716
 3592W        W 7336   6.157   9.890   2.380  0.1588  0.2487 -0.2954
 3593W        W 7337   2.303   9.683   9.353  0.2483 -0.0022 -0.0447
 3594W        W 7338   9.116   0.457   2.137 -0.1450  0.0338  0.0391
 3595W        W 7339   8.491   4.980   9.994 -0.0091  0.0162  0.3936
 3596W        W 7340   1.751   6.443  12.253  0.2911  0.2022  0.0044
 3597W        W 7341   1.482   5.880   9.861 -0.0916 -0.1185  0.0596
 3598W        W 7342   0.031   2.855   2.318 -0.2048  0.0028 -0.2997
 3599W        W 7343   0.845   9.100   3.079  0.0834  0.0541 -0.0934
 3600W        W 7344   2.304   5.908   2.988 -0.2518  0.0106  0.3434
 3601W        W 7345   3.442   8.508   2.504  0.0471 -0.3060  0.1460
 3602W        W 7346   2.578   7.825  11.001  0.1325 -0.0806 -0.1577
 3603W        W 7347   6.930   3.379   3.098 -0.4027 -0.1704  0.0888
 3604W        W 7348   2.193   6.689   3.350 -0.1106  0.1036 -0.0171
 3605W        W 7349   8.790   1.048   3.179  0.3406 -0.1602 -0.3008
 3606W        W 7350   9.421   6.790  10.698  0.1262 -0.0601 -0.0890
 3607W        W 7351   3.703   6.455  11.350  0.0373 -0.0155 -0.2419
 3608W        W 7352   0.264   8.173  12.283  0.2110  0.0492 -0.0120
 3609W        W 7353   0.008   5.771  10.081 -0.2262  0.0206 -0.0194
 3610W        W 7354   5.071   6.954   3.700 -0.2437 -0.3291 -0.2289
 3611W        W 7355   2.290   8.146   2.978 -0.1330 -0.1557 -0.0490
 3612W        W 7356   4.187   6.769  11.215 -0.0935  0.3467 -0.0016
 3613W        W 7357   0.385   0.992   1.870 -0.1232  0.1690 -0.1092
 3614W        W 7358   3.115   1.771  11.812  0.1210 -0.0775 -0.2191
 3615W        W 7359   9.011   7.862  10.123 -0.2403  0.0118  0.2219
 3616W        W 7360   4.258   5.987   8.883  0.1111 -0.2722 -0.0551
 3617W        W 7361   4.639   5.608   0.038  0.0849 -0.1257  0.0994
 3618W        W 7362   7.910   4.198   9.524  0.1510 -0.1955  0.4443
 3619W        W 7363   2.068   1.683   9.104  0.0095 -0.0122 -0.0717
 3620W        W 7364   8.604   3.940   9.868  0.0598  0.1687  0.1351
 3621W        W 7365   7.470   5.218  12.481 -0.0121 -0.0257  0.0749
 3622W        W 7366   8.143   1.802   9.325 -0.0589  0.1771 -0.2120
 3623W        W 7367   9.483   2.978  10.005  0.1045 -0.2320 -0.3739
 3624W        W 7368   5.368   6.134   3.451 -0.0092  0.1334  0.1728
 3625W        W 7369   3.483   8.868   0.550 -0.0812  0.0709 -0.2157
 3626W        W 7370   6.866   8.269  10.781  0.0597  0.0248  0.1262
 3627W        W 7371   9.139   3.759  11.446 -0.2221  0.0002  0.2136
 3628W        W 7372   7.603   5.769   1.677 -0.1641 -0.1078 -0.2122
 3629W        W 7373   8.849   6.872   2.037  0.2025  0.0050 -0.3378
 3630W        W 7374   0.841   9.843   3.036 -0.1774 -0.2551 -0.0546
 3631W        W 7375   5.090   6.245   8.965  0.1569 -0.0260  0.0438
 3632W        W 7376   9.973   1.856  10.670 -0.1643 -0.1916 -0.1693
 3633W        W 7377   4.997   2.336   0.065  0.0610  0.1980  0.0052
 3634W        W 7378   4.731   8.209  11.890  0.1644 -0.1821 -0.2110
 3635W        W 7379   8.361   0.258  10.547 -0.0126 -0.1055  0.2544
 3636W        W 7380   8.485   2.378   4.971  0.1239  0.1562  0.1785
 3637W        W 7381   3.203   2.463   0.282  0.0144 -0.1588  0.3316
 3638W        W 7382   6.558   5.845   9.903  0.0074  0.0517 -0.1414
 3639W        W 7383   6.201   0.794   0.255 -0.0579  0.1153 -0.0035
 3640W        W 7384   0.053   4.701  10.667  0.5611 -0.3151 -0.0555
 3641W        W 7385   3.124   4.352   8.380  0.0517 -0.0932 -0.1056
 3642W        W 7386   1.985   7.281   2.050 -0.1872 -0.4152  0.1758
 3643W        W 7387   0.714   8.388   1.035  0.0872  0.3360 -0.0421
 3644W        W 7388   0.762   7.823  11.131 -0.1627 -0.2696 -0.3205
 3645W        W 7389   7.696   3.815   1.492 -0.1450 -0.0482 -0.5066
 3646W        W 7390   6.832   4.358  11.120 -0.2685 -0.1763  0.5687
 3647W        W 7391   8.058   3.142  10.238  0.0784 -0.0026  0.1712
 3648W        W 7392   7.728   5.190  10.371 -0.0670  0.0761  0.3608
 3649W        W 7393   6.317   1.329   2.876 -0.2527 -0.0192  0.2278
 3650W        W 7394   4.827   1.942  11.905  0.1686  0.1416 -0.1816
 3651W        W 7395   3.844   8.338   3.382 -0.4108  0.0598 -0.3209
 3652W        W 7396   2.802   3.145   3.759 -0.1420  0.0375  0.3496
 3653W        W 7397   7.781   9.295   2.557 -0.2076  0.0857 -0.0798
 3654W        W 7398   5.554   4.415  10.146 -0.0746 -0.1018 -0.1550
 3655W        W 7399   6.094   3.965  12.607 -0.1913  0.0413 -0.1770
 3656W        W 7400   2.356   0.102   3.754  0.4925  0.4195  0.0707
 3657W        W 7401   4.013   7.540  11.824  0.0424 -0.2557  0.0020
 3658W        W 7402   6.184   3.559  11.365  0.0339  0.0345  0.0131
 3659W        W 7403   4.267   9.213  10.331 -0.0060 -0.0486  0.4517
 3660W        W 7404   5.071   0.112   9.729 -0.0764  0.1472 -0.2120
 3661W        W 7405   3.122   1.456   2.227 -0.1200 -0.1707  0.2950
 3662W        W 7406   8.763   2.385  11.628 -0.1288 -0.2442  0.2985
 3663W        W 7407   6.630   5.109   3.741  0.0681  0.2328 -0.3863
 3664W        W 7408   8.811   6.117   3.181  0.1960 -0.0070 -0.1164
 3665W        W 7409   2.189   9.574   1.826  0.0940  0.3434  0.2443
 3666W        W 7410   5.074   0.723   8.632  0.1344  0.0918  0.1445
 3667W        W 7411   5.060   4.205  12.269 -0.1877 -0.0220  0.0494
 3668W        W 7412   3.993   2.857  11.206 -0.4895  0.1491 -0.1377
 3669W        W 7413   2.907   9.545   0.285 -0.0838 -0.1573 -0.0469
 3670W        W 7414   2.811   6.762   0.567  0.2754 -0.0992  0.0985
 3671W        W 7415   0.911   3.830  11.589  0.0680  0.2651  0.0514
 3672W        W 7416   1.950   8.580  11.225 -0.2995 -0.3626  0.3974
 3673W        W 7417   1.706   1.846   4.059 -0.0957  0.2726 -0.1060
 3674W        W 7418   5.259   5.114   1.827 -0.3828 -0.1876 -0.0397
 3675W        W 7419   6.478   3.199  11.168  0.1954  0.4696 -0.2053
 3676W        W 7420   6.857   2.355  11.725 -0.1702 -0.0915 -0.1301
 3677W        W 7421   2.977   7.348   1.266  0.1929  0.4117  0.0867
 3678W        W 7422   3.767   2.086   8.465 -0.1933 -0.0599 -0.3215
 3679W        W 7423   5.382   0.948   1.173 -0.1541  0.0258  0.0232
 3680W        W 7424   1.185   4.805   2.290 -0.0300  0.2440  0.1159
 3681W        W 7425   3.806   3.534   3.032 -0.2993 -0.0843 -0.2044
 3682W        W 7426   4.609   6.941  11.353  0.3870 -0.4448  0.0227
 3683W        W 7427   4.098   3.099   0.756 -0.1931 -0.1043 -0.0555
 3684W        W 7428   2.034   2.199   2.362  0.2212  0.0644  0.0472
 3685W        W 7429   8.991   0.950   4.427  0.0383 -0.2428  0.0373
 3686W        W 7430   1.871   6.318   9.715 -0.0863  0.2584 -0.0697
 3687W        W 7431   9.777   3.559   2.770 -0.1087 -0.0764 -0.0991
 3688W        W 7432   6.136   0.814   3.955  0.0552 -0.0736  0.0019
 3689W        W 7433   3.299   1.016   1.293 -0.0872 -0.1059 -0.0001
 3690W        W 7434   6.453   8.181   1.626 -0.1209  0.2141  0.0002
 3691W        W 7435   5.655   5.297   9.335  0.0233 -0.0466 -0.1973
 3692W        W 7436   3.502   7.251   3.585 -0.2389 -0.2097 -0.3962
 3693W        W 7437   3.744   4.817   1.006 -0.1367 -0.2347 -0.0293
 3694W        W 7438   7.192   0.127   2.784  0.2170 -0.4380  0.2742
 3695W        W 7439   0.348   8.051  11.041  0.0154 -0.1932  0.0230
 3696W        W 7440   6.814   0.037   0.677  0.4083  0.2404 -0.1700
 3697W        W 7441   6.099   4.893  11.299 -0.1652 -0.1971  0.2332
 3698W        W 7442   7.110   6.711   9.976  0.0983  0.0250  0.2991
 3699W        W 7443   8.834   6.797   3.389 -0.1247  0.0375 -0.0562
 3700W        W 7444   1.265   2.397   1.100 -0.0868  0.1664 -0.0127
 3701W        W 7445   6.653   6.375   3.446 -0.0807 -0.2364  0.4162
 3702W        W 7446   2.324   8.891   1.870  0.2064  0.2859  0.2577
 3703W        W 7447   2.865   4.560   1.972 -0.2717 -0.3076  0.1023
 3704W        W 7448   9.874   1.343  10.620  0.0357 -0.1867 -0.0502
 3705W        W 7449   0.016   9.599   9.636 -0.0865  0.2091 -0.1091
 3706W        W 7450   4.180   2.896   8.485  0.0089  0.3014  0.2879
 3707W        W 7451   8.359   1.727   8.864 -0.1204  0.1334 -0.0417
 3708W        W 7452   5.133   7.404  10.514 -0.1549  0.0806  0.0180
 3709W        W 7453   8.199   0.220   0.189  0.0803  0.1776 -0.1717
 3710W        W 7454   8.050   0.771   9.971  0.0883 -0.2195  0.2620
 3711W        W 7455   5.618   0.338  10.603  0.2837 -0.1933  0.0742
 3712W        W 7456   2.925   5.827  11.728  0.2228  0.1166 -0.0828
 3713W        W 7457   8.925   1.672   0.055  0.3111  0.0620 -0.0130
 3714W        W 7458   4.010   7.706  11.345  0.1110 -0.0777  0.1351
 3715W        W 7459   3.484   4.697   9.081 -0.3480  0.2398  0.1364
 3716W        W 7460   7.677   8.715  11.395  0.0357  0.1680  0.3556
 3717W        W 7461   8.871   7.296  11.542 -0.1923  0.2876  0.0505
 3718W        W 7462   3.927   1.067  10.767 -0.3289 -0.4431  0.0418
 3719W        W 7463   8.733   2.147   3.250 -0.0597 -0.1174 -0.2043
 3720W        W 7464   8.018   1.484   9.737 -0.1423 -0.2400  0.3004
 3721W        W 7465   0.479   2.118   9.417 -0.1788  0.0809  0.1145
 3722W        W 7466   0.804   8.725   0.683 -0.2991 -0.1213 -0.0841
 3723W        W 7467   7.120   4.555   2.982  0.1363 -0.5415 -0.1906
 3724W        W 7468   3.766   5.892   2.414  0.0192  0.1114 -0.0261
 3725W        W 7469   5.240   0.194  10.985  0.1881 -0.2639  0.0075
 3726W        W 7470   3.260   4.437  11.022  0.1371  0.0724 -0.0350
 3727W        W 7471   6.144   8.329   0.497 -0.1642  0.2248 -0.1423
 3728W        W 7472   1.560   8.590   2.466 -0.1422  0.2411  0.2285
 3729W        W 7473   7.172   5.890   0.083  0.1050 -0.1069 -0.0421
 3730W        W 7474   4.488   4.740   0.868 -0.2783 -0.0913 -0.2311
 3731W        W 7475   2.998   9.914  10.488 -0.2913 -0.0708  0.1501
 3732W        W 7476   2.788   5.750   0.242  0.2397 -0.0089  0.4797
 3733W        W 7477   0.156   7.034  11.644 -0.0327 -0.1252  0.1679
 3734W        W 7478   2.064   4.846   4.986  0.0722  0.0200 -0.1403
 3735W        W 7479   6.575   3.575   9.228  0.2512 -0.2197  0.2037
 3736W        W 7480   1.700   5.014   8.559  0.0702  0.1169 -0.2141
 3737W        W 7481   4.887   1.248   1.040 -0.0149 -0.0003  0.2268
 3738W        W 7482   0.685   8.669   1.529  0.0503  0.1898  0.2012
 3739W        W 7483   5.151   2.826   3.214  0.0274 -0.2087  0.0694
 3740W        W 7484   6.538   2.249   4.007  0.1115 -0.0373  0.2593
 3741W        W 7485   5.897   7.743   9.364  0.0908  0.0537 -0.0227
 3742W        W 7486   3.477   8.284  12.395  0.1421 -0.0700 -0.1727
 3743W        W 7487   7.126   1.866  12.531 -0.4266 -0.0284  0.0022
 3744W        W 7488   7.150   0.182   4.313 -0.2630  0.0666  0.1441
 3745W        W 7489   2.620   5.242  11.566  0.1481 -0.1508  0.0059
 3746W        W 7490   0.305   6.068  10.397 -0.0570  0.1669 -0.2646
 3747W        W 7491   1.798   6.768   3.751 -0.0122  0.1450 -0.2195
 3748W        W 7492   0.142   2.691  11.305 -0.0032  0.2598  0.0947
 3749W        W 7493   4.108   7.897   3.587  0.4980 -0.1844 -0.0153
 3750W        W 7494   3.751   0.825   0.484 -0.2838 -0.1089 -0.0771
 3751W        W 7495   0.462   0.583   0.518 -0.2815  0.0465 -0.1553
 3752W        W 7496   7.437   4.181   3.183  0.0727  0.0994  0.0619
 3753W        W 7497   2.265   4.402   2.841 -0.2577  0.0613 -0.0590
 3754W        W 7498   1.333   1.468   3.735  0.1366  0.0414  0.0877
 3755W        W 7499   4.196   2.080   1.325  0.3385 -0.1843 -0.0270
 3756W        W 7500   1.694   5.560   2.507 -0.0501 -0.0543 -0.2141
 3757W        W 7501   7.155   5.434  10.822 -0.1287 -0.0315 -0.0627
 3758W        W 7502   8.403   9.824  11.693 -0.3581  0.1368  0.0089
 3759W        W 7503   0.612   5.642  12.304  0.3780  0.2578  0.1639
 3760W        W 7504   9.221   5.843   0.589 -0.0398  0.0654 -0.1483
 3761W        W 7505   1.539   7.550  11.583 -0.2509  0.0033 -0.3172
 3762W        W 7506   1.628   3.181   9.547  0.0478  0.4072 -0.0330
 3763W        W 7507   8.871   0.043  10.205 -0.0319  0.2177  0.2542
 3764W        W 7508   1.530   3.226   0.149 -0.1828  0.2326 -0.3060
 3765W        W 7509   5.664   7.785   0.321  0.0151 -0.3274  0.0501
 3766W        W 7510   9.131   4.981  12.078  0.0160 -0.0651 -0.0495
 3767W        W 7511   1.355   0.246   1.589 -0.1461 -0.0408 -0.0309
 3768W        W 7512   0.268   8.604   0.691 -0.0699 -0.0059 -0.1558
 3769W        W 7513   1.614   8.009   2.167 -0.1054 -0.2485 -0.2307
 3770W        W 7514   6.322   2.210   8.734 -0.0186  0.2041  0.3825
 3771W        W 7515   8.413   2.191   4.372  0.1887  0.0648  0.2296
 3772W        W 7516   1.090   7.975  10.119 -0.0061 -0.2405 -0.1406
 3773W        W 7517   7.142   5.223   9.769  0.1961 -0.0633  0.2220
 3774W        W 7518   6.528   7.665  10.300  0.1960 -0.0172 -0.2228
 3775W        W 7519   7.128   8.422   2.195 -0.0519 -0.1673  0.4520
 3776W        W 7520   8.464   1.606   0.305  0.3085  0.1926 -0.0224
 3777W        W 7521   5.300   7.385   2.675 -0.0275 -0.1428  0.3762
 3778W        W 7522   8.067   4.044   4.407  0.2652  0.2060 -0.1354
 3779W        W 7523   7.332   4.179   2.566  0.1026 -0.2245  0.1055
 3780W        W 7524   5.020   8.618   1.495 -0.4129 -0.1226 -0.1597
 3781W        W 7525   2.875   6.243   2.344  0.4411  0.2687  0.0331
 3782W        W 7526   5.968   5.202   1.293  0.1719 -0.2617 -0.0995
 3783W        W 7527   1.240   1.483   9.774 -0.0159  0.1441 -0.3230
 3784W        W 7528   7.334   6.561  11.530 -0.1009  0.1677  0.1726
 3785W        W 7529   6.040   5.920   1.424 -0.1661  0.3382  0.1201
 3786W        W 7530   3.469   8.685   9.881  0.4060 -0.3411 -0.0134
 3787W        W 7531   5.082   3.579   0.606 -0.0379 -0.0339  0.2388
 3788W        W 7532   1.015   1.267  10.311  0.0471  0.3185 -0.0498
 3789W        W 7533   2.436   6.266   2.624  0.0978  0.0445  0.1654
 3790W        W 7534   6.309   0.700   9.114 -0.5868  0.0198 -0.3163
 3791W        W 7535   1.510   1.980   1.325  0.2060  0.0689  0.0792
 3792W        W 7536   4.591   1.443   3.663  0.0858 -0.1240  0.5652
 3793W        W 7537   6.917   9.310   1.668 -0.1464 -0.0710  0.0686
 3794W        W 7538   6.002   8.796  10.888  0.1003  0.1715  0.0167
 3795W        W 7539   3.758   9.114  11.120 -0.0580  0.3754 -0.0612
 3796W        W 7540   0.659   3.706   2.071  0.1626 -0.4512  0.0145
 3797W        W 7541   3.709   1.841   1.272  0.1971  0.2177  0.2919
 3798W        W 7542   5.654   6.122   0.703  0.0367  0.2945  0.0221
 3799W        W 7543   1.093   7.353  11.262 -0.1543  0.2470 -0.0815
 3800W        W 7544   5.986   9.344   2.673 -0.0643 -0.3249  0.2781
 3801W        W 7545   4.659   4.175   9.449  0.0921  0.0488  0.1909
 3802W        W 7546   8.766   6.507  12.043  0.2473  0.0451 -0.1952
 3803W        W 7547   2.999   3.058   1.068  0.3150  0.1949 -0.1061
 3804W        W 7548   8.095   7.859   1.819  0.0594  0.2035  0.1333
 3805W        W 7549   9.237   7.214   1.293  0.1798 -0.1405  0.1286
 3806W        W 7550   2.315   4.236   1.260 -0.0400  0.0002  0.0237
 3807W        W 7551   7.520   9.898   9.196 -0.2337 -0.3189  0.1230
 3808W        W 7552   3.473   1.153  11.093  0.2885  0.0810 -0.2595
 3809W        W 7553   1.538   5.763  11.134  0.1566 -0.2511 -0.1002
 3810W        W 7554   0.008   3.703   1.967 -0.1230  0.1349  0.1247
 3811W        W 7555   2.585   6.974   1.433 -0.0872  0.3079 -0.2314
 3812W        W 7556   5.267   7.632  10.043  0.0202  0.0624  0.1305
 3813W        W 7557   4.611   3.210   3.603  0.0396  0.0236 -0.2561
 3814W        W 7558   7.701   3.151   9.252  0.0098 -0.2777 -0.1605
 3815W        W 7559   9.828   3.096  12.526 -0.1005 -0.5082 -0.1831
 3816W        W 7560   1.222   4.587   0.066 -0.3518  0.0684 -0.0296
 3817W        W 7561   1.201   4.782   3.985  0.1737  0.1969 -0.1309
 3818W        W 7562   6.506   9.393   2.663 -0.2062 -0.1839  0.0919
 3819W        W 7563   3.079   2.340   8.979  0.2718 -0.0345  0.2993
 3820W        W 7564   1.365   4.191  11.465  0.2146  0.2884 -0.1092
 3821W        W 7565   5.224   3.586   9.063  0.0942  0.0727  0.1889
 3822W        W 7566   9.491   3.997  10.413 -0.2220 -0.2982  0.0112
 3823W        W 7567   5.517   3.112  11.930  0.0956 -0.0190  0.2574
 3824W        W 7568   0.345   1.101   2.625  0.0453  0.0709 -0.4860
 3825W        W 7569   2.706   7.114   4.028  0.0268 -0.2110  0.0198
 3826W        W 7570   1.123   5.454   8.862  0.3301 -0.0180 -0.0397
 3827W        W 7571   4.612   4.553   1.310  0.0971 -0.1145 -0.2103
 3828W        W 7572   1.982   4.625  11.847 -0.1967  0.3740 -0.0035
 3829W        W 7573   8.686   9.101   2.779  0.0374 -0.1916  0.1306
 3830W        W 7574   9.641   8.391   1.208 -0.2308 -0.1308  0.0240
 3831W        W 7575   3.661   8.519   0.265  0.1241 -0.2132  0.1407
 3832W        W 7576   5.479   2.193   2.983 -0.1638 -0.0841  0.2740
 3833W        W 7577   3.247   3.609   0.506  0.0482  0.0175 -0.3022
 3834W        W 7578   7.867   8.631   2.559  0.0878 -0.0128  0.5007
 3835W        W 7579   0.801   0.484   8.685 -0.3325 -0.0353 -0.1682
 3836W        W 7580   5.541   0.766  10.339  0.1284 -0.0924 -0.5671
 3837W        W 7581   1.059   5.759   9.335 -0.1414  0.0865 -0.0918
 3838W        W 7582   6.489   0.375   0.440 -0.0040 -0.1004 -0.3319
 3839W        W 7583   0.932   5.890   0.284 -0.3003 -0.1160 -0.1325
 3840W        W 7584   6.980   4.193  11.579  0.1380 -0.2443 -0.4855
 3841W        W 7585   4.478   5.089  11.319 -0.1861  0.1308  0.0379
 3842W        W 7586   2.997   7.162   0.209  0.1012  0.1527 -0.0576
 3843W        W 7587   0.034   2.410  12.437 -0.0515  0.1251 -0.2443
 3844W        W 7588   6.971   6.616  11.894  0.0090  0.1201  0.3568
 3845W        W 7589   2.117   5.429   0.820  0.0725 -0.1486 -0.0899
 3846W        W 7590   1.557   3.061   0.669 -0.2511  0.2184 -0.1613
 3847W        W 7591   3.229   2.262  10.889  0.0076 -0.0641 -0.2754
 3848W        W 7592   7.979   0.030   8.980 -0.1739 -0.0551  0.1080
 3849W        W 7593   0.508   1.936   4.745 -0.0679  0.0795 -0.1821
 3850W        W 7594   1.663   7.116  10.748  0.0221 -0.0211 -0.0276
 3851W        W 7595   5.336   8.292   1.072 -0.0699  0.1608 -0.1741
 3852W        W 7596   6.338   7.561  10.918 -0.0470 -0.0652  0.2273
 3853W        W 7597   1.661   4.930   1.309 -0.0650 -0.0419  0.3141
 3854W        W 7598   6.806   8.822  12.098 -0.0931 -0.3051  0.0546
 3855W        W 7599   4.760   3.701   8.815  0.2463  0.2068 -0.0111
 3856W        W 7600   6.983   7.517  12.083  0.2316  0.1513 -0.2005
 3857W        W 7601   1.921   2.518  10.956 -0.1616 -0.1752  0.1320
 3858W        W 7602   0.146   8.471  10.286 -0.0392 -0.1189  0.1783
 3859W        W 7603   9.166   7.489   0.176 -0.0053 -0.2561 -0.1272
 3860W        W 7604   3.586   1.420   1.681 -0.2379  0.0598  0.0358
 3861W        W 7605   5.352   0.339   1.226  0.0255 -0.1158 -0.1934
 3862W        W 7606   5.819   4.121   3.160  0.0730  0.1877 -0.0691
 3863W        W 7607   3.546   8.191   9.879  0.0761  0.1220  0.1261
 3864W        W 7608   2.524   0.640   9.642 -0.0503 -0.1060 -0.1560
 3865W        W 7609   0.621   5.510   9.535 -0.1167  0.0399  0.1142
 3866W        W 7610   3.794   4.132   0.425 -0.0273 -0.0139  0.2486
 3867W        W 7611   5.208   8.458   9.681 -0.0840 -0.0508  0.1310
 3868W        W 7612   0.093   7.565   3.934  0.0868  0.0975 -0.5319
 3869W        W 7613   0.719   7.143   2.405  0.1678  0.0309 -0.1424
 3870W        W 7614   0.593   2.217   1.435  0.0501 -0.1318  0.0220
 3871W        W 7615   3.986   8.184   0.395 -0.0501  0.0070  0.2456
 3872W        W 7616   5.562   1.708   3.678  0.0957  0.1912 -0.2549
 3873W        W 7617   7.742   2.310  12.330 -0.0230  0.1113 -0.0639
 3874W        W 7618   0.642   2.864  10.217 -0.1252  0.1631  0.3421
 3875W        W 7619   0.648   4.997   1.053  0.3676 -0.1153  0.0900
 3876W        W 7620   1.929   5.366   9.446 -0.2866  0.1136 -0.1805
 3877W        W 7621   7.796   0.482  10.713  0.1878 -0.2194  0.1763
 3878W        W 7622   9.134   5.540   9.269  0.1862  0.2141  0.1761
 3879W        W 7623   2.816   2.941   0.430 -0.1723  0.0036 -0.0557
 3880W        W 7624   6.103   6.427   0.873  0.2148  0.0312 -0.0047
 3881W        W 7625   4.451   2.271   0.977 -0.2109  0.0406 -0.1642
 3882W        W 7626   8.400   3.321   0.368 -0.0323  0.2681 -0.1310
 3883W        W 7627   4.417   6.550   2.390  0.0061 -0.0242  0.0345
 3884W        W 7628   4.809   3.530   1.661  0.1867 -0.1153 -0.1919
 3885W        W 7629   0.306   1.393   2.118 -0.1672  0.0510 -0.0521
 3886W        W 7630   6.646   4.065  11.930  0.1455 -0.0718 -0.1363
 3887W        W 7631   6.626   3.746   3.273  0.0067 -0.2658  0.0561
 3888W        W 7632   1.428   9.407  12.222  0.2961  0.0255  0.2033
 3889W        W 7633   9.870   8.664   3.498  0.0145 -0.1637 -0.2639
 3890W        W 7634   4.252   7.276  11.492 -0.2398 -0.2141  0.0084
 3891W        W 7635   6.102   2.961   8.238  0.0741  0.0602  0.1335
 3892W        W 7636   9.423   2.014   8.982  0.0092  0.2001  0.3590
 3893W        W 7637   1.970   1.237   9.320  0.0562  0.0885  0.0876
 3894W        W 7638   8.749   6.584  10.599  0.0361 -0.1522  0.0226
 3895W        W 7639   0.788   0.794   2.153  0.0788  0.3829  0.0949
 3896W        W 7640   7.442   6.984   2.493  0.0603  0.1510  0.0963
 3897W        W 7641   4.626   4.758  10.596  0.0795 -0.1563  0.0254
 3898W        W 7642   5.619   8.233   9.356  0.0130  0.1750  0.3043
 3899W        W 7643   2.149   6.753  10.728  0.1484  0.1498 -0.1333
 3900W        W 7644   6.239   9.599  11.582 -0.4652 -0.0303  0.0502
 3901W        W 7645   2.182   6.818   4.299  0.1419  0.2071 -0.0872
 3902W        W 7646   4.544   6.452  11.397 -0.1163 -0.0251  0.0449
 3903W        W 7647   4.259   7.261   8.870  0.0691 -0.1588 -0.0422
 3904W        W 7648   2.072   1.045   4.306 -0.1514  0.2302  0.0614
 3905W        W 7649   6.940   7.058   1.626 -0.0542  0.2983  0.2940
 3906W        W 7650   6.357   6.861   9.750  0.1111 -0.2753  0.0275
 3907W        W 7651   7.450   6.510  12.120 -0.0705 -0.1164 -0.2875
 3908W        W 7652   5.269   6.402   0.473 -0.0583 -0.3813  0.2586
 3909W        W 7653   5.017   0.891   3.526 -0.0722  0.1047 -0.0233
 3910W        W 7654   1.722   7.149   9.854 -0.0484  0.0722  0.2573
 3911W        W 7655   3.428   3.864  11.135  0.1127  0.0902 -0.1186
 3912W        W 7656   3.341   1.656  12.279 -0.1220  0.0412 -0.1576
 3913W        W 7657   9.864   8.675   9.428  0.3713  0.0767 -0.2657
 3914W        W 7658   1.349   1.435   3.171 -0.2426 -0.2320 -0.3593
 3915W        W 7659   1.013   0.649   3.435  0.0962  0.3397 -0.0151
 3916W        W 7660   5.913   0.884   3.428 -0.0212 -0.3405 -0.1514
 3917W        W 7661   7.790   1.576   0.146  0.0931  0.3224 -0.1456
 3918W        W 7662   5.667   0.516   9.622 -0.2812  0.0738  0.0643
 3919W        W 7663   2.773   2.820   8.989  0.1175 -0.3533 -0.3705
 3920W        W 7664   0.157   2.192   3.645  0.1137 -0.1478 -0.3345
 3921W        W 7665   9.308   5.317  12.425  0.0778  0.3079 -0.2560
 3922W        W 7666   6.510   9.858   9.536  0.1359  0.0483 -0.2055
 3923W        W 7667   1.804   1.429   2.080 -0.0681  0.3924  0.0107
 3924W        W 7668   2.853   6.859  10.746 -0.1739 -0.3827  0.0214
 3925W        W 7669   1.857   1.604  11.448 -0.0864  0.2832 -0.2708
 3926W        W 7670   8.547   8.875  11.797 -0.2494 -0.2408  0.1995
 3927W        W 7671   5.744   4.790   4.215 -0.0738  0.0945 -0.1260
 3928W        W 7672   9.246   4.710   3.152  0.2188 -0.0390 -0.2399
 3929W        W 7673   0.729   4.045   2.967 -0.0785 -0.2260  0.1400
 3930W        W 7674   1.160   8.954   4.593 -0.0237  0.0078 -0.0590
 3931W        W 7675   8.367   8.179  10.591  0.0625 -0.0401  0.0702
 3932W        W 7676   4.303   2.410   3.057  0.0156  0.1789 -0.1034
 3933W        W 7677   9.971   0.109   8.122 -0.2602  0.0033 -0.3475
 3934W        W 7678   2.286   5.117   3.949 -0.1976 -0.1730  0.0060
 3935W        W 7679   8.800   8.089   1.369  0.1010 -0.4360  0.1078
 3936W        W 7680   2.346   0.440   9.148 -0.0004 -0.0097  0.0799
 3937W        W 7681   3.212   5.367   9.438 -0.0243 -0.0541 -0.1051
 3938W        W 7682   9.133   4.788  11.619  0.1682 -0.0677  0.2454
 3939W        W 7683   6.352   3.261   1.639  0.1771 -0.1408 -0.3125
 3940W        W 7684   4.787   1.469   0.032  0.0844  0.1245  0.0759
 3941W        W 7685   6.409   6.247  10.892  0.0656  0.0765  0.0044
 3942W        W 7686   2.044   1.082  11.617  0.3798  0.0776  0.1756
 3943W        W 7687   9.274   7.837   1.069 -0.0778 -0.1719  0.1273
 3944W        W 7688   9.658   7.500   2.407  0.0018 -0.2399  0.1582
 3945W        W 7689   4.115   5.118   8.957 -0.1408 -0.2671 -0.2102
 3946W        W 7690   9.713   0.451   3.510 -0.0566  0.0703  0.2744
 3947W        W 7691   5.112   6.090   2.466  0.1696  0.0702  0.0574
 3948W        W 7692   5.677   0.202   2.197  0.2843 -0.0665 -0.0956
 3949W        W 7693   6.641   9.118   3.967  0.2696 -0.2678  0.2022
 3950W        W 7694   2.299   5.456   2.692  0.0877 -0.3896 -0.0084
 3951W        W 7695   5.412   9.697   8.591  0.2250  0.2195  0.3669
 3952W        W 7696   8.579   9.895  10.788 -0.1008  0.2941 -0.4867
 3953W        W 7697   9.646   7.884  10.107  0.2272  0.1429 -0.2999
 3954W        W 7698   6.103   7.774   0.813 -0.2881  0.0187 -0.0907
 3955W        W 7699   2.946   6.800   3.116  0.2223  0.1232  0.1943
 3956W        W 7700   0.395   4.044   9.531  0.0003  0.2334  0.2195
 3957W        W 7701   4.569   9.623   3.218 -0.2163  0.0290 -0.2583
 3958W        W 7702   0.030   6.242   2.367 -0.0194  0.0996 -0.2883
 3959W        W 7703   5.423   6.560   9.811  0.0751 -0.2089 -0.1062
 3960W        W 7704   0.226   9.787  11.297  0.0967 -0.0197 -0.3545
 3961W        W 7705   2.229   3.354  12.208  0.2487 -0.2136  0.1095
 3962W        W 7706   4.784   7.802   3.367  0.1275 -0.0149 -0.0654
 3963W        W 7707   3.537   9.062   9.014  0.0756  0.1996 -0.1960
 3964W        W 7708   8.958   1.482   2.315 -0.0310 -0.0778 -0.0118
 3965W        W 7709   5.442   6.209   9.335  0.3466  0.0456 -0.4685
 3966W        W 7710   4.957   1.739  10.338  0.0947 -0.0985 -0.4814
 3967W        W 7711   8.585   3.854  11.474  0.0859  0.3667  0.2153
 3968W        W 7712   1.435   3.092   2.380 -0.1899  0.0249  0.3296
 3969W        W 7713   3.484   8.419   0.838 -0.2753  0.0964  0.1704
 3970W        W 7714   9.841   4.180   9.262  0.2965 -0.1811 -0.1513
 3971W        W 7715   5.332   4.242   8.192  0.0559 -0.1897 -0.0311
 3972W        W 7716   4.877   9.489   2.676 -0.0073 -0.0001  0.1381
 3973W        W 7717   6.966   3.369   9.914  0.2863  0.1633  0.1784
 3974W        W 7718   2.328   0.513   4.998  0.3178 -0.3620  0.0465
 3975W        W 7719   1.546   7.099   9.191  0.0066 -0.1652 -0.3593
 3976W        W 7720   4.159   5.269   9.428  0.0084 -0.0440  0.0042
 3977W        W 7721   0.085   7.709   2.246  0.0421  0.1184 -0.5455
 3978W        W 7722   1.566   8.674   8.088  0.2244  0.2002  0.0264
 3979W        W 7723   6.385   3.361   2.933 -0.1116  0.2812  0.1115
 3980W        W 7724   2.898   4.853  11.753  0.0177 -0.0512  0.1215
 3981W        W 7725   7.120   0.055  11.735  0.2559  0.0289 -0.0324
 3982W        W 7726   7.035   1.631  10.629 -0.2165  0.1199  0.0948
 3983W        W 7727   6.382   2.548   2.750 -0.3195  0.0242  0.0067
 3984W        W 7728   6.680   9.797  12.500 -0.4562 -0.0781 -0.0879
 3985W        W 7729   1.801   8.902   2.772 -0.0122  0.0266 -0.2008
 3986W        W 7730   8.042   9.015  11.631  0.1435 -0.2605  0.0645
 3987W        W 7731   4.289   4.858   3.794  0.1535 -0.1146 -0.1458
 3988W        W 7732   1.712   2.210   2.775  0.1592  0.0184 -0.0894
 3989W        W 7733   4.526   9.463  11.298  0.1634  0.0073 -0.2114
 3990W        W 7734   2.795   1.385   1.851  0.0257 -0.2868 -0.1835
 3991W        W 7735   2.281   9.980  10.376  0.0084 -0.0302 -0.1518
 3992W        W 7736   1.167   6.968   3.241  0.4058 -0.1189 -0.0996
 3993W        W 7737   2.554   5.176   8.713 -0.4128 -0.1104  0.1412
 3994W        W 7738   3.611   6.396   1.850  0.3636  0.1563  0.0864
 3995W        W 7739   9.060   7.692   1.619  0.2338 -0.0078 -0.1360
 3996W        W 7740   0.621   3.565   8.488 -0.1768 -0.0071 -0.2145
 3997W        W 7741   9.394   5.403   0.818  0.1166  0.3355 -0.1361
 3998W        W 7742   7.530   8.119  10.102  0.0908  0.2665 -0.1513
 3999W        W 7743   5.536   3.156   0.088 -0.2092  0.0714 -0.0469
 4000W        W 7744   8.600   8.654   1.325 -0.0415  0.1096 -0.2124
 4001W        W 7745   2.335   2.919   1.617 -0.0782  0.1125  0.0364
 4002W        W 7746   7.286   2.775   0.651 -0.0181 -0.0266 -0.1445
 4003W        W 7747   0.496   2.494   3.333  0.1439 -0.0859  0.2360
 4004W        W 7748   9.303   3.562  11.929 -0.0898 -0.0265  0.0013
 4005W        W 7749   9.344   2.768   8.526 -0.1041  0.2521 -0.2360
 4006W        W 7750   9.975   8.165  11.422  0.0824 -0.2789  0.0818
 4007W        W 7751   9.180   8.345   3.244 -0.0295 -0.0091  0.0565
 4008W        W 7752   4.809   9.140   8.585  0.0998 -0.1109 -0.1759
 4009W        W 7753   9.542   6.357  11.522 -0.0731  0.1634 -0.2194
 4010W        W 7754   0.064   8.646  12.317  0.0314  0.0938  0.2506
 4011W        W 7755   6.217   1.768  10.556 -0.1757  0.0799  0.0675
 4012W        W 7756   9.048   1.900   1.183  0.0103  0.0364  0.0654
 4013W        W 7757   5.845   6.216   3.476 -0.0256  0.0741  0.3901
 4014W        W 7758   7.804   1.038   3.113  0.2110 -0.0816 -0.1863
 4015W        W 7759   5.144   8.785   3.073  0.0247  0.0299 -0.0974
 4016W        W 7760   9.923   2.410   2.188 -0.0273  0.0879 -0.0917
 4017W        W 7761   4.639   1.028   8.808  0.2158  0.1642  0.0532
 4018W        W 7762   6.514   4.536  11.502  0.2235 -0.1023 -0.3166
 4019W        W 7763   0.457   3.307   0.851 -0.1800  0.2839  0.0640
 4020W        W 7764   3.362   1.334  11.827 -0.0700 -0.0402  0.0225
 4021W        W 7765   4.350   1.990   9.177  0.2607 -0.1711 -0.3702
 4022W        W 7766   2.215   8.585   9.735  0.1988  0.1986  0.1612
 4023W        W 7767   7.232   5.261   2.597  0.0308 -0.0165  0.0267
 4024W        W 7768   7.653   6.660  12.596 -0.0669 -0.0747  0.2066
 4025W        W 7769   1.435   2.337  11.086  0.1804 -0.1032 -0.1091
 4026W        W 7770   4.994   5.786   1.610 -0.0343 -0.0136 -0.1206
 4027W        W 7771   2.938   4.285  11.413  0.0232  0.0935 -0.1007
 4028W        W 7772   9.370   9.331  11.606 -0.0482  0.1150  0.2541
 4029W        W 7773   8.661   6.030   2.025  0.0539  0.1305 -0.1547
 4030W        W 7774   1.918   3.855   9.491 -0.3790 -0.0138  0.1074
 4031W        W 7775   6.941   1.960   2.690  0.0881 -0.1639  0.0512
 4032W        W 7776   1.276   7.777   3.074  0.0016 -0.1808 -0.0657
 4033W        W 7777   2.688   1.660   3.748 -0.2208  0.1228  0.2038
 4034W        W 7778   2.811   8.205   1.630  0.0576  0.1777  0.1102
 4035W        W 7779   4.142   4.150  10.365  0.1758  0.0834 -0.0589
 4036W        W 7780   9.454   9.943   4.755 -0.1982 -0.2784 -0.0102
 4037W        W 7781   6.798   6.745   9.605 -0.2837 -0.0673  0.0678
 4038W        W 7782   2.761   1.915   1.966 -0.1408  0.3069 -0.1713
 4039W        W 7783   0.615   3.347   2.480  0.2901 -0.0604 -0.0589
 4040W        W 7784   8.402   9.357  10.012  0.1984  0.2509 -0.0061
 4041W        W 7785   8.060   0.812  10.464 -0.1002  0.2751 -0.1469
 4042W        W 7786   2.770   2.474  10.211 -0.1434  0.0478  0.0031
 4043W        W 7787   1.678   9.550   0.951 -0.0775 -0.1886  0.1110
 4044W        W 7788   1.034   8.205  11.429  0.3034 -0.1136 -0.0998
 4045W        W 7789   6.988   2.463  10.035 -0.0089 -0.0771  0.0477
 4046W        W 7790   5.485   3.571  12.100 -0.3194  0.0032  0.0688
 4047W        W 7791   3.041   4.963   8.981 -0.0010  0.0415 -0.3972
 4048W        W 7792   9.725   5.453   2.860 -0.0401 -0.1801  0.1528
 4049W        W 7793   7.934   0.516   2.964 -0.0226  0.0935  0.0208
 4050W        W 7794   4.940   9.240   3.207  0.1893 -0.0098 -0.1508
 4051W        W 7795   4.122   3.043   3.677 -0.0710  0.1915 -0.1452
 4052W        W 7796   5.839   4.374  12.661 -0.1446 -0.1683 -0.1515
 4053W        W 7797   5.563   8.457  12.524  0.1872 -0.1380  0.0774
 4054W        W 7798   3.874   7.421   0.919  0.3545 -0.3101 -0.0999
 4055W        W 7799   6.797   5.832   2.741 -0.0052 -0.0046  0.0437
 4056W        W 7800   0.313   1.784   0.199  0.0352  0.1749  0.0947
 4057W        W 7801   3.046   0.693  12.301 -0.1182  0.0993  0.0787
 4058W        W 7802   5.811   3.323   2.715  0.2599 -0.3476  0.0082
 4059W        W 7803   3.209   2.016  11.358  0.0920 -0.2672 -0.3813
 4060W        W 7804   2.415   9.489   1.244  0.0074 -0.1244 -0.0346
 4061W        W 7805   1.866   8.872   3.778  0.1456  0.0305  0.1687
 4062W        W 7806   0.846   2.908   9.492 -0.0197  0.0018  0.0688
 4063W        W 7807   0.991   5.443  12.563 -0.4751 -0.2360 -0.0760
 4064W        W 7808   2.454   7.646   9.616 -0.1427 -0.4590  0.0245
 4065W        W 7809   5.421   3.602   3.413 -0.1173  0.1559  0.0393
 4066W        W 7810   5.050   6.920  10.431  0.0569 -0.1812  0.0691
 4067W        W 7811   7.030   2.999   0.229 -0.0162  0.3058 -0.2185
 4068W        W 7812   0.339   7.449   1.764  0.2049  0.0009  0.1562
 4069W        W 7813   8.376   9.235   3.347  0.2929 -0.0510  0.1114
 4070W        W 7814   5.676   7.517   0.788  0.0250 -0.2540 -0.1630
 4071W        W 7815   1.565   7.749   4.079  0.1126  0.0832  0.1337
 4072W        W 7816   1.163   0.983   8.955 -0.0435  0.0102  0.1173
 4073W        W 7817   4.014   6.239   7.912  0.3102  0.1183  0.3635
 4074W        W 7818   7.478   4.986   1.160  0.1799 -0.1758 -0.1001
 4075W        W 7819   8.499   2.669   2.414  0.1580  0.1417 -0.0931
 4076W        W 7820   8.539   8.307   0.970  0.2709 -0.1354 -0.1762
 4077W        W 7821   3.683   2.558  11.992  0.2592  0.0147 -0.0582
 4078W        W 7822   2.188   4.866   9.512  0.2311  0.1011  0.0144
 4079W        W 7823   2.675   5.139   9.345  0.0462 -0.0791 -0.0352
 4080W        W 7824   0.088   0.692   8.203  0.1264  0.1807  0.1302
 4081W        W 7825   4.357   9.202   3.401  0.0004  0.0313  0.2823
 4082W        W 7826   3.870   2.523   4.475  0.0216  0.1557 -0.2482
 4083W        W 7827   3.962   5.623  11.690  0.1374 -0.0879 -0.0682
 4084W        W 7828   4.315   5.406  12.286 -0.0593 -0.1140 -0.0628
 4085W        W 7829   6.480   6.120  10.346  0.0556  0.0695 -0.1943
 4086W        W 7830   8.136   4.267  10.726 -0.1412  0.0352 -0.0473
 4087W        W 7831   4.056   7.913   1.531 -0.0344  0.1010  0.0177
 4088W        W 7832   6.230   9.653  12.680 -0.1526 -0.1954 -0.2682
 4089W        W 7833   6.269   7.440   9.459 -0.1216  0.0742  0.0851
 4090W        W 7834   2.381   6.506   0.306  0.0856  0.0749 -0.0814
 4091W        W 7835   6.359   4.400   0.083  0.3367  0.0448  0.0147
 4092W        W 7836   2.475   7.649  12.035 -0.2099 -0.1845  0.2486
 4093W        W 7837   6.118   8.963   8.800  0.2663  0.0139 -0.2387
 4094W        W 7838   3.415   1.606   1.003  0.0109 -0.1400 -0.0405
 4095W        W 7839   8.285   5.825  11.616 -0.1738  0.2201 -0.2046
 4096W        W 7840   8.397   6.103  12.153  0.2087  0.0730 -0.0628
 4097W        W 7841   0.953   6.677   9.603 -0.1556  0.2722 -0.2899
 4098W        W 7842   4.612   3.791  12.393  0.4339 -0.1411  0.1946
 4099W        W 7843   0.325   2.641   8.009  0.0773  0.1981  0.0401
 4100W        W 7844   0.657   2.158  10.429 -0.0209  0.2263  0.0709
 4101W        W 7845   6.847   3.220   9.446 -0.0057 -0.0288 -0.2633
 4102W        W 7846   2.010   3.798   3.786  0.0891 -0.0276 -0.0672
 4103W        W 7847   2.824   2.015  10.958  0.1114  0.1813  0.1214
 4104W        W 7848   2.801   3.507   0.292  0.2518 -0.0847  0.1190
 4105W        W 7849   9.694   0.606  11.765 -0.1418  0.1777 -0.1161
 4106W        W 7850   6.229   4.215   8.463  0.2153  0.2473 -0.1467
 4107W        W 7851   5.929   3.929   2.580  0.2618  0.1679 -0.1690
 4108W        W 7852   3.156   7.274  12.296 -0.1028  0.1282 -0.1432
 4109W        W 7853   0.031   5.084   0.123 -0.1644  0.1058 -0.0112
 4110W        W 7854   2.749   3.349   9.866  0.3382  0.1353 -0.0737
 4111W        W 7855   4.251   6.391   1.927  0.0542  0.0382  0.1951
 4112W        W 7856   5.336   4.486   3.726  0.0277 -0.0690  0.4216
 4113W        W 7857   1.240   0.825   0.047  0.0551  0.0505  0.0225
 4114W        W 7858   1.982   4.129   4.228  0.3016 -0.1460 -0.1321
 4115W        W 7859   3.869   6.862   3.863 -0.1562  0.1288  0.1015
 4116W        W 7860   6.989   1.951   8.295  0.4483 -0.1622 -0.2134
 4117W        W 7861   8.782   6.046  12.407  0.0778 -0.0524 -0.0296
 4118W        W 7862   7.341   6.962  11.854 -0.0322 -0.0984 -0.0355
 4119W        W 7863   9.302   5.119   0.363  0.1855 -0.0169  0.1113
 4120W        W 7864   0.729   0.204  12.014  0.1369  0.0375  0.1278
 4121W        W 7865   2.334   7.626  10.250 -0.2549 -0.1039 -0.3391
 4122W        W 7866   8.658   4.562   0.002 -0.1718  0.0259 -0.0793
 4123W        W 7867   8.687   3.779   9.410 -0.2299 -0.2691 -0.0570
 4124W        W 7868   5.320   8.300   2.893 -0.0295  0.0222 -0.0002
 4125W        W 7869   0.973   5.057   0.191  0.1393 -0.2141 -0.2145
 4126W        W 7870   8.368   7.452   2.866 -0.1530  0.1148  0.0713
 4127W        W 7871   7.272   7.182   2.948  0.2015  0.1115  0.3341
 4128W        W 7872   6.365   1.936   9.967  0.3203 -0.0862 -0.0996
 4129W        W 7873   2.032   7.699   3.931  0.0073  0.1685 -0.1624
 4130W        W 7874   7.545   3.855   3.718  0.1096 -0.0494 -0.0022
 4131W        W 7875   7.512   6.717   0.865  0.0801  0.1593  0.1513
 4132W        W 7876   2.550   8.180   8.909 -0.1539  0.1314 -0.0991
 4133W        W 7877   1.009   1.406   2.764  0.0321  0.0903 -0.1672
 4134W        W 7878   3.343   6.637   0.576 -0.0944  0.0692  0.1239
 4135W        W 7879   9.722   8.493   2.505 -0.1137 -0.0040 -0.0784
 4136W        W 7880   8.412   6.310   2.916 -0.1377  0.0944 -0.0022
 4137W        W 7881   7.330   8.908  11.910  0.1899 -0.2969 -0.0277
 4138W        W 7882   6.194   4.677   1.072  0.2997 -0.0762 -0.0868
 4139W        W 7883   1.522   0.992   0.428  0.2127  0.1504  0.1465
 4140W        W 7884   4.805   1.720   2.012  0.1442  0.1814 -0.0168
 4141W        W 7885   2.848   4.057   1.668  0.3256 -0.1551  0.0056
 4142W        W 7886   3.450   0.621   2.288 -0.3121  0.1910 -0.0766
 4143W        W 7887   1.015   4.851   2.772 -0.4190 -0.1097 -0.1826
 4144W        W 7888   0.253   2.871  12.256 -0.2425 -0.0925  0.0270
 4145W        W 7889   3.705   3.331   4.584 -0.1240  0.1030  0.1683
 4146W        W 7890   8.542   6.565   2.387  0.3097 -0.3671 -0.1278
 4147W        W 7891   4.452   2.719  10.801  0.2735  0.4372 -0.0804
 4148W        W 7892   9.523   0.591   2.501  0.0137  0.0829  0.2553
 4149W        W 7893   4.684   3.287   0.732 -0.1374 -0.0699  0.2159
 4150W        W 7894   8.968   3.056   8.526 -0.3106  0.0230  0.2533
 4151W        W 7895   6.011   2.939   4.569  0.2068 -0.2936  0.3274
 4152W        W 7896   4.563   8.821   3.149  0.1708  0.1380  0.1624
 4153W        W 7897   8.437   7.842   1.068 -0.0998 -0.0977 -0.0399
 4154W        W 7898   2.031   9.927   8.863 -0.2917 -0.1129 -0.0591
 4155W        W 7899   7.817   1.030   5.271 -0.0529 -0.2453 -0.1777
 4156W        W 7900   1.589   3.338   8.534 -0.0729  0.0325 -0.0932
 4157W        W 7901   4.679   3.360   9.767  0.0727 -0.0903 -0.5356
 4158W        W 7902   1.465   8.324  12.179 -0.1471 -0.1054  0.1668
 4159W        W 7903   7.517   7.930   9.055 -0.0560 -0.0041 -0.0500
 4160W        W 7904   6.890   5.753  10.407  0.0581 -0.1185 -0.0543
 4161W        W 7905   3.041   2.112   3.577 -0.2655  0.1905 -0.1744
 4162W        W 7906   6.339   4.672   2.509  0.0553  0.0156  0.0248
 4163W        W 7907   9.931   3.778   9.043  0.0236 -0.1009  0.0779
 4164W        W 7908   4.911   0.488   1.242 -0.0767  0.0650  0.0556
 4165W        W 7909   7.974   0.543  12.380  0.1758 -0.1337  0.0041
 4166W        W 7910   2.574   4.618  11.139 -0.0911  0.3314  0.0715
 4167W        W 7911   1.108   4.930  10.452 -0.1286  0.1150  0.0490
 4168W        W 7912   3.246   2.296  10.403 -0.2861 -0.1305  0.2389
 4169W        W 7913   1.253   2.213   0.207 -0.3109  0.1288  0.0512
 4170W        W 7914   4.653   6.427   1.197 -0.1913  0.0348 -0.3627
 4171W        W 7915   4.133   0.488   0.652 -0.1786 -0.3902  0.3881
 4172W        W 7916   5.067   4.606  10.389  0.0342 -0.0428 -0.2761
 4173W        W 7917   2.548   2.288   2.252  0.1432 -0.5366  0.0936
 4174W        W 7918   7.522   9.387   1.722  0.0967 -0.3428  0.1077
 4175W        W 7919   3.927   2.888   9.571 -0.0560 -0.2277 -0.1481
 4176W        W 7920   0.487   6.448   9.711  0.0522 -0.0582  0.2149
 4177W        W 7921   3.113   8.481   0.422 -0.0763  0.0367  0.0786
 4178W        W 7922   6.931   1.317  10.005 -0.1399  0.1114 -0.0452
 4179W        W 7923   1.912   1.519   4.440  0.0295 -0.1792  0.2329
 4180W        W 7924   2.774   7.236  11.960 -0.2026  0.1187 -0.0777
 4181W        W 7925   2.040   0.150   9.984  0.1332 -0.4159  0.1477
 4182W        W 7926   0.994   2.583   3.606 -0.2145 -0.1267  0.0281
 4183W        W 7927   1.460   3.308  11.236  0.1816 -0.1712 -0.0812
 4184W        W 7928   3.760   9.317   9.455 -0.1505  0.0590 -0.0327
 4185W        W 7929   6.666   0.143  11.618 -0.2644  0.2457 -0.0461
 4186W        W 7930   3.767   8.335   1.711 -0.0792 -0.2217  0.0195
 4187W        W 7931   4.706   8.694   0.024  0.0594  0.0734 -0.0711
 4188W        W 7932   4.779   9.429   4.160 -0.1704  0.2523  0.0293
 4189W        W 7933   6.969   4.040   1.305 -0.0487  0.1433  0.0362
 4190W        W 7934   8.022   8.595   1.347  0.0296 -0.1253 -0.0206
 4191W        W 7935   6.431   9.373   8.670  0.2779 -0.0817  0.0322
 4192W        W 7936   5.312   8.057   0.636 -0.2617  0.0442 -0.1549
 4193W        W 7937   1.258   5.029   3.580  0.2790  0.1897  0.2387
 4194W        W 7938   8.771   9.991   1.423 -0.0708  0.0112  0.1264
 4195W        W 7939   7.239   7.566   9.232  0.1099  0.2303 -0.0375
 4196W        W 7940   5.636   9.275  12.515 -0.1451 -0.0068 -0.2261
 4197W        W 7941   2.299   6.957   3.831 -0.1228  0.0854  0.2696
 4198W        W 7942   3.641   3.059  12.096 -0.1997  0.0444 -0.1203
 4199W        W 7943   1.842   6.656   0.159 -0.3574  0.1569  0.2138
 4200W        W 7944   6.639   5.562   1.955 -0.0597 -0.1091 -0.3060
 4201W        W 7945   0.458   5.053  10.861  0.0641  0.0429  0.1478
 4202W        W 7946   6.016   3.763   3.494 -0.1351 -0.1752  0.0445
 4203W        W 7947   3.510   7.693   1.822 -0.2231  0.1066 -0.1133
 4204W        W 7948   1.013   4.880   0.678  0.0620 -0.1352 -0.2875
 4205W        W 7949   9.863   6.050   0.917 -0.3720  0.2800  0.0153
 4206W        W 7950   5.816   6.835   2.115  0.2200 -0.1618 -0.0947
 4207W        W 7951   8.316   3.286  11.633 -0.4047 -0.2482 -0.2889
 4208W        W 7952   7.127   2.172  10.756 -0.0694  0.0570  0.0779
 4209W        W 7953   3.641   6.686   8.953 -0.2545  0.2492  0.2623
 4210W        W 7954   3.635   1.874   3.058  0.3052 -0.2623 -0.1913
 4211W        W 7955   0.298   3.311  12.631 -0.1407  0.3396  0.0746
 4212W        W 7956   1.351   2.042   0.728  0.2212 -0.2420 -0.0386
 4213W        W 7957   9.990   9.777  11.776  0.2174 -0.0274  0.0628
 4214W        W 7958   3.347   5.169   0.763 -0.0875 -0.0998  0.1694
 4215W        W 7959   9.909   5.211   4.045  0.4564 -0.0648  0.1524
 4216W        W 7960   0.340   1.773   2.522 -0.2341  0.0696 -0.4673
 4217W        W 7961   2.047   3.115   5.123 -0.0075 -0.1745  0.0064
 4218W        W 7962   1.434   4.155   0.991 -0.3415  0.0200 -0.2180
 4219W        W 7963   7.962   6.434   2.820 -0.0313  0.0557  0.0287
 4220W        W 7964   8.250   0.583   3.695  0.0332 -0.0145  0.3219
 4221W        W 7965   8.764   7.046   1.007  0.2061  0.3292  0.0088
 4222W        W 7966   2.618   1.308   2.410  0.0934  0.3878 -0.3984
 4223W        W 7967   3.990   8.023   1.033 -0.0557 -0.2456 -0.2502
 4224W        W 7968   9.708   6.800   1.618  0.0040  0.3980  0.2733
 4225W        W 7969   8.159   5.132  11.333 -0.0727  0.2551 -0.0250
 4226W        W 7970   4.187   4.605   2.729 -0.0967 -0.1984  0.0112
 4227W        W 7971   9.516   2.164  12.020 -0.4565  0.1708  0.1062
 4228W        W 7972   0.178   8.100   0.497  0.0426 -0.1353  0.0060
 4229W        W 7973   1.837   7.739   1.802  0.1096  0.0815  0.1686
 4230W        W 7974   0.465   2.087   9.988 -0.0305 -0.0177 -0.3539
 4231W        W 7975   5.802   9.633   9.550  0.2811  0.1536  0.3397
 4232W        W 7976   8.145   2.106  10.284  0.0960  0.2249 -0.1601
 4233W        W 7977   8.656   2.115   0.253  0.2123 -0.2806  0.1200
 4234W        W 7978   7.718   4.906   9.933 -0.0893 -0.0306  0.1208
 4235W        W 7979   0.233   7.185  10.869  0.2140 -0.0599 -0.1650
 4236W        W 7980   2.176   8.342   0.512  0.0396  0.0894  0.1501
 4237W        W 7981   3.306   4.067   9.376 -0.0473 -0.1506  0.1620
 4238W        W 7982   3.644   7.821   2.762  0.0865  0.2550 -0.1155
 4239W        W 7983   6.839   1.909  12.134  0.3656  0.2106 -0.1187
 4240W        W 7984   5.020   3.837   5.102  0.1058 -0.1381 -0.1965
 4241W        W 7985   9.836   6.593  10.447  0.4689 -0.0301 -0.1307
 4242W        W 7986   5.435   1.103   0.087  0.4325 -0.0230  0.1568
 4243W        W 7987   4.724   8.336   2.042 -0.1387  0.0683  0.0108
 4244W        W 7988   4.432   7.134   3.086 -0.3876 -0.0295 -0.1708
 4245W        W 7989   2.885   1.799   1.009  0.2289 -0.0719  0.1744
 4246W        W 7990   9.846   7.067   0.672 -0.0103 -0.0063  0.2359
 4247W        W 7991   3.778   6.962   2.204 -0.2926 -0.3298 -0.3592
 4248W        W 7992   3.282   1.723   9.685 -0.1478 -0.3837  0.1198
 4249W        W 7993   4.461   1.766   3.284  0.1318  0.0178  0.2059
 4250W        W 7994   3.879   6.343   8.628  0.1052 -0.0222  0.1837
 4251W        W 7995   2.535   5.189   0.944 -0.0196  0.0918 -0.2689
 4252W        W 7996   3.780   7.568   3.844  0.0815  0.1511 -0.0703
 4253W        W 7997   4.947   4.344   3.402  0.5475 -0.0873  0.2105
 4254W        W 7998   4.189   7.508  10.576  0.0410 -0.0466 -0.1519
 4255W        W 7999   7.041   6.020  11.605 -0.1240  0.0403  0.0958
 4256W        W 8000   5.893   0.726   7.843 -0.0450  0.0956  0.0415
 4257W        W 8001   3.896   8.902   9.738  0.1884 -0.1398 -0.1032
 4258W        W 8002   5.263   4.837   4.070  0.1371  0.0451  0.1043
 4259W        W 8003   0.915   3.777   4.011 -0.0192 -0.3401  0.4642
 4260W        W 8004   0.155   5.538   0.316  0.0713 -0.1269 -0.2530
 4261W        W 8005   8.999   5.386  11.726 -0.2277 -0.0287 -0.3079
 4262W        W 8006   0.697   6.458  11.088  0.0022 -0.1082  0.3347
 4263W        W 8007   7.455   5.709  12.391  0.3355  0.0265 -0.0962
 4264W        W 8008   0.168   0.590  10.068  0.0590  0.4296  0.0986
 4265W        W 8009   7.495   0.684   9.748 -0.4632  0.0738  0.0611
 4266W        W 8010   9.181   2.601  11.966  0.1008 -0.5217  0.2980
 4267W        W 8011   3.918   6.288   9.995  0.0065 -0.1096  0.2003
 4268W        W 8012   5.036   5.460   0.887  0.0589  0.2571 -0.2147
 4269W        W 8013   1.831   2.089   4.709  0.0859 -0.2277 -0.1256
 4270W        W 8014   1.902   7.399  10.446  0.0948  0.1909  0.0372
 4271W        W 8015   3.578   2.659   0.723  0.2325  0.1250  0.2135
 4272W        W 8016   1.877   0.039   7.820  0.0117  0.2128  0.0268
 4273W        W 8017   3.364   4.453  12.027  0.2105 -0.0904 -0.2351
 4274W        W 8018   0.450   9.872   3.729 -0.1121  0.0634  0.1215
 4275W        W 8019   3.642   0.286   1.491 -0.0038 -0.1225 -0.0135
 4276W        W 8020   1.032   2.152   8.256  0.1704  0.1806 -0.0892
 4277W        W 8021   0.007   0.015   3.579 -0.0335  0.3219 -0.0210
 4278W        W 8022   2.540   1.450   9.193  0.0116 -0.0950  0.1456
 4279W        W 8023   3.505   7.807  11.703  0.0318 -0.0435 -0.1983
 4280W        W 8024   1.225   6.131   3.737 -0.1687  0.0955 -0.0572
 4281W        W 8025   5.711   7.345   2.348  0.2846  0.0609 -0.2520
 4282W        W 8026   6.368   6.328   1.303 -0.1036  0.1577  0.3914
 4283W        W 8027   9.573   6.312   3.718 -0.1472 -0.1117  0.2517
 4284W        W 8028   0.961   3.328  11.410  0.0054 -0.2450 -0.0974
 4285W        W 8029   2.786   3.728  11.210 -0.0831 -0.2666 -0.0797
 4286W        W 8030   3.155   0.049   1.629 -0.1496 -0.1456 -0.1761
 4287W        W 8031   6.857   2.641   8.895  0.2521  0.3839 -0.1937
 4288W        W 8032   2.571   3.980   0.733  0.0360  0.2829  0.2232
 4289W        W 8033   4.476   6.765  11.824  0.0692 -0.5271  0.0437
 4290W        W 8034   8.684   5.889   9.837 -0.3512 -0.0076  0.0986
 4291W        W 8035   2.035   7.966   0.826  0.2249 -0.1402  0.0886
 4292W        W 8036   2.902   7.223   1.846  0.2236 -0.0704  0.1387
 4293W        W 8037   0.484   8.535   1.966  0.3869 -0.1509  0.0454
 4294W        W 8038   2.049   9.002   0.918  0.1585 -0.4369  0.1774
 4295W        W 8039   2.992   7.528  10.912  0.1128 -0.0660  0.1693
 4296W        W 8040   3.894   5.406  10.512  0.1028 -0.0058 -0.0640
 4297W        W 8041   0.446   7.531  11.862  0.0533  0.0929  0.1466
 4298W        W 8042   2.957   7.198   0.737  0.0565 -0.2374  0.1275
 4299W        W 8043   7.456   1.337  10.072 -0.0881  0.2900  0.0281
 4300W        W 8044   7.762   4.681   3.289  0.2497 -0.4408 -0.2463
 4301W        W 8045   3.739   4.205   9.237 -0.0063 -0.0192  0.0270
 4302W        W 8046   2.813   0.549   9.254 -0.1167 -0.0673  0.0447
 4303W        W 8047   5.174   8.134   1.516 -0.0185  0.0291  0.0383
 4304W        W 8048   9.637   9.883  10.060 -0.3862  0.1838 -0.0496
 4305W        W 8049   3.548   2.248   2.000 -0.0632  0.0931 -0.1472
 4306W        W 8050   5.422   5.360   2.878  0.2119 -0.2083  0.0237
 4307W        W 8051   5.967   1.004  11.209 -0.0825 -0.1164  0.0523
 4308W        W 8052   0.248   5.129   9.414 -0.3668  0.0878  0.4643
 4309W        W 8053   9.267   8.930   0.292 -0.0270 -0.2197  0.0693
 4310W        W 8054   0.927   4.482   0.987 -0.0298  0.3105 -0.1750
 4311W        W 8055   7.040   9.127   9.336 -0.1439  0.2290  0.0664
 4312W        W 8056   3.104   8.255   1.140 -0.3021  0.0473 -0.1579
 4313W        W 8057   4.756   5.351   3.036  0.0938  0.2260  0.0634
 4314W        W 8058   4.371   3.940   8.949  0.1008  0.2819 -0.0552
 4315W        W 8059   7.319   3.722  10.222  0.1861  0.0052  0.0047
 4316W        W 8060   2.041   7.080   1.051 -0.0066  0.2546 -0.2585
 4317W        W 8061   2.100   7.349   1.579 -0.0705 -0.0656 -0.1477
 4318W        W 8062   1.914   5.771   0.416 -0.1576  0.2079 -0.3092
 4319W        W 8063   3.162   7.795   1.405 -0.2384 -0.0197  0.0943
 4320W        W 8064   7.687   4.427   9.920  0.2139 -0.0237  0.0125
 4321W        W 8065   1.457   7.696  10.434  0.1192 -0.0485  0.3619
 4322W        W 8066   8.623   9.815   0.018 -0.0290 -0.2409  0.1829
 4323W        W 8067   8.844   7.892   0.298 -0.0304 -0.3087  0.0177
 4324W        W 8068   5.972   3.731   1.249 -0.1231 -0.1021 -0.2323
 4325W        W 8069   4.819   4.327   0.897  0.0770  0.1920  0.1179
 4326W        W 8070   8.650   9.283   9.550  0.2350  0.0186  0.1355
 4327W        W 8071   6.851   7.056  12.538 -0.0121  0.2901 -0.1356
 4328W        W 8072   4.804   2.890   9.540 -0.0544  0.1100 -0.1088
 4329W        W 8073   9.752   0.155  11.994 -0.0750 -0.0524  0.2805
 4330W        W 8074   3.845   1.903  12.615  0.0030  0.0768  0.1842
 4331W        W 8075   7.439   3.263   0.117 -0.0245  0.0585  0.0374
 4332W        W 8076   2.283   5.665   4.278  0.1470  0.1318  0.3646
 4333W        W 8077   5.754   8.830  12.279 -0.1426 -0.2703  0.0348
 4334W        W 8078   4.008   0.453  11.901 -0.1293  0.0391 -0.0635
 4335W        W 8079   1.398   1.139   4.227 -0.1484  0.0738 -0.2854
 4336W        W 8080   4.050   2.760  12.353  0.2236 -0.1245 -0.0891
 4337W        W 8081   8.968   7.333  12.424  0.1151 -0.1233 -0.0298
 4338W        W 8082   3.488   7.925  10.329  0.1117  0.0389  0.1567
 4339W        W 8083   3.187   3.261  12.265  0.4191 -0.0604 -0.1488
 4340W        W 8084   2.956   0.106   9.963  0.2934  0.2031  0.3023
 4341W        W 8085   5.338   5.570   1.938  0.1330 -0.1120 -0.2029
 4342W        W 8086   9.756   9.695  12.238  0.0658  0.2522  0.1108
 4343W        W 8087   8.470   6.083   9.433 -0.1147  0.0268  0.2665
 4344W        W 8088   4.459   7.682  11.122  0.1940 -0.5828 -0.3278
 4345W        W 8089   5.856   1.645   9.745  0.0872  0.0411 -0.0294
 4346W        W 8090   5.694   9.567   8.100 -0.1939 -0.1036  0.1648
 4347W        W 8091   4.038   7.889   2.485 -0.1496 -0.0115  0.0561
 4348W        W 8092   6.052   5.143   0.826 -0.1506  0.1474  0.0463
 4349W        W 8093   2.826   5.367   2.071  0.2483 -0.4679 -0.0757
 4350W        W 8094   5.979   2.879   3.435  0.0377 -0.0177  0.0416
 4351W        W 8095   2.307   4.764   1.050 -0.0039  0.0527 -0.0462
 4352W        W 8096   1.713   7.394   3.778  0.0114  0.1229  0.1905
 4353W        W 8097   4.483   2.863   4.022 -0.1853 -0.2664 -0.1252
 4354W        W 8098   2.298   8.939   3.998 -0.1112  0.2557  0.2358
 4355W        W 8099   0.481   3.028  11.710  0.0055  0.3998 -0.0838
 4356W        W 8100   4.808   7.962   2.438  0.2037 -0.1775 -0.1330
 4357W        W 8101   1.671   7.897   0.223  0.0302 -0.1546 -0.1878
 4358W        W 8102   4.381   3.182  12.551  0.0398  0.1289  0.1470
 4359W        W 8103   2.662   9.108   1.516 -0.0063  0.1846 -0.2594
 4360W        W 8104   9.671   8.765   9.902  0.0462  0.1070 -0.2793
 4361W        W 8105   3.512   3.064   1.016  0.1013  0.0919  0.1279
 4362W        W 8106   7.078   7.299   2.407  0.0982 -0.0327  0.2010
 4363W        W 8107   4.954   4.808   9.644 -0.1301  0.2557 -0.3907
 4364W        W 8108   7.847   4.725   1.913 -0.1462  0.3682 -0.2219
 4365W        W 8109   2.031   8.120   9.613 -0.0777  0.3193  0.1446
 4366W        W 8110   4.061   6.929   2.595 -0.1884  0.1597  0.1418
 4367W        W 8111   0.969   0.457   9.620  0.2599  0.1018  0.0750
 4368W        W 8112   0.717   9.647  12.188  0.1038  0.1651 -0.2545
 4369W        W 8113   3.199   0.289  11.318 -0.1949  0.0595  0.1292
 4370W        W 8114   5.922   4.722  10.468 -0.1484 -0.0427  0.2888
 4371W        W 8115   4.930   6.597   9.307  0.2310  0.0873  0.1488
 4372W        W 8116   9.124   2.062   2.109 -0.0075 -0.1102 -0.1548
 4373W        W 8117   5.426   1.425   9.451  0.0120  0.3029  0.0717
 4374W        W 8118   1.911   2.811  11.398  0.0196  0.0446 -0.0811
 4375W        W 8119   2.483   4.703  12.037 -0.2821 -0.0309 -0.0739
 4376W        W 8120   8.464   8.219   9.212  0.0361  0.2670  0.3377
 4377W        W 8121   2.843   9.205   7.650  0.1202 -0.0050 -0.0723
 4378W        W 8122   7.086   5.083   1.537 -0.3388  0.2088 -0.0860
 4379W        W 8123   8.611   2.137   2.318 -0.1046  0.1735  0.3958
 4380W        W 8124   7.975   2.774   3.311  0.1733 -0.3470  0.3743
 4381W        W 8125   9.420   0.291  11.386 -0.0822 -0.0879  0.0622
 4382W        W 8126   9.861   5.045   1.589  0.1804 -0.1635  0.1119
 4383W        W 8127   5.493   7.825   1.744  0.2225 -0.0143  0.0870
 4384W        W 8128   4.221   6.511   8.968  0.1502  0.0119 -0.1632
 4385W        W 8129   3.923   7.091   1.265 -0.1344  0.1399  0.0247
 4386W        W 8130   4.660   9.033   3.798  0.1069  0.1173 -0.2302
 4387W        W 8131   6.672   8.692   1.360 -0.2183 -0.1693 -0.1700
 4388W        W 8132   1.078   0.013   0.228 -0.0503  0.1763  0.0311
 4389W        W 8133   9.852   5.465   1.961  0.0606 -0.1855 -0.2176
 4390W        W 8134   7.274   7.917   3.501 -0.2211 -0.0413 -0.2091
 4391W        W 8135   4.579   1.135  11.752 -0.3317 -0.1416 -0.0698
 4392W        W 8136   1.988   9.448   9.034 -0.3081 -0.0228 -0.4082
 4393W        W 8137   4.104   2.711   1.082 -0.3390 -0.2220  0.1144
 4394W        W 8138   3.571   2.740   2.934  0.0929  0.2176  0.1071
 4395W        W 8139   1.983   3.878   2.549  0.0045  0.2997  0.0408
 4396W        W 8140   9.259   8.028  10.573 -0.1076 -0.3127  0.0900
 4397W        W 8141   8.821   0.294   9.663 -0.0217  0.0501 -0.1102
 4398W        W 8142   9.658   1.619  10.258  0.1846 -0.3460  0.0947
 4399W        W 8143   3.407   9.612   2.561 -0.2422 -0.1392 -0.3347
 4400W        W 8144   0.084   7.895  11.941  0.0380 -0.0336 -0.1702
 4401W        W 8145   3.703   8.995   3.334  0.0070 -0.1617 -0.0982
 4402W        W 8146   6.704   5.574   9.562 -0.3388 -0.0495 -0.2239
 4403W        W 8147   8.385   0.010   2.178  0.0068  0.6385 -0.0404
 4404W        W 8148   5.363   6.038  10.939  0.0071 -0.0472  0.1156
 4405W        W 8149   3.851   4.578  12.254  0.3439  0.0726 -0.1883
 4406W        W 8150   2.171   4.746   2.055  0.4155 -0.1978  0.1038
 4407W        W 8151   1.972   8.366   2.684 -0.2236  0.0934  0.2941
 4408W        W 8152   5.265   7.877   2.615 -0.1497  0.2717  0.3818
 4409W        W 8153   0.586   6.239   3.695 -0.0448 -0.0662  0.0680
 4410W        W 8154   9.028   1.149  11.353  0.2608 -0.1805  0.2678
 4411W        W 8155   8.661   2.417  12.096  0.2852 -0.0887 -0.0467
 4412W        W 8156   7.884   6.835   0.346 -0.1726  0.4682  0.0864
 4413W        W 8157   3.950   1.464  11.822  0.0904  0.0572  0.3184
 4414W        W 8158   5.195   6.560  10.997  0.0451 -0.0573 -0.4194
 4415W        W 8159   7.195   1.900  10.133 -0.1767  0.2205 -0.1128
 4416W        W 8160   2.423   6.067  12.673 -0.0919 -0.2816 -0.0490
 4417W        W 8161   4.726   4.699  10.065  0.3029 -0.2549 -0.0630
 4418W        W 8162   0.165   0.323   0.802  0.0780 -0.3574  0.4794
 4419W        W 8163   5.426   1.183   3.196 -0.1202  0.0035 -0.0179
 4420W        W 8164   6.870   5.601   0.890  0.0259 -0.1953 -0.0540
 4421W        W 8165   8.923   9.020   4.423 -0.1887  0.2673 -0.1398
 4422W        W 8166   8.548   2.898  11.930 -0.4128  0.2256  0.0365
 4423W        W 8167   7.030   7.463   3.398 -0.1363 -0.1460  0.1606
 4424W        W 8168   8.605   6.314  11.120  0.0789 -0.1259  0.2219
 4425W        W 8169   5.608   4.033   3.614 -0.3197  0.0462  0.0358
 4426W        W 8170   7.761   2.022   1.905  0.0460 -0.2138  0.1552
 4427W        W 8171   0.306   2.829   2.954  0.1165 -0.0068  0.2642
 4428W        W 8172   1.803   9.760  12.191 -0.0061 -0.1022  0.2375
 4429W        W 8173   3.126   0.711   3.485 -0.0388  0.0969 -0.2583
 4430W        W 8174   9.236   2.133   0.199 -0.2326 -0.0204  0.0167
 4431W        W 8175   5.472   7.938  12.512  0.0441  0.1461 -0.1483
 4432W        W 8176   9.255   2.393   1.133  0.0198 -0.0637  0.2205
 4433W        W 8177   9.192   7.284   2.303  0.0514  0.0230  0.0164
 4434W        W 8178   3.969   1.435   9.280 -0.1805  0.1867 -0.0734
 4435W        W 8179   7.920   0.275   4.015 -0.0761  0.0778 -0.0687
 4436W        W 8180   7.700   7.281   0.409  0.2188  0.0892  0.0429
 4437W        W 8181   0.037   1.074   1.414  0.2176 -0.1145  0.2346
 4438W        W 8182   3.793   8.716   3.769  0.0960 -0.1218  0.2329
 4439W        W 8183   1.267   9.229  10.809 -0.1740  0.1370  0.0217
 4440W        W 8184   9.118   5.808   9.666  0.1414 -0.2678 -0.0419
 4441W        W 8185   1.788   1.094  10.174  0.0267  0.0377 -0.0206
 4442W        W 8186   5.092   4.556   2.799  0.0398 -0.0988 -0.0039
 4443W        W 8187   9.621   5.032   1.085 -0.0404 -0.0119 -0.0633
 4444W        W 8188   1.036   4.538  12.166 -0.0231 -0.3117  0.0958
 4445W        W 8189   8.472   9.302  11.519 -0.0490  0.0459  0.4437
 4446W        W 8190   2.546   6.618   8.074 -0.0809 -0.0160 -0.0373
 4447W        W 8191   0.500   2.228   2.799 -0.0027  0.0272  0.1597
 4448W        W 8192   1.328   2.736   2.885 -0.0541 -0.3205  0.0895
 4449W        W 8193   9.590   4.940   2.133 -0.2680  0.1942 -0.1257
 4450W        W 8194   0.603   3.152  10.753  0.1010 -0.1036  0.1596
 4451W        W 8195   3.335   0.547   0.438  0.0063 -0.2167 -0.0721
 4452W        W 8196   1.313   2.740   9.344  0.1330  0.0262  0.2790
 4453W        W 8197   9.592   1.895   1.134  0.0701 -0.2132  0.5070
 4454W        W 8198   5.580   8.270  11.557 -0.0625  0.2082 -0.1120
 4455W        W 8199   8.396   4.985   1.713  0.2937 -0.1174 -0.0821
 4456W        W 8200   2.856   4.255  12.032 -0.0337 -0.2930 -0.0004
 4457W        W 8201   6.293   6.970   0.380 -0.0662  0.1648 -0.4452
 4458W        W 8202   4.601   9.631   3.761 -0.3627  0.0561 -0.0545
 4459W        W 8203   4.737   8.199  10.546 -0.2042  0.0983 -0.1728
 4460W        W 8204   3.590   6.234   2.760 -0.1277 -0.0443 -0.4446
 4461W        W 8205   9.775   6.451  12.344  0.1232  0.1476 -0.0319
 4462W        W 8206   3.725   9.866  11.295 -0.3572  0.1161  0.1203
 4463W        W 8207   5.953   2.525  10.973  0.1091  0.2461  0.0940
 4464W        W 8208   7.943   4.153   9.011  0.0843  0.2945 -0.1732
 4465W        W 8209   5.436   1.185  10.923  0.1105 -0.1159  0.0061
 4466W        W 8210   6.260   5.072   2.775  0.3583 -0.0148  0.1023
 4467W        W 8211   1.707   2.106   9.363 -0.4145 -0.0743  0.0472
 4468W        W 8212   7.184   8.553  10.138 -0.4343 -0.2784  0.0841
 4469W        W 8213   0.881   8.176   8.675 -0.0046 -0.0145 -0.3724
 4470W        W 8214   6.430   6.150   2.930  0.1492 -0.2467  0.3641
 4471W        W 8215   3.793   0.802   2.666 -0.0337  0.2171 -0.2432
 4472W        W 8216   8.903   2.984   9.051  0.0167 -0.0539 -0.1709
 4473W        W 8217   7.947   8.170  11.934 -0.2128  0.1577  0.2550
 4474W        W 8218   2.253   2.084   1.807 -0.0139 -0.3973 -0.3328
 4475W        W 8219   3.791   8.950   2.157  0.1097 -0.3651  0.2062
 4476W        W 8220   1.915   4.835   3.714  0.2493 -0.3456  0.0221
 4477W        W 8221   1.805   8.354  11.740  0.0221 -0.2063  0.3030
 4478W        W 8222   6.129   1.463   4.217  0.0171  0.1464 -0.2527
 4479W        W 8223   4.724   3.556   1.194  0.1821  0.1194 -0.1933
 4480W        W 8224   0.224   3.887   8.611  0.2454  0.0478  0.3157
 4481W        W 8225   0.041   7.542  11.580 -0.2108 -0.0082  0.5033
 4482W        W 8226   4.899   3.829   9.721 -0.2119  0.0631 -0.3250
 4483W        W 8227   3.393   3.521   9.386  0.3735  0.2090 -0.0446
 4484W        W 8228   0.777   2.134  12.072 -0.3793 -0.0138 -0.0883
 4485W        W 8229   0.721   2.504   9.876 -0.0229 -0.0884  0.1716
 4486W        W 8230   1.160   0.316  10.604 -0.0482 -0.1645  0.1667
 4487W        W 8231   0.170   0.194  10.933  0.1005 -0.0690 -0.0691
 4488W        W 8232   0.655   0.522  12.404  0.0778  0.2167  0.1292
 4489W        W 8233   6.651   4.155   8.911  0.0028  0.0123  0.1346
 4490W        W 8234   9.254   5.611  11.242  0.1191  0.1260 -0.0365
 4491W        W 8235   0.100   5.538   9.084 -0.1088  0.2759 -0.2602
 4492W        W 8236   2.602   3.107   2.687  0.0128 -0.2331  0.0746
 4493W        W 8237   5.176   3.099   9.892 -0.0288  0.1269 -0.2288
 4494W        W 8238   0.287   2.302   0.986  0.0083 -0.1840 -0.0735
 4495W        W 8239   1.016   0.503   3.983  0.0643  0.2039 -0.0456
 4496W        W 8240   2.261   1.230   3.157  0.1621 -0.0673 -0.2031
 4497W        W 8241   0.632   1.937   8.031  0.0284 -0.2010 -0.1496
 4498W        W 8242   6.348   6.268   8.801 -0.0485  0.2242  0.1431
 4499W        W 8243   2.934   9.350  11.422 -0.3875 -0.0168  0.3252
 4500W        W 8244   7.134   3.722   1.810 -0.1485  0.1339  0.2169
 4501W        W 8245   7.455   8.977   0.250 -0.2257 -0.2041 -0.3058
 4502W        W 8246   8.250   1.797   3.075 -0.0569 -0.1359  0.1411
 4503W        W 8247   0.753   7.804   2.985 -0.0339 -0.0783  0.1496
 4504W        W 8248   4.250   4.270  12.475 -0.0329 -0.2731 -0.3480
 4505W        W 8249   0.121   6.444  11.924 -0.0812 -0.1918  0.0645
 4506W        W 8250   4.924   1.882   3.470 -0.0401  0.1635 -0.1187
 4507W        W 8251   4.206   5.076   1.121 -0.0842 -0.2164  0.2121
 4508W        W 8252   2.813   2.278   1.042  0.2755  0.2017 -0.0417
 4509W        W 8253   9.708   2.466   9.400  0.0169  0.4031 -0.0727
 4510W        W 8254   9.230   2.281  11.542 -0.1757 -0.0733  0.0279
 4511W        W 8255   6.222   3.121  12.153  0.0393 -0.0302  0.3508
 4512W        W 8256   6.806   7.021  12.070  0.1025 -0.0843  0.0827
 4513W        W 8257   1.977   1.733   2.550 -0.0225 -0.0352  0.0665
 4514W        W 8258   2.330   3.285   0.103 -0.0217 -0.1989  0.1087
 4515W        W 8259   4.289   6.912   2.031  0.1561 -0.0558 -0.0376
 4516W        W 8260   2.665   0.575   8.773  0.0091 -0.2726 -0.0197
 4517W        W 8261   4.172   5.409   9.894  0.0182  0.0547  0.1906
 4518W        W 8262   4.900   1.469  10.803  0.0684 -0.0833 -0.1251
 4519W        W 8263   7.944   0.128   3.532  0.0557 -0.2148 -0.0282
 4520W        W 8264   7.713   1.646   1.499 -0.5579  0.1887  0.0704
 4521W        W 8265   5.847   2.018  11.147 -0.2622  0.1082 -0.2974
 4522W        W 8266   6.040   2.141   9.606  0.1408 -0.2600  0.1091
 4523W        W 8267   0.085   5.474  11.840  0.1490  0.1222 -0.0398
 4524W        W 8268   0.687   8.163   2.209 -0.3407  0.0579  0.0427
 4525W        W 8269   7.216   1.631   9.691 -0.3264  0.1824 -0.2356
 4526W        W 8270   6.901   9.079   1.165 -0.0756 -0.1037  0.0069
 4527W        W 8271   5.458   2.240  10.906  0.3415  0.1923 -0.1535
 4528W        W 8272   1.218   6.551  10.382  0.0322 -0.2238 -0.0053
 4529W        W 8273   3.877   2.699   2.412  0.0131  0.0205 -0.5198
 4530W        W 8274   6.354   5.585  10.241 -0.0382  0.2701  0.1279
 4531W        W 8275   9.590   4.143   1.290  0.1468  0.1139  0.0187
 4532W        W 8276   4.908   9.707   8.443 -0.3965  0.0001 -0.0764
 4533W        W 8277   1.317   6.378   9.912 -0.2083  0.3276  0.3117
 4534W        W 8278   3.340   5.380   1.366  0.0036 -0.2317 -0.2490
 4535W        W 8279   1.933   4.386   8.408  0.0636  0.2671  0.1898
 4536W        W 8280   7.114   4.593   1.122 -0.2616  0.0309  0.1080
 4537W        W 8281   2.645   5.757   0.837 -0.0178  0.2575 -0.1404
 4538W        W 8282   2.217   1.881   4.417 -0.1073  0.0947  0.1957
 4539W        W 8283   3.701   2.132  11.151 -0.1123 -0.0444  0.2600
 4540W        W 8284   1.977   6.261   0.561  0.1059  0.2211  0.0350
 4541W        W 8285   8.513   7.075  12.306  0.2686  0.1336  0.0235
 4542W        W 8286   2.483   6.944   9.088 -0.0812 -0.0004  0.3592
 4543W        W 8287   3.890   6.482   2.309  0.2535  0.0647  0.1674
 4544W        W 8288   8.738   9.075   3.827 -0.0432  0.2795 -0.0596
 4545W        W 8289   5.218   3.330   2.421  0.0392  0.0080  0.2804
 4546W        W 8290   6.317   8.852   2.850  0.0624 -0.0681  0.0078
 4547W        W 8291   7.273   7.960  10.958  0.1426  0.0037  0.2036
 4548W        W 8292   5.129   3.143   8.775  0.0462  0.1005  0.1268
 4549W        W 8293   3.407   8.583   4.134 -0.3196  0.1630  0.3771
 4550W        W 8294   7.241   4.455   4.468 -0.3827 -0.0990 -0.1797
 4551W        W 8295   4.917   4.882   1.578 -0.1714  0.1626 -0.2731
 4552W        W 8296   5.698   7.291   9.276 -0.3193 -0.3395 -0.1560
 4553W        W 8297   1.144   6.939   0.338 -0.2167 -0.0429 -0.2179
 4554W        W 8298   7.996   6.800   1.636 -0.0861 -0.0932 -0.0457
 4555W        W 8299   8.025   6.386   0.111 -0.0733 -0.0089 -0.1014
 4556W        W 8300   2.400   8.966  12.294  0.0705  0.0026 -0.2756
 4557W        W 8301   4.747   7.387  11.429  0.3691  0.0972  0.1906
 4558W        W 8302   3.244   9.052   4.240  0.2173 -0.3202  0.0092
 4559W        W 8303   6.282   9.569  12.118 -0.1368 -0.0041  0.0505
 4560W        W 8304   8.362   5.194   9.514 -0.1649  0.1095  0.1589
 4561W        W 8305   8.023   9.575  12.364  0.3102 -0.1902  0.0958
 4562W        W 8306   0.723   5.410  10.059  0.0219  0.0316  0.4313
 4563W        W 8307   4.357   7.558   1.899  0.2801  0.0922 -0.0849
 4564W        W 8308   3.457   8.328   8.965  0.0046 -0.0349  0.1352
 4565W        W 8309   5.634   2.714   3.126 -0.0451  0.2133 -0.2793
 4566W        W 8310   6.773   2.423  12.204 -0.1235 -0.0031 -0.2246
 4567W        W 8311   2.377   6.926  11.306 -0.2254 -0.0164 -0.1316
 4568W        W 8312   1.668   0.157  10.538 -0.0826  0.1308 -0.0022
 4569W        W 8313   8.071   2.483   4.618  0.1243 -0.3295  0.1730
 4570W        W 8314   6.447   4.041   2.356  0.0523  0.0451 -0.0416
 4571W        W 8315   7.863   5.583   0.597 -0.1988  0.0254 -0.1318
 4572W        W 8316   0.279   6.738   2.230 -0.1533  0.1391  0.0200
 4573W        W 8317   8.182   2.927   1.410 -0.0547  0.0828 -0.1955
 4574W        W 8318   0.061   8.220   3.308 -0.0300 -0.2272 -0.4011
 4575W        W 8319   3.437   6.990   9.292 -0.0371 -0.0302  0.2984
 4576W        W 8320   0.967   2.893  11.662  0.2585  0.0274  0.0662
 4577W        W 8321   8.548   5.132   0.666  0.2216 -0.2025 -0.1674
 4578W        W 8322   0.750   9.251  10.570  0.0233 -0.4334 -0.0999
 4579W        W 8323   6.981   9.567   9.511  0.3614  0.0125  0.2544
 4580W        W 8324   4.301   7.833   0.167 -0.0317 -0.6269 -0.1365
 4581W        W 8325   5.750   5.686   0.469 -0.0593  0.0566 -0.1870
 4582W        W 8326   3.556   6.694   1.443  0.1852 -0.3428  0.2596
 4583W        W 8327   4.563   2.499   0.264  0.2243 -0.0364  0.0708
 4584W        W 8328   6.550   8.361   2.868 -0.0588 -0.0031  0.5230
 4585W        W 8329   4.470   9.287   2.815  0.0253  0.0386  0.0394
 4586W        W 8330   4.000   1.779  10.205 -0.1496 -0.3918  0.2860
 4587W        W 8331   8.012   8.380   1.813 -0.0382  0.0696 -0.0796
 4588W        W 8332   2.198   7.328  10.958  0.0529 -0.0183  0.0225
 4589W        W 8333   6.622   9.743   9.101  0.2314  0.0588 -0.1016
 4590W        W 8334   6.551   0.933  10.008 -0.2532  0.0074 -0.1560
 4591W        W 8335   9.158   2.294   3.146 -0.1062  0.1004  0.1858
 4592W        W 8336   6.752   7.311  10.646  0.0185 -0.1017  0.2052
 4593W        W 8337   1.332   0.139   3.348 -0.2032  0.2072 -0.0983
 4594W        W 8338   4.422   1.499   8.991  0.1015 -0.1368  0.1492
 4595W        W 8339   0.073   6.421   9.043  0.1975 -0.0079 -0.4310
 4596W        W 8340   8.379   1.728  11.156  0.0886 -0.1371 -0.2292
 4597W        W 8341   1.158   2.247   2.704 -0.3958  0.3746 -0.0716
 4598W        W 8342   8.372   1.093   9.781  0.2054  0.2374 -0.0193
 4599W        W 8343   0.058   7.322   3.150 -0.3353 -0.1690 -0.2819
 4600W        W 8344   2.847   5.162  10.784 -0.0434  0.1572  0.0888
 4601W        W 8345   6.571   2.910   9.808 -0.4048 -0.2601 -0.1052
 4602W        W 8346   0.174   4.980  11.852  0.2695 -0.0451  0.1724
 4603W        W 8347   9.201   2.324   8.117  0.0472 -0.1127  0.0558
 4604W        W 8348   3.957   6.247   1.357  0.0301 -0.0315  0.0093
 4605W        W 8349   3.019   1.946   8.613  0.2131 -0.0601 -0.2307
 4606W        W 8350   0.984   5.066  11.491 -0.1540  0.0003  0.2751
 4607W        W 8351   2.958   9.433  10.915 -0.3016  0.1483  0.3895
 4608W        W 8352   7.448   2.826   8.621 -0.1197  0.2352  0.1413
 4609W        W 8353   9.106   4.684   0.339 -0.0525 -0.1318 -0.0395
 4610W        W 8354   4.675   5.021   8.692  0.1464  0.1127  0.2420
 4611W        W 8355   3.575   3.527   9.955  0.1633 -0.1818  0.0655
 4612W        W 8356   6.934   8.967   0.292 -0.2832 -0.2011  0.1270
 4613W        W 8357   1.161   0.746   1.522 -0.0234  0.0874 -0.0222
 4614W        W 8358   3.559   4.470   1.361 -0.1448 -0.0854  0.0283
 4615W        W 8359   6.007   7.035   1.595 -0.1060  0.0470 -0.1137
 4616W        W 8360   5.422   9.650   3.506 -0.3692  0.2440 -0.1348
 4617W        W 8361   4.672   7.471   8.751 -0.0136 -0.4601  0.0663
 4618W        W 8362   0.429   1.164  11.279 -0.5507  0.0095 -0.0740
 4619W        W 8363   1.004   1.891  12.484 -0.0004 -0.2173  0.0195
 4620W        W 8364   2.909   3.367  10.358  0.1620 -0.2826  0.0797
 4621W        W 8365   4.924   4.839   3.532  0.1212  0.2227 -0.0967
 4622W        W 8366   4.065   5.623   3.575  0.4622 -0.0041 -0.2053
 4623W        W 8367   4.523   7.885   1.181  0.4866  0.0619  0.0547
 4624W        W 8368   6.998   0.356   3.867 -0.6093 -0.1493  0.1569
 4625W        W 8369   6.272   1.289   0.965  0.1415  0.3893 -0.1226
 4626W        W 8370   4.334   7.200  10.930  0.2145 -0.2636  0.0022
 4627W        W 8371   5.555   5.248   0.314 -0.0105  0.3206  0.0891
 4628W        W 8372   6.344   3.079   2.130 -0.2513  0.1210  0.0200
 4629W        W 8373   5.752   5.240   2.569 -0.0433  0.1238  0.3363
 4630W        W 8374   7.518   1.675  10.624 -0.1752 -0.0186  0.2269
 4631W        W 8375   6.966   0.337  11.293 -0.0531  0.1761 -0.1045
 4632W        W 8376   7.984   4.150  11.586  0.1236 -0.0120 -0.1405
 4633W        W 8377   2.201   5.524  10.351  0.0462 -0.0938 -0.1831
 4634W        W 8378   0.336   9.821   3.132 -0.1674  0.2073 -0.0791
 4635W        W 8379   1.897   3.052   9.160  0.2640  0.3181  0.1452
 4636W        W 8380   5.518   2.340  12.171  0.0997 -0.3347 -0.1698
 4637W        W 8381   9.436   1.715   2.498  0.0409 -0.0360  0.1056
 4638W        W 8382   7.909   3.654  12.321  0.2547 -0.1297  0.0236
 4639W        W 8383   4.294   9.369   8.409 -0.2040  0.1592  0.2854
 4640W        W 8384   3.111   9.937   9.523 -0.1777 -0.0864 -0.0741
 4641W        W 8385   2.726   9.504   0.720  0.0393  0.1258  0.2143
 4642W        W 8386   5.395   4.413  11.287 -0.5001 -0.0825 -0.0775
 4643W        W 8387   3.195   1.685  10.229 -0.0607 -0.0020  0.2358
 4644W        W 8388   8.138   0.899   2.705 -0.2931  0.0420  0.0105
 4645W        W 8389   9.288   2.892  10.693 -0.0952  0.1130  0.2540
 4646W        W 8390   3.328   4.140  10.642 -0.0888 -0.4026  0.0246
 4647W        W 8391   3.257   3.349  11.265  0.1981  0.4208  0.0318
 4648W        W 8392   0.209   8.975  11.860  0.1295 -0.1075  0.2262
 4649W        W 8393   2.645   7.289  11.187 -0.0400 -0.2003 -0.0388
 4650W        W 8394   4.617   9.772   0.825  0.0649 -0.2431 -0.3014
 4651W        W 8395   9.675   4.295   0.847  0.0423 -0.0881  0.2147
 4652W        W 8396   0.907   0.989  12.425 -0.0257  0.0099  0.2492
 4653W        W 8397   3.695   0.755   1.307 -0.1490 -0.1812  0.0806
 4654W        W 8398   0.902   2.247   3.233 -0.1962 -0.0819  0.0664
 4655W        W 8399   1.759   4.514  11.314 -0.0661 -0.2118  0.1208
 4656W        W 8400   8.439   2.161   2.835  0.3108 -0.1780  0.1417
 4657W        W 8401   1.131   3.318   0.574 -0.2626  0.5175 -0.5432
 4658W        W 8402   2.036   4.626  12.359  0.0757  0.2402 -0.2300
 4659W        W 8403   7.473   5.861   2.156 -0.0129 -0.1840  0.0467
 4660W        W 8404   9.882   9.580   0.913  0.0272 -0.1101 -0.0383
 4661W        W 8405   9.131   4.767   9.076  0.0059 -0.0770  0.0244
 4662W        W 8406   6.090   7.477   1.346  0.1343  0.1695 -0.1106
 4663W        W 8407   4.806   5.770   2.148 -0.1488 -0.1776 -0.2304
 4664W        W 8408   4.672   7.414   1.266  0.1694  0.2886 -0.0029
 4665W        W 8409   1.669   9.461   3.464  0.0050 -0.0811  0.3230
 4666W        W 8410   1.692   6.323  10.255  0.0766 -0.0842 -0.2167
 4667W        W 8411   6.662   0.819   9.494 -0.0769 -0.2534  0.0774
 4668W        W 8412   6.726   4.234   0.335  0.0870 -0.0223  0.0787
 4669W        W 8413   8.145   7.701  11.866  0.1828  0.0581  0.1745
 4670W        W 8414   4.876   2.391   0.668  0.2973  0.1304 -0.4089
 4671W        W 8415   0.069   6.393  11.320 -0.0503  0.1747  0.0058
 4672W        W 8416   7.474   2.932   3.259  0.3637 -0.0695  0.1679
 4673W        W 8417   6.538   1.766   4.073  0.2900 -0.0635 -0.2254
 4674W        W 8418   7.899   6.031   0.893 -0.0188 -0.2628 -0.0967
 4675W        W 8419   1.902   9.058   3.301 -0.0789 -0.0224  0.0990
 4676W        W 8420   3.918   2.362   2.749  0.2406 -0.3122 -0.4142
 4677W        W 8421   2.561   9.395   2.767  0.0326 -0.1687  0.1320
 4678W        W 8422   4.559   4.801   0.300  0.0385  0.0017  0.0553
 4679W        W 8423   0.130   5.537  12.473 -0.3833 -0.1522 -0.0315
 4680W        W 8424   6.203   8.346   2.528 -0.1658 -0.0109  0.0138
 4681W        W 8425   0.583   8.869  10.228 -0.0045 -0.3458 -0.0967
 4682W        W 8426   0.531   8.442  11.575  0.0200  0.0697 -0.2948
 4683W        W 8427   0.064   8.263   2.154 -0.4218  0.0657 -0.1582
 4684W        W 8428   5.967   7.789  12.576  0.0051 -0.1463 -0.0684
 4685W        W 8429   5.578   6.307   8.737  0.0796  0.2600 -0.2487
 4686W        W 8430   7.429   6.948  10.246 -0.0317 -0.1660  0.2578
 4687W        W 8431   6.838   6.418   1.615  0.1188  0.1737  0.1924
 4688W        W 8432   2.828   7.792   9.102  0.2193 -0.2024  0.0196
 4689W        W 8433   7.758   9.942  10.005  0.1239 -0.0729  0.1960
 4690W        W 8434   7.899   8.303  10.442 -0.1430  0.1779 -0.0171
 4691W        W 8435   4.300   5.981   2.290 -0.0574 -0.0464  0.1019
 4692W        W 8436   7.329   7.094  12.318  0.3266  0.2721  0.0711
 4693W        W 8437   8.047   5.917   1.369 -0.0882 -0.0154  0.2782
 4694W        W 8438   2.309   8.505  10.400 -0.2017  0.0332  0.3091
 4695W        W 8439   3.876   0.077   8.307  0.1421 -0.0788 -0.5308
 4696W        W 8440   1.062   5.582  11.530  0.0294  0.3006  0.1497
 4697W        W 8441   0.257   5.019   1.848 -0.1597  0.2644  0.2708
 4698W        W 8442   6.621   9.882  10.550  0.3637 -0.1151 -0.1929
 4699W        W 8443   8.034   3.055  11.291  0.1434  0.1131  0.0775
 4700W        W 8444   6.550   9.530   4.266  0.0343 -0.0062  0.0057
 4701W        W 8445   0.077   9.321   0.406 -0.2866 -0.3495  0.1457
 4702W        W 8446   4.741   3.178   3.024 -0.0291  0.1834 -0.4349
 4703W        W 8447   8.754   8.407  12.318  0.0377  0.2457 -0.0574
 4704W        W 8448   5.970   4.346   2.373 -0.3743 -0.2537 -0.2052
 4705W        W 8449   0.268   5.332   0.873 -0.2591  0.1104  0.1098
 4706W        W 8450   0.596   1.429   0.420  0.1061 -0.0907  0.2037
 4707W        W 8451   7.124   3.807  11.255 -0.1685  0.0979  0.0720
 4708W        W 8452   6.448   2.909   3.179  0.0603 -0.0228  0.2695
 4709W        W 8453   6.250   8.085  10.023 -0.1230 -0.0701  0.0883
 4710W        W 8454   8.655   0.526   2.329 -0.0170 -0.2357 -0.2750
 4711W        W 8455   3.201   4.230   8.913  0.1669  0.0380  0.1143
 4712W        W 8456   5.492   6.570   3.699 -0.0145  0.1129  0.0132
 4713W        W 8457   7.500   0.748  11.715 -0.2680  0.0722  0.2552
 4714W        W 8458   3.379   9.362   7.879  0.3101 -0.1096  0.0978
 4715W        W 8459   8.292   5.100  10.462  0.0525  0.0580  0.2119
 4716W        W 8460   0.142   0.163   4.089 -0.2320  0.4832  0.0666
 4717W        W 8461   0.929   3.925   8.318  0.2587 -0.0031  0.0238
 4718W        W 8462   3.269   6.606   2.420 -0.2283  0.2931 -0.1222
 4719W        W 8463   9.060   1.456   0.994 -0.3717  0.3052  0.4013
 4720W        W 8464   6.731   0.924  10.491 -0.0079 -0.1268 -0.3620
 4721W        W 8465   4.341   7.994   9.337 -0.1270  0.4462  0.0241
 4722W        W 8466   3.390   6.159   2.310  0.1175 -0.0495  0.1517
 4723W        W 8467   1.972   5.591   1.300  0.0971 -0.0638 -0.3713
 4724W        W 8468   0.515   0.716   4.326  0.0190  0.0060 -0.1120
 4725W        W 8469   9.444   7.290  12.335  0.3896 -0.1121 -0.0048
 4726W        W 8470   2.654   1.676   4.850  0.1210  0.1160  0.0876
 4727W        W 8471   8.836   3.393   2.692  0.0806  0.2377  0.1140
 4728W        W 8472   6.652   2.655   2.291  0.2013  0.1589  0.1853
 4729W        W 8473   1.750   9.321   9.976  0.0866 -0.1321  0.1291
 4730W        W 8474   6.757   1.443  11.257 -0.1086  0.0257  0.2284
 4731W        W 8475   8.738   9.381  10.431 -0.0604 -0.1825 -0.1418
 4732W        W 8476   9.766   0.966   2.772 -0.0753 -0.1736  0.0453
 4733W        W 8477   1.441   8.901  12.135  0.1563  0.0600 -0.2955
 4734W        W 8478   3.473   7.575  10.703 -0.2081  0.0096 -0.2539
 4735W        W 8479   6.441   0.913   1.947 -0.1491 -0.2126 -0.1235
 4736W        W 8480   1.621   0.473   9.813 -0.2341  0.0161  0.0200
 4737W        W 8481   0.204   3.336   4.326 -0.1725 -0.0611  0.0700
 4738W        W 8482   7.644   8.182  11.266 -0.0130 -0.0102  0.0048
 4739W        W 8483   8.615   0.929   2.729 -0.0023 -0.0521 -0.1840
 4740W        W 8484   6.741   3.390  12.001  0.1692 -0.1312 -0.4100
 4741W        W 8485   5.756   4.550   1.304  0.2015  0.0095  0.0931
 4742W        W 8486   8.769   4.712   0.922 -0.1665 -0.0060  0.1637
 4743W        W 8487   8.937   2.656   4.066  0.2262  0.0540  0.0307
 4744W        W 8488   3.354   4.046   4.136 -0.1879  0.1200  0.2446
 4745W        W 8489   7.590   9.461  12.587  0.0686  0.1621 -0.2414
 4746W        W 8490   4.493   5.611   2.531  0.0077  0.3220  0.0325
 4747W        W 8491   2.382   9.058   3.105 -0.2960 -0.1016  0.2397
 4748W        W 8492   0.231   3.380   3.611 -0.0161 -0.1653  0.0883
 4749W        W 8493   1.636   4.225   2.765 -0.1540 -0.3790  0.3038
 4750W        W 8494   0.148   2.687   8.663 -0.2188  0.0572 -0.0819
 4751W        W 8495   4.182   1.896   8.024  0.2298 -0.1963 -0.2077
 4752W        W 8496   6.825   5.542   1.497 -0.0351  0.0956  0.3272
 4753W        W 8497   0.023   0.245   2.654  0.2427 -0.0898  0.1156
 4754W        W 8498   9.358   0.297   9.734  0.4479  0.0223 -0.2053
 4755W        W 8499   8.277   4.035   3.589 -0.2112 -0.0870  0.3048
 4756W        W 8500   0.219   4.566   9.396  0.0991 -0.2936 -0.0030
 4757W        W 8501   2.994   3.376   3.402 -0.3129  0.1007  0.0383
 4758W        W 8502   1.090   5.370   9.651 -0.1323  0.3342  0.0614
 4759W        W 8503   8.523   2.296  10.629  0.1189  0.1433 -0.1860
 4760W        W 8504   5.414   1.148  12.063 -0.1078  0.3363 -0.0989
 4761W        W 8505   9.139   7.215   0.773  0.0312 -0.3237  0.2990
 4762W        W 8506   5.617   9.698   4.334 -0.4510 -0.1393 -0.1538
 4763W        W 8507   9.399   6.788   0.014  0.0641  0.2973 -0.0269
 4764W        W 8508   9.407   2.810   2.369 -0.4296 -0.0825  0.0919
 4765W        W 8509   6.718   9.687   3.095  0.0095 -0.1088 -0.1169
 4766W        W 8510   6.265   7.205  11.961  0.1438 -0.0117 -0.0706
 4767W        W 8511   1.401   6.172   2.583 -0.1105 -0.0672  0.1629
 4768W        W 8512   0.984   6.722   1.993  0.0925  0.1734  0.0828
 4769W        W 8513   1.953   7.257  11.409 -0.1437  0.0618 -0.0696
 4770W        W 8514   6.371   4.894   0.165  0.3150  0.2629 -0.0889
 4771W        W 8515   5.821   3.313   3.233  0.4142 -0.3326  0.1053
 4772W        W 8516   9.348   5.908  10.727  0.0104 -0.0639 -0.0224
 4773W        W 8517   7.285   4.629  11.736 -0.0256  0.2521  0.2725
 4774W        W 8518   3.185   9.906   9.061 -0.1633  0.1254  0.1842
 4775W        W 8519   7.086   1.837   0.971 -0.1379 -0.0347  0.0677
 4776W        W 8520   1.850   8.434  10.072 -0.1137 -0.1366 -0.3492
 4777W        W 8521   9.608   2.228   3.421 -0.2929  0.0992 -0.1500
 4778W        W 8522   4.216   8.382   1.795  0.0045  0.0256 -0.3300
 4779W        W 8523   0.634   3.696  11.046  0.0166  0.0624 -0.0098
 4780W        W 8524   8.281   7.798   0.090 -0.2266  0.1341 -0.0715
 4781W        W 8525   4.514   2.735   0.683  0.2595  0.2546 -0.1007
 4782W        W 8526   4.323   3.228   2.445  0.2307 -0.0203 -0.0053
 4783W        W 8527   3.240   0.182   2.198 -0.1057 -0.2673 -0.2422
 4784W        W 8528   0.619   5.552  11.678 -0.1144  0.0971 -0.0671
 4785W        W 8529   8.479   3.066   8.609  0.2191  0.2304 -0.1004
 4786W        W 8530   9.151   3.860   3.640  0.0858  0.0302  0.1100
 4787W        W 8531   0.908   2.052   1.040 -0.4594  0.3872 -0.0367
 4788W        W 8532   0.326   2.840   0.955  0.1054  0.1197  0.0185
 4789W        W 8533   2.425   9.119  11.339 -0.4289  0.1685 -0.0580
 4790W        W 8534   8.082   8.843   2.097 -0.2157 -0.0892 -0.0775
 4791W        W 8535   7.185   0.866  11.335  0.0862 -0.2746 -0.0795
 4792W        W 8536   5.650   5.802   3.749  0.3928 -0.3645  0.0304
 4793W        W 8537   3.077   5.919  10.681  0.2223 -0.2710 -0.0372
 4794W        W 8538   5.496   9.334   1.919  0.4697 -0.1998  0.1461
 4795W        W 8539   9.642   7.802  12.203 -0.2291 -0.0562  0.0443
 4796W        W 8540   1.811   8.403   0.109  0.0003  0.1825  0.1369
 4797W        W 8541   1.461   0.255  11.499 -0.0875 -0.0854 -0.0886
 4798W        W 8542   1.349   4.493  10.002  0.2426 -0.1134  0.2594
 4799W        W 8543   5.387   0.499   0.717  0.2064 -0.1724 -0.1541
 4800W        W 8544   2.347   0.747  10.933  0.3731  0.0819 -0.1606
 4801W        W 8545   6.206   7.523   2.374 -0.0176 -0.0202 -0.0458
 4802W        W 8546   6.044   8.294   9.569 -0.0090  0.0777  0.0183
 4803W        W 8547   3.078   7.672  11.983 -0.1019  0.1559 -0.3902
 4804W        W 8548   1.547   4.451   4.135  0.1805  0.3669 -0.2659
 4805W        W 8549   6.076   2.285   3.826  0.1593 -0.1994 -0.4521
 4806W        W 8550   6.123   2.131   2.614 -0.0318 -0.0413 -0.1732
 4807W        W 8551   3.834   5.559  11.015 -0.0736  0.1597  0.1595
 4808W        W 8552   3.404   5.723   1.002 -0.0511  0.0703 -0.0820
 4809W        W 8553   4.012   5.467   2.701 -0.0314  0.0604  0.1853
 4810W        W 8554   8.817   6.574   2.927 -0.1498  0.2781 -0.1790
 4811W        W 8555   9.539   5.586   0.274  0.2932 -0.2640 -0.0192
 4812W        W 8556   5.483   3.508  11.615  0.1447 -0.1693  0.1966
 4813W        W 8557   1.980   9.744  12.666 -0.0259  0.0913 -0.1356
 4814W        W 8558   6.599   2.611  11.375 -0.1717 -0.0376  0.1421
 4815W        W 8559   1.522   6.931   4.215 -0.3317 -0.1421  0.1473
 4816W        W 8560   3.321   3.703   3.036  0.0895 -0.1134  0.0319
 4817W        W 8561   4.105   3.929   0.726  0.1522 -0.1668  0.3753
 4818W        W 8562   0.526   1.042   9.410  0.7816 -0.0840 -0.1190
 4819W        W 8563   5.989   8.303  10.861 -0.0344 -0.3996 -0.1248
 4820W        W 8564   8.656   0.911  11.720  0.0070  0.3026 -0.3116
 4821W        W 8565   6.432   8.552  10.790  0.1380 -0.1353 -0.2436
 4822W        W 8566   2.321   7.996   2.498  0.1259 -0.2125 -0.1029
 4823W        W 8567   4.023   2.957  11.792 -0.1345 -0.1456 -0.0532
 4824W        W 8568   3.345   7.180  11.064 -0.1008  0.1110  0.1058
 4825W        W 8569   4.628   1.654  12.254  0.1745 -0.1832 -0.0268
 4826W        W 8570   9.542   7.656   1.448 -0.0056  0.0939  0.2448
 4827W        W 8571   9.860   7.663   3.513 -0.5124  0.2885 -0.1777
 4828W        W 8572   2.486   0.431   4.116  0.0928  0.0321  0.1875
 4829W        W 8573   6.024   3.454   1.968 -0.0889  0.0873  0.4406
 4830W        W 8574   0.141   6.916   8.959 -0.3791 -0.0856 -0.1983
 4831W        W 8575   2.433   9.595   2.284 -0.1904  0.0432  0.0989
 4832W        W 8576   4.223   9.371  12.583  0.0724  0.2914  0.0654
 4833W        W 8577   2.222   6.433   3.810 -0.3553  0.0771  0.1573
 4834W        W 8578   8.078   3.217  12.047 -0.3654 -0.0240 -0.0687
 4835W        W 8579   2.981   8.294   8.543  0.0871  0.4165 -0.0336
 4836W        W 8580   6.076   7.312  12.411  0.1702  0.0067 -0.0623
 4837W        W 8581   8.769   4.647   3.310 -0.0393 -0.3164  0.3666
 4838W        W 8582   0.532   4.466   9.771 -0.2168  0.0378  0.0369
 4839W        W 8583   7.677   2.545   2.962 -0.0885  0.0407 -0.2126
 4840W        W 8584   7.343   2.122   9.558  0.0246 -0.0324  0.1361
 4841W        W 8585   8.841   1.285  10.034  0.2134  0.1424 -0.2388
 4842W        W 8586   3.195   7.221  10.548  0.1860 -0.0125 -0.3601
 4843W        W 8587   0.803   7.484   4.400  0.1424 -0.0546 -0.0326
 4844W        W 8588   4.721   2.490  11.768  0.2544  0.0001  0.0625
 4845W        W 8589   2.426   5.615  11.932 -0.1879  0.0917  0.2546
 4846W        W 8590   3.459   5.195  10.484 -0.1497  0.1515  0.3874
 4847W        W 8591   1.711   5.411  10.367 -0.0050 -0.1008 -0.4949
 4848W        W 8592   9.195   0.484   1.595  0.1018 -0.1362 -0.2410
 4849W        W 8593   1.486   4.903   0.459  0.0045 -0.0126  0.0915
 4850W        W 8594   5.991   4.268   9.224 -0.1549  0.1544  0.0869
 4851W        W 8595   2.699   0.996  12.450  0.3708 -0.1706 -0.0499
 4852W        W 8596   7.057   6.205  10.281 -0.0722  0.0995 -0.2405
 4853W        W 8597   9.189   4.927   0.800 -0.1512  0.2149 -0.0375
 4854W        W 8598   3.102   8.728   0.873  0.1593  0.1030  0.2647
 4855W        W 8599   9.423   3.385   0.675  0.0423  0.3159 -0.0862
 4856W        W 8600   7.284   9.587  11.726  0.1650  0.1571  0.1467
 4857W        W 8601   3.542   2.721  10.500 -0.0022  0.0828  0.0566
 4858W        W 8602   5.332   2.633   0.346 -0.0809  0.2152 -0.0595
 4859W        W 8603   1.628   6.790   8.814  0.0340  0.0442  0.0889
 4860W        W 8604   6.163   8.772   0.057  0.1620 -0.1831 -0.3625
 4861W        W 8605   6.705   4.439   9.824  0.0530  0.0928  0.1034
 4862W        W 8606   7.278   0.759   9.162 -0.1292 -0.1789  0.1419
 4863W        W 8607   1.142   8.308   4.185  0.0032 -0.2111 -0.1441
 4864W        W 8608   2.438   4.804  11.562  0.2893 -0.1437 -0.2522
 4865W        W 8609   4.286   3.635   3.536  0.1143  0.1467  0.0490
 4866W        W 8610   0.110   9.760   2.706 -0.0054  0.2183  0.0476
 4867W        W 8611   6.569   7.254  11.214  0.0852  0.3326  0.2133
 4868W        W 8612   3.176   6.256   9.737 -0.1513  0.2806 -0.4316
 4869W        W 8613   1.704   6.237   3.696 -0.0473 -0.3991  0.0697
 4870W        W 8614   9.556   9.453   9.687  0.0391  0.2970 -0.2514
 4871W        W 8615   8.724   2.124   0.869  0.0549 -0.0020  0.0603
 4872W        W 8616   0.846   2.674   4.559  0.1302  0.2160 -0.1696
 4873W        W 8617   8.428   1.061  10.272  0.1437  0.2323 -0.0370
 4874W        W 8618   9.937   3.712   1.454 -0.0569 -0.2395  0.3016
 4875W        W 8619   7.918   9.551   4.824 -0.0307 -0.1254 -0.1007
 4876W        W 8620   5.293   6.724   1.240 -0.0619  0.0365 -0.1508
 4877W        W 8621   8.828   2.994   0.201  0.0175  0.0906 -0.0313
 4878W        W 8622   0.399   9.300   9.467  0.0856  0.1199  0.0706
 4879W        W 8623   4.307   9.644   2.113 -0.0468 -0.2921 -0.2133
 4880W        W 8624   7.457   7.434   2.069  0.0068  0.2305  0.0686
 4881W        W 8625   7.236   3.364  11.487  0.0954 -0.0565  0.0376
 4882W        W 8626   2.902   1.961  10.466 -0.1343 -0.1749  0.4362
 4883W        W 8627   8.602   2.652   3.695  0.1084  0.0784 -0.0699
 4884W        W 8628   3.599   9.658   3.570  0.2060 -0.2275  0.1770
 4885W        W 8629   0.107   5.022   8.921  0.0404 -0.2933 -0.0861
 4886W        W 8630   7.374   7.664  12.493  0.3596  0.1558  0.0598
 4887W        W 8631   7.227   2.602  11.461  0.1001 -0.0374  0.1992
 4888W        W 8632   2.478   9.636   8.740  0.2532 -0.0144  0.0202
 4889W        W 8633   3.707   4.213  10.900  0.0548 -0.0255 -0.1829
 4890W        W 8634   3.586   8.847   8.067  0.0122 -0.2122 -0.0605
 4891W        W 8635   0.623   2.969   3.467  0.1942 -0.0435 -0.0449
 4892W        W 8636   7.809   1.395  11.937  0.2741 -0.1704  0.1020
 4893W        W 8637   1.039   1.475   4.257  0.0450 -0.0261  0.0932
 4894W        W 8638   0.803   8.778   9.768  0.1781 -0.0044  0.0654
 4895W        W 8639   6.842   2.456   2.745  0.0044 -0.0250  0.2034
 4896W        W 8640   8.314   1.167  12.105 -0.0612  0.0481 -0.0302
 4897W        W 8641   0.955   8.510  10.350 -0.1821 -0.1336 -0.2831
 4898W        W 8642   0.916   6.477   3.975  0.0523 -0.1007  0.0420
 4899W        W 8643   1.834   1.408   3.906 -0.2261  0.2117  0.0318
 4900W        W 8644   1.843   8.577   4.252 -0.0075 -0.0332  0.0205
 4901W        W 8645   4.945   8.801   8.901  0.0036  0.0067 -0.3457
 4902W        W 8646   5.077   0.071   0.916 -0.4082 -0.1971  0.1579
 4903W        W 8647   2.634   3.743  10.123  0.0620  0.2189 -0.0084
 4904W        W 8648   8.742   0.275   1.848 -0.0610  0.1435  0.0310
 4905W        W 8649   7.038   0.846   2.571  0.0897 -0.1349 -0.1550
 4906W        W 8650   7.565   3.756  12.666 -0.0822 -0.3781 -0.1136
 4907W        W 8651   1.633   9.070   4.833 -0.3592  0.1720  0.0127
 4908W        W 8652   7.885   5.643   2.220  0.0457 -0.3470 -0.2026
 4909W        W 8653   0.178   9.341  11.543 -0.2388 -0.1862  0.2799
 4910W        W 8654   1.921   2.632   0.703 -0.1231  0.1749 -0.1661
 4911W        W 8655   5.227   6.359  10.232 -0.0991 -0.0555 -0.0154
 4912W        W 8656   8.224   9.810  11.214 -0.0969  0.0690 -0.0011
 4913W        W 8657   8.397   0.938   2.220 -0.1337 -0.3901 -0.1060
 4914W        W 8658   5.883   9.791  11.865  0.3970 -0.0090 -0.0408
 4915W        W 8659   5.258   5.467   8.753  0.0267  0.0955  0.1107
 4916W        W 8660   4.118   2.514   1.623  0.1320 -0.1695  0.0482
 4917W        W 8661   2.024   8.591   3.164  0.0656  0.2837  0.2085
 4918W        W 8662   3.564   0.914   0.030  0.1827 -0.2538 -0.0378
 4919W        W 8663   9.790   2.922   9.630  0.0961 -0.4073  0.0637
 4920W        W 8664   8.007   3.762  10.772  0.1022  0.1772 -0.1284
 4921W        W 8665   5.240   8.123  11.836  0.0242 -0.3609 -0.1084
 4922W        W 8666   2.350   5.694   3.437  0.0237  0.0967 -0.2510
 4923W        W 8667   7.240   3.811   0.851  0.1083 -0.0945  0.1537
 4924W        W 8668   4.297   6.057   0.562 -0.2488 -0.1442 -0.1245
 4925W        W 8669   7.594   2.194  10.202 -0.0265 -0.0726  0.0056
 4926W        W 8670   3.216   9.352   3.870  0.0584 -0.2569  0.0591
 4927W        W 8671   3.229   7.658   4.523  0.1046  0.0498 -0.0136
 4928W        W 8672   0.845   1.786   1.985 -0.3077 -0.1597  0.1150
 4929W        W 8673   5.938   9.958  12.369 -0.2012  0.0733  0.1889
 4930W        W 8674   4.423   8.263   3.345 -0.2420 -0.1354  0.0343
 4931W        W 8675   7.410   0.357  10.084  0.2085 -0.2674 -0.0068
 4932W        W 8676   5.171   8.229  11.070 -0.1870 -0.0334  0.0922
 4933W        W 8677   7.829   7.541   0.928  0.2511  0.1141  0.3328
 4934W        W 8678   0.821   1.549  11.151 -0.1228  0.2675 -0.3505
 4935W        W 8679   8.074   2.767   9.378  0.2639 -0.1299 -0.0557
 4936W        W 8680   6.113   9.725   7.807 -0.2460 -0.3405 -0.1170
 4937W        W 8681   7.776   6.723  10.576 -0.4070 -0.3755 -0.0208
 4938W        W 8682   9.954   7.628   0.533  0.2806 -0.2063  0.0283
 4939W        W 8683   6.707   5.249  10.668 -0.0201 -0.0807 -0.1267
 4940W        W 8684   7.521   0.287   1.378 -0.0111  0.0976 -0.0123
 4941W        W 8685   4.713   5.759   0.572 -0.0827 -0.1141 -0.0298
 4942W        W 8686   8.939   9.183   1.272  0.0796  0.3586  0.0766
 4943W        W 8687   4.294   1.293  12.133  0.1221  0.0708 -0.0537
 4944W        W 8688   4.188   3.313  12.094  0.1691  0.0863 -0.0002
 4945W        W 8689   1.133   0.440  11.935  0.1618 -0.0388 -0.1852
 4946W        W 8690   4.168   7.187   0.518  0.2746  0.2263 -0.3174
 4947W        W 8691   0.891   8.672   3.839 -0.2160  0.2431  0.1389
 4948W        W 8692   6.113   0.552   1.809  0.0607  0.1232  0.0990
 4949W        W 8693   0.188   3.253  11.346 -0.2791 -0.0352  0.2657
 4950W        W 8694   2.821   8.035   2.941 -0.5309 -0.2482 -0.1735
 4951W        W 8695   0.172   3.221   2.684  0.0459  0.3462  0.2029
 4952W        W 8696   0.659   4.181   3.794  0.2846  0.2539  0.2886
 4953W        W 8697   4.100   4.040   2.119 -0.1829 -0.0568 -0.1371
 4954W        W 8698   3.618   3.683   1.514 -0.1440  0.2243 -0.1424
 4955W        W 8699   4.486   3.963   2.498  0.3011  0.3663 -0.2035
 4956W        W 8700   4.498   5.797   2.959  0.3443 -0.0545 -0.0628
 4957W        W 8701   0.306   6.602   3.421  0.0196  0.1401  0.3977
 4958W        W 8702   0.297   4.802   1.424 -0.1831 -0.0113  0.0871
 4959W        W 8703   4.914   7.821  11.090  0.1543  0.2727  0.1116
 4960W        W 8704   6.087   3.447   8.947 -0.0234 -0.0509 -0.2526
 4961W        W 8705   5.261   8.441   1.946  0.2340  0.1734 -0.1617
 4962W        W 8706   3.131   5.145   3.515 -0.1814  0.1672  0.0235
 4963W        W 8707   1.493   6.329   2.058 -0.2617 -0.1397 -0.1041
 4964W        W 8708   8.165   2.295   9.137 -0.1331  0.0423  0.1038
 4965W        W 8709   6.181   6.048   0.567  0.4673  0.0516  0.0739
 4966W        W 8710   9.146   9.660  10.334 -0.2271 -0.1815  0.0068
 4967W        W 8711   3.176   1.128   1.744 -0.1523 -0.1349 -0.0424
 4968W        W 8712   8.114   0.597   4.408  0.2131 -0.0083 -0.3140
 4969W        W 8713   4.283   1.736   1.827 -0.0466 -0.1061  0.2199
 4970W        W 8714   2.618   3.794   2.012 -0.2779  0.2397 -0.0325
 4971W        W 8715   1.433   6.645  12.594  0.2343  0.3321 -0.0481
 4972W        W 8716   9.318   1.068   4.850 -0.1550  0.2741  0.1426
 4973W        W 8717   3.963   9.820  12.290 -0.2018  0.0040 -0.2849
 4974W        W 8718   8.250   1.792   4.062 -0.2856  0.0185  0.1586
 4975W        W 8719   7.716   4.890   0.096 -0.0118  0.3148 -0.0196
 4976W        W 8720   6.028   4.131   4.782 -0.1539  0.0921  0.1016
 4977W        W 8721   8.512   7.747  10.136 -0.0346  0.2616 -0.0424
 4978W        W 8722   3.541   9.109  10.255  0.0238  0.0166  0.2175
 4979W        W 8723   7.199   7.203   9.633 -0.1166  0.1420 -0.0184
 4980W        W 8724   7.772   8.627  10.015  0.0020  0.1134  0.0433
 4981W        W 8725   3.004   8.185   3.414  0.1170 -0.0215  0.0239
 4982W        W 8726   7.990   0.866   9.455 -0.1975  0.1755 -0.1129
 4983W        W 8727   9.248   5.202   2.965 -0.3942 -0.3066  0.1417
 4984W        W 8728   7.183   1.506   9.206 -0.0849 -0.1585  0.2608
 4985W        W 8729   2.420   3.809  10.618 -0.1305  0.1204  0.0411
 4986W        W 8730   7.060   5.760   9.939  0.1660  0.3717  0.0012
 4987W        W 8731   6.705   7.554   4.161 -0.1373  0.0292  0.1725
 4988W        W 8732   8.454   2.476   0.600 -0.1195  0.1184  0.0923
 4989W        W 8733   2.135   0.781   8.768  0.0291  0.0289  0.3267
 4990W        W 8734   9.418   8.474   0.229  0.0054 -0.2856 -0.0752
 4991W        W 8735   8.390   6.418   1.952  0.0343  0.1077 -0.2741
 4992W        W 8736   4.482   3.173  10.451  0.0681 -0.1785 -0.0123
 4993W        W 8737   9.500   1.297   1.167 -0.0821  0.2818  0.3250
 4994W        W 8738   3.292   7.066   4.486  0.0362  0.0995  0.0364
 4995W        W 8739   3.307   2.592  10.035  0.0360 -0.2143  0.3510
 4996W        W 8740   2.561   4.706   4.199  0.0796  0.1969  0.2354
 4997W        W 8741   8.092   1.797   1.156  0.3157 -0.1937 -0.2528
 4998W        W 8742   5.922   8.136   3.438  0.1198 -0.0308  0.0651
 4999W        W 8743   4.963   9.835   3.502  0.0238  0.0368 -0.0182
 5000W        W 8744   2.053   1.480  11.924 -0.3144  0.2560 -0.0955
 5001W        W 8745   0.301   6.698   0.666  0.0168 -0.0268  0.0428
 5002W        W 8746   1.974   2.097   9.776 -0.0630 -0.0884 -0.3486
 5003W        W 8747   1.443   9.444   8.941 -0.1537 -0.3916 -0.0789
 5004W        W 8748   7.073   3.912   2.871 -0.2800  0.0498  0.1204
 5005W        W 8749   6.141   3.786   3.023  0.2455 -0.4829  0.5509
 5006W        W 8750   3.009   6.408   3.868 -0.1894 -0.2269  0.1472
 5007W        W 8751   1.338   5.657   3.650  0.3608  0.2309  0.4882
 5008W        W 8752   4.207   8.513   8.698 -0.2634 -0.0499  0.4815
 5009W        W 8753   1.907   8.763   1.613  0.1161  0.2122 -0.0441
 5010W        W 8754   6.610   1.520   0.367 -0.2445 -0.0993  0.3923
 5011W        W 8755   8.934   2.839  12.357  0.3411  0.0897  0.1494
 5012W        W 8756   4.990   1.432  11.983 -0.1244 -0.0488 -0.0243
 5013W        W 8757   4.180   2.263  11.151  0.1767 -0.0802  0.0924
 5014W        W 8758   8.385   1.180   0.528 -0.2149 -0.1851  0.3272
 5015W        W 8759   7.390   9.838   0.105 -0.1340  0.1964  0.2445
 5016W        W 8760   4.521   3.123  11.070  0.0385  0.0499 -0.1175
 5017W        W 8761   0.817   3.566   3.132 -0.1902 -0.3036  0.0934
 5018W        W 8762   1.007   6.435   2.819  0.0092 -0.1205  0.4094
 5019W        W 8763   1.430   4.680   0.884 -0.1825 -0.0274  0.2277
 5020W        W 8764   0.621   9.402  11.126 -0.1640 -0.2329  0.0770
 5021W        W 8765   8.602   4.281   1.230  0.0647 -0.1014 -0.2238
 5022W        W 8766   9.658   4.851  11.907 -0.1982  0.1082 -0.0922
 5023W        W 8767   1.498   0.406   0.178  0.0008 -0.2529  0.2331
 5024W        W 8768   0.471   9.863  10.729  0.1094  0.3701  0.0121
 5025W        W 8769   0.649   6.684   9.138 -0.1133 -0.4961  0.0272
 5026W        W 8770   8.190   8.505  11.570  0.0114 -0.0517 -0.2982
 5027W        W 8771   3.230   9.475  10.479 -0.0122 -0.0028 -0.2016
 5028W        W 8772   6.230   4.132   0.415 -0.0206  0.0980 -0.2651
 5029W        W 8773   1.941   4.047  10.692 -0.1765 -0.0753 -0.2655
 5030W        W 8774   8.237   1.950   9.817 -0.1549  0.1847  0.0673
 5031W        W 8775   2.649   6.381  12.329  0.1047  0.1888  0.1601
 5032W        W 8776   5.854   4.469   8.730 -0.1694  0.0665  0.1929
 5033W        W 8777   0.710   8.639   2.966 -0.0603  0.0708  0.3916
 5034W        W 8778   3.791   7.207   8.913  0.1433 -0.0491 -0.0916
 5035W        W 8779   1.208   7.161   9.562 -0.2024  0.4007 -0.1947
 5036W        W 8780   8.174   0.082  12.188 -0.0198  0.0038  0.1668
 5037W        W 8781   0.671   2.925  12.560  0.2270  0.0137 -0.1005
 5038W        W 8782   7.090   6.589   0.674 -0.2018  0.2493  0.2533
 5039W        W 8783   7.720   4.386   2.253  0.1891 -0.1574 -0.0360
 5040W        W 8784   0.896   5.918   8.771  0.2598 -0.0536 -0.1381
 5041W        W 8785   0.206   2.766   0.112  0.0616  0.3311 -0.0154
 5042W        W 8786   1.078   7.225   1.975  0.0225  0.4354 -0.0525
 5043W        W 8787   4.707   3.658   9.299  0.1521  0.0403 -0.4172
 5044W        W 8788   9.230   2.336  12.393  0.2390  0.1762  0.2050
 5045W        W 8789   3.692   2.513   9.716  0.4240 -0.0308 -0.1487
 5046W        W 8790   2.689   7.990  12.328 -0.4123 -0.1442  0.1957
 5047W        W 8791   1.775   9.394  10.923  0.0755  0.2465 -0.3574
 5048W        W 8792   0.163   2.821  10.726 -0.1662 -0.0519 -0.3363
 5049W        W 8793   0.135   1.329   9.100 -0.3641 -0.0138  0.2250
 5050W        W 8794   0.251   7.795   3.063 -0.1863  0.0979  0.2944
 5051W        W 8795   6.807   6.953   0.328  0.1315 -0.2238  0.2292
 5052W        W 8796   9.643   2.503   8.858 -0.0160 -0.0549 -0.2995
 5053W        W 8797   4.746   9.587   1.292  0.2041 -0.0985 -0.1359
 5054W        W 8798   1.266   5.373   1.294 -0.3617  0.1428 -0.3801
 5055W        W 8799   4.773   6.448   3.056  0.0981  0.0523  0.2406
 5056W        W 8800   5.911   7.238   8.473 -0.3362  0.1440 -0.2773
 5057W        W 8801   8.447   0.075   8.825  0.2280 -0.1352 -0.1269
 5058W        W 8802   1.741   3.609  11.492 -0.0952  0.0626  0.0152
 5059W        W 8803   5.184   4.373   9.598 -0.1432 -0.1026 -0.0564
 5060W        W 8804   6.446   2.703   8.604  0.2125 -0.2159  0.0951
 5061W        W 8805   3.871   4.173   1.643 -0.1292 -0.2760  0.1754
 5062W        W 8806   8.226   6.484  10.321 -0.1451 -0.2392 -0.1377
 5063W        W 8807   7.741   6.492  11.137 -0.1266  0.0242  0.0383
 5064W        W 8808   4.082   7.615  12.297  0.0735 -0.1748  0.3063
 5065W        W 8809   5.650   1.681   4.198 -0.0835  0.2781 -0.1195
 5066W        W 8810   3.812   5.930  10.530 -0.0939 -0.0758 -0.0480
 5067W        W 8811   7.039   5.742  12.026  0.1124 -0.2632  0.3769
 5068W        W 8812   0.045   1.170  11.862  0.0450 -0.2374  0.2878
 5069W        W 8813   5.827   3.547  12.516  0.0938  0.1242  0.2584
 5070W        W 8814   1.474   1.102   1.414  0.3914  0.2886  0.0807
 5071W        W 8815   5.310   6.554   2.144  0.2345  0.1042  0.2988
 5072W        W 8816   8.658   5.585   9.395 -0.1544  0.1519  0.0017
 5073W        W 8817   2.675   0.300  10.461 -0.0756 -0.1018 -0.2419
 5074W        W 8818   2.652   7.553   0.644  0.0680 -0.0030 -0.0570
 5075W        W 8819   3.438   5.164  11.311 -0.0541 -0.0049  0.5483
 5076W        W 8820   1.305   0.806  12.209 -0.1543  0.0946  0.0295
 5077W        W 8821   2.590   8.039   3.731 -0.0060 -0.0807 -0.2426
 5078W        W 8822   1.598   2.237   8.746 -0.0107 -0.0872 -0.3629
 5079W        W 8823   1.620   3.884   2.005 -0.2055  0.0296 -0.3532
 5080W        W 8824   2.895   8.957  12.356  0.2847 -0.0144 -0.4045
 5081W        W 8825   6.523   8.686  11.664  0.2656  0.2474 -0.1274
 5082W        W 8826   5.762   2.374   9.020 -0.2985 -0.1181 -0.2747
 5083W        W 8827   9.037   3.491   9.201 -0.1827  0.2490 -0.0119
 5084W        W 8828   9.611   4.903   2.818  0.0355  0.0211  0.1547
 5085W        W 8829   4.117   9.991   3.252  0.1818  0.0104  0.0620
 5086W        W 8830   8.274   3.899   1.578  0.1600 -0.1832 -0.0316
 5087W        W 8831   7.412   0.270   3.575 -0.1320  0.0294 -0.0665
 5088W        W 8832   9.142   1.354   3.371  0.0802 -0.1622  0.0069
 5089W        W 8833   4.971   8.405   9.254 -0.1578 -0.4021  0.1382
 5090W        W 8834   8.089   8.321  11.075  0.1048  0.0745  0.1637
 5091W        W 8835   3.083   1.101   3.188 -0.1901 -0.2084 -0.0164
 5092W        W 8836   0.649   3.275   0.415 -0.1762 -0.2231  0.0627
 5093W        W 8837   5.960   7.862   1.660 -0.2845  0.3506 -0.0568
 5094W        W 8838   7.936   2.149   4.208 -0.0200 -0.2218  0.0565
 5095W        W 8839   3.608   5.022   9.545  0.0613  0.1623  0.2544
 5096W        W 8840   1.707   9.757   9.369 -0.0465  0.1541 -0.1111
 5097W        W 8841   5.640   7.122   0.433  0.0732 -0.1009  0.2191
 5098W        W 8842   6.441   6.713  11.904  0.3184  0.0862 -0.1560
 5099W        W 8843   6.381   9.060  10.770 -0.0192  0.0768 -0.1383
 5100W        W 8844   5.173   1.306   8.807  0.0922 -0.2470 -0.0106
 5101W        W 8845   0.837   1.830   5.233  0.4556 -0.2557 -0.0125
 5102W        W 8846   1.694   9.422   1.658 -0.0041  0.3731 -0.1888
 5103W        W 8847   3.225   0.431  10.321 -0.1571  0.0446  0.4085
 5104W        W 8848   0.340   2.603   9.558 -0.2272  0.2505  0.0258
 5105W        W 8849   7.401   4.538   0.752  0.2937  0.0034 -0.1092
 5106W        W 8850   8.864   1.057   0.652  0.2496 -0.0711  0.0647
 5107W        W 8851   0.735   9.859   1.852 -0.0613  0.1018 -0.0282
 5108W        W 8852   4.774   0.029   9.018 -0.0632  0.0038 -0.1711
 5109W        W 8853   3.995   0.591   1.709  0.0627 -0.3095 -0.4533
 5110W        W 8854   9.384   1.552  11.298 -0.1202 -0.0785  0.1642
 5111W        W 8855   6.463   6.877   3.425 -0.3085  0.0926  0.1509
 5112W        W 8856   5.656   0.023   9.860 -0.0092 -0.0201  0.0837
 5113W        W 8857   2.180   2.758   1.163 -0.0056 -0.0411  0.0914
 5114W        W 8858   2.234   5.493  11.432 -0.4722 -0.1503  0.2114
 5115W        W 8859   1.670   3.568   0.681  0.0744 -0.1290 -0.1522
 5116W        W 8860   7.614   9.367  10.179  0.0313  0.0095  0.0629
 5117W        W 8861   5.776   1.880   1.512  0.1772  0.0866 -0.0339
 5118W        W 8862   3.199   6.722   1.068  0.1120 -0.1891 -0.2889
 5119W        W 8863   6.491   5.923   2.365  0.0053 -0.0350 -0.0328
 5120W        W 8864   9.682   1.658  12.145 -0.2595 -0.2332  0.0095
 5121W        W 8865   8.117   2.273  11.949  0.0133  0.4025  0.5534
 5122W        W 8866   2.743   8.515   3.715 -0.2564 -0.3126  0.2809
 5123W        W 8867   9.071   1.743   3.071 -0.3453 -0.0336  0.0132
 5124W        W 8868   1.919   4.155   1.637  0.1780  0.1121  0.1129
 5125W        W 8869   3.008   0.146   3.196  0.1015  0.2096 -0.3429
 5126W        W 8870   2.005   8.728   2.195  0.1843 -0.0428 -0.1030
 5127W        W 8871   9.308   1.508   8.976 -0.0264 -0.1763  0.0831
 5128W        W 8872   8.989   9.226   8.410  0.3365  0.0830 -0.1977
 5129W        W 8873   8.403   4.793   2.999  0.1135 -0.0158 -0.2214
 5130W        W 8874   1.011   9.617  11.652 -0.0215 -0.0498 -0.0380
 5131W        W 8875   0.662   4.913  11.861  0.0404  0.0296  0.1768
 5132W        W 8876   7.757   7.970   2.195  0.0711  0.3149  0.1785
 5133W        W 8877   3.598   0.566  12.236 -0.0101  0.2357 -0.3889
 5134W        W 8878   9.278   3.233   0.190 -0.1810 -0.1933 -0.0207
 5135W        W 8879   0.078   2.926   3.474 -0.1504 -0.0143 -0.0293
 5136W        W 8880   5.359   2.672  11.827 -0.3405 -0.1173  0.0211
 5137W        W 8881   7.755   3.248   1.389  0.0848 -0.1913  0.2093
 5138W        W 8882   5.537   0.082   9.376 -0.1328  0.0265  0.1767
 5139W        W 8883   5.094   7.605   1.045  0.0140  0.0765  0.1507
 5140W        W 8884   5.781   7.027  10.617 -0.1664  0.0752 -0.1658
 5141W        W 8885   0.772   1.980  11.584 -0.1049 -0.1265 -0.1860
 5142W        W 8886   7.739   9.385   0.461  0.0962 -0.1343  0.1964
 5143W        W 8887   3.320   9.058  10.732  0.0077 -0.2026  0.3945
 5144W        W 8888   6.363   1.393   9.872  0.2570 -0.0708 -0.1239
 5145W        W 8889   4.128   9.282   2.437  0.0087  0.1254  0.1487
 5146W        W 8890   6.054   6.495  10.618  0.1016  0.2199 -0.0027
 5147W        W 8891   8.454   5.824   2.917  0.0717  0.0843 -0.2618
 5148W        W 8892   3.345   2.649  12.352 -0.0792  0.1589  0.1925
 5149W        W 8893   9.845   1.846   8.373 -0.1671  0.1234 -0.0644
 5150W        W 8894   6.054   6.095   2.449  0.3142 -0.0793 -0.2558
 5151W        W 8895   0.389   7.315  10.098 -0.1870  0.1847  0.0240
 5152W        W 8896   4.648   4.469   2.581 -0.2159  0.0669 -0.0613
 5153W        W 8897   0.987   7.331   1.411  0.3271  0.1434  0.3091
 5154W        W 8898   0.830   2.623   2.879  0.2747 -0.0401 -0.1146
 5155W        W 8899   8.623   3.151   1.140  0.0495 -0.2172 -0.1352
 5156W        W 8900   4.432   0.794   1.935  0.0503 -0.0016  0.1738
 5157W        W 8901   5.980   0.655  11.613  0.1315 -0.0785 -0.2116
 5158W        W 8902   7.594   1.133   9.640  0.0804 -0.2124 -0.3243
 5159W        W 8903   0.991   9.824   8.754  0.0921  0.0686  0.0282
 5160W        W 8904   3.639   0.051  12.020 -0.0915  0.0775  0.2615
 5161W        W 8905   4.745   0.955   8.290  0.0176  0.0053 -0.0471
 5162W        W 8906   0.706   7.713  12.422  0.3172  0.2702 -0.0442
 5163W        W 8907   3.863   0.137   3.646  0.0566  0.0600 -0.1547
 5164W        W 8908   1.563   4.055   3.837 -0.1295 -0.0244  0.3286
 5165W        W 8909   0.871   5.393   3.554 -0.0746  0.2037 -0.2433
 5166W        W 8910   0.116   2.351  10.589 -0.0247  0.3020 -0.2961
 5167W        W 8911   3.828   2.533  10.185  0.1018  0.0779  0.0136
 5168W        W 8912   7.378   1.963   9.101  0.1971  0.2066 -0.0984
 5169W        W 8913   4.435   7.892   2.790 -0.0352 -0.1298 -0.2104
 5170W        W 8914   3.794   1.721   0.504  0.1395 -0.0891 -0.2307
 5171W        W 8915   5.777   5.746   9.533 -0.0058 -0.0473  0.0747
 5172W        W 8916   0.423   1.981   3.252 -0.0962 -0.0831  0.1230
 5173W        W 8917   1.827   2.470  10.500  0.3606 -0.2313 -0.2456
 5174W        W 8918   8.324   4.886   3.864 -0.0308  0.2192 -0.0099
 5175W        W 8919   8.836   1.904  11.446  0.1907 -0.2089  0.0878
 5176W        W 8920   1.450   3.433  10.407  0.1627  0.0521  0.0923
 5177W        W 8921   2.187   6.372  11.193  0.3588 -0.0895  0.0378
 5178W        W 8922   5.203   4.941  10.777  0.2935 -0.3825  0.0694
 5179W        W 8923   4.913   4.033   0.086  0.2952 -0.1060  0.0721
 5180W        W 8924   1.517   8.902  11.334  0.0777 -0.0308  0.1842
 5181W        W 8925   0.673   9.671   0.379  0.1737  0.1113 -0.0509
 5182W        W 8926   5.744   7.720  11.745  0.3781  0.2936  0.2625
 5183W        W 8927   3.749   3.172   0.434 -0.1512 -0.0036  0.2535
 5184W        W 8928   8.620   1.163  10.995 -0.2339  0.1441 -0.2398
 5185W        W 8929   9.140   3.306   2.284 -0.3128 -0.1923  0.1091
 5186W        W 8930   4.602   1.524   1.417 -0.0872 -0.1676  0.1216
 5187W        W 8931   2.827   2.477  10.730  0.3481  0.0640  0.0897
 5188W        W 8932   9.699   7.202  10.628 -0.2348 -0.0077  0.0691
 5189W        W 8933   3.588   4.211   2.188  0.0561  0.4552 -0.0557
 5190W        W 8934   3.045   0.257   0.739  0.1364 -0.0128 -0.0719
 5191W        W 8935   1.124   1.192  10.817  0.3082  0.2436 -0.1285
 5192W        W 8936   6.306   6.527   3.781 -0.0719 -0.0307 -0.2153
 5193W        W 8937   2.864   8.436   8.042 -0.2571 -0.1331  0.3211
 5194W        W 8938   4.646   7.423   9.263 -0.1986 -0.1788  0.0663
 5195W        W 8939   7.585   2.355   2.250  0.2307 -0.2655 -0.3230
 5196W        W 8940   7.192   2.582  10.430 -0.1563  0.2714  0.0245
 5197W        W 8941   1.827   2.625   3.093 -0.2164 -0.1474  0.0012
 5198W        W 8942   8.144   9.810   3.161  0.4183  0.1180 -0.2041
 5199W        W 8943   1.082   0.418   2.488  0.2736  0.0803 -0.0843
 5200W        W 8944   7.588   6.788   1.313 -0.1290  0.1986 -0.0501
 5201W        W 8945   8.017   3.553   1.940  0.1213 -0.0818 -0.1587
 5202W        W 8946   7.824   8.691   0.116 -0.1977 -0.1353  0.0482
 5203W        W 8947   0.658   1.943   8.555 -0.2560  0.1591  0.1414
 5204W        W 8948   9.134   1.535   3.861 -0.0403  0.0148 -0.0359
 5205W        W 8949   2.970   2.874  12.615 -0.1834  0.1520 -0.0866
 5206W        W 8950   3.343   8.062   0.258 -0.2013  0.1897  0.1754
 5207W        W 8951   1.980   4.104  12.191  0.1954  0.3316  0.0726
 5208W        W 8952   2.546   5.529   3.857  0.0117  0.1934  0.0049
 5209W        W 8953   1.053   0.428   2.968 -0.2650 -0.2004  0.2025
 5210W        W 8954   1.803   1.116  12.669  0.2755 -0.1130  0.3010
 5211W        W 8955   3.905   7.838  10.833  0.1629 -0.2056 -0.0163
 5212W        W 8956   5.158   3.884  11.887 -0.0374  0.1716  0.2120
 5213W        W 8957   6.746   1.302   4.096 -0.0873  0.2772  0.2646
 5214W        W 8958   5.304   1.294   0.701  0.3418  0.0325  0.0515
 5215W        W 8959   5.886   1.376  10.726 -0.1744  0.2569  0.4539
 5216W        W 8960   1.123   4.989   9.969 -0.0144  0.2822  0.1689
 5217W        W 8961   6.841   9.902  10.969  0.0086  0.1008 -0.0977
 5218W        W 8962   1.248   6.051  10.766 -0.1624  0.2918  0.0877
 5219W        W 8963   0.638   3.581   7.998 -0.1962 -0.0177 -0.1323
 5220W        W 8964   9.602   8.911   3.903 -0.2373 -0.0391 -0.1975
 5221W        W 8965   7.929   4.566  12.386 -0.1166  0.1520 -0.0615
 5222W        W 8966   2.784   2.189  11.757 -0.1967 -0.0194 -0.0536
 5223W        W 8967   4.776   7.231   0.761 -0.0233  0.3526 -0.1496
 5224W        W 8968   0.417   2.908   1.597  0.5413 -0.0371 -0.2858
 5225W        W 8969   9.909   9.418  10.118  0.2300  0.0593 -0.0607
 5226W        W 8970   1.495   0.721   2.498 -0.0591 -0.1498  0.4252
 5227W        W 8971   1.628   3.113  10.776  0.2049 -0.0632  0.2984
 5228W        W 8972   6.993   7.256   0.665  0.0431  0.0212 -0.2467
 5229W        W 8973   7.227   2.454   3.125  0.0331 -0.0018  0.2840
 5230W        W 8974   1.558   3.041   4.256  0.1888  0.0813 -0.0952
 5231W        W 8975   4.867   5.117  10.331  0.0551  0.0341  0.0411
 5232W        W 8976   9.027   1.777   9.924 -0.0645 -0.0608  0.2010
 5233W        W 8977   9.484   2.473   0.563 -0.1300  0.0361  0.0358
 5234W        W 8978   9.768   4.617   1.357  0.0725  0.1885  0.0084
 5235W        W 8979   1.466   1.948   9.832 -0.0041 -0.3229  0.0443
 5236W        W 8980   9.272   7.638  10.904 -0.0861 -0.0547  0.3527
 5237W        W 8981   7.313   3.264   8.272  0.0323  0.1091 -0.1860
 5238W        W 8982   1.827   7.685   8.627 -0.3072  0.0585  0.0819
 5239W        W 8983   7.010   0.540   1.604 -0.0258  0.1456 -0.1264
 5240W        W 8984   6.881   7.572  12.597  0.3367 -0.1968 -0.0069
 5241W        W 8985   8.663   1.412  12.366  0.1701 -0.2591 -0.0122
 5242W        W 8986   9.854   3.338  10.042  0.0812 -0.2779  0.0918
 5243W        W 8987   5.032   4.673   8.106  0.1727 -0.0190  0.1011
 5244W        W 8988   2.555   8.169   1.222 -0.3378 -0.1618  0.6079
 5245W        W 8989   4.046   6.780   9.808 -0.3842 -0.1231 -0.2908
 5246W        W 8990   9.205   1.230  12.463 -0.3262 -0.1412 -0.1805
 5247W        W 8991   3.661   0.673   8.726 -0.0288 -0.1039  0.3260
 5248W        W 8992   8.388   6.473   9.801  0.1144  0.0794 -0.3028
 5249W        W 8993   4.947   9.782  12.181  0.0571 -0.1929  0.0781
 5250W        W 8994   3.962   9.799   3.964 -0.0139  0.2869 -0.1727
 5251W        W 8995   7.838   8.999   1.074 -0.0458 -0.1035  0.1390
 5252W        W 8996   7.503   2.712   0.167  0.0026  0.0758 -0.1201
 5253W        W 8997   4.653   0.485   3.767  0.1710 -0.2395 -0.0775
 5254W        W 8998   2.665   6.476  11.290 -0.0140 -0.2028  0.1652
 5255W        W 8999   2.955   9.482   1.201  0.1829  0.2032  0.0778
 5256W        W 9000   9.955   7.341   1.409  0.0050  0.4004  0.1250
 5257W        W 9001   2.343   8.440   1.624 -0.2153  0.1488 -0.0246
 5258W        W 9002   9.531   4.071   9.876  0.2433 -0.0527 -0.2095
 5259W        W 9003   2.546   7.113   3.404  0.0657  0.3191  0.2051
 5260W        W 9004   4.023   4.750   9.321  0.1437  0.0868 -0.5424
 5261W        W 9005   8.137   4.623   9.725  0.1463  0.0314 -0.2053
 5262W        W 9006   4.387   2.252   2.566 -0.0343 -0.2303  0.0098
 5263W        W 9007   4.449   3.810   4.182 -0.0322 -0.0096 -0.1660
 5264W        W 9008   7.075   4.917  12.270  0.0709 -0.0823  0.0710
 5265W        W 9009   9.915   1.410  11.218 -0.1343 -0.2246 -0.0142
 5266W        W 9010   4.471   1.806  10.417 -0.0073  0.0590 -0.2201
 5267W        W 9011   0.255   5.881   1.858  0.2762  0.1059 -0.2796
 5268W        W 9012   5.251   6.079   2.005 -0.1028 -0.1005  0.0590
 5269W        W 9013   2.890   1.013   9.057  0.2318 -0.2974  0.0494
 5270W        W 9014   8.224   1.178   8.447  0.0027 -0.0005  0.1601
 5271W        W 9015   0.846   9.797   1.365  0.0897 -0.3094 -0.1402
 5272W        W 9016   6.385   5.574   2.773 -0.1059  0.1847  0.2289
 5273W        W 9017   4.127   9.243  12.135 -0.0397 -0.0519 -0.2086
 5274W        W 9018   8.349   2.624   4.131  0.0268 -0.4544  0.0332
 5275W        W 9019   3.463   8.805   4.588  0.1321 -0.2305  0.2019
 5276W        W 9020   4.162   0.833   8.661  0.1727  0.0200 -0.1098
 5277W        W 9021   4.854   4.099   4.251  0.0477  0.0680 -0.3090
 5278W        W 9022   8.369   9.662   1.154  0.1262 -0.0802 -0.1207
 5279W        W 9023   5.699   2.458  10.488  0.2473  0.0841  0.1134
 5280W        W 9024   2.584   7.443  10.659 -0.0620  0.1187 -0.1953
 5281W        W 9025   1.199   8.483   9.106  0.2394  0.3337 -0.2680
 5282W        W 9026   3.474   2.854   0.046  0.1155  0.1259 -0.2880
 5283W        W 9027   4.472   0.542   8.928  0.1697  0.1479 -0.3188
 5284W        W 9028   9.179   2.441   9.061 -0.1027 -0.2027 -0.0882
 5285W        W 9029   0.803   1.695  10.071  0.1534  0.1394 -0.2359
 5286W        W 9030   7.073   9.880   3.712  0.2164 -0.0605 -0.2332
 5287W        W 9031   2.361   8.802   3.530  0.0485  0.1208  0.0746
 5288W        W 9032   5.728   2.356   8.185 -0.0476  0.3436 -0.2142
 5289W        W 9033   1.480   6.698   2.916 -0.0341  0.1232 -0.0356
 5290W        W 9034   3.880   8.273  10.570  0.2513 -0.1082 -0.0090
 5291W        W 9035   0.809   2.451   2.379 -0.3558 -0.3651 -0.0817
 5292W        W 9036   5.502   9.757  12.249 -0.0700  0.1988 -0.0763
 5293W        W 9037   7.069   8.456   0.114  0.1360 -0.0519  0.0070
 5294W        W 9038   4.315   5.577   0.903 -0.0376 -0.2061 -0.1889
 5295W        W 9039   0.859   1.396   3.780  0.0024  0.1176 -0.1857
 5296W        W 9040   5.015   2.949  11.017  0.1101  0.1804 -0.4608
 5297W        W 9041   9.650   2.362   0.141 -0.0039  0.1709  0.0003
 5298W        W 9042   1.209   9.505   2.636  0.0705  0.0537 -0.1847
 5299W        W 9043   5.549   5.808   9.061  0.1154 -0.1098  0.4595
 5300W        W 9044   4.782   2.097  11.432 -0.0042  0.0444  0.1406
 5301W        W 9045   9.201   7.567  11.970 -0.2371 -0.3000 -0.5545
 5302W        W 9046   6.437   3.789  10.454 -0.1398  0.1682 -0.2114
 5303W        W 9047   5.312   9.765   1.289  0.5058  0.1269  0.0929
 5304W        W 9048   6.286   5.402   9.704 -0.2082 -0.0109 -0.2453
 5305W        W 9049   3.346   8.993   2.433 -0.1743  0.2350 -0.2299
 5306W        W 9050   0.772   8.559   4.358 -0.0669 -0.0529  0.1364
 5307W        W 9051   2.469   4.409   2.371  0.1230 -0.2627 -0.0501
 5308W        W 9052   8.271   0.084   9.890 -0.0620  0.0645  0.1600
 5309W        W 9053   9.799   1.672   8.834  0.2843 -0.3129 -0.1867
 5310W        W 9054   6.429   8.642   4.263  0.0411 -0.0146  0.1707
 5311W        W 9055   4.668   4.501  12.296 -0.2260 -0.0946 -0.2240
 5312W        W 9056   1.273   5.965  12.351 -0.1988  0.0727 -0.0409
 5313W        W 9057   4.562   6.271  11.883  0.1277  0.1894 -0.0922
 5314W        W 9058   8.965   6.503  11.435  0.0919 -0.1160  0.1002
 5315W        W 9059   7.605   0.494   0.837  0.0932  0.2831 -0.0727
 5316W        W 9060   2.887   7.829   0.128  0.1398 -0.2485  0.0515
 5317W        W 9061   6.629   6.600   2.986 -0.1028 -0.0926 -0.3210
 5318W        W 9062   8.321   5.058   8.988  0.1831 -0.2613  0.1503
 5319W        W 9063   4.460   8.237  12.441  0.0489 -0.1849 -0.0485
 5320W        W 9064   3.558   4.923   1.591 -0.1945  0.0699 -0.0981
 5321W        W 9065   1.590   8.266   4.003  0.0952  0.0949  0.0647
 5322W        W 9066   7.975   9.439   1.403 -0.1182  0.0579  0.1947
 5323W        W 9067   7.489   1.679   0.704  0.1241  0.2736 -0.0007
 5324W        W 9068   7.298   1.343   1.668 -0.2358  0.1453  0.2466
 5325W        W 9069   0.634   0.708   9.878  0.1636 -0.0138 -0.0041
 5326W        W 9070   6.925   3.002  10.219  0.1339 -0.0331 -0.1640
 5327W        W 9071   0.073   3.962  11.779 -0.1030 -0.0346 -0.0560
 5328W        W 9072   9.976   4.747   0.901  0.1436  0.0998  0.0506
 5329W        W 9073   5.811   0.765  10.800  0.1236  0.1357  0.2078
 5330W        W 9074   9.047   1.302  11.992 -0.1277 -0.1749  0.3062
 5331W        W 9075   7.038   2.730   9.625 -0.1283 -0.0799 -0.0509
 5332W        W 9076   5.762   9.990   1.382 -0.2377  0.4258 -0.0182
 5333W        W 9077   6.798   8.028   1.944 -0.0311  0.2078  0.5201
 5334W        W 9078   4.573   1.161   3.244 -0.1318 -0.2525 -0.0932
 5335W        W 9079   2.798   8.918   0.473  0.2749  0.1140 -0.0751
 5336W        W 9080   0.719   7.192  10.922 -0.3516 -0.3938  0.0939
 5337W        W 9081   8.886   1.702   0.616 -0.0595  0.3192  0.0726
 5338W        W 9082   0.416   9.210   0.728 -0.1612 -0.0350  0.1452
 5339W        W 9083   5.795   2.796   1.655 -0.1045 -0.2228  0.0093
 5340W        W 9084   2.491   3.965   4.869 -0.2925  0.0273  0.1829
 5341W        W 9085   7.901   5.647  11.078  0.3366 -0.1175 -0.0456
 5342W        W 9086   8.908   1.593   9.227  0.1649  0.1515  0.0053
 5343W        W 9087   5.186   6.283   0.930  0.0919 -0.1125 -0.5518
 5344W        W 9088   2.414   3.362  10.282  0.1274 -0.2935 -0.0013
 5345W        W 9089   2.219   6.565   1.595 -0.0631 -0.0994  0.1055
 5346W        W 9090   8.560   5.119   2.258  0.0252  0.2662 -0.1801
 5347W        W 9091   3.911   0.306  10.988 -0.0989 -0.0866 -0.3789
 5348W        W 9092   2.712   0.769  10.568 -0.3060 -0.2128  0.2087
 5349W        W 9093   1.292   8.782   0.497 -0.3274  0.2453 -0.1474
 5350W        W 9094   7.808   5.449   1.120 -0.1041 -0.1776 -0.1781
 5351W        W 9095   9.439   3.583  12.450  0.2265  0.1469  0.2062
 5352W        W 9096   8.686   4.387  10.690 -0.1083  0.2766  0.1794
 5353W        W 9097   3.679   2.349   1.138  0.2745 -0.2406 -0.0495
 5354W        W 9098   3.856   3.330   1.268 -0.1161 -0.2921  0.1159
 5355W        W 9099   7.202   3.477   1.346  0.0743 -0.3209 -0.0129
 5356W        W 9100   7.584   0.843   2.717 -0.1013 -0.2993  0.0142
 5357W        W 9101   5.860   2.746   0.528  0.1685  0.3540 -0.2731
 5358W        W 9102   7.203   8.231   3.871 -0.4069  0.1885  0.1337
 5359W        W 9103   4.464   0.793  11.325  0.1299 -0.0934  0.0465
 5360W        W 9104   6.487   0.925   4.254 -0.3072 -0.2097  0.1257
 5361W        W 9105   4.140   5.816   9.569 -0.5266 -0.0695 -0.3939
 5362W        W 9106   9.879   3.607  10.455 -0.0886  0.1189  0.1220
 5363W        W 9107   0.491   1.494   8.759  0.2347 -0.0871 -0.3010
 5364W        W 9108   3.451   9.323  11.410  0.3055 -0.0420 -0.1081
 5365W        W 9109   2.210   2.383   3.831 -0.0756 -0.4916 -0.1797
 5366W        W 9110   6.268   1.490  11.055 -0.0915  0.0439  0.1304
 5367W        W 9111   2.363   5.574  12.517 -0.3410 -0.1650  0.1274
 5368W        W 9112   2.676   9.961   0.503 -0.3687 -0.0486  0.0254
 5369W        W 9113   5.142   0.874   0.341  0.1269 -0.0149 -0.4493
 5370W        W 9114   1.515   7.430   4.512 -0.3485  0.1497 -0.0516
 5371W        W 9115   3.355   9.157   8.422  0.3406  0.1147 -0.0914
 5372W        W 9116   2.903   4.392   4.101  0.1468 -0.0024 -0.3112
 5373W        W 9117   8.304   5.941  12.670  0.0446 -0.0596  0.1499
 5374W        W 9118   8.493   3.441  11.174 -0.0882  0.0785 -0.2406
 5375W        W 9119   0.292   9.947  12.170  0.0639  0.0499 -0.5517
 5376W        W 9120   5.897   4.866   0.352  0.3090 -0.1228  0.2140
 5377W        W 9121   3.518   7.182  10.080 -0.3319  0.0893 -0.1586
 5378W        W 9122   8.662   0.963   3.674 -0.2667  0.0221  0.0882
 5379W        W 9123   8.121   1.214   4.499 -0.1050 -0.1615  0.0362
 5380W        W 9124   5.441   2.298   8.600  0.2295 -0.0033  0.0687
 5381W        W 9125   8.080   5.244   2.019 -0.0019 -0.1273  0.2824
 5382W        W 9126   4.100   1.945  10.760  0.0334 -0.0142 -0.1620
 5383W        W 9127   0.891   1.916   9.622 -0.2135 -0.1111  0.2373
 5384W        W 9128   2.293   1.691   2.186 -0.0846 -0.3595 -0.3948
 5385W        W 9129   9.462   8.822   3.250 -0.1979  0.1605 -0.2432
 5386W        W 9130   7.617   0.329   2.581 -0.1024 -0.2006  0.1701
 5387W        W 9131   0.950   6.777   1.507  0.0964  0.2350  0.2912
 5388W        W 9132   9.870   6.698   0.323 -0.2082  0.3174 -0.0852
 5389W        W 9133   1.447   2.537   5.528 -0.0479  0.1965  0.0882
 5390W        W 9134   2.813   5.555  11.218  0.0013 -0.0102 -0.0932
 5391W        W 9135   9.295   6.984   3.040  0.0748 -0.0935 -0.0461
 5392W        W 9136   1.776   9.888   3.066 -0.3784  0.1435  0.2903
 5393W        W 9137   3.483   9.339   1.053 -0.1032  0.1506  0.0656
 5394W        W 9138   5.513   0.754  11.338 -0.0385  0.0470  0.1195
 5395W        W 9139   2.409   0.968   9.244 -0.2788  0.3266  0.1021
 5396W        W 9140   0.584   3.625  10.488 -0.2444  0.0124 -0.2252
 5397W        W 9141   2.713   5.867   1.740  0.1405 -0.2287 -0.1848
 5398W        W 9142   5.197   7.168   3.175  0.0340 -0.4652 -0.1929
 5399W        W 9143   1.621   8.697   0.981 -0.0383 -0.4505 -0.3630
 5400W        W 9144   1.612   8.768  10.377  0.0219  0.0843 -0.2000
 5401W        W 9145   1.605   5.659   0.847  0.0352  0.1643  0.0502
 5402W        W 9146   3.293   4.993  12.022  0.0258  0.2217  0.4639
 5403W        W 9147   3.704   2.589   9.213 -0.0271  0.0497 -0.4457
 5404W        W 9148   9.573   9.269   0.135 -0.1657 -0.0737  0.3171
 5405W        W 9149   0.333   2.386  12.010 -0.0861  0.0285  0.4642
 5406W        W 9150   2.554   6.760   8.606  0.1164 -0.0736 -0.0283
 5407W        W 9151   1.816   5.990   2.834  0.0424 -0.0430  0.1419
 5408W        W 9152   0.393   5.958   9.853 -0.0290 -0.1105  0.1540
 5409W        W 9153   1.652   1.889  10.827  0.1288 -0.0730 -0.0087
 5410W        W 9154   7.984   5.157  10.831  0.1823  0.0930  0.2726
 5411W        W 9155   0.318   4.283   4.199  0.2238  0.0030  0.0339
 5412W        W 9156   4.593   8.773  10.393 -0.0608 -0.0539 -0.1441
 5413W        W 9157   0.519   0.913   8.803 -0.2597  0.0576  0.1547
 5414W        W 9158   2.277   2.086   2.886 -0.0740  0.1231 -0.0038
 5415W        W 9159   6.779   1.679   2.279 -0.4456 -0.2443  0.0516
 5416W        W 9160   6.119   3.672   0.757  0.0616 -0.1553 -0.0262
 5417W        W 9161   3.378   6.487   8.536 -0.0917  0.0786 -0.0761
 5418W        W 9162   1.337   9.726   3.665  0.0357  0.4039 -0.2069
 5419W        W 9163   1.182   9.911  10.302 -0.2110 -0.1487  0.2015
 5420W        W 9164   5.344   3.966   9.956 -0.1172  0.1803 -0.2157
 5421W        W 9165   9.513   9.584  10.857 -0.1244 -0.0885  0.2886
 5422W        W 9166   3.259   4.111   1.226  0.1568 -0.0966 -0.2142
 5423W        W 9167   2.973   9.638   8.626 -0.1041  0.4335  0.1235
 5424W        W 9168   6.106   2.938   2.842 -0.1091 -0.1870 -0.1432
 5425W        W 9169   8.049   1.322   2.214 -0.0037 -0.3740  0.3783
 5426W        W 9170   6.798   2.915  11.696  0.0117 -0.2064 -0.2283
 5427W        W 9171   0.926   4.500   3.544 -0.2532  0.0330  0.1408
 5428W        W 9172   1.256   0.958   0.863 -0.1432 -0.4703  0.0015
 5429W        W 9173   8.793   3.458   8.714  0.1142 -0.1460  0.0146
 5430W        W 9174   3.402   0.874   8.199  0.2293  0.0243 -0.0265
 5431W        W 9175   7.307   2.805   3.799  0.1970  0.0423  0.0334
 5432W        W 9176   6.990   3.126   4.091 -0.0549  0.2180  0.2909
 5433W        W 9177   8.958   6.037  10.449 -0.0587  0.2927  0.1236
 5434W        W 9178   0.270   0.463  12.028 -0.3961  0.0993  0.2797
 5435W        W 9179   8.530   7.506  10.562 -0.1265  0.0521  0.1791
 5436W        W 9180   5.675   7.472  12.190  0.0033  0.1523 -0.2890
 5437W        W 9181   0.508   1.310   1.467 -0.0316  0.0335 -0.1711
 5438W        W 9182   0.369   5.179  11.398 -0.2413  0.2663 -0.0892
 5439W        W 9183   8.312   6.954   9.658  0.1530  0.0505 -0.1565
 5440W        W 9184   6.959   8.596   2.676  0.3394 -0.1478 -0.0233
 5441W        W 9185   4.042   4.344   9.642  0.1029 -0.0165  0.0300
 5442W        W 9186   4.126   4.996   0.584  0.1817  0.1442  0.0337
 5443W        W 9187   8.479   6.423  12.504  0.2397 -0.0853 -0.2862
 5444W        W 9188   4.240   1.644   2.382 -0.1439  0.1044  0.2244
 5445W        W 9189   5.783   9.652   0.508 -0.6039 -0.1305 -0.0443
 5446W        W 9190   9.225   0.036   1.774  0.1237 -0.2665 -0.4262
 5447W        W 9191   3.173   4.199   3.174  0.1458  0.4889 -0.0311
 5448W        W 9192   2.513   1.501  12.359 -0.3507  0.2011  0.1349
 5449W        W 9193   8.470   5.523   1.861 -0.0308 -0.0838  0.0343
 5450W        W 9194   4.005   1.537   3.165  0.1544  0.0175  0.2029
 5451W        W 9195   9.427   5.846   1.095  0.3054 -0.2966 -0.0275
 5452W        W 9196   8.716   6.554   1.139  0.1715  0.1915 -0.0484
 5453W        W 9197   3.075   2.564   0.778 -0.0105 -0.0978  0.1853
 5454W        W 9198   4.172   1.089   2.994 -0.2316  0.2332  0.3888
 5455W        W 9199   3.245   9.116   0.174  0.0922 -0.2244  0.0774
 5456W        W 9200   6.815   8.036   0.118  0.2083  0.4076 -0.3029
 5457W        W 9201   1.041   3.871   3.451  0.1299 -0.3966 -0.2330
 5458W        W 9202   1.777   6.723   4.593 -0.2454  0.0380  0.0088
 5459W        W 9203   8.778   4.125   1.714 -0.0885  0.2122 -0.2165
 5460W        W 9204   4.029   2.067   3.325  0.0161 -0.2779  0.2346
 5461W        W 9205   1.797   9.721   0.476  0.3422 -0.2913 -0.1726
 5462W        W 9206   9.213   5.061  10.093 -0.0016 -0.0352 -0.0916
 5463W        W 9207   5.596   3.938   0.795 -0.0426  0.3473  0.1763
 5464W        W 9208   6.376   2.748   0.893  0.1199 -0.0451  0.3182
 5465W        W 9209   6.082   0.886   2.967 -0.0253 -0.1259  0.1050
 5466W        W 9210   4.520   3.104   1.169 -0.0257  0.1085  0.5119
 5467W        W 9211   0.131   1.143   8.062  0.0109 -0.0421  0.1454
 5468W        W 9212   1.524   9.394  11.409 -0.0582  0.1722 -0.0820
 5469W        W 9213   0.211   1.123   9.782 -0.1584  0.3615  0.0613
 5470W        W 9214   4.019   1.372   9.829 -0.3722  0.1928 -0.0493
 5471W        W 9215   4.718   2.385  10.369  0.0869 -0.0165 -0.1253
 5472W        W 9216   9.817   3.883  10.901 -0.0294 -0.1625  0.1720
 5473W        W 9217   4.207   5.408   3.132 -0.2728  0.1611  0.0171
 5474W        W 9218   8.301   6.482   0.847  0.0862 -0.1481  0.1932
 5475W        W 9219   7.816   7.479  11.302  0.0218  0.3370  0.0320
 5476W        W 9220   7.818   8.772   9.453 -0.0961 -0.1265  0.0222
 5477W        W 9221   9.328   9.665   0.929 -0.2668  0.3020  0.5200
 5478W        W 9222   1.933   8.019  10.372 -0.0234 -0.3761  0.2603
 5479W        W 9223   1.538   8.646   3.126  0.1985  0.2388  0.3708
 5480W        W 9224   7.819   2.637   4.104  0.2574  0.5005  0.2373
 5481W        W 9225   5.191   7.220   1.407 -0.0492  0.0271 -0.0525
 5482W        W 9226   1.864   6.467   4.187  0.1874  0.0534  0.1230
 5483W        W 9227   2.905   1.105   8.069 -0.4485 -0.1357  0.0011
 5484W        W 9228   5.596   3.153   2.023  0.1251  0.1557  0.1642
 5485W        W 9229   1.432   7.644   2.583 -0.2296 -0.0473 -0.0302
 5486W        W 9230   6.711   2.510   3.251 -0.0995  0.0438 -0.0765
 5487W        W 9231   2.769   3.848   1.175  0.3090 -0.3224  0.0859
 5488W        W 9232   4.461   9.137   0.238 -0.0825 -0.1331  0.0176
 5489W        W 9233   4.407   8.795   2.659  0.4825  0.2494  0.1864
 5490W        W 9234   6.522   5.385   0.095  0.2313  0.1555 -0.2097
 5491W        W 9235   2.102   4.788  10.988  0.2967 -0.3413  0.0285
 5492W        W 9236   6.982   7.846   1.059 -0.0458 -0.3322  0.1060
 5493W        W 9237   3.885   3.055  10.484 -0.1454  0.1750  0.4009
 5494W        W 9238   7.241   9.296   2.929 -0.1153  0.0403 -0.0850
 5495W        W 9239   7.849   4.145  11.106 -0.0855  0.1337 -0.2238
 5496W        W 9240   8.875   2.271   9.802  0.2838  0.0220 -0.0315
 5497W        W 9241   0.955   8.215  12.471  0.0493 -0.0262  0.2039
 5498W        W 9242   5.915   1.188   9.797 -0.0357  0.0930 -0.0589
 5499W        W 9243   4.927   7.249  10.051  0.2004  0.0032  0.0908
 5500W        W 9244   9.772   3.027   8.490 -0.0086 -0.0779 -0.0317
 5501W        W 9245   3.493   5.984  10.941 -0.0640 -0.2634 -0.2158
 5502W        W 9246   5.471   4.552  10.666 -0.0242 -0.0233  0.1128
 5503W        W 9247   6.587   0.447   0.967 -0.1685  0.1292  0.1420
 5504W        W 9248   2.747   1.803   2.407 -0.1756  0.2095 -0.0168
 5505W        W 9249   9.148   6.674   1.575 -0.2506  0.0593  0.0989
 5506W        W 9250   1.528   0.879  10.917  0.0143  0.1498  0.1662
 5507W        W 9251   1.888   8.621  12.267 -0.2624  0.1500 -0.1238
 5508W        W 9252   2.488   4.245   8.322  0.1502 -0.1659  0.2868
 5509W        W 9253   1.295   8.786   4.153  0.0405 -0.2800  0.1631
 5510W        W 9254   3.316   3.007   0.486 -0.0099  0.2055 -0.0527
 5511W        W 9255   5.471   3.058   3.526  0.0318 -0.0677  0.1981
 5512W        W 9256   5.740   2.207   0.902  0.1187  0.1127  0.2759
 5513W        W 9257   6.114   1.900   9.135  0.1359 -0.1620  0.0357
 5514W        W 9258   9.106   2.245   3.651 -0.0421 -0.1282 -0.1945
 5515W        W 9259   6.014   5.996  10.458 -0.0542 -0.1641  0.1544
 5516W        W 9260   7.725   9.709  11.435  0.3212 -0.2552 -0.2918
 5517W        W 9261   6.547   2.122   0.958 -0.1183  0.0663 -0.0159
 5518W        W 9262   6.151   6.520   2.750 -0.1781 -0.1702  0.3041
 5519W        W 9263   3.759   5.084  12.388  0.1127  0.1326 -0.1585
 5520W        W 9264   3.859   6.851  11.679 -0.0984  0.0678  0.1074
 5521W        W 9265   2.068   7.291   9.474 -0.0498 -0.4062  0.2032
 5522W        W 9266   5.671   6.493   2.520 -0.1327 -0.0189 -0.3110
 5523W        W 9267   9.576   0.874   1.379 -0.1678  0.2286  0.0102
 5524W        W 9268   9.350   8.013   9.734 -0.1441  0.2490 -0.2965
 5525W        W 9269   7.490   9.353  11.118 -0.0709 -0.3080 -0.2431
 5526W        W 9270   2.343   8.415   8.056  0.2707 -0.0570 -0.0004
 5527W        W 9271   5.178   8.068   8.860 -0.0687  0.1485  0.0340
 5528W        W 9272   5.369   1.029   9.825  0.0176 -0.2258 -0.1274
 5529W        W 9273   6.604   8.361   9.565 -0.0305  0.0066  0.4397
 5530W        W 9274   9.551   8.961   2.629  0.0135 -0.0131  0.0562
 5531W        W 9275   1.186   2.101   2.153  0.1012  0.0600  0.1023
 5532W        W 9276   8.892   9.035  11.486 -0.0494 -0.0634 -0.3573
 5533W        W 9277   8.849   8.960   8.824 -0.1141 -0.1369 -0.1775
 5534W        W 9278   8.522   5.084  12.193  0.2903 -0.0851  0.0173
 5535W        W 9279   9.673   8.040   0.272  0.0437 -0.3075 -0.1294
 5536W        W 9280   2.615   6.081   1.229  0.0059 -0.0484  0.1642
 5537W        W 9281   0.295   2.514  10.157  0.2800  0.0222 -0.1418
 5538W        W 9282   2.328   3.799   1.499 -0.1120  0.4230 -0.0745
 5539W        W 9283   9.279   8.136   0.613 -0.0676  0.2531  0.1454
 5540W        W 9284   3.930   2.467  11.566  0.7021 -0.1031  0.2485
 5541W        W 9285   4.524   1.328   1.916 -0.1807  0.0804  0.4394
 5542W        W 9286   3.251   7.866   8.820  0.0394 -0.2059 -0.1540
 5543W        W 9287   0.452   8.550  10.686  0.3027  0.1204 -0.2479
 5544W        W 9288   1.676   6.216   0.140  0.2526 -0.0640 -0.2001
 5545W        W 9289   3.916   6.087   0.909 -0.0352  0.0883 -0.0970
 5546W        W 9290   0.348   9.467  10.431  0.2751  0.0764  0.0800
 5547W        W 9291   8.907   5.384   0.959 -0.0066  0.0137  0.0697
 5548W        W 9292   1.713   1.728   3.502  0.4066  0.2229  0.0440
 5549W        W 9293   8.423   8.029   0.543 -0.0192 -0.3967 -0.1132
 5550W        W 9294   6.584   7.311   3.649  0.2419  0.2956 -0.0584
 5551W        W 9295   5.156   5.166   9.987  0.2382  0.1360 -0.0321
 5552W        W 9296   6.290   6.170  12.436 -0.0528 -0.0773  0.3170
 5553W        W 9297   5.215   5.868   4.226 -0.1828  0.0227 -0.0750
 5554W        W 9298   1.742   0.854   9.094  0.1916 -0.0279  0.0545
 5555W        W 9299   3.222   8.102   2.632 -0.3757  0.1225  0.1147
 5556W        W 9300   6.256   0.184   3.121  0.2408 -0.5202 -0.3590
 5557W        W 9301   8.844   4.165  10.254 -0.4477 -0.0801 -0.0747
 5558W        W 9302   8.616   5.101   1.253 -0.2158 -0.0133  0.0641
 5559W        W 9303   4.435   1.222   1.037  0.4522  0.1518 -0.1582
 5560W        W 9304   1.525   7.477   2.105  0.0117 -0.1482 -0.1026
 5561W        W 9305   6.795   0.443  10.088 -0.0286 -0.1864 -0.1335
 5562W        W 9306   4.874   3.573   4.161  0.0762 -0.0601 -0.1033
 5563W        W 9307   1.937   0.185  11.729  0.3431 -0.0682  0.0069
 5564W        W 9308   2.247   9.103  11.809  0.5341  0.0848 -0.2927
 5565W        W 9309   4.355   5.658   1.419 -0.0424  0.0513 -0.0643
 5566W        W 9310   1.830   8.748   0.548  0.0418  0.0395  0.2278
 5567W        W 9311   1.938   4.261   2.132 -0.1295 -0.0233  0.2883
 5568W        W 9312   3.915   9.579   0.834  0.1747  0.0623 -0.1611
 5569W        W 9313   2.783   5.833  12.271  0.1281 -0.0151 -0.0119
 5570W        W 9314   2.168   7.711  11.248  0.0344  0.0144  0.2822
 5571W        W 9315   9.022   8.890  10.498 -0.2830  0.0506 -0.1995
 5572W        W 9316   1.395   0.132   9.484  0.0638  0.0405 -0.0884
 5573W        W 9317   7.827   6.383   2.012  0.2400  0.0816  0.2241
 5574W        W 9318   1.560   5.366   9.859 -0.0439 -0.1670 -0.2430
 5575W        W 9319   7.653   7.550   9.552  0.3772  0.1840  0.0878
 5576W        W 9320   9.938   5.712   4.429  0.0508 -0.0820 -0.0070
 5577W        W 9321   8.335   4.362  11.209  0.1983  0.3127  0.1043
 5578W        W 9322   1.461   2.831  11.165 -0.0577  0.0742 -0.0864
 5579W        W 9323   4.783   2.651   2.838  0.0683 -0.1718  0.0034
 5580W        W 9324   6.693   1.674  12.602  0.1171 -0.0915  0.2731
 5581W        W 9325   9.713   3.810  12.082  0.0690  0.0417 -0.0845
 5582W        W 9326   4.231   8.844  12.498 -0.3709 -0.1821  0.0909
 5583W        W 9327   7.728   1.769  12.353  0.0808 -0.1465 -0.3071
 5584W        W 9328   9.267   2.727   2.903  0.0114 -0.0350  0.1393
 5585W        W 9329   1.356   8.952   9.025 -0.2215  0.0543 -0.2731
 5586W        W 9330   4.739   3.503   2.430 -0.0365 -0.1604 -0.0045
 5587W        W 9331   3.130   6.342   1.364  0.0502  0.0903 -0.0210
 5588W        W 9332   8.973   2.625  10.250  0.1461  0.0386 -0.0851
 5589W        W 9333   4.181   3.936   9.424 -0.0698  0.2581 -0.0753
 5590W        W 9334   2.097   1.860   1.314  0.0757 -0.2796  0.2395
 5591W        W 9335   5.137   0.281  11.507  0.0093 -0.3066  0.2483
 5592W        W 9336   6.786   9.705  12.008  0.1579 -0.0344 -0.0313
 5593W        W 9337   1.241   1.358  12.213  0.1864  0.1263 -0.1928
 5594W        W 9338   6.326   8.515   0.934  0.0974 -0.0724 -0.0280
 5595W        W 9339   7.304   1.237  11.010  0.0938 -0.0298  0.1717
 5596W        W 9340   1.226   6.466  11.019 -0.1248  0.1435  0.2548
 5597W        W 9341   2.506   5.071   1.825 -0.0337  0.3616 -0.0754
 5598W        W 9342   4.882   7.991  12.656 -0.0552 -0.0599  0.0800
 5599W        W 9343   6.030   9.124   1.262 -0.1351 -0.1254  0.0254
 5600W        W 9344   8.060   5.242  10.017  0.0452 -0.0329 -0.3303
 5601W        W 9345   9.760   3.400  11.641 -0.2467 -0.0648 -0.1409
 5602W        W 9346   8.697   6.319  10.178  0.1900  0.1205  0.2434
 5603W        W 9347   5.570   8.516  11.059  0.1368  0.0132 -0.0061
 5604W        W 9348   6.620   1.838  10.856 -0.2811 -0.0753 -0.0161
 5605W        W 9349   1.211   3.852   2.947  0.0651 -0.1468 -0.0065
 5606W        W 9350   5.784   1.959  10.665 -0.4145 -0.1919 -0.0029
 5607W        W 9351   0.709   7.269   0.971 -0.0253 -0.0807 -0.1636
 5608W        W 9352   9.700   0.517   3.997 -0.3342  0.0092  0.5112
 5609W        W 9353   4.540   5.676   3.448 -0.2279 -0.2355 -0.0411
 5610W        W 9354   3.630   7.174   4.088  0.3395 -0.0005  0.2123
 5611W        W 9355   8.669   6.835  11.622 -0.2724 -0.0932  0.2852
 5612W        W 9356   6.630   8.595   1.870  0.1652 -0.3872 -0.0277
 5613W        W 9357   8.070   5.030   0.917 -0.2615 -0.0734 -0.1668
 5614W        W 9358   3.198   3.749   2.236  0.2146  0.1491  0.0474
 5615W        W 9359   2.935   4.967  11.259  0.0005  0.0812 -0.0909
 5616W        W 9360   8.164   9.861   8.503 -0.1667 -0.2016 -0.2330
 5617W        W 9361   3.252   1.846   1.981  0.1641 -0.2267  0.1958
 5618W        W 9362   1.414   1.072   1.883  0.1859 -0.2576 -0.1570
 5619W        W 9363   9.055   4.743   9.631 -0.0406 -0.0591 -0.0711
 5620W        W 9364   4.162   1.056   1.511  0.1148  0.2514  0.2204
 5621W        W 9365   3.712   4.036  12.611  0.0848 -0.1895  0.0578
 5622W        W 9366   0.047   5.676   9.582 -0.1475 -0.1895 -0.0457
 5623W        W 9367   4.706   8.609   4.161  0.1414  0.0012 -0.0465
 5624W        W 9368   8.842   7.965   9.471 -0.0993  0.1770  0.1970
 5625W        W 9369   3.581   1.271   0.501  0.0289 -0.0603 -0.1242
 5626W        W 9370   8.196   2.916   3.703  0.1339 -0.0484  0.1378
 5627W        W 9371   7.595   8.934  12.377  0.1559  0.1050 -0.0217
 5628W        W 9372   6.864   6.752  11.008 -0.3180  0.4963 -0.0913
 5629W        W 9373   3.335   7.575   0.891 -0.1066  0.0133 -0.1819
 5630W        W 9374   7.759   2.734   1.518  0.2110  0.1217  0.0770
 5631W        W 9375   9.465   2.445   1.947 -0.0560  0.1809 -0.1697
 5632W        W 9376   3.706   0.676  10.111 -0.0832 -0.0099 -0.1046
 5633W        W 9377   8.498   6.608   9.327  0.1855 -0.0007 -0.2910
 5634W        W 9378   7.992   4.109  12.142  0.1566 -0.0295  0.0346
 5635W        W 9379   4.971   6.750   0.710 -0.0932 -0.0898 -0.1955
 5636W        W 9380   3.672   5.298  11.938 -0.1548 -0.1951  0.2706
 5637W        W 9381   7.068   3.051   1.041 -0.0665 -0.3026  0.1795
 5638W        W 9382   7.394   7.269  10.614 -0.0488 -0.0502  0.2075
 5639W        W 9383   1.013   9.722   7.762  0.0198  0.0986 -0.1728
 5640W        W 9384   6.403   9.047   3.551  0.0201 -0.2293  0.2728
 5641W        W 9385   5.127   5.063   3.102 -0.1985 -0.1112  0.0369
 5642W        W 9386   8.020   3.710  10.252  0.0533 -0.1188 -0.1034
 5643W        W 9387   1.964   7.707   2.275 -0.0584  0.1202  0.1492
 5644W        W 9388   2.256   2.252   0.429  0.3138  0.3817  0.2780
 5645W        W 9389   2.933   8.441  11.409 -0.0329  0.0505 -0.1210
 5646W        W 9390   0.097   5.711   3.927  0.2589 -0.1464  0.2647
 5647W        W 9391   9.752   9.431  11.255  0.1989  0.0932 -0.0023
 5648W        W 9392   9.886   2.800   1.821  0.1305 -0.0902 -0.3461
 5649W        W 9393   1.046   1.112   0.401  0.2980 -0.0109  0.2516
 5650W        W 9394   3.090   9.721   3.432  0.5994  0.0198 -0.2639
 5651W        W 9395   6.210   8.794  12.103  0.0078  0.0872  0.2081
 5652W        W 9396   0.139   9.302   8.654  0.2814 -0.0906  0.1012
 5653W        W 9397   4.614   9.096  10.893  0.1068  0.3047  0.0686
 5654W        W 9398   9.228   3.396   4.546  0.0477  0.0808  0.0949
 5655W        W 9399   9.696   1.257   0.328 -0.1581 -0.1128  0.1454
 5656W        W 9400   3.107   6.311   2.815 -0.2418 -0.2465  0.2108
 5657W        W 9401   2.623   0.538   1.078 -0.0374  0.0986 -0.1051
 5658W        W 9402   7.425   7.514  11.049 -0.0538  0.1440  0.1718
 5659W        W 9403   6.632   2.714   9.328 -0.1694  0.0886 -0.0797
 5660W        W 9404   9.594   2.896   0.902 -0.2794  0.2759 -0.3904
 5661W        W 9405   7.562   7.999   0.906 -0.1535  0.2316  0.1005
 5662W        W 9406   8.567   3.076   4.071 -0.4320  0.2502  0.1864
 5663W        W 9407   4.392   5.747  11.912 -0.2986 -0.3457  0.1503
 5664W        W 9408   9.105   0.462  10.156  0.0006  0.2161 -0.2618
 5665W        W 9409   6.400   4.658  10.609  0.0473  0.0796 -0.0791
 5666W        W 9410   5.340   9.054  11.374  0.2160 -0.0128  0.0594
 5667W        W 9411   0.720   1.023   0.767 -0.4414 -0.1988 -0.0620
 5668W        W 9412   4.854   1.087   9.773 -0.0768  0.0130  0.1825
 5669W        W 9413   8.937   9.258   0.083 -0.0422 -0.0180 -0.2068
 5670W        W 9414   6.116   9.893   9.266 -0.1248 -0.1723 -0.0328
 5671W        W 9415   0.638   1.186   4.478 -0.1213 -0.0153  0.1736
 5672W        W 9416   3.881   4.601   3.700 -0.0612  0.0926  0.1329
 5673W        W 9417   2.413   4.284  11.643 -0.1645  0.1066 -0.0214
 5674W        W 9418   0.907   5.956   3.404 -0.0192  0.1197  0.2304
 5675W        W 9419   0.770   0.292   2.089 -0.0544 -0.1204  0.1647
 5676W        W 9420   1.143   3.393   9.449 -0.0606  0.0321 -0.6197
 5677W        W 9421   4.961   0.720  12.596  0.0438 -0.1172 -0.1924
 5678W        W 9422   9.944   4.098   2.629 -0.0909  0.1311 -0.0024
 5679W        W 9423   0.226   4.375   1.721  0.0805  0.0665 -0.0464
 5680W        W 9424   3.104   8.559  10.950  0.3391  0.0876  0.0792
 5681W        W 9425   1.053   3.413   1.045 -0.0203 -0.0847  0.2575
 5682W        W 9426   2.910   9.422   2.436  0.0064 -0.2039  0.1553
 5683W        W 9427   1.741   3.338  11.994  0.3006 -0.0075 -0.2977
 5684W        W 9428   3.408   6.005   3.662 -0.0225 -0.1886  0.2852
 5685W        W 9429   2.233   7.835   0.407  0.1340  0.1299 -0.1334
 5686W        W 9430   1.948   5.091   2.481  0.1177 -0.0278  0.0844
 5687W        W 9431   8.348   0.090   9.390 -0.0360 -0.0545  0.0324
 5688W        W 9432   0.847   5.803   1.884  0.0000  0.0567 -0.0940
 5689W        W 9433   4.578   0.188  11.133  0.1062 -0.1979 -0.0622
 5690W        W 9434   3.920   5.934   0.202  0.2230  0.1016 -0.0896
 5691W        W 9435   4.986   0.454   9.172 -0.0251 -0.0179 -0.0563
 5692W        W 9436   9.615   1.650   0.707 -0.1511 -0.1105  0.0692
 5693W        W 9437   6.028   3.574   4.681 -0.2019 -0.3939  0.0050
 5694W        W 9438   3.335   1.095  12.290  0.0985 -0.1126  0.3676
 5695W        W 9439   2.208   3.328   1.353 -0.1812 -0.1235  0.0563
 5696W        W 9440   9.154   9.803   9.807  0.1016  0.1455  0.2692
 5697W        W 9441   2.181   8.232   3.470 -0.0106 -0.4240  0.1213
 5698W        W 9442   7.997   2.822  11.774 -0.1149 -0.1432 -0.0777
 5699W        W 9443   5.546   9.804   1.926  0.0538 -0.2030 -0.0439
 5700W        W 9444   5.364   3.608  10.376  0.3012 -0.0845 -0.1023
 5701W        W 9445   3.207   7.616   3.063 -0.3511  0.1601 -0.1425
 5702W        W 9446   5.312   4.128  10.465  0.0047  0.0383  0.1419
 5703W        W 9447   5.651   0.287  11.592 -0.1871 -0.0032  0.2488
 5704W        W 9448   1.739   7.565  11.025  0.2789 -0.1379 -0.2494
 5705W        W 9449   4.874   8.855   2.121  0.2256  0.0369  0.0506
 5706W        W 9450   4.069   3.683   2.532  0.2285  0.0795 -0.0618
 5707W        W 9451   4.622   9.879   9.817  0.3866  0.0177 -0.1041
 5708W        W 9452   0.492   7.756   2.503  0.0111  0.1187 -0.2161
 5709W        W 9453   0.803   8.843  11.758 -0.2002 -0.3289 -0.2935
 5710W        W 9454   6.160   2.686   9.629  0.2731 -0.0485  0.2870
 5711W        W 9455   5.350   3.552   8.573  0.3394  0.2066 -0.2132
 5712W        W 9456   8.152   6.814  12.555 -0.2904  0.0891  0.2407
 5713W        W 9457   8.815   5.840  11.448 -0.1395  0.1127 -0.0209
 5714W        W 9458   0.730   4.512   0.514 -0.2938 -0.2501 -0.0359
 5715W        W 9459   0.215   9.853   0.454 -0.0302 -0.1964  0.0362
 5716W        W 9460   1.540   5.820   1.340 -0.3219 -0.1981  0.0035
 5717W        W 9461   1.163   7.746   9.601 -0.1226  0.0321 -0.0334
 5718W        W 9462   5.038   2.603   8.674  0.1683  0.1034  0.1664
 5719W        W 9463   8.085   7.542   9.362 -0.0650 -0.5813  0.0742
 5720W        W 9464   9.371   7.510   8.796 -0.1986  0.1362  0.0426
 5721W        W 9465   3.718   4.738  11.804  0.2028 -0.1562  0.3200
 5722W        W 9466   7.889   6.913   3.595  0.1378  0.1238  0.2898
 5723W        W 9467   9.009   5.010  11.080 -0.0035  0.1357 -0.1743
 5724W        W 9468   2.967   9.894  12.619 -0.1509 -0.0389  0.0072
 5725W        W 9469   4.256   1.021   4.554 -0.3799 -0.2336  0.1653
 5726W        W 9470   5.239   2.631   9.624  0.1208  0.1757 -0.0265
 5727W        W 9471   6.572   9.088   9.054 -0.1373  0.3262 -0.2467
 5728W        W 9472   8.505   6.164  10.608 -0.0628 -0.1883 -0.3178
 5729W        W 9473   3.762   6.909  12.360 -0.1664 -0.0146  0.0795
 5730W        W 9474   0.662   2.166   3.667  0.2130 -0.1283 -0.1957
 5731W        W 9475   1.728   9.834  11.222 -0.0687 -0.2918 -0.3036
 5732W        W 9476   4.803   5.517  11.276 -0.0868 -0.1406 -0.2505
 5733W        W 9477   3.319   0.605   1.788  0.2508 -0.0883  0.3996
 5734W        W 9478   4.823   9.289  10.491 -0.1302 -0.0986  0.0374
 5735W        W 9479   3.917   3.393   9.618  0.0214  0.1258 -0.0192
 5736W        W 9480   5.381   9.270   2.814  0.0145  0.0271 -0.2432
 5737W        W 9481   1.284   9.617   3.179  0.0793 -0.3557  0.1574
 5738W        W 9482   5.963   0.402   9.223  0.0384  0.0104 -0.0492
 5739W        W 9483   4.606   5.848   4.490  0.0456 -0.2853  0.0695
 5740W        W 9484   3.562   6.715   9.844  0.1281  0.0204 -0.1031
 5741W        W 9485   2.008   6.809  10.200 -0.1143 -0.1547 -0.0544
 5742W        W 9486   8.278   3.536   3.773  0.1916 -0.1257 -0.3394
 5743W        W 9487   6.539   4.802  11.065  0.0972 -0.2444 -0.1416
 5744W        W 9488   3.547   1.623  11.405 -0.1614  0.3008 -0.0083
 5745W        W 9489   2.705   9.308  10.423 -0.0706 -0.1703  0.1085
 5746W        W 9490   4.345   0.115   3.680  0.0276  0.1551 -0.0880
 5747W        W 9491   8.603   6.733   1.633  0.0242  0.0154  0.1365
 5748W        W 9492   2.436   2.621   0.743  0.1280 -0.3639 -0.3147
 5749W        W 9493   2.326   4.402   0.736 -0.0198 -0.1523 -0.2477
 5750W        W 9494   5.991   8.576   3.727 -0.0433  0.1768  0.0136
 5751W        W 9495   0.047   2.501   2.675  0.1525 -0.1854 -0.0887
 5752W        W 9496   4.630   6.962   5.071 -0.0764 -0.0670 -0.1732
 5753W        W 9497   4.825   7.452   2.815 -0.0576 -0.1041 -0.2679
 5754W        W 9498   5.579   9.427  11.103 -0.0450  0.0016  0.2269
 5755W        W 9499   5.169   4.514   8.584  0.1426 -0.0336  0.0317
 5756W        W 9500   8.963   2.064  11.951  0.1330  0.1513  0.1956
 5757W        W 9501   2.540   2.512   4.218 -0.0819  0.3291  0.4007
 5758W        W 9502   0.298   1.675   9.676 -0.0122  0.3076 -0.0409
 5759W        W 9503   6.267   9.522   0.551  0.1105 -0.0423  0.0914
 5760W        W 9504   7.087   4.544   0.370  0.4336 -0.1071 -0.0570
 5761W        W 9505   8.426   7.962   2.724  0.0782  0.0196  0.0667
 5762W        W 9506   6.876   1.016   3.149  0.0104 -0.0675  0.0244
 5763W        W 9507   6.200   9.277   3.179  0.2677 -0.5044  0.1666
 5764W        W 9508   1.049   8.722  11.313 -0.1635 -0.0807 -0.0530
 5765W        W 9509   4.189   2.451   9.397  0.4146  0.1096  0.1994
 5766W        W 9510   2.109   3.163  11.693  0.2822  0.1343 -0.2968
 5767W        W 9511   6.091   3.699   9.383  0.0700  0.2776 -0.3238
 5768W        W 9512   2.718   9.918   1.980  0.2255 -0.0089 -0.0767
 5769W        W 9513   1.405   1.800   4.523 -0.2660  0.0354  0.1758
 5770W        W 9514   5.871   6.584  11.035 -0.2408 -0.2270 -0.0573
 5771W        W 9515   6.225   4.868   1.592  0.0773  0.1918 -0.3233
 5772W        W 9516   5.829   8.672   1.057  0.0531 -0.0045 -0.2110
 5773W        W 9517   3.222   7.622   2.500  0.1037 -0.3388 -0.0271
 5774W        W 9518   5.990   4.099   9.682  0.0714  0.1189  0.1861
 5775W        W 9519   5.516   9.638   2.407  0.0722 -0.1639 -0.2201
 5776W        W 9520   5.572   2.371   1.369 -0.1011 -0.0321 -0.1098
 5777W        W 9521   7.790   4.022   2.641 -0.2979 -0.3771 -0.0432
 5778W        W 9522   0.211   3.757  11.286  0.0080  0.0695 -0.2227
 5779W        W 9523   7.654   2.813  12.205  0.1705  0.0917  0.1625
 5780W        W 9524   2.488   8.489   2.131 -0.0821  0.0836  0.1957
 5781W        W 9525   4.430   1.528  10.022  0.0998  0.0323  0.1936
 5782W        W 9526   9.131   1.569  10.331  0.1082  0.2796 -0.0781
 5783W        W 9527   3.288   4.922   1.188 -0.1102  0.0585 -0.2272
 5784W        W 9528   2.867   8.681   1.835 -0.0531  0.0632 -0.0563
 5785W        W 9529   6.656   8.147   3.999 -0.2122  0.2700 -0.0709
 5786W        W 9530   2.617   5.425   3.070 -0.0244  0.1699 -0.0126
 5787W        W 9531   6.080   5.370   0.322 -0.1137  0.1659  0.2606
 5788W        W 9532   5.363   8.501   8.826 -0.1165  0.1795  0.0064
 5789W        W 9533   7.384   6.415   0.236 -0.2014 -0.0931  0.1989
 5790W        W 9534   8.873   0.170  11.165 -0.2235 -0.0246 -0.1299
 5791W        W 9535   5.886   2.786  10.140 -0.1513 -0.5380 -0.4715
 5792W        W 9536   9.388   6.726   0.558 -0.4828  0.3238 -0.0067
 5793W        W 9537   5.414   4.410  11.896 -0.0151 -0.2074  0.3689
 5794W        W 9538   9.767   7.723   2.867  0.1354  0.2822 -0.3066
 5795W        W 9539   7.015   4.292   2.140  0.0090 -0.2430  0.0430
 5796W        W 9540   9.645   8.800  12.597 -0.2708  0.2402 -0.0363
 5797W        W 9541   6.319   1.930   2.095 -0.1354 -0.1166 -0.0209
 5798W        W 9542   6.506   0.440   4.871  0.1249  0.3614  0.0151
 5799W        W 9543   2.202   0.529  10.416  0.2197 -0.0488 -0.2528
 5800W        W 9544   8.931   0.398  10.653  0.0860 -0.3750 -0.4812
 5801W        W 9545   1.755   5.730   3.955  0.0845 -0.3143  0.1631
 5802W        W 9546   5.549   4.757   2.680 -0.0272 -0.0904  0.0106
 5803W        W 9547   9.299   4.018  12.294  0.2737 -0.0871  0.0028
 5804W        W 9548   1.519   9.564   7.626 -0.2576 -0.3285  0.3758
 5805W        W 9549   7.960   4.935   2.848  0.3188  0.0382 -0.0373
 5806W        W 9550   5.721   8.264   1.831  0.0953 -0.2347  0.1274
 5807W        W 9551   1.982   9.871  10.803  0.3267  0.0124 -0.2004
 5808W        W 9552   0.305   6.526  10.301  0.0517 -0.1492  0.0653
 5809W        W 9553   0.358   1.393   0.917 -0.1909  0.0438 -0.0399
 5810W        W 9554   0.421   4.539   0.921 -0.3778 -0.0746 -0.0900
 5811W        W 9555   9.582   8.565   1.765  0.1703 -0.1890  0.2636
 5812W        W 9556   6.801   5.899  11.105  0.1204  0.1271 -0.1991
 5813W        W 9557   9.653   1.363   3.424 -0.1034  0.0019  0.0411
 5814W        W 9558   9.303   6.146  11.203  0.1877  0.0608  0.1538
 5815W        W 9559   9.670   8.394   3.061  0.2691  0.1339  0.0658
 5816W        W 9560   0.514   2.122   4.106  0.2024 -0.2947 -0.0501
 5817W        W 9561   3.283   4.781   0.483  0.1678 -0.1058  0.1860
 5818W        W 9562   4.972   4.266  11.614  0.0412  0.1792  0.2776
 5819W        W 9563   9.107   6.096   3.620  0.7084 -0.0626 -0.0255
 5820W        W 9564   6.457   1.788   2.670 -0.0318  0.0532  0.1482
 5821W        W 9565   1.522   7.165  11.217 -0.2497  0.0896 -0.0125
 5822W        W 9566   9.082   9.346  11.151 -0.0100 -0.0499  0.0561
 5823W        W 9567   4.538   8.657  12.145  0.0471  0.1283 -0.1254
 5824W        W 9568   7.783   2.547   0.573 -0.0473 -0.0322 -0.0875
 5825W        W 9569   6.988   0.178   3.337  0.0050 -0.2674 -0.2101
 5826W        W 9570   9.824   5.234  12.190 -0.4371 -0.1671 -0.0735
 5827W        W 9571   4.964   4.790  11.262  0.1558 -0.2720  0.1603
 5828W        W 9572   6.418   0.507   2.268  0.0470  0.3350  0.0992
 5829W        W 9573   1.871   3.352  12.528 -0.1119 -0.1266  0.2933
 5830W        W 9574   8.537   5.460   9.953 -0.2426  0.1797  0.0525
 5831W        W 9575   7.132   1.755  11.134  0.0143  0.0066 -0.1502
 5832W        W 9576   8.426   2.735   9.074 -0.0923  0.0297 -0.0530
 5833W        W 9577   3.689   8.071   8.560 -0.1036  0.0454  0.0519
 5834W        W 9578   2.412   0.259  10.837  0.1055 -0.0132  0.1038
 5835W        W 9579   1.655   4.795   2.145  0.1015  0.0414  0.4930
 5836W        W 9580   5.990   0.471  12.125  0.0223 -0.1383 -0.1072
 5837W        W 9581   3.356   7.806   3.994 -0.2579  0.0942 -0.0171
 5838W        W 9582   8.891   3.943   2.859 -0.0521  0.3337  0.2811
 5839W        W 9583   5.097   3.705  12.367 -0.1628  0.0380 -0.0658
 5840W        W 9584   3.760   9.540  10.457 -0.1226 -0.1632  0.0704
 5841W        W 9585   3.727   5.256  10.050 -0.1007 -0.3476 -0.1076
 5842W        W 9586   8.420   3.911  11.009  0.2277 -0.0958 -0.2637
 5843W        W 9587   0.557   0.285   1.129  0.1695  0.2788  0.1029
 5844W        W 9588   7.399   1.175   0.286 -0.4252  0.2028 -0.2519
 5845W        W 9589   5.350   5.029   7.996  0.0641 -0.2033  0.0548
 5846W        W 9590   0.767   3.289   9.027 -0.0123  0.2795  0.1475
 5847W        W 9591   7.898   9.929   9.517  0.0972 -0.1688  0.0406
 5848W        W 9592   7.082   0.836  10.037 -0.3134 -0.0049 -0.1107
 5849W        W 9593   1.164   6.939   8.594  0.1258  0.1308  0.0338
 5850W        W 9594   0.479   5.081   3.378  0.0314 -0.0316  0.1540
 5851W        W 9595   7.295   6.635   1.677 -0.1750 -0.1093  0.0432
 5852W        W 9596   5.123   7.095   0.305 -0.0582  0.3797  0.0051
 5853W        W 9597   4.257   5.527   2.032 -0.0024  0.0053 -0.2325
 5854W        W 9598   5.822   0.424   8.338  0.2000 -0.1080  0.0912
 5855W        W 9599   3.080   5.665   3.484  0.1059 -0.3219  0.1766
 5856W        W 9600   8.587   8.456   9.860 -0.2278  0.2182 -0.0879
 5857W        W 9601   0.261   3.226   2.060  0.2976  0.1342 -0.0000
 5858W        W 9602   4.926   3.461  11.358 -0.0475  0.4282 -0.0547
 5859W        W 9603   9.309   7.911   2.923  0.2309 -0.2071 -0.1588
 5860W        W 9604   6.674   0.954  11.149  0.1120  0.0896  0.3454
 5861W        W 9605   2.639   1.020   2.849  0.3279 -0.1847  0.0035
 5862W        W 9606   8.712   8.953  12.253  0.0708  0.0996 -0.1433
 5863W        W 9607   3.933   6.394   3.904  0.0418  0.0375 -0.1979
 5864W        W 9608   7.113   3.505   7.864 -0.0167  0.1640 -0.0764
 5865W        W 9609   9.299   2.780   3.729  0.1217 -0.2204 -0.0828
 5866W        W 9610   8.716   1.678  11.936  0.4072  0.2814 -0.2732
 5867W        W 9611   1.664   0.664  11.776  0.0534 -0.1226 -0.0415
 5868W        W 9612   7.579   0.099   3.126  0.2563 -0.0441 -0.0415
 5869W        W 9613   6.648   7.327   2.634  0.1307 -0.0846 -0.0444
 5870W        W 9614   8.252   5.989  10.088  0.0021 -0.2509  0.2992
 5871W        W 9615   6.617   5.083  11.725 -0.0499 -0.1330  0.1240
 5872W        W 9616   8.080   1.566  11.537 -0.3061 -0.3604  0.0453
 5873W        W 9617   9.817   7.298  12.011  0.1329 -0.0035 -0.3935
 5874W        W 9618   4.713   2.600   1.840 -0.0144 -0.3563  0.0707
 5875W        W 9619   0.773   8.938  10.972 -0.1728  0.0414  0.3618
 5876W        W 9620   4.862   5.525   4.732  0.0817  0.2133  0.1253
 5877W        W 9621   5.624   9.167   2.352 -0.1663  0.0863 -0.1807
 5878W        W 9622   0.655   3.172   4.594 -0.1885 -0.1799 -0.0580
 5879W        W 9623   5.621   1.737   0.849  0.0876 -0.2634  0.1911
 5880W        W 9624   2.456   2.980   9.481 -0.1108 -0.1520 -0.0745
 5881W        W 9625   9.551   7.148   0.315  0.0444 -0.1653  0.1703
 5882W        W 9626   8.959   3.332   0.595  0.2424 -0.1287  0.2502
 5883W        W 9627   2.547   9.787  10.742  0.0869 -0.0470 -0.2065
 5884W        W 9628   0.397   9.581  12.574  0.1871 -0.3071  0.0918
 5885W        W 9629   0.481   1.917  12.466  0.2975 -0.0430 -0.1010
 5886W        W 9630   1.590   5.195   3.923  0.1586 -0.1283  0.1129
 5887W        W 9631   3.188   3.281   0.080  0.0878  0.0373 -0.1641
 5888W        W 9632   6.881   0.148   1.221 -0.4172  0.1097  0.3188
 5889W        W 9633   5.751   5.324   8.875 -0.1588  0.0374 -0.1850
 5890W        W 9634   1.730   3.955  11.155  0.1172 -0.0425 -0.0258
 5891W        W 9635   8.873   0.030   2.953 -0.1018 -0.2240  0.0347
 5892W        W 9636   5.373   1.558   9.960 -0.0709 -0.0286 -0.3533
 5893W        W 9637   7.953   1.233  10.160  0.2372  0.2674  0.2053
 5894W        W 9638   2.748   7.301   9.912 -0.1158  0.0838  0.1574
 5895W        W 9639   0.872   6.552  11.915 -0.0101  0.0372  0.1127
 5896W        W 9640   3.657   0.987   3.086 -0.1561 -0.1983  0.2079
 5897W        W 9641   9.225   5.970   2.364 -0.0129 -0.3433 -0.0464
 5898W        W 9642   9.506   9.029   2.072 -0.1762 -0.3083  0.3061
 5899W        W 9643   5.577   5.363   0.899  0.0070 -0.1285  0.0248
 5900W        W 9644   2.341   8.066  11.554 -0.0353  0.0545 -0.0679
 5901W        W 9645   6.785   4.069   3.652  0.0040 -0.3384  0.0224
 5902W        W 9646   5.849   1.422   2.779  0.2396  0.1384 -0.2279
 5903W        W 9647   8.675   4.878  10.724 -0.0366 -0.0991  0.1544
 5904W        W 9648   4.194   2.230  10.339  0.2366 -0.0507  0.0677
 5905W        W 9649   0.266   1.046   0.492  0.0132  0.0645 -0.0816
 5906W        W 9650   9.193   6.209   9.956  0.0996  0.5124  0.0483
 5907W        W 9651   2.438   2.412  11.024  0.0073  0.1160 -0.2660
 5908W        W 9652   0.417   8.858   1.169  0.2243  0.1182  0.0345
 5909W        W 9653   7.246   4.647   2.400  0.0039  0.2860 -0.0058
 5910W        W 9654   5.159   2.531  11.347  0.3025  0.2253  0.3755
 5911W        W 9655   9.114   0.765   3.999  0.1781 -0.0591  0.3592
 5912W        W 9656   3.781   1.246   1.247  0.0102  0.1555  0.2137
 5913W        W 9657   3.509   4.583   0.026  0.0181 -0.0775 -0.2687
 5914W        W 9658   0.985   1.435  11.627  0.0874 -0.1402 -0.1006
 5915W        W 9659   7.605   2.881   1.045 -0.0318 -0.1764 -0.1761
 5916W        W 9660   1.356   6.586   3.467  0.0328  0.0657 -0.2423
 5917W        W 9661   4.888   8.426   0.695 -0.2374 -0.2118 -0.1620
 5918W        W 9662   9.085   7.815  12.464 -0.6430 -0.2557 -0.1263
 5919W        W 9663   6.373   6.604   0.048  0.1096  0.2891  0.1003
 5920W        W 9664   3.788   5.969  11.347 -0.0258 -0.0581  0.0637
 5921W        W 9665   7.711   0.075  12.395  0.2845  0.1741 -0.4282
 5922W        W 9666   9.099   2.303  10.614  0.0440 -0.0104 -0.1291
 5923W        W 9667   4.967   5.225   9.041  0.1007  0.0098 -0.0021
 5924W        W 9668   6.451   7.921  12.441 -0.1709 -0.2514 -0.1944
 5925W        W 9669   3.978   8.682  10.250  0.2529 -0.1731 -0.1965
 5926W        W 9670   3.444   1.403  10.590  0.0627  0.0146  0.2513
 5927W        W 9671   3.758   3.571   0.740 -0.4487  0.1921  0.0093
 5928W        W 9672   2.910   4.790   4.564  0.0568  0.1678  0.1182
 5929W        W 9673   6.724   2.232   0.002 -0.0505  0.0917  0.1028
 5930W        W 9674   3.255   1.086   7.735 -0.0322  0.0484  0.2269
 5931W        W 9675   2.558   2.076   3.972 -0.2724  0.1706 -0.0406
 5932W        W 9676   3.378   8.611   2.017 -0.0386  0.2285  0.0367
 5933W        W 9677   0.965   9.335   8.911 -0.3187 -0.1318 -0.3312
 5934W        W 9678   0.135   7.574  12.307 -0.0146 -0.0373 -0.1173
 5935W        W 9679   9.599   3.974   4.024 -0.1841  0.3087 -0.2272
 5936W        W 9680   8.776   9.546   2.462  0.1840 -0.1580  0.2772
 5937W        W 9681   1.746   0.140   4.443 -0.2661 -0.3708  0.1223
 5938W        W 9682   3.164   7.572  10.139 -0.1568  0.2661 -0.4126
 5939W        W 9683   7.249   0.628   3.037  0.0904  0.1879 -0.3627
 5940W        W 9684   6.158   4.063   7.893  0.0959  0.1847 -0.1416
 5941W        W 9685   0.489   1.525   2.903 -0.3229 -0.2371 -0.0209
 5942W        W 9686   1.583   8.940   1.967  0.2295  0.0934 -0.1097
 5943W        W 9687   6.667   1.588  10.281  0.1235 -0.1283 -0.4186
 5944W        W 9688   4.574   8.187   0.344  0.2949 -0.2158  0.0826
 5945W        W 9689   1.788   4.618   9.802  0.0774  0.2543  0.3501
 5946W        W 9690   3.642   3.602  10.760 -0.2571  0.1898 -0.0877
 5947W        W 9691   7.567   1.178   9.148 -0.1820  0.2847 -0.2077
 5948W        W 9692   1.435   9.006   3.532  0.0297 -0.1262  0.3019
 5949W        W 9693   3.532   2.189   8.927  0.0183  0.0978  0.3979
 5950W        W 9694   5.598   1.022   8.892  0.1987  0.3117 -0.1286
 5951W        W 9695   0.167   6.913   1.781  0.0504 -0.3334  0.3130
 5952W        W 9696   3.141   0.222  12.222  0.0772  0.1682 -0.3915
 5953W        W 9697   2.270   2.857   2.984 -0.1236 -0.1210 -0.0351
 5954W        W 9698   4.992   7.062  11.748  0.1431  0.0125  0.2272
 5955W        W 9699   0.634   7.068   1.931  0.0843 -0.0359  0.2026
 5956W        W 9700   4.285   2.121  11.657 -0.1074 -0.0351  0.1993
 5957W        W 9701   2.626   1.498  11.025  0.0174  0.1374 -0.1007
 5958W        W 9702   9.738   0.358  10.625 -0.1529  0.0523  0.0457
 5959W        W 9703   0.750   6.843   3.620 -0.0779 -0.0560  0.1225
 5960W        W 9704   2.455   2.057   9.797  0.2425 -0.1644  0.3843
 5961W        W 9705   7.915   8.930   1.663  0.0265 -0.0400 -0.1200
 5962W        W 9706   8.493   8.229   0.084  0.0175 -0.2985  0.0114
 5963W        W 9707   5.850   4.812   9.141  0.0727 -0.1182 -0.0257
 5964W        W 9708   1.583   1.882   2.318  0.1858  0.0485 -0.0317
 5965W        W 9709   0.821   2.680   0.260  0.1222 -0.0480  0.1419
 5966W        W 9710   1.878   8.951   9.265 -0.0432 -0.3843  0.2343
 5967W        W 9711   5.532   8.549   3.329  0.0105  0.0489 -0.0064
 5968W        W 9712   5.602   9.757   7.600 -0.1181 -0.0585  0.0580
 5969W        W 9713   1.868   3.540   1.661  0.0393 -0.3435  0.2366
 5970W        W 9714   9.591   3.469   9.204  0.0958  0.1173  0.1172
 5971W        W 9715   3.555   5.206   2.700 -0.1062 -0.1957  0.1261
 5972W        W 9716   4.387   8.666   2.194  0.1836 -0.0507 -0.0981
 5973W        W 9717   1.999   6.152   2.019  0.1216  0.0364 -0.1151
 5974W        W 9718   4.668   1.752   8.241 -0.1402 -0.4227 -0.0488
 5975W        W 9719   4.424   4.423   4.097 -0.2352 -0.1569  0.1695
 5976W        W 9720   1.288   0.589   2.039  0.0670  0.2500 -0.3141
 5977W        W 9721   5.610   5.606  11.205  0.1058 -0.3632 -0.1708
 5978W        W 9722   9.410   4.076  11.100  0.1611 -0.1277  0.1086
 5979W        W 9723   2.369   2.545   3.326  0.3321 -0.1094  0.1522
 5980W        W 9724   0.452   5.934   0.189 -0.0258  0.0803 -0.0520
 5981W        W 9725   4.843   5.820   1.134  0.3208  0.0928 -0.2917
 5982W        W 9726   8.767   6.709   0.593  0.1159 -0.0075 -0.3227
 5983W        W 9727   2.282   0.887   3.836  0.0610 -0.0005 -0.3304
 5984W        W 9728   1.178   2.849  12.662  0.3026 -0.0582  0.3694
 5985W        W 9729   7.247   2.883   9.159 -0.0161  0.0405 -0.2784
 5986W        W 9730   3.890   3.605  11.818 -0.1167  0.2217 -0.1241
 5987W        W 9731   1.648   3.774   3.409 -0.0990  0.0636 -0.2413
 5988W        W 9732   7.515   3.415   0.953 -0.1434 -0.0925  0.2262
 5989W        W 9733   9.931   0.992   2.287  0.1144 -0.2784  0.2372
 5990W        W 9734   2.273   9.126   0.468 -0.0852 -0.3227 -0.1709
 5991W        W 9735   6.432   4.075   9.380  0.0961  0.3000 -0.3067
 5992W        W 9736   6.314   2.449  10.104 -0.1391 -0.0041 -0.3359
 5993W        W 9737   0.595   0.254   3.285 -0.1325 -0.0531 -0.0554
 5994W        W 9738   2.422   6.790   2.414  0.0956  0.0274 -0.1011
 5995W        W 9739   1.857   0.248   3.462 -0.1865  0.0634 -0.0345
 5996W        W 9740   0.504   3.867   3.431  0.1126  0.0587  0.1803
 5997W        W 9741   9.317   0.052   0.460  0.3105  0.2496  0.2610
 5998W        W 9742   6.233   4.544   9.612  0.2461 -0.1522 -0.0477
 5999W        W 9743   9.169   9.890  12.095  0.2680  0.0095 -0.1786
 6000W        W 9744   3.090   5.003   2.738 -0.0265 -0.1391  0.0265
 6001W        W 9745   0.930   0.133   3.639  0.3361 -0.0008 -0.0240
 6002W        W 9746   2.170   9.492   0.784  0.1407  0.1155 -0.0513
 6003W        W 9747   1.864   8.068  12.459 -0.0867 -0.1747 -0.2450
 6004W        W 9748   1.434   2.946  10.311 -0.1217 -0.2691  0.0459
 6005W        W 9749   5.588   3.430   0.500 -0.0141 -0.1786  0.0022
 6006W        W 9750   9.816   7.069  12.571  0.1275  0.1056 -0.0597
 6007W        W 9751   5.374   7.020  10.831 -0.0221 -0.0626  0.1392
 6008W        W 9752   1.485   0.584   1.126  0.0475 -0.3536 -0.4328
 6009W        W 9753   5.842   8.252   1.323  0.0746  0.2208 -0.0827
 6010W        W 9754   8.909   9.912   9.316  0.2815 -0.1653 -0.0488
 6011W        W 9755   7.931   1.680  11.041  0.2413 -0.3000  0.1664
 6012W        W 9756   1.107   2.159  10.060  0.0877 -0.1667 -0.0931
 6013W        W 9757   3.396   1.238   8.961 -0.0752 -0.1840  0.0160
 6014W        W 9758   2.864   5.034   0.157  0.2273 -0.0513  0.1610
 6015W        W 9759   3.419   9.843  10.172 -0.2237 -0.4865  0.0012
 6016W        W 9760   9.196   3.996   1.951 -0.0363 -0.1909  0.0043
 6017W        W 9761   6.023   1.607   1.877  0.1300  0.2358  0.0442
 6018W        W 9762   8.411   9.373  12.006  0.2605  0.1282  0.0576
 6019W        W 9763   6.210   5.540   2.273  0.1311  0.0359 -0.3383
 6020W        W 9764   6.142   2.348   3.113  0.1279  0.0903 -0.2627
 6021W        W 9765   9.432   5.523   3.352 -0.2323 -0.1185 -0.3340
 6022W        W 9766   7.284   0.298   9.057 -0.1851 -0.0198  0.2217
 6023W        W 9767   9.579   2.109  10.578 -0.4372 -0.3053  0.0542
 6024W        W 9768   2.140   5.950  11.768  0.1067  0.2361 -0.0574
 6025W        W 9769   3.111   8.399   9.548  0.1693  0.0952  0.1403
 6026W        W 9770   2.389   0.608   8.337  0.1468 -0.3204 -0.4209
 6027W        W 9771   6.864   1.023  11.735  0.1311  0.2707  0.0557
 6028W        W 9772   9.263   3.248  11.253 -0.0419 -0.1279  0.1925
 6029W        W 9773   6.177   9.767   2.856  0.1190 -0.2811 -0.1122
 6030W        W 9774   4.981   2.321   3.209  0.1549 -0.2754 -0.1624
 6031W        W 9775   9.517   1.107  10.913  0.1710 -0.1799  0.1381
 6032W        W 9776   9.017   4.004   4.120 -0.3010  0.0873  0.0699
 6033W        W 9777   9.791   1.545   9.799 -0.1882  0.0521  0.0430
 6034W        W 9778   3.716   3.084   9.155 -0.1800  0.0443 -0.3392
 6035W        W 9779   6.863   3.560   0.987 -0.0088  0.0181 -0.0882
 6036W        W 9780   9.557   4.174   3.532  0.0892  0.0802 -0.0120
 6037W        W 9781   5.147   8.987   4.035  0.1923  0.4460  0.0138
 6038W        W 9782   8.466   0.764   1.047  0.0714  0.0375  0.5635
 6039W        W 9783   1.546   2.476  12.518 -0.0810  0.0121 -0.1494
 6040W        W 9784   2.084   3.548   8.870  0.2985  0.0046  0.2525
 6041W        W 9785   8.623   4.167   0.648 -0.1002  0.0398 -0.0270
 6042W        W 9786   5.457   9.434  11.835  0.1355  0.0561 -0.1503
 6043W        W 9787   4.595   0.253   0.782 -0.2636  0.1876  0.0743
 6044W        W 9788   0.055   2.020   2.939  0.0901  0.0194  0.0520
 6045W        W 9789   8.544   0.341   0.661 -0.1484  0.3153 -0.2976
 6046W        W 9790   3.016   6.013  11.241 -0.1432  0.0275  0.1152
 6047W        W 9791   1.457   2.770   8.825  0.0715 -0.0586 -0.0441
 6048W        W 9792   7.028   8.017  10.310  0.2955  0.0642  0.2330
 6049W        W 9793   2.349   5.158   3.416  0.0076 -0.0909 -0.1553
 6050W        W 9794   0.581   3.273  12.205  0.2305 -0.3244 -0.2179
 6051W        W 9795   3.183   8.705  12.063  0.1347  0.0021 -0.0161
 6052W        W 9796   7.642   5.017  11.623  0.0750 -0.2088  0.1957
 6053W        W 9797   5.187   5.190  12.095 -0.1519  0.4025  0.1067
 6054W        W 9798   4.612   4.307  10.417 -0.0278  0.3815 -0.1256
 6055W        W 9799   1.665   8.021   9.048  0.0905 -0.1499  0.0818
 6056W        W 9800   3.057   7.793   9.652  0.1496  0.2212 -0.1972
 6057W        W 9801   2.193   4.269   9.407  0.1460 -0.0555 -0.1860
 6058W        W 9802   2.264   1.593  10.076 -0.2176  0.3853  0.0294
 6059W        W 9803   7.896   4.651  10.333  0.3036  0.0059 -0.1908
 6060W        W 9804   7.500   4.152  11.834  0.1921 -0.1270  0.0075
 6061W        W 9805   0.329   4.500  10.205  0.0368  0.3204 -0.3798
 6062W        W 9806   6.777   7.982   3.115 -0.2025  0.1554 -0.0009
 6063W        W 9807   1.135   4.321   2.820 -0.1192  0.0007  0.0752
 6064W        W 9808   7.259   7.953   2.262  0.1635  0.3801 -0.0850
 6065W        W 9809   9.600   6.975   1.155  0.0781  0.3850  0.0824
 6066W        W 9810   7.124   3.717   8.301  0.0378  0.0969 -0.1993
 6067W        W 9811   0.231   8.199   9.563  0.3000 -0.0361  0.0726
 6068W        W 9812   5.094   0.912  10.220  0.2893  0.3351 -0.1128
 6069W        W 9813   7.233   3.712   9.680 -0.0186 -0.1177  0.1211
 6070W        W 9814   8.809   4.672   1.512  0.2414 -0.0119 -0.1285
 6071W        W 9815   2.202   9.622   4.403 -0.0118  0.2683  0.2219
 6072W        W 9816   7.522   3.409   1.827 -0.0260 -0.0553  0.1397
 6073W        W 9817   8.455   4.301   3.076  0.0109  0.0019 -0.2319
 6074W        W 9818   2.683   0.124  11.323 -0.1845 -0.2989 -0.0474
 6075W        W 9819   2.630   9.102   0.992  0.2217  0.0802  0.1887
 6076W        W 9820   4.453   2.866  12.048  0.1108 -0.4587  0.0454
 6077W        W 9821   5.737   0.442   3.661  0.0014  0.0507  0.3933
 6078W        W 9822   1.501   7.256   2.963  0.2601 -0.1226 -0.1856
 6079W        W 9823   1.642   0.647   1.663  0.1362 -0.1705 -0.0402
 6080W        W 9824   2.352   5.461   0.333  0.2105  0.2897 -0.2372
 6081W        W 9825   2.949   9.293   8.181  0.0565 -0.2520 -0.0304
 6082W        W 9826   0.522   1.297  11.823 -0.2675 -0.0347 -0.1034
 6083W        W 9827   3.167   9.227   2.886 -0.1680  0.0381  0.1972
 6084W        W 9828   1.821   4.558   0.574 -0.1010 -0.1821  0.0401
 6085W        W 9829   0.537   7.214  12.391  0.1124 -0.1060 -0.0454
 6086W        W 9830   0.894   5.219   2.202  0.2675 -0.1428 -0.0754
 6087W        W 9831   9.823   8.185  10.957  0.0959  0.1227  0.0107
 6088W        W 9832   3.984   2.594   4.049  0.2957 -0.2095 -0.0433
 6089W        W 9833   2.148   5.152   8.898 -0.0026  0.1125  0.0776
 6090W        W 9834   3.963   5.153  11.487  0.0758 -0.0267  0.1123
 6091W        W 9835   6.187   6.451   3.240  0.2573 -0.0553 -0.0570
 6092W        W 9836   2.897   2.417  12.500 -0.0254  0.0163 -0.0923
 6093W        W 9837   0.173   4.606   0.436  0.0394 -0.1279  0.4362
 6094W        W 9838   3.048   4.897   4.020 -0.2019 -0.1467  0.0024
 6095W        W 9839   2.648   9.161   0.071 -0.3087  0.2248 -0.0823
 6096W        W 9840   0.811   4.553  10.638  0.2414 -0.0869 -0.0268
 6097W        W 9841   8.674   9.593   3.103  0.0387 -0.2394  0.1428
 6098W        W 9842   8.759   7.932  10.597 -0.0239  0.0645  0.0146
 6099W        W 9843   9.710   2.643  10.793 -0.0395  0.0888  0.0338
 6100W        W 9844   0.347   6.826  11.172  0.2894 -0.0356 -0.1642
 6101W        W 9845   3.989   4.503  10.648  0.0739  0.2135  0.0699
 6102W        W 9846   2.877   3.570  12.020  0.1734  0.2014 -0.2253
 6103W        W 9847   8.623   5.707   0.674 -0.2126 -0.5771 -0.0921
 6104W        W 9848   5.665   9.055   8.151  0.2741  0.2018 -0.0356
 6105W        W 9849   9.373   3.299   8.310 -0.2751 -0.2042  0.0630
 6106W        W 9850   1.680   9.620   4.230  0.4101 -0.0244  0.3024
 6107W        W 9851   0.548   2.553  11.594  0.1934 -0.0714 -0.2683
 6108W        W 9852   5.080   0.389   3.490 -0.1806  0.0968  0.2042
 6109W        W 9853   8.052   5.027  11.964  0.1993  0.0238  0.0358
 6110W        W 9854   8.675   3.224   4.655 -0.0625  0.1936 -0.0444
 6111W        W 9855   8.882   3.039  11.067  0.1680 -0.0604 -0.0127
 6112W        W 9856   6.404   0.035  12.092 -0.0187 -0.0855 -0.2023
 6113W        W 9857   9.713   2.323   1.556 -0.2078  0.1777  0.3729
 6114W        W 9858   0.989   2.882  10.888  0.1510 -0.2095 -0.0363
 6115W        W 9859   5.427   5.773   1.108 -0.1624 -0.0598 -0.1098
 6116W        W 9860   0.275   5.337   9.914 -0.0247 -0.1664 -0.0087
 6117W        W 9861   5.624   4.977   3.653 -0.0547  0.2805 -0.3615
 6118W        W 9862   2.919   1.431   1.406 -0.1967 -0.1705 -0.0209
 6119W        W 9863   8.486   1.348   2.488 -0.0698  0.0283  0.0705
 6120W        W 9864   1.926   6.669   1.988 -0.1141  0.1178  0.1790
 6121W        W 9865   5.578   8.259   3.833  0.1359  0.1109  0.3187
 6122W        W 9866   0.070   7.860   1.386  0.2609 -0.2100 -0.0965
 6123W        W 9867   0.760   0.877   4.878 -0.0668 -0.0705  0.3702
 6124W        W 9868   3.526   5.030   3.925  0.1177  0.0176  0.1121
 6125W        W 9869   0.473   8.900   4.067  0.0030  0.0570 -0.0710
 6126W        W 9870   7.342   5.759  11.212  0.0281 -0.1571 -0.4983
 6127W        W 9871   4.941   4.864   1.066  0.1613  0.1057 -0.0481
 6128W        W 9872   3.369   4.086  10.024  0.1292  0.1518  0.2155
 6129W        W 9873   8.884   0.024   3.477 -0.0163 -0.0279  0.0865
 6130W        W 9874   9.831   8.890   0.442 -0.0949  0.0499 -0.0852
 6131W        W 9875   2.535   4.053   9.693  0.1187  0.1111 -0.1260
 6132W        W 9876   6.530   7.478  12.277 -0.1970  0.0922  0.0640
 6133W        W 9877   3.248   2.883   8.892 -0.3044  0.1907 -0.1765
 6134W        W 9878   3.782   2.513   0.292 -0.1506  0.0776 -0.1506
 6135W        W 9879   3.688   6.757  10.944  0.2818  0.0515  0.0848
 6136W        W 9880   9.618   3.538  11.202 -0.2171  0.1855  0.0586
 6137W        W 9881   4.766   6.925   1.168 -0.1292 -0.0268 -0.1119
 6138W        W 9882   0.796   4.066   8.766 -0.0567  0.2867  0.0944
 6139W        W 9883   5.763   3.629  10.689  0.0728  0.1624 -0.2709
 6140W        W 9884   4.720   9.949   2.819 -0.2234 -0.0102  0.1850
 6141W        W 9885   4.213   3.544   0.968 -0.0597  0.3054 -0.0210
 6142W        W 9886   2.468   3.290  11.222 -0.1928  0.3064 -0.0274
 6143W        W 9887   3.965   1.244   0.140  0.1646  0.0788  0.1937
 6144W        W 9888   0.207   0.612   1.353 -0.3471  0.0208 -0.0980
 6145W        W 9889   8.443   2.878   3.260  0.1912 -0.3124 -0.1880
 6146W        W 9890   5.806   0.392   4.239 -0.1103  0.2107 -0.0883
 6147W        W 9891   2.826   0.721   0.666  0.2657  0.1374 -0.0363
 6148W        W 9892   3.528   1.534   0.051 -0.1111  0.0622 -0.1301
 6149W        W 9893   5.813   0.438   2.964  0.5304 -0.0795 -0.1099
 6150W        W 9894   2.260   8.809   8.749 -0.3117  0.1001  0.0467
 6151W        W 9895   2.809   0.463   2.124  0.0270  0.0630  0.1114
 6152W        W 9896   9.218   2.111   1.644 -0.0278  0.0163  0.1517
 6153W        W 9897   7.892   0.787   4.024 -0.0363 -0.0071 -0.1971
 6154W        W 9898   6.420   0.998   3.357  0.0656  0.1201  0.0087
 6155W        W 9899   1.483   0.534   4.190 -0.1204 -0.2655  0.4071
 6156W        W 9900   7.601   0.856  10.212 -0.4283  0.0987 -0.0645
 6157W        W 9901   4.079   3.631   4.424 -0.3216 -0.0862 -0.1797
 6158W        W 9902   9.358   3.574  10.740 -0.1116  0.0809  0.0553
 6159W        W 9903   6.336   4.324   1.432 -0.0005  0.1136  0.0482
 6160W        W 9904   1.096   4.269   4.009 -0.0775 -0.0676  0.2032
 6161W        W 9905   9.109   8.857   2.903 -0.2262  0.0890 -0.1059
 6162W        W 9906   7.392   7.769   0.319 -0.2136 -0.3336  0.1052
 6163W        W 9907   9.529   2.769  11.540 -0.2474  0.2265 -0.1108
 6164W        W 9908   1.446   8.334  11.265  0.0466 -0.0047 -0.1312
 6165W        W 9909   1.548   3.050   3.229  0.3952  0.3343 -0.2947
 6166W        W 9910   9.687   2.831   0.284 -0.1659 -0.1143 -0.2585
 6167W        W 9911   8.096   5.609   3.182  0.1229  0.0793  0.2268
 6168W        W 9912   3.663   4.022   3.144  0.4681 -0.0223 -0.0232
 6169W        W 9913   1.126   8.186  10.777  0.0455  0.1731  0.0266
 6170W        W 9914   7.131   7.800   1.609  0.0511  0.4742  0.3806
 6171W        W 9915   9.785   3.048  11.208  0.2424 -0.1314 -0.2121
 6172W        W 9916   9.767   2.549   9.911  0.1752  0.1885 -0.0146
 6173W        W 9917   5.022   0.995  10.730 -0.1741 -0.3322 -0.1648
 6174W        W 9918   5.607   3.671   1.730  0.0877 -0.0675 -0.2696
 6175W        W 9919   5.408   3.328  11.098 -0.1036 -0.0956  0.0667
 6176W        W 9920   0.398   2.361   4.524  0.2264 -0.3871  0.2731
 6177W        W 9921   8.833   7.824  11.107  0.1302  0.3906  0.0539
 6178W        W 9922   2.029   0.687   0.265 -0.2658 -0.0796  0.2635
 6179W        W 9923   1.582   5.267   2.860  0.1859  0.0708  0.0148
 6180W        W 9924   2.223   8.121  12.100 -0.1819 -0.0617 -0.0420
 6181W        W 9925   6.516   0.687  11.561  0.1903 -0.1378 -0.2527
 6182W        W 9926   2.934   4.210   2.286  0.2050  0.1520  0.1216
 6183W        W 9927   0.895   0.029   9.879 -0.1074  0.3299 -0.2009
 6184W        W 9928   9.439   1.677  10.753 -0.0853 -0.0601 -0.3034
 6185W        W 9929   5.721   7.700   3.230  0.0884  0.1854  0.1736
 6186W        W 9930   2.600   9.624  11.244  0.0613  0.2033 -0.2376
 6187W        W 9931   2.807   7.779   1.079  0.2528 -0.1004  0.2007
 6188W        W 9932   7.993   3.947   3.967  0.2558 -0.0203  0.0773
 6189W        W 9933   9.650   5.665   2.388  0.1853  0.0478 -0.2405
 6190W        W 9934   9.325   6.772   2.009  0.1140 -0.2071  0.0869
 6191W        W 9935   5.681   8.446   9.884 -0.1555  0.4059 -0.0057
 6192W        W 9936   6.087   2.869   4.054 -0.0160  0.0586  0.0172
 6193W        W 9937   7.697   1.008  11.315  0.2037  0.1311 -0.1741
 6194W        W 9938   7.827   6.936  12.183 -0.0155  0.0687 -0.0304
 6195W        W 9939   6.017   7.410   0.242  0.1020  0.1625  0.1064
 6196W        W 9940   2.168   1.156   2.598  0.1179 -0.1869 -0.0440
 6197W        W 9941   9.213   9.683   2.226 -0.0030 -0.0767  0.1775
 6198W        W 9942   6.192   4.751  11.885 -0.1232  0.1607  0.0909
 6199W        W 9943   5.744   2.697   0.058  0.2959 -0.2537 -0.0761
 6200W        W 9944   7.275   2.906  12.441  0.1242 -0.1844  0.1892
 6201W        W 9945   9.574   4.636  11.410  0.0155 -0.1410  0.3408
 6202W        W 9946   3.186   2.846  11.909  0.1500  0.1356 -0.1657
 6203W        W 9947   6.281   3.114   9.372 -0.1663 -0.1988 -0.1217
 6204W        W 9948   4.994   2.179   2.000 -0.1817 -0.3246 -0.2790
 6205W        W 9949   8.807   7.917   3.039 -0.2118 -0.2969 -0.4940
 6206W        W 9950   9.230   5.921   0.060  0.2476 -0.1145 -0.1827
 6207W        W 9951   9.005   0.343  12.373  0.1107 -0.1014 -0.1415
 6208W        W 9952   8.129   3.268  10.816 -0.0268 -0.1145 -0.1210
 6209W        W 9953   2.431   1.577   2.775 -0.1684 -0.0443 -0.2475
 6210W        W 9954   9.819   1.122  12.513  0.1421  0.2669 -0.0499
 6211W        W 9955   0.211   7.402   0.116  0.0912  0.0689 -0.1358
 6212W        W 9956   2.269   7.932   9.186 -0.0037 -0.0149 -0.0679
 6213W        W 9957   9.881   3.349   0.816 -0.2828 -0.0539 -0.0048
 6214W        W 9958   9.167   3.827   1.483 -0.1969 -0.0135 -0.0103
 6215W        W 9959   1.495   4.211   3.262 -0.0012 -0.0200  0.3051
 6216W        W 9960   5.347   7.017   2.344 -0.1548  0.0293 -0.3237
 6217W        W 9961   1.406   5.995   0.512 -0.2459  0.0956  0.2458
 6218W        W 9962   7.532   9.754   2.124 -0.1135  0.1374  0.5119
 6219W        W 9963   8.827   4.594  12.084 -0.1863  0.1018  0.1103
 6220W        W 9964   4.670   4.342   0.411  0.1699  0.2925  0.0608
 6221W        W 9965   4.641   7.732  12.151 -0.1439  0.4344 -0.2770
 6222W        W 9966   5.857   9.279  10.610  0.0808  0.0072 -0.0788
 6223W        W 9967   4.771   7.332   3.420 -0.1792 -0.1862  0.0994
 6224W        W 9968   6.379   3.586  12.316  0.2038  0.1400 -0.1362
 6225W        W 9969   4.118   1.547   1.413  0.2374 -0.1082 -0.1427
 6226W        W 9970   1.291   9.177  11.789  0.3225 -0.1358 -0.1075
 6227W        W 9971   3.025   6.280   0.421 -0.1215 -0.0388  0.0267
 6228W        W 9972   7.246   6.267  11.098 -0.2007 -0.0250 -0.3175
 6229W        W 9973   6.176   2.452  10.544 -0.0897  0.1466 -0.3287
 6230W        W 9974   0.576   6.388   1.973 -0.0589 -0.0142  0.0296
 6231W        W 9975   2.689   9.703   9.684  0.0851 -0.3426  0.0503
 6232W        W 9976   2.943   5.433   1.068 -0.0572 -0.0571 -0.2620
 6233W        W 9977   2.349   0.501   3.481 -0.1308 -0.0972  0.2533
 6234W        W 9978   9.336   0.444   0.065 -0.3808  0.0842  0.1887
 6235W        W 9979   2.519   7.422   0.142  0.0677  0.1223  0.3137
 6236W        W 9980   8.236   2.216   1.957  0.2421 -0.0674  0.0501
 6237W        W 9981   0.128   8.952   0.016 -0.1602  0.0707  0.0100
 6238W        W 9982   0.826   1.862   2.964  0.3349  0.0826  0.0015
 6239W        W 9983   3.094   7.995   0.728  0.0528  0.0700  0.1214
 6240W        W 9984   2.800   1.956   2.896 -0.1546 -0.3335 -0.1335
 6241W        W 9985   7.338   2.120  11.491  0.1384  0.2808 -0.1001
 6242W        W 9986   6.404   4.381   1.991 -0.1772  0.2495 -0.0577
 6243W        W 9987   5.225   1.142   4.656 -0.0551 -0.0662  0.1568
 6244W        W 9988   3.752   4.413  10.081 -0.0714  0.3481 -0.1830
 6245W        W 9989   9.070   2.130   2.688 -0.0013 -0.3124 -0.0008
 6246W        W 9990   0.762   9.898  11.258  0.2090  0.3999  0.0974
 6247W        W 9991   5.407   3.224   2.992 -0.2522  0.2955  0.0168
 6248W        W 9992   0.478   9.746   9.707 -0.2170 -0.1003 -0.0406
 6249W        W 9993   7.322   1.911   1.582  0.1223  0.0846  0.1683
 6250W        W 9994   6.680   9.630   0.293 -0.1604  0.1840  0.0024
 6251W        W 9995   2.507   1.173  11.941  0.2664  0.1812 -0.0191
 6252W        W 9996   8.550   0.706   0.381 -0.2263  0.1000 -0.0583
 6253W        W 9997   5.209   8.138  10.063  0.3030  0.0357 -0.0399
 6254W        W 9998   4.679   2.370   9.476 -0.4157  0.1969  0.1089
 6255W        W 9999   8.722   7.059  10.667  0.1889 -0.1046  0.1870
 6256W        W10000   7.118   2.968  10.735 -0.2535  0.0468  0.1551
 6257W        W10001   2.741   0.564   3.163  0.0928 -0.2176  0.1602
 6258W        W10002   9.155   9.445   9.438 -0.4100  0.0754 -0.1778
 6259W        W10003   4.577   6.127   1.644 -0.0337 -0.0320 -0.3226
 6260W        W10004   1.228   0.180   8.442  0.0970 -0.0029 -0.1440
 6261W        W10005   6.141   4.801   3.793 -0.2962 -0.4665 -0.2688
 6262W        W10006   5.293   1.831  12.127  0.3254 -0.1056 -0.0440
 6263W        W10007   8.973   4.799   3.832  0.1873 -0.0510  0.0121
 6264W        W10008   5.239   0.420   2.148 -0.1281 -0.2318 -0.1656
 6265W        W10009   9.642   4.681   3.650 -0.0317  0.0886 -0.0214
 6266W        W10010   4.828   7.849   4.287  0.2185 -0.0643 -0.2275
 6267W        W10011   4.363   1.376   8.442  0.0527 -0.1008  0.3481
 6268W        W10012   8.921   5.015  12.589 -0.2608 -0.0730 -0.3010
 6269W        W10013   0.869   9.421   9.639  0.3599 -0.1001  0.1532
 6270W        W10014   9.830   0.190   0.448 -0.2326  0.2649 -0.1910
 6271W        W10015   1.185   3.461  11.937 -0.0005 -0.1004 -0.3819
 6272W        W10016   1.038   7.341  12.532 -0.0906 -0.0087  0.0003
 6273W        W10017   7.462   2.645   9.931 -0.0477 -0.2651  0.0330
 6274W        W10018   3.093   8.220  10.053 -0.0796  0.1368  0.1096
 6275W        W10019   2.825   2.399   8.297  0.0199 -0.1384  0.0248
 6276W        W10020   7.510   5.254   9.370 -0.2230 -0.1020  0.2762
 6277W        W10021   9.096   0.797   3.516 -0.0688 -0.0708 -0.0771
 6278W        W10022   5.232   9.822   0.501 -0.0049 -0.1162  0.2031
 6279W        W10023   8.108   1.441  12.495 -0.1676  0.1147 -0.1514
 6280W        W10024   1.036   9.249  11.352 -0.2987 -0.0245 -0.0568
 6281W        W10025   3.214   1.614   0.504  0.1368  0.0962  0.1706
 6282W        W10026   6.986   8.094   2.701 -0.1089 -0.0518  0.3579
 6283W        W10027   5.559   2.325   9.981 -0.0788  0.0435  0.0793
 6284W        W10028   0.523   2.411  11.138 -0.1923 -0.4967  0.2771
 6285W        W10029   5.460   5.382   3.406  0.2260  0.0128  0.1814
 6286W        W10030   3.833   3.292   8.669  0.2561 -0.2979 -0.2046
 6287W        W10031   9.938   9.841  10.527  0.1686 -0.0315 -0.0593
 6288W        W10032   8.433   3.884  10.500  0.2606  0.1392 -0.1246
 6289W        W10033   6.446   7.289   1.633  0.0733  0.1451  0.0059
 6290W        W10034   6.538   5.091   9.244 -0.0232  0.3028  0.0463
 6291W        W10035   0.610   8.304   0.344 -0.1406 -0.2109  0.2587
 6292W        W10036   0.172   3.507  10.868  0.1769  0.1692  0.0899
 6293W        W10037   4.871   4.396   1.721 -0.1494  0.3202  0.0778
 6294W        W10038   6.465   5.529  12.044 -0.2509  0.1640  0.1116
 6295W        W10039   6.635   1.038   0.665  0.1195  0.1021 -0.4700
 6296W        W10040   0.870   6.268   1.160  0.0011  0.3296 -0.0413
 6297W        W10041   4.991   2.900  12.077  0.1396  0.0503  0.0277
 6298W        W10042   0.898   7.872   3.453 -0.1042 -0.0621 -0.1074
 6299W        W10043   3.891   6.123   3.437  0.1354 -0.0891 -0.0733
 6300W        W10044   2.332   0.611   2.060 -0.1692  0.0628  0.0067
 6301W        W10045   4.689   6.440  12.403 -0.2389 -0.1688 -0.5334
 6302W        W10046   3.188   2.279  12.019 -0.0433 -0.1460 -0.0756
 6303W        W10047   2.843   8.448  10.433  0.1047 -0.2021  0.0891
 6304W        W10048   4.940   0.799   0.797  0.0363 -0.2915 -0.0186
 6305W        W10049   4.263   1.053   2.406  0.1080  0.2830  0.3501
 6306W        W10050   2.647   8.678   9.460 -0.0289 -0.0119 -0.0184
 6307W        W10051   4.195   0.264   4.201  0.0751 -0.0754 -0.0480
 6308W        W10052   8.856   8.435   1.794  0.0583 -0.0392 -0.0930
 6309W        W10053   9.370   7.190  11.087 -0.1415  0.0053 -0.4044
 6310W        W10054   5.271   2.803   4.513  0.5088 -0.2943 -0.1329
 6311W        W10055   4.649   5.504   9.521 -0.0348 -0.1862  0.0951
 6312W        W10056   8.614   4.624   0.468 -0.3910 -0.1238 -0.0558
 6313W        W10057   6.168   3.870  10.946 -0.0730  0.1699  0.4369
 6314W        W10058   1.424   7.996  11.685 -0.0937 -0.0385 -0.2070
 6315W        W10059   2.445   1.718  10.521 -0.2119 -0.2206  0.3756
 6316W        W10060   3.502   4.518   9.571  0.1240 -0.1010 -0.0648
 6317W        W10061   9.808   9.912   8.958  0.2268 -0.1292 -0.3066
 6318W        W10062   9.509   0.127  12.473  0.1648  0.0575 -0.0651
 6319W        W10063   7.277   8.946  11.112  0.2120 -0.0357 -0.0409
 6320W        W10064   5.759   4.941   1.708  0.3918 -0.2789  0.2013
 6321W        W10065   0.867   7.743  11.646 -0.2110 -0.0999  0.2677
 6322W        W10066   3.178   0.725  10.755 -0.1230 -0.1584  0.2474
 6323W        W10067   5.476   8.549   0.699 -0.1289  0.0754 -0.1911
 6324W        W10068   2.387   0.994   1.086 -0.1059 -0.0192  0.2435
 6325W        W10069   4.986   0.847  12.098 -0.0209 -0.0600 -0.0565
 6326W        W10070   9.765   1.885  11.219 -0.3668  0.1549 -0.2083
 6327W        W10071   8.664   8.975  10.119  0.0081 -0.1748 -0.0324
 6328W        W10072   2.587   8.906   7.987  0.2355  0.0250 -0.1061
 6329W        W10073   1.725   3.705   1.144 -0.2775 -0.1668 -0.2178
 6330W        W10074   1.201   5.516  10.331 -0.1008 -0.0349 -0.1827
 6331W        W10075   0.982   4.689   9.575  0.2600  0.1074 -0.1345
 6332W        W10076   5.553   6.052   9.876 -0.0533 -0.1258 -0.1974
 6333W        W10077   4.865   1.609   9.823  0.0435  0.0668 -0.0050
 6334W        W10078   7.516   9.786   2.623  0.0875 -0.2106 -0.3540
 6335W        W10079   4.361   1.980   8.630  0.0380  0.2042  0.3024
 6336W        W10080   7.344   3.025   1.496 -0.0286  0.1784 -0.0468
 6337W        W10081   4.592   9.154   2.341  0.1604 -0.0837  0.0642
 6338W        W10082   7.704   6.141   2.500  0.2355  0.0434  0.1038
 6339W        W10083   7.074   0.550   0.953 -0.2393  0.1235 -0.1254
 6340W        W10084   6.744   3.527  11.499 -0.0926 -0.1554 -0.0088
 6341W        W10085   7.918   6.982  11.034  0.0485  0.0410  0.2566
 6342W        W10086   2.038   1.832   0.513  0.1266 -0.2082 -0.1817
 6343W        W10087   4.546   2.191  10.768  0.5868 -0.3357 -0.0724
 6344W        W10088   8.747   1.524   1.423 -0.0170  0.4268 -0.0762
 6345W        W10089   6.267   7.630  11.571  0.0727  0.0776 -0.1308
 6346W        W10090   8.872   8.422  10.547 -0.0889  0.0566 -0.0281
 6347W        W10091   6.570   0.409   1.445  0.1102 -0.1343  0.0792
 6348W        W10092   5.345   0.356  10.073 -0.2719 -0.2256 -0.3236
 6349W        W10093   8.359   8.671   1.761  0.3166 -0.0266  0.0564
 6350W        W10094   9.596   4.736  10.393  0.3483 -0.1051  0.0079
 6351W        W10095   7.111   8.318   9.727  0.0319  0.2059 -0.1139
 6352W        W10096   0.624   0.821   1.473 -0.0932  0.3011  0.3367
 6353W        W10097   6.539   0.500   3.916 -0.0805  0.1926  0.3440
 6354W        W10098   8.101   7.655   1.364  0.0893  0.0420  0.3304
 6355W        W10099   5.210   9.608  12.637 -0.1398 -0.2999  0.0850
 6356W        W10100   1.761   5.852   9.474  0.2073 -0.1596 -0.2822
 6357W        W10101   2.276   4.116   0.342 -0.2353  0.0276  0.0462
 6358W        W10102   5.136   5.754   3.707  0.1414 -0.1541 -0.1682
 6359W        W10103   2.119   1.877  12.280  0.1073  0.0087  0.2190
 6360W        W10104   2.057   9.244   1.444 -0.0116  0.1307 -0.1092
 6361W        W10105   4.644   4.620  11.680 -0.2318 -0.2282 -0.4188
 6362W        W10106   0.928   5.125   9.201 -0.2630  0.0074  0.0076
 6363W        W10107   7.398   4.972   3.029 -0.2386  0.0418 -0.1509
 6364W        W10108   7.500   9.928   3.989  0.3083 -0.1377 -0.1617
 6365W        W10109   9.976   7.116   4.134 -0.1633  0.1890 -0.2586
 6366W        W10110   0.205   8.048  10.562 -0.0151  0.1985  0.0899
 6367W        W10111   9.037   9.714  10.831 -0.0251  0.1024  0.0492
 6368W        W10112   4.798   2.624   3.617  0.2279  0.0005 -0.0712
 6369W        W10113   1.667   1.612   9.575 -0.2235  0.2041 -0.0828
 6370W        W10114   5.023   1.403   3.105  0.2436 -0.2236 -0.0237
 6371W        W10115   3.298   4.724  11.494  0.2095  0.0870  0.0714
 6372W        W10116   4.235   5.858  10.810  0.0275  0.3154  0.1797
 6373W        W10117   9.956   8.757   2.946  0.2206  0.0292 -0.2339
 6374W        W10118   5.038   9.376   3.678  0.2881  0.1267  0.1148
 6375W        W10119   8.601   5.221   3.423 -0.1607 -0.1225  0.4718
 6376W        W10120   6.962   3.822  10.622 -0.3167 -0.3272 -0.1422
 6377W        W10121   8.064   2.288   3.273 -0.1960 -0.2697 -0.1340
 6378W        W10122   4.442   3.657  10.130  0.2437 -0.1602  0.1213
 6379W        W10123   6.732   1.073   9.023 -0.3599  0.1485 -0.3105
 6380W        W10124   9.812   1.671  11.672  0.1690  0.4298  0.0453
 6381W        W10125   0.414   6.009  11.105 -0.0525  0.0166  0.0763
 6382W        W10126   7.218   0.082   2.264 -0.1039  0.0283 -0.0043
 6383W        W10127   7.430   2.905   2.002  0.1052 -0.1018  0.3100
 6384W        W10128   0.694   9.810  10.258 -0.0012 -0.0036 -0.0385
 6385W        W10129   6.349   4.410  10.186 -0.2155  0.0095 -0.0622
 6386W        W10130   6.614   7.109  10.105 -0.2399  0.1346 -0.2782
 6387W        W10131   9.587   1.871   3.035 -0.1840 -0.3031 -0.2654
 6388W        W10132   1.651   6.213   4.665  0.0111 -0.1574  0.0386
 6389W        W10133   1.680   4.736   0.042 -0.2035  0.2110  0.2875
 6390W        W10134   6.412   6.756  11.271  0.0601  0.1025 -0.0034
 6391W        W10135   8.810   7.185   1.557 -0.2680 -0.1538  0.1573
 6392W        W10136   8.884   9.446   8.965  0.3608  0.1668  0.3610
 6393W        W10137   6.922   2.963  11.222 -0.0815  0.2040 -0.2925
 6394W        W10138   5.065   3.196   0.243 -0.0353  0.0226  0.1802
 6395W        W10139   1.794   1.246   3.388 -0.0466 -0.0502 -0.0097
 6396W        W10140   8.513   3.434   9.846 -0.2436 -0.0195 -0.0490
 6397W        W10141   9.261   2.923   0.538 -0.2929  0.1897 -0.0416
 6398W        W10142   2.000   3.114   0.930  0.2490 -0.1963  0.1493
 6399W        W10143   0.022   2.121   5.436  0.2833  0.0373  0.2788
 6400W        W10144   3.536   4.817   4.412 -0.1371  0.1154  0.2007
 6401W        W10145   4.562   1.741  11.057  0.0943 -0.0770  0.0233
 6402W        W10146   5.355   1.963   1.212 -0.3781  0.0278 -0.0129
 6403W        W10147   6.774   4.560  12.436 -0.1737 -0.2269 -0.1794
 6404W        W10148   0.526   7.693   0.496  0.1638 -0.2221 -0.0365
 6405W        W10149   8.452   0.191   1.131  0.2099  0.0708 -0.0336
 6406W        W10150   9.440   1.170   2.480 -0.0819 -0.3393 -0.3037
 6407W        W10151   9.885   6.682   2.574 -0.1052 -0.0327  0.1981
 6408W        W10152   0.773   2.590   1.165  0.2333  0.0304  0.1412
 6409W        W10153   5.129   7.567   8.931  0.0589 -0.1407 -0.2986
 6410W        W10154   8.854   8.735   0.029  0.1653 -0.1472 -0.1648
 6411W        W10155   6.925   4.800  11.450  0.1336 -0.2102 -0.0413
 6412W        W10156   0.378   2.905   9.157  0.0823  0.1128  0.1706
 6413W        W10157   7.593   3.827  11.479  0.0896 -0.1754  0.2503
 6414W        W10158   4.856   8.482  10.063  0.2085  0.2397  0.0681
 6415W        W10159   3.341   6.146  11.585  0.2087 -0.0124  0.1487
 6416W        W10160   3.782   7.132   9.622 -0.1253  0.2258  0.2468
 6417W        W10161   3.646   0.283   9.809  0.2537  0.0501 -0.1162
 6418W        W10162   2.826   1.941  12.270 -0.1486  0.0413  0.0104
 6419W        W10163   1.338   4.179   9.057 -0.0867  0.1465 -0.5289
 6420W        W10164   0.360   5.674   8.642 -0.0391 -0.0603 -0.0846
 6421W        W10165   6.123   2.254   1.215  0.3680 -0.0338 -0.3434
 6422W        W10166   1.975   6.838   9.516  0.2969 -0.3730  0.1228
 6423W        W10167   6.344   2.942   0.452  0.0640 -0.0109 -0.0468
 6424W        W10168   9.318   1.363   9.931 -0.0459  0.1319  0.1414
 6425W        W10169   9.392   0.962   0.832  0.4464 -0.1326 -0.2070
 6426W        W10170   3.693   4.074  12.079  0.0430 -0.0255 -0.0413
 6427W        W10171   2.817   8.902   2.909 -0.0050  0.2830  0.0158
 6428W        W10172   2.049   2.881  12.548 -0.0530  0.1141  0.0431
 6429W        W10173   9.588   1.983  12.498 -0.0778 -0.1072 -0.0572
 6430W        W10174   3.893   6.150   9.157 -0.0083 -0.1306  0.1546
 6431W        W10175   0.159   8.360   1.123  0.0302  0.1861  0.0514
 6432W        W10176   9.634   4.404  10.799  0.0603 -0.1374 -0.1540
 6433W        W10177   0.103   8.429   1.628  0.2004  0.1292  0.0016
 6434W        W10178   0.444   2.825   4.309 -0.2993 -0.0384  0.2026
 6435W        W10179   1.978   9.897   2.234  0.2102 -0.0872 -0.0349
 6436W        W10180   1.410   3.598   3.850  0.1996  0.0140 -0.3761
 6437W        W10181   2.641   1.035   8.574  0.0943  0.1368  0.2167
 6438W        W10182   8.529   6.311  11.612 -0.1651 -0.4923 -0.2221
 6439W        W10183   7.582   2.121   0.126  0.0653  0.0699 -0.0016
 6440W        W10184   3.568   2.095  10.001 -0.0041  0.2323  0.0087
 6441W        W10185   6.259   1.311  10.381  0.0492  0.2083  0.1086
 6442W        W10186   1.403   5.939  11.533 -0.0682 -0.2115 -0.1171
 6443W        W10187   8.719   9.715   1.928 -0.0184  0.0657  0.0721
 6444W        W10188   9.450   1.864   8.031 -0.2129  0.1114  0.4834
 6445W        W10189   2.384   3.994   3.448 -0.0730  0.0649 -0.0062
 6446W        W10190   8.342   4.584  12.068 -0.0968 -0.0412  0.1278
 6447W        W10191   0.473   4.662  12.211 -0.0385  0.2807 -0.2076
 6448W        W10192   9.058   3.127  11.956 -0.1697  0.0327 -0.3644
 6449W        W10193   9.572   6.582   2.973  0.4419  0.0788  0.4197
 6450W        W10194   8.923   0.547   1.149  0.3369 -0.1995 -0.0788
 6451W        W10195   5.937   0.473   0.529 -0.1008 -0.2255  0.0911
 6452W        W10196   5.489   4.110   8.710 -0.0054  0.1726 -0.2084
 6453W        W10197   3.908   0.286   2.479  0.2637  0.3652  0.2818
 6454W        W10198   0.693   4.338   1.444 -0.2691  0.3933 -0.0650
 6455W        W10199   6.767   2.645   4.047  0.1778  0.0883  0.2102
 6456W        W10200   2.101   2.608   2.006 -0.2236 -0.4328 -0.4236
 6457W        W10201   7.215   8.793   3.028  0.2078  0.1455 -0.2343
 6458W        W10202   1.399   6.633  11.468 -0.3616  0.5419  0.1263
 6459W        W10203   9.472   9.769  11.754 -0.2064  0.0033  0.2049
 6460W        W10204   2.379   5.950   0.465 -0.1678  0.0766  0.3115
 6461W        W10205   1.736   2.458   8.005  0.1001  0.0581 -0.3100
 6462W        W10206   4.491   9.433   9.909 -0.4144  0.0961 -0.1074
 6463W        W10207   5.872   4.090   1.606  0.0304 -0.1479  0.0685
 6464W        W10208   7.900   6.231   9.828 -0.1673 -0.0841  0.1548
 6465W        W10209   3.028   9.557   4.363 -0.1807 -0.0445 -0.0754
 6466W        W10210   4.308   2.873   2.804 -0.1029  0.0341  0.0687
 6467W        W10211   8.969   3.696  10.257  0.1572  0.1335 -0.0205
 6468W        W10212   7.000   8.696  11.564 -0.1266 -0.0507  0.4493
 6469W        W10213   7.031   7.495  10.282  0.3276 -0.0370  0.1233
 6470W        W10214   8.790   0.825  12.186 -0.0497  0.0446  0.0884
 6471W        W10215   0.383   4.218   9.022  0.2628  0.1198  0.0321
 6472W        W10216   9.220   6.252   2.832 -0.3480 -0.2285 -0.1032
 6473W        W10217   5.567   7.744  10.434  0.2604  0.3325 -0.2460
 6474W        W10218   2.236   9.881   2.653 -0.3505 -0.0988 -0.0626
 6475W        W10219   2.435   2.759   8.599 -0.1047  0.2004  0.1706
 6476W        W10220   1.341   9.599   9.759 -0.1944  0.2031 -0.3274
 6477W        W10221   9.598   1.248   1.695  0.0994 -0.0119 -0.0840
 6478W        W10222   4.365   6.255   3.232  0.1737  0.0738 -0.0155
 6479W        W10223   6.982   5.132   1.060 -0.0714  0.0994  0.0517
 6480W        W10224   0.869   4.256   2.377  0.4203  0.0338 -0.2714
 6481W        W10225   1.708   5.050   3.311 -0.1422 -0.4625 -0.2045
 6482W        W10226   4.816   2.181   8.948  0.0100  0.3427  0.4182
 6483W        W10227   6.689   6.554  10.181 -0.1923 -0.1804  0.2243
 6484W        W10228   2.011   8.106   4.234 -0.1954 -0.2064  0.2693
 6485W        W10229   1.728   5.484  11.556  0.1658  0.0605 -0.4378
 6486W        W10230   6.300   0.430   2.729  0.1031  0.2214 -0.0475
 6487W        W10231   8.659   3.522  11.962 -0.1118  0.0840  0.0695
 6488W        W10232   9.687   1.781   1.607 -0.0457  0.0107  0.1021
 6489W        W10233   3.458   0.586   4.516 -0.0081  0.1588 -0.0969
 6490W        W10234   1.666   5.884  10.508  0.1142  0.1356  0.0957
 6491W        W10235   2.694   9.235  11.981  0.0550  0.0985 -0.1267
 6492W        W10236   3.666   3.660   0.281 -0.1012 -0.0779  0.2689
 6493W        W10237   6.869   2.133   1.374  0.1259 -0.1290  0.2179
 6494W        W10238   5.795   4.371   0.503 -0.0308  0.2057  0.2175
 6495W        W10239   9.327   0.307   3.791 -0.0985  0.2730  0.2004
 6496W        W10240   0.543   4.568   3.138  0.2265 -0.0807  0.0980
 6497W        W10241   2.098   5.325   8.422  0.1962  0.2080 -0.0819
 6498W        W10242   0.554   6.859   9.974  0.2356  0.1228 -0.0094
 6499W        W10243   3.624   0.485   0.892 -0.2060 -0.1476 -0.1033
 6500W        W10244   7.719   5.408  12.059  0.3279 -0.1976  0.1676
 6501W        W10245   7.987   6.745   9.991  0.2031 -0.0897 -0.0946
 6502W        W10246   9.036   8.385   4.329  0.2087  0.0389 -0.4670
 6503W        W10247   9.518   9.049   9.407  0.3179  0.0005  0.2212
 6504W        W10248   5.331   4.636   1.721 -0.2452 -0.1226 -0.0298
 6505W        W10249   2.249   9.466  12.162  0.0111 -0.3990  0.0487
 6506W        W10250   2.232   2.758  11.980 -0.0690  0.0612 -0.0093
 6507W        W10251   7.339   2.241   0.793 -0.3538  0.1329  0.0796
 6508W        W10252   5.500   1.681   3.162 -0.2084  0.0656 -0.1468
 6509W        W10253   3.528   8.585  11.742 -0.4135  0.0938 -0.1779
 6510W        W10254   3.859   0.405   2.952  0.0363 -0.1276 -0.3434
 6511W        W10255   1.746   4.534  10.763  0.1598 -0.1986  0.0663
 6512W        W10256   8.227   4.463   0.802  0.0087  0.1310 -0.2253
 6513W        W10257   5.063   9.456  11.488  0.2354  0.0862 -0.1962
 6514W        W10258   9.422   5.862  11.663 -0.1451  0.0999 -0.1404
 6515W        W10259   0.705   1.638  10.543 -0.1234  0.3464  0.1841
 6516W        W10260   1.226   9.704  11.163 -0.1362 -0.0020  0.1119
 6517W        W10261   8.657   7.444   0.668 -0.1121 -0.0740 -0.3465
 6518W        W10262   0.777   6.238  10.625 -0.0230 -0.0489  0.1156
 6519W        W10263   5.725   5.246   8.359 -0.1815  0.1828 -0.1068
 6520W        W10264   2.217   9.432  10.436 -0.3187 -0.3967 -0.1242
 6521W        W10265   8.557   9.347   0.767  0.2261  0.0137 -0.2477
 6522W        W10266   1.208   2.173   3.596  0.0302  0.0925 -0.0397
 6523W        W10267   8.839   6.200   0.728 -0.0033 -0.0280 -0.0382
 6524W        W10268   9.325   9.273   8.909  0.0593 -0.4288 -0.0418
 6525W        W10269   7.910   3.595   2.903 -0.0678 -0.0427  0.4452
 6526W        W10270   9.942   0.704   0.575  0.0694  0.2173  0.3011
 6527W        W10271   1.144   4.939   1.182  0.2281  0.1090  0.0383
 6528W        W10272   6.514   2.544   1.323 -0.1151  0.0213  0.1810
 6529W        W10273   5.205   5.794  11.363  0.3972 -0.1106 -0.0422
 6530W        W10274   2.958   8.685   2.427 -0.0476  0.0226  0.1112
 6531W        W10275   5.222   6.601   3.286 -0.0364 -0.1351  0.2169
 6532W        W10276   9.821   4.331  12.029  0.1551 -0.1565 -0.1100
 6533W        W10277   9.314   5.266   2.486 -0.1870  0.1745 -0.3733
 6534W        W10278   5.336   6.701   8.897  0.2114 -0.1836  0.0980
 6535W        W10279   9.082   2.936   1.005 -0.1975  0.1155  0.2511
 6536W        W10280   2.939   6.704   2.044  0.0097  0.0445 -0.1757
 6537W        W10281   4.896   3.372  10.820 -0.2620 -0.0448  0.1636
 6538W        W10282   3.337   9.213  12.127  0.1217 -0.0245 -0.1567
 6539W        W10283   4.960   1.729   0.842 -0.0681 -0.1056 -0.0594
 6540W        W10284   6.607   7.947   0.712 -0.1381  0.0249 -0.1302
 6541W        W10285   5.188   5.254  11.212  0.1385  0.0020  0.1022
 6542W        W10286   1.487   1.764   8.291 -0.0669 -0.3053  0.0481
 6543W        W10287   6.737   6.223   0.919 -0.1254  0.6180 -0.1174
 6544W        W10288   9.473   4.350   0.358 -0.2627 -0.0934  0.2226
 6545W        W10289   5.965   3.850  12.109 -0.3577 -0.1629 -0.3663
 6546W        W10290   1.580   0.399   8.166  0.0580  0.0024  0.1072
 6547W        W10291   6.346   1.278   3.786 -0.2227 -0.0182  0.4216
 6548W        W10292   5.320   9.902  11.807 -0.1139 -0.0404  0.0439
 6549W        W10293   0.191   2.961   9.902 -0.1150  0.1719 -0.2674
 6550W        W10294   1.765   7.942   3.562 -0.1251  0.1288  0.2809
 6551W        W10295   8.332   7.935   9.624 -0.2003  0.2779 -0.2543
 6552W        W10296   6.604   5.255   2.417 -0.3951 -0.0443 -0.2335
 6553W        W10297   6.388   5.773  11.599  0.0868 -0.2143 -0.0890
 6554W        W10298   2.751   4.414   1.036  0.1602  0.1476  0.0582
 6555W        W10299   0.761   3.732   9.536 -0.2132 -0.2056  0.1339
 6556W        W10300   1.625   3.591   2.866 -0.0830 -0.2972  0.1827
 6557W        W10301   7.745   1.415   2.624 -0.0479  0.1765 -0.0069
 6558W        W10302   9.396   8.520  10.843  0.1426 -0.0458  0.2289
 6559W        W10303   9.610   7.414   0.913  0.0066  0.1110  0.0342
 6560W        W10304   9.447   6.250   0.792 -0.0020  0.2706  0.1075
 6561W        W10305   6.763   7.106   3.016 -0.1269  0.3069  0.0072
 6562W        W10306   0.719   5.428  11.111  0.2467 -0.0376 -0.3887
 6563W        W10307   9.895   8.674  10.741 -0.3343  0.1390  0.1827
 6564W        W10308   3.204   3.908  12.173 -0.2694 -0.2404  0.1651
 6565W        W10309   1.972   1.513  10.515 -0.0578 -0.2851 -0.1050
 6566W        W10310   5.112   5.744   3.169 -0.1124 -0.1640  0.1069
 6567W        W10311   3.931   3.902   1.201 -0.1005 -0.1365 -0.2246
 6568W        W10312   4.140   1.927   2.835  0.2581  0.1085 -0.5474
 6569W        W10313   7.123   6.633  12.566  0.2726  0.3599  0.0556
 6570W        W10314   5.026   1.290   1.570 -0.0110 -0.0765  0.0166
 6571W        W10315   8.417   9.155   1.265 -0.0158 -0.0330  0.3551
 6572W        W10316   1.043   2.989   4.203  0.3642  0.2934 -0.2355
 6573W        W10317   4.145   2.388   0.581 -0.0847  0.0435  0.0574
 6574W        W10318   7.145   7.701   3.906  0.0390  0.1129  0.0692
 6575W        W10319   4.563   3.062   0.323  0.1170 -0.0412 -0.1966
 6576W        W10320   8.361   5.626  12.240 -0.1960  0.3399  0.1040
 6577W        W10321   5.089   6.260  11.339 -0.1717 -0.1305 -0.3098
 6578W        W10322   3.616   7.257   2.709 -0.0776  0.0148  0.0293
 6579W        W10323   6.477   8.794   2.346  0.0358  0.0464  0.1255
 6580W        W10324   1.280   2.576   4.431 -0.0548  0.2213 -0.2947
 6581W        W10325   2.844   2.747   9.760  0.0042  0.1595  0.0276
 6582W        W10326   6.047   1.794   3.007 -0.3361 -0.1120 -0.3151
 6583W        W10327   0.189   2.227   0.248  0.2375  0.2336 -0.0064
 6584W        W10328   5.853   4.396  12.181  0.2601 -0.0941 -0.0331
 6585W        W10329   8.046   8.699  10.694 -0.0362  0.6840 -0.1236
 6586W        W10330   4.674   5.938  11.544  0.0558  0.2845 -0.1767
 6587W        W10331   0.341   9.287   9.953 -0.0364 -0.0118  0.1205
 6588W        W10332   9.867   5.161   2.480  0.2020  0.1455  0.0403
 6589W        W10333   9.410   5.453   9.848 -0.1775 -0.2508 -0.2879
 6590W        W10334   1.525   9.848   1.323 -0.0211 -0.0152 -0.1065
 6591W        W10335   2.250   3.029   3.434  0.0331 -0.1469 -0.2747
 6592W        W10336   3.901   5.885   2.974 -0.0816 -0.1174 -0.0055
 6593W        W10337   2.978   2.288   2.557  0.1175  0.0816 -0.0847
 6594W        W10338   8.986   6.901  11.161 -0.1514 -0.1129  0.0390
 6595W        W10339   6.981   0.025   9.336  0.3972  0.2256 -0.2332
 6596W        W10340   5.014   0.522   2.923  0.0376  0.1894  0.3510
 6597W        W10341   4.945   9.594  10.106 -0.1236 -0.0125 -0.0078
 6598W        W10342   9.841   0.713  12.201  0.0829 -0.0459  0.0640
 6599W        W10343   0.989   7.394   3.224 -0.1440 -0.3715 -0.3291
 6600W        W10344   3.034   8.286   7.461 -0.1149  0.0814 -0.0493
 6601W        W10345   2.717   1.729  10.064 -0.0058 -0.2137 -0.2016
 6602W        W10346   2.013   6.056   4.374 -0.0681  0.0856 -0.2826
 6603W        W10347   0.297   3.272   3.168 -0.1868 -0.2789 -0.0763
 6604W        W10348   9.312   3.111  12.428 -0.0516 -0.0863  0.0887
 6605W        W10349   3.948   9.752   8.685  0.3281 -0.2153  0.0308
 6606W        W10350   9.231   4.335   1.594 -0.0285 -0.1841  0.4827
 6607W        W10351   8.481   0.300  11.510 -0.3780  0.1928  0.3096
 6608W        W10352   4.607   5.290   0.592  0.3126  0.1825  0.1054
 6609W        W10353   0.792   3.075   2.025  0.1177  0.3838  0.1516
 6610W        W10354   7.270   0.680  10.630 -0.0130  0.3291 -0.0534
 6611W        W10355   7.999   0.165  11.650 -0.3291  0.0110 -0.0790
 6612W        W10356   1.543   6.932   2.061 -0.2922  0.0147  0.0185
 6613W        W10357   9.110   1.315  10.804  0.0608 -0.0561  0.1743
 6614W        W10358   3.016   2.316   2.060 -0.1513 -0.0998 -0.1203
 6615W        W10359   4.804   6.018  10.151 -0.1092 -0.5815  0.1319
 6616W        W10360   0.700   7.970   9.620 -0.1093 -0.4123 -0.1629
 6617W        W10361   1.431   6.680   1.601  0.1207  0.1289  0.0232
 6618W        W10362   1.268   0.834  10.458 -0.2681 -0.0604 -0.2584
 6619W        W10363   9.367   5.420  10.421 -0.1082  0.1035  0.0790
 6620W        W10364   4.561   7.991   1.686 -0.3588 -0.1973 -0.0762
 6621W        W10365   8.550   5.690  10.419  0.2026 -0.1112  0.1419
 6622W        W10366   5.103   9.783   2.208  0.3641  0.2169  0.1848
 6623W        W10367   1.879   7.526   0.860 -0.1731  0.1748 -0.1456
 6624W        W10368   4.882   2.144   7.933  0.1015  0.0792  0.1685
 6625W        W10369   3.740   1.130   8.391 -0.2318  0.2845 -0.0383
 6626W        W10370   6.605   3.832   0.636  0.0863  0.1504 -0.0848
 6627W        W10371   7.322   1.172  11.940 -0.2742  0.0389  0.0213
 6628W        W10372   2.717   4.903   2.300  0.1198 -0.0698  0.1422
 6629W        W10373   9.463   7.945   3.401  0.0870  0.0548 -0.0209
 6630W        W10374   3.805   1.522  10.956  0.2822 -0.0902  0.1560
 6631W        W10375   2.953   6.124  12.618  0.0522  0.0552 -0.1163
 6632W        W10376   1.858   7.595   9.165  0.1249  0.0884 -0.1547
 6633W        W10377   4.429   4.016   1.100  0.1496  0.1119  0.1450
 6634W        W10378   2.326   1.467  11.536 -0.2203  0.1135  0.4849
 6635W        W10379   9.700   7.171   2.784  0.0333 -0.1087  0.0553
 6636W        W10380   0.017   0.846  11.414  0.2275  0.2014  0.2049
 6637W        W10381   1.535   2.329  12.063 -0.1043  0.1951 -0.1457
 6638W        W10382   6.600   6.953   0.809  0.0108  0.2091  0.1703
 6639W        W10383   5.786   0.376  11.097  0.1097  0.2094 -0.0975
 6640W        W10384   2.255   7.165  11.839  0.0468  0.0111 -0.0183
 6641W        W10385   0.529   9.820  11.712 -0.1893 -0.0533  0.0771
 6642W        W10386   5.790   1.248   0.937  0.0117 -0.1081 -0.1017
 6643W        W10387   7.914   2.110   2.826  0.1596  0.2954 -0.1402
 6644W        W10388   5.357   4.601   3.239 -0.1024  0.0512  0.3602
 6645W        W10389   9.239   0.221   2.617 -0.0997  0.1897 -0.0003
 6646W        W10390   5.624   5.839   3.212  0.0415  0.3525 -0.0191
 6647W        W10391   9.728   7.572   0.073  0.1740  0.0244  0.2498
 6648W        W10392   2.064   6.244  10.673 -0.1433 -0.0793 -0.0286
 6649W        W10393   7.600   5.448   9.889 -0.1006  0.0887  0.2720
 6650W        W10394   6.437   0.297   8.470 -0.2055 -0.0742  0.4162
 6651W        W10395   7.245   9.358   2.355  0.2173  0.1814 -0.2080
 6652W        W10396   2.636   0.081   9.063  0.0754  0.2886  0.1085
 6653W        W10397   0.933   8.701  12.317 -0.0569 -0.0801 -0.1345
 6654W        W10398   7.710   6.355   1.565  0.2567  0.1009  0.0762
 6655W        W10399   0.187   1.103   8.514 -0.0599 -0.0681 -0.2295
 6656W        W10400   6.642   5.215   4.412  0.1476 -0.2359 -0.1845
 6657W        W10401   2.794   3.909  12.511  0.0357  0.0693 -0.0161
 6658W        W10402   4.202   3.924  12.084  0.0671  0.0426  0.1819
 6659W        W10403   1.329   4.505  10.508 -0.0302 -0.1224  0.4273
 6660W        W10404   3.483   5.902  12.400 -0.2279  0.0180  0.0422
 6661W        W10405   1.819   7.387  12.023 -0.1718  0.3147  0.2671
 6662W        W10406   5.928   9.270   0.789  0.0532  0.1358  0.0088
 6663W        W10407   4.061   6.561  12.123  0.1312 -0.0828  0.1928
 6664W        W10408   7.174   8.506  12.309  0.1428 -0.2317  0.1219
 6665W        W10409   6.858   6.250   9.812 -0.0949 -0.1677 -0.0312
 6666W        W10410   9.404   4.289   9.015  0.0342 -0.1249 -0.0814
 6667W        W10411   2.451   1.378   4.516  0.0991  0.0037 -0.2219
 6668W        W10412   0.462   0.294  11.571 -0.1938 -0.0585 -0.3508
 6669W        W10413   7.679   2.184   4.723 -0.2309  0.0138  0.0123
 6670W        W10414   4.423   1.122   0.071 -0.0963  0.0001  0.0844
 6671W        W10415   9.224   6.772  11.726 -0.1298  0.2816  0.1459
 6672W        W10416   4.956   7.724   1.550 -0.1799 -0.1389  0.0953
 6673W        W10417   2.081   8.273   8.763 -0.0711 -0.1471 -0.3015
 6674W        W10418   8.918   2.518   4.871 -0.3348  0.0997  0.0883
 6675W        W10419   1.673   0.066   3.951  0.1194  0.1203 -0.1835
 6676W        W10420   6.418   8.171   3.469  0.0189  0.4288 -0.0456
 6677W        W10421   0.918   5.335  12.049 -0.0763  0.0226  0.0281
 6678W        W10422   4.865   3.870  10.380 -0.0874  0.0178  0.2252
 6679W        W10423   0.186   2.339   1.786  0.0362  0.3494  0.0789
 6680W        W10424   8.216   4.663  11.638 -0.3007 -0.0239 -0.0810
 6681W        W10425   3.099   8.501   2.920  0.0014 -0.0150 -0.0284
 6682W        W10426   8.858   4.692  10.225 -0.0965  0.1118  0.0923
 6683W        W10427   7.806   2.610  11.331 -0.1757 -0.0019  0.0389
 6684W        W10428   0.144   0.678   2.938  0.0830 -0.2549  0.2312
 6685W        W10429   4.711   7.549   0.352  0.2961 -0.4521 -0.2806
 6686W        W10430   5.025   6.833   1.620  0.0558  0.1418 -0.2566
 6687W        W10431   2.770   2.912   3.225 -0.1081  0.1736 -0.2796
 6688W        W10432   0.899   3.357   3.590  0.3247 -0.2196 -0.1523
 6689W        W10433   6.281   9.504  10.394  0.1681 -0.1726  0.2494
 6690W        W10434   0.833   2.540   4.087 -0.0613  0.0629  0.0288
 6691W        W10435   8.118   0.406   2.414  0.1223  0.1560  0.3753
 6692W        W10436   2.955   6.612  11.679  0.3346  0.0052  0.0162
 6693W        W10437   0.620   4.992   9.703 -0.0787 -0.0113 -0.1754
 6694W        W10438   7.281   1.675  12.025 -0.1245 -0.0555  0.3829
 6695W        W10439   2.613   9.845   3.008  0.2002 -0.4344 -0.1495
 6696W        W10440   2.717   8.820   9.010 -0.2815  0.0990 -0.1470
 6697W        W10441   0.244   4.236  12.361  0.2958  0.0125  0.3155
 6698W        W10442   8.164   8.447   2.948 -0.1028 -0.1490 -0.1517
 6699W        W10443   9.728   8.586  11.241  0.2523 -0.1007 -0.0871
 6700W        W10444   9.321   9.173   3.579  0.3050  0.2712  0.1314
 6701W        W10445   0.068   4.990   3.048  0.2474 -0.1723 -0.0570
 6702W        W10446   7.397   7.152   1.023 -0.1890 -0.1513 -0.0165
 6703W        W10447   4.438   7.357  12.500 -0.4268 -0.0252  0.0991
 6704W        W10448   4.421   4.449   9.150  0.2329  0.1972  0.2290
 6705W        W10449   7.203   8.001  11.451  0.1030 -0.0318 -0.0570
 6706W        W10450   8.636   4.474   9.833  0.1914  0.2763 -0.3730
 6707W        W10451   7.382   4.124   0.431  0.1803 -0.0104  0.3293
 6708W        W10452   4.169   0.696   9.932 -0.1589 -0.6177  0.0580
 6709W        W10453   3.614   9.789   9.684  0.5936  0.4662  0.0021
 6710W        W10454   0.060   2.027   4.527 -0.0595  0.2164  0.2124
 6711W        W10455   7.578   5.905   9.703 -0.1320 -0.1815  0.0805
 6712W        W10456   4.631   7.135  10.494 -0.0336  0.5169  0.3105
 6713W        W10457   3.581   7.487   9.266 -0.3125 -0.3025  0.0470
 6714W        W10458   3.971   4.951  10.375  0.2879 -0.1952  0.2994
 6715W        W10459   4.875   0.708   2.343  0.1019 -0.0135  0.3988
 6716W        W10460   4.510   3.565  11.850 -0.4062 -0.3097 -0.1881
 6717W        W10461   3.698   0.589   3.430  0.1202  0.1939 -0.1412
 6718W        W10462   3.414   8.165  10.769  0.1939  0.0439  0.0237
 6719W        W10463   2.108   7.309   3.506 -0.0433  0.2692 -0.1137
 6720W        W10464   7.642   9.795  10.945  0.0184 -0.0033 -0.2944
 6721W        W10465   4.076   0.863  12.307 -0.0183 -0.2030 -0.1497
 6722W        W10466   1.732   8.784   9.740 -0.4148 -0.2261  0.4308
 6723W        W10467   5.136   7.536   9.428 -0.2335 -0.0028 -0.0624
 6724W        W10468   3.088   1.368  12.593  0.0003  0.0328 -0.0984
 6725W        W10469   7.639   6.852   2.984 -0.0605  0.0369  0.2068
 6726W        W10470   6.789   8.753  11.103 -0.1057 -0.0885 -0.3017
 6727W        W10471   0.498   7.595  10.759 -0.0022  0.0836 -0.1297
 6728W        W10472   2.759   0.385   1.616 -0.0145 -0.3874 -0.0545
 6729W        W10473   2.497   1.982  12.643 -0.0744 -0.1261  0.1323
 6730W        W10474   6.437   6.775   1.792 -0.1860 -0.3651 -0.1577
 6731W        W10475   0.440   6.618  12.368  0.1475 -0.0930  0.1450
 6732W        W10476   9.239   9.279  10.608  0.2483 -0.0065  0.2559
 6733W        W10477   3.305   0.914   9.779  0.0148 -0.0937  0.0493
 6734W        W10478   1.787   6.800  11.765 -0.0291  0.1807 -0.0821
 6735W        W10479   9.616   4.727   0.571  0.1696 -0.2113  0.0156
 6736W        W10480   5.249   1.763   9.100 -0.1737  0.1354 -0.0355
 6737W        W10481   3.091   7.324   7.932 -0.1930  0.3165  0.2283
 6738W        W10482   0.216   6.384  10.791 -0.1042 -0.2077 -0.2337
 6739W        W10483   9.846   2.238  11.626 -0.1686 -0.0702 -0.2207
 6740W        W10484   2.138   8.496   9.259  0.0881  0.3998 -0.2304
 6741W        W10485   3.799   9.779   2.263 -0.2032 -0.0563 -0.0271
 6742W        W10486   2.933   0.126   8.648  0.1323 -0.0381  0.0987
 6743W        W10487   9.626   6.369   1.256 -0.1821 -0.1516  0.0347
 6744W        W10488   8.499   5.324   2.957  0.2363  0.1889 -0.0730
 6745W        W10489   6.503   4.632   3.035 -0.0732  0.4428  0.2818
 6746W        W10490   3.945   9.444  11.409  0.3066 -0.0179  0.1606
 6747W        W10491   2.315   8.783   1.282  0.0692 -0.2228 -0.1537
 6748W        W10492   8.955   2.491   2.366  0.2144 -0.1028  0.0851
 6749W        W10493   0.851   5.753   3.885  0.2960  0.0116  0.0204
 6750W        W10494   2.481   1.891   8.928  0.0202 -0.2980  0.1492
 6751W        W10495   0.216   8.608   2.526  0.2237 -0.0371 -0.0277
 6752W        W10496   8.954   2.659   3.386 -0.5438 -0.3500  0.3077
 6753W        W10497   8.067   3.704  11.339  0.0862  0.1270 -0.2176
 6754W        W10498   3.377   9.827  11.624  0.2443 -0.0082  0.0046
 6755W        W10499   2.438   4.934  12.488 -0.1238 -0.1026 -0.2714
 6756W        W10500   4.527   2.753   3.250 -0.1482  0.1084 -0.4519
 6757W        W10501   0.810   6.874  12.674  0.0955  0.2144  0.1319
 6758W        W10502   0.133   9.532  10.877 -0.1869  0.0443  0.1380
 6759W        W10503   1.554   0.466   3.021  0.0251 -0.0221 -0.2591
 6760W        W10504   5.246   8.881  12.331  0.2059 -0.0629 -0.2832
 6761W        W10505   7.382   8.275  10.544 -0.2000  0.3820  0.0663
 6762W        W10506   0.848   8.711   4.928 -0.1350 -0.1773  0.0667
 6763W        W10507   1.245   6.069  10.305  0.0726 -0.1511 -0.0794
 6764W        W10508   0.196   9.885  10.087 -0.0956 -0.1190 -0.0607
 6765W        W10509   0.608   8.365  10.032 -0.0584  0.0060 -0.1099
 6766W        W10510   5.143   5.258   9.517 -0.0349 -0.0985  0.1686
 6767W        W10511   5.642   0.707   2.033 -0.1910 -0.1206 -0.1030
 6768W        W10512   3.499   4.683   2.739  0.2642  0.0092 -0.1710
 6769W        W10513   9.147   3.306   3.536 -0.3218 -0.2226  0.1676
 6770W        W10514   6.559   2.157   9.130 -0.0300 -0.0337 -0.3697
 6771W        W10515   1.029   6.993  10.029  0.0420 -0.2017 -0.2925
 6772W        W10516   7.642   4.540  10.849  0.0772  0.1915  0.1000
 6773W        W10517   7.533   5.254  11.170 -0.1792 -0.1860  0.3399
 6774W        W10518   5.352   4.923  11.657  0.1109  0.2419  0.1349
 6775W        W10519   9.195   9.620   2.727  0.0703  0.1197 -0.2428
 6776W        W10520   2.957   5.430  12.532 -0.3002 -0.1574 -0.2783
 6777W        W10521   0.441   5.193  12.242 -0.2110  0.0214 -0.1155
 6778W        W10522   2.334   0.687   1.509  0.3024 -0.0520 -0.0418
 6779W        W10523   3.337   5.913   3.084 -0.1746  0.0054 -0.1391
 6780W        W10524   6.947   6.753   2.625  0.2759  0.1619 -0.0984
 6781W        W10525   1.098   8.678   3.334  0.1568 -0.0077  0.1911
 6782W        W10526   5.199   7.940   2.122  0.0653 -0.3763  0.0279
 6783W        W10527   1.074   2.174   1.544 -0.0257 -0.3084 -0.1550
 6784W        W10528   5.354   1.448   1.204  0.1633 -0.0062  0.1627
 6785W        W10529   2.497   0.310   2.815  0.1280  0.0894 -0.2022
 6786W        W10530   7.234   9.547   9.126 -0.3447 -0.2043 -0.3505
 6787W        W10531   9.331   0.743  12.298 -0.0238 -0.1587 -0.2708
 6788W        W10532   2.439   3.925   3.990  0.1144  0.1011  0.1570
 6789W        W10533   6.864   1.100   1.729  0.4173 -0.0774  0.0867
 6790W        W10534   9.245   6.340  12.339  0.0012  0.2626 -0.0144
 6791W        W10535   9.860   9.244   1.813  0.1014  0.0903  0.2959
 6792W        W10536   9.227   9.555   0.374  0.2084 -0.0440  0.0339
 6793W        W10537   0.386   0.634  11.148  0.0702 -0.1468 -0.0817
 6794W        W10538   5.973   7.952  11.274  0.0196  0.1207  0.1315
 6795W        W10539   8.885   4.466   2.866  0.0548 -0.2407  0.0596
 6796W        W10540   8.303   8.822   8.601 -0.0358 -0.3125  0.0824
 6797W        W10541   1.953   4.564   2.503 -0.1684  0.1915 -0.0281
 6798W        W10542   2.319   3.569   0.528 -0.2154  0.0091  0.0273
 6799W        W10543   4.434   9.979   8.524  0.1623  0.0710 -0.3727
 6800W        W10544   5.866   5.584   2.872 -0.1855  0.0892 -0.1338
 6801W        W10545   3.407   6.403  10.717  0.2306 -0.0285 -0.0452
 6802W        W10546   5.894   0.935  12.281  0.0439  0.1938 -0.1328
 6803W        W10547   0.367   2.668   3.839  0.0162  0.2674 -0.2769
 6804W        W10548   5.403   8.690   9.269  0.0989  0.0439  0.2233
 6805W        W10549   1.945   5.355   4.629  0.1869 -0.2996 -0.1460
 6806W        W10550   5.664   3.985  11.703 -0.2328 -0.0979 -0.0942
 6807W        W10551   7.120   1.000   9.564  0.1905 -0.0459 -0.0264
 6808W        W10552   7.847   7.170   9.772 -0.2249  0.1155  0.0187
 6809W        W10553   4.793   1.230   0.479 -0.1637  0.0687  0.1538
 6810W        W10554   0.651   5.473   2.558  0.0733 -0.2095  0.0310
 6811W        W10555   2.126   0.487   1.007  0.1686  0.3070 -0.0751
 6812W        W10556   9.362   3.914   0.119 -0.0282  0.1882 -0.0496
 6813W        W10557   6.159   6.572   2.283 -0.1623  0.0953  0.1803
 6814W        W10558   8.412   7.731   2.171 -0.3158  0.0830  0.0345
 6815W        W10559   9.896   3.751  12.680  0.3901 -0.0516 -0.2429
 6816W        W10560   3.967   2.034   0.888 -0.0051  0.0099  0.0368
 6817W        W10561   7.032   4.486   9.040 -0.2076  0.1416  0.2001
 6818W        W10562   9.196   8.599  12.255 -0.2742 -0.2269  0.2220
 6819W        W10563   5.479   3.039   0.764  0.1295  0.0822  0.2935
 6820W        W10564   0.333   6.915   0.183  0.1346  0.0732  0.1141
 6821W        W10565   8.612   0.648  11.193 -0.2102  0.0263 -0.1379
 6822W        W10566   9.371   2.874   9.231 -0.2949  0.0154 -0.1000
 6823W        W10567   6.818   4.552   1.701 -0.0808  0.0017  0.2155
 6824W        W10568   8.393   9.427   0.306 -0.2352 -0.0205 -0.2307
 6825W        W10569   2.506   1.017   5.032 -0.1798 -0.1607  0.0100
 6826W        W10570   9.651   0.472  10.148  0.1854 -0.0639 -0.1076
 6827W        W10571   3.400   8.236  11.366  0.1542  0.1893  0.0166
 6828W        W10572   1.234   8.413   0.854 -0.4139 -0.2096  0.3179
 6829W        W10573   8.518   3.789   2.028  0.1120  0.1956  0.0577
 6830W        W10574   4.090   9.990   1.640 -0.0573  0.1519 -0.1264
 6831W        W10575   5.504   6.006  10.400  0.0122  0.3653 -0.2266
 6832W        W10576   7.779   3.206   3.555 -0.1499  0.1928 -0.1061
 6833W        W10577   4.052   0.325   8.728 -0.0346 -0.0231  0.3502
 6834W        W10578   5.723   8.763   8.525  0.0574 -0.2611  0.1513
 6835W        W10579   7.424   3.685   2.634  0.2747  0.1744 -0.0219
 6836W        W10580   0.722   1.409   2.397 -0.0419  0.0605 -0.1197
 6837W        W10581   9.631   0.000   4.037 -0.0171  0.1484 -0.0262
 6838W        W10582   7.673   9.066   2.991 -0.1248 -0.1964  0.0416
 6839W        W10583   4.545   4.412   2.108  0.1288  0.1050 -0.4240
 6840W        W10584   5.204   8.572  11.418  0.1659 -0.0057 -0.0616
 6841W        W10585   4.553   7.301  11.926  0.1542  0.1024 -0.2547
 6842W        W10586   8.547   7.475   9.709  0.2369  0.1507  0.2171
 6843W        W10587   5.898   3.204  11.043 -0.1267 -0.0123 -0.1506
 6844W        W10588   3.062   4.025   0.792 -0.2414  0.2162  0.2296
 6845W        W10589   2.299   4.651   3.354  0.0803 -0.1447 -0.0984
 6846W        W10590   9.353   0.136  10.445 -0.1108  0.2529  0.5704
 6847W        W10591   2.060   8.435   0.995  0.3118 -0.0730 -0.1929
 6848W        W10592   9.390   9.230  10.153  0.1124 -0.0019 -0.1159
 6849W        W10593   4.036   3.548  10.382 -0.0662  0.3824 -0.4018
 6850W        W10594   7.067   9.429   0.070 -0.0095  0.2056 -0.1929
 6851W        W10595   4.771   4.018   1.418 -0.1480  0.0728  0.2373
 6852W        W10596   7.989   8.207   0.077  0.1894  0.1119  0.3326
 6853W        W10597   3.900   7.338   1.706  0.2039 -0.0674  0.2016
 6854W        W10598   6.831   6.404  11.360  0.0497 -0.1978 -0.0855
 6855W        W10599   4.294   8.152  10.861 -0.0030 -0.1251 -0.1471
 6856W        W10600   1.719   7.554  12.459  0.0497  0.1492 -0.1332
 6857W        W10601   6.296   8.550   9.146  0.1957 -0.3428  0.0842
 6858W        W10602   0.842   2.721   1.645  0.0768  0.1654  0.1178
 6859W        W10603   0.002   6.033  11.685 -0.2171  0.2645  0.1791
 6860W        W10604   1.396   2.439   8.314 -0.1937  0.1510  0.0874
 6861W        W10605   3.140   0.878  11.406 -0.1165  0.5185  0.2161
 6862W        W10606   6.821   7.623   0.403 -0.0574 -0.1382  0.0172
 6863W        W10607   4.784   0.176   2.408  0.0717 -0.2624 -0.2268
 6864W        W10608   4.563   3.901   1.993 -0.1140 -0.0264 -0.1410
 6865W        W10609   9.135   8.637   1.394 -0.2933 -0.0734 -0.2760
 6866W        W10610   4.889   9.819  11.292 -0.0685  0.0216  0.0105
 6867W        W10611   1.213   4.399   1.388  0.0198 -0.3419  0.1838
 6868W        W10612   4.171   3.201  10.025  0.0634 -0.1073  0.2865
 6869W        W10613   1.961   5.663   2.048 -0.0808  0.0978 -0.0274
 6870W        W10614   0.235   0.615   9.544 -0.5536  0.0402  0.3301
 6871W        W10615   6.825   6.332   0.169  0.1014 -0.2051 -0.0509
 6872W        W10616   7.409   8.419  11.683  0.2288  0.0926 -0.1224
 6873W        W10617   1.450   5.454   9.312  0.2971 -0.1569  0.1204
 6874W        W10618   7.235   8.437  11.143  0.0537 -0.1845  0.0775
 6875W        W10619   0.591   2.901   8.709 -0.1956 -0.0928 -0.0890
 6876W        W10620   2.908   4.873   0.837 -0.3592 -0.0810 -0.0702
 6877W        W10621   9.260   9.074  12.408 -0.0289  0.0041 -0.1866
 6878W        W10622   7.214   9.211   9.835  0.0340  0.4166  0.0031
 6879W        W10623   5.535   1.745   1.974 -0.0293 -0.1838  0.5642
 6880W        W10624   2.946   0.489   2.642  0.0020  0.2468  0.1356
 6881W        W10625   4.112   0.228   1.124  0.3034 -0.1727 -0.1094
 6882W        W10626   5.110   3.457   9.489  0.1368  0.3115 -0.0907
 6883W        W10627   6.867   2.910   3.541 -0.2885  0.0522 -0.0708
 6884W        W10628   8.111   8.926   2.784 -0.3257  0.0480 -0.1438
 6885W        W10629   0.067   2.170   9.690  0.3223  0.0822 -0.1738
 6886W        W10630   5.020   3.018   3.832  0.0678  0.0964  0.0865
 6887W        W10631   1.302   5.704   2.839  0.2388 -0.3118 -0.1855
 6888W        W10632   7.761   0.898  12.118  0.2156 -0.3454  0.0099
 6889W        W10633   1.485   8.508   1.432  0.3032 -0.1726  0.0354
 6890W        W10634   5.781   0.632   1.009 -0.0523  0.0388  0.1816
 6891W        W10635   9.358   0.401  10.928 -0.0371 -0.1615  0.0587
 6892W        W10636   5.073   5.635  10.880  0.0735  0.1245 -0.0213
 6893W        W10637   3.589   1.978   3.576 -0.0900 -0.0318 -0.0675
 6894W        W10638   2.303   2.099   0.910  0.0267  0.2276  0.0515
 6895W        W10639   8.632   2.923   0.664 -0.2821 -0.1765 -0.1154
 6896W        W10640   8.948   9.204   3.210 -0.1396  0.2367 -0.1921
 6897W        W10641   0.908   5.411   0.956  0.0102 -0.2969  0.2562
 6898W        W10642   4.192   2.905   2.022  0.0081  0.1319 -0.1001
 6899W        W10643   7.603   4.525   1.493 -0.3867  0.0859  0.0234
 6900W        W10644   6.438   6.286   1.977 -0.4540  0.0095 -0.0050
 6901W        W10645   8.517   7.564   3.343  0.1778 -0.0881 -0.3256
 6902W        W10646   6.051   9.275  11.095 -0.0852  0.2380 -0.0585
 6903W        W10647   0.834   1.934   9.069  0.1828 -0.0453  0.0158
 6904W        W10648   1.008   3.206  10.387 -0.0766 -0.3749 -0.0069
 6905W        W10649   5.358   0.131   3.869  0.1776 -0.3293 -0.1741
 6906W        W10650   4.330   4.675   8.739 -0.0997 -0.0548  0.0685
 6907W        W10651   8.144   1.053   3.522  0.0427  0.1757  0.1877
 6908W        W10652   1.688   0.809   4.520 -0.3156  0.1690  0.2051
 6909W        W10653   5.047   4.061   9.216 -0.1583  0.2506 -0.3267
 6910W        W10654   0.962   7.693  10.571  0.1481 -0.0694  0.1379
 6911W        W10655   0.881   0.918  11.881 -0.3191  0.4630 -0.4205
 6912W        W10656   0.743   4.165   4.498 -0.1507  0.1013 -0.2747
 6913W        W10657   0.815   3.255   9.871  0.2287 -0.1231  0.1616
 6914W        W10658   5.400   9.442  10.605 -0.0975  0.1798  0.0140
 6915W        W10659   3.110   9.111   1.999  0.0551 -0.0304 -0.2032
 6916W        W10660   2.515   3.528   3.607 -0.0936  0.1181 -0.1162
 6917W        W10661   6.909   2.244  11.210 -0.0893  0.3365 -0.0740
 6918W        W10662   8.925   2.912   1.987 -0.3941  0.0932 -0.0171
 6919W        W10663   8.773   5.206  10.331  0.0865 -0.1480 -0.0022
 6920W        W10664   1.390   0.984   3.324 -0.1634 -0.0019 -0.2253
 6921W        W10665   1.251   2.704  12.055  0.2423 -0.3981 -0.0550
 6922W        W10666   5.387   1.642  10.815 -0.3416 -0.2422  0.1928
 6923W        W10667   8.958   4.043  11.884 -0.2720  0.2569 -0.1547
 6924W        W10668   9.789   7.733   9.574 -0.1336  0.0113 -0.0474
 6925W        W10669   6.181   7.972   3.087 -0.1747 -0.1132 -0.3704
 6926W        W10670   6.624   9.821   2.187  0.1503 -0.1267  0.0287
 6927W        W10671   2.602   0.983  11.422 -0.2267  0.0642  0.2382
 6928W        W10672   6.700   4.950   9.740  0.1649  0.0884 -0.2111
 6929W        W10673   8.881   8.825   0.954 -0.0435 -0.0605  0.1034
 6930W        W10674   6.419   2.348  11.026 -0.3362 -0.1112 -0.1761
 6931W        W10675   1.356   1.459   0.631 -0.0381  0.2341 -0.0927
 6932W        W10676   2.913   2.418  11.306 -0.0463 -0.0514 -0.1629
 6933W        W10677   2.576   0.791   0.210 -0.0221  0.1592  0.0301
 6934W        W10678   4.193   0.343  11.387 -0.1077  0.3043  0.0417
 6935W        W10679   2.705   2.383   0.285 -0.0329 -0.1932 -0.2276
 6936W        W10680   2.773   4.533   0.492  0.3542  0.0251  0.0667
 6937W        W10681   2.495   0.320  10.033  0.1419  0.4572 -0.0721
 6938W        W10682   6.629   5.178   0.626 -0.0935 -0.2531 -0.2598
 6939W        W10683   7.177   3.757   8.804  0.0712  0.1873 -0.0639
 6940W        W10684   7.430   4.168   1.163 -0.0421 -0.0485 -0.0387
 6941W        W10685   5.330   9.900  10.325  0.1434  0.3130  0.3937
 6942W        W10686   6.410   6.950  12.350 -0.0011  0.2013  0.2473
 6943W        W10687   9.351   3.899   9.402  0.0181  0.2557 -0.1859
 6944W        W10688   7.506   9.654   9.683 -0.0767  0.2684  0.2606
 6945W        W10689   8.434   7.233  11.872  0.0695  0.1096 -0.1013
 6946W        W10690   5.027   2.671   9.148  0.1228  0.1295 -0.1711
 6947W        W10691   1.519   2.108   3.225 -0.0136  0.1875 -0.0991
 6948W        W10692   9.161   8.775   4.037  0.5557  0.1308 -0.3082
 6949W        W10693   8.067   8.164   0.905  0.0203  0.2757  0.3073
 6950W        W10694   9.064   7.010   0.250  0.0745  0.0864  0.0899
 6951W        W10695   1.573   1.803   0.214 -0.1854  0.1956 -0.2130
 6952W        W10696   4.248   8.820   3.917 -0.2907 -0.0191  0.1692
 6953W        W10697   1.217   0.037   4.158 -0.1450 -0.1781 -0.0479
 6954W        W10698   5.515   5.457   9.849  0.4591  0.2377 -0.2857
 6955W        W10699   0.253   9.372   1.251  0.0289 -0.0678 -0.1964
 6956W        W10700   6.231   9.247   2.256  0.0990  0.5636  0.2210
 6957W        W10701   1.049   3.098  12.235  0.0982 -0.0512  0.6108
 6958W        W10702   3.564   6.427   0.984  0.2705  0.1943 -0.0095
 6959W        W10703   3.985   7.250  12.686 -0.1056 -0.1738 -0.2189
 6960W        W10704   9.088   0.001   0.012  0.1490  0.1592  0.6312
 6961W        W10705   7.056   2.488   0.318 -0.0541 -0.1428 -0.2965
 6962W        W10706   9.342   0.699  10.504  0.0184  0.2039  0.0315
 6963W        W10707   6.705   4.045  12.453 -0.0961 -0.2806  0.2190
 6964W        W10708   3.766   0.939   9.133  0.0051  0.0774 -0.2330
 6965W        W10709   1.260   2.194   9.139  0.1346  0.1655  0.3324
 6966W        W10710   6.611   3.795   2.795 -0.1450  0.2862 -0.3207
 6967W        W10711   3.657   8.556   9.450  0.0904  0.0812 -0.1220
 6968W        W10712   9.300   1.944   4.151  0.2342 -0.2574 -0.4393
 6969W        W10713   1.414   5.175   0.052  0.1684  0.1033  0.1277
 6970W        W10714   2.655   8.422   9.896  0.1689 -0.0059  0.1268
 6971W        W10715   1.983   5.859   4.860  0.1649 -0.0035 -0.2653
 6972W        W10716   6.816   9.636  11.481 -0.1548  0.3019 -0.0306
 6973W        W10717   6.696   3.166  10.696  0.1481  0.1728  0.1260
 6974W        W10718   0.405   3.639   2.870  0.2658  0.1077  0.3281
 6975W        W10719   4.685   9.891  11.715 -0.1054  0.0605 -0.0408
 6976W        W10720   7.866   7.866   0.500 -0.2525 -0.0714 -0.2152
 6977W        W10721   0.514   8.554  12.040 -0.0658  0.0953  0.1068
 6978W        W10722   3.042   3.862   9.710  0.2451 -0.1053 -0.1350
 6979W        W10723   5.984   4.994   9.595  0.0289 -0.1172  0.0846
 6980W        W10724   8.533   1.365  11.490  0.0307  0.2754 -0.1892
 6981W        W10725   1.947   5.543  12.065  0.0313  0.0996 -0.1448
 6982W        W10726   1.938   3.640   0.255  0.6011  0.0849 -0.0824
 6983W        W10727   6.521   9.356   9.545  0.1630 -0.1258  0.0989
 6984W        W10728   6.467   9.219   0.142 -0.3011  0.3166 -0.0562
 6985W        W10729   7.000   7.590   2.866 -0.0668 -0.2608 -0.0021
 6986W        W10730   7.814   3.424   2.410 -0.0535 -0.1829 -0.1816
 6987W        W10731   2.817   0.313   3.672 -0.2841  0.2658  0.0815
 6988W        W10732   6.039   9.186   9.678  0.0611  0.0898 -0.0230
 6989W        W10733   3.850   8.280   2.729 -0.0046 -0.1417 -0.3271
 6990W        W10734   2.538   1.506   1.182  0.2515 -0.0066  0.0933
 6991W        W10735   2.017   6.595   2.887  0.0586  0.3814  0.0883
 6992W        W10736   4.200   2.323  12.624 -0.0331 -0.2175  0.1525
 6993W        W10737   3.102   1.352   9.860  0.0447  0.0585  0.1149
 6994W        W10738   7.704   6.046  10.897  0.0435 -0.1149  0.1305
 6995W        W10739   1.128   8.640   2.723 -0.1622  0.1633  0.1086
 6996W        W10740   8.656   1.396  10.547  0.1870 -0.0749  0.0454
 6997W        W10741   2.054   7.122   3.023 -0.1816  0.0770 -0.1624
 6998W        W10742   8.642   1.329   1.963  0.2407 -0.3183  0.1144
 6999W        W10743   9.082   9.155   2.472  0.3543 -0.0239  0.0157
 7000W        W10744   3.724   1.412   7.549  0.0157  0.1524 -0.0503
 7001W        W10745   8.029   0.670   0.289 -0.1762  0.0310 -0.1385
 7002W        W10746   6.837   1.785   1.736 -0.1335  0.5865  0.1177
 7003W        W10747   2.561   0.193   9.533 -0.0067 -0.0135 -0.0803
 7004W        W10748   1.394   5.239  11.216 -0.2012  0.1929  0.0903
 7005W        W10749   0.531   7.233   4.040 -0.0453 -0.1665 -0.1734
 7006W        W10750   7.002   6.826   1.123 -0.2012 -0.0941  0.0924
 7007W        W10751   7.660   9.309  12.100 -0.2652  0.1454  0.0515
 7008W        W10752   1.514   6.924  10.271 -0.1481 -0.3580  0.1158
 7009W        W10753   4.870   2.037   1.308  0.1672 -0.1402 -0.1303
 7010W        W10754   4.081   5.028   5.033 -0.0979 -0.3302 -0.1150
 7011W        W10755   2.583   9.022   2.320  0.3498 -0.2367 -0.0692
 7012W        W10756   9.287   0.880   9.929 -0.0709  0.0639 -0.0479
 7013W        W10757   2.433   4.755   9.063  0.1632  0.1570  0.0817
 7014W        W10758   5.282   0.031   8.957 -0.0959 -0.0184  0.0923
 7015W        W10759   8.017   9.333  11.146  0.0021  0.0434  0.4173
 7016W        W10760   9.453   3.553   1.864  0.1190 -0.3725  0.2932
 7017W        W10761   1.947   3.139   2.083 -0.2895 -0.0809 -0.0348
 7018W        W10762   2.303   3.454   2.331 -0.2075 -0.0183  0.1148
 7019W        W10763   7.055   9.596   1.048  0.3421  0.2346  0.0842
 7020W        W10764   2.896   8.874   9.820 -0.1382 -0.4781 -0.2030
 7021W        W10765   8.674   7.460   0.164 -0.1395  0.0518  0.1091
 7022W        W10766   2.422   6.988   1.958 -0.0138 -0.3530  0.0576
 7023W        W10767   0.616   0.243   2.800 -0.2823 -0.3100 -0.6938
 7024W        W10768   0.666   4.710  11.409 -0.2042  0.2339  0.0153
 7025W        W10769   5.983   4.936   8.637  0.0092  0.1345 -0.0517
 7026W        W10770   5.693   7.836   2.251  0.1562  0.0598  0.0907
 7027W        W10771   4.249   6.699   4.754  0.1908  0.0139  0.0177
 7028W        W10772   1.592   6.699   1.014  0.3086  0.2929  0.1346
 7029W        W10773   3.302   2.463   8.517  0.0257  0.2510  0.1954
 7030W        W10774   3.698   9.514  11.846 -0.0719  0.1951 -0.0589
 7031W        W10775   9.020   5.390  10.740 -0.1027 -0.1013 -0.1953
 7032W        W10776   0.855   4.982  12.376  0.1638  0.2800  0.1960
 7033W        W10777   9.385   4.446   8.522 -0.1463  0.2470  0.1520
 7034W        W10778   9.805   8.491   8.609  0.1617 -0.2294  0.1240
 7035W        W10779   2.143   1.140   9.774  0.0271 -0.3842 -0.2975
 7036W        W10780   2.556   9.589  12.563 -0.0733 -0.2005 -0.0317
 7037W        W10781   1.925   9.118  11.368 -0.0196  0.1351 -0.1885
 7038W        W10782   0.388   4.554   3.623 -0.1655 -0.0237  0.1889
 7039W        W10783   5.289   9.272   9.227  0.0771 -0.0621 -0.5289
 7040W        W10784   5.677   9.010   4.216 -0.2918 -0.3507  0.1449
 7041W        W10785   4.327   8.820   9.950 -0.0276 -0.1108 -0.2569
 7042W        W10786   6.074   5.607  12.385 -0.3297 -0.1242  0.2345
 7043W        W10787   7.337   5.534  11.674  0.1172  0.1117  0.1951
 7044W        W10788   7.851   0.191  11.170 -0.1711  0.1547 -0.0121
 7045W        W10789   0.552   4.786   9.117  0.2603 -0.1425 -0.1138
 7046W        W10790   4.310   1.587  12.609 -0.1269  0.0978  0.1254
 7047W        W10791   2.896   6.345  10.859 -0.2452  0.2327  0.2257
 7048W        W10792   2.386   3.163   8.991 -0.1439 -0.5062  0.0702
 7049W        W10793   8.302   8.647   9.092 -0.3540  0.4359 -0.1557
 7050W        W10794   4.688   0.561   9.929  0.0836 -0.4488 -0.0778
 7051W        W10795   2.167   3.683   9.875  0.0004  0.2319 -0.2848
 7052W        W10796   7.111   5.003   0.564  0.0195  0.1622  0.1865
 7053W        W10797   8.898   8.092   2.602 -0.1907 -0.0554 -0.0348
 7054W        W10798   4.955   1.376   8.391  0.0463  0.2261 -0.4360
 7055W        W10799   8.242   0.530   8.175 -0.1174 -0.1087  0.1399
 7056W        W10800   1.355   0.063   2.191 -0.1465  0.3064 -0.0212
 7057W        W10801   7.631   1.394   4.423  0.0746 -0.1413  0.0558
 7058W        W10802   3.496   3.360   2.666 -0.1556  0.2619 -0.1354
 7059W        W10803   1.843   0.888   2.147 -0.1851 -0.0048 -0.0853
 7060W        W10804   2.884   6.392  10.355 -0.5577  0.1372  0.0560
 7061W        W10805   3.525   4.692  10.508 -0.0194  0.1756  0.0920
 7062W        W10806   2.677   2.845  11.072  0.1788 -0.0593  0.0376
 7063W        W10807   8.915   7.943   2.086  0.0012 -0.3640  0.2751
 7064W        W10808   9.443   1.789   3.535  0.1187 -0.0448  0.1623
 7065W        W10809   5.829   0.039   3.366  0.0220  0.1199 -0.1551
 7066W        W10810   5.087   2.687   2.229  0.1672  0.0187 -0.1406
 7067W        W10811   2.145   5.855   2.492  0.3054 -0.5313 -0.0852
 7068W        W10812   1.531   9.949   8.835 -0.1426  0.3019 -0.0878
 7069W        W10813   9.804   5.247   0.619 -0.0897  0.1524  0.3724
 7070W        W10814   2.110   3.378   9.473  0.2494 -0.3403 -0.0028
 7071W        W10815   3.364   0.917   0.822  0.4675  0.1487  0.1651
 7072W        W10816   6.922   6.262   2.997 -0.3592  0.2168 -0.1208
 7073W        W10817   1.874   6.919   1.527 -0.1280 -0.4206  0.1152
 7074W        W10818   5.221   3.687   1.433 -0.1659 -0.1254 -0.1848
 7075W        W10819   7.973   9.067   8.978  0.0735 -0.0373 -0.1145
 7076W        W10820   8.574   8.813   9.481  0.1964  0.4377 -0.1274
 7077W        W10821   9.224   2.601  11.050  0.1379 -0.0237 -0.1990
 7078W        W10822   6.795   7.899   9.833 -0.5143 -0.0110  0.2109
 7079W        W10823   5.606   8.993  11.812  0.1838 -0.1299  0.1986
 7080W        W10824   9.600   9.415   2.451 -0.0098 -0.3085  0.0680
 7081W        W10825   2.112   3.430   2.794  0.0325  0.1343  0.0732
 7082W        W10826   1.093   8.933   8.109  0.0695 -0.1576  0.2004
 7083W        W10827   4.442   5.667   4.003  0.1636  0.1282  0.1316
 7084W        W10828   7.292   6.378   1.157  0.2692 -0.0237  0.0613
 7085W        W10829   6.719   8.399   0.461 -0.1768  0.2516  0.0903
 7086W        W10830   7.402   4.692  10.291 -0.1594  0.1547 -0.2240
 7087W        W10831   2.456   9.223   9.128  0.0259 -0.2420  0.0635
 7088W        W10832   6.921   1.815  11.594  0.0674 -0.0570 -0.0431
 7089W        W10833   0.414   2.535   0.568  0.1512  0.2511 -0.1934
 7090W        W10834   0.384   2.240   2.323 -0.2818 -0.0662 -0.1645
 7091W        W10835   6.100   4.772  12.402 -0.2487  0.1846  0.2135
 7092W        W10836   7.859   4.635   1.095  0.1449 -0.0025  0.0519
 7093W        W10837   2.459   5.494  10.776  0.0998  0.0534  0.0522
 7094W        W10838   9.257   9.775  11.312  0.2676  0.2520 -0.1037
 7095W        W10839   4.445   4.308  10.850  0.2226  0.3359  0.0203
 7096W        W10840   9.836   6.569   0.811  0.2762  0.2114  0.0359
 7097W        W10841   0.269   4.156   3.048 -0.0832 -0.0556 -0.0096
 7098W        W10842   4.225   3.276  11.461 -0.1253  0.0304  0.0861
 7099W        W10843   2.606   8.136   0.704  0.0674  0.2212 -0.4886
 7100W        W10844   9.898   1.107   0.911 -0.4617 -0.4157  0.2031
 7101W        W10845   3.318   7.864  12.508  0.3009  0.1891 -0.0099
 7102W        W10846   2.513   7.017   0.923  0.0330  0.2445  0.1569
 7103W        W10847   1.551   9.648   8.408  0.2231  0.1914 -0.1685
 7104W        W10848   0.682   2.273   1.949  0.0036 -0.2354  0.2541
 7105W        W10849   7.163   2.421  12.538  0.1429  0.1567  0.3173
 7106W        W10850   6.900   0.679   2.055  0.1942  0.2933 -0.0656
 7107W        W10851   1.260   1.526   2.308  0.2671 -0.3205 -0.0813
 7108W        W10852   2.240   1.451   0.753 -0.1157  0.1401 -0.0454
 7109W        W10853   5.439   0.173  12.533  0.1739 -0.3025 -0.1241
 7110W        W10854   5.000   9.818  10.700 -0.0018  0.1682 -0.1682
 7111W        W10855   4.916   1.182  11.228  0.0662  0.0178  0.2290
 7112W        W10856   6.119   0.424   1.326  0.0617  0.0188  0.2539
 7113W        W10857   9.937   4.762  12.382 -0.1856  0.1035  0.0592
 7114W        W10858   4.369   6.034   0.039 -0.0923 -0.0075 -0.2141
 7115W        W10859   2.736   7.271   8.771 -0.1688 -0.2210 -0.0491
 7116W        W10860   3.051   2.697   2.825 -0.1231  0.0397 -0.0858
 7117W        W10861   6.236   8.648   1.515  0.1426 -0.1517  0.0657
 7118W        W10862   4.675   0.646   3.314  0.3119  0.0412 -0.3250
 7119W        W10863   1.959   4.275   3.570  0.4596  0.0688 -0.0171
 7120W        W10864   8.752   2.245   1.341 -0.2516 -0.1131 -0.3366
 7121W        W10865   3.579   2.057   4.142  0.0208 -0.1904 -0.0864
 7122W        W10866   1.217   3.795  11.209  0.1278  0.0987 -0.0953
 7123W        W10867   0.210   9.246   4.348  0.2367 -0.3218  0.0740
 7124W        W10868   8.568   3.235   2.184 -0.3187 -0.2075 -0.0658
 7125W        W10869   3.191   8.167  11.873  0.0106  0.1246  0.1165
 7126W        W10870   9.380   4.841   1.671  0.2410  0.1010 -0.0029
 7127W        W10871   7.987   7.698   9.893 -0.0661  0.1617  0.3283
 7128W        W10872   0.185   5.914  12.174  0.2210 -0.0274  0.1016
 7129W        W10873   0.358   1.822  11.875  0.0209 -0.2303  0.3638
 7130W        W10874   2.044   6.733   0.678  0.1083  0.0518  0.2369
 7131W        W10875   3.994   8.560  12.067  0.0699  0.0178  0.2284
 7132W        W10876   5.503   8.984  10.858  0.0468  0.0142 -0.2982
 7133W        W10877   3.272   0.442  12.644 -0.1724  0.0255 -0.0110
 7134W        W10878   4.082   1.722   4.109  0.0327  0.1217  0.0582
 7135W        W10879   7.474   5.995  12.014 -0.0406 -0.1043  0.1677
 7136W        W10880   6.742   7.808   3.619  0.1916 -0.1031  0.1006
 7137W        W10881   5.600   3.461   1.042 -0.1720 -0.1642 -0.1340
 7138W        W10882   4.171   6.671   1.235 -0.1081  0.1724 -0.0437
 7139W        W10883   1.384   3.825   2.443  0.1148  0.0539  0.1730
 7140W        W10884   1.633   4.124   0.399  0.2728  0.1214 -0.0479
 7141W        W10885   7.271   2.193  12.097 -0.1560  0.1520 -0.0707
 7142W        W10886   7.459   7.096  11.374  0.2235 -0.0344 -0.3287
 7143W        W10887   4.324   3.698  11.192  0.0700 -0.1528 -0.0233
 7144W        W10888   2.659   3.677   8.320 -0.1031 -0.0873  0.1171
 7145W        W10889   6.031   2.037   4.256  0.1001  0.0132  0.0541
 7146W        W10890   4.121   7.301   4.149 -0.0798 -0.1008  0.1308
 7147W        W10891   3.621   3.076  10.877  0.3855  0.4049 -0.0993
 7148W        W10892   6.704   2.921  12.165  0.1774  0.1409 -0.1755
 7149W        W10893   2.010   2.575  10.021 -0.3777 -0.2034  0.0815
 7150W        W10894   7.972   0.633  11.440  0.0288 -0.0252 -0.1161
 7151W        W10895   0.977   3.293   0.016  0.1395 -0.3487  0.0756
 7152W        W10896   4.259   1.971  12.168  0.3993 -0.3219 -0.1273
 7153W        W10897   6.143   5.887   1.893 -0.1649  0.1401 -0.1830
 7154W        W10898   1.858   5.914  12.489  0.0396 -0.1999  0.1360
 7155W        W10899   6.674   3.026   1.393 -0.0810 -0.0926  0.0670
 7156W        W10900   0.292   5.945   2.669  0.2295  0.0017  0.1032
 7157W        W10901   2.068   4.648   1.578  0.0401  0.0629 -0.2576
 7158W        W10902   3.454   6.430   0.087 -0.0208 -0.1226 -0.0392
 7159W        W10903   2.412   2.226  12.063 -0.0618 -0.1858 -0.3078
 7160W        W10904   5.991   2.115  12.667  0.3168 -0.0780 -0.1747
 7161W        W10905   4.479   8.657   9.153 -0.0801  0.2547 -0.4687
 7162W        W10906   6.736   9.171   3.128 -0.1278 -0.0821  0.0294
 7163W        W10907   5.752   3.022  12.316 -0.4204  0.1246  0.1064
 7164W        W10908   0.827   0.892   2.668 -0.0686  0.1432  0.2952
 7165W        W10909   4.956   6.071  10.635 -0.0702  0.0182  0.2015
 7166W        W10910   3.200   2.855   8.056 -0.3583  0.0596  0.1063
 7167W        W10911   6.961   5.990   0.557  0.2504 -0.1592  0.2871
 7168W        W10912   9.592   3.323   1.318  0.0430 -0.2599 -0.1511
 7169W        W10913   1.112   9.540   2.151 -0.0101  0.0629 -0.0340
 7170W        W10914   8.914   3.089   3.078 -0.2101 -0.0010  0.2607
 7171W        W10915   3.077   6.680  12.269  0.0453 -0.0954 -0.5071
 7172W        W10916   7.224   4.926   3.515 -0.1489 -0.0909 -0.1954
 7173W        W10917   9.033   6.578   9.242  0.0443 -0.1188 -0.0067
 7174W        W10918   5.841   5.397   1.986  0.0414 -0.0301  0.0216
 7175W        W10919   2.670   9.860   1.509 -0.0091  0.1084  0.3433
 7176W        W10920   4.443   9.122   9.504 -0.1158  0.0759  0.0794
 7177W        W10921   1.065   1.962  11.234  0.2637 -0.1650 -0.1355
 7178W        W10922   4.814   1.331   2.398  0.0770 -0.1956  0.0159
 7179W        W10923   7.040   1.364   0.763 -0.0635  0.4067 -0.1467
 7180W        W10924   5.550   3.981  12.418 -0.2249  0.2882 -0.0089
 7181W        W10925   7.733   8.190   3.853 -0.2589  0.0273 -0.0216
 7182W        W10926   5.653   8.203  10.388  0.1624 -0.1408 -0.2307
 7183W        W10927   2.879   5.394   1.569  0.3382 -0.3179  0.1146
 7184W        W10928   5.891   1.734   4.721  0.2498  0.0710  0.1575
 7185W        W10929   0.373   7.945   0.034 -0.0069  0.3220 -0.1666
 7186W        W10930   6.649   7.888  11.872  0.3147  0.1485 -0.1415
 7187W        W10931   0.723   2.161   0.229 -0.3308  0.0549  0.0924
 7188W        W10932   4.701   3.863  11.468  0.3930 -0.0778 -0.0885
 7189W        W10933   3.371   8.759  11.296 -0.0227 -0.0545 -0.1805
 7190W        W10934   2.143   6.054  10.186 -0.0834  0.2079 -0.2391
 7191W        W10935   3.709   9.254   2.758  0.1863  0.2303  0.1288
 7192W        W10936   9.298   9.808   8.941 -0.0099 -0.1388  0.2835
 7193W        W10937   6.843   2.626  10.869  0.0140  0.1997 -0.1155
 7194W        W10938   8.228   8.789   9.865  0.0708 -0.0918  0.2771
 7195W        W10939   3.362   6.874  11.441  0.0560 -0.0475 -0.4455
 7196W        W10940   0.638   6.764   1.057  0.2031 -0.3022  0.0604
 7197W        W10941   1.103   1.758  10.766 -0.2339  0.1930 -0.0955
 7198W        W10942   9.008   9.282   1.988 -0.2088 -0.1194 -0.1554
 7199W        W10943   8.722   9.709  11.292 -0.1264  0.1168  0.3268
 7200W        W10944   9.949   9.120   9.675 -0.0922  0.0185 -0.0735
 7201W        W10945   2.563   1.801   0.588  0.0528 -0.0646 -0.1620
 7202W        W10946   4.219   3.380   8.305 -0.2453  0.0615 -0.1512
 7203W        W10947   6.278   3.936   4.347 -0.0055 -0.1570  0.0548
 7204W        W10948   0.425   4.065   2.433  0.2021  0.2446 -0.1056
 7205W        W10949   1.796   6.321   1.414  0.2661 -0.0082 -0.2141
 7206W        W10950   6.873   0.145   8.785 -0.2046  0.0713  0.0604
 7207W        W10951   8.380   1.937   1.539 -0.0495  0.2135 -0.1486
 7208W        W10952   5.801   1.488  11.277 -0.0918 -0.2864 -0.2199
 7209W        W10953   5.233   3.859   2.579  0.0478 -0.0778 -0.0955
 7210W        W10954   6.061   9.946   4.309 -0.2755  0.0024 -0.1908
 7211W        W10955   7.648   1.836   9.851  0.1838 -0.2303 -0.1297
 7212W        W10956   4.942   6.674   9.938 -0.0234 -0.4612 -0.0051
 7213W        W10957   3.609   1.203  10.017 -0.1981 -0.0320 -0.0197
 7214W        W10958   2.361   5.551   9.194  0.2276 -0.0312  0.0608
 7215W        W10959   3.963   6.304  10.935  0.1652  0.1806 -0.0200
 7216W        W10960   7.397   8.125  12.606 -0.5081 -0.0567 -0.1917
 7217W        W10961   5.635   8.708   2.061  0.1863  0.0430  0.2975
 7218W        W10962   5.784   6.675   3.048  0.1472 -0.0231 -0.0606
 7219W        W10963   8.593   1.471   3.711  0.1953  0.2018  0.2707
 7220W        W10964   6.925   1.182   2.226 -0.3033  0.0300  0.0212
 7221W        W10965   6.659   4.807   1.319  0.1256  0.1092  0.2040
 7222W        W10966   7.373   1.730   2.884  0.0861 -0.1851  0.2425
 7223W        W10967   9.820   9.217  12.393 -0.0968  0.0401 -0.3338
 7224W        W10968   1.628   6.632  10.637  0.1838 -0.1390 -0.1844
 7225W        W10969   5.506   4.261   2.784 -0.1814  0.1071 -0.0181
 7226W        W10970   3.542   7.765  11.194  0.1212  0.0975  0.5792
 7227W        W10971   8.697   8.979   2.199  0.1378 -0.2895 -0.0650
 7228W        W10972   0.645   9.507   3.408  0.1336  0.1146  0.0457
 7229W        W10973   7.646   0.308  11.969 -0.2494 -0.0669 -0.3129
 7230ION    NA+10974   8.970   6.401   1.953  0.0367 -0.2331 -0.1881
 7231ION    NA+10975   3.903   8.811   2.601 -0.0520  0.0871 -0.2052
 7232ION    NA+10976   4.156   0.960  11.734  0.1481 -0.1056  0.1967
 7233ION    NA+10977   0.245   1.442  12.249  0.1165 -0.1409  0.0254
 7234ION    NA+10978   1.693   1.683   4.943 -0.3577 -0.2092 -0.1664
 7235ION    NA+10979   4.347   9.876  12.609 -0.2841  0.0036  0.0470
 7236ION    NA+10980   9.285   1.746  11.749 -0.1389 -0.0470 -0.0500
 7237ION    NA+10981   5.650   8.294   0.310 -0.3365 -0.4152  0.0764
 7238ION    NA+10982   3.385   4.511   1.831  0.1273  0.3419 -0.0869
 7239ION    NA+10983   1.976   7.676   4.579 -0.2225  0.1584  0.1005
 7240ION    NA+10984   8.444   9.161   9.037  0.1375 -0.0268 -0.1447
 7241ION    NA+10985   9.954   2.496   4.794 -0.0589  0.0623 -0.0952
 7242ION    NA+10986   0.631   5.528   0.532  0.0604  0.0730  0.0504
 7243ION    NA+10987   4.408   8.072   8.331  0.0970 -0.0666 -0.0209
 7244ION    NA+10988   9.773   0.786   9.765  0.3157 -0.0501 -0.0348
 7245ION    NA+10989   4.274   0.275   8.079 -0.0288  0.1529 -0.2874
 7246ION    NA+10990   4.388   5.523   8.124 -0.0673 -0.2727 -0.0874
 7247ION    NA+10991   2.036   2.983   8.669  0.0418  0.0762 -0.1392
 7248ION    NA+10992   4.477   6.715   9.578  0.0553  0.1732 -0.0234
 7249ION    NA+10993   4.064   8.868   8.329 -0.1688 -0.1296 -0.0005
 7250ION    NA+10994   0.997   3.756   4.661 -0.0964 -0.0714 -0.0891
 7251ION    NA+10995   8.331   2.266  12.452 -0.0326 -0.1091  0.0424
 7252ION    NA+10996   3.190   9.038   1.310  0.2569 -0.1570 -0.1207
 7253ION    NA+10997   6.012   1.123   1.924  0.0474  0.2521 -0.0029
 7254ION    NA+10998   9.813   9.615   3.166  0.0028 -0.0005 -0.2265
 7255ION    NA+10999   0.755   8.985   2.015 -0.4968 -0.1255 -0.2122
 7256ION    NA+11000   5.033   0.755   4.395  0.1261  0.2728  0.2522
 7257ION    NA+11001   1.322   7.409  12.102  0.1190 -0.1537  0.0317
 7258ION    NA+11002   1.355   7.709   1.438 -0.3926 -0.0337  0.0465
 7259ION    NA+11003   5.103   0.589   9.648 -0.1124 -0.0571  0.1673
 7260ION    NA+11004   1.030   3.621  10.066 -0.0202 -0.2864 -0.3821
 7261ION    NA+11005   9.027   0.834  10.923 -0.0407 -0.0156  0.0731
 7262ION    NA+11006   1.202   8.883   2.283  0.2176 -0.0308  0.2051
 7263ION    NA+11007   7.923   3.491   0.164 -0.0020 -0.1061 -0.0203
 7264ION    NA+11008   7.359   0.921   8.383 -0.1249 -0.0647 -0.0484
 7265ION    NA+11009   7.801   8.664  11.886  0.1666  0.0282  0.1481
 7266ION    NA+11010   7.567   8.549   1.577 -0.4335 -0.2050 -0.1275
 7267ION    NA+11011   1.918   0.786   3.429 -0.3022  0.0681 -0.1159
 7268ION    NA+11012   2.723   8.511  12.240  0.0505  0.1687 -0.1015
 7269ION    NA+11013   8.926   1.941   8.803 -0.1207  0.0938 -0.3182
 7270ION    NA+11014   4.866   4.602   4.393 -0.1002  0.1731 -0.0460
 7271ION    NA+11015   7.310   1.491   3.355  0.1426 -0.0126 -0.0324
 7272ION    NA+11016   8.082   6.143  11.269 -0.0308  0.3233  0.0452
 7273ION    NA+11017   7.083   8.683  10.663  0.0524 -0.1349 -0.3758
 7274ION    NA+11018   8.336   0.793   3.138  0.0155 -0.0917 -0.0369
 7275ION    NA+11019   3.621   4.143   0.872 -0.2106  0.0256  0.1814
 7276ION    NA+11020   7.685   4.583   9.034 -0.1539 -0.2502 -0.1411
 7277ION    NA+11021   6.305   8.142   8.606 -0.0230  0.2434 -0.0014
 7278ION    NA+11022   5.641   4.141  10.880 -0.3608  0.2785 -0.0439
 7279ION    NA+11023   3.633   7.627   1.308 -0.2784  0.0025  0.1131
 7280ION    NA+11024   0.129   8.667   8.980  0.2872  0.0552  0.0838
 7281ION    NA+11025   0.037   8.986  11.153 -0.1818  0.0529  0.2586
 7282ION    NA+11026   9.790   3.941   0.463  0.3390  0.3172  0.0405
 7283ION    NA+11027   3.021   8.258   2.179 -0.0369 -0.0409  0.0532
 7284ION    NA+11028   3.002   6.181   3.358  0.3079  0.1858 -0.0817
 7285ION    NA+11029   4.756   5.215   2.186 -0.2648  0.0795 -0.1886
 7286ION    NA+11030   9.395   3.259   2.799 -0.2282 -0.1933 -0.0827
 7287ION    NA+11031   9.153   8.653  11.320 -0.1207  0.1741 -0.0148
 7288ION    NA+11032   5.749   5.200  11.556  0.2302 -0.3429  0.2282
 7289ION    NA+11033   1.175   2.738   9.881  0.0953 -0.1545 -0.1221
 7290ION    NA+11034   3.966   5.089   4.554  0.3225  0.1770 -0.0329
 7291ION    NA+11035   5.144   4.403   1.293  0.2177  0.1671  0.0987
 7292ION    NA+11036   0.875   6.003   4.315  0.0507  0.4472  0.1519
 7293ION    NA+11037   4.727   7.646   9.717  0.0452 -0.2173 -0.0190
 7294ION    NA+11038   3.005   5.895   8.415  0.0841 -0.2848 -0.2600
 7295ION    NA+11039   2.591   9.306   4.293 -0.3449  0.1580  0.0626
 7296ION    NA+11040   6.133   1.805   0.982  0.1203 -0.0012 -0.1605
 7297ION    NA+11041   6.099   3.041   0.051  0.1738 -0.1270 -0.0711
 7298ION    NA+11042   1.608   9.601   2.096  0.1394  0.2150 -0.2119
 7299ION    NA+11043   2.660   4.640  10.274 -0.3510 -0.2218  0.0207
 7300ION    NA+11044   3.615   3.550   8.352  0.0840 -0.0956  0.0369
 7301ION    NA+11045   5.062   6.377   4.297  0.0104  0.2124  0.2050
 7302ION    NA+11046   0.296   0.257   4.567  0.0815 -0.0517  0.1442
 7303ION    NA+11047   2.428   7.557   2.057 -0.1347  0.1536  0.0288
 7304ION    NA+11048   6.984   1.649   4.314  0.3005 -0.1616 -0.0819
 7305ION    NA+11049   8.094   2.329   2.430 -0.2997 -0.0302  0.0671
 7306ION    CL-11050   1.813   7.696   1.308  0.0477 -0.1950  0.0503
 7307ION    CL-11051   0.843   0.971   4.061  0.1340  0.0865 -0.0431
 7308ION    CL-11052   8.211   0.547   9.164 -0.0245  0.2054  0.2905
 7309ION    CL-11053   7.657   6.022  11.479 -0.0462  0.0162 -0.1305
 7310ION    CL-11054   8.120   4.234  10.116 -0.2602 -0.1143  0.1635
 7311ION    CL-11055   1.137   5.473   0.420  0.0737 -0.1345 -0.3025
 7312ION    CL-11056   4.751   7.910  10.149  0.2574  0.0364 -0.1533
 7313ION    CL-11057   8.903   8.507  11.791  0.3255  0.1026 -0.2893
 7314ION    CL-11058   6.336   0.604  10.347 -0.0610 -0.0026  0.2865
 7315ION    CL-11059   4.760   4.256   8.757  0.1278  0.1214 -0.3235
 7316ION    CL-11060   2.795   4.127   9.260 -0.3616  0.0896  0.2945
 7317ION    CL-11061   4.095   0.321  12.447 -0.1616 -0.0077  0.2699
 7318ION    CL-11062   7.618   0.227   8.720  0.2861  0.0502  0.2607
 7319ION    CL-11063   8.205   2.602   2.861  0.4221  0.0067  0.1191
 7320ION    CL-11064   0.495   5.630   3.431  0.1316 -0.1850  0.1995
 7321ION    CL-11065   3.929   8.410   2.223 -0.2238  0.0568  0.0610
 7322ION    CL-11066   8.106   6.392  10.846 -0.1721  0.1490  0.0797
 7323ION    CL-11067   1.281   3.246   9.918 -0.0151  0.2405 -0.1224
 7324ION    CL-11068   4.032   0.795  11.173  0.4518 -0.0745  0.2283
 7325ION    CL-11069   4.674   0.863   9.384  0.0372 -0.0826 -0.3461
 7326ION    CL-11070   0.729   8.694   2.399  0.0839 -0.1280  0.0696
 7327ION    CL-11071   3.928   5.034   1.892  0.0036 -0.3715  0.0391
 7328ION    CL-11072   3.447   2.589   4.197 -0.2810  0.0922  0.0131
 7329ION    CL-11073   7.451   8.181   1.842 -0.0793  0.3048  0.1603
 7330ION    CL-11074   4.547   2.598   9.040 -0.0400  0.1106 -0.0221
 7331ION    CL-11075   6.171   2.518   2.175  0.0464  0.2811  0.2824
 7332ION    CL-11076   0.921   7.300  11.785  0.3289  0.2740 -0.1325
 7333ION    CL-11077   1.240   9.242   1.760 -0.0649 -0.1676  0.0968
 7334ION    CL-11078   5.276   7.497   3.588 -0.1047  0.1502  0.1052
 7335ION    CL-11079   5.680   9.691   9.026  0.2515 -0.0407  0.3407
 7336ION    CL-11080   6.798   4.207   3.104 -0.3700 -0.5230 -0.1071
 7337ION    CL-11081   0.281   6.066   9.380 -0.6124 -0.4627  0.1646
 7338ION    CL-11082   2.625   6.129   3.694 -0.1021 -0.4791 -0.3950
 7339ION    CL-11083   1.511   1.147  11.440  0.0267  0.2216  0.0846
 7340ION    CL-11084   6.746   9.502  10.072  0.0831  0.0113  0.0035
 7341ION    CL-11085   3.804   7.522   3.184  0.1900 -0.1609 -0.0919
 7342ION    CL-11086   0.941   4.288  10.198  0.1190  0.0019 -0.0676
 7343ION    CL-11087   7.054   4.863   9.356 -0.4018  0.1004 -0.1465
 7344ION    CL-11088   5.956   5.428   3.444  0.1704 -0.0791 -0.0990
 7345ION    CL-11089   1.746   1.094   0.856  0.0350  0.1571 -0.3700
 7346ION    CL-11090   8.759   3.983   3.362  0.0868  0.0834  0.0402
 7347ION    CL-11091   0.226   9.294   3.115  0.1491 -0.3933  0.2140
 7348ION    CL-11092   0.487   8.936  11.384  0.1210 -0.0340 -0.0855
 7349ION    CL-11093   4.068   9.022   3.022 -0.1509 -0.1608  0.0174
 7350ION    CL-11094   2.521   5.087  10.386 -0.0315 -0.2325  0.1277
 7351ION    CL-11095   4.068   6.953   9.262  0.0782  0.1727 -0.0005
 7352ION    CL-11096   6.602   6.131  11.874 -0.0381  0.0485  0.1130
 7353ION    CL-11097   1.558   9.184   2.443  0.1993 -0.0269  0.0407
 7354ION    CL-11098   2.767   6.412   9.524  0.1495  0.0540  0.1801
 7355ION    CL-11099   5.091   0.403  10.506 -0.3430  0.1162 -0.2948
 7356ION    CL-11100   0.075   6.343   2.883 -0.0208  0.1015  0.2237
 7357ION    CL-11101   0.188   3.612   0.412 -0.4243 -0.0001 -0.1069
 7358ION    CL-11102   5.415   8.550  11.985 -0.0005 -0.1415 -0.1562
 7359ION    CL-11103   1.082   1.124   9.431 -0.0787 -0.4201 -0.2023
 7360ION    CL-11104   1.122   8.276   9.646  0.1280  0.0175  0.0099
 7361ION    CL-11105   5.740   3.697  11.163  0.4828  0.0666 -0.0525
 7362ION    CL-11106   0.235   5.372   1.419  0.1319 -0.1716 -0.0046
 7363ION    CL-11107   1.095   6.453   0.718 -0.0332  0.0072 -0.2139
 7364ION    CL-11108   6.439   1.328   2.279  0.1529  0.2282 -0.0242
 7365ION    CL-11109   0.638   3.006  11.218 -0.0961  0.2611 -0.1013
 7366ION    CL-11110   8.768   1.983  12.363 -0.1829 -0.4051  0.1072
 7367ION    CL-11111   9.959   9.111   9.168  0.0739 -0.0720  0.3234
 7368ION    CL-11112   9.202   7.241  10.556  0.1591 -0.0246  0.0438
 7369ION    CL-11113   4.434   4.431   3.620  0.0209 -0.1846  0.0194
 7370ION    CL-11114   5.708   3.838   9.026 -0.4234  0.1832 -0.1009
 7371ION    CL-11115   3.726   4.579   0.563  0.1052 -0.0377  0.0101
 7372ION    CL-11116   0.805   1.578  12.107  0.1414  0.1479  0.0978
 7373ION    CL-11117   0.917   9.120   4.012  0.3793 -0.2860 -0.1881
 7374ION    CL-11118   9.016   4.091   1.100 -0.0341  0.1016  0.0760
 7375ION    CL-11119   1.985   0.475   3.930 -0.1898  0.0206  0.1587
 7376ION    CL-11120   4.172   7.522   1.280 -0.0998  0.2036 -0.1256
 7377ION    CL-11121   1.766   0.921   2.953 -0.3271 -0.2991 -0.0081
 7378ION    CL-11122   5.033   5.733  11.908  0.1302  0.2662 -0.0533
 7379ION    CL-11123   4.944   4.718   2.158  0.2511 -0.0720  0.1708
 7380ION    CL-11124   5.675   1.362   2.250  0.1052  0.3045  0.1915
 7381ION    CL-11125   9.829   1.117   4.104  0.4163  0.0524  0.1552
   9.99193   9.99193  12.68762
